G5P-PAMAM in water
106187
    1aaa     C1    1   9.644   3.732   9.463 -0.1747 -0.3261  0.9493
    1aaa     H1    2   9.635   3.815   9.391  0.2934 -0.0316  1.2268
    1aaa     H2    3   9.546   3.694   9.493 -0.3406 -2.7992 -2.1478
    1aaa     C2    4   9.701   3.792   9.596  0.6888  0.6096  0.4631
    1aaa     H3    5   9.614   3.810   9.660 -0.5296  1.2129 -1.2932
    1aaa     H4    6   9.763   3.718   9.648 -0.5401  0.4222  1.7399
    1aaa     N1    7   9.763   3.919   9.560 -0.0209  0.6665  0.1511
    1aaa     N2    8   9.720   3.616   9.396  0.1666  0.0437  0.5791
    1aaa     C3    9   9.738   3.504   9.488  0.5108  0.5417 -0.6258
    1aaa     H5   10   9.652   3.437   9.491  1.4641 -0.7035  0.8565
    1aaa     H6   11   9.759   3.528   9.593 -1.0390  2.0613 -0.6218
    1aaa     C4   12   9.660   3.580   9.268 -0.3472 -1.0080 -0.1617
    1aaa     H7   13   9.702   3.483   9.236  0.3796 -1.3034  1.6039
    1aaa     H8   14   9.554   3.565   9.292 -1.0035 -1.2126 -2.8007
    1aaa     C5   15   9.890   3.914   9.489 -0.0069 -0.2718 -0.3583
    1aaa     H9   16   9.966   3.930   9.566  0.3890 -3.9736  0.2386
    1aaa    H10   17   9.919   3.820   9.439  0.7465  0.0554 -0.5537
    1aaa     C6   18   9.765   4.015   9.675 -0.0376  0.0398  0.7537
    1aaa    H11   19   9.839   4.091   9.647 -1.3012  1.2088  0.4656
    1aaa    H12   20   9.792   3.970   9.771 -0.5712  2.1084  1.9477
    1aaa     C7   21   9.894   4.040   9.398 -0.1317  0.0337  0.6413
    1aaa    H13   22   9.819   4.035   9.318  0.6379 -1.5537 -0.0336
    1aaa    H14   23   9.880   4.134   9.452 -0.4300 -0.8867  2.2189
    1aaa     C8   24   9.627   4.096   9.674  0.0735  0.5000 -0.3139
    1aaa    H15   25   9.633   4.182   9.606  1.6612  1.2052  0.6519
    1aaa    H16   26   9.542   4.030   9.655  0.3452 -0.1435  0.6183
    1aaa     C9   27   9.672   3.698   9.164 -0.0067  0.4812 -0.2685
    1aaa    H17   28   9.580   3.757   9.175  1.5694  3.3554 -1.5116
    1aaa    H18   29   9.758   3.756   9.200 -0.2656  0.1547  0.9135
    1aaa    C10   30   9.865   3.435   9.448  0.0826  0.4581 -0.0480
    1aaa    H19   31   9.853   3.399   9.345  0.2943 -4.4438  1.3936
    1aaa    H20   32   9.939   3.516   9.456 -0.0236  0.4767  0.8841
    1aaa    C11   33   9.671   3.644   9.023  1.0925  0.0465 -1.0733
    1aaa    C12   34   9.905   3.323   9.540  0.0315 -0.7350  0.2155
    1aaa    C13   35  10.023   4.051   9.320 -0.0517 -0.6585  0.1770
    1aaa    C14   36   9.605   4.162   9.810  0.3184 -0.0146 -0.9907
    1aaa     O1   37   9.689   3.525   8.997  0.1170  0.0633 -0.0110
    1aaa     O2   38  10.108   3.967   9.310  0.1748  0.1020  0.6776
    1aaa     O3   39   9.594   4.096   9.908 -0.1466 -0.2885  0.0847
    1aaa     O4   40   9.852   3.309   9.650 -0.7956 -0.0868 -0.0773
    2bbb     C1   41   9.670   3.793   8.688 -0.4382  0.0799 -0.4993
    2bbb     H1   42   9.777   3.794   8.713 -0.8113 -1.6095  1.4300
    2bbb     H2   43   9.633   3.892   8.719 -0.0629  0.0996 -0.0970
    2bbb     C2   44   9.601   3.696   8.792 -0.1119 -0.4808 -0.4305
    2bbb     H3   45   9.492   3.694   8.783 -0.3028  0.4567  1.1298
    2bbb     H4   46   9.640   3.596   8.769  1.2972 -0.5450  1.8446
    2bbb     N1   47   9.625   3.765   8.552 -0.5018 -0.1609 -0.4063
    2bbb     C3   48   9.702   3.666   8.483 -0.1562  0.5404 -0.0958
    2bbb     H5   49   9.656   3.656   8.384 -1.7663 -0.6637  0.7364
    2bbb     H6   50   9.694   3.573   8.541 -1.0392  0.2662 -0.6395
    2bbb     C4   51   9.615   3.895   8.477  0.2921  0.5385 -0.6522
    2bbb     H7   52   9.571   3.972   8.541  0.0300  0.4207 -0.6899
    2bbb     H8   53   9.713   3.924   8.437  0.8685  0.8731  0.9271
    2bbb     C5   54   9.519   3.873   8.360  0.3753  0.1600 -0.0631
    2bbb     H9   55   9.544   3.791   8.292 -2.4840  0.5340 -1.7459
    2bbb    H10   56   9.419   3.851   8.398  0.0978 -0.1787 -0.9525
    2bbb     C6   57   9.850   3.689   8.460 -0.8301 -0.8451  0.2636
    2bbb    H11   58   9.864   3.778   8.397 -2.4322  1.9035  3.4619
    2bbb    H12   59   9.904   3.699   8.554  1.3122  2.2973 -1.1183
    2bbb     C7   60   9.507   3.992   8.271 -0.5346  0.9560 -0.1521
    2bbb     C8   61   9.900   3.572   8.391 -0.3565  0.6384  0.2120
    2bbb     O1   62   9.539   4.104   8.304  0.1235 -0.3793  0.2291
    2bbb     O2   63   9.928   3.469   8.450 -0.3275 -0.2307 -0.0809
    2bbb     N4   64   9.625   3.735   8.938  0.4559  0.3999 -0.0078
    2bbb    H21   65   9.602   3.826   8.974 -0.5055  0.2308 -0.1676
    3bbb     C1   66  10.206   3.221   9.637 -0.4607  0.1211 -0.1485
    3bbb     H1   67  10.165   3.303   9.698 -2.4478 -1.8450  1.2897
    3bbb     H2   68  10.273   3.253   9.556  2.4072 -1.7401  1.3225
    3bbb     C2   69  10.081   3.153   9.570 -0.6505  0.3467  0.0688
    3bbb     H3   70  10.108   3.066   9.508  0.6894  0.6977  0.1131
    3bbb     H4   71  10.025   3.110   9.654 -0.8497  0.7696  0.1516
    3bbb     N1   72  10.275   3.130   9.724 -0.1991 -0.0521  0.1600
    3bbb     C3   73  10.368   3.214   9.811 -0.3989  0.8343  0.2545
    3bbb     H5   74  10.418   3.290   9.750 -1.4354  1.6819  0.4401
    3bbb     H6   75  10.450   3.155   9.854 -1.8483 -1.2268  0.3216
    3bbb     C4   76  10.360   3.036   9.648  0.9311  0.3211 -0.1083
    3bbb     H7   77  10.316   3.014   9.550  1.2063 -1.7371  0.1961
    3bbb     H8   78  10.457   3.086   9.639  1.7099 -0.4744  2.7751
    3bbb     C5   79  10.364   2.913   9.735 -0.5193 -0.3754 -0.3502
    3bbb     H9   80  10.420   2.936   9.827  1.3169 -0.3110 -1.4273
    3bbb    H10   81  10.260   2.891   9.759 -0.1142 -0.9145  1.0411
    3bbb     C6   82  10.288   3.263   9.932 -0.3822 -0.2514  0.2819
    3bbb    H11   83  10.237   3.356   9.904 -1.5793 -1.3445 -1.3908
    3bbb    H12   84  10.214   3.188   9.964  2.7290 -2.8019  2.1739
    3bbb     C7   85  10.433   2.793   9.685 -0.6129 -0.3979 -0.5906
    3bbb     C8   86  10.390   3.283  10.048 -0.0481 -0.5905 -0.8861
    3bbb     O1   87  10.421   2.768   9.567  0.1000 -0.6871 -0.0618
    3bbb     O2   88  10.461   3.383  10.055  0.4382  0.0971 -0.5908
    3bbb     N4   89  10.002   3.239   9.489  0.3423  0.2778  0.8999
    3bbb    H21   90  10.023   3.263   9.392 -0.1398  0.4008  0.8231
    4bbb     C1   91  10.167   4.365   9.156 -0.7466  0.1571 -0.0109
    4bbb     H1   92  10.104   4.434   9.214 -0.0882  0.2370  0.6320
    4bbb     H2   93  10.111   4.361   9.062 -0.7614  2.2517 -0.1443
    4bbb     C2   94  10.178   4.220   9.211 -0.1046  0.4628 -0.3715
    4bbb     H3   95  10.212   4.151   9.134 -1.5728 -0.5916 -0.0989
    4bbb     H4   96  10.246   4.226   9.297  0.6083  0.8184 -0.9478
    4bbb     N1   97  10.298   4.431   9.127 -0.2552  0.3514 -0.3716
    4bbb     C3   98  10.278   4.555   9.052 -0.1101 -0.2637  0.0785
    4bbb     H5   99  10.226   4.531   8.958 -2.1079  1.5037  0.6500
    4bbb     H6  100  10.374   4.606   9.035  0.2663 -0.4776  1.4339
    4bbb     C4  101  10.385   4.342   9.052 -0.6736  0.1435 -0.2905
    4bbb     H7  102  10.377   4.234   9.070  1.6850 -0.0445 -0.0183
    4bbb     H8  103  10.380   4.372   8.947 -1.2607  1.6949  0.1419
    4bbb     C5  104  10.525   4.375   9.117  0.3955 -0.3403 -0.4969
    4bbb     H9  105  10.548   4.480   9.095 -0.7851 -0.0114 -0.2671
    4bbb    H10  106  10.504   4.371   9.225 -2.4082 -0.6352 -0.9725
    4bbb     C6  107  10.200   4.665   9.123  0.2321  0.0676  0.1500
    4bbb    H11  108  10.097   4.630   9.139  0.6977 -1.3391  0.2473
    4bbb    H12  109  10.257   4.687   9.213  1.1132  2.5393 -0.9132
    4bbb     C7  110  10.633   4.283   9.070 -0.0185  0.5427  0.1121
    4bbb     C8  111  10.190   4.794   9.041  0.9711 -1.2497 -0.1054
    4bbb     O1  112  10.618   4.204   8.977  0.0603 -0.3644  0.6657
    4bbb     O2  113  10.088   4.818   8.976 -0.3092  0.0896  0.0546
    4bbb     N4  114  10.051   4.181   9.282  0.3317  0.1023 -0.1509
    4bbb    H21  115   9.979   4.250   9.295  0.7729  0.2618  1.6796
    5bbb     C1  116   9.553   4.521   9.929  0.1133  0.0671 -0.3989
    5bbb     H1  117   9.636   4.588   9.904  0.7373 -0.4611  0.2064
    5bbb     H2  118   9.515   4.563  10.023  1.4296 -1.0675  0.6970
    5bbb     C2  119   9.590   4.372   9.941  0.2058  0.0527  0.1743
    5bbb     H3  120   9.693   4.366   9.978  0.5942 -1.0134 -0.9989
    5bbb     H4  121   9.516   4.316  10.000  0.8708 -2.3110 -1.1088
    5bbb     N1  122   9.444   4.545   9.828 -0.3186 -0.4733 -0.0679
    5bbb     C3  123   9.468   4.672   9.757 -0.6847  0.3342  0.3652
    5bbb     H5  124   9.565   4.652   9.712 -0.9549 -0.2229  0.0240
    5bbb     H6  125   9.474   4.752   9.832 -0.4236 -1.3490  2.2242
    5bbb     C4  126   9.307   4.551   9.890 -0.0921 -0.5048 -1.1223
    5bbb     H7  127   9.284   4.643   9.945 -1.1926 -1.7191  0.5595
    5bbb     H8  128   9.240   4.537   9.805  0.2132 -0.5705 -1.3563
    5bbb     C5  129   9.277   4.445   9.991  0.3089 -0.5074  0.6714
    5bbb     H9  130   9.307   4.350   9.945 -1.3085 -0.9252  0.4210
    5bbb    H10  131   9.315   4.457  10.093  1.2636 -1.6156  0.4682
    5bbb     C6  132   9.367   4.693   9.639  0.0016  0.4734  0.7388
    5bbb    H11  133   9.366   4.608   9.570  0.4720  1.9555 -1.2027
    5bbb    H12  134   9.264   4.706   9.677 -0.5342 -1.1939 -0.0438
    5bbb     C7  135   9.129   4.437  10.015 -0.4209  0.2210  0.7542
    5bbb     C8  136   9.401   4.817   9.558  0.3442  0.0031 -0.1923
    5bbb     O1  137   9.063   4.363   9.945  0.5519  0.3577  0.1927
    5bbb     O2  138   9.470   4.910   9.600  0.5908  0.0261  0.4411
    5bbb     N4  139   9.596   4.302   9.810 -0.7745  0.3101  0.1756
    5bbb    H21  140   9.604   4.349   9.721 -1.2162 -0.7712 -0.4593
    6bbb     C1  141   9.348   3.991   7.921  0.2904  0.5352 -0.2770
    6bbb     H1  142   9.252   3.939   7.932  1.2974 -1.3933 -0.2280
    6bbb     H2  143   9.425   3.915   7.904 -2.7293 -2.7600 -0.6185
    6bbb     C2  144   9.410   4.058   8.046 -0.0583  0.2652  0.0313
    6bbb     H3  145   9.495   4.121   8.017 -0.4508  0.7136 -0.1645
    6bbb     H4  146   9.346   4.137   8.088  0.8298  1.6982 -1.2037
    6bbb     N1  147   9.348   4.082   7.805  0.5666 -0.1820 -0.1841
    6bbb     C3  148   9.242   4.184   7.826  0.0933 -0.3167  0.5477
    6bbb     H5  149   9.237   4.211   7.932  0.5268  0.8425  0.2904
    6bbb     H6  150   9.144   4.149   7.790 -0.9412  1.8238  1.1298
    6bbb     C4  151   9.324   4.019   7.674 -0.2218  0.2027  0.4994
    6bbb     H7  152   9.238   3.952   7.686  1.3901 -1.9333  0.6539
    6bbb     H8  153   9.308   4.099   7.600  0.8323 -0.6195 -0.6757
    6bbb     C5  154   9.451   3.940   7.637 -0.1960  0.1214 -0.0978
    6bbb     H9  155   9.532   4.009   7.613  1.8334 -1.5080  1.6800
    6bbb    H10  156   9.490   3.886   7.724 -1.3215  1.7616  1.5143
    6bbb     C6  157   9.278   4.317   7.755  0.1470 -0.1067  0.8413
    6bbb    H11  158   9.377   4.353   7.785  0.0843  2.8865 -1.9937
    6bbb    H12  159   9.274   4.305   7.646  1.3386  1.6496  0.5604
    6bbb     C7  160   9.424   3.833   7.532 -0.2973  0.4721 -0.2504
    6bbb     C8  161   9.175   4.422   7.796 -0.4252  0.0671 -0.0092
    6bbb     O1  162   9.373   3.725   7.558 -0.7038 -0.2240  0.2506
    6bbb     O2  163   9.066   4.391   7.842  0.0250  0.4455  0.0695
    6bbb     N4  164   9.439   3.963   8.155 -0.2147  0.1419  0.3744
    6bbb    H21  165   9.415   3.865   8.142 -0.1366  0.0962  0.5710
    7bbb     C1  166   9.967   3.480   8.025 -0.4943 -0.1657  0.1288
    7bbb     H1  167   9.871   3.445   7.984  0.3880 -0.5549 -1.7236
    7bbb     H2  168  10.043   3.410   7.989 -0.2142 -0.7918  1.8409
    7bbb     C2  169   9.963   3.457   8.176 -0.1314 -0.4081 -0.0008
    7bbb     H3  170   9.912   3.361   8.183 -1.6895  0.4309  0.7310
    7bbb     H4  171  10.067   3.434   8.202  0.0845  0.8558  0.3174
    7bbb     N1  172   9.998   3.618   7.970 -0.0999 -0.6486  0.0657
    7bbb     C3  173   9.974   3.611   7.824 -0.6737 -0.3286  0.0740
    7bbb     H5  174  10.012   3.516   7.786  1.2589  0.6187 -0.4927
    7bbb     H6  175  10.032   3.690   7.775 -0.4851 -0.4723  0.0673
    7bbb     C4  176  10.142   3.658   7.977  0.4556  0.1634 -0.7229
    7bbb     H7  177  10.202   3.566   7.979 -1.0252 -0.8482  1.1153
    7bbb     H8  178  10.167   3.730   7.899  0.8518 -1.6364 -2.3492
    7bbb     C5  179  10.177   3.729   8.099  0.9443  0.3544 -0.0989
    7bbb     H9  180  10.132   3.830   8.095 -0.4665 -0.2459  0.0208
    7bbb    H10  181  10.141   3.677   8.188 -2.5392 -1.5443 -2.3646
    7bbb     C6  182   9.830   3.642   7.794  0.1763 -0.0665 -0.9826
    7bbb    H11  183   9.758   3.567   7.829  1.7142 -1.3569 -0.4388
    7bbb    H12  184   9.796   3.740   7.830 -1.1596  0.2610 -2.9764
    7bbb     C7  185  10.328   3.752   8.099  0.0456  0.0059 -0.0069
    7bbb     C8  186   9.804   3.656   7.649  0.3152 -0.7729  0.4707
    7bbb     O1  187  10.394   3.792   8.003  0.1384  0.3034  0.2044
    7bbb     O2  188   9.783   3.769   7.597  0.3018  0.2133 -0.0845
    7bbb     N4  189   9.916   3.576   8.253  0.0728  0.1076  0.3462
    7bbb    H21  190   9.886   3.660   8.204  0.4533  1.0586  1.6815
    8bbb     C1  191  10.653   2.515   9.802  0.4469  0.4176  0.1214
    8bbb     H1  192  10.750   2.568   9.795  1.3884 -1.3172 -0.5525
    8bbb     H2  193  10.675   2.415   9.764  1.3885 -0.1990  2.1470
    8bbb     C2  194  10.566   2.591   9.704  0.1888 -0.8609 -0.8011
    8bbb     H3  195  10.637   2.620   9.625  2.1437  0.5623  1.3562
    8bbb     H4  196  10.486   2.525   9.669 -1.2829  0.0902  0.6304
    8bbb     N1  197  10.600   2.496   9.940 -0.4011  0.1056 -0.4160
    8bbb     C3  198  10.705   2.443  10.031 -0.4651 -0.1280 -0.3374
    8bbb     H5  199  10.729   2.339  10.006  1.1121  0.6228 -2.1716
    8bbb     H6  200  10.668   2.460  10.133 -1.1631 -0.6591 -0.4955
    8bbb     C4  201  10.480   2.405   9.941  0.3977 -0.0577 -0.0966
    8bbb     H7  202  10.407   2.442   9.868 -0.5170 -0.3660  0.6333
    8bbb     H8  203  10.515   2.306   9.908 -0.7254  0.0961 -1.9268
    8bbb     C5  204  10.407   2.412  10.074  0.6403 -0.0792  0.1562
    8bbb     H9  205  10.467   2.369  10.155 -2.5139 -2.5747  1.3801
    8bbb    H10  206  10.381   2.517  10.096 -1.5960 -0.3542 -0.8292
    8bbb     C6  207  10.840   2.514  10.030  0.4306  0.4719 -0.9779
    8bbb    H11  208  10.891   2.512   9.932  2.6790  1.7862  0.0915
    8bbb    H12  209  10.826   2.618  10.060  3.2261  0.8207 -0.5758
    8bbb     C7  210  10.275   2.342  10.064  0.0345 -0.3595 -0.1853
    8bbb     C8  211  10.926   2.433  10.124  0.3395  0.0980  0.6785
    8bbb     O1  212  10.183   2.394  10.009  0.3442 -0.0819 -0.9069
    8bbb     O2  213  11.010   2.345  10.100 -0.1328 -0.2049  0.6483
    8bbb     N4  214  10.506   2.715   9.764 -1.0127  0.4723 -0.8856
    8bbb    H21  215  10.513   2.729   9.864  0.3582 -0.3460 -0.8266
    9bbb     C1  216  10.626   3.134  10.209 -0.2027 -0.0645  0.2009
    9bbb     H1  217  10.678   3.127  10.305 -1.6168 -1.1734  0.9174
    9bbb     H2  218  10.672   3.214  10.149 -0.7416  0.2149  0.1529
    9bbb     C2  219  10.485   3.176  10.254 -0.4014 -0.1129  0.1585
    9bbb     H3  220  10.444   3.109  10.330 -1.6703  1.4171  0.8807
    9bbb     H4  221  10.500   3.275  10.299  2.3975 -1.2971  2.1549
    9bbb     N1  222  10.645   2.999  10.162 -0.2830 -0.2703 -1.0017
    9bbb     C3  223  10.566   2.903  10.229 -0.5672  0.0726  0.1689
    9bbb     H5  224  10.466   2.902  10.185 -0.8036  0.0548  0.6969
    9bbb     H6  225  10.560   2.925  10.337 -1.5985  2.4527 -0.3000
    9bbb     C4  226  10.638   2.992  10.016 -0.3025 -0.7375 -0.0026
    9bbb     H7  227  10.597   2.897   9.980 -0.0078 -0.4984 -0.9871
    9bbb     H8  228  10.567   3.071   9.988 -0.6857 -1.0600  0.0498
    9bbb     C5  229  10.772   3.015   9.962  0.0543 -0.2688  0.1169
    9bbb     H9  230  10.809   3.107  10.009  1.5954 -1.7914  2.0608
    9bbb    H10  231  10.844   2.941   9.998 -0.4869 -0.5958  0.5408
    9bbb     C6  232  10.637   2.765  10.208 -1.3857  0.3258  0.1139
    9bbb    H11  233  10.595   2.707  10.125  2.0572  0.2727 -1.8255
    9bbb    H12  234  10.742   2.779  10.177 -1.8143  1.8168 -0.7967
    9bbb     C7  235  10.776   3.024   9.812  0.2597 -0.6525 -0.3955
    9bbb     C8  236  10.639   2.680  10.332  0.4883  0.5962  0.0870
    9bbb     O1  237  10.713   3.112   9.754 -0.0128  0.8584  0.5137
    9bbb     O2  238  10.747   2.660  10.389 -1.2693  0.3449  0.6160
    9bbb     N4  239  10.386   3.185  10.140  0.4271 -0.1061 -0.0782
    9bbb    H21  240  10.313   3.115  10.129 -0.2293  0.6041 -0.3243
   10bbb     C1  241  10.967   4.222   9.228 -0.7852 -0.2310 -0.1402
   10bbb     H1  242  10.940   4.237   9.333  1.1480  3.1467  0.0404
   10bbb     H2  243  11.002   4.314   9.178 -0.7208 -1.0361 -1.6309
   10bbb     C2  244  10.842   4.190   9.138 -0.2725  0.0918 -0.7801
   10bbb     H3  245  10.880   4.182   9.036 -0.4544  1.4278 -0.9624
   10bbb     H4  246  10.797   4.097   9.175 -2.0323  1.4066  0.5853
   10bbb     N1  247  11.081   4.135   9.206 -0.3147 -0.3838 -0.2028
   10bbb     C3  248  11.060   3.997   9.250 -0.3606  0.2486  0.5618
   10bbb     H5  249  10.963   3.975   9.205  0.1152 -0.3259 -0.2022
   10bbb     H6  250  11.059   3.987   9.360 -1.5145 -2.8448  0.3861
   10bbb     C4  251  11.212   4.196   9.248 -0.1625 -0.4916 -0.3311
   10bbb     H7  252  11.231   4.224   9.352  2.0502 -0.8568 -0.5701
   10bbb     H8  253  11.300   4.139   9.214 -1.3995 -2.3968 -0.5304
   10bbb     C5  254  11.241   4.317   9.159  0.2623  0.5863  0.0730
   10bbb     H9  255  11.223   4.295   9.053  0.0039  0.0113  0.2342
   10bbb    H10  256  11.180   4.406   9.177 -0.5311  0.2208 -0.6969
   10bbb     C6  257  11.167   3.906   9.185  0.0789  0.1536  0.3894
   10bbb    H11  258  11.173   3.931   9.079  0.1226 -0.1269  0.3226
   10bbb    H12  259  11.264   3.923   9.234 -0.1056 -1.0197  1.2087
   10bbb     C7  260  11.377   4.364   9.187  0.2659  0.2289  0.2623
   10bbb     C8  261  11.116   3.763   9.195  0.3808 -0.4551  0.1346
   10bbb     O1  262  11.416   4.389   9.301  0.4822 -0.4492 -0.2500
   10bbb     O2  263  10.999   3.736   9.189 -0.3075 -0.5932  0.3944
   10bbb     N4  264  10.743   4.293   9.144  0.6278 -0.1985 -0.6572
   10bbb    H21  265  10.746   4.370   9.209 -0.3900  0.1365 -1.0080
   11bbb     C1  266  10.395   4.977   8.844 -0.3021 -0.1785  0.4190
   11bbb     H1  267  10.498   4.963   8.881 -0.5579 -0.2654  1.1078
   11bbb     H2  268  10.393   5.068   8.782 -1.0971  0.0570  0.7857
   11bbb     C2  269  10.314   5.005   8.965 -0.8888 -0.0834 -0.3173
   11bbb     H3  270  10.362   5.089   9.016 -0.7502  0.4145 -1.2496
   11bbb     H4  271  10.213   5.032   8.932 -2.0240 -1.6936  1.6175
   11bbb     N1  272  10.363   4.856   8.758 -0.2533  0.3845 -0.4971
   11bbb     C3  273  10.484   4.802   8.702  0.0115  0.8991 -0.2337
   11bbb     H5  274  10.553   4.885   8.682 -0.3801  1.5769  1.0942
   11bbb     H6  275  10.466   4.745   8.610 -0.3218  2.9141 -1.4979
   11bbb     C4  276  10.254   4.896   8.674  0.1698 -0.2655  0.2864
   11bbb     H7  277  10.177   4.931   8.743  1.9954  0.6320  1.9634
   11bbb     H8  278  10.294   4.980   8.615  2.0354  0.4680  2.4713
   11bbb     C5  279  10.194   4.781   8.589  0.4545 -0.0919 -0.1352
   11bbb     H9  280  10.274   4.742   8.525  1.1690  1.3003 -0.1111
   11bbb    H10  281  10.156   4.707   8.662  0.5915  1.2435  1.3404
   11bbb     C6  282  10.543   4.713   8.812  0.2535  0.1375 -0.2867
   11bbb    H11  283  10.564   4.769   8.904  1.7160 -0.0412 -0.4814
   11bbb    H12  284  10.480   4.626   8.836  0.5112  0.1408  0.4495
   11bbb     C7  285  10.067   4.813   8.508 -0.7061 -0.7460  0.3280
   11bbb     C8  286  10.675   4.666   8.772  0.3292  0.3122  0.1686
   11bbb     O1  287   9.973   4.866   8.566 -0.1986  0.5441 -0.3238
   11bbb     O2  288  10.695   4.547   8.769 -0.5016  0.3754 -0.6124
   11bbb     N4  289  10.290   4.884   9.058 -0.2018 -0.3113  0.7136
   11bbb    H21  290  10.362   4.872   9.128  1.0660 -0.5223 -0.5774
   12bbb     C1  291   8.906   4.675  10.045  0.3885 -0.2818  0.1147
   12bbb     H1  292   8.797   4.683  10.046  0.3403 -0.9278  0.2380
   12bbb     H2  293   8.936   4.645   9.943 -0.0976 -4.4312  1.0128
   12bbb     C2  294   8.939   4.553  10.127 -0.4201  0.5450  0.0660
   12bbb     H3  295   8.915   4.557  10.234  0.4945 -0.3875  0.3294
   12bbb     H4  296   8.883   4.468  10.086 -0.7278  0.0276  1.4659
   12bbb     N1  297   8.981   4.792  10.096 -0.0158 -0.5184  0.5259
   12bbb     C3  298   8.913   4.863  10.206 -0.4293  0.4959  0.1263
   12bbb     H5  299   8.879   4.789  10.279  0.2905 -1.2892 -1.2632
   12bbb     H6  300   8.830   4.909  10.150 -0.8177 -0.6510 -0.2520
   12bbb     C4  301   8.985   4.883   9.986  0.6989  0.0482  0.3127
   12bbb     H7  302   8.895   4.887   9.923  1.2467 -1.5839 -0.6339
   12bbb     H8  303   8.997   4.985  10.025 -0.8831  0.3619  0.0318
   12bbb     C5  304   9.099   4.849   9.898 -0.1030  0.6086 -0.3993
   12bbb     H9  305   9.194   4.854   9.951 -0.8218 -0.2334  1.0150
   12bbb    H10  306   9.091   4.749   9.854  1.6938  0.2512  0.0105
   12bbb     C6  307   8.999   4.972  10.271 -0.1790  0.6143 -0.4701
   12bbb    H11  308   9.091   4.923  10.304 -0.0299  0.4793 -1.0651
   12bbb    H12  309   9.025   5.058  10.207  0.6951 -0.5150 -1.7056
   12bbb     C7  310   9.107   4.947   9.784 -0.6969 -0.1801 -0.5470
   12bbb     C8  311   8.936   5.015  10.403  0.2660  0.3802  0.9323
   12bbb     O1  312   9.017   4.945   9.703  0.3159  0.1353 -0.1483
   12bbb     O2  313   8.964   4.966  10.511 -0.1256  0.2715  1.1776
   12bbb     N4  314   9.081   4.510  10.122 -0.9728  0.2294  0.6101
   12bbb    H21  315   9.162   4.561  10.156  1.1882 -1.3173 -1.8227
   13bbb     C1  316   9.241   4.961   9.276  0.7778  0.3705 -0.5055
   13bbb     H1  317   9.182   4.978   9.366 -0.0386  0.0237 -0.9640
   13bbb     H2  318   9.198   4.890   9.203  3.3122 -0.4859 -1.2779
   13bbb     C2  319   9.374   4.896   9.320 -0.2695  0.0320  0.1336
   13bbb     H3  320   9.420   4.841   9.238 -1.4811 -1.5789  0.4780
   13bbb     H4  321   9.444   4.976   9.349 -1.9272  0.9465  1.9057
   13bbb     N1  322   9.263   5.089   9.214  0.2456  0.1264  0.5897
   13bbb     C3  323   9.267   5.192   9.317  0.0021  0.3731  0.3002
   13bbb     H5  324   9.307   5.150   9.410 -0.3020  0.4318  0.4551
   13bbb     H6  325   9.164   5.228   9.326  0.3899  1.5546  0.1799
   13bbb     C4  326   9.171   5.123   9.099  0.6959 -0.1814  0.2101
   13bbb     H7  327   9.070   5.091   9.123  0.7538 -1.5476 -1.2008
   13bbb     H8  328   9.154   5.231   9.087 -2.9236 -0.5284  1.1648
   13bbb     C5  329   9.208   5.073   8.964  0.5558 -0.0338  0.0177
   13bbb     H9  330   9.316   5.060   8.952  0.4114  1.1831 -4.6197
   13bbb    H10  331   9.165   4.975   8.939 -1.7151  0.7501  0.6255
   13bbb     C6  332   9.361   5.302   9.271  0.1460 -0.2252 -0.0611
   13bbb    H11  333   9.464   5.267   9.257 -0.3329 -1.6511 -0.1105
   13bbb    H12  334   9.331   5.340   9.172  0.4928 -1.6641 -0.7359
   13bbb     C7  335   9.159   5.156   8.850  0.2612 -0.2247 -0.4285
   13bbb     C8  336   9.349   5.411   9.366 -0.2797  0.2853  0.1824
   13bbb     O1  337   9.041   5.166   8.828  0.1639  0.2539  0.0235
   13bbb     O2  338   9.271   5.498   9.350 -0.0821 -0.4850 -0.3181
   13bbb     N4  339   9.349   4.805   9.430  1.0532 -0.7777 -0.2551
   13bbb    H21  340   9.277   4.734   9.423  0.0697 -0.1240  2.1093
   14bbb     C1  341   9.503   3.828   7.171 -0.2189 -0.1024  0.0656
   14bbb     H1  342   9.586   3.757   7.184 -1.1772 -1.0527  1.2162
   14bbb     H2  343   9.552   3.926   7.175  1.3112 -0.7303 -1.6500
   14bbb     C2  344   9.403   3.812   7.282 -0.0178  0.3797  0.2069
   14bbb     H3  345   9.311   3.870   7.265  0.3398  0.4830 -1.5462
   14bbb     H4  346   9.387   3.705   7.304  1.6003 -0.0106 -0.4320
   14bbb     N1  347   9.432   3.810   7.040 -0.1787  0.9470  0.8515
   14bbb     C3  348   9.530   3.757   6.945  0.2741  0.0522  0.8345
   14bbb     H5  349   9.627   3.800   6.970  1.7829 -0.6609 -3.1048
   14bbb     H6  350   9.507   3.786   6.842  1.2270  0.7599  0.8153
   14bbb     C4  351   9.378   3.933   7.005 -0.8245  0.0988 -0.9541
   14bbb     H7  352   9.318   3.971   7.088 -0.9530 -1.5534 -0.2559
   14bbb     H8  353   9.465   3.996   6.984  0.6449 -2.4183 -2.9948
   14bbb     C5  354   9.297   3.932   6.876  0.0281 -0.5407 -0.4028
   14bbb     H9  355   9.249   4.030   6.863 -1.2361 -1.1166 -0.2367
   14bbb    H10  356   9.355   3.911   6.785 -1.6782 -4.8244 -0.6926
   14bbb     C6  357   9.526   3.603   6.944 -0.0204 -0.8727 -0.7207
   14bbb    H11  358   9.581   3.564   7.030  0.0333 -0.9781 -0.8017
   14bbb    H12  359   9.421   3.571   6.951 -0.6177  0.9668 -0.7889
   14bbb     C7  360   9.174   3.845   6.890  0.1171 -0.2343 -0.4698
   14bbb     C8  361   9.577   3.537   6.822 -0.8240 -0.1739  0.9521
   14bbb     O1  362   9.089   3.853   6.981 -0.1173  0.0809  0.7715
   14bbb     O2  363   9.660   3.447   6.829  0.6071  0.0351  0.2990
   14bbb     N4  364   9.451   3.872   7.407  0.2970 -0.4089  0.5726
   14bbb    H21  365   9.506   3.957   7.401  2.1870 -1.2984  2.9699
   15bbb     C1  366   9.259   4.805   7.797  0.2494  0.4069  0.3669
   15bbb     H1  367   9.255   4.813   7.688 -0.6472 -0.1798  0.3400
   15bbb     H2  368   9.364   4.787   7.822  0.2734 -1.8929 -1.1299
   15bbb     C2  369   9.176   4.675   7.835  0.3108 -0.0699  0.0245
   15bbb     H3  370   9.166   4.671   7.944 -1.5863 -0.1350 -0.1142
   15bbb     H4  371   9.071   4.683   7.802  0.4405  0.3367 -0.3012
   15bbb     N1  372   9.204   4.929   7.858  0.3517  0.0591  0.2329
   15bbb     C3  373   9.073   4.965   7.805 -0.5873 -0.3947 -0.0941
   15bbb     H5  374   9.000   4.884   7.791 -1.5826  0.0846  1.8806
   15bbb     H6  375   9.085   5.020   7.711 -4.4031 -0.5763 -0.8474
   15bbb     C4  376   9.297   5.040   7.841  0.4058  0.4817 -0.1852
   15bbb     H7  377   9.312   5.054   7.733 -1.7572  0.6570 -0.5129
   15bbb     H8  378   9.256   5.132   7.883  0.3556 -0.0022  0.8645
   15bbb     C5  379   9.432   5.014   7.913 -0.9160 -0.5499 -0.2955
   15bbb     H9  380   9.409   4.978   8.014  1.2210  1.0661  0.8493
   15bbb    H10  381   9.487   4.938   7.857 -0.9665 -1.3704  0.7395
   15bbb     C6  382   9.006   5.066   7.895  0.0055  0.3717 -0.0427
   15bbb    H11  383   9.007   5.029   7.999 -0.1728  1.0298  0.1983
   15bbb    H12  384   9.060   5.162   7.897  1.3754 -0.3677  1.0662
   15bbb     C7  385   9.509   5.142   7.925  0.2410  0.4211 -0.1311
   15bbb     C8  386   8.861   5.079   7.846 -0.0755  0.2521  0.3671
   15bbb     O1  387   9.493   5.241   7.857 -0.3204 -0.1774 -0.1914
   15bbb     O2  388   8.821   5.026   7.738 -0.6361 -0.4005 -0.7640
   15bbb     N4  389   9.227   4.547   7.773  0.0195 -0.3955 -0.2209
   15bbb    H21  390   9.319   4.547   7.731  0.4879 -0.7801  0.7832
   16bbb     C1  391  10.574   3.775   8.390 -0.5286  0.0273 -0.5820
   16bbb     H1  392  10.682   3.755   8.402 -0.7773 -0.3497  1.2135
   16bbb     H2  393  10.523   3.716   8.466 -1.4646  0.5775 -0.7751
   16bbb     C2  394  10.531   3.731   8.250  0.4668  0.7111  0.3543
   16bbb     H3  395  10.587   3.792   8.178 -1.1471  3.8400  1.5776
   16bbb     H4  396  10.565   3.627   8.239 -0.9647  0.3232 -0.8458
   16bbb     N1  397  10.545   3.914   8.424  0.1743  1.0530 -0.1988
   16bbb     C3  398  10.552   3.926   8.573  0.2068 -0.0391 -0.3828
   16bbb     H5  399  10.575   4.030   8.597  1.0697 -0.2543 -0.2266
   16bbb     H6  400  10.637   3.862   8.600  1.3852  0.6785 -2.1613
   16bbb     C4  401  10.621   4.014   8.348 -0.0615  0.3783 -0.2359
   16bbb     H7  402  10.619   3.993   8.241  0.0599  1.3246 -0.4312
   16bbb     H8  403  10.568   4.110   8.352 -2.4355 -0.8348 -0.5224
   16bbb     C5  404  10.761   4.025   8.398  0.3316 -0.2420 -0.0595
   16bbb     H9  405  10.757   4.079   8.493 -0.3533 -2.4005  1.2028
   16bbb    H10  406  10.811   3.931   8.423  2.5640  1.0383  0.4918
   16bbb     C6  407  10.419   3.883   8.626  0.9100 -0.2484  0.0015
   16bbb    H11  408  10.338   3.937   8.576  1.1611 -0.2316 -0.3838
   16bbb    H12  409  10.402   3.775   8.615  0.2437 -0.0245 -1.3573
   16bbb     C7  410  10.840   4.108   8.301  0.7153 -0.0677 -0.0696
   16bbb     C8  411  10.414   3.936   8.766 -0.2528  0.5189  0.9288
   16bbb     O1  412  10.853   4.079   8.184  0.6416  0.3019 -0.1491
   16bbb     O2  413  10.347   4.031   8.792  0.3870 -0.0804 -0.0432
   16bbb     N4  414  10.386   3.731   8.220  0.1311 -0.3445  0.6421
   16bbb    H21  415  10.319   3.713   8.294 -0.5011  1.5967  0.5917
   17bbb     C1  416   9.798   3.389   7.368 -0.0343  0.2847  0.0242
   17bbb     H1  417   9.794   3.303   7.436  1.9611 -0.7905 -1.1294
   17bbb     H2  418   9.905   3.387   7.342 -0.0405 -0.6555  0.0653
   17bbb     C2  419   9.746   3.519   7.433 -0.8500  0.2049 -0.2006
   17bbb     H3  420   9.774   3.602   7.367  0.4165 -0.8277 -0.9933
   17bbb     H4  421   9.637   3.518   7.448 -0.8683 -2.2714 -0.0046
   17bbb     N1  422   9.716   3.374   7.244  0.1232 -0.6653 -0.5279
   17bbb     C3  423   9.600   3.289   7.279  0.3142 -0.3667  0.2010
   17bbb     H5  424   9.596   3.282   7.388  0.7124  1.3052  0.3542
   17bbb     H6  425   9.613   3.186   7.241 -1.2038 -0.1665 -0.9338
   17bbb     C4  426   9.790   3.330   7.125  0.3182 -0.0916 -0.3190
   17bbb     H7  427   9.849   3.243   7.156 -0.5128 -0.4001  0.4479
   17bbb     H8  428   9.711   3.303   7.053 -2.3727 -1.0886  2.7725
   17bbb     C5  429   9.876   3.435   7.065  0.0345 -0.0952 -0.8943
   17bbb     H9  430   9.822   3.521   7.025  1.6003  0.6043 -1.5704
   17bbb    H10  431   9.943   3.475   7.142 -0.9240 -1.8570  0.9685
   17bbb     C6  432   9.470   3.344   7.222  0.2770 -0.0011  0.1170
   17bbb    H11  433   9.480   3.452   7.204 -0.8022 -0.1623 -1.7294
   17bbb    H12  434   9.434   3.299   7.129 -0.7729  1.2623 -0.1098
   17bbb     C7  435   9.957   3.377   6.956  0.0875 -0.1994  0.1895
   17bbb     C8  436   9.366   3.326   7.332 -0.0467 -0.0297  0.4353
   17bbb     O1  437  10.045   3.291   6.979  0.1789 -0.1071  0.2760
   17bbb     O2  438   9.359   3.403   7.419  0.1055 -0.0633  0.0202
   17bbb     N4  439   9.786   3.534   7.580  0.1360 -0.9040  0.6910
   17bbb    H21  440   9.811   3.456   7.640  2.4732  1.1944  2.7202
   18bbb     C1  441  10.085   2.100  10.263  0.8536 -0.3644 -0.4809
   18bbb     H1  442  10.048   2.199  10.293  1.4218  0.6730 -2.9448
   18bbb     H2  443  10.150   2.059  10.341  0.0411 -0.3314  0.2325
   18bbb     C2  444  10.163   2.116  10.131  0.4740  0.2217 -0.3062
   18bbb     H3  445  10.215   2.019  10.124  2.0762  0.9746  0.5087
   18bbb     H4  446  10.096   2.137  10.048  0.7026  1.5356 -0.1725
   18bbb     N1  447   9.961   2.018  10.260 -0.2167  0.7421  0.2922
   18bbb     C3  448   9.877   2.046  10.377 -0.2304 -0.5986  0.1725
   18bbb     H5  449   9.860   2.154  10.375 -0.1212 -0.5848 -1.4540
   18bbb     H6  450   9.919   2.021  10.475  2.6042  2.3758 -0.1049
   18bbb     C4  451   9.988   1.874  10.236  0.5602 -0.0154 -0.3398
   18bbb     H7  452   9.890   1.825  10.226 -0.2329  1.6799 -1.0895
   18bbb     H8  453  10.038   1.878  10.139  1.0805  1.2384 -0.0343
   18bbb     C5  454  10.062   1.806  10.345 -0.2245  0.5791 -0.0252
   18bbb     H9  455  10.160   1.853  10.356  0.1493 -0.1860 -0.0114
   18bbb    H10  456  10.018   1.823  10.444 -2.0480 -0.9889 -0.5009
   18bbb     C6  457   9.739   1.988  10.356 -0.6516 -0.3378  0.8365
   18bbb    H11  458   9.712   2.015  10.253  0.5842 -0.5719  0.4275
   18bbb    H12  459   9.734   1.879  10.362 -1.1975 -0.3993 -0.3688
   18bbb     C7  460  10.082   1.668  10.310  0.2607  0.4604  0.6110
   18bbb     C8  461   9.636   2.053  10.440 -0.0844 -0.2592 -0.1830
   18bbb     O1  462  10.149   1.639  10.215 -0.0694 -0.1577  0.0146
   18bbb     O2  463   9.605   2.169  10.424  0.3040  0.2008 -0.1510
   18bbb     N4  464  10.277   2.219  10.131  0.4378  0.7404  0.6840
   18bbb    H21  465  10.373   2.199  10.155  0.9583  2.5456  0.2735
   19bbb     C1  466  10.906   2.317  10.469 -1.4350 -0.1128 -0.3581
   19bbb     H1  467  10.819   2.356  10.524 -1.6328 -0.6431 -0.2854
   19bbb     H2  468  10.986   2.303  10.543 -1.7759 -2.3870 -0.3649
   19bbb     C2  469  10.965   2.413  10.372  0.4575 -0.1571 -0.1358
   19bbb     H3  470  10.984   2.502  10.432  2.1748  0.2024 -1.1627
   19bbb     H4  471  11.061   2.374  10.336  2.0570  2.1581  1.3958
   19bbb     N1  472  10.862   2.184  10.412 -0.0349  0.1150  0.3737
   19bbb     C3  473  10.735   2.184  10.337 -0.1657  0.9034 -0.1846
   19bbb     H5  474  10.710   2.276  10.282 -0.9939  1.4975  1.1538
   19bbb     H6  475  10.653   2.157  10.403  1.0128 -1.1100  0.5290
   19bbb     C4  476  10.860   2.081  10.520 -0.0364 -0.7537  0.4216
   19bbb     H7  477  10.800   2.111  10.607  0.4877  0.2941  0.4510
   19bbb     H8  478  10.814   1.990  10.480 -1.4720 -0.2872  0.9480
   19bbb     C5  479  10.998   2.048  10.571 -0.7167  0.5952 -0.0090
   19bbb     H9  480  11.059   1.993  10.499  1.6115 -0.6918  2.7030
   19bbb    H10  481  11.057   2.136  10.599  0.6215  1.4585 -4.7803
   19bbb     C6  482  10.746   2.068  10.225 -0.0658  0.3586 -0.8117
   19bbb    H11  483  10.836   2.079  10.163 -0.0166  1.2078 -0.5982
   19bbb    H12  484  10.755   1.968  10.270  2.4497  0.9708  0.1916
   19bbb     C7  485  10.988   1.955  10.695  0.4045  0.1275  0.0598
   19bbb     C8  486  10.632   2.063  10.124  0.1341 -0.0745  0.3035
   19bbb     O1  487  10.885   1.900  10.722 -0.0427 -0.3635  0.2199
   19bbb     O2  488  10.524   2.109  10.157  1.0563 -0.6546  0.7892
   19bbb     N4  489  10.894   2.463  10.249  0.6675 -0.1131 -0.4980
   19bbb    H21  490  10.820   2.532  10.250 -0.0855 -0.8105 -2.8352
   20bbb     C1  491  10.756   2.876   9.518 -0.2750 -0.4246  0.2335
   20bbb     H1  492  10.663   2.920   9.558 -0.1057 -1.1646  1.4944
   20bbb     H2  493  10.740   2.768   9.523  0.4409 -0.5429  0.0412
   20bbb     C2  494  10.874   2.929   9.598  0.2312  0.3588  0.2085
   20bbb     H3  495  10.966   2.872   9.577 -0.8933 -1.4549  0.0329
   20bbb     H4  496  10.891   3.035   9.575  2.9993  0.2012  1.1525
   20bbb     N1  497  10.787   2.926   9.387  0.4565  0.8377 -0.0404
   20bbb     C3  498  10.878   2.844   9.317  0.4349  0.0908  0.3804
   20bbb     H5  499  10.832   2.750   9.286 -0.3299  0.6206 -0.1285
   20bbb     H6  500  10.961   2.822   9.385  0.5531 -0.4294  0.0704
   20bbb     C4  501  10.665   2.951   9.313  0.0008 -0.5097 -0.1381
   20bbb     H7  502  10.679   2.939   9.204 -1.5632 -0.7405 -0.3316
   20bbb     H8  503  10.587   2.882   9.348 -1.6727  1.1286 -0.5118
   20bbb     C5  504  10.637   3.097   9.334 -0.3124 -0.7351  0.0455
   20bbb     H9  505  10.635   3.125   9.440 -1.5666  1.2834 -0.4487
   20bbb    H10  506  10.710   3.164   9.287 -0.8237  0.8159  1.4051
   20bbb     C6  507  10.944   2.924   9.204 -0.0643  0.0111  0.7081
   20bbb    H11  508  10.871   2.971   9.137 -0.0775 -0.1797  0.5888
   20bbb    H12  509  11.012   3.001   9.243 -1.1190  0.4553  1.7331
   20bbb     C7  510  10.507   3.144   9.286 -0.3110 -0.3263  0.2528
   20bbb     C8  511  11.018   2.816   9.132 -0.0112  0.0698  0.2714
   20bbb     O1  512  10.433   3.077   9.224  0.1041  0.6724  0.5798
   20bbb     O2  513  10.956   2.735   9.058  0.4069  0.6920 -0.1595
   20bbb     N4  514  10.852   2.928   9.747 -0.2693  0.2032  0.0272
   20bbb    H21  515  10.917   2.879   9.807  0.1253  0.2924 -0.3252
   21bbb     C1  516  10.485   2.564  10.608  0.2435 -0.3693  0.1569
   21bbb     H1  517  10.379   2.588  10.591  0.6559  1.1942 -0.3207
   21bbb     H2  518  10.541   2.654  10.634  1.1084 -1.2407  1.4434
   21bbb     C2  519  10.537   2.512  10.470 -0.7183 -1.1278 -0.3593
   21bbb     H3  520  10.638   2.471  10.483  0.0391  0.8684  0.3700
   21bbb     H4  521  10.483   2.425  10.431 -0.7384 -1.4220  0.3161
   21bbb     N1  522  10.509   2.456  10.712  0.2279 -0.0831 -0.1225
   21bbb     C3  523  10.650   2.464  10.750 -0.3599  0.4400 -0.3658
   21bbb     H5  524  10.664   2.555  10.810 -0.8561  0.8735 -0.9056
   21bbb     H6  525  10.717   2.472  10.663 -0.5613 -4.5103 -1.2997
   21bbb     C4  526  10.419   2.493  10.824  0.1903  0.2738  0.7943
   21bbb     H7  527  10.457   2.450  10.918  1.1501 -2.7204 -0.8436
   21bbb     H8  528  10.408   2.602  10.838 -1.4091  0.1400  0.7340
   21bbb     C5  529  10.280   2.440  10.796  0.3132 -0.4512  0.0020
   21bbb     H9  530  10.210   2.467  10.876 -0.7698  1.7328 -1.5683
   21bbb    H10  531  10.235   2.488  10.708 -0.1256 -2.9050 -1.2035
   21bbb     C6  532  10.686   2.326  10.809  0.9389  0.1565 -0.9718
   21bbb    H11  533  10.617   2.311  10.894 -1.0421  1.3100 -2.2922
   21bbb    H12  534  10.665   2.243  10.741 -1.3762 -1.3071  1.3110
   21bbb     C7  535  10.285   2.293  10.775 -0.6333 -0.0111 -0.0758
   21bbb     C8  536  10.830   2.334  10.853 -0.7113 -0.0976  0.3805
   21bbb     O1  537  10.290   2.213  10.865  0.1594 -0.2275 -0.1883
   21bbb     O2  538  10.907   2.427  10.843 -0.3357 -0.2291  0.6087
   21bbb     N4  539  10.529   2.610  10.366  0.0541  0.1539  0.2487
   21bbb    H21  540  10.445   2.642  10.320 -0.1495 -0.6183  0.0751
   22bbb     C1  541  11.594   4.596   9.088  0.7533 -0.1216  0.4275
   22bbb     H1  542  11.515   4.631   9.156  1.2342  0.2970  0.7741
   22bbb     H2  543  11.553   4.623   8.991 -1.5612 -0.0697  1.3616
   22bbb     C2  544  11.599   4.444   9.091  0.0609 -0.1073 -0.1316
   22bbb     H3  545  11.654   4.416   9.001  0.9253  1.1790 -0.0133
   22bbb     H4  546  11.648   4.412   9.184 -1.6961 -0.7618  0.6266
   22bbb     N1  547  11.726   4.653   9.123 -0.2700  0.9583  0.5627
   22bbb     C3  548  11.834   4.617   9.025  0.2014 -0.3147 -0.1744
   22bbb     H5  549  11.813   4.673   8.933 -2.0210 -2.2245 -0.9244
   22bbb     H6  550  11.836   4.511   8.996  0.4910 -0.3472 -0.0378
   22bbb     C4  551  11.711   4.793   9.147 -0.0322 -0.0956  0.1997
   22bbb     H7  552  11.801   4.854   9.134  0.1138 -0.3888 -0.2018
   22bbb     H8  553  11.628   4.841   9.093 -0.0317  0.6901  0.8743
   22bbb     C5  554  11.685   4.806   9.297  0.2080 -0.0286 -0.1321
   22bbb     H9  555  11.591   4.757   9.324 -0.6933  1.7227  0.0808
   22bbb    H10  556  11.757   4.747   9.355  0.3699  1.2577  1.0263
   22bbb     C6  557  11.973   4.660   9.080 -0.5707  0.5702  0.1822
   22bbb    H11  558  11.972   4.765   9.112 -0.4494  0.5410  0.2827
   22bbb    H12  559  12.006   4.602   9.167 -1.6095  0.6052  0.6120
   22bbb     C7  560  11.668   4.945   9.345 -0.3606 -0.1730  0.2302
   22bbb     C8  561  12.068   4.646   8.967 -0.1720  0.5828  0.4764
   22bbb     O1  562  11.588   5.019   9.297  0.2553 -0.5218  0.3168
   22bbb     O2  563  12.105   4.731   8.895 -0.0639  0.4990 -0.3464
   22bbb     N4  564  11.460   4.387   9.080  0.1982  0.2049 -0.3010
   22bbb    H21  565  11.421   4.371   8.988 -3.1674  4.2426  0.1265
   23bbb     C1  566  11.199   3.462   9.061  0.2962  0.4895  0.6614
   23bbb     H1  567  11.307   3.448   9.046  0.3041  0.4651  0.7421
   23bbb     H2  568  11.163   3.531   8.984  2.3186  0.1134 -0.7113
   23bbb     C2  569  11.184   3.523   9.198 -0.7972 -0.6662 -0.2225
   23bbb     H3  570  11.088   3.500   9.247 -0.4036  0.2331  1.0164
   23bbb     H4  571  11.254   3.471   9.264 -0.6765  1.9621  1.9088
   23bbb     N1  572  11.120   3.344   9.042  0.1090 -0.4020  0.0787
   23bbb     C3  573  11.166   3.264   8.932 -0.2841  0.0620 -0.5472
   23bbb     H5  574  11.219   3.322   8.855 -1.3663 -0.2998 -1.5910
   23bbb     H6  575  11.080   3.222   8.879 -0.0151  1.6338 -2.3357
   23bbb     C4  576  10.986   3.383   9.007  0.2291 -0.4417  0.5628
   23bbb     H7  577  10.960   3.466   9.074 -2.5134 -1.2776  0.6593
   23bbb     H8  578  10.979   3.418   8.904 -1.2949  1.0315  1.1091
   23bbb     C5  579  10.890   3.267   9.039  0.3144 -0.7189  0.2285
   23bbb     H9  580  10.934   3.167   9.026  0.6070 -0.6027  0.3229
   23bbb    H10  581  10.866   3.275   9.145  2.3953  0.4323  0.6642
   23bbb     C6  582  11.263   3.169   8.984 -0.2078 -0.2747  0.7505
   23bbb    H11  583  11.345   3.224   9.032 -0.4193  2.7259 -1.9838
   23bbb    H12  584  11.218   3.097   9.052  0.4601 -0.8526  0.5923
   23bbb     C7  585  10.758   3.278   8.969  0.1286 -0.2925  0.4573
   23bbb     C8  586  11.314   3.085   8.870  0.2094  0.1736  0.1876
   23bbb     O1  587  10.693   3.382   8.967 -0.3252  0.0358  0.2364
   23bbb     O2  588  11.234   3.029   8.791  0.0415 -0.2459 -1.0843
   23bbb     N4  589  11.215   3.668   9.204  0.7653 -0.8355  0.5430
   23bbb    H21  590  11.303   3.710   9.177 -1.6271  3.8572 -1.1431
   24bbb     C1  591  10.084   4.820   8.129  0.3141  0.7397 -0.1406
   24bbb     H1  592  10.093   4.711   8.136  0.6979  0.8100  0.5624
   24bbb     H2  593  10.186   4.857   8.114  0.1928  0.4309 -1.8556
   24bbb     C2  594  10.021   4.867   8.262  0.2253  0.5296  0.3545
   24bbb     H3  595  10.046   4.973   8.272  2.8557  0.0757 -0.7744
   24bbb     H4  596   9.911   4.863   8.260  0.2011  1.2863 -1.3489
   24bbb     N1  597   9.991   4.853   8.023  0.4180  0.0637  0.0754
   24bbb     C3  598   9.894   4.741   8.005  0.1036 -0.5098  0.4819
   24bbb     H5  599   9.848   4.704   8.097 -0.7851  0.1681  0.3221
   24bbb     H6  600   9.940   4.652   7.959 -1.5769 -0.3722 -1.6165
   24bbb     C4  601  10.057   4.895   7.895 -0.4862  0.3244  0.0282
   24bbb     H7  602  10.148   4.836   7.881 -1.1521 -1.0304  1.1559
   24bbb     H8  603   9.999   4.882   7.802 -1.0757  0.0373  0.4296
   24bbb     C5  604  10.101   5.038   7.912 -0.1399 -0.0642  0.3624
   24bbb     H9  605  10.008   5.093   7.931 -0.1471 -0.1233  0.5000
   24bbb    H10  606  10.165   5.054   7.999  1.4054  1.4320 -0.9775
   24bbb     C6  607   9.775   4.786   7.920  0.2385  0.1693  0.3321
   24bbb    H11  608   9.747   4.888   7.949 -0.9941  0.2820 -1.1043
   24bbb    H12  609   9.791   4.789   7.812 -1.1630  0.6826  0.1104
   24bbb     C7  610  10.159   5.095   7.785 -0.0263 -0.1355  0.2652
   24bbb     C8  611   9.670   4.684   7.934 -0.1103  0.1198 -0.4663
   24bbb     O1  612  10.146   5.046   7.674 -0.1468  0.9349 -0.5298
   24bbb     O2  613   9.685   4.571   7.904 -0.0357  0.5866  0.0337
   24bbb     N4  614  10.082   4.794   8.377  0.8155 -0.1363 -0.3747
   24bbb    H21  615  10.157   4.729   8.357  0.0862 -0.4533 -2.2954
   25bbb     C1  616  11.022   4.709   8.727  0.0674 -0.4619  0.1434
   25bbb     H1  617  11.044   4.804   8.778 -2.8840  0.8779 -0.9090
   25bbb     H2  618  11.101   4.703   8.651 -0.0584 -2.2785  0.1109
   25bbb     C2  619  10.889   4.721   8.648 -0.3813 -0.3529 -0.0144
   25bbb     H3  620  10.895   4.796   8.568 -1.7255 -0.1173  0.0841
   25bbb     H4  621  10.870   4.626   8.596  1.5118 -1.0126  0.4296
   25bbb     N1  622  11.029   4.601   8.822 -0.1392  0.2482  0.1969
   25bbb     C3  623  11.136   4.623   8.915 -0.4460 -0.6285 -1.2432
   25bbb     H5  624  11.218   4.685   8.877 -1.1091  0.7982 -0.4668
   25bbb     H6  625  11.177   4.532   8.959 -0.7079 -0.1152  0.1125
   25bbb     C4  626  11.050   4.469   8.755 -0.2956 -0.5898  0.8465
   25bbb     H7  627  10.977   4.460   8.674  0.1143  1.3632  0.1948
   25bbb     H8  628  11.149   4.454   8.710 -1.0576 -0.9047 -0.8154
   25bbb     C5  629  11.012   4.350   8.849 -0.7829 -0.9101  0.2207
   25bbb     H9  630  11.051   4.369   8.949 -2.1442  1.3438  0.3861
   25bbb    H10  631  10.904   4.365   8.857 -0.8055 -1.2739  0.6076
   25bbb     C6  632  11.069   4.687   9.030  0.4293 -0.1786  0.2911
   25bbb    H11  633  11.016   4.778   8.999  1.4377  0.3974  0.2000
   25bbb    H12  634  10.988   4.620   9.062  0.9974 -1.4626 -0.8602
   25bbb     C7  635  11.040   4.227   8.790 -0.1445  0.0388  0.6024
   25bbb     C8  636  11.171   4.717   9.136 -0.2071  0.2365 -0.2360
   25bbb     O1  637  11.147   4.198   8.746 -0.2177 -0.9144 -0.0431
   25bbb     O2  638  11.283   4.758   9.114 -0.3133  0.2971  0.2529
   25bbb     N4  639  10.776   4.757   8.737 -0.6094  0.0461  0.2428
   25bbb    H21  640  10.760   4.852   8.768 -1.6411 -0.0258 -0.0345
   26bbb     C1  641   9.147   5.284   9.820 -0.0058  0.8195  0.5180
   26bbb     H1  642   9.146   5.379   9.766  1.9265  0.3116 -0.5177
   26bbb     H2  643   9.224   5.287   9.898 -0.1799 -0.3720  0.7494
   26bbb     C2  644   9.200   5.175   9.726 -0.1721  0.1774  0.0247
   26bbb     H3  645   9.135   5.178   9.637  1.5087  0.2686 -1.2437
   26bbb     H4  646   9.302   5.209   9.706 -0.4686  0.6351 -0.7663
   26bbb     N1  647   9.025   5.238   9.885 -0.4299  0.4268  0.3443
   26bbb     C3  648   8.904   5.263   9.807 -0.4421  0.4624  0.5513
   26bbb     H5  649   8.938   5.232   9.707  1.3484  1.9979  0.6283
   26bbb     H6  650   8.881   5.368   9.786  0.9370  0.8890  1.0774
   26bbb     C4  651   9.024   5.263  10.027  0.5634 -0.5368 -0.3755
   26bbb     H7  652   8.951   5.197  10.074 -0.7937  0.4830 -0.9830
   26bbb     H8  653   9.120   5.253  10.079 -0.4296  1.7665  2.1595
   26bbb     C5  654   8.991   5.403  10.065  0.4391 -0.2339 -0.1917
   26bbb     H9  655   9.061   5.485  10.043 -1.5686  1.2252 -1.5116
   26bbb    H10  656   8.900   5.418  10.005 -0.7324 -0.8003  1.3728
   26bbb     C6  657   8.788   5.173   9.849  0.2463  0.2699  0.3485
   26bbb    H11  658   8.813   5.070   9.823  1.5515  0.1827  1.8112
   26bbb    H12  659   8.759   5.195   9.953 -0.5755 -0.1179  0.2070
   26bbb     C7  660   8.958   5.405  10.204  0.0607 -0.1832 -0.5971
   26bbb     C8  661   8.667   5.206   9.772  0.7985  0.4416  0.2388
   26bbb     O1  662   8.842   5.392  10.238  0.1418 -0.1997 -0.6097
   26bbb     O2  663   8.619   5.318   9.784 -0.3405 -0.2325 -0.0384
   26bbb     N4  664   9.211   5.037   9.784 -0.0103 -0.2522  0.1443
   26bbb    H21  665   9.277   5.018   9.858 -0.6607 -1.7738  0.3731
   27bbb     C1  666   8.662   5.268  10.482 -0.3561 -0.0265  0.3863
   27bbb     H1  667   8.586   5.234  10.411  1.2577 -0.7409 -1.0909
   27bbb     H2  668   8.721   5.349  10.437  3.0194 -2.3989  0.1288
   27bbb     C2  669   8.759   5.154  10.513 -0.3766 -0.3594  0.0711
   27bbb     H3  670   8.835   5.186  10.585  2.5801 -1.3059 -2.4099
   27bbb     H4  671   8.707   5.080  10.576  0.4016  0.9645  2.4071
   27bbb     N1  672   8.592   5.326  10.598  0.0076 -0.2608 -0.4190
   27bbb     C3  673   8.543   5.466  10.578  0.5647 -0.0842  0.9439
   27bbb     H5  674   8.628   5.531  10.557 -0.5888  0.3163 -3.3222
   27bbb     H6  675   8.481   5.497  10.664 -0.6207 -0.2630  0.1868
   27bbb     C4  676   8.499   5.228  10.669  0.0024 -0.1825  0.7295
   27bbb     H7  677   8.407   5.243  10.611  1.5105 -0.4279 -1.8278
   27bbb     H8  678   8.527   5.122  10.669 -1.7789 -0.6850  0.7748
   27bbb     C5  679   8.488   5.264  10.817  0.0850 -0.0490 -0.1844
   27bbb     H9  680   8.588   5.242  10.858 -0.0566 -2.3657 -0.9166
   27bbb    H10  681   8.465   5.370  10.833 -0.6659  0.0370 -1.6631
   27bbb     C6  682   8.451   5.474  10.461 -0.5737 -0.1766  0.2554
   27bbb    H11  683   8.493   5.427  10.371 -0.1236 -1.5820  1.1595
   27bbb    H12  684   8.353   5.427  10.478 -0.0071 -1.0565  1.2939
   27bbb     C7  685   8.390   5.186  10.901 -0.0473 -0.9274  0.1355
   27bbb     C8  686   8.425   5.618  10.429 -0.2848  0.5737  0.0550
   27bbb     O1  687   8.417   5.139  11.010  0.5113 -0.1660 -0.3248
   27bbb     O2  688   8.512   5.690  10.393 -0.0909  0.1122 -0.0194
   27bbb     N4  689   8.819   5.089  10.395  0.3853 -0.5752 -0.0867
   27bbb    H21  690   8.809   5.145  10.311  1.2840 -0.3134 -0.0301
   28bbb     C1  691   9.294   5.125   8.531 -0.4859  0.3715  0.5655
   28bbb     H1  692   9.220   5.047   8.509 -0.7175  1.0766 -1.3384
   28bbb     H2  693   9.383   5.077   8.575 -1.6612 -2.2685  0.2622
   28bbb     C2  694   9.240   5.239   8.620 -0.6413 -0.1275 -0.6209
   28bbb     H3  695   9.283   5.335   8.589 -2.4663 -0.0934 -3.4639
   28bbb     H4  696   9.132   5.248   8.605 -0.8588 -0.4332  0.6918
   28bbb     N1  697   9.328   5.175   8.394  0.0800 -0.2439  0.4667
   28bbb     C3  698   9.210   5.205   8.322 -0.8043  0.8622 -0.3973
   28bbb     H5  699   9.141   5.252   8.394  1.7388 -1.0613  3.6905
   28bbb     H6  700   9.165   5.111   8.288 -0.3371 -0.1967  1.7102
   28bbb     C4  701   9.409   5.067   8.328  0.2971 -0.3891 -0.5459
   28bbb     H7  702   9.366   4.968   8.349  0.8705 -1.0323 -2.2153
   28bbb     H8  703   9.412   5.076   8.219  0.1447  1.1887 -0.4450
   28bbb     C5  704   9.554   5.059   8.379  0.1165  0.6074 -0.5255
   28bbb     H9  705   9.614   5.147   8.355 -0.4322  1.5081  1.2852
   28bbb    H10  706   9.550   5.061   8.488  2.0856  1.6894 -0.4229
   28bbb     C6  707   9.237   5.285   8.197 -0.5057  0.0336  0.8018
   28bbb    H11  708   9.295   5.376   8.221 -1.8859  1.4792 -1.0302
   28bbb    H12  709   9.287   5.227   8.118 -0.5616 -1.5114  1.8629
   28bbb     C7  710   9.627   4.940   8.329 -0.4633 -0.1877  0.2064
   28bbb     C8  711   9.103   5.321   8.133  0.4082  0.3766  0.3587
   28bbb     O1  712   9.644   4.921   8.210  0.2678  0.4402  0.4174
   28bbb     O2  713   8.998   5.271   8.178 -0.2076  0.2735  0.0321
   28bbb     N4  714   9.257   5.206   8.768 -0.5642 -0.0390  0.2972
   28bbb    H21  715   9.350   5.202   8.808 -0.2058  1.9865 -0.2090
   29bbb     C1  716   9.540   5.464   9.694 -0.2414 -0.1218  0.0615
   29bbb     H1  717   9.622   5.497   9.628 -0.2769  1.7516  0.8923
   29bbb     H2  718   9.575   5.362   9.714  0.8410 -0.4362 -2.8321
   29bbb     C2  719   9.409   5.466   9.614  0.3300  0.4523  0.4835
   29bbb     H3  720   9.334   5.414   9.675  1.8668 -3.1985 -0.4821
   29bbb     H4  721   9.388   5.572   9.596 -0.8314  0.1559  0.0340
   29bbb     N1  722   9.548   5.549   9.805 -0.1644 -0.5178 -0.5907
   29bbb     C3  723   9.454   5.522   9.912  0.4422 -0.4002  0.3820
   29bbb     H5  724   9.350   5.529   9.878  0.7822 -0.8035 -0.7791
   29bbb     H6  725   9.462   5.597   9.992 -0.0792 -1.7854  1.7874
   29bbb     C4  726   9.677   5.568   9.858  0.2467 -0.3304  0.0311
   29bbb     H7  727   9.686   5.585   9.966  1.5640  3.5344 -0.5262
   29bbb     H8  728   9.735   5.476   9.842 -0.6217 -1.0203  0.7649
   29bbb     C5  729   9.729   5.688   9.791  0.1520 -0.5740 -0.4514
   29bbb     H9  730   9.731   5.663   9.684 -2.3435 -3.1657 -0.0205
   29bbb    H10  731   9.668   5.776   9.816 -0.5215 -0.9029 -0.9304
   29bbb     C6  732   9.486   5.392   9.983 -0.0191  0.1697 -0.1956
   29bbb    H11  733   9.445   5.304   9.932  1.5037 -1.0848  0.6456
   29bbb    H12  734   9.593   5.376  10.002 -0.3612 -0.5516  1.2994
   29bbb     C7  735   9.875   5.705   9.829 -0.6367 -0.4821 -0.5680
   29bbb     C8  736   9.409   5.392  10.119 -0.2543  0.2239  0.3220
   29bbb     O1  737   9.934   5.640   9.911 -0.7927  0.0300 -0.3956
   29bbb     O2  738   9.304   5.446  10.139  0.2753  0.4209  0.0122
   29bbb     N4  739   9.430   5.398   9.477 -0.0679  0.0522 -0.0657
   29bbb    H21  740   9.478   5.309   9.486 -1.7402 -0.7705  1.2918
   30bbb     C1  741   9.090   3.510   6.762 -0.5353 -0.9567 -0.3287
   30bbb     H1  742   9.165   3.497   6.683 -0.5542  1.3241 -0.7931
   30bbb     H2  743   9.001   3.449   6.743 -1.4809 -0.4271  2.0670
   30bbb     C2  744   9.051   3.663   6.747 -0.0815 -0.8978 -0.0477
   30bbb     H3  745   9.025   3.678   6.642 -0.1591  1.1529  0.2250
   30bbb     H4  746   8.958   3.676   6.803 -0.6967 -1.3005 -0.9597
   30bbb     N1  747   9.134   3.471   6.893 -0.1146  0.0926 -0.0999
   30bbb     C3  748   9.054   3.507   7.007 -0.1366  0.4309 -0.3193
   30bbb     H5  749   8.976   3.432   7.023 -0.6762  1.2059  0.8564
   30bbb     H6  750   8.997   3.597   6.984 -1.8450 -0.2227  1.1208
   30bbb     C4  751   9.176   3.330   6.899 -0.0074  0.8348 -0.3223
   30bbb     H7  752   9.223   3.315   6.997 -0.9450 -1.5988 -0.1852
   30bbb     H8  753   9.087   3.267   6.890  0.5659  0.0869 -0.9287
   30bbb     C5  754   9.278   3.285   6.796  0.5686  0.3156  0.0261
   30bbb     H9  755   9.233   3.270   6.697  1.8347 -1.6626 -0.3149
   30bbb    H10  756   9.362   3.355   6.803  0.4297  0.3352  2.3682
   30bbb     C6  757   9.143   3.523   7.131  0.1663 -0.4778 -0.2387
   30bbb    H11  758   9.175   3.430   7.180 -0.3708  0.2814  1.6812
   30bbb    H12  759   9.234   3.577   7.104  0.2173  0.5519  1.7452
   30bbb     C7  760   9.311   3.143   6.834 -0.5204  0.4349 -0.6031
   30bbb     C8  761   9.076   3.600   7.243 -0.3248 -0.5560 -0.3031
   30bbb     O1  762   9.408   3.100   6.905  0.0700 -0.4715 -0.3043
   30bbb     O2  763   9.058   3.553   7.354  0.1844 -0.0837 -0.6158
   30bbb     N4  764   9.165   3.761   6.781  0.5675  0.0642 -0.3448
   30bbb    H21  765   9.229   3.781   6.705  0.0878  0.0546 -0.7564
   31bbb     C1  766   9.503   3.417   6.506 -0.8527  0.6098  0.3442
   31bbb     H1  767   9.395   3.427   6.523 -1.6836  0.8391 -4.0627
   31bbb     H2  768   9.539   3.325   6.554  3.3979  1.8224 -0.1270
   31bbb     C2  769   9.577   3.533   6.576  0.4263 -0.3427 -0.2776
   31bbb     H3  770   9.683   3.504   6.582  0.3019 -1.2693 -1.8846
   31bbb     H4  771   9.561   3.612   6.501 -0.7228 -1.5058 -1.3059
   31bbb     N1  772   9.533   3.404   6.364 -0.5193  0.0087  0.2640
   31bbb     C3  773   9.426   3.337   6.283 -0.0358 -0.2313  0.1576
   31bbb     H5  774   9.413   3.233   6.316  0.5678  0.0409  1.2899
   31bbb     H6  775   9.458   3.334   6.178  1.3244 -0.9658  0.5719
   31bbb     C4  776   9.658   3.327   6.349 -0.4949 -0.0246 -0.2834
   31bbb     H7  777   9.731   3.360   6.424 -0.8904 -1.3469  0.7318
   31bbb     H8  778   9.645   3.219   6.362 -1.8489  0.0110 -1.1813
   31bbb     C5  779   9.721   3.347   6.216 -0.6414  0.0828 -0.0571
   31bbb     H9  780   9.663   3.290   6.143 -1.2825  0.6046  0.0404
   31bbb    H10  781   9.712   3.452   6.186  1.3211  1.2648  3.0274
   31bbb     C6  782   9.299   3.418   6.292 -1.0636  0.0024  0.2464
   31bbb    H11  783   9.250   3.396   6.388 -1.4634 -0.0807  0.0243
   31bbb    H12  784   9.331   3.522   6.285  0.5809 -0.3409  1.7569
   31bbb     C7  785   9.868   3.321   6.205 -0.1467  0.3122 -0.2384
   31bbb     C8  786   9.206   3.376   6.189 -0.0033 -0.8148  0.7238
   31bbb     O1  787   9.935   3.261   6.289  0.0341  0.1660  0.1446
   31bbb     O2  788   9.221   3.278   6.122 -0.1017  0.1201  0.1030
   31bbb     N4  789   9.521   3.568   6.702  0.4415 -0.7391 -0.5999
   31bbb    H21  790   9.437   3.626   6.703  0.0966 -1.2201  0.6759
   32bbb     C1  791   9.656   5.370   8.103  0.3685 -0.7153  0.5018
   32bbb     H1  792   9.579   5.351   8.179 -1.5836  0.6473 -1.0054
   32bbb     H2  793   9.593   5.401   8.019  0.2492  0.8019  1.1159
   32bbb     C2  794   9.714   5.234   8.054  0.1546  0.6063  0.4346
   32bbb     H3  795   9.779   5.260   7.970 -0.8351  1.2248 -0.1559
   32bbb     H4  796   9.769   5.188   8.137 -1.3626 -2.1397  0.0399
   32bbb     N1  797   9.764   5.461   8.130  0.1433  0.9937 -0.3057
   32bbb     C3  798   9.823   5.431   8.262  0.2778 -0.9134 -0.0228
   32bbb     H5  799   9.769   5.359   8.325 -1.2910  0.2419  0.0091
   32bbb     H6  800   9.825   5.519   8.327  0.4221 -1.2472  0.4273
   32bbb     C4  801   9.706   5.590   8.129  0.0386 -0.2807  0.5134
   32bbb     H7  802   9.621   5.606   8.197 -0.6371  3.5285 -1.0108
   32bbb     H8  803   9.781   5.660   8.168 -0.6582  1.6558 -1.4133
   32bbb     C5  804   9.671   5.641   7.984  0.0937 -0.0551 -0.0295
   32bbb     H9  805   9.751   5.620   7.912  0.6435 -0.0704  0.5699
   32bbb    H10  806   9.588   5.595   7.930  0.6502 -0.8843 -0.1967
   32bbb     C6  807   9.972   5.400   8.241 -0.4337 -0.5657 -0.4886
   32bbb    H11  808   9.974   5.312   8.176  0.0091  0.2040 -1.5385
   32bbb    H12  809  10.024   5.487   8.200 -1.2965 -0.8803 -2.3905
   32bbb     C7  810   9.627   5.787   7.990 -0.4657  0.8332  0.4904
   32bbb     C8  811  10.033   5.365   8.372  0.4614  0.0310 -0.9307
   32bbb     O1  812   9.615   5.861   8.090  0.5169  0.2310 -0.6160
   32bbb     O2  813  10.027   5.250   8.402  0.3456 -0.0295 -0.7983
   32bbb     N4  814   9.603   5.135   8.027 -0.2134  0.0205  0.3351
   32bbb    H21  815   9.600   5.050   8.082  3.0932 -0.7303 -0.4542
   33bbb     C1  816   8.560   5.066   7.896  0.5376 -0.8886 -0.2619
   33bbb     H1  817   8.594   4.973   7.943  0.6267 -0.3252  0.8267
   33bbb     H2  818   8.576   5.054   7.788 -2.4179 -0.7281 -0.7968
   33bbb     C2  819   8.650   5.175   7.945 -0.3699  0.4144 -1.1097
   33bbb     H3  820   8.626   5.262   7.883 -0.9692  1.8150  0.9933
   33bbb     H4  821   8.615   5.214   8.041  0.0354 -2.5631  0.3630
   33bbb     N1  822   8.419   5.098   7.918 -0.5741 -0.1554 -0.2744
   33bbb     C3  823   8.334   4.979   7.897  0.0737  0.5317 -0.2966
   33bbb     H5  824   8.348   4.946   7.793  2.5574  2.3156 -0.6070
   33bbb     H6  825   8.228   5.008   7.903 -0.7319 -1.9840 -1.0700
   33bbb     C4  826   8.362   5.206   7.827  0.0146  0.2593 -0.1907
   33bbb     H7  827   8.429   5.292   7.814 -0.6532  1.0055  1.1371
   33bbb     H8  828   8.344   5.163   7.727 -0.2710 -0.1518  0.0373
   33bbb     C5  829   8.243   5.274   7.897 -0.1261 -0.3623 -0.5492
   33bbb     H9  830   8.173   5.200   7.939 -0.2900  1.2300  2.2582
   33bbb    H10  831   8.285   5.327   7.984 -0.5945  0.1176 -0.6184
   33bbb     C6  832   8.356   4.870   8.000  0.4381 -0.7123 -0.6421
   33bbb    H11  833   8.446   4.818   7.965  0.3239 -1.5984  0.3330
   33bbb    H12  834   8.362   4.919   8.098 -0.7902  1.5543 -1.6017
   33bbb     C7  835   8.170   5.364   7.808  0.2268  0.1221  0.5802
   33bbb     C8  836   8.238   4.775   8.019 -0.8574  0.4596  0.4582
   33bbb     O1  837   8.203   5.388   7.695  0.8825  0.3909  0.3372
   33bbb     O2  838   8.168   4.780   8.115 -0.3417  0.2376 -1.1676
   33bbb     N4  839   8.796   5.158   7.936  0.3954  0.5263  0.7483
   33bbb    H21  840   8.861   5.207   7.996  0.5737  1.5568 -0.2359
   34bbb     C1  841  11.080   4.391   8.352 -0.5923  0.5435 -0.3229
   34bbb     H1  842  11.053   4.382   8.458 -1.1905 -0.4934 -0.5487
   34bbb     H2  843  11.032   4.485   8.325  0.1447  0.8209 -0.7130
   34bbb     C2  844  11.017   4.273   8.275  0.1611  0.2335  0.5531
   34bbb     H3  845  10.984   4.307   8.177 -2.8698 -2.2086  0.5888
   34bbb     H4  846  11.093   4.200   8.244 -0.9672 -0.7426  0.0358
   34bbb     N1  847  11.226   4.392   8.350 -0.5865 -0.1253  0.4485
   34bbb     C3  848  11.285   4.292   8.430 -0.6994  1.2334 -0.6516
   34bbb     H5  849  11.226   4.212   8.478 -0.6979  2.3722  1.3510
   34bbb     H6  850  11.343   4.330   8.515 -0.5206 -2.5490  1.1392
   34bbb     C4  851  11.280   4.529   8.367  0.3924 -0.0486 -0.9539
   34bbb     H7  852  11.201   4.602   8.345  1.0037  1.4947  1.5730
   34bbb     H8  853  11.297   4.545   8.474  1.1929 -0.4785 -1.0134
   34bbb     C5  854  11.407   4.561   8.291  0.4291  0.4096  0.2015
   34bbb     H9  855  11.395   4.516   8.192 -0.8889 -1.7306  1.2700
   34bbb    H10  856  11.419   4.670   8.279 -0.8168  0.4560 -0.9237
   34bbb     C6  857  11.382   4.211   8.343 -0.1044 -0.6569 -0.2060
   34bbb    H11  858  11.323   4.162   8.265 -0.4476  0.1010 -0.4321
   34bbb    H12  859  11.444   4.271   8.276  0.7924  0.4509  1.5525
   34bbb     C7  860  11.533   4.508   8.359  0.4430 -0.3978  0.0354
   34bbb     C8  861  11.466   4.117   8.429 -1.0671  0.2147  0.6369
   34bbb     O1  862  11.571   4.518   8.472 -0.1489 -0.4808 -0.0738
   34bbb     O2  863  11.496   4.134   8.547 -0.0389  0.3625  0.3578
   34bbb     N4  864  10.904   4.216   8.343  0.0142  0.2071 -0.5047
   34bbb    H21  865  10.887   4.238   8.440  0.8573 -1.8390  0.1813
   35bbb     C1  866  10.572   3.818   9.094 -0.2109 -0.2851 -0.2266
   35bbb     H1  867  10.657   3.887   9.087  2.9790 -3.7134  1.2329
   35bbb     H2  868  10.598   3.718   9.059  2.2170  0.7066 -1.5360
   35bbb     C2  869  10.452   3.869   9.014  0.4155 -0.5471  0.3541
   35bbb     H3  870  10.363   3.814   9.046 -0.9702 -0.3210 -2.7131
   35bbb     H4  871  10.441   3.976   9.035 -0.1062 -0.8032  1.4545
   35bbb     N1  872  10.532   3.815   9.235  0.1112  0.6327 -0.4307
   35bbb     C3  873  10.637   3.743   9.309  0.4794 -0.4041 -0.0748
   35bbb     H5  874  10.620   3.744   9.417  0.2470  2.4332 -0.0658
   35bbb     H6  875  10.732   3.793   9.286 -0.1232 -0.6516 -3.7205
   35bbb     C4  876  10.517   3.948   9.296  0.3254  0.0128  0.5632
   35bbb     H7  877  10.616   3.982   9.330 -0.0124  2.4659 -0.7068
   35bbb     H8  878  10.487   4.032   9.232  1.2037  1.8469  2.4306
   35bbb     C5  879  10.432   3.941   9.417  0.3974 -0.2147 -0.3090
   35bbb     H9  880  10.332   3.898   9.403  0.3769 -0.1834 -0.2616
   35bbb    H10  881  10.492   3.899   9.499 -1.1606  0.0154  1.0165
   35bbb     C6  882  10.665   3.597   9.272 -0.2849  0.0569  1.0419
   35bbb    H11  883  10.564   3.555   9.261  0.5872 -1.9514  0.1101
   35bbb    H12  884  10.716   3.579   9.176 -0.0294 -1.5393  1.4417
   35bbb     C7  885  10.409   4.081   9.473 -0.3383  0.1921 -0.5857
   35bbb     C8  886  10.730   3.521   9.383 -0.0691  0.6503  0.0106
   35bbb     O1  887  10.452   4.180   9.416 -0.5041 -0.4415  0.3184
   35bbb     O2  888  10.672   3.443   9.450 -0.3257  0.1261 -0.0531
   35bbb     N4  889  10.467   3.855   8.864  0.2004  0.1671  0.1736
   35bbb    H21  890  10.528   3.781   8.830  1.3292  0.1473  2.1065
   36bbb     C1  891   9.978   3.456   6.593 -0.5262  0.0269  0.2491
   36bbb     H1  892   9.869   3.454   6.594 -0.5362 -0.2448  1.8473
   36bbb     H2  893  10.001   3.386   6.512 -1.2248 -0.3175  0.3449
   36bbb     C2  894  10.028   3.391   6.722  0.0312  0.4003 -0.2312
   36bbb     H3  895  10.025   3.284   6.698 -2.0069  0.3533  0.0679
   36bbb     H4  896  10.128   3.422   6.755 -1.2297  2.4888  1.9426
   36bbb     N1  897  10.016   3.601   6.567  0.5832  1.0230  0.3842
   36bbb     C3  898  10.157   3.635   6.561 -0.3326  0.3460  0.5650
   36bbb     H5  899  10.191   3.620   6.664  0.4982 -0.7894  0.1531
   36bbb     H6  900  10.173   3.742   6.547  1.1652  0.1075  0.3701
   36bbb     C4  901   9.945   3.650   6.450 -0.9587 -0.6576  0.0119
   36bbb     H7  902   9.988   3.626   6.353 -2.0913 -2.0371 -0.1907
   36bbb     H8  903   9.845   3.604   6.448 -1.8685  1.2179 -1.0993
   36bbb     C5  904   9.921   3.802   6.466  0.5062  0.1575 -0.0801
   36bbb     H9  905   9.845   3.824   6.542 -0.6380  3.2860 -1.9311
   36bbb    H10  906  10.013   3.859   6.485  0.6083 -0.0927  0.1778
   36bbb     C6  907  10.238   3.550   6.468 -0.2676 -0.2363 -0.1067
   36bbb    H11  908  10.223   3.442   6.483 -0.9183 -0.6292 -2.9730
   36bbb    H12  909  10.209   3.576   6.365  0.6183  1.6620  0.0920
   36bbb     C7  910   9.864   3.852   6.336  0.3116  0.5481  0.1352
   36bbb     C8  911  10.385   3.594   6.462 -0.4022  0.2189 -0.2990
   36bbb     O1  912   9.787   3.783   6.263  0.2382  0.5107 -0.1147
   36bbb     O2  913  10.425   3.694   6.520 -0.0602  0.0055 -0.4959
   36bbb     N4  914   9.934   3.420   6.826 -0.8008  0.1486  0.3676
   36bbb    H21  915   9.846   3.469   6.809  0.8818  2.9868 -0.8971
   37bbb     C1  916   9.085   3.063   7.371  0.3728 -0.5775 -0.2796
   37bbb     H1  917   9.008   3.056   7.449  1.5159  1.5277  1.1262
   37bbb     H2  918   9.162   2.986   7.377  0.0208 -0.9214 -0.1410
   37bbb     C2  919   9.156   3.192   7.400  0.0187  0.2315  0.1753
   37bbb     H3  920   9.095   3.282   7.388  0.6146  0.9413  2.0593
   37bbb     H4  921   9.187   3.198   7.505 -0.1340  1.4826  0.1670
   37bbb     N1  922   9.027   3.067   7.232 -0.1923  0.2105  0.0067
   37bbb     C3  923   8.947   3.178   7.181  0.7619 -0.4001  0.4056
   37bbb     H5  924   8.909   3.148   7.083 -2.0926  0.8283  1.0336
   37bbb     H6  925   9.005   3.271   7.176 -2.5772  2.0345  2.4827
   37bbb     C4  926   8.981   2.934   7.180  0.5735 -1.3081 -0.4423
   37bbb     H7  927   8.916   2.892   7.257 -1.4617 -0.0195 -1.3509
   37bbb     H8  928   8.922   2.951   7.088 -1.0814 -0.7341  0.6714
   37bbb     C5  929   9.110   2.857   7.141 -0.1258  0.7516  0.2050
   37bbb     H9  930   9.175   2.918   7.077  0.5537  2.1996  2.1395
   37bbb    H10  931   9.177   2.827   7.223  1.5732 -3.6475 -2.4414
   37bbb     C6  932   8.833   3.213   7.275 -0.4724  0.4516 -0.8297
   37bbb    H11  933   8.773   3.123   7.291  0.6910 -0.0682  0.7966
   37bbb    H12  934   8.866   3.245   7.374 -0.8184 -0.4106 -0.4320
   37bbb     C7  935   9.071   2.727   7.063 -0.0772 -0.2296 -0.4415
   37bbb     C8  936   8.731   3.305   7.219  0.1496  0.0016 -0.3421
   37bbb     O1  937   8.961   2.679   7.061  0.0060 -0.5463  0.1052
   37bbb     O2  938   8.742   3.351   7.110  0.1023 -0.2735  0.4726
   37bbb     N4  939   9.268   3.225   7.312 -0.4265  0.3842  0.1647
   37bbb    H21  940   9.294   3.172   7.229  0.8843  0.4849  0.4935
   38bbb     C1  941   9.890   1.388  10.274 -0.1355 -0.1459  0.4090
   38bbb     H1  942   9.811   1.389  10.350 -1.0962  0.1075 -0.5757
   38bbb     H2  943   9.889   1.284  10.241  0.1103  0.3200 -1.1437
   38bbb     C2  944  10.022   1.426  10.350 -0.1980  0.2294  0.1954
   38bbb     H3  945  10.030   1.361  10.437 -2.0709  2.1825  1.9257
   38bbb     H4  946  10.106   1.399  10.284 -0.5983 -0.8594  0.1229
   38bbb     N1  947   9.869   1.474  10.151  0.2489 -0.6816 -0.4198
   38bbb     C3  948   9.743   1.545  10.161 -0.2967  0.5628  0.6954
   38bbb     H5  949   9.734   1.613  10.246 -0.3992  1.3633  0.0606
   38bbb     H6  950   9.659   1.474  10.160  0.3962 -0.2752  0.8435
   38bbb     C4  951   9.886   1.406  10.022  0.0592  0.8139  0.0460
   38bbb     H7  952   9.822   1.317  10.018  1.8204 -0.5485  0.7854
   38bbb     H8  953   9.861   1.455   9.927  0.1643 -0.4165 -0.6532
   38bbb     C5  954  10.026   1.353  10.006 -1.0607  0.3524  0.7780
   38bbb     H9  955  10.098   1.434  10.019 -0.5721  0.4012 -1.7043
   38bbb    H10  956  10.047   1.275  10.080 -1.4155 -1.4132 -0.8834
   38bbb     C6  957   9.711   1.625  10.034 -0.2756 -0.3544  0.1417
   38bbb    H11  958   9.805   1.673  10.004 -1.1394  2.0421  1.0767
   38bbb    H12  959   9.668   1.568   9.950  1.3554  1.3806 -1.9903
   38bbb     C7  960  10.060   1.283   9.875  0.1996 -0.5556 -0.0064
   38bbb     C8  961   9.617   1.737  10.065 -0.2579  0.0861  0.1390
   38bbb     O1  962  10.139   1.332   9.790  0.2790 -0.1413 -0.4777
   38bbb     O2  963   9.641   1.852  10.039 -0.0389 -0.1173 -0.4319
   38bbb     N4  964  10.023   1.569  10.394 -0.9991 -0.4362  0.0386
   38bbb    H21  965   9.982   1.600  10.481 -1.2314 -1.3804  0.2765
   39bbb     C1  966   9.367   1.919  10.681 -1.0803 -0.1140  0.0692
   39bbb     H1  967   9.301   1.884  10.600 -2.4928 -0.0550  1.1498
   39bbb     H2  968   9.307   1.972  10.756  1.0181  0.6878  1.2772
   39bbb     C2  969   9.463   2.022  10.624  0.2474 -0.3292 -0.3796
   39bbb     H3  970   9.396   2.087  10.566 -0.3925  0.1839  0.8798
   39bbb     H4  971   9.494   2.085  10.708 -1.5065 -2.5031  2.0527
   39bbb     N1  972   9.438   1.809  10.746  0.3149 -0.0145  0.2082
   39bbb     C3  973   9.509   1.851  10.866 -0.2120  0.2544 -0.2271
   39bbb     H5  974   9.436   1.881  10.941 -0.3294 -0.8290  0.0956
   39bbb     H6  975   9.573   1.935  10.835  0.1301  0.1861  0.2763
   39bbb     C4  976   9.348   1.704  10.775  0.0466 -0.1398 -0.5976
   39bbb     H7  977   9.393   1.636  10.848 -1.9319 -0.4816  0.3736
   39bbb     H8  978   9.252   1.734  10.820  1.6786  2.3334  1.5475
   39bbb     C5  979   9.320   1.609  10.660  0.3267 -0.1135  0.0416
   39bbb     H9  980   9.247   1.655  10.591  0.6161  0.9669  0.4409
   39bbb    H10  981   9.415   1.602  10.607  0.6096  2.5227  0.0709
   39bbb     C6  982   9.604   1.737  10.911  0.3148 -0.2955 -0.4003
   39bbb    H11  983   9.550   1.697  10.998 -1.7588  0.4771 -1.2799
   39bbb    H12  984   9.626   1.655  10.843 -0.9349  0.6039 -1.9662
   39bbb     C7  985   9.262   1.482  10.715 -0.3470 -0.0219  0.0248
   39bbb     C8  986   9.729   1.806  10.964 -0.0721  0.0255  0.3240
   39bbb     O1  987   9.337   1.393  10.736 -0.4346 -0.1962 -0.3014
   39bbb     O2  988   9.737   1.823  11.081  0.5356  0.1455 -0.3175
   39bbb     N4  989   9.573   1.977  10.534 -0.1683  0.5564 -0.1465
   39bbb    H21  990   9.618   1.887  10.546 -0.1961  0.4275 -0.9700
   40bbb     C1  991  11.210   1.725  10.788 -0.3967 -0.6928 -0.4815
   40bbb     H1  992  11.159   1.689  10.698  0.5968  1.2548 -1.9003
   40bbb     H2  993  11.212   1.638  10.854  0.4110 -1.6051 -1.6696
   40bbb     C2  994  11.123   1.830  10.853 -0.1547 -0.6507 -0.3940
   40bbb     H3  995  11.028   1.793  10.894 -0.3288  2.2555  2.2074
   40bbb     H4  996  11.177   1.864  10.942 -0.9557 -2.8533  1.0069
   40bbb     N1  997  11.347   1.779  10.761  0.0936  0.0118 -0.3963
   40bbb     C3  998  11.450   1.729  10.852  0.0797  0.2131  0.1235
   40bbb     H5  999  11.539   1.790  10.830  1.0546 -1.1590  0.1077
   40bbb     H6 1000  11.469   1.624  10.828 -1.6320  0.2182 -1.4795
   40bbb     C4 1001  11.376   1.773  10.619 -0.4546  0.8005  0.0857
   40bbb     H7 1002  11.376   1.668  10.587 -0.9746  0.8401 -0.0539
   40bbb     H8 1003  11.287   1.824  10.580 -3.1247 -0.9250  3.4091
   40bbb     C5 1004  11.496   1.855  10.580  0.5249 -1.0479  0.8194
   40bbb     H9 1005  11.493   1.952  10.631  2.1012  0.6234 -1.9687
   40bbb    H10 1006  11.589   1.809  10.614  0.6146 -1.1061  0.4987
   40bbb     C6 1007  11.413   1.749  11.004 -0.1642 -0.7440 -0.2613
   40bbb    H11 1008  11.415   1.854  11.037  1.3470 -1.1596  1.0736
   40bbb    H12 1009  11.321   1.698  11.035  0.0886  0.5469  2.9730
   40bbb     C7 1010  11.499   1.877  10.437  0.0727  0.0896  0.1397
   40bbb     C8 1011  11.524   1.687  11.094 -0.1539 -0.0260 -0.6350
   40bbb     O1 1012  11.570   1.814  10.363  0.5954  0.0903 -0.2445
   40bbb     O2 1013  11.644   1.694  11.059  0.1561  0.2613 -0.4570
   40bbb     N4 1014  11.105   1.950  10.770  0.2341  0.0878  0.0392
   40bbb    H21 1015  11.180   2.013  10.744 -0.4503  0.5867 -0.7761
   41bbb     C1 1016  10.460   1.860   9.893  0.2031 -0.2442 -0.1167
   41bbb     H1 1017  10.408   1.888   9.985  0.7713  0.7443 -0.0885
   41bbb     H2 1018  10.512   1.764   9.898  0.6237 -0.1126 -1.3824
   41bbb     C2 1019  10.564   1.980   9.893 -0.9739  0.3237  0.8263
   41bbb     H3 1020  10.622   1.977   9.800 -2.0935 -1.9562  0.1186
   41bbb     H4 1021  10.499   2.069   9.890 -0.9379  0.3688 -2.3888
   41bbb     N1 1022  10.366   1.855   9.780  0.1506  0.3071  0.5969
   41bbb     C3 1023  10.257   1.746   9.785  0.1139  0.1547 -0.0521
   41bbb     H5 1024  10.307   1.648   9.790 -0.8132 -0.4743 -1.9302
   41bbb     H6 1025  10.197   1.751   9.693  0.4629 -0.4156 -0.3195
   41bbb     C4 1026  10.440   1.845   9.656 -0.0059  0.8049  0.2700
   41bbb     H7 1027  10.548   1.854   9.673 -0.2183  2.4988  0.9992
   41bbb     H8 1028  10.408   1.749   9.616  0.9405  0.0635  1.2313
   41bbb     C5 1029  10.399   1.960   9.567  0.6322  0.5991 -0.2060
   41bbb     H9 1030  10.291   1.982   9.567  0.7673  1.5497 -2.3521
   41bbb    H10 1031  10.446   2.056   9.593  1.3029  0.8633 -2.1923
   41bbb     C6 1032  10.163   1.767   9.905  0.0866  0.8431  0.1180
   41bbb    H11 1033  10.114   1.673   9.935  1.7427 -0.2280 -0.3917
   41bbb    H12 1034  10.221   1.794   9.994  0.9440  1.1561 -0.5201
   41bbb     C7 1035  10.445   1.945   9.423  0.0659 -0.1960  0.0697
   41bbb     C8 1036  10.050   1.862   9.862  0.5569  0.3507 -0.3098
   41bbb     O1 1037  10.528   1.864   9.392 -0.4590  0.1497  0.3207
   41bbb     O2 1038  10.058   1.982   9.882  0.6260  0.7179 -0.0793
   41bbb     N4 1039  10.657   1.986  10.013  0.3660 -0.5933 -0.1957
   41bbb    H21 1040  10.753   1.953  10.002  0.4602 -0.7897  1.1178
   42bbb     C1 1041  10.323   3.467   9.391  0.1180  0.3073 -0.0881
   42bbb     H1 1042  10.412   3.530   9.375  0.5706 -0.7243 -1.9173
   42bbb     H2 1043  10.337   3.423   9.491 -0.7475  0.7188  0.2289
   42bbb     C2 1044  10.343   3.346   9.300  0.3583  0.7437  0.5374
   42bbb     H3 1045  10.253   3.282   9.298  2.2876 -2.1823  0.4216
   42bbb     H4 1046  10.362   3.375   9.196 -0.4538 -2.9564 -0.8081
   42bbb     N1 1047  10.200   3.542   9.369  0.5105  0.3326  0.2494
   42bbb     C3 1048  10.200   3.654   9.466 -0.2281  0.7468  0.4281
   42bbb     H5 1049  10.116   3.719   9.438  0.1302  0.5110 -1.3181
   42bbb     H6 1050  10.299   3.700   9.458  0.4352 -0.6229  0.4436
   42bbb     C4 1051  10.201   3.594   9.231  0.1630 -0.0522 -0.2765
   42bbb     H7 1052  10.258   3.687   9.221 -1.3426  0.9195 -0.1822
   42bbb     H8 1053  10.233   3.527   9.151  0.8751  1.8247 -1.6453
   42bbb     C5 1054  10.056   3.630   9.193  0.4361  0.0078 -0.1816
   42bbb     H9 1055   9.981   3.551   9.180  0.2284  0.1265  0.2466
   42bbb    H10 1056  10.017   3.702   9.266  1.9280  1.2026 -0.5301
   42bbb     C6 1057  10.179   3.619   9.605 -0.1708  0.5703 -0.4760
   42bbb    H11 1058  10.083   3.565   9.603 -0.7885  1.6586 -1.4523
   42bbb    H12 1059  10.263   3.561   9.645  0.3764  1.2770 -0.5854
   42bbb     C7 1060  10.059   3.684   9.052  0.3320 -0.0537  0.1579
   42bbb     C8 1061  10.158   3.735   9.695  0.3830 -0.0008  0.1706
   42bbb     O1 1062  10.034   3.625   8.951  0.2455  0.4591  0.3539
   42bbb     O2 1063  10.218   3.843   9.677  0.2630  0.3297  0.4889
   42bbb     N4 1064  10.476   3.272   9.330  0.3551  0.6032  0.2917
   42bbb    H21 1065  10.551   3.318   9.380  0.1396 -2.3251  3.7096
   43bbb     C1 1066  11.264   2.628   9.005  0.1606  0.4468 -0.2911
   43bbb     H1 1067  11.317   2.617   8.910  1.9011 -1.6829  0.8423
   43bbb     H2 1068  11.170   2.573   8.997  1.0707 -1.2614  0.2236
   43bbb     C2 1069  11.238   2.782   9.007  0.2835 -0.3359 -0.2852
   43bbb     H3 1070  11.332   2.838   9.011  1.0592 -1.6627  1.1140
   43bbb     H4 1071  11.181   2.823   8.922 -3.1893 -0.0789  1.9611
   43bbb     N1 1072  11.353   2.565   9.108 -0.1151  0.0477 -0.3237
   43bbb     C3 1073  11.491   2.618   9.107  0.2353 -0.0807  0.6098
   43bbb     H5 1074  11.505   2.710   9.049 -2.6826 -0.0806 -0.2693
   43bbb     H6 1075  11.556   2.546   9.056 -1.9796 -1.4971 -0.3873
   43bbb     C4 1076  11.345   2.419   9.118 -0.0145  0.0600  0.1256
   43bbb     H7 1077  11.352   2.374   9.019  0.7186 -0.4018  0.3753
   43bbb     H8 1078  11.439   2.386   9.165  1.0264 -0.6542 -2.3406
   43bbb     C5 1079  11.224   2.380   9.205 -0.5080 -0.4232  0.4120
   43bbb     H9 1080  11.129   2.418   9.165 -0.5240 -0.9854 -0.1028
   43bbb    H10 1081  11.217   2.271   9.190 -0.7190 -0.6373  1.9362
   43bbb     C6 1082  11.536   2.640   9.246 -0.1309 -0.3113 -0.2999
   43bbb    H11 1083  11.474   2.722   9.286  0.7359  1.0266 -1.6101
   43bbb    H12 1084  11.534   2.553   9.313 -0.0011 -0.1693 -0.1082
   43bbb     C7 1085  11.259   2.416   9.349 -0.5677  0.9780  0.3007
   43bbb     C8 1086  11.680   2.684   9.236 -0.1485  0.2601  0.4424
   43bbb     O1 1087  11.300   2.336   9.427 -0.1375 -0.0798 -0.5242
   43bbb     O2 1088  11.726   2.786   9.192 -0.0405  0.0931 -0.5172
   43bbb     N4 1089  11.156   2.824   9.131  0.1839  0.1572  0.2288
   43bbb    H21 1090  11.191   2.891   9.198  0.3981 -2.1793  2.6334
   44bbb     C1 1091  10.427   2.060  10.556  0.5268 -0.3908  0.6946
   44bbb     H1 1092  10.507   2.131  10.579  1.7286 -2.1087  2.1713
   44bbb     H2 1093  10.421   2.055  10.447 -0.7162  1.0887  0.6712
   44bbb     C2 1094  10.287   2.110  10.603 -0.2496 -0.0448  0.0630
   44bbb     H3 1095  10.211   2.099  10.525 -0.7437 -0.8999  0.6486
   44bbb     H4 1096  10.248   2.052  10.688  0.1062  0.0301  0.2823
   44bbb     N1 1097  10.473   1.935  10.619  0.0419  0.4492  0.2344
   44bbb     C3 1098  10.555   1.965  10.733  0.8356 -0.2142 -0.4452
   44bbb     H5 1099  10.506   2.035  10.801 -1.0974 -2.0041  0.0926
   44bbb     H6 1100  10.649   2.013  10.703  0.6837  1.1109  1.0642
   44bbb     C4 1101  10.541   1.851  10.524 -0.7818  0.1993  0.0121
   44bbb     H7 1102  10.623   1.906  10.477  1.8414 -0.5009  3.3105
   44bbb     H8 1103  10.598   1.765  10.563  0.1544  0.6731 -0.2747
   44bbb     C5 1104  10.455   1.793  10.415  0.9560  0.2689  0.2754
   44bbb     H9 1105  10.369   1.743  10.461  0.2315  0.6577 -0.6210
   44bbb    H10 1106  10.422   1.868  10.342 -0.0428 -0.8602 -0.4764
   44bbb     C6 1107  10.593   1.840  10.815  0.2440 -0.0392 -0.5080
   44bbb    H11 1108  10.514   1.765  10.825  2.1771 -2.8236 -3.7880
   44bbb    H12 1109  10.674   1.784  10.766 -0.0799 -0.5865 -0.4259
   44bbb     C7 1110  10.535   1.693  10.336  0.0639 -0.6492  0.4385
   44bbb     C8 1111  10.651   1.878  10.949 -0.3040  0.3738  0.5468
   44bbb     O1 1112  10.659   1.696  10.326 -0.2709 -0.1666  0.1386
   44bbb     O2 1113  10.662   1.990  10.990  0.0038  0.5615 -0.5469
   44bbb     N4 1114  10.285   2.252  10.645 -0.3505 -0.0881  0.5114
   44bbb    H21 1115  10.287   2.319  10.569  1.1387 -1.5664 -0.8243
   45bbb     C1 1116  11.054   2.268  11.105  0.1754 -0.5110 -0.6780
   45bbb     H1 1117  10.985   2.231  11.182  2.2213 -2.5289  0.2762
   45bbb     H2 1118  11.038   2.377  11.097  0.3273 -0.1552  2.6534
   45bbb     C2 1119  11.020   2.214  10.968  0.3406 -0.0457 -0.9741
   45bbb     H3 1120  11.090   2.267  10.903  0.9735 -0.3868 -0.5841
   45bbb     H4 1121  11.037   2.106  10.980  0.7885  0.1591  0.4902
   45bbb     N1 1122  11.190   2.247  11.147  0.1561  0.4245 -0.6808
   45bbb     C3 1123  11.230   2.112  11.179 -0.2783 -0.4908 -0.4091
   45bbb     H5 1124  11.338   2.098  11.194 -0.3257 -0.2423  0.1874
   45bbb     H6 1125  11.209   2.051  11.091  1.4656 -1.1966 -0.3804
   45bbb     C4 1126  11.297   2.311  11.066  0.3031  0.5162  0.0105
   45bbb     H7 1127  11.391   2.277  11.111 -0.4771 -3.3531 -0.9068
   45bbb     H8 1128  11.295   2.281  10.961 -0.3400  0.7116 -0.0357
   45bbb     C5 1129  11.288   2.465  11.085  0.5130 -0.1464 -0.2349
   45bbb     H9 1130  11.211   2.504  11.018 -0.9355  1.7211  2.3243
   45bbb    H10 1131  11.264   2.496  11.188  3.8894  1.8112  0.1092
   45bbb     C6 1132  11.149   2.048  11.291 -0.5538 -0.0423 -0.5586
   45bbb    H11 1133  11.180   2.097  11.384 -1.3766 -1.1627  0.3218
   45bbb    H12 1134  11.042   2.047  11.271 -0.8803 -0.4569  1.0809
   45bbb     C7 1135  11.402   2.542  11.045 -0.0915 -0.3331 -0.9180
   45bbb     C8 1136  11.186   1.901  11.305 -0.0215 -0.1045  0.0084
   45bbb     O1 1137  11.486   2.495  10.971 -0.0932 -0.2221  0.0589
   45bbb     O2 1138  11.205   1.822  11.212 -0.2916  0.2398 -0.2338
   45bbb     N4 1139  10.873   2.229  10.928  0.7899 -0.1415  0.3820
   45bbb    H21 1140  10.808   2.153  10.944 -1.0932  1.6832  2.0285
   46bbb     C1 1141  11.869   5.078   9.649 -0.6415  0.3408 -0.0101
   46bbb     H1 1142  11.898   4.973   9.647 -0.6708  0.3389 -1.3382
   46bbb     H2 1143  11.804   5.090   9.737  0.1227  1.7524  0.4026
   46bbb     C2 1144  11.783   5.099   9.519  0.1125 -0.0835 -0.8261
   46bbb     H3 1145  11.686   5.145   9.542  0.4546  0.6225 -0.7574
   46bbb     H4 1146  11.823   5.173   9.448 -2.0196  1.1687 -0.8185
   46bbb     N1 1147  11.985   5.170   9.657  0.8387  0.4159  0.5351
   46bbb     C3 1148  12.082   5.138   9.552 -0.3787 -0.3577 -0.5278
   46bbb     H5 1149  12.024   5.109   9.464 -1.6410 -2.7347  0.9953
   46bbb     H6 1150  12.144   5.056   9.591  0.0949  0.4863  0.5468
   46bbb     C4 1151  12.038   5.167   9.793 -0.1022  0.1088 -0.2551
   46bbb     H7 1152  12.050   5.065   9.832 -0.0007  0.9252  2.0266
   46bbb     H8 1153  12.141   5.207   9.792 -0.2541  0.6714  1.6291
   46bbb     C5 1154  11.956   5.256   9.879  0.4321 -1.1745 -0.1755
   46bbb     H9 1155  11.963   5.357   9.837  1.3462 -1.8725 -1.8307
   46bbb    H10 1156  11.849   5.235   9.886  0.3820 -1.0098 -0.4368
   46bbb     C6 1157  12.161   5.259   9.510 -0.6725 -0.6150 -0.0443
   46bbb    H11 1158  12.106   5.320   9.437 -1.3018 -2.5586 -1.2493
   46bbb    H12 1159  12.176   5.319   9.601  0.0838 -1.0803  0.1425
   46bbb     C7 1160  12.008   5.262  10.013 -0.4927  0.5531 -0.4818
   46bbb     C8 1161  12.299   5.231   9.446 -0.2110 -0.0589  0.0376
   46bbb     O1 1162  12.063   5.360  10.055  0.1667  0.2388  0.2945
   46bbb     O2 1163  12.337   5.120   9.429  0.6692  0.0699  0.6449
   46bbb     N4 1164  11.762   4.970   9.445 -0.1091 -0.6854  0.0014
   46bbb    H21 1165  11.815   4.886   9.465 -0.5390 -1.5067 -2.1089
   47bbb     C1 1166  12.207   4.340   8.745 -0.3142 -0.3909 -0.6642
   47bbb     H1 1167  12.182   4.343   8.639 -0.0844 -1.0490 -0.7407
   47bbb     H2 1168  12.128   4.276   8.787  0.9327 -1.7546 -0.3079
   47bbb     C2 1169  12.188   4.485   8.801 -0.2516 -0.3389  1.1411
   47bbb     H3 1170  12.288   4.531   8.797  0.0269 -0.9795 -1.6876
   47bbb     H4 1171  12.122   4.527   8.725 -0.3346  0.2637  1.5361
   47bbb     N1 1172  12.333   4.276   8.768  0.2904 -0.2897  0.6831
   47bbb     C3 1173  12.322   4.218   8.900  0.6219  0.0718  0.4116
   47bbb     H5 1174  12.262   4.127   8.901  0.8940 -0.2402 -2.5674
   47bbb     H6 1175  12.270   4.298   8.954 -2.4983 -0.1177 -2.0226
   47bbb     C4 1176  12.367   4.176   8.659  0.6069  0.5702 -0.3442
   47bbb     H7 1177  12.453   4.118   8.693  0.1018 -0.2210 -0.3872
   47bbb     H8 1178  12.275   4.117   8.644  0.7471  0.1465  0.3864
   47bbb     C5 1179  12.417   4.239   8.528 -0.0513  0.3836 -0.1811
   47bbb     H9 1180  12.346   4.315   8.493  0.3744  0.2583 -1.3636
   47bbb    H10 1181  12.513   4.292   8.529 -0.4204  1.0603 -0.1418
   47bbb     C6 1182  12.467   4.193   8.938 -0.7385  0.4805  0.5685
   47bbb    H11 1183  12.505   4.110   8.877 -1.2699 -0.3969  1.3947
   47bbb    H12 1184  12.540   4.274   8.924  1.1815 -0.8462  2.2757
   47bbb     C7 1185  12.413   4.147   8.408  0.0670  0.9340 -0.5934
   47bbb     C8 1186  12.460   4.144   9.082 -0.3518 -0.3334 -0.4236
   47bbb     O1 1187  12.355   4.037   8.405  0.2960  0.0357  0.0041
   47bbb     O2 1188  12.394   4.205   9.166  0.2798 -0.0331  0.1286
   47bbb     N4 1189  12.123   4.519   8.937 -0.9152 -0.0927  0.8250
   47bbb    H21 1190  12.075   4.450   8.994 -2.5985 -0.2425 -0.7035
   48bbb     C1 1191  10.550   3.070   8.743  0.0426  0.0158  0.5402
   48bbb     H1 1192  10.594   3.125   8.659  0.3335 -1.2637 -0.1573
   48bbb     H2 1193  10.445   3.049   8.722 -0.1713  0.3418  1.2292
   48bbb     C2 1194  10.567   3.160   8.864 -0.3422  0.1543  0.2913
   48bbb     H3 1195  10.545   3.258   8.821 -0.1082  2.0184  3.9977
   48bbb     H4 1196  10.497   3.142   8.946 -0.0606  1.6763  0.9045
   48bbb     N1 1197  10.612   2.938   8.756 -0.3054  0.6603  0.3618
   48bbb     C3 1198  10.611   2.860   8.629 -0.2522  0.3220  0.3229
   48bbb     H5 1199  10.530   2.896   8.564  0.7946  1.0101 -0.6501
   48bbb     H6 1200  10.600   2.751   8.637  1.9510  0.1496  1.9167
   48bbb     C4 1201  10.545   2.857   8.857  0.2800 -0.1501  0.5398
   48bbb     H7 1202  10.519   2.921   8.943  0.3097 -0.4641  0.7837
   48bbb     H8 1203  10.457   2.810   8.813  0.8991 -0.9995  0.1694
   48bbb     C5 1204  10.622   2.744   8.909  0.3712  0.1118  0.4434
   48bbb     H9 1205  10.638   2.671   8.829 -0.0878 -2.4698  2.5502
   48bbb    H10 1206  10.718   2.785   8.942  1.5007  0.9466 -3.4485
   48bbb     C6 1207  10.739   2.888   8.561  0.5599  0.0744 -0.7058
   48bbb    H11 1208  10.746   2.998   8.564 -2.6952  0.4411  3.3488
   48bbb    H12 1209  10.829   2.846   8.609  0.8058  1.1682 -0.1702
   48bbb     C7 1210  10.544   2.678   9.022  1.0544 -0.0563  0.1698
   48bbb     C8 1211  10.729   2.832   8.433 -0.6730 -0.0911  0.0337
   48bbb     O1 1212  10.423   2.692   9.037  0.7688 -0.5955  0.4334
   48bbb     O2 1213  10.759   2.718   8.409 -0.2336 -0.8345  0.1138
   48bbb     N4 1214  10.703   3.160   8.922  0.3554  0.4168 -0.4577
   48bbb    H21 1215  10.762   3.079   8.927  1.2915  0.9654 -2.0081
   49bbb     C1 1216  11.516   2.852   8.751 -0.1362  0.6869  0.3823
   49bbb     H1 1217  11.418   2.807   8.731  0.5780 -1.0079  0.4849
   49bbb     H2 1218  11.535   2.818   8.854 -0.2437 -1.1119 -0.1562
   49bbb     C2 1219  11.513   3.009   8.752 -0.0583  0.5124  0.9573
   49bbb     H3 1220  11.614   3.049   8.736  0.7060 -1.2194  1.2128
   49bbb     H4 1221  11.458   3.034   8.661 -3.0071 -0.3957  2.3783
   49bbb     N1 1222  11.608   2.784   8.655 -0.2334 -0.0853 -0.1951
   49bbb     C3 1223  11.752   2.787   8.693 -0.2288 -0.2459 -0.1663
   49bbb     H5 1224  11.788   2.890   8.681 -0.2359  0.1353  2.4992
   49bbb     H6 1225  11.816   2.726   8.628 -1.0976 -0.7004 -0.6097
   49bbb     C4 1226  11.599   2.813   8.513 -0.0882  0.0825  0.2124
   49bbb     H7 1227  11.626   2.919   8.503 -3.1751  1.1899  1.9140
   49bbb     H8 1228  11.673   2.752   8.460  0.4424  1.4520 -0.6955
   49bbb     C5 1229  11.447   2.792   8.478  0.9794  0.1682  0.2905
   49bbb     H9 1230  11.417   2.695   8.518  3.1489 -0.4989  0.3991
   49bbb    H10 1231  11.380   2.873   8.512  0.7533  0.0059  0.2322
   49bbb     C6 1232  11.786   2.741   8.837  0.1019 -1.2712 -0.2750
   49bbb    H11 1233  11.725   2.801   8.905 -1.1738 -0.7918 -1.7644
   49bbb    H12 1234  11.754   2.640   8.865 -1.5712 -0.0538  2.6438
   49bbb     C7 1235  11.439   2.791   8.323  0.0504  0.5786 -0.3029
   49bbb     C8 1236  11.930   2.763   8.886  0.3449  0.3364 -0.2747
   49bbb     O1 1237  11.468   2.889   8.260 -0.9244 -0.5741 -0.1312
   49bbb     O2 1238  11.963   2.859   8.949  0.3399  0.2832  0.6695
   49bbb     N4 1239  11.448   3.077   8.864 -0.3133 -0.3777 -0.2222
   49bbb    H21 1240  11.502   3.135   8.927 -0.1116 -1.6578  0.8220
   50bbb     C1 1241  10.438   5.314   7.723  0.3953  0.6954  0.6182
   50bbb     H1 1242  10.474   5.373   7.639 -2.0364  0.1545 -0.9161
   50bbb     H2 1243  10.477   5.212   7.716 -1.5448 -0.2189  1.9460
   50bbb     C2 1244  10.285   5.297   7.692 -0.1020  0.8360  0.0360
   50bbb     H3 1245  10.237   5.392   7.669 -0.5715  1.0201  1.6669
   50bbb     H4 1246  10.280   5.238   7.599  0.7100  0.2063  0.3757
   50bbb     N1 1247  10.463   5.377   7.854  0.0343 -0.3857 -0.1183
   50bbb     C3 1248  10.607   5.396   7.871 -0.5708  1.0939  1.1647
   50bbb     H5 1249  10.633   5.452   7.962  0.7143 -0.6096  1.8821
   50bbb     H6 1250  10.638   5.458   7.785  0.9014 -0.6696  0.3759
   50bbb     C4 1251  10.397   5.509   7.875 -0.1205  0.0793 -1.2177
   50bbb     H7 1252  10.455   5.581   7.816  0.5521  0.4869 -0.0915
   50bbb     H8 1253  10.296   5.497   7.833 -0.1461  0.8689 -1.4072
   50bbb     C5 1254  10.373   5.548   8.026  0.3554  0.2065  0.3032
   50bbb     H9 1255  10.291   5.490   8.071 -0.9467 -0.2171 -2.4292
   50bbb    H10 1256  10.460   5.538   8.093  2.3696  0.5362 -2.1405
   50bbb     C6 1257  10.676   5.258   7.890  0.1763 -0.1140  0.0836
   50bbb    H11 1258  10.632   5.205   7.975 -1.4044  0.8102 -0.1213
   50bbb    H12 1259  10.666   5.190   7.804 -3.1426  0.0085  0.2357
   50bbb     C7 1260  10.328   5.691   8.021 -0.2422 -0.2849  0.7435
   50bbb     C8 1261  10.823   5.255   7.912 -0.2998 -0.1026 -0.0717
   50bbb     O1 1262  10.410   5.785   8.033 -0.0607  0.3493 -0.1614
   50bbb     O2 1263  10.894   5.355   7.898  0.2388  0.2427  0.5374
   50bbb     N4 1264  10.219   5.221   7.802 -0.6529 -0.7485 -0.0249
   50bbb    H21 1265  10.228   5.251   7.898  0.1656  0.1064 -0.3512
   51bbb     C1 1266   9.378   4.679   8.186 -0.5403  0.0678  0.9351
   51bbb     H1 1267   9.364   4.785   8.159 -4.9443 -0.8934 -1.7198
   51bbb     H2 1268   9.431   4.676   8.282  1.0257  1.4902  0.1775
   51bbb     C2 1269   9.469   4.633   8.074 -0.4764  0.4376 -0.0057
   51bbb     H3 1270   9.527   4.543   8.099  0.7074  0.2454 -3.0799
   51bbb     H4 1271   9.405   4.601   7.991  0.5890 -2.5777  0.2074
   51bbb     N1 1272   9.248   4.602   8.187 -0.1647  0.1945  0.3322
   51bbb     C3 1273   9.161   4.679   8.273 -0.3101  0.1730 -0.5113
   51bbb     H5 1274   9.220   4.744   8.340 -1.0646  0.6484 -0.2919
   51bbb     H6 1275   9.102   4.615   8.340  1.8755  0.1256  1.5133
   51bbb     C4 1276   9.262   4.463   8.236 -0.1535  0.1445 -0.2876
   51bbb     H7 1277   9.342   4.412   8.181 -0.4552  0.2687 -0.8550
   51bbb     H8 1278   9.294   4.467   8.341 -0.7538 -1.1277 -0.0380
   51bbb     C5 1279   9.127   4.384   8.233  0.9712 -0.4942 -0.1233
   51bbb     H9 1280   9.051   4.419   8.304  1.1617 -1.0925  0.3782
   51bbb    H10 1281   9.091   4.386   8.129  0.4499 -0.3750  0.0563
   51bbb     C6 1282   9.079   4.772   8.188  1.1985  0.0018  0.7885
   51bbb    H11 1283   9.150   4.841   8.142 -0.5960 -0.4897 -3.1368
   51bbb    H12 1284   9.035   4.727   8.098  1.9402  1.8134 -0.5454
   51bbb     C7 1285   9.148   4.242   8.268  0.2890 -0.0868  0.0582
   51bbb     C8 1286   8.982   4.859   8.271 -0.9392 -0.2173  0.3041
   51bbb     O1 1287   9.215   4.216   8.366  0.7269  0.2278  0.1295
   51bbb     O2 1288   9.017   4.918   8.367 -0.1157 -0.2838  0.4943
   51bbb     N4 1289   9.566   4.727   8.009 -0.7080 -0.9335 -0.2409
   51bbb    H21 1290   9.580   4.821   8.045 -1.0945 -0.8897 -0.1946
   52bbb     C1 1291  11.020   3.902   8.803  0.5819 -0.0010  0.2138
   52bbb     H1 1292  10.970   3.899   8.901 -2.3660 -2.6347 -1.1945
   52bbb     H2 1293  11.123   3.929   8.829  0.3248 -0.0738  1.3671
   52bbb     C2 1294  10.952   4.002   8.705  0.2894 -1.0949 -0.2981
   52bbb     H3 1295  11.014   4.013   8.616  1.2086 -0.4826  0.4034
   52bbb     H4 1296  10.850   3.962   8.693 -0.2752 -0.0135  0.6126
   52bbb     N1 1297  10.999   3.768   8.748 -0.5746 -0.6517  0.5104
   52bbb     C3 1298  11.114   3.684   8.782 -1.1153 -0.5287 -0.4921
   52bbb     H5 1299  11.091   3.580   8.756  1.4177 -1.0666 -0.9109
   52bbb     H6 1300  11.138   3.701   8.887  1.8966 -0.3405 -1.0983
   52bbb     C4 1301  10.875   3.706   8.789 -0.7746 -0.4922  0.4067
   52bbb     H7 1302  10.897   3.662   8.886 -0.1022 -1.0743 -0.0013
   52bbb     H8 1303  10.795   3.782   8.789  0.1996  0.5972 -0.9724
   52bbb     C5 1304  10.839   3.607   8.677  0.1452 -0.0162  0.6996
   52bbb     H9 1305  10.847   3.653   8.577  0.0900  0.3488  0.8629
   52bbb    H10 1306  10.907   3.520   8.675 -0.4292 -0.4980 -1.4619
   52bbb     C6 1307  11.242   3.719   8.702  0.0814 -0.6053 -0.3001
   52bbb    H11 1308  11.242   3.675   8.601  0.6792 -0.4154 -0.3835
   52bbb    H12 1309  11.267   3.826   8.697  2.8188 -1.2552 -3.4894
   52bbb     C7 1310  10.698   3.559   8.683  0.0785  0.7117 -0.4397
   52bbb     C8 1311  11.348   3.640   8.765 -1.0604 -0.2930 -0.1094
   52bbb     O1 1312  10.597   3.616   8.730 -0.1127 -0.1865 -0.1812
   52bbb     O2 1313  11.403   3.665   8.873 -0.0260  0.1206 -0.4504
   52bbb     N4 1314  10.938   4.138   8.772 -0.1627 -0.0615  0.6971
   52bbb    H21 1315  10.855   4.195   8.769 -0.5290 -0.6136  0.0617
   53bbb     C1 1316  11.308   4.664   9.423 -0.2244  0.2402 -0.3477
   53bbb     H1 1317  11.397   4.682   9.361 -0.0552 -0.7090 -0.4003
   53bbb     H2 1318  11.281   4.559   9.407 -1.3210  0.3499  0.6748
   53bbb     C2 1319  11.191   4.754   9.377 -0.3605  0.2012  0.0089
   53bbb     H3 1320  11.122   4.769   9.461  1.6692 -1.2118  2.0651
   53bbb     H4 1321  11.227   4.856   9.362  0.3031  0.7240  3.9845
   53bbb     N1 1322  11.344   4.683   9.566  0.1399  0.0943  0.6061
   53bbb     C3 1323  11.400   4.818   9.575  0.2016 -1.2307 -0.2470
   53bbb     H5 1324  11.330   4.885   9.524 -0.1320  0.7228  2.5803
   53bbb     H6 1325  11.492   4.824   9.515 -0.1088  0.1134 -0.6315
   53bbb     C4 1326  11.441   4.575   9.606  0.7868  0.3669  0.2679
   53bbb     H7 1327  11.517   4.549   9.531  0.7431  0.0018  0.3525
   53bbb     H8 1328  11.488   4.611   9.699 -1.7462  2.5032  0.8551
   53bbb     C5 1329  11.367   4.447   9.633  0.0449 -1.0522  0.1433
   53bbb     H9 1330  11.288   4.474   9.705 -0.0966  1.7524 -0.9579
   53bbb    H10 1331  11.322   4.395   9.548 -3.0319  0.1877  0.8955
   53bbb     C6 1332  11.417   4.872   9.717  0.2570  0.0959 -0.5663
   53bbb    H11 1333  11.320   4.854   9.766  2.0253 -2.2896  2.4526
   53bbb    H12 1334  11.494   4.821   9.777  0.5833  1.4424  0.2054
   53bbb     C7 1335  11.462   4.349   9.702  0.1394 -0.9858  0.1035
   53bbb     C8 1336  11.444   5.020   9.737 -0.3647  0.4048 -0.6742
   53bbb     O1 1337  11.482   4.339   9.824  0.2391 -0.4320  0.3716
   53bbb     O2 1338  11.543   5.063   9.796 -0.3352 -0.2596 -0.0539
   53bbb     N4 1339  11.117   4.700   9.262 -0.1244  0.2679 -0.2343
   53bbb    H21 1340  11.028   4.655   9.281 -0.5506  1.3016  0.2742
   54bbb     C1 1341   9.056   5.469  10.555 -0.0415 -0.5197  0.2358
   54bbb     H1 1342   8.958   5.516  10.545 -0.9779 -2.4227  0.0369
   54bbb     H2 1343   9.137   5.543  10.555 -1.8730  1.6971  2.6790
   54bbb     C2 1344   9.065   5.361  10.432 -1.2674 -0.1466 -0.1787
   54bbb     H3 1345   9.156   5.303  10.453 -0.1875  0.9845 -1.4856
   54bbb     H4 1346   8.984   5.289  10.445  0.4397 -2.4177 -1.3358
   54bbb     N1 1347   9.063   5.395  10.680  0.4811  0.1076  0.2156
   54bbb     C3 1348   8.992   5.471  10.779  0.7416 -0.6980  0.3063
   54bbb     H5 1349   9.021   5.576  10.768  0.4516 -0.8772 -3.4272
   54bbb     H6 1350   9.012   5.431  10.880 -0.6838  1.6597  1.6056
   54bbb     C4 1351   9.203   5.359  10.704  0.4589 -0.5383  0.0995
   54bbb     H7 1352   9.244   5.293  10.627 -0.4798 -1.2784  0.2125
   54bbb     H8 1353   9.260   5.452  10.716  0.3943 -0.6624  1.5880
   54bbb     C5 1354   9.219   5.285  10.824 -0.1465  0.7497 -0.9116
   54bbb     H9 1355   9.200   5.353  10.908 -0.4019  0.0436 -0.3877
   54bbb    H10 1356   9.148   5.202  10.836  0.0805  0.8477  1.4939
   54bbb     C6 1357   8.841   5.453  10.770  0.1813  0.8032 -0.7441
   54bbb    H11 1358   8.799   5.513  10.688  1.2205  1.2682 -0.9494
   54bbb    H12 1359   8.828   5.345  10.754  1.6670  0.2046  1.4918
   54bbb     C7 1360   9.361   5.229  10.829  0.1366 -0.0007  0.1320
   54bbb     C8 1361   8.766   5.492  10.899 -1.1781  0.2463  0.3089
   54bbb     O1 1362   9.463   5.291  10.798 -0.4914 -0.2567 -0.3448
   54bbb     O2 1363   8.741   5.415  10.986  0.7101  0.0059 -0.3968
   54bbb     N4 1364   9.064   5.417  10.294  0.5483 -0.4794 -0.3336
   54bbb    H21 1365   9.156   5.442  10.261  0.0907  0.7188 -0.7775
   55bbb     C1 1366   8.411   4.967   9.679  0.0407  0.7377 -0.2369
   55bbb     H1 1367   8.482   4.885   9.693  0.6783  1.2887 -0.2205
   55bbb     H2 1368   8.331   4.943   9.607 -0.8441  2.2485  0.1951
   55bbb     C2 1369   8.492   5.084   9.625  0.4446  0.3645  0.1150
   55bbb     H3 1370   8.517   5.067   9.520  1.7030 -1.0389  0.6134
   55bbb     H4 1371   8.431   5.175   9.634 -0.6996 -0.3786  0.1835
   55bbb     N1 1372   8.357   5.018   9.805  0.0714 -0.0554  0.1049
   55bbb     C3 1373   8.437   4.977   9.922  0.6494 -0.0370  0.6110
   55bbb     H5 1374   8.544   4.969   9.899  0.7472  1.8277  0.3052
   55bbb     H6 1375   8.407   4.878   9.959  0.8248 -0.7303 -1.0221
   55bbb     C4 1376   8.217   4.992   9.823  0.1927 -0.2000  1.2506
   55bbb     H7 1377   8.202   4.886   9.800  0.3254  0.0497 -0.0930
   55bbb     H8 1378   8.187   5.012   9.926  1.8667  0.1530  1.6939
   55bbb     C5 1379   8.141   5.086   9.728  0.1004  0.3198  0.0059
   55bbb     H9 1380   8.203   5.175   9.712 -0.7274  0.5032 -2.7672
   55bbb    H10 1381   8.126   5.029   9.635  0.9700 -0.1376  0.1323
   55bbb     C6 1382   8.427   5.090  10.026 -0.7230  0.5058  0.0628
   55bbb    H11 1383   8.452   5.192   9.994 -1.2517  1.2464  1.8606
   55bbb    H12 1384   8.324   5.102  10.062 -0.6051 -0.5500  0.8020
   55bbb     C7 1385   8.005   5.134   9.787  0.3343  0.2572  0.7618
   55bbb     C8 1386   8.510   5.056  10.141  0.5577 -0.7085 -0.1167
   55bbb     O1 1387   7.923   5.051   9.818  0.7183 -0.6222  0.0013
   55bbb     O2 1388   8.611   5.122  10.165  0.5702  0.3528 -0.2858
   55bbb     N4 1389   8.624   5.105   9.692  0.3426  0.2650 -0.6535
   55bbb    H21 1390   8.676   5.022   9.716 -0.0406  0.2752  0.2623
   56bbb     C1 1391   8.071   5.280  10.961  0.2993 -0.3252  0.1589
   56bbb     H1 1392   8.057   5.365  10.893 -0.7937  1.7159  2.7655
   56bbb     H2 1393   8.145   5.314  11.034  1.3351 -0.1981 -0.9146
   56bbb     C2 1394   8.134   5.155  10.896 -0.2101 -0.7514  0.0658
   56bbb     H3 1395   8.123   5.077  10.973 -2.9097 -0.1026  0.4317
   56bbb     H4 1396   8.071   5.117  10.816 -0.3042  0.4099 -0.4240
   56bbb     N1 1397   7.936   5.252  11.015  0.2198 -0.1335  0.7831
   56bbb     C3 1398   7.877   5.359  11.087 -0.8802  0.6827 -0.4243
   56bbb     H5 1399   7.771   5.335  11.095 -0.7162  0.0424 -0.1399
   56bbb     H6 1400   7.887   5.460  11.045  0.3084  0.3599 -0.9634
   56bbb     C4 1401   7.833   5.187  10.929 -0.3697 -0.4126 -0.2589
   56bbb     H7 1402   7.767   5.266  10.889 -1.9240 -0.5051  1.9104
   56bbb     H8 1403   7.874   5.138  10.840  0.0644 -1.3324  0.4330
   56bbb     C5 1404   7.761   5.086  11.011  0.0838  0.3898  0.4307
   56bbb     H9 1405   7.837   5.012  11.039  0.0260  0.3778  0.5576
   56bbb    H10 1406   7.731   5.129  11.107 -0.7414  0.2368  0.2468
   56bbb     C6 1407   7.931   5.364  11.230  0.2669  0.3897 -0.0635
   56bbb    H11 1408   7.905   5.275  11.288 -1.8206  1.4593  0.7379
   56bbb    H12 1409   8.039   5.382  11.233  0.9954 -3.1548 -0.0653
   56bbb     C7 1410   7.646   5.018  10.937 -0.6036  0.0914  0.1271
   56bbb     C8 1411   7.861   5.479  11.291 -0.3220  0.4907 -0.7321
   56bbb     O1 1412   7.535   5.073  10.925 -0.0896  0.0416  0.2339
   56bbb     O2 1413   7.768   5.538  11.241  0.1322 -0.4993  0.1317
   56bbb     N4 1414   8.269   5.189  10.838  1.3126  0.1611  0.1774
   56bbb    H21 1415   8.274   5.250  10.757 -0.9103  1.7812  1.1592
   57bbb     C1 1416   8.090   5.809  10.434 -0.6751 -0.0842  0.1540
   57bbb     H1 1417   8.085   5.787  10.327  0.5588 -2.3296  0.4831
   57bbb     H2 1418   8.067   5.916  10.441  1.6617  0.3865  1.9498
   57bbb     C2 1419   8.245   5.792  10.454  0.8816  0.5422 -0.0621
   57bbb     H3 1420   8.295   5.867  10.392  0.4762  1.6945  0.9746
   57bbb     H4 1421   8.272   5.819  10.557  1.4770  1.4336 -0.4383
   57bbb     N1 1422   8.000   5.721  10.508  0.4868  0.4827  0.1875
   57bbb     C3 1423   7.856   5.741  10.480  0.4727  0.8204 -0.5959
   57bbb     H5 1424   7.833   5.847  10.496 -2.6244  0.1439  0.0975
   57bbb     H6 1425   7.795   5.694  10.558  2.7061 -0.3696  0.5427
   57bbb     C4 1426   8.035   5.715  10.651 -0.3385  0.1649  0.2038
   57bbb     H7 1427   8.143   5.717  10.668 -0.1148  0.7125 -1.1771
   57bbb     H8 1428   8.002   5.803  10.708 -0.2010  0.4696 -0.1825
   57bbb     C5 1429   7.982   5.589  10.711 -0.0689  0.2265  0.2188
   57bbb     H9 1430   8.024   5.579  10.812 -0.8969  1.7014  0.7352
   57bbb    H10 1431   7.876   5.568  10.724 -0.4624  2.8722  1.7792
   57bbb     C6 1432   7.817   5.673  10.347 -0.6508  0.2058  0.0067
   57bbb    H11 1433   7.870   5.714  10.260  1.1596  0.2893  1.1000
   57bbb    H12 1434   7.842   5.566  10.343  0.0264  0.2459  2.0119
   57bbb     C7 1435   8.035   5.471  10.626  0.6386 -0.4652 -0.1550
   57bbb     C8 1436   7.666   5.685  10.334 -0.5086  0.4117  0.5245
   57bbb     O1 1437   8.154   5.462  10.600 -0.6641 -0.0983 -0.3513
   57bbb     O2 1438   7.591   5.593  10.363  0.6260  0.0812  0.0395
   57bbb     N4 1439   8.294   5.654  10.438 -0.2656  0.3919 -0.1053
   57bbb    H21 1440   8.234   5.579  10.470 -0.0927  0.0301 -0.6079
   58bbb     C1 1441   9.702   4.611   8.520  0.0527 -0.3282 -0.3536
   58bbb     H1 1442   9.601   4.618   8.562  0.1534 -0.7688 -0.0311
   58bbb     H2 1443   9.767   4.641   8.603 -1.0059  1.0066  0.0380
   58bbb     C2 1444   9.722   4.714   8.401  0.1557  0.3741 -0.1118
   58bbb     H3 1445   9.830   4.715   8.381  0.4305  0.4980  1.2685
   58bbb     H4 1446   9.666   4.666   8.320  1.2558  0.1376 -0.7464
   58bbb     N1 1447   9.738   4.476   8.490 -0.4728 -0.2882 -0.1810
   58bbb     C3 1448   9.688   4.386   8.591  0.3525  0.1266  0.3400
   58bbb     H5 1449   9.719   4.426   8.688 -0.3382  0.1471  0.5544
   58bbb     H6 1450   9.740   4.289   8.585  0.8004  0.4008 -0.4000
   58bbb     C4 1451   9.877   4.458   8.476  0.1562  0.4029  0.2606
   58bbb     H7 1452   9.935   4.544   8.512 -0.6812  0.1058  2.4510
   58bbb     H8 1453   9.899   4.365   8.529 -1.7842 -0.8354 -1.0021
   58bbb     C5 1454   9.895   4.437   8.329  0.2427 -0.3677 -0.2071
   58bbb     H9 1455   9.866   4.333   8.309  1.8445 -0.5389 -1.9525
   58bbb    H10 1456   9.830   4.505   8.273 -0.8084 -0.3499  1.0060
   58bbb     C6 1457   9.535   4.364   8.577 -0.4510 -0.4988 -0.1811
   58bbb    H11 1458   9.491   4.463   8.594  0.0545 -0.3998  0.6073
   58bbb    H12 1459   9.499   4.340   8.476  0.1851  0.3971 -0.6319
   58bbb     C7 1460  10.040   4.449   8.287  0.7168 -0.4932 -0.1242
   58bbb     C8 1461   9.480   4.274   8.681 -0.1136 -0.1126 -0.2329
   58bbb     O1 1462  10.142   4.453   8.358  0.3666  0.2334 -0.0182
   58bbb     O2 1463   9.509   4.301   8.796 -0.4923 -0.2802  0.7598
   58bbb     N4 1464   9.664   4.847   8.431 -0.4396  0.3497  0.9136
   58bbb    H21 1465   9.662   4.888   8.524  1.0930  1.0533  0.6720
   59bbb     C1 1466   8.998   5.651   7.986  0.1088 -0.2645 -0.3562
   59bbb     H1 1467   9.098   5.688   7.961  0.7279 -1.1345  0.7524
   59bbb     H2 1468   8.999   5.686   8.089  1.5208  1.4723 -0.9187
   59bbb     C2 1469   8.991   5.496   7.979 -0.2650 -0.8029  0.8756
   59bbb     H3 1470   8.893   5.460   8.011  0.3928 -2.1075  1.4707
   59bbb     H4 1471   9.001   5.475   7.872 -1.8591  2.2464  0.0090
   59bbb     N1 1472   8.901   5.731   7.902  0.9405  0.1771  0.2800
   59bbb     C3 1473   8.762   5.680   7.926  0.1853  0.2498 -0.0857
   59bbb     H5 1474   8.743   5.574   7.907  2.4951 -0.2269 -0.0389
   59bbb     H6 1475   8.695   5.736   7.860  2.1502  2.2296 -0.5366
   59bbb     C4 1476   8.953   5.736   7.763  0.7495  0.2069 -0.3693
   59bbb     H7 1477   9.049   5.788   7.773  1.4806 -1.2802  0.8114
   59bbb     H8 1478   8.968   5.635   7.723 -2.5700  0.2091 -1.8890
   59bbb     C5 1479   8.850   5.812   7.679 -0.1743  1.6760 -0.1420
   59bbb     H9 1480   8.776   5.734   7.659  0.0515  1.4772 -0.2103
   59bbb    H10 1481   8.797   5.889   7.736 -3.0786 -2.4432  3.3039
   59bbb     C6 1482   8.731   5.717   8.070  0.3590  0.0667  0.3324
   59bbb    H11 1483   8.768   5.653   8.150  2.4871  0.4682 -0.2829
   59bbb    H12 1484   8.752   5.822   8.097  1.9387  0.2628 -1.4673
   59bbb     C7 1485   8.903   5.857   7.542  0.0710  0.3823 -0.1859
   59bbb     C8 1486   8.585   5.683   8.083 -0.2047 -0.5701  0.0869
   59bbb     O1 1487   9.024   5.872   7.526  0.2152 -0.7324  0.4866
   59bbb     O2 1488   8.552   5.568   8.083 -0.1639  0.4363  0.4883
   59bbb     N4 1489   9.107   5.429   8.045 -0.5569  0.1593 -0.1740
   59bbb    H21 1490   9.201   5.464   8.029  0.2022 -1.2037  1.0398
   60bbb     C1 1491  10.117   5.954   9.660  0.0028 -0.0638 -0.5335
   60bbb     H1 1492  10.123   5.900   9.565  0.3907 -1.7149  0.3877
   60bbb     H2 1493  10.219   5.988   9.679  0.0050  0.2008 -1.0140
   60bbb     C2 1494  10.073   5.854   9.769  0.5397  0.7901 -0.6407
   60bbb     H3 1495  10.141   5.768   9.770 -0.3693 -0.0081 -2.5078
   60bbb     H4 1496  10.083   5.914   9.861 -1.4517  0.4627 -0.1734
   60bbb     N1 1497  10.024   6.065   9.641 -0.9937 -0.0876 -0.4785
   60bbb     C3 1498  10.030   6.108   9.505 -0.4434 -0.1676  0.5262
   60bbb     H5 1499  10.017   6.016   9.447  3.2333 -1.9833  2.2513
   60bbb     H6 1500  10.126   6.146   9.467 -1.5942  0.9891 -1.3988
   60bbb     C4 1501  10.051   6.179   9.734  0.0094  0.3740  0.5674
   60bbb     H7 1502  10.127   6.160   9.810 -1.0657 -0.7872  1.4010
   60bbb     H8 1503  10.079   6.269   9.679 -2.1806 -0.3026 -1.8866
   60bbb     C5 1504   9.917   6.202   9.798  0.3157  0.0397  0.3593
   60bbb     H9 1505   9.847   6.228   9.718  1.2994 -2.6189 -1.5228
   60bbb    H10 1506   9.873   6.113   9.844 -0.1028 -1.0378 -1.9832
   60bbb     C6 1507   9.931   6.214   9.469 -0.6228  0.4295  0.3616
   60bbb    H11 1508   9.832   6.174   9.491  0.6564 -1.2459  3.9864
   60bbb    H12 1509   9.945   6.312   9.517  0.8307  1.3969 -1.8835
   60bbb     C7 1510   9.930   6.303   9.909  0.1711  0.2060  0.2630
   60bbb     C8 1511   9.948   6.249   9.323  0.3630  0.1518 -0.3749
   60bbb     O1 1512  10.028   6.370   9.931 -0.0461 -0.2728 -0.1115
   60bbb     O2 1513   9.886   6.189   9.233 -0.1162  0.1922 -0.0941
   60bbb     N4 1514   9.933   5.811   9.757 -0.5058 -0.3243  0.5903
   60bbb    H21 1515   9.874   5.870   9.699 -1.6223 -1.1634  0.8371
   61bbb     C1 1516   9.561   5.402  10.436  0.2339  0.4813 -0.1527
   61bbb     H1 1517   9.654   5.357  10.398  0.0148 -1.2777  1.2645
   61bbb     H2 1518   9.555   5.371  10.541  1.7651 -0.9360 -0.4336
   61bbb     C2 1519   9.444   5.339  10.359  0.3559  0.0425  0.4036
   61bbb     H3 1520   9.432   5.240  10.405  3.1834  0.4762  2.3818
   61bbb     H4 1521   9.356   5.402  10.373  0.4352  0.1135  0.5891
   61bbb     N1 1522   9.557   5.547  10.423  0.1265 -0.6070 -0.3153
   61bbb     C3 1523   9.689   5.604  10.431  0.1579 -0.7491 -0.1596
   61bbb     H5 1524   9.747   5.548  10.506  1.9606 -0.7823 -1.5312
   61bbb     H6 1525   9.675   5.710  10.456  1.3863 -0.3050 -1.2677
   61bbb     C4 1526   9.473   5.603  10.528 -0.3248 -0.2980  0.6409
   61bbb     H7 1527   9.390   5.532  10.530  0.3888 -1.2598 -1.0335
   61bbb     H8 1528   9.517   5.607  10.628  1.8542 -0.2399 -0.2585
   61bbb     C5 1529   9.408   5.733  10.486  0.6850  0.1419 -0.1255
   61bbb     H9 1530   9.480   5.798  10.435  0.9576  1.4076  1.7901
   61bbb    H10 1531   9.327   5.696  10.422  1.1023 -2.0576  0.5259
   61bbb     C6 1532   9.764   5.584  10.304  0.9201  0.1313  0.4159
   61bbb    H11 1533   9.803   5.481  10.305 -3.1628 -1.6514 -0.8420
   61bbb    H12 1534   9.688   5.596  10.226  1.0023  0.4155  0.3798
   61bbb     C7 1535   9.338   5.800  10.596 -0.2611  0.1393 -0.1285
   61bbb     C8 1536   9.869   5.682  10.295  0.0385  0.0466 -0.3516
   61bbb     O1 1537   9.341   5.766  10.711 -0.1330  0.0285  0.3803
   61bbb     O2 1538   9.990   5.648  10.295  0.8416  0.3561 -0.1992
   61bbb     N4 1539   9.479   5.326  10.212 -0.3359 -0.9070 -0.3869
   61bbb    H21 1540   9.555   5.269  10.178  1.6528  1.7307 -0.7515
   62bbb     C1 1541   9.288   2.913   6.601 -0.9824 -0.0761  0.4283
   62bbb     H1 1542   9.384   2.864   6.586  0.9956  2.5565  3.1255
   62bbb     H2 1543   9.302   3.017   6.569 -1.0707  1.1311  3.8542
   62bbb     C2 1544   9.262   2.918   6.748  0.1709  0.6120  0.1971
   62bbb     H3 1545   9.178   2.852   6.772 -1.1859  1.8627 -0.9250
   62bbb     H4 1546   9.360   2.892   6.792  0.2914  0.9388  0.1267
   62bbb     N1 1547   9.176   2.844   6.528  0.4122 -0.4439  0.3174
   62bbb     C3 1548   9.208   2.815   6.386  0.2521  0.3175  0.5054
   62bbb     H5 1549   9.123   2.767   6.335  0.0692  2.7115 -1.6539
   62bbb     H6 1550   9.298   2.753   6.375 -0.4988 -0.6376 -0.5103
   62bbb     C4 1551   9.041   2.903   6.533 -0.1039  0.3334  1.0184
   62bbb     H7 1552   9.016   2.958   6.625 -2.7631  1.6723 -0.3744
   62bbb     H8 1553   9.032   2.968   6.445 -0.0616 -1.8437 -0.6916
   62bbb     C5 1554   8.938   2.789   6.526 -0.0073 -0.0725  0.1997
   62bbb     H9 1555   8.954   2.723   6.440 -1.3590  1.0975 -1.0195
   62bbb    H10 1556   8.946   2.723   6.614  0.1315  0.7521  0.8164
   62bbb     C6 1557   9.243   2.929   6.295 -0.3821 -0.2941  0.1453
   62bbb    H11 1558   9.170   3.011   6.295 -0.8688 -0.6327 -2.2034
   62bbb    H12 1559   9.345   2.962   6.321 -0.1740 -1.6384  1.1359
   62bbb     C7 1560   8.803   2.844   6.510 -0.3445  0.0856  0.3114
   62bbb     C8 1561   9.246   2.887   6.147 -0.2807 -0.2127  0.2466
   62bbb     O1 1562   8.753   2.912   6.600 -0.2011 -0.1946 -0.3079
   62bbb     O2 1563   9.260   2.773   6.108 -0.2474  0.2365 -0.2043
   62bbb     N4 1564   9.219   3.055   6.786  0.7599  0.5385 -0.1547
   62bbb    H21 1565   9.149   3.101   6.728 -0.2889  0.4348  0.9763
   63bbb     C1 1566   9.029   3.980   7.266 -0.2206 -0.7833  0.7374
   63bbb     H1 1567   8.975   3.979   7.171  1.1703 -1.4721 -0.0740
   63bbb     H2 1568   9.129   4.020   7.246 -1.3447  1.4875 -0.8359
   63bbb     C2 1569   9.031   3.840   7.330 -0.6845 -0.2675 -0.0464
   63bbb     H3 1570   9.108   3.840   7.407 -0.0834 -0.3191 -0.6387
   63bbb     H4 1571   8.937   3.815   7.381 -0.3238  1.4971  1.6157
   63bbb     N1 1572   8.964   4.073   7.364  0.0926  0.1280  0.3564
   63bbb     C3 1573   9.012   4.207   7.351  0.2289 -0.2120 -0.2045
   63bbb     H5 1574   8.972   4.260   7.263 -0.5915  1.3047  1.0486
   63bbb     H6 1575   9.122   4.215   7.351  0.1137  2.3949  0.7589
   63bbb     C4 1576   8.821   4.055   7.375 -0.1884 -0.3701 -0.3580
   63bbb     H7 1577   8.799   3.948   7.368  0.8712 -0.8719  2.5412
   63bbb     H8 1578   8.785   4.095   7.470  2.2104  0.6551  0.1884
   63bbb     C5 1579   8.746   4.127   7.255  0.5624  0.4133 -0.0499
   63bbb     H9 1580   8.742   4.235   7.274  1.2728  0.7486 -1.6582
   63bbb    H10 1581   8.807   4.127   7.163  1.1393  0.8881  0.3221
   63bbb     C6 1582   8.974   4.286   7.474  0.1798  0.2628 -0.1346
   63bbb    H11 1583   8.866   4.299   7.484  0.3044  1.3894 -0.1001
   63bbb    H12 1584   9.013   4.227   7.558  1.6432  0.9864 -0.2614
   63bbb     C7 1585   8.609   4.065   7.234 -0.6365 -0.2384 -0.0231
   63bbb     C8 1586   9.049   4.421   7.485  0.1571 -0.1543 -0.3529
   63bbb     O1 1587   8.573   3.952   7.259  0.1117 -0.6871  0.2436
   63bbb     O2 1588   9.165   4.429   7.451  0.2771  0.4529 -0.0863
   63bbb     N4 1589   9.062   3.737   7.229 -0.3023  0.2075  0.4532
   63bbb    H21 1590   9.083   3.764   7.134 -2.3914 -0.9331 -0.3843
   64bbb     C1 1591  10.079   3.453   5.918 -0.5219 -0.0756  0.5155
   64bbb     H1 1592  10.034   3.553   5.924  0.8786  0.5311  1.2710
   64bbb     H2 1593  10.018   3.384   5.858  1.0760 -1.2742  0.2288
   64bbb     C2 1594  10.065   3.394   6.055  0.1178  0.0139 -0.2274
   64bbb     H3 1595  10.106   3.293   6.064 -0.3572 -0.2366 -0.8463
   64bbb     H4 1596  10.119   3.458   6.126 -0.9835 -1.4914  2.1310
   64bbb     N1 1597  10.222   3.462   5.876  0.7872  0.2391  0.0966
   64bbb     C3 1598  10.307   3.549   5.955  0.0561  0.8995  0.0197
   64bbb     H5 1599  10.411   3.540   5.921 -0.8338 -2.5314 -2.2730
   64bbb     H6 1600  10.310   3.513   6.058 -0.1231 -2.3360 -0.9948
   64bbb     C4 1601  10.239   3.480   5.733  0.2085  0.6434  0.5524
   64bbb     H7 1602  10.205   3.579   5.698  0.1939  0.1801 -0.7821
   64bbb     H8 1603  10.346   3.486   5.712 -0.2047  1.1217 -1.7889
   64bbb     C5 1604  10.176   3.379   5.645 -0.1143 -0.5820 -0.3569
   64bbb     H9 1605  10.206   3.287   5.697  1.9034  0.0693 -0.2539
   64bbb    H10 1606  10.069   3.404   5.643  0.1555  0.9621  1.0962
   64bbb     C6 1607  10.273   3.692   5.945 -0.1680 -0.4107  0.2557
   64bbb    H11 1608  10.274   3.726   5.841 -0.8874 -3.0394 -0.7055
   64bbb    H12 1609  10.171   3.710   5.982  0.0692 -0.4079  0.9210
   64bbb     C7 1610  10.232   3.382   5.505  0.0875  0.4246 -0.2676
   64bbb     C8 1611  10.375   3.775   6.019  0.0186 -0.1443 -0.8156
   64bbb     O1 1612  10.245   3.492   5.450  0.3945 -1.0610 -0.1705
   64bbb     O2 1613  10.333   3.831   6.118 -0.2747 -0.2792  0.6658
   64bbb     N4 1614   9.925   3.380   6.097  0.6601  0.0445 -0.1066
   64bbb    H21 1615   9.857   3.408   6.027 -0.4021 -1.0681  0.4388
   65bbb     C1 1616   8.852   3.371   6.160 -0.0278 -0.2118 -0.4887
   65bbb     H1 1617   8.772   3.367   6.086 -1.5081 -0.3253  1.0598
   65bbb     H2 1618   8.803   3.431   6.237 -1.0864  0.7060 -1.8352
   65bbb     C2 1619   8.980   3.435   6.097 -0.1049 -0.4868 -0.1745
   65bbb     H3 1620   9.008   3.388   6.002 -1.8419 -1.5051 -0.2263
   65bbb     H4 1621   8.952   3.539   6.077  1.1013 -0.2703 -0.8487
   65bbb     N1 1622   8.862   3.239   6.211  0.6842 -0.0920 -0.1387
   65bbb     C3 1623   8.933   3.228   6.341 -0.2541  0.2130 -0.1534
   65bbb     H5 1624   9.040   3.248   6.330  0.0120 -0.8765  0.2950
   65bbb     H6 1625   8.923   3.129   6.387 -0.3996  1.6333  3.1511
   65bbb     C4 1626   8.899   3.128   6.126 -0.2333 -0.2475 -0.1193
   65bbb     H7 1627   9.000   3.137   6.085 -1.2355 -2.2624 -3.4343
   65bbb     H8 1628   8.890   3.035   6.183 -0.1449  0.4020  0.9924
   65bbb     C5 1629   8.810   3.129   5.999 -0.6218 -0.3695 -0.3173
   65bbb     H9 1630   8.704   3.144   6.023  0.1217  0.6814  2.8594
   65bbb    H10 1631   8.844   3.211   5.935  1.1607  0.4027  1.4971
   65bbb     C6 1632   8.869   3.324   6.442 -0.4071  0.9101 -0.1026
   65bbb    H11 1633   8.915   3.424   6.436  0.5650  0.5007  0.3421
   65bbb    H12 1634   8.761   3.328   6.423 -0.9254  2.6048  2.5963
   65bbb     C7 1635   8.834   2.998   5.921 -0.5889 -0.3298  0.8062
   65bbb     C8 1636   8.910   3.276   6.581 -0.2758  0.9205  0.2229
   65bbb     O1 1637   8.929   2.926   5.937 -0.0509  0.5216  0.0779
   65bbb     O2 1638   9.021   3.225   6.605 -0.1547 -0.2601  0.5373
   65bbb     N4 1639   9.093   3.456   6.184 -0.2823  0.4693  0.4372
   65bbb    H21 1640   9.099   3.525   6.257 -0.3241  0.6179  0.3004
   66bbb     C1 1641   9.514   6.024   7.702 -1.4129  0.7119  0.2904
   66bbb     H1 1642   9.468   6.123   7.716  1.6637  1.9402  2.7766
   66bbb     H2 1643   9.441   5.954   7.660  0.2887 -1.0542  0.1380
   66bbb     C2 1644   9.567   5.981   7.841  0.5606 -0.7289 -0.3492
   66bbb     H3 1645   9.653   6.046   7.860 -1.0836  1.5293 -0.2887
   66bbb     H4 1646   9.498   6.023   7.915  3.6867  0.6931  1.9486
   66bbb     N1 1647   9.627   6.043   7.608  0.6488 -0.0543 -0.1631
   66bbb     C3 1648   9.698   5.917   7.581 -0.1086 -0.2769 -0.2749
   66bbb     H5 1649   9.639   5.855   7.512 -1.6190  1.8119 -0.9928
   66bbb     H6 1650   9.721   5.865   7.674 -1.4164 -0.9825 -0.3280
   66bbb     C4 1651   9.562   6.085   7.487 -0.2358  0.7230 -0.7291
   66bbb     H7 1652   9.630   6.086   7.401 -1.2866 -1.1572 -1.6460
   66bbb     H8 1653   9.485   6.012   7.457  0.9432 -1.1285  0.5882
   66bbb     C5 1654   9.511   6.228   7.492  0.1670  0.5892  0.2779
   66bbb     H9 1655   9.448   6.250   7.405 -1.1723 -0.3906  0.9559
   66bbb    H10 1656   9.442   6.260   7.571 -2.0853  0.9045 -1.7192
   66bbb     C6 1657   9.829   5.947   7.517  0.3506  0.3073  0.3338
   66bbb    H11 1658   9.817   6.011   7.429  0.3304 -0.4190 -0.1968
   66bbb    H12 1659   9.893   5.996   7.592 -0.0889  0.5532  0.5564
   66bbb     C7 1660   9.629   6.321   7.472  0.1217 -0.1619  0.1650
   66bbb     C8 1661   9.894   5.819   7.470  0.0357  0.5169 -0.0286
   66bbb     O1 1662   9.740   6.282   7.449 -0.3706  0.0626  0.2647
   66bbb     O2 1663   9.886   5.718   7.541 -0.1503  0.3620 -0.2711
   66bbb     N4 1664   9.595   5.836   7.867 -0.1464  0.0051 -0.4520
   66bbb    H21 1665   9.606   5.768   7.792  0.6929 -3.0935  2.2775
   67bbb     C1 1666   9.919   5.601   8.614 -0.4739  0.7065  0.2880
   67bbb     H1 1667   9.923   5.625   8.721  1.0861  0.6587  0.2629
   67bbb     H2 1668   9.817   5.560   8.607 -0.4886  0.5487  1.3003
   67bbb     C2 1669  10.026   5.487   8.593  0.1056 -0.7004  0.2240
   67bbb     H3 1670  10.113   5.524   8.650 -1.0261 -0.6863  2.0186
   67bbb     H4 1671   9.984   5.393   8.631 -1.3720 -1.3303 -2.7088
   67bbb     N1 1672   9.935   5.717   8.528 -0.6125  0.6860 -0.7973
   67bbb     C3 1673   9.823   5.812   8.540 -0.1280 -0.3438 -0.2160
   67bbb     H5 1674   9.855   5.910   8.502  1.1102 -1.2690 -1.7157
   67bbb     H6 1675   9.790   5.820   8.644 -1.2846 -0.3847 -0.5702
   67bbb     C4 1676  10.060   5.785   8.533 -0.0002 -0.0129 -0.2559
   67bbb     H7 1677  10.043   5.870   8.600 -2.5521  0.0973 -0.9395
   67bbb     H8 1678  10.136   5.714   8.567 -0.2805  0.1851  0.8112
   67bbb     C5 1679  10.086   5.829   8.392  0.2880 -0.5041 -0.9018
   67bbb     H9 1680  10.055   5.759   8.313 -0.3661  0.6914 -1.7281
   67bbb    H10 1681  10.032   5.922   8.369  1.1808  0.2129 -0.1746
   67bbb     C6 1682   9.712   5.787   8.442  0.1119 -0.6415 -0.2364
   67bbb    H11 1683   9.746   5.794   8.338 -2.1969  0.6202 -0.9813
   67bbb    H12 1684   9.687   5.681   8.453  0.4440 -0.7171 -0.1967
   67bbb     C7 1685  10.227   5.863   8.365 -0.2550  0.2586  0.2829
   67bbb     C8 1686   9.595   5.876   8.463  0.7668 -0.4556  0.4209
   67bbb     O1 1687  10.310   5.784   8.388 -0.2579  0.8341 -0.1465
   67bbb     O2 1688   9.573   5.928   8.574 -0.5301  0.1247 -0.0081
   67bbb     N4 1689  10.067   5.471   8.448  0.8125 -0.5130 -0.1631
   67bbb    H21 1690  10.081   5.556   8.395  0.3013  0.9314  1.9217
   68bbb     C1 1691   7.873   5.381   7.659 -0.4684  0.2854  0.3434
   68bbb     H1 1692   7.823   5.288   7.687 -1.0987  0.1367 -1.2010
   68bbb     H2 1693   7.954   5.358   7.589  0.0407  2.0818  0.2752
   68bbb     C2 1694   7.946   5.462   7.767  0.4722 -0.0550  0.0731
   68bbb     H3 1695   7.995   5.555   7.737 -0.5153  0.6929  0.7026
   68bbb     H4 1696   7.867   5.485   7.840 -0.4445 -1.3685 -0.4646
   68bbb     N1 1697   7.773   5.472   7.598  0.4639  0.1276  0.5460
   68bbb     C3 1698   7.738   5.419   7.466  0.0668  0.5008  0.7953
   68bbb     H5 1699   7.637   5.453   7.441 -0.5229 -0.8641  1.2144
   68bbb     H6 1700   7.739   5.309   7.471  0.3478  0.4768  0.2221
   68bbb     C4 1701   7.653   5.470   7.689  0.0751  0.3629 -0.7621
   68bbb     H7 1702   7.598   5.376   7.679  1.1665 -0.5685  1.3153
   68bbb     H8 1703   7.681   5.477   7.795 -0.2448 -1.5409 -0.5210
   68bbb     C5 1704   7.554   5.581   7.675 -0.1085 -1.2664  0.7836
   68bbb     H9 1705   7.609   5.665   7.719 -1.7902 -0.0170  0.6000
   68bbb    H10 1706   7.533   5.601   7.570  1.8050  1.9048  0.8829
   68bbb     C6 1707   7.837   5.469   7.358 -0.4208 -0.1603  0.0098
   68bbb    H11 1708   7.850   5.578   7.362  0.4369 -0.0959 -2.5817
   68bbb    H12 1709   7.922   5.405   7.384  0.5081  0.0658 -2.2152
   68bbb     C7 1710   7.432   5.556   7.764 -0.0942 -0.2499 -0.1407
   68bbb     C8 1711   7.811   5.448   7.208 -0.3432 -0.3720  0.2505
   68bbb     O1 1712   7.407   5.451   7.821 -0.5489 -0.4559  0.4144
   68bbb     O2 1713   7.698   5.452   7.167  0.4775  0.6436  0.3034
   68bbb     N4 1714   8.047   5.395   7.856  0.2791  0.4286  0.3006
   68bbb    H21 1715   8.018   5.358   7.945 -0.2647  0.9596  0.3526
   69bbb     C1 1716   8.028   4.674   7.755 -0.3962 -0.3559  0.3827
   69bbb     H1 1717   7.924   4.640   7.752 -0.8358  0.8121  1.4356
   69bbb     H2 1718   8.088   4.630   7.675  0.7143  0.7571  0.5720
   69bbb     C2 1719   8.090   4.620   7.886  0.2222 -0.7911  0.6404
   69bbb     H3 1720   8.013   4.636   7.963  0.4777 -0.4388  0.8257
   69bbb     H4 1721   8.104   4.511   7.889  0.7503 -0.7283  0.5807
   69bbb     N1 1722   8.030   4.823   7.745 -0.2664 -0.1700 -0.3693
   69bbb     C3 1723   8.003   4.865   7.604  0.3359  0.0967  0.3006
   69bbb     H5 1724   7.954   4.963   7.600 -1.2639 -0.7413 -1.4313
   69bbb     H6 1725   7.962   4.784   7.544  1.7569 -1.1220  0.8870
   69bbb     C4 1726   7.958   4.900   7.844 -0.3104 -0.2010 -0.4858
   69bbb     H7 1727   7.968   4.860   7.946 -0.5814  0.2891 -0.2641
   69bbb     H8 1728   8.000   5.000   7.855 -0.1494 -0.2946 -0.2303
   69bbb     C5 1729   7.804   4.917   7.827 -1.0104  0.2368 -0.0940
   69bbb     H9 1730   7.786   4.960   7.728 -2.7556 -1.6051 -0.6339
   69bbb    H10 1731   7.754   4.820   7.835  2.5763 -1.9428 -1.4017
   69bbb     C6 1732   8.139   4.889   7.534  0.0333 -0.3246  0.1976
   69bbb    H11 1733   8.203   4.964   7.581  0.1039 -0.1408 -0.1894
   69bbb    H12 1734   8.193   4.793   7.537 -1.4272 -1.2732 -1.4956
   69bbb     C7 1735   7.756   5.002   7.940  0.9048 -0.7441  0.4468
   69bbb     C8 1736   8.115   4.936   7.386 -1.0456 -0.6367  0.1494
   69bbb     O1 1737   7.790   4.980   8.057  0.5245  0.3113  0.1619
   69bbb     O2 1738   8.048   5.033   7.355 -0.1556 -0.6434  0.2379
   69bbb     N4 1739   8.214   4.690   7.922 -0.2286 -0.0474  0.1397
   69bbb    H21 1740   8.281   4.696   7.847 -0.7502  0.8625 -0.2669
   70bbb     C1 1741  11.757   4.236   8.300  0.1866  0.1738 -0.5339
   70bbb     H1 1742  11.663   4.200   8.256  0.3767  1.2921 -1.9566
   70bbb     H2 1743  11.763   4.214   8.407 -0.2441 -1.3317 -0.8028
   70bbb     C2 1744  11.754   4.390   8.294  0.1918 -0.5494  0.5818
   70bbb     H3 1745  11.802   4.434   8.382  0.9015  1.0540 -0.5634
   70bbb     H4 1746  11.818   4.421   8.210 -0.6040  1.0760  0.5430
   70bbb     N1 1747  11.872   4.178   8.239  0.1533 -0.3203  0.7217
   70bbb     C3 1748  11.880   4.037   8.274 -0.7333 -0.4495  0.3092
   70bbb     H5 1749  11.949   3.983   8.208 -2.1264 -0.7929 -0.8894
   70bbb     H6 1750  11.781   3.991   8.269  0.0925 -2.3537  0.8166
   70bbb     C4 1751  11.872   4.186   8.090 -0.5697  0.1748 -0.0313
   70bbb     H7 1752  11.862   4.091   8.035  2.3458  0.4911 -1.3251
   70bbb     H8 1753  11.797   4.261   8.062 -0.0589  2.1429  3.3334
   70bbb     C5 1754  12.006   4.238   8.044 -0.2983 -0.0359 -0.2983
   70bbb     H9 1755  12.007   4.345   8.067  1.9182  0.2077 -1.2975
   70bbb    H10 1756  12.095   4.191   8.088  0.3483 -1.3111 -2.8080
   70bbb     C6 1757  11.949   4.022   8.411 -0.0279 -0.5331  0.1553
   70bbb    H11 1758  12.037   4.087   8.417 -0.7179  0.7286 -2.0332
   70bbb    H12 1759  11.877   4.056   8.487  0.0641 -0.6939  0.3151
   70bbb     C7 1760  12.034   4.220   7.892 -0.1509 -0.5020 -0.0959
   70bbb     C8 1761  11.984   3.878   8.427 -0.3941  0.0881 -1.0854
   70bbb     O1 1762  12.103   4.134   7.854  0.0958  0.3065  0.3624
   70bbb     O2 1763  11.909   3.788   8.465 -0.0304 -0.2564 -0.0378
   70bbb     N4 1764  11.618   4.447   8.272 -0.4875  0.5376  0.4735
   70bbb    H21 1765  11.580   4.437   8.179  1.3138  0.4357 -0.3045
   71bbb     C1 1766  11.461   3.780   8.438 -0.4105  0.2345 -0.0395
   71bbb     H1 1767  11.379   3.827   8.492 -0.0058 -0.1361  0.9160
   71bbb     H2 1768  11.495   3.696   8.500 -1.0840 -2.0951 -2.5970
   71bbb     C2 1769  11.562   3.887   8.421 -0.0843  0.8546 -0.1214
   71bbb     H3 1770  11.597   3.898   8.525 -2.4325 -1.1429  0.9901
   71bbb     H4 1771  11.644   3.858   8.354  1.0507  0.7247  1.2561
   71bbb     N1 1772  11.422   3.730   8.305 -0.2583  0.1661  0.8076
   71bbb     C3 1773  11.279   3.684   8.291 -0.0763  0.1474 -0.3035
   71bbb     H5 1774  11.248   3.622   8.376 -1.0891 -0.0686 -0.8270
   71bbb     H6 1775  11.264   3.636   8.194  0.4543 -0.2958 -0.1742
   71bbb     C4 1776  11.518   3.640   8.243  0.3221 -0.8089  0.4711
   71bbb     H7 1777  11.608   3.638   8.305  0.2135 -0.5476  0.6383
   71bbb     H8 1778  11.474   3.539   8.245 -3.0675  0.4900 -0.6780
   71bbb     C5 1779  11.546   3.685   8.107 -0.3346  1.0235 -0.1445
   71bbb     H9 1780  11.469   3.659   8.034  0.0883  0.9156 -0.5582
   71bbb    H10 1781  11.553   3.794   8.096  1.1889  0.9496 -0.1542
   71bbb     C6 1782  11.181   3.799   8.310 -0.1393 -0.5242  0.2470
   71bbb    H11 1783  11.175   3.831   8.415  0.5599 -2.7484  1.0244
   71bbb    H12 1784  11.210   3.884   8.247 -0.6187 -0.5540 -0.0201
   71bbb     C7 1785  11.681   3.635   8.058 -0.3672  0.1957  0.2415
   71bbb     C8 1786  11.047   3.763   8.268  0.9565 -0.3741  0.5198
   71bbb     O1 1787  11.779   3.598   8.124  0.2725  0.1364 -0.2435
   71bbb     O2 1788  10.980   3.676   8.329 -0.1070  0.1253  0.2413
   71bbb     N4 1789  11.505   4.004   8.364  0.0019 -0.6447  0.7130
   71bbb    H21 1790  11.475   4.003   8.267 -1.1812  2.9640  0.8971
   72bbb     C1 1791  10.127   4.190   9.708 -0.2366 -0.3340  0.6786
   72bbb     H1 1792  10.141   4.111   9.783  1.5530 -1.1543 -0.4610
   72bbb     H2 1793  10.051   4.145   9.642  1.2619 -0.4546 -1.0589
   72bbb     C2 1794  10.253   4.211   9.628  0.5448  0.3007  0.1180
   72bbb     H3 1795  10.217   4.266   9.540 -0.4401  0.0195  0.3379
   72bbb     H4 1796  10.327   4.272   9.681  2.2450 -0.6102 -1.1019
   72bbb     N1 1797  10.068   4.309   9.776  0.2269  0.3560 -0.3910
   72bbb     C3 1798   9.969   4.270   9.874  0.5880 -0.5479 -0.2975
   72bbb     H5 1799   9.909   4.190   9.827  0.3436 -0.7104  0.2834
   72bbb     H6 1800   9.897   4.350   9.894 -1.4022 -1.9515 -1.3894
   72bbb     C4 1801  10.003   4.399   9.679  0.0170  0.6924 -0.5861
   72bbb     H7 1802  10.047   4.397   9.579 -1.8158 -0.0651 -1.4303
   72bbb     H8 1803   9.895   4.385   9.661  0.1964 -1.1473 -0.4240
   72bbb     C5 1804  10.037   4.541   9.725 -0.4769  0.1796 -0.3476
   72bbb     H9 1805  10.003   4.550   9.828  0.3089  0.0201 -0.0631
   72bbb    H10 1806  10.146   4.554   9.724 -0.3241 -0.9880 -0.4620
   72bbb     C6 1807  10.037   4.231  10.006  0.4332  0.6800 -0.4619
   72bbb    H11 1808   9.964   4.187  10.074 -0.5675  1.2281 -1.1506
   72bbb    H12 1809  10.117   4.157  10.003  0.3605  0.5207  1.0501
   72bbb     C7 1810   9.958   4.649   9.657 -0.3275 -0.3205 -0.7495
   72bbb     C8 1811  10.079   4.365  10.071  0.2331 -0.5152  0.5037
   72bbb     O1 1812   9.862   4.627   9.588  0.3670  0.8994 -0.3885
   72bbb     O2 1813   9.999   4.448  10.103  0.3566 -0.1255  0.4524
   72bbb     N4 1814  10.318   4.086   9.572  0.0473  0.0000 -0.0414
   72bbb    H21 1815  10.282   3.998   9.606 -0.8714 -0.4778 -2.0991
   73bbb     C1 1816  10.970   3.343   9.496  0.1409  0.3345  0.3194
   73bbb     H1 1817  10.996   3.320   9.391  2.3592 -2.7103  1.3846
   73bbb     H2 1818  10.882   3.280   9.517  0.7166 -0.1657  1.2627
   73bbb     C2 1819  10.943   3.491   9.516 -0.6466  0.1309 -0.0067
   73bbb     H3 1820  10.892   3.500   9.613 -2.9742 -1.0580 -1.0360
   73bbb     H4 1821  11.042   3.537   9.517 -1.2798  1.6623 -1.3456
   73bbb     N1 1822  11.080   3.295   9.575 -0.3616  0.2934 -0.2450
   73bbb     C3 1823  11.152   3.180   9.513  0.0006 -0.0358 -0.6213
   73bbb     H5 1824  11.077   3.104   9.487 -1.9750  2.4108 -2.6267
   73bbb     H6 1825  11.218   3.135   9.588 -0.9345  1.7935  1.4127
   73bbb     C4 1826  11.034   3.270   9.710  0.4518 -0.2794 -0.4907
   73bbb     H7 1827  10.969   3.351   9.745 -0.5010 -0.9705 -0.6298
   73bbb     H8 1828  10.969   3.183   9.719 -1.5198  1.2371  0.9448
   73bbb     C5 1829  11.154   3.271   9.808  0.2986  0.0352  0.1630
   73bbb     H9 1830  11.224   3.189   9.790  0.5936  0.4203 -0.4656
   73bbb    H10 1831  11.204   3.369   9.808 -1.6612  1.1347 -1.7415
   73bbb     C6 1832  11.242   3.222   9.399  0.1794 -0.1307  0.7300
   73bbb    H11 1833  11.178   3.259   9.318  1.9519  1.3337 -0.0532
   73bbb    H12 1834  11.300   3.305   9.441  0.9541 -0.0894 -0.3754
   73bbb     C7 1835  11.086   3.243   9.941 -0.8413 -0.0433 -0.7954
   73bbb     C8 1836  11.326   3.106   9.351 -0.0584 -0.0165 -0.2327
   73bbb     O1 1837  11.066   3.126   9.971  0.1973 -0.1447  0.0093
   73bbb     O2 1838  11.277   2.996   9.331 -0.7536  0.1089  0.1630
   73bbb     N4 1839  10.860   3.544   9.404 -0.3163 -0.1176  0.3820
   73bbb    H21 1840  10.905   3.602   9.334 -0.1180  0.7430  1.1998
   74bbb     C1 1841  10.030   4.012   6.092  0.2660 -0.1778 -0.3180
   74bbb     H1 1842  10.037   3.903   6.082 -2.2290 -0.4925  0.5761
   74bbb     H2 1843  10.117   4.045   6.150  1.6554 -2.9549 -0.6714
   74bbb     C2 1844   9.892   4.030   6.167 -1.1224 -0.2464 -0.2368
   74bbb     H3 1845   9.877   4.138   6.181  0.6205 -0.1287  1.1180
   74bbb     H4 1846   9.809   3.988   6.110 -0.2416 -1.5401 -0.6096
   74bbb     N1 1847  10.022   4.078   5.967 -0.2340  0.7440  1.0090
   74bbb     C3 1848  10.160   4.104   5.919  0.2330 -0.0805 -0.1794
   74bbb     H5 1849  10.171   4.090   5.811 -0.5150 -1.2692 -0.1164
   74bbb     H6 1850  10.222   4.024   5.960 -1.4053 -0.0315  2.7294
   74bbb     C4 1851   9.935   4.010   5.866 -0.5958  0.0613 -0.0458
   74bbb     H7 1852  10.004   3.939   5.818 -0.6052 -1.0846  1.5333
   74bbb     H8 1853   9.853   3.949   5.908 -0.2642 -0.1830  0.2585
   74bbb     C5 1854   9.880   4.123   5.768  0.2072  0.0314 -0.9245
   74bbb     H9 1855   9.800   4.173   5.824  1.5934  2.0291 -0.5964
   74bbb    H10 1856   9.951   4.204   5.745  2.4354 -1.3030  0.8980
   74bbb     C6 1857  10.209   4.237   5.976  0.2966 -0.2127 -0.2652
   74bbb    H11 1858  10.200   4.234   6.085 -1.1507  0.2871 -0.3405
   74bbb    H12 1859  10.312   4.261   5.949  0.2865  0.3968  0.2146
   74bbb     C7 1860   9.807   4.073   5.653  0.1144  0.5162  0.0168
   74bbb     C8 1861  10.131   4.349   5.910 -0.3057 -0.1834 -0.2634
   74bbb     O1 1862   9.739   3.966   5.667 -0.5402 -0.2103  0.1351
   74bbb     O2 1863  10.152   4.378   5.800  0.5345  0.1382  0.1899
   74bbb     N4 1864   9.906   3.974   6.307  0.1640 -0.2975 -0.2918
   74bbb    H21 1865   9.936   4.020   6.392 -1.4835 -0.7219  0.5630
   75bbb     C1 1866  10.706   3.562   6.318  0.1210 -0.1590  0.5052
   75bbb     H1 1867  10.795   3.591   6.375  1.7526  0.0553 -2.0125
   75bbb     H2 1868  10.659   3.652   6.277  2.2442  0.6916 -0.1808
   75bbb     C2 1869  10.621   3.509   6.432 -0.5640 -0.6766 -0.4884
   75bbb     H3 1870  10.660   3.409   6.456  1.6570  0.3876  0.6289
   75bbb     H4 1871  10.637   3.572   6.521  1.2677  0.5642 -1.6427
   75bbb     N1 1872  10.752   3.473   6.211  0.2258  0.1854  0.1022
   75bbb     C3 1873  10.630   3.428   6.137  0.3868 -0.4901  0.4289
   75bbb     H5 1874  10.655   3.421   6.031 -1.3212  1.2053 -0.1457
   75bbb     H6 1875  10.544   3.495   6.148  0.5135 -0.3460  0.5397
   75bbb     C4 1876  10.842   3.532   6.116  0.2223  0.2143 -0.5808
   75bbb     H7 1877  10.854   3.457   6.037 -0.0448 -0.3081 -0.1369
   75bbb     H8 1878  10.803   3.628   6.083 -1.1624  0.0256  0.4231
   75bbb     C5 1879  10.986   3.551   6.163 -0.4988 -0.2173 -0.3924
   75bbb     H9 1880  10.988   3.629   6.240  0.0860  1.7241 -2.2768
   75bbb    H10 1881  11.025   3.455   6.199  0.7146 -0.2941 -1.8201
   75bbb     C6 1882  10.605   3.286   6.178  0.5209  0.1321  0.6608
   75bbb    H11 1883  10.680   3.219   6.136 -1.4558 -2.7504  1.3813
   75bbb    H12 1884  10.612   3.284   6.288  2.5238  2.2904  0.6498
   75bbb     C7 1885  11.063   3.623   6.054  0.0806  0.0913 -1.0351
   75bbb     C8 1886  10.470   3.239   6.128  0.5149  0.8577 -0.6886
   75bbb     O1 1887  11.023   3.728   6.014  0.4137 -0.2015  0.0012
   75bbb     O2 1888  10.369   3.297   6.171  0.1803  0.2704  0.2509
   75bbb     N4 1889  10.472   3.505   6.409 -0.9941  0.3776  0.1836
   75bbb    H21 1890  10.424   3.433   6.356 -2.7455  2.2373 -0.8949
   76bbb     C1 1891   9.095   2.517   6.821  0.8143  0.0796 -0.2247
   76bbb     H1 1892   9.137   2.589   6.750 -0.5509  0.2167 -0.9337
   76bbb     H2 1893   8.987   2.527   6.837  0.6627 -0.9379 -0.5198
   76bbb     C2 1894   9.175   2.526   6.952  0.6056 -0.1187 -0.0560
   76bbb     H3 1895   9.130   2.449   7.016 -2.0347  1.7517  0.4757
   76bbb     H4 1896   9.281   2.502   6.935  0.3355 -1.4503 -0.0007
   76bbb     N1 1897   9.120   2.391   6.754  0.0237  0.3707  0.1760
   76bbb     C3 1898   9.133   2.399   6.609 -0.5750  0.3967  0.1363
   76bbb     H5 1899   9.064   2.473   6.566 -1.2632  1.1322  2.3316
   76bbb     H6 1900   9.097   2.310   6.557  0.4532  1.9615 -3.5957
   76bbb     C4 1901   9.019   2.296   6.800  0.4396  0.5783  0.1922
   76bbb     H7 1902   8.974   2.320   6.897  0.8007 -2.8225  1.3495
   76bbb     H8 1903   8.940   2.288   6.724 -0.4507 -0.3318  1.1849
   76bbb     C5 1904   9.076   2.159   6.824  0.5686  0.1342 -0.1529
   76bbb     H9 1905   8.999   2.097   6.872 -1.0491  1.8696 -0.3523
   76bbb    H10 1906   9.105   2.120   6.725  3.4166  1.4643  0.0636
   76bbb     C6 1907   9.274   2.439   6.568  0.4942  0.1837  0.1824
   76bbb    H11 1908   9.290   2.537   6.613  0.1140 -0.5679  2.0235
   76bbb    H12 1909   9.354   2.380   6.615  1.8107  2.3547  0.8124
   76bbb     C7 1910   9.201   2.166   6.915 -0.3509  0.2267  0.0386
   76bbb     C8 1911   9.281   2.449   6.418 -0.1828 -0.1591  0.0786
   76bbb     O1 1912   9.184   2.186   7.029  0.5419 -0.4567  0.3951
   76bbb     O2 1913   9.191   2.480   6.344  0.2789  0.9186  0.2588
   76bbb     N4 1914   9.177   2.666   7.007  0.5168 -0.5093 -0.4324
   76bbb    H21 1915   9.267   2.707   7.026  0.6223 -0.8020 -0.2946
   77bbb     C1 1916   8.404   3.395   7.210 -0.1108  0.1299  0.7578
   77bbb     H1 1917   8.428   3.347   7.114  0.0214  2.9031 -0.7187
   77bbb     H2 1918   8.347   3.482   7.175  0.8552  0.5895  0.2794
   77bbb     C2 1919   8.528   3.446   7.283 -0.3551  0.1834 -0.2932
   77bbb     H3 1920   8.571   3.536   7.237 -0.2840  0.9593  1.2239
   77bbb     H4 1921   8.494   3.482   7.380  0.3162  2.5814 -0.8785
   77bbb     N1 1922   8.323   3.317   7.294  0.7606 -0.0929 -0.4168
   77bbb     C3 1923   8.264   3.203   7.214  0.8203 -0.2229  0.1684
   77bbb     H5 1924   8.239   3.230   7.111  1.5559  0.6362  0.2054
   77bbb     H6 1925   8.178   3.158   7.265 -0.7439  2.1456 -0.2516
   77bbb     C4 1926   8.221   3.406   7.350  0.5934  0.4009 -0.7578
   77bbb     H7 1927   8.261   3.495   7.400 -1.0286  0.2187  0.9273
   77bbb     H8 1928   8.161   3.445   7.267  2.0075  2.2733 -0.9662
   77bbb     C5 1929   8.122   3.335   7.454 -0.6134  0.2305  0.5064
   77bbb     H9 1930   8.070   3.248   7.413 -1.7552  1.9452 -1.9555
   77bbb    H10 1931   8.179   3.300   7.540  1.1308  1.7574  0.0381
   77bbb     C6 1932   8.381   3.099   7.203  0.4352 -0.2265  0.7831
   77bbb    H11 1933   8.476   3.151   7.187 -0.5912  1.6095  0.2453
   77bbb    H12 1934   8.389   3.052   7.301 -0.8423 -0.9979  0.5454
   77bbb     C7 1935   8.012   3.422   7.507 -0.1533  0.0454 -0.5457
   77bbb     C8 1936   8.370   3.000   7.085  0.0856  0.4508  0.1371
   77bbb     O1 1937   7.935   3.475   7.430  0.4653 -0.7425 -0.8849
   77bbb     O2 1938   8.355   3.019   6.970 -0.0910 -0.3098  0.4148
   77bbb     N4 1939   8.635   3.342   7.306  0.2050 -0.5570  0.2195
   77bbb    H21 1940   8.655   3.312   7.401 -1.6023 -1.0211  0.4857
   78bbb     C1 1941  10.070   0.940   9.742 -0.3118  0.0083 -0.5823
   78bbb     H1 1942  10.037   0.890   9.833  0.9074  0.4772  0.1419
   78bbb     H2 1943  10.178   0.958   9.749 -0.1047 -1.0437 -0.9413
   78bbb     C2 1944  10.010   1.090   9.724  0.1483 -0.4772 -0.0126
   78bbb     H3 1945  10.067   1.155   9.656 -1.3119  2.8408  1.6909
   78bbb     H4 1946   9.914   1.077   9.674  1.3616 -1.9209 -2.1163
   78bbb     N1 1947  10.031   0.863   9.627 -1.0165  0.4784  0.0906
   78bbb     C3 1948  10.023   0.722   9.647  0.0879 -0.1434 -0.4022
   78bbb     H5 1949  10.116   0.686   9.693 -0.1783 -0.8558 -0.4007
   78bbb     H6 1950   9.997   0.667   9.556  0.0283 -0.6629 -0.0796
   78bbb     C4 1951  10.107   0.904   9.511  0.0236 -0.0211  0.0670
   78bbb     H7 1952  10.056   0.861   9.425 -1.3019 -0.2668  0.9390
   78bbb     H8 1953  10.103   1.012   9.496 -1.8231 -0.3130 -1.8643
   78bbb     C5 1954  10.254   0.859   9.510 -0.5281 -0.8000 -0.8382
   78bbb     H9 1955  10.315   0.896   9.593  0.4864 -0.3475 -1.7627
   78bbb    H10 1956  10.261   0.749   9.515  1.2512 -0.7108 -0.6142
   78bbb     C6 1957   9.897   0.692   9.732 -0.2825  0.1438 -0.8412
   78bbb    H11 1958   9.917   0.713   9.838 -0.5228 -1.5130 -0.4372
   78bbb    H12 1959   9.807   0.746   9.700 -0.7906  0.5069  1.0426
   78bbb     C7 1960  10.328   0.903   9.394 -0.0308 -0.2662  0.2369
   78bbb     C8 1961   9.870   0.546   9.724 -0.5406 -0.4486 -0.4360
   78bbb     O1 1962  10.349   1.020   9.375  0.1748 -0.5097 -0.5679
   78bbb     O2 1963   9.797   0.491   9.643 -0.0053 -0.1444 -0.5225
   78bbb     N4 1964   9.997   1.164   9.854 -0.1286  0.4645  0.3575
   78bbb    H21 1965   9.930   1.138   9.925  0.9978 -2.5650  0.4715
   79bbb     C1 1966   9.366   1.887  10.228 -0.0839  0.2481 -0.5111
   79bbb     H1 1967   9.432   1.972  10.206  1.6747 -1.3046 -1.5251
   79bbb     H2 1968   9.416   1.839  10.313 -1.0718 -0.5967 -0.3742
   79bbb     C2 1969   9.379   1.793  10.109 -0.2201  0.2110 -0.6848
   79bbb     H3 1970   9.287   1.737  10.089  0.0310 -1.0743  1.3781
   79bbb     H4 1971   9.394   1.859  10.023  2.1144 -0.2160 -0.6766
   79bbb     N1 1972   9.224   1.929  10.255  0.2000 -0.3507  0.7164
   79bbb     C3 1973   9.217   2.061  10.320  0.0049  0.2156  0.0329
   79bbb     H5 1974   9.270   2.074  10.415  2.6895  2.1380 -1.5987
   79bbb     H6 1975   9.112   2.086  10.340  0.5076  2.6184 -0.1080
   79bbb     C4 1976   9.158   1.821  10.334 -0.5844 -0.2892  0.2804
   79bbb     H7 1977   9.201   1.725  10.305 -0.5705 -0.3000  0.3376
   79bbb     H8 1978   9.182   1.843  10.439  1.9555  0.2547 -0.3375
   79bbb     C5 1979   9.014   1.820  10.315 -0.2447  0.1354  0.3351
   79bbb     H9 1980   8.962   1.898  10.372  0.0066  1.9156 -1.7211
   79bbb    H10 1981   9.004   1.819  10.205  1.4805  1.6193  0.1118
   79bbb     C6 1982   9.264   2.167  10.219  0.7865 -0.0532 -0.3899
   79bbb    H11 1983   9.372   2.173  10.198  0.9397 -1.1042  0.0018
   79bbb    H12 1984   9.219   2.162  10.120  1.1181 -5.0133 -0.5739
   79bbb     C7 1985   8.967   1.692  10.370  0.5004 -0.5695  0.1849
   79bbb     C8 1986   9.226   2.293  10.287  0.7173  0.6768 -0.0901
   79bbb     O1 1987   9.018   1.648  10.473  0.2405 -0.4562  0.3837
   79bbb     O2 1988   9.293   2.339  10.374 -0.7771  0.2591  0.0666
   79bbb     N4 1989   9.499   1.706  10.112 -0.6222  0.6616  0.4319
   79bbb    H21 1990   9.488   1.606  10.121  3.5913  0.1647  2.1215
   80bbb     C1 1991   8.948   1.371  10.858  0.0541  0.9444  0.4200
   80bbb     H1 1992   8.895   1.275  10.870  0.6550  0.8214  2.5595
   80bbb     H2 1993   8.872   1.431  10.806 -0.8973 -0.3328  0.2903
   80bbb     C2 1994   9.057   1.342  10.755 -0.0173  0.2348 -0.0455
   80bbb     H3 1995   9.119   1.257  10.786  0.1780 -0.4837 -2.1948
   80bbb     H4 1996   9.010   1.306  10.662 -0.1896 -1.1470  0.5393
   80bbb     N1 1997   8.985   1.434  10.979  0.2452 -0.3213  0.3273
   80bbb     C3 1998   9.096   1.376  11.051  0.7557 -0.2704 -0.0246
   80bbb     H5 1999   9.179   1.353  10.984  1.4604  2.2030 -0.1040
   80bbb     H6 2000   9.056   1.288  11.103  0.7761  0.2015  0.8180
   80bbb     C4 2001   8.858   1.457  11.053 -0.2163  0.5985 -0.3434
   80bbb     H7 2002   8.866   1.516  11.145 -0.7501 -0.0332  0.1143
   80bbb     H8 2003   8.785   1.520  11.000 -2.5310 -1.0771  0.6887
   80bbb     C5 2004   8.779   1.337  11.086 -0.7624  0.9110 -0.5217
   80bbb     H9 2005   8.736   1.274  11.008 -1.3754  0.3918  0.2214
   80bbb    H10 2006   8.840   1.260  11.135  0.4263  1.5481 -0.9468
   80bbb     C6 2007   9.141   1.474  11.150 -0.1399 -0.3114 -0.0667
   80bbb    H11 2008   9.188   1.555  11.093 -1.6025  0.0328 -0.8187
   80bbb    H12 2009   9.062   1.516  11.213  1.7849 -0.6156  2.7428
   80bbb     C7 2010   8.667   1.369  11.180 -0.1681 -0.5386  0.6775
   80bbb     C8 2011   9.251   1.422  11.236 -0.1646 -0.2597  0.0487
   80bbb     O1 2012   8.674   1.348  11.296  0.5046  0.0576 -0.2841
   80bbb     O2 2013   9.321   1.325  11.207 -0.0136 -0.1930  0.0159
   80bbb     N4 2014   9.131   1.464  10.721 -0.4653 -0.1329  0.3745
   80bbb    H21 2015   9.078   1.549  10.709 -0.1333  0.2064  1.1754
   81bbb     C1 2016   9.992   2.048  10.843  0.0508 -0.4517  0.6413
   81bbb     H1 2017  10.004   2.030  10.735 -0.3541  0.9038  0.3457
   81bbb     H2 2018  10.090   2.079  10.882 -0.3423  1.8890 -0.0551
   81bbb     C2 2019   9.955   1.920  10.921 -0.4520  0.1164  0.4136
   81bbb     H3 2020  10.032   1.842  10.914 -1.4626 -0.7449 -2.6431
   81bbb     H4 2021   9.938   1.940  11.027  1.0827 -1.3316  0.9727
   81bbb     N1 2022   9.892   2.148  10.867 -0.4177 -0.0875 -0.2453
   81bbb     C3 2023   9.860   2.190  11.009 -0.2003  0.2410  0.7023
   81bbb     H5 2024   9.830   2.104  11.071  0.9200  0.6861  1.9082
   81bbb     H6 2025   9.777   2.261  11.002 -0.8684 -0.6735 -2.9485
   81bbb     C4 2026   9.912   2.275  10.798 -0.1708  0.2220 -0.3667
   81bbb     H7 2027   9.838   2.345  10.840 -1.1942 -1.2843  0.4425
   81bbb     H8 2028  10.007   2.324  10.825  0.2187 -0.5430 -0.3144
   81bbb     C5 2029   9.903   2.248  10.648  0.2323  0.2522  0.2839
   81bbb     H9 2030   9.989   2.197  10.604 -1.3278 -3.9191  1.5693
   81bbb    H10 2031   9.813   2.189  10.629 -0.4767  1.4308 -0.1035
   81bbb     C6 2032   9.968   2.256  11.093  0.2608 -1.0795  0.2070
   81bbb    H11 2033  10.058   2.195  11.080 -0.4413 -2.0524 -0.2385
   81bbb    H12 2034   9.990   2.348  11.038 -0.9044 -1.0064 -0.1622
   81bbb     C7 2035   9.883   2.380  10.572  0.6002  0.0383 -0.1762
   81bbb     C8 2036   9.915   2.282  11.231 -0.0323 -0.5117  0.0926
   81bbb     O1 2037   9.945   2.480  10.600 -0.0132 -0.2917 -0.2975
   81bbb     O2 2038   9.838   2.379  11.256  0.3233 -0.0921 -0.1864
   81bbb     N4 2039   9.830   1.849  10.876  0.3314 -0.0869 -0.3243
   81bbb    H21 2040   9.811   1.827  10.779  0.4811  0.1145 -0.3988
   82bbb     C1 2041  11.397   2.189  10.258 -0.8718  0.3454  0.7537
   82bbb     H1 2042  11.289   2.181  10.243 -0.6547  0.2180 -0.9216
   82bbb     H2 2043  11.439   2.233  10.167  0.8031 -1.0551  0.8025
   82bbb     C2 2044  11.463   2.055  10.260  0.2383 -0.1307  0.0712
   82bbb     H3 2045  11.413   1.997  10.181  1.4513 -1.9343  0.5543
   82bbb     H4 2046  11.572   2.060  10.249  0.5269  0.6105  2.5899
   82bbb     N1 2047  11.430   2.266  10.386 -0.1505  0.2780  0.3744
   82bbb     C3 2048  11.318   2.288  10.472  0.9161  0.6935  0.1394
   82bbb     H5 2049  11.251   2.201  10.471 -1.6394  2.4248 -3.4309
   82bbb     H6 2050  11.250   2.367  10.436 -2.1334 -2.5188 -1.7996
   82bbb     C4 2051  11.525   2.379  10.372 -0.1964  0.1063 -0.1365
   82bbb     H7 2052  11.489   2.453  10.300 -0.2846  0.8045  0.6136
   82bbb     H8 2053  11.551   2.425  10.468  3.0405 -1.6308 -0.0179
   82bbb     C5 2054  11.661   2.327  10.321  0.8314 -0.7133  0.4530
   82bbb     H9 2055  11.697   2.251  10.392 -1.3569 -0.8289  1.5061
   82bbb    H10 2056  11.641   2.291  10.220  2.0879  1.8086 -0.7752
   82bbb     C6 2057  11.360   2.328  10.614 -0.0162  0.7875 -0.0827
   82bbb    H11 2058  11.425   2.416  10.625  0.8256  0.5717 -2.7474
   82bbb    H12 2059  11.269   2.368  10.662  0.9344  0.5796  2.0361
   82bbb     C7 2060  11.760   2.444  10.313 -0.6021  0.1769 -0.4957
   82bbb     C8 2061  11.398   2.216  10.710  0.5072  0.1298 -0.3726
   82bbb     O1 2062  11.740   2.549  10.251  0.5771  0.1759 -1.2033
   82bbb     O2 2063  11.318   2.123  10.734 -0.6808  0.3110  0.1338
   82bbb     N4 2064  11.443   1.991  10.396  0.4299  0.0526 -0.5096
   82bbb    H21 2065  11.376   2.041  10.453  2.9964  1.3432  1.6189
   83bbb     C1 2066  11.594   1.674  11.417 -0.2691 -0.7890 -0.4316
   83bbb     H1 2067  11.511   1.713  11.476 -0.1706 -0.6231 -0.4040
   83bbb     H2 2068  11.632   1.765  11.370 -1.7606  1.0202  1.6901
   83bbb     C2 2069  11.557   1.569  11.313 -0.5524 -0.2773  0.0082
   83bbb     H3 2070  11.654   1.534  11.273  1.1623  0.8370  2.8901
   83bbb     H4 2071  11.501   1.492  11.367  0.4604 -0.3140  1.0483
   83bbb     N1 2072  11.701   1.638  11.513  0.1034  0.1212  0.4335
   83bbb     C3 2073  11.724   1.749  11.610 -0.6359  0.2589 -0.0736
   83bbb     H5 2074  11.757   1.703  11.704 -2.2129  1.0211  0.8920
   83bbb     H6 2075  11.633   1.803  11.639 -0.1264  0.5370  1.0875
   83bbb     C4 2076  11.667   1.517  11.586 -0.5918 -0.1492  0.4348
   83bbb     H7 2077  11.595   1.540  11.665 -1.1664  1.7316 -0.5785
   83bbb     H8 2078  11.624   1.434  11.528 -0.7136 -0.8722  1.5461
   83bbb     C5 2079  11.797   1.454  11.637  0.6891  0.2724 -0.2929
   83bbb     H9 2080  11.863   1.440  11.550  0.6187  1.4201 -0.5478
   83bbb    H10 2081  11.856   1.516  11.705  1.6937  1.1182 -1.8689
   83bbb     C6 2082  11.829   1.849  11.561  0.1938  0.6122  0.5922
   83bbb    H11 2083  11.920   1.794  11.533  0.2587  0.1651  1.6280
   83bbb    H12 2084  11.797   1.904  11.472  1.3127  0.8447  0.3258
   83bbb     C7 2085  11.768   1.323  11.709  0.1164  0.3348  0.6731
   83bbb     C8 2086  11.862   1.950  11.666  0.4104  0.5667 -0.1004
   83bbb     O1 2087  11.656   1.276  11.730 -0.5258 -0.6539  0.0307
   83bbb     O2 2088  11.776   2.018  11.721  0.4448 -0.1084  0.0036
   83bbb     N4 2089  11.472   1.630  11.211 -0.9045  0.2698 -0.1388
   83bbb    H21 2090  11.372   1.636  11.220 -1.1373 -1.1945 -1.4150
   84bbb     C1 2091  10.220   1.954   9.142  0.0647  0.0828 -0.1086
   84bbb     H1 2092  10.229   1.846   9.160  1.5727  0.7718  4.6526
   84bbb     H2 2093  10.206   1.973   9.035  1.9908  0.7435 -0.2816
   84bbb     C2 2094  10.359   2.012   9.185  0.3030  0.3548 -0.1357
   84bbb     H3 2095  10.443   1.948   9.156 -1.4754 -1.7325 -0.9244
   84bbb     H4 2096  10.379   2.111   9.143 -0.2528  0.6058  0.1718
   84bbb     N1 2097  10.108   2.010   9.221 -0.3135  0.3741  0.1087
   84bbb     C3 2098   9.985   1.927   9.199  0.3656  0.4307 -0.3467
   84bbb     H5 2099   9.974   1.900   9.094 -0.4478 -1.7021  0.2405
   84bbb     H6 2100   9.892   1.986   9.207 -0.7204 -0.8401 -2.6762
   84bbb     C4 2101  10.085   2.160   9.197 -0.3683  0.4381  0.0271
   84bbb     H7 2102  10.183   2.208   9.186  0.1540 -0.8077 -1.0718
   84bbb     H8 2103  10.042   2.159   9.097  1.0391  0.4741 -0.6073
   84bbb     C5 2104   9.988   2.221   9.294  0.4444 -0.0895  0.0235
   84bbb     H9 2105   9.968   2.325   9.266  0.2523  0.1215  0.9046
   84bbb    H10 2106   9.891   2.169   9.293  0.0908  0.5482 -1.5297
   84bbb     C6 2107   9.974   1.813   9.289 -0.0255  0.3993 -0.4144
   84bbb    H11 2108  10.061   1.748   9.270 -0.5268 -0.5418  0.4215
   84bbb    H12 2109   9.964   1.837   9.395  0.8793  0.5145 -0.3447
   84bbb     C7 2110  10.038   2.231   9.438 -0.0408 -0.1095  0.2975
   84bbb     C8 2111   9.857   1.725   9.250  0.2488 -0.6389  0.5202
   84bbb     O1 2112  10.154   2.229   9.474 -0.5346 -0.0195  0.3803
   84bbb     O2 2113   9.756   1.707   9.326  0.3912  0.8076  0.0876
   84bbb     N4 2114  10.377   2.029   9.336 -0.6073 -0.6277  0.5053
   84bbb    H21 2115  10.309   2.090   9.380 -2.4858 -0.9402 -1.7727
   85bbb     C1 2116   9.724   1.811   9.681  0.5114  0.2966  0.2963
   85bbb     H1 2117   9.701   1.713   9.726  1.5654 -0.6586 -1.1801
   85bbb     H2 2118   9.766   1.781   9.585  1.0404 -1.7753  1.1097
   85bbb     C2 2119   9.826   1.889   9.760  0.2404 -0.0119 -0.1090
   85bbb     H3 2120   9.869   1.969   9.698  0.7694 -0.1201  0.1199
   85bbb     H4 2121   9.772   1.935   9.844  1.1008  0.2902  0.2854
   85bbb     N1 2122   9.604   1.870   9.651  0.4078 -1.0330 -0.5019
   85bbb     C3 2123   9.505   1.780   9.591  0.4717 -1.0819  0.5286
   85bbb     H5 2124   9.537   1.722   9.503  0.2786 -1.3090  0.6075
   85bbb     H6 2125   9.414   1.830   9.555 -0.5521 -1.5838  2.2747
   85bbb     C4 2126   9.626   1.985   9.562  0.0030  0.1287 -0.1033
   85bbb     H7 2127   9.706   2.048   9.604 -0.0221 -0.5049  0.9472
   85bbb     H8 2128   9.647   1.938   9.466 -0.6166 -2.1449  0.8106
   85bbb     C5 2129   9.512   2.084   9.565  0.1144 -0.6599  0.3038
   85bbb     H9 2130   9.416   2.042   9.534 -2.0928  3.0641  1.4380
   85bbb    H10 2131   9.494   2.123   9.666  0.3424 -1.8101  0.8014
   85bbb     C6 2132   9.449   1.692   9.705  0.3637 -1.0094  0.0801
   85bbb    H11 2133   9.533   1.628   9.734 -0.4819 -1.7794  0.9133
   85bbb    H12 2134   9.430   1.742   9.800  1.1811  1.1078 -0.8177
   85bbb     C7 2135   9.549   2.203   9.477 -0.6265  1.0763 -0.3454
   85bbb     C8 2136   9.334   1.617   9.655  0.3068  0.2141 -0.7346
   85bbb     O1 2137   9.663   2.246   9.478  0.0338  0.4232 -0.5789
   85bbb     O2 2138   9.223   1.670   9.644 -0.4038 -0.6390 -0.0293
   85bbb     N4 2139   9.944   1.809   9.798  0.1690  0.5522 -0.6066
   85bbb    H21 2140   9.957   1.713   9.769  1.7930  0.6209 -0.1902
   86bbb     C1 2141   9.992   3.916   8.835 -0.0255 -0.0270 -0.2581
   86bbb     H1 2142   9.911   3.846   8.859 -0.9951  0.7173 -1.2360
   86bbb     H2 2143  10.010   3.919   8.727  2.3322  0.9985  0.1054
   86bbb     C2 2144  10.113   3.882   8.921 -0.4941  0.6163 -0.5732
   86bbb     H3 2145  10.176   3.810   8.869  0.3286 -0.4521  1.7464
   86bbb     H4 2146  10.168   3.977   8.931 -1.3792  1.2398 -1.4067
   86bbb     N1 2147   9.927   4.047   8.874 -0.3357  0.9655 -0.0609
   86bbb     C3 2148   9.836   4.039   8.988  0.6802 -0.4331  0.4512
   86bbb     H5 2149   9.880   4.068   9.084  1.0694  0.9107 -0.1128
   86bbb     H6 2150   9.804   3.935   9.007  0.0002 -0.3076  0.0197
   86bbb     C4 2151  10.007   4.170   8.867  0.2479 -0.9745 -0.3888
   86bbb     H7 2152   9.940   4.250   8.901  1.6856  0.5690 -1.0600
   86bbb     H8 2153  10.092   4.173   8.936 -1.1730 -1.7048  1.4828
   86bbb     C5 2154  10.043   4.188   8.726  0.0420  0.7966 -0.1145
   86bbb     H9 2155  10.108   4.108   8.688  0.0773  0.7380  0.0713
   86bbb    H10 2156   9.952   4.190   8.665  0.3397 -1.2582 -0.7268
   86bbb     C6 2157   9.709   4.114   8.947  0.0252 -0.7035 -0.1284
   86bbb    H11 2158   9.716   4.218   8.912  0.7116 -1.1049 -1.2274
   86bbb    H12 2159   9.661   4.056   8.867  1.3049 -0.3239 -1.2214
   86bbb     C7 2160  10.117   4.316   8.711 -0.0670  0.1998 -0.2212
   86bbb     C8 2161   9.617   4.098   9.074  0.1316  0.0748  1.0424
   86bbb     O1 2162  10.084   4.415   8.766 -0.0620 -0.0201 -0.1166
   86bbb     O2 2163   9.548   3.999   9.084 -0.0291  0.1056 -0.0043
   86bbb     N4 2164  10.085   3.816   9.049 -0.2067  0.5788  0.1015
   86bbb    H21 2165  10.106   3.863   9.136  0.3636  1.7968 -0.6724
   87bbb     C1 2166  10.002   3.785  10.041 -0.1466 -0.6922  0.1218
   87bbb     H1 2167   9.896   3.760  10.026 -0.2014 -0.9574  0.9064
   87bbb     H2 2168  10.001   3.867  10.114 -0.9651 -0.6995  0.1333
   87bbb     C2 2169  10.046   3.828   9.895 -0.1379 -0.1236 -1.0724
   87bbb     H3 2170   9.968   3.887   9.844 -0.6426 -0.0610 -0.2436
   87bbb     H4 2171  10.128   3.901   9.904  1.1447 -1.6671  0.4565
   87bbb     N1 2172  10.090   3.684  10.099  0.1124  0.6701  0.2649
   87bbb     C3 2173  10.015   3.607  10.202 -0.2815  0.9196 -0.5512
   87bbb     H5 2174   9.967   3.673  10.274  2.1238  1.5870  0.5215
   87bbb     H6 2175  10.085   3.548  10.262 -0.7460 -0.3880 -1.2421
   87bbb     C4 2176  10.214   3.743  10.155  0.4199  0.1933  0.7976
   87bbb     H7 2177  10.238   3.834  10.098  2.3097  0.1232  1.4245
   87bbb     H8 2178  10.195   3.788  10.253 -1.2121  0.9779  0.1548
   87bbb     C5 2179  10.336   3.651  10.154 -0.0293  0.2285 -0.4888
   87bbb     H9 2180  10.309   3.553  10.195  1.1295  0.0624 -0.0920
   87bbb    H10 2181  10.360   3.640  10.047  0.1414 -2.3622 -0.2357
   87bbb     C6 2182   9.920   3.502  10.138 -0.2216 -0.4150  0.0380
   87bbb    H11 2183   9.832   3.559  10.106 -0.0765 -0.5849 -0.6689
   87bbb    H12 2184   9.971   3.453  10.054  1.4413 -0.9254  1.2955
   87bbb     C7 2185  10.453   3.721  10.216  0.6298 -0.3658 -0.2166
   87bbb     C8 2186   9.879   3.400  10.245  0.0779 -0.1863 -0.4949
   87bbb     O1 2187  10.536   3.777  10.147 -0.2999 -0.1880  0.5863
   87bbb     O2 2188   9.902   3.280  10.234 -0.0078 -0.3972  0.2555
   87bbb     N4 2189  10.076   3.717   9.802  0.0985  0.1162  0.0424
   87bbb    H21 2190  10.014   3.636   9.797  0.8941 -0.5184  0.2105
   88bbb     C1 2191  11.286   2.740   9.547 -0.2323  0.1876 -0.2816
   88bbb     H1 2192  11.183   2.774   9.530 -1.7111 -3.0293  1.4004
   88bbb     H2 2193  11.363   2.780   9.480  0.2082 -1.5832 -0.8855
   88bbb     C2 2194  11.290   2.588   9.528 -0.1552  0.1930 -0.1644
   88bbb     H3 2195  11.391   2.550   9.546 -1.1341 -1.9851  1.2724
   88bbb     H4 2196  11.225   2.532   9.597 -1.9950 -1.2774 -2.9276
   88bbb     N1 2197  11.327   2.784   9.683 -0.2842 -0.5871 -0.7090
   88bbb     C3 2198  11.448   2.861   9.702  0.5942  0.3621  0.1312
   88bbb     H5 2199  11.458   2.923   9.792 -2.3389  1.7925 -0.4053
   88bbb     H6 2200  11.449   2.924   9.612 -1.7712 -0.5325 -0.5986
   88bbb     C4 2201  11.211   2.835   9.764 -0.5948  0.5861  0.1054
   88bbb     H7 2202  11.204   2.944   9.758  1.2808  0.6784 -1.1493
   88bbb     H8 2203  11.117   2.794   9.725 -0.0406 -0.4710 -0.1507
   88bbb     C5 2204  11.231   2.776   9.906  0.2827  0.8077  0.5692
   88bbb     H9 2205  11.274   2.675   9.900  2.1424  1.5884 -0.1075
   88bbb    H10 2206  11.310   2.839   9.949 -1.1259  1.4085  2.3927
   88bbb     C6 2207  11.561   2.757   9.711  0.8486  0.0327  0.6421
   88bbb    H11 2208  11.555   2.706   9.808 -0.3192 -0.0853  0.5157
   88bbb    H12 2209  11.541   2.687   9.630 -0.4620 -0.5777  1.4624
   88bbb     C7 2210  11.106   2.775   9.989  0.2112  0.3058 -0.6091
   88bbb     C8 2211  11.698   2.815   9.695 -0.0075 -0.4691 -0.2742
   88bbb     O1 2212  10.997   2.768   9.942  0.3604 -0.4336  0.3232
   88bbb     O2 2213  11.723   2.896   9.604  0.2322 -0.2833 -0.0471
   88bbb     N4 2214  11.246   2.541   9.387  0.4980 -0.3003 -0.3053
   88bbb    H21 2215  11.244   2.612   9.316 -0.7587 -0.0875 -0.0685
   89bbb     C1 2216  11.913   2.452   9.146 -0.6743 -0.0452 -0.2450
   89bbb     H1 2217  12.011   2.470   9.100 -1.0923  1.6588 -0.5408
   89bbb     H2 2218  11.835   2.459   9.070  1.0205  1.1801 -1.9785
   89bbb     C2 2219  11.906   2.560   9.254 -0.8165 -0.6822  0.1287
   89bbb     H3 2220  11.961   2.526   9.343 -0.0346  0.6002  0.1587
   89bbb     H4 2221  11.960   2.646   9.213 -0.5579 -0.7433  0.3373
   89bbb     N1 2222  11.904   2.321   9.218 -0.1668 -0.0076  0.7445
   89bbb     C3 2223  12.030   2.273   9.268 -0.2031  0.0731  0.1394
   89bbb     H5 2224  12.108   2.348   9.249  2.7180 -2.7446  0.0780
   89bbb     H6 2225  12.069   2.177   9.234  0.2367 -0.1604  1.2381
   89bbb     C4 2226  11.850   2.212   9.141  0.1777  0.5938 -0.4791
   89bbb     H7 2227  11.911   2.182   9.055 -1.2958  0.3130 -1.4681
   89bbb     H8 2228  11.835   2.121   9.200 -0.3360  1.0507  0.1149
   89bbb     C5 2229  11.708   2.237   9.093  0.2931  0.1358  0.1543
   89bbb     H9 2230  11.651   2.290   9.169  0.9038  2.5335 -0.9772
   89bbb    H10 2231  11.712   2.304   9.006 -0.6538 -0.3201 -0.2621
   89bbb     C6 2232  12.010   2.256   9.419  0.2376  0.0655  0.0912
   89bbb    H11 2233  12.108   2.229   9.462 -0.5578 -0.4372  1.6470
   89bbb    H12 2234  11.983   2.343   9.479 -0.4097 -0.2246  0.2343
   89bbb     C7 2235  11.647   2.103   9.050 -0.8735  0.1286 -0.5399
   89bbb     C8 2236  11.906   2.148   9.457 -0.2885  0.5364 -0.2464
   89bbb     O1 2237  11.569   2.052   9.129  0.4961 -1.1453  0.1856
   89bbb     O2 2238  11.789   2.160   9.457  0.0669  0.5570  0.4060
   89bbb     N4 2239  11.763   2.588   9.287  0.7160  0.0038 -0.3380
   89bbb    H21 2240  11.712   2.512   9.329  1.5068 -0.6851 -0.5909
   90bbb     C1 2241  10.384   1.428  10.107 -0.3620 -0.4653  0.1494
   90bbb     H1 2242  10.333   1.514  10.062  1.5548  1.6526  1.7615
   90bbb     H2 2243  10.308   1.373  10.163  0.9429 -0.6705  1.7883
   90bbb     C2 2244  10.495   1.480  10.204 -0.2515 -0.7013 -0.4365
   90bbb     H3 2245  10.519   1.401  10.276  0.7653 -1.2480 -1.3510
   90bbb     H4 2246  10.586   1.508  10.150 -0.1991 -0.7721 -0.3843
   90bbb     N1 2247  10.446   1.329  10.022  0.1232 -0.0828  0.7683
   90bbb     C3 2248  10.427   1.366   9.883  0.5714 -0.4139 -0.3171
   90bbb     H5 2249  10.350   1.442   9.866  0.6191 -0.5936 -1.4082
   90bbb     H6 2250  10.407   1.276   9.824 -2.8872 -0.1774  0.2879
   90bbb     C4 2251  10.409   1.195  10.046  0.2526  0.3706 -0.1576
   90bbb     H7 2252  10.399   1.176  10.153  1.7169  0.6962  0.0577
   90bbb     H8 2253  10.320   1.169   9.986 -0.2789 -1.2619  1.2470
   90bbb     C5 2254  10.509   1.092  10.000  0.8624  0.2997 -0.2977
   90bbb     H9 2255  10.528   1.114   9.894  0.2484  0.0015 -0.4721
   90bbb    H10 2256  10.602   1.105  10.057  1.3839 -3.7189  0.0468
   90bbb     C6 2257  10.554   1.435   9.843 -0.2136  0.2510 -0.0105
   90bbb    H11 2258  10.572   1.528   9.897 -0.7839 -0.3193  1.2077
   90bbb    H12 2259  10.631   1.363   9.872 -1.0575 -1.1390 -1.0389
   90bbb     C7 2260  10.451   0.956  10.002 -0.3985 -0.8932  0.0917
   90bbb     C8 2261  10.560   1.459   9.700 -0.1931  0.2139  0.5192
   90bbb     O1 2262  10.362   0.919   9.927 -0.5163 -0.0165 -0.1203
   90bbb     O2 2263  10.460   1.471   9.629 -0.6343 -0.0359 -0.2365
   90bbb     N4 2264  10.444   1.607  10.278 -0.3422  0.7099  0.2064
   90bbb    H21 2265  10.344   1.618  10.291 -0.5764  0.7655 -1.4301
   91bbb     C1 2266  10.865   1.711  11.201 -0.2490 -0.5070  0.0587
   91bbb     H1 2267  10.892   1.720  11.307 -1.7098  3.2424  0.2685
   91bbb     H2 2268  10.949   1.754  11.145 -0.5362 -0.1018 -0.0708
   91bbb     C2 2269  10.741   1.792  11.161  0.0705 -0.4371  0.7695
   91bbb     H3 2270  10.657   1.773  11.229 -1.1777 -1.9926 -1.0888
   91bbb     H4 2271  10.775   1.896  11.164 -0.2504 -0.3271  0.6211
   91bbb     N1 2272  10.859   1.571  11.159 -0.3313  0.3778 -0.0402
   91bbb     C3 2273  10.742   1.495  11.214 -0.6195 -0.5201 -0.5636
   91bbb     H5 2274  10.750   1.385  11.211 -0.5519 -0.6893  2.6823
   91bbb     H6 2275  10.656   1.527  11.153 -1.1311 -3.6188 -1.6999
   91bbb     C4 2276  10.986   1.511  11.195 -0.0717  0.1540  0.4432
   91bbb     H7 2277  11.064   1.580  11.162 -0.2066 -0.4819 -1.3180
   91bbb     H8 2278  10.990   1.496  11.303  0.1578 -0.1930  0.3917
   91bbb     C5 2279  11.005   1.378  11.125 -0.2102  0.0436 -0.1299
   91bbb     H9 2280  10.971   1.289  11.180  1.3868  0.0145  0.8770
   91bbb    H10 2281  10.962   1.371  11.024 -0.0660 -2.1013 -0.0922
   91bbb     C6 2282  10.718   1.523  11.365  0.3224 -0.0835 -0.0532
   91bbb    H11 2283  10.803   1.495  11.429  0.7733  1.1627 -0.0683
   91bbb    H12 2284  10.691   1.626  11.391 -0.9552 -0.0510 -1.3922
   91bbb     C7 2285  11.153   1.360  11.118 -0.1619  0.4299  0.1882
   91bbb     C8 2286  10.594   1.444  11.410 -1.0302 -0.2544  0.0961
   91bbb     O1 2287  11.222   1.352  11.218  0.2878 -0.4108  0.1514
   91bbb     O2 2288  10.519   1.386  11.333  0.3649 -0.4008  0.2406
   91bbb     N4 2289  10.694   1.767  11.020 -0.1018 -0.7738 -0.2110
   91bbb    H21 2290  10.670   1.676  10.984 -1.4663 -1.4690  2.2076
   92bbb     C1 2291  11.394   2.917  11.054 -0.0729 -0.0371  0.4293
   92bbb     H1 2292  11.299   2.919  10.999  0.5798  2.0678 -0.7852
   92bbb     H2 2293  11.458   3.002  11.026  0.8197 -0.6263  0.6277
   92bbb     C2 2294  11.471   2.783  11.026  0.2640 -0.4746 -0.1690
   92bbb     H3 2295  11.490   2.780  10.918  1.9194 -3.2864  0.0847
   92bbb     H4 2296  11.567   2.793  11.079  1.2161  2.1262 -2.1412
   92bbb     N1 2297  11.359   2.925  11.193  0.1919  0.8117 -0.6926
   92bbb     C3 2298  11.466   2.972  11.275 -0.2591 -0.3872  0.9232
   92bbb     H5 2299  11.469   3.082  11.281 -0.5454 -0.3445  0.3776
   92bbb     H6 2300  11.563   2.934  11.239  0.0987  0.7214  0.6459
   92bbb     C4 2301  11.239   3.006  11.211 -0.0392 -0.1847 -0.5574
   92bbb     H7 2302  11.237   3.046  11.314  2.9984 -3.1113  0.8404
   92bbb     H8 2303  11.235   3.086  11.136  0.3974 -0.9434 -1.4107
   92bbb     C5 2304  11.112   2.915  11.191 -0.1052  0.4937 -0.1054
   92bbb     H9 2305  11.107   2.870  11.091 -1.3341 -0.3868  0.3232
   92bbb    H10 2306  11.115   2.834  11.265  0.4843 -2.0960 -2.7501
   92bbb     C6 2307  11.444   2.919  11.409 -0.4080 -0.1172 -0.0290
   92bbb    H11 2308  11.363   2.972  11.461  1.1954 -0.5957  3.1926
   92bbb    H12 2309  11.412   2.814  11.402 -0.6370 -0.0605  0.1381
   92bbb     C7 2310  10.995   3.003  11.222  0.4657 -0.0104  0.0663
   92bbb     C8 2311  11.569   2.916  11.498  0.6749  0.2117  0.4867
   92bbb     O1 2312  11.001   3.121  11.200  0.4409  0.4419 -0.2840
   92bbb     O2 2313  11.620   2.810  11.529 -0.4375  0.0823  0.3932
   92bbb     N4 2314  11.388   2.670  11.074 -0.5064  0.2444  0.0050
   92bbb    H21 2315  11.310   2.690  11.135  0.0057  0.7401  0.5157
   93bbb     C1 2316  11.182   1.685  11.616 -0.5705  0.5467  0.4770
   93bbb     H1 2317  11.109   1.756  11.657  0.6614  2.2060 -0.0662
   93bbb     H2 2318  11.283   1.724  11.637 -0.5170  1.4609 -1.3042
   93bbb     C2 2319  11.187   1.705  11.466  0.1440 -0.4710  0.3481
   93bbb     H3 2320  11.276   1.658  11.424 -0.4364 -1.1006 -0.2077
   93bbb     H4 2321  11.098   1.660  11.420 -0.4896  1.0159  0.0744
   93bbb     N1 2322  11.184   1.546  11.664  0.1241  0.6796 -0.2690
   93bbb     C3 2323  11.064   1.470  11.624  0.4046 -0.3641 -0.0738
   93bbb     H5 2324  11.002   1.535  11.562 -0.2362 -0.1504  0.7781
   93bbb     H6 2325  11.004   1.434  11.709 -2.0807  2.0456 -0.6867
   93bbb     C4 2326  11.195   1.537  11.813  0.2022 -0.5719  0.2810
   93bbb     H7 2327  11.109   1.582  11.864  1.6421  1.0859  1.3771
   93bbb     H8 2328  11.185   1.433  11.844  1.3057 -0.0501  2.5399
   93bbb     C5 2329  11.328   1.586  11.873 -0.2530  0.0400  0.5375
   93bbb     H9 2330  11.410   1.549  11.811  0.0538  1.2643  0.1748
   93bbb    H10 2331  11.335   1.696  11.873 -0.2418  0.0492 -0.2443
   93bbb     C6 2332  11.110   1.352  11.544  0.1060  0.1318 -0.1588
   93bbb    H11 2333  11.161   1.390  11.455  1.2081  2.2350  1.2757
   93bbb    H12 2334  11.187   1.302  11.604 -1.1689  1.0989  2.4171
   93bbb     C7 2335  11.348   1.544  12.014 -0.3142  0.0500 -1.1876
   93bbb     C8 2336  11.000   1.253  11.508  0.4673  0.2329  0.2019
   93bbb     O1 2337  11.358   1.423  12.038 -0.0407 -0.2121  0.3894
   93bbb     O2 2338  10.883   1.280  11.527  0.2847 -0.2935  0.0915
   93bbb     N4 2339  11.184   1.855  11.434 -0.0244 -0.1158 -0.0515
   93bbb    H21 2340  11.157   1.922  11.504 -1.1100  1.4408 -1.8612
   94bbb     C1 2341  12.183   5.022  10.207  0.0975  0.8115  0.0613
   94bbb     H1 2342  12.248   5.047  10.122  1.1861 -0.9875  0.3190
   94bbb     H2 2343  12.137   4.924  10.190  0.9141 -0.0284  2.3283
   94bbb     C2 2344  12.066   5.119  10.210 -0.4591 -0.1081  0.9360
   94bbb     H3 2345  11.989   5.079  10.277 -1.0826 -0.5930 -0.0524
   94bbb     H4 2346  12.091   5.217  10.255 -1.8960  0.4448  0.5706
   94bbb     N1 2347  12.272   5.024  10.334  0.6139 -0.4506 -0.0164
   94bbb     C3 2348  12.398   4.950  10.325  0.7868  0.2324  0.4024
   94bbb     H5 2349  12.374   4.853  10.280  0.4468  0.9670 -1.0715
   94bbb     H6 2350  12.441   4.936  10.425  0.8665  3.5259  0.9641
   94bbb     C4 2351  12.188   4.964  10.442 -0.7124  0.0130  0.3578
   94bbb     H7 2352  12.085   4.999  10.448 -1.0743 -0.7912 -0.8307
   94bbb     H8 2353  12.188   4.854  10.446  0.5129  0.0359  1.9117
   94bbb     C5 2354  12.246   5.011  10.573  0.0092 -0.0915 -0.9164
   94bbb     H9 2355  12.342   4.966  10.600 -0.1148  0.7894  1.2118
   94bbb    H10 2356  12.259   5.120  10.573 -3.4455  0.4953  1.5534
   94bbb     C6 2357  12.487   5.028  10.240  0.1013 -0.3366  0.1598
   94bbb    H11 2358  12.456   5.020  10.135  0.9888  1.1262 -0.2452
   94bbb    H12 2359  12.495   5.129  10.280 -0.3159 -0.1385 -0.2429
   94bbb     C7 2360  12.148   4.991  10.686  0.6531  0.1694  0.4996
   94bbb     C8 2361  12.627   4.965  10.243 -0.1266 -0.8334 -0.2204
   94bbb     O1 2362  12.074   4.892  10.695  0.0932  0.8359  0.3298
   94bbb     O2 2363  12.652   4.867  10.313 -0.1722 -0.0459 -0.3797
   94bbb     N4 2364  11.995   5.144  10.084  0.6041  0.5730  0.0050
   94bbb    H21 2365  11.941   5.069  10.043  1.8915 -0.3109 -0.1495
   95bbb     C1 2366  12.567   5.422   9.265  0.1869  0.0431 -0.0002
   95bbb     H1 2367  12.527   5.521   9.286 -1.3102 -0.8465  1.5328
   95bbb     H2 2368  12.514   5.389   9.174  1.2887  0.4819 -0.8325
   95bbb     C2 2369  12.526   5.336   9.386  0.1654 -0.8040  0.1767
   95bbb     H3 2370  12.561   5.233   9.370 -1.0487 -1.3793  1.0521
   95bbb     H4 2371  12.585   5.380   9.467  1.4016 -1.3367 -0.4052
   95bbb     N1 2372  12.712   5.432   9.247  0.1459  0.6252  0.1533
   95bbb     C3 2373  12.757   5.547   9.167 -0.5581 -0.1830 -0.7547
   95bbb     H5 2374  12.691   5.552   9.079  0.3900  0.8092 -1.4342
   95bbb     H6 2375  12.864   5.528   9.149 -0.4899  0.6663 -1.2928
   95bbb     C4 2376  12.770   5.312   9.196  0.0680  0.2214 -0.0595
   95bbb     H7 2377  12.693   5.234   9.194 -0.8493  1.0841  0.8451
   95bbb     H8 2378  12.811   5.311   9.095  1.7546 -0.3573  0.5905
   95bbb     C5 2379  12.877   5.272   9.298  0.2354  0.7316 -0.4371
   95bbb     H9 2380  12.952   5.352   9.297  0.8994  0.2704 -4.3818
   95bbb    H10 2381  12.846   5.260   9.402  2.6299  3.3403  0.6822
   95bbb     C6 2382  12.746   5.677   9.247 -0.3136  0.3255 -0.1785
   95bbb    H11 2383  12.644   5.710   9.273  0.1804  0.7732  1.2655
   95bbb    H12 2384  12.800   5.665   9.341  1.5910 -0.1649 -1.2974
   95bbb     C7 2385  12.942   5.137   9.261  0.6071  0.3593  0.7514
   95bbb     C8 2386  12.809   5.787   9.167 -0.2948 -0.4121  0.2024
   95bbb     O1 2387  12.877   5.032   9.255 -0.5701 -0.3969 -0.1450
   95bbb     O2 2388  12.931   5.808   9.170  0.4332 -0.6221  0.4642
   95bbb     N4 2389  12.381   5.341   9.423  0.1043 -0.0148 -0.3081
   95bbb    H21 2390  12.341   5.431   9.448  0.2996 -0.2347  0.8642
   96bbb     C1 2391  12.533   4.231   8.050 -0.2577  0.5187  0.1822
   96bbb     H1 2392  12.477   4.325   8.051 -0.4973  0.4254 -1.5169
   96bbb     H2 2393  12.530   4.186   7.950 -1.2061 -0.6520  0.7073
   96bbb     C2 2394  12.466   4.143   8.154  0.2994 -0.2225  0.2376
   96bbb     H3 2395  12.359   4.121   8.141  0.5185 -1.7076  0.7867
   96bbb     H4 2396  12.509   4.042   8.153 -1.5857 -1.0802 -2.1808
   96bbb     N1 2397  12.672   4.240   8.074  0.0195 -0.3207 -0.0387
   96bbb     C3 2398  12.733   4.121   8.017  0.2723  0.4650 -0.2300
   96bbb     H5 2399  12.751   4.135   7.910  1.5710 -1.7321 -0.3578
   96bbb     H6 2400  12.681   4.025   8.032  0.7351  0.1492 -0.6380
   96bbb     C4 2401  12.734   4.368   8.024 -0.5032  0.2824 -0.4739
   96bbb     H7 2402  12.841   4.362   8.002 -0.7392  1.8310 -2.3227
   96bbb     H8 2403  12.699   4.399   7.925  1.3388  0.8117 -1.0047
   96bbb     C5 2404  12.705   4.473   8.131 -0.4045  0.8864  0.0970
   96bbb     H9 2405  12.598   4.472   8.155 -0.3097 -1.8743  0.7224
   96bbb    H10 2406  12.759   4.434   8.219  0.8142 -0.6794 -1.2727
   96bbb     C6 2407  12.866   4.090   8.081 -0.0032  0.4180 -0.4083
   96bbb    H11 2408  12.931   4.177   8.096  0.2428 -0.1400  2.2265
   96bbb    H12 2409  12.850   4.053   8.183 -1.7532  1.2158 -0.3580
   96bbb     C7 2410  12.752   4.608   8.086 -0.5076 -0.3529 -0.3031
   96bbb     C8 2411  12.956   3.992   8.006  0.9229 -0.1105  0.4990
   96bbb     O1 2412  12.850   4.623   8.013  0.1840  0.1216 -0.0904
   96bbb     O2 2413  13.053   4.026   7.944 -0.7137  0.1388 -0.4803
   96bbb     N4 2414  12.467   4.201   8.292 -1.0076  0.3357 -0.6723
   96bbb    H21 2415  12.506   4.293   8.302 -1.6634  0.8152 -2.1908
   97bbb     C1 2416  12.712   4.054   9.305  0.5797  0.0736  0.3976
   97bbb     H1 2417  12.735   3.989   9.390  2.3839  0.3516  0.1538
   97bbb     H2 2418  12.687   4.155   9.339  0.6953  0.2515 -0.0344
   97bbb     C2 2419  12.573   3.996   9.251  0.1021 -0.5304 -0.2354
   97bbb     H3 2420  12.578   3.887   9.256  0.9713 -0.5706 -1.5745
   97bbb     H4 2421  12.494   4.027   9.321 -0.7660  0.6053 -1.6615
   97bbb     N1 2422  12.819   4.045   9.195  0.0834  1.2325 -0.0295
   97bbb     C3 2423  12.916   4.152   9.224 -0.4146  0.2883  0.5265
   97bbb     H5 2424  13.007   4.125   9.169 -1.1098 -0.1994 -0.4098
   97bbb     H6 2425  12.926   4.162   9.333  1.2370 -1.3326  0.5761
   97bbb     C4 2426  12.879   3.914   9.194 -0.2707 -0.2634  0.9278
   97bbb     H7 2427  12.963   3.919   9.264  1.4988  0.2665 -1.1376
   97bbb     H8 2428  12.792   3.849   9.214 -1.1004 -0.1707 -1.9229
   97bbb     C5 2429  12.913   3.887   9.042 -0.3442 -0.8066 -0.7594
   97bbb     H9 2430  12.821   3.885   8.982 -1.1862  0.2907  0.4202
   97bbb    H10 2431  12.974   3.972   9.008  0.4476 -0.2179  1.8305
   97bbb     C6 2432  12.859   4.266   9.152 -1.3535 -0.3477 -0.0556
   97bbb    H11 2433  12.825   4.235   9.052 -2.2081 -0.0389  0.1323
   97bbb    H12 2434  12.772   4.312   9.201 -2.6515 -0.0287 -2.4842
   97bbb     C7 2435  12.965   3.746   9.024 -0.2356 -0.6410 -0.0358
   97bbb     C8 2436  12.973   4.371   9.140  0.8665 -0.0368  0.0883
   97bbb     O1 2437  12.902   3.651   9.062  0.5828 -0.0300 -0.2692
   97bbb     O2 2438  13.070   4.357   9.074  0.0612 -0.2245  0.2922
   97bbb     N4 2439  12.535   4.041   9.113 -0.8190  0.3934 -0.1451
   97bbb    H21 2440  12.592   4.001   9.039 -0.8371 -0.8700  0.4986
   98bbb     C1 2441  10.575   2.408   9.260 -0.1412 -0.0141 -0.4640
   98bbb     H1 2442  10.523   2.364   9.174 -0.8666  1.5512 -0.8656
   98bbb     H2 2443  10.512   2.380   9.345  0.2228  2.8037  0.8467
   98bbb     C2 2444  10.565   2.560   9.244  0.1225  0.0129 -0.0439
   98bbb     H3 2445  10.457   2.575   9.255  0.3692  2.4668 -0.3864
   98bbb     H4 2446  10.620   2.604   9.328  0.3200 -0.7077  0.2156
   98bbb     N1 2447  10.711   2.355   9.275  1.1576 -0.2147  0.1397
   98bbb     C3 2448  10.757   2.368   9.417 -0.5377 -0.4910  0.8192
   98bbb     H5 2449  10.717   2.286   9.478 -1.6747  0.4698  1.4254
   98bbb     H6 2450  10.717   2.462   9.458 -0.4815  0.6040 -1.4550
   98bbb     C4 2451  10.704   2.215   9.222 -0.5470  0.2111 -0.0352
   98bbb     H7 2452  10.781   2.154   9.271 -0.6118 -0.1408 -0.3729
   98bbb     H8 2453  10.606   2.167   9.229 -1.6556  2.1941 -0.8634
   98bbb     C5 2454  10.742   2.230   9.078 -0.6570 -0.0633 -0.1065
   98bbb     H9 2455  10.672   2.298   9.028  0.2790  1.2783  0.3400
   98bbb    H10 2456  10.845   2.266   9.066 -0.3476 -0.6970  0.5619
   98bbb     C6 2457  10.909   2.383   9.424  0.1172 -0.5681  0.3590
   98bbb    H11 2458  10.945   2.302   9.359 -0.1272 -1.3068  1.1219
   98bbb    H12 2459  10.939   2.473   9.370 -1.4075  0.4952  1.2111
   98bbb     C7 2460  10.726   2.102   9.006 -0.1042  0.4271  0.3764
   98bbb     C8 2461  10.955   2.386   9.565 -0.4156 -0.2334  0.3026
   98bbb     O1 2462  10.653   2.008   9.032  0.3109  0.1183  0.8420
   98bbb     O2 2463  10.953   2.497   9.623 -0.5529 -0.5905  0.2110
   98bbb     N4 2464  10.614   2.618   9.119  0.0352 -0.1194 -0.3827
   98bbb    H21 2465  10.714   2.608   9.104 -0.2673 -4.2219 -0.8109
   99bbb     C1 2466  10.524   2.877   8.146  0.4655 -0.6558  0.4018
   99bbb     H1 2467  10.518   2.802   8.066  0.2822 -1.3012  1.0109
   99bbb     H2 2468  10.515   2.971   8.090  0.2340 -0.9560 -0.0699
   99bbb     C2 2469  10.674   2.881   8.194 -0.1529  0.1004  0.2333
   99bbb     H3 2470  10.709   2.779   8.175 -0.0017  0.6053 -2.6408
   99bbb     H4 2471  10.738   2.941   8.129  0.1123  2.0966  2.2140
   99bbb     N1 2472  10.411   2.868   8.243  0.5977  0.0571  0.2428
   99bbb     C3 2473  10.288   2.908   8.167 -0.0275  0.1970 -0.4337
   99bbb     H5 2474  10.318   3.000   8.116 -0.8848  1.5426  1.3760
   99bbb     H6 2475  10.207   2.941   8.233 -1.5246 -0.9217 -1.6500
   99bbb     C4 2476  10.402   2.750   8.337 -0.4080 -0.1953 -0.5620
   99bbb     H7 2477  10.363   2.675   8.268 -0.7645  1.1941 -1.9314
   99bbb     H8 2478  10.499   2.718   8.379  0.3222  2.3151 -0.1519
   99bbb     C5 2479  10.302   2.780   8.453 -0.3414 -0.8937 -0.4309
   99bbb     H9 2480  10.334   2.869   8.508  0.6003 -0.9573 -0.8667
   99bbb    H10 2481  10.200   2.790   8.413  0.5724 -0.7660 -2.8684
   99bbb     C6 2482  10.230   2.809   8.073  0.5238 -0.2984  0.4665
   99bbb    H11 2483  10.302   2.752   8.013 -1.0638 -1.7172 -0.2015
   99bbb    H12 2484  10.176   2.743   8.141 -0.7401  1.4420  1.2283
   99bbb     C7 2485  10.300   2.677   8.565 -0.4516  0.6975  0.4593
   99bbb     C8 2486  10.127   2.866   7.970  0.0975  0.1689  0.0192
   99bbb     O1 2487  10.377   2.586   8.548 -0.3232  0.0451  0.8710
   99bbb     O2 2488  10.142   2.970   7.910  0.3329  0.3501  0.0077
   99bbb     N4 2489  10.702   2.916   8.334 -0.2797  0.1695  0.6292
   99bbb    H21 2490  10.677   3.011   8.361  0.5314  0.1013  1.6718
  100bbb     C1 2491  11.534   2.573   8.070 -0.2317 -0.3210 -0.6867
  100bbb     H1 2492  11.559   2.499   8.147 -3.0010  0.6566  1.3336
  100bbb     H2 2493  11.604   2.657   8.068 -0.3712 -0.1311  0.9621
  100bbb     C2 2494  11.405   2.641   8.115 -0.6410  0.6652 -0.1156
  100bbb     H3 2495  11.399   2.737   8.062  0.2242  1.1023  0.5609
  100bbb     H4 2496  11.315   2.582   8.091 -0.7827  1.1624 -0.8514
  100bbb     N1 2497  11.525   2.519   7.933  0.1237  0.1337 -0.4011
  100bbb     C3 2498  11.486   2.621   7.837  0.2094  0.5453  0.8647
  100bbb     H5 2499  11.501   2.724   7.871 -1.3177  0.9942  0.2895
  100bbb     H6 2500  11.382   2.615   7.802  0.7179 -1.6865 -0.4810
  100bbb     C4 2501  11.467   2.387   7.915 -0.7147 -0.7777 -0.0781
  100bbb     H7 2502  11.375   2.375   7.974  0.1922 -1.1321  1.3062
  100bbb     H8 2503  11.438   2.373   7.810  0.1909  0.9098 -0.5891
  100bbb     C5 2504  11.570   2.278   7.965  0.6296 -0.1060 -0.0581
  100bbb     H9 2505  11.652   2.268   7.892  1.5060  2.8986  0.3979
  100bbb    H10 2506  11.614   2.314   8.058 -1.2589 -0.3185  0.9623
  100bbb     C6 2507  11.579   2.598   7.721  0.5521  0.7053 -0.7270
  100bbb    H11 2508  11.686   2.599   7.745  0.1606 -0.9409  1.3843
  100bbb    H12 2509  11.562   2.495   7.687  1.3897  0.0845  0.6546
  100bbb     C7 2510  11.509   2.141   7.981 -0.0328 -0.8767  0.4615
  100bbb     C8 2511  11.535   2.685   7.600 -0.6146  0.1913 -0.2796
  100bbb     O1 2512  11.400   2.130   8.036  0.3708 -0.0265  0.3426
  100bbb     O2 2513  11.422   2.728   7.586  0.2195 -0.3988  0.3197
  100bbb     N4 2514  11.402   2.666   8.262 -0.1915  0.1651 -0.7950
  100bbb    H21 2515  11.368   2.588   8.318  2.4740 -0.5280 -0.0079
  101bbb     C1 2516  12.248   2.533   8.892  0.2347  0.0376  0.2909
  101bbb     H1 2517  12.239   2.485   8.794  0.6841 -1.0110  0.7443
  101bbb     H2 2518  12.200   2.460   8.959 -2.1045  0.5793 -0.6827
  101bbb     C2 2519  12.171   2.665   8.901  0.1140 -0.2147 -0.0616
  101bbb     H3 2520  12.187   2.722   8.993  0.8229 -0.6615  0.1010
  101bbb     H4 2521  12.206   2.735   8.824 -0.6314 -0.1988 -0.4037
  101bbb     N1 2522  12.392   2.562   8.926 -0.0676 -0.5515  0.0290
  101bbb     C3 2523  12.481   2.451   8.879  0.4052  0.1570 -0.0188
  101bbb     H5 2524  12.430   2.356   8.898 -0.9885 -0.0782 -3.9610
  101bbb     H6 2525  12.583   2.460   8.919 -0.1456 -1.3675  1.8706
  101bbb     C4 2526  12.400   2.581   9.070  0.3400  0.2017 -0.3253
  101bbb     H7 2527  12.327   2.652   9.110  0.7205  1.8470 -2.3067
  101bbb     H8 2528  12.395   2.485   9.121  0.0208  0.2422 -0.2812
  101bbb     C5 2529  12.534   2.649   9.108 -0.9086  0.3075  0.1036
  101bbb     H9 2530  12.616   2.583   9.077 -1.8583 -0.6953 -0.3481
  101bbb    H10 2531  12.532   2.745   9.055 -0.7205 -1.5137 -3.4993
  101bbb     C6 2532  12.493   2.448   8.730 -0.3014  0.6908 -0.4837
  101bbb    H11 2533  12.407   2.402   8.679  0.7572 -1.0836 -0.7676
  101bbb    H12 2534  12.506   2.553   8.701 -0.7359  1.4386  1.8128
  101bbb     C7 2535  12.539   2.664   9.249  0.6967 -0.0515 -0.5353
  101bbb     C8 2536  12.619   2.373   8.685 -0.6859 -0.0935  0.1421
  101bbb     O1 2537  12.480   2.596   9.330  0.1849 -0.2921 -0.5703
  101bbb     O2 2538  12.620   2.253   8.683 -0.1902  0.4355 -0.7339
  101bbb     N4 2539  12.023   2.660   8.866 -0.5396  0.0865 -0.6609
  101bbb    H21 2540  11.987   2.572   8.833  1.7462 -1.0308 -0.3228
  102bbb     C1 2541  10.060   5.862   7.880 -0.0946 -0.0197  0.1512
  102bbb     H1 2542   9.992   5.946   7.900  2.9456  2.8814 -0.8610
  102bbb     H2 2543  10.001   5.776   7.846  2.0636 -1.5884  0.1573
  102bbb     C2 2544  10.120   5.821   8.017 -0.7722 -0.0989  0.6945
  102bbb     H3 2545  10.179   5.900   8.064 -2.0408  0.7835  0.8520
  102bbb     H4 2546  10.031   5.790   8.074  0.5832 -1.3293  2.2399
  102bbb     N1 2547  10.157   5.908   7.772  0.3369 -0.6454 -0.3931
  102bbb     C3 2548  10.240   5.802   7.719 -0.4169  0.8993  0.3504
  102bbb     H5 2549  10.191   5.704   7.724  2.1076 -0.5262 -0.6940
  102bbb     H6 2550  10.330   5.784   7.780 -1.4640  0.2033  1.7481
  102bbb     C4 2551  10.233   6.028   7.819 -0.2454  0.1866 -0.7283
  102bbb     H7 2552  10.288   5.989   7.906 -0.8512 -1.3583 -1.0085
  102bbb     H8 2553  10.302   6.071   7.745  2.5231 -1.7369  0.5331
  102bbb     C5 2554  10.133   6.144   7.848  0.6259  0.2948  0.0010
  102bbb     H9 2555  10.074   6.163   7.757 -2.3427 -1.8182  1.3512
  102bbb    H10 2556  10.061   6.121   7.927 -0.8175  2.0415 -0.7095
  102bbb     C6 2557  10.253   5.828   7.567 -0.2938  0.3858 -0.1522
  102bbb    H11 2558  10.154   5.821   7.522 -1.2760  0.8875  1.8006
  102bbb    H12 2559  10.295   5.930   7.563 -0.3744  0.4395  0.2607
  102bbb     C7 2560  10.217   6.256   7.886  0.1340 -0.5624  0.1721
  102bbb     C8 2561  10.351   5.724   7.506  0.4697  0.1356  0.1070
  102bbb     O1 2562  10.308   6.243   7.965  0.3255  0.7355 -0.3580
  102bbb     O2 2563  10.347   5.605   7.531  0.0782  0.1729 -0.3407
  102bbb     N4 2564  10.191   5.697   8.004 -0.5503 -0.3475 -0.2190
  102bbb    H21 2565  10.149   5.606   7.992  0.8282 -0.9512 -0.6528
  103bbb     C1 2566  11.050   4.962   7.997  0.1081  0.0480 -0.1950
  103bbb     H1 2567  11.009   4.910   7.910  0.9765 -1.7501  0.4307
  103bbb     H2 2568  11.001   4.920   8.085  0.1144 -2.2053 -1.1960
  103bbb     C2 2569  11.011   5.113   7.983 -0.6968  0.4091  0.1206
  103bbb     H3 2570  11.033   5.168   8.075  2.7485  0.4108 -0.5903
  103bbb     H4 2571  11.078   5.155   7.907  0.5576 -0.0190  0.9623
  103bbb     N1 2572  11.198   4.938   8.014  0.4618  0.4286 -0.1918
  103bbb     C3 2573  11.270   5.023   8.113 -0.1665  0.1635 -0.0458
  103bbb     H5 2574  11.295   4.962   8.201 -2.4525 -0.8124  0.0045
  103bbb     H6 2575  11.216   5.108   8.158  1.1948  1.5882 -1.0042
  103bbb     C4 2576  11.230   4.795   8.019 -0.0254  0.4919 -0.2547
  103bbb     H7 2577  11.332   4.774   8.053 -0.7880 -1.1336  1.1690
  103bbb     H8 2578  11.164   4.757   8.097 -2.7937  2.4821 -1.4336
  103bbb     C5 2579  11.211   4.734   7.883  0.7671 -0.2117  0.1862
  103bbb     H9 2580  11.105   4.726   7.855  1.4899 -0.7745 -2.7243
  103bbb    H10 2581  11.263   4.794   7.808 -2.0808  2.1276 -0.1242
  103bbb     C6 2582  11.392   5.077   8.060 -0.2395  0.4825 -0.1202
  103bbb    H11 2583  11.441   4.997   8.003  0.5663  2.2445 -2.0417
  103bbb    H12 2584  11.363   5.146   7.980  2.1330  0.9483 -0.6638
  103bbb     C7 2585  11.277   4.602   7.890  0.8902  0.7075 -0.0162
  103bbb     C8 2586  11.483   5.151   8.150 -0.4276 -0.4540  0.0155
  103bbb     O1 2587  11.382   4.579   7.839  0.3587  0.2047 -0.3278
  103bbb     O2 2588  11.489   5.128   8.268 -0.0712 -0.2149 -0.5992
  103bbb     N4 2589  10.870   5.130   7.945  0.0860 -1.2546  0.5977
  103bbb    H21 2590  10.798   5.059   7.944 -2.3219  1.0106  0.7420
  104bbb     C1 2591   8.992   3.929   8.264 -0.0208 -1.1608  0.0506
  104bbb     H1 2592   8.905   3.972   8.212  0.1524 -1.6675 -0.6838
  104bbb     H2 2593   9.000   3.939   8.373 -2.4430 -0.6286  0.2256
  104bbb     C2 2594   9.113   4.000   8.198  0.7982  1.1255 -0.8265
  104bbb     H3 2595   9.201   3.985   8.263 -0.3695  2.6664  1.2488
  104bbb     H4 2596   9.122   3.954   8.099 -0.7607  2.1246 -1.4616
  104bbb     N1 2597   8.991   3.785   8.230 -0.2918 -0.3557 -0.2409
  104bbb     C3 2598   8.867   3.717   8.261 -0.7660  0.2289  0.4020
  104bbb     H5 2599   8.832   3.745   8.361  1.3375  1.5602  0.8242
  104bbb     H6 2600   8.877   3.608   8.260 -1.4478  0.1212  2.0903
  104bbb     C4 2601   9.107   3.717   8.291  0.9372 -0.7923  0.0594
  104bbb     H7 2602   9.191   3.784   8.313 -0.4577  1.8649 -2.1219
  104bbb     H8 2603   9.071   3.676   8.386  0.8218 -1.6000 -0.3244
  104bbb     C5 2604   9.149   3.599   8.219 -0.6435  0.0557 -0.0746
  104bbb     H9 2605   9.219   3.547   8.286  0.5185  1.2114 -0.3479
  104bbb    H10 2606   9.061   3.537   8.198 -0.3101 -1.0717  1.6443
  104bbb     C6 2607   8.756   3.765   8.160 -0.2217  0.2015  0.5717
  104bbb    H11 2608   8.713   3.865   8.176 -1.3892  0.0330 -1.2658
  104bbb    H12 2609   8.802   3.757   8.061 -0.0381 -1.2386  0.7633
  104bbb     C7 2610   9.230   3.630   8.096  0.1457  0.2855 -0.3492
  104bbb     C8 2611   8.637   3.676   8.182 -0.4277 -0.2553 -0.6882
  104bbb     O1 2612   9.339   3.688   8.103 -0.1010 -0.5334  0.1577
  104bbb     O2 2613   8.580   3.668   8.289  0.4191 -0.0776 -0.6178
  104bbb     N4 2614   9.107   4.146   8.181  0.0807  0.8964  0.0404
  104bbb    H21 2615   9.055   4.175   8.099 -1.9846 -1.0886  0.5574
  105bbb     C1 2616   8.627   4.774   8.178 -0.0753 -0.6018  0.9077
  105bbb     H1 2617   8.574   4.716   8.102  0.3176  1.1128 -0.7368
  105bbb     H2 2618   8.584   4.875   8.180  0.7879 -0.2178  0.6524
  105bbb     C2 2619   8.774   4.786   8.137 -0.8592  0.1428 -0.1409
  105bbb     H3 2620   8.812   4.683   8.133 -0.5851  0.2800 -1.3323
  105bbb     H4 2621   8.786   4.826   8.036  2.2525  1.3921  0.6245
  105bbb     N1 2622   8.607   4.708   8.313  0.1935  0.0925  0.7016
  105bbb     C3 2623   8.469   4.717   8.334  0.7054 -0.1160  0.1166
  105bbb     H5 2624   8.435   4.648   8.412  0.9642  2.1370  2.3342
  105bbb     H6 2625   8.418   4.690   8.241  0.4220 -0.3891  0.3494
  105bbb     C4 2626   8.653   4.573   8.332  0.3778  0.3628 -0.4523
  105bbb     H7 2627   8.573   4.510   8.372  0.7111 -1.8400 -2.9843
  105bbb     H8 2628   8.679   4.530   8.235 -1.5701 -0.5204 -0.6337
  105bbb     C5 2629   8.765   4.570   8.434 -0.4653  0.5284 -0.5010
  105bbb     H9 2630   8.787   4.463   8.444  0.1360  0.5830 -1.2661
  105bbb    H10 2631   8.853   4.628   8.405  3.6286 -3.2809  2.9649
  105bbb     C6 2632   8.433   4.857   8.388  0.3273  1.0123 -0.2211
  105bbb    H11 2633   8.500   4.879   8.473  0.4502 -2.2770  0.6479
  105bbb    H12 2634   8.450   4.941   8.319  2.1046  1.3708  0.6052
  105bbb     C7 2635   8.717   4.618   8.566  0.4187 -0.1817  0.4029
  105bbb     C8 2636   8.293   4.875   8.432  0.8960  0.9119  0.8818
  105bbb     O1 2637   8.626   4.564   8.625  0.1853 -0.4736 -0.5073
  105bbb     O2 2638   8.226   4.783   8.481 -0.0956 -0.1311 -0.0801
  105bbb     N4 2639   8.851   4.867   8.234 -0.0433 -0.3383 -0.3723
  105bbb    H21 2640   8.800   4.945   8.273 -0.1561 -0.5428 -0.1102
  106bbb     C1 2641  10.568   3.317   8.424 -1.0390  0.4287  0.6785
  106bbb     H1 2642  10.611   3.220   8.451  0.2702  0.5823 -0.7181
  106bbb     H2 2643  10.648   3.362   8.364  0.5802 -1.1477  1.5741
  106bbb     C2 2644  10.558   3.401   8.546  0.5318 -0.1708  0.1705
  106bbb     H3 2645  10.497   3.489   8.523 -1.5489 -1.9000 -1.2796
  106bbb     H4 2646  10.502   3.350   8.626  0.5503 -2.7515 -1.3604
  106bbb     N1 2647  10.432   3.306   8.350  0.4113 -0.2051  0.1615
  106bbb     C3 2648  10.449   3.284   8.206 -0.6417  0.2057 -0.3231
  106bbb     H5 2649  10.477   3.178   8.203  1.7709  0.6612  1.8882
  106bbb     H6 2650  10.528   3.350   8.167 -0.6547  0.5445  0.2081
  106bbb     C4 2651  10.347   3.205   8.415  0.0592  0.0870 -0.1743
  106bbb     H7 2652  10.312   3.127   8.346  0.6644 -0.6574  0.3446
  106bbb     H8 2653  10.406   3.159   8.495 -1.2323 -2.1253 -0.4094
  106bbb     C5 2654  10.226   3.282   8.470  0.2223 -0.8485  0.6244
  106bbb     H9 2655  10.266   3.370   8.523  1.4918  0.3459 -2.1110
  106bbb    H10 2656  10.165   3.315   8.385  1.9737 -0.1426 -0.3960
  106bbb     C6 2657  10.323   3.310   8.120  1.2488 -0.4917  0.0538
  106bbb    H11 2658  10.251   3.228   8.134  1.6596 -0.6619  1.3436
  106bbb    H12 2659  10.281   3.409   8.139 -0.7266 -0.8604 -2.0265
  106bbb     C7 2660  10.146   3.207   8.567 -0.3361 -0.0412  0.3688
  106bbb     C8 2661  10.348   3.301   7.970 -0.1735 -0.0809  0.3191
  106bbb     O1 2662  10.187   3.102   8.619 -0.0870  0.1531  0.1154
  106bbb     O2 2663  10.402   3.394   7.908 -0.1820 -0.0212  0.5549
  106bbb     N4 2664  10.683   3.454   8.595 -0.2835  0.2111 -0.5864
  106bbb    H21 2665  10.774   3.414   8.579  0.8591  2.7982 -1.0247
  107bbb     C1 2666  11.614   3.434   8.641  0.2685 -0.2805  0.8067
  107bbb     H1 2667  11.705   3.433   8.703  2.8203 -0.9546 -2.6245
  107bbb     H2 2668  11.624   3.527   8.584  1.1745  1.2155  3.2193
  107bbb     C2 2669  11.494   3.435   8.743  0.0530 -0.0151  0.8887
  107bbb     H3 2670  11.457   3.332   8.752  0.1478 -0.0439  0.9539
  107bbb     H4 2671  11.533   3.449   8.845  0.2525 -1.0924  0.9732
  107bbb     N1 2672  11.600   3.313   8.563 -0.0705 -0.0397  0.2725
  107bbb     C3 2673  11.730   3.264   8.529  0.0059 -0.2525 -0.3083
  107bbb     H5 2674  11.782   3.321   8.451  0.9626  1.8824  1.7590
  107bbb     H6 2675  11.718   3.165   8.484 -0.0975 -1.6173  2.4863
  107bbb     C4 2676  11.517   3.332   8.443 -0.7263 -0.1921  0.0615
  107bbb     H7 2677  11.434   3.402   8.459 -1.3919 -1.0082  0.2568
  107bbb     H8 2678  11.586   3.353   8.361  1.1772 -1.5588  1.2258
  107bbb     C5 2679  11.446   3.197   8.412  0.1974 -0.1688  0.1900
  107bbb     H9 2680  11.512   3.110   8.399 -0.5900 -1.0762  1.8784
  107bbb    H10 2681  11.381   3.185   8.500  0.5822 -1.1111  0.3567
  107bbb     C6 2682  11.817   3.233   8.653  0.7373  0.1763  0.3808
  107bbb    H11 2683  11.874   3.323   8.677 -1.3517  2.2411 -1.7347
  107bbb    H12 2684  11.747   3.216   8.736 -2.2486  1.8546 -1.5593
  107bbb     C7 2685  11.369   3.214   8.288 -0.5295  0.5726  1.1260
  107bbb     C8 2686  11.912   3.125   8.626 -0.1706 -0.0699  0.0248
  107bbb     O1 2687  11.411   3.262   8.181 -0.4054 -0.1679 -0.3949
  107bbb     O2 2688  11.913   3.060   8.521 -0.4474 -0.1086 -0.0282
  107bbb     N4 2689  11.385   3.524   8.705 -0.2093 -0.3508 -0.0144
  107bbb    H21 2690  11.326   3.502   8.625 -0.3619  0.6486 -0.1982
  108bbb     C1 2691  11.726   4.334   9.501 -0.7113 -0.0905 -0.6195
  108bbb     H1 2692  11.715   4.428   9.558  0.4555  0.4810 -1.2936
  108bbb     H2 2693  11.660   4.342   9.414  0.1032 -0.5279 -1.2909
  108bbb     C2 2694  11.665   4.237   9.601 -0.3332 -0.0176  1.0801
  108bbb     H3 2695  11.686   4.133   9.573  1.1580  0.4631  0.3049
  108bbb     H4 2696  11.711   4.247   9.699  0.0913  1.3961  0.7628
  108bbb     N1 2697  11.866   4.311   9.469  0.0190  0.0284  0.5512
  108bbb     C3 2698  11.920   4.432   9.407  1.0408 -0.2761  0.4846
  108bbb     H5 2699  11.847   4.483   9.344  1.3882 -0.1457  0.1847
  108bbb     H6 2700  12.007   4.408   9.346 -0.9950 -2.5466 -1.7711
  108bbb     C4 2701  11.878   4.196   9.383 -0.1182  0.0276 -0.5435
  108bbb     H7 2702  11.801   4.119   9.396 -1.6430  1.7758  1.6726
  108bbb     H8 2703  11.863   4.229   9.280 -1.1216  0.4300 -0.2775
  108bbb     C5 2704  12.014   4.138   9.414  0.2687  1.1913  0.2167
  108bbb     H9 2705  12.087   4.220   9.410 -1.2241  2.5613 -0.4579
  108bbb    H10 2706  12.019   4.094   9.514 -0.9324  0.6621  0.0586
  108bbb     C6 2707  11.962   4.513   9.520  0.9534  0.1148 -1.0358
  108bbb    H11 2708  11.891   4.516   9.603  0.4870  0.9985 -1.4456
  108bbb    H12 2709  12.056   4.475   9.561  1.0456  1.4096  0.0390
  108bbb     C7 2710  12.061   4.044   9.313 -0.6310 -0.0754  0.0541
  108bbb     C8 2711  11.986   4.656   9.486 -0.6477 -0.6689  0.2993
  108bbb     O1 2712  12.055   4.067   9.193  0.4144 -0.5665 -0.1298
  108bbb     O2 2713  11.917   4.744   9.528 -0.2603 -1.6799 -0.2125
  108bbb     N4 2714  11.520   4.270   9.602 -0.1485  0.2412  0.1560
  108bbb    H21 2715  11.472   4.270   9.513  2.1315 -0.1148 -1.1514
  109bbb     C1 2716  11.419   5.283   9.493  0.6367  0.4011  0.2448
  109bbb     H1 2717  11.345   5.223   9.439  1.9819 -0.2427 -0.9771
  109bbb     H2 2718  11.514   5.238   9.463 -1.5404 -2.6917 -2.7890
  109bbb     C2 2719  11.396   5.256   9.637 -0.7565  0.4185 -0.1484
  109bbb     H3 2720  11.495   5.280   9.680  0.4291 -0.5166 -2.2247
  109bbb     H4 2721  11.316   5.327   9.661 -0.7646  0.7821 -1.2431
  109bbb     N1 2722  11.414   5.432   9.449 -0.0230 -0.2904  0.2239
  109bbb     C3 2723  11.425   5.465   9.304  0.2945 -0.0498  0.7045
  109bbb     H5 2724  11.529   5.443   9.277 -0.0871 -1.4779  0.2860
  109bbb     H6 2725  11.412   5.573   9.295 -0.3055 -0.2282 -1.0051
  109bbb     C4 2726  11.493   5.521   9.531  0.6949  0.0592 -0.4751
  109bbb     H7 2727  11.501   5.492   9.637  3.3496 -0.2020 -0.6931
  109bbb     H8 2728  11.590   5.534   9.483  0.9650  1.1655  0.3384
  109bbb     C5 2729  11.420   5.655   9.540  0.1602  0.6544 -0.1433
  109bbb     H9 2730  11.471   5.734   9.596 -1.8707  2.0900 -0.2024
  109bbb    H10 2731  11.383   5.700   9.446 -0.2418 -1.0088 -0.8098
  109bbb     C6 2732  11.323   5.392   9.214 -0.2625 -0.0094 -0.3742
  109bbb    H11 2733  11.360   5.289   9.204 -0.6019 -0.6086  3.2063
  109bbb    H12 2734  11.226   5.387   9.264 -0.1915 -1.8716 -0.3521
  109bbb     C7 2735  11.292   5.623   9.621 -0.1527 -0.5557 -0.9202
  109bbb     C8 2736  11.313   5.463   9.083  0.2407  1.3155  1.0461
  109bbb     O1 2737  11.185   5.588   9.568  0.2134 -0.4705 -0.0994
  109bbb     O2 2738  11.349   5.405   8.982  0.3348  0.3986  0.2720
  109bbb     N4 2739  11.360   5.111   9.673  0.0144  0.0861  0.1501
  109bbb    H21 2740  11.271   5.074   9.643 -0.5540  2.3363 -1.2444
  110bbb     C1 2741   9.540   5.079  11.069 -0.2032 -0.5090  0.4035
  110bbb     H1 2742   9.569   5.185  11.072  1.2247 -0.7445 -2.0904
  110bbb     H2 2743   9.626   5.016  11.094  0.3229  1.0478  2.8502
  110bbb     C2 2744   9.502   5.049  10.922  0.5580 -0.2742  0.1512
  110bbb     H3 2745   9.584   5.071  10.852 -0.2503 -1.4602 -1.2465
  110bbb     H4 2746   9.494   4.940  10.910 -0.6500 -0.0407 -1.5798
  110bbb     N1 2747   9.425   5.069  11.164  0.1903 -0.5748  0.2737
  110bbb     C3 2748   9.448   5.131  11.296 -0.6548 -0.1318 -0.0962
  110bbb     H5 2749   9.544   5.094  11.336 -0.0139 -0.8709 -2.1973
  110bbb     H6 2750   9.366   5.105  11.364 -3.1392  0.4250 -2.7153
  110bbb     C4 2751   9.366   4.939  11.182 -0.7809  0.3632  0.1506
  110bbb     H7 2752   9.383   4.902  11.080 -0.5030  1.3070 -0.1526
  110bbb     H8 2753   9.421   4.871  11.249  1.7502 -0.0283 -2.1104
  110bbb     C5 2754   9.220   4.948  11.208 -0.2393  0.8785  0.4478
  110bbb     H9 2755   9.187   4.845  11.194  0.6206  0.7463 -0.7799
  110bbb    H10 2756   9.193   4.965  11.313 -1.4009 -1.0730  0.4992
  110bbb     C6 2757   9.434   5.285  11.289 -0.2582  0.5118  0.3208
  110bbb    H11 2758   9.488   5.327  11.204 -0.2073 -2.1149 -1.0377
  110bbb    H12 2759   9.329   5.316  11.286  0.0676  1.6433  0.1351
  110bbb     C7 2760   9.136   5.041  11.125 -0.1659 -0.9080  0.1591
  110bbb     C8 2761   9.482   5.335  11.422  0.3336 -0.1436 -0.5420
  110bbb     O1 2762   9.113   5.023  11.013  0.2884 -0.1392  0.1321
  110bbb     O2 2763   9.415   5.327  11.521 -0.1424 -0.2231 -0.7688
  110bbb     N4 2764   9.373   5.098  10.878  0.5695 -0.3029  0.4005
  110bbb    H21 2765   9.285   5.048  10.881  0.2242  0.1911 -0.8003
  111bbb     C1 2766   8.598   5.805  11.015 -0.0622 -0.0143  0.0280
  111bbb     H1 2767   8.676   5.869  10.971  0.8754 -1.5866 -0.6923
  111bbb     H2 2768   8.575   5.834  11.118 -0.6279 -1.9307  0.4845
  111bbb     C2 2769   8.654   5.665  11.031 -0.5460  0.2596  0.4570
  111bbb     H3 2770   8.725   5.662  11.115  0.6169 -0.6179 -0.5190
  111bbb     H4 2771   8.579   5.600  11.078 -1.3606  1.6489  1.1300
  111bbb     N1 2772   8.474   5.809  10.939  0.1057  0.0487  0.4220
  111bbb     C3 2773   8.363   5.756  11.026  0.2279 -0.1067  0.3626
  111bbb     H5 2774   8.328   5.836  11.093 -1.6326  1.1589 -1.9914
  111bbb     H6 2775   8.410   5.678  11.086  1.3971  0.8608  0.7568
  111bbb     C4 2776   8.456   5.947  10.882  0.7741 -0.1869  0.1006
  111bbb     H7 2777   8.354   5.963  10.847  0.9751  1.1451  0.0834
  111bbb     H8 2778   8.475   6.030  10.951  1.2438  1.3668 -1.8027
  111bbb     C5 2779   8.541   5.959  10.754  0.1621  1.0717 -0.5805
  111bbb     H9 2780   8.645   5.936  10.781 -0.5600 -0.9400  0.7715
  111bbb    H10 2781   8.506   5.884  10.682  0.0533 -0.7706  1.3039
  111bbb     C6 2782   8.232   5.703  10.960  0.4378  0.0874 -0.6891
  111bbb    H11 2783   8.196   5.780  10.891  0.2335 -0.8380 -1.6427
  111bbb    H12 2784   8.249   5.604  10.917 -2.0176 -1.4054  1.4798
  111bbb     C7 2785   8.527   6.098  10.699  0.3217  0.3377  0.5295
  111bbb     C8 2786   8.124   5.686  11.067 -0.4056  0.0844  0.0574
  111bbb     O1 2787   8.555   6.192  10.766 -0.2158  0.6628 -0.1218
  111bbb     O2 2788   8.125   5.585  11.140  0.8562 -0.3598 -0.7401
  111bbb     N4 2789   8.723   5.616  10.903  0.5797 -0.4836  0.4504
  111bbb    H21 2790   8.732   5.682  10.826 -0.5312 -3.0878 -2.0813
  112bbb     C1 2791   7.816   5.350   9.963 -0.0772 -0.7499  0.3502
  112bbb     H1 2792   7.901   5.389  10.020  0.2055  0.5465 -0.9034
  112bbb     H2 2793   7.794   5.246   9.990 -1.1207 -0.7329 -0.3922
  112bbb     C2 2794   7.861   5.338   9.816  1.4168 -0.5622 -0.5240
  112bbb     H3 2795   7.776   5.288   9.768 -1.6640 -0.6189  4.2999
  112bbb     H4 2796   7.867   5.437   9.769  1.3618  0.1221  0.8412
  112bbb     N1 2797   7.692   5.433   9.979  0.3349 -0.1772 -0.3743
  112bbb     C3 2798   7.712   5.576   9.968 -0.6621  0.2359  0.2652
  112bbb     H5 2799   7.788   5.601   9.894  0.9592  0.0628  1.7996
  112bbb     H6 2800   7.735   5.625  10.063 -0.7948 -1.3067  1.1386
  112bbb     C4 2801   7.611   5.395  10.091 -0.4527  0.4746 -0.3790
  112bbb     H7 2802   7.672   5.374  10.180  1.5850 -1.1296 -2.0454
  112bbb     H8 2803   7.534   5.469  10.113 -2.5597 -1.7277  0.0763
  112bbb     C5 2804   7.547   5.263  10.051  0.0809 -0.0234 -0.3121
  112bbb     H9 2805   7.528   5.263   9.943  0.8807  0.1303 -0.4645
  112bbb    H10 2806   7.614   5.179  10.073  0.1392 -0.7774 -3.0476
  112bbb     C6 2807   7.584   5.646   9.916  0.5772  0.2058  0.8661
  112bbb    H11 2808   7.550   5.600   9.823  1.0799  0.4088  0.5790
  112bbb    H12 2809   7.501   5.638   9.987  0.5246 -1.1495  0.6816
  112bbb     C7 2810   7.415   5.242  10.121  0.3699  0.1254  0.2578
  112bbb     C8 2811   7.615   5.787   9.903  0.2639  0.1755  0.1201
  112bbb     O1 2812   7.398   5.141  10.183 -0.3607 -0.5012 -0.2117
  112bbb     O2 2813   7.668   5.851   9.993 -0.4767  0.0826  0.2531
  112bbb     N4 2814   7.995   5.269   9.794  0.4151 -0.3057  0.6849
  112bbb    H21 2815   8.066   5.321   9.744  1.3563 -2.0023  0.1702
  113bbb     C1 2816   8.452   4.821  10.425 -0.3148  0.1441 -0.3252
  113bbb     H1 2817   8.406   4.730  10.386 -0.3457  1.2249 -2.9780
  113bbb     H2 2818   8.371   4.892  10.447  0.6638  1.3272 -0.4431
  113bbb     C2 2819   8.542   4.887  10.326  0.0646 -0.0941  0.8115
  113bbb     H3 2820   8.582   4.969  10.386 -1.3364  0.4391  1.0538
  113bbb     H4 2821   8.624   4.822  10.291  0.4064 -0.0422  1.5046
  113bbb     N1 2822   8.527   4.792  10.550 -0.4716  0.2833  1.0918
  113bbb     C3 2823   8.442   4.752  10.666 -0.2861  0.0220  0.0549
  113bbb     H5 2824   8.512   4.729  10.746  1.4309  2.4883 -0.6133
  113bbb     H6 2825   8.385   4.661  10.643  0.4813 -0.5743  0.4521
  113bbb     C4 2826   8.620   4.681  10.531 -0.4757  0.0935  0.5561
  113bbb     H7 2827   8.590   4.576  10.534  1.8112 -0.6022  0.9748
  113bbb     H8 2828   8.678   4.700  10.439 -0.9590 -0.1599  0.1939
  113bbb     C5 2829   8.736   4.694  10.631 -0.6001 -0.2287  0.1172
  113bbb     H9 2830   8.760   4.798  10.656 -1.5967 -0.0917  0.5710
  113bbb    H10 2831   8.708   4.645  10.726 -3.9462 -0.4642 -0.8446
  113bbb     C6 2832   8.364   4.875  10.713  0.2962 -0.2018  0.0578
  113bbb    H11 2833   8.436   4.954  10.739 -1.8170  1.6563  0.4777
  113bbb    H12 2834   8.289   4.912  10.642  0.4992  0.9927  0.4441
  113bbb     C7 2835   8.850   4.624  10.583 -0.3616 -0.0425  0.5181
  113bbb     C8 2836   8.284   4.829  10.833 -0.9186 -0.2766 -0.5310
  113bbb     O1 2837   8.841   4.522  10.515  0.0397  0.6439  0.4023
  113bbb     O2 2838   8.164   4.816  10.830  0.3506 -0.1072  0.4569
  113bbb     N4 2839   8.475   4.942  10.205  0.3056 -0.5942 -0.3365
  113bbb    H21 2840   8.401   4.894  10.155  1.3054 -0.8635 -1.6081
  114bbb     C1 2841   7.555   4.802  10.676 -0.3552  0.3313  0.4054
  114bbb     H1 2842   7.526   4.902  10.643  1.4102  0.7063 -0.1256
  114bbb     H2 2843   7.477   4.728  10.654 -0.5322  0.1638  1.5337
  114bbb     C2 2844   7.562   4.805  10.831  0.0499  0.0267 -0.1257
  114bbb     H3 2845   7.464   4.839  10.867 -1.6515 -2.6159 -1.8621
  114bbb     H4 2846   7.577   4.706  10.877  0.4489  0.2160  0.1587
  114bbb     N1 2847   7.686   4.764  10.617 -0.2046 -0.2237 -0.1524
  114bbb     C3 2848   7.666   4.773  10.474  1.0220  0.8713  0.0622
  114bbb     H5 2849   7.594   4.694  10.447  0.8346  1.2820 -0.6468
  114bbb     H6 2850   7.759   4.741  10.424  0.1602 -2.4189  0.2841
  114bbb     C4 2851   7.728   4.630  10.666 -0.3029  0.9874  0.8278
  114bbb     H7 2852   7.751   4.637  10.773  1.6321 -2.3312  0.7625
  114bbb     H8 2853   7.646   4.557  10.662 -0.9939  1.5988  2.9421
  114bbb     C5 2854   7.855   4.585  10.610  0.6586  0.3143 -0.4846
  114bbb     H9 2855   7.858   4.575  10.500  0.5120 -0.4879 -0.4240
  114bbb    H10 2856   7.929   4.663  10.632 -0.3695  1.1159  0.2033
  114bbb     C6 2857   7.612   4.906  10.417 -0.2693  0.0335  0.3226
  114bbb    H11 2858   7.511   4.934  10.447 -0.6020  0.7457 -1.3394
  114bbb    H12 2859   7.675   4.994  10.438  1.1035 -0.7542 -0.3002
  114bbb     C7 2860   7.908   4.455  10.671  0.5905  0.0521 -0.0487
  114bbb     C8 2861   7.602   4.898  10.267  0.6051  0.2991  1.0876
  114bbb     O1 2862   7.958   4.452  10.784 -0.2649  0.2290  0.4182
  114bbb     O2 2863   7.692   4.927  10.191 -0.2890  0.5199  0.5053
  114bbb     N4 2864   7.662   4.893  10.897 -0.0437  0.0508 -0.4083
  114bbb    H21 2865   7.743   4.845  10.937 -2.3343 -3.5825  0.3393
  115bbb     C1 2866   7.774   5.499  11.631 -0.1664 -0.1750  0.6180
  115bbb     H1 2867   7.858   5.509  11.702 -0.1407  2.1831  0.3278
  115bbb     H2 2868   7.766   5.399  11.587 -1.5200  0.5437 -0.8415
  115bbb     C2 2869   7.821   5.586  11.514 -0.2777  1.0036  0.1173
  115bbb     H3 2870   7.732   5.624  11.462 -0.1751  0.3327 -0.5580
  115bbb     H4 2871   7.874   5.671  11.559  0.7725  0.7430 -0.5997
  115bbb     N1 2872   7.650   5.542  11.704  0.0032  0.2384 -0.3385
  115bbb     C3 2873   7.669   5.677  11.767  0.2997  0.0823  0.1821
  115bbb     H5 2874   7.766   5.724  11.746 -0.4377  1.0150 -1.2996
  115bbb     H6 2875   7.653   5.678  11.875 -3.1307 -1.0727 -0.1881
  115bbb     C4 2876   7.613   5.437  11.798 -0.1673 -1.2999 -0.5695
  115bbb     H7 2877   7.642   5.337  11.764 -0.4458 -2.1003  1.3914
  115bbb     H8 2878   7.678   5.443  11.886  0.7732 -0.3584 -1.3040
  115bbb     C5 2879   7.475   5.436  11.850 -0.0716 -0.2201 -0.3334
  115bbb     H9 2880   7.471   5.522  11.918 -0.7793 -0.4125 -0.1288
  115bbb    H10 2881   7.411   5.460  11.764 -2.2560  0.6959  1.4603
  115bbb     C6 2882   7.561   5.770  11.715  1.1996  0.3463 -0.2006
  115bbb    H11 2883   7.560   5.788  11.606 -1.0701  0.8384 -0.1312
  115bbb    H12 2884   7.467   5.714  11.720  0.3311  1.8807  1.2417
  115bbb     C7 2885   7.439   5.308  11.916  0.0102 -0.0902  0.1158
  115bbb     C8 2886   7.545   5.904  11.786  0.1191  1.3664 -0.1235
  115bbb     O1 2887   7.512   5.222  11.965 -0.0758  0.1478  0.0033
  115bbb     O2 2888   7.615   6.000  11.760  0.2672  0.2011 -0.0701
  115bbb     N4 2889   7.907   5.513  11.417  0.0237  0.4309  0.9062
  115bbb    H21 2890   7.971   5.448  11.461  0.0575  0.0430  0.2810
  116bbb     C1 2891   7.928   5.204  10.407 -1.0362  0.9062 -0.4127
  116bbb     H1 2892   7.846   5.270  10.377 -1.2950 -0.1598 -2.1804
  116bbb     H2 2893   7.893   5.100  10.411  1.4466 -0.0076 -0.4058
  116bbb     C2 2894   7.976   5.240  10.549  0.0788  0.2059  0.0777
  116bbb     H3 2895   7.913   5.179  10.614 -0.1457  0.8573  0.4866
  116bbb     H4 2896   8.082   5.215  10.561 -0.5107 -1.9230  1.1861
  116bbb     N1 2897   8.038   5.206  10.309  0.1515  0.5574 -0.5739
  116bbb     C3 2898   8.044   5.344  10.260 -0.8563  0.2098 -0.0979
  116bbb     H5 2899   8.067   5.409  10.345 -1.9280  0.2764  0.1517
  116bbb     H6 2900   7.940   5.364  10.230 -2.1454 -0.8071  3.2730
  116bbb     C4 2901   8.013   5.105  10.209  0.2301 -0.6500  0.1827
  116bbb     H7 2902   7.906   5.090  10.193  0.4984 -0.8015 -1.6595
  116bbb     H8 2903   8.067   5.134  10.118 -0.4178  0.1337  0.0317
  116bbb     C5 2904   8.084   4.983  10.249  0.1544 -0.4802 -0.2939
  116bbb     H9 2905   8.191   4.992  10.271  0.8251 -0.3012 -3.2024
  116bbb    H10 2906   8.035   4.957  10.344  0.6712  2.3981  0.8553
  116bbb     C6 2907   8.159   5.361  10.158 -0.2322  0.6632 -0.8405
  116bbb    H11 2908   8.257   5.336  10.200 -1.3803  0.8017  2.2098
  116bbb    H12 2909   8.149   5.307  10.064  1.7403 -0.3564 -0.4951
  116bbb     C7 2910   8.086   4.866  10.154  0.4461 -0.1297 -0.2602
  116bbb     C8 2911   8.176   5.504  10.124  0.6397  0.4548  0.1511
  116bbb     O1 2912   8.195   4.811  10.126  0.5662 -0.5064 -0.4084
  116bbb     O2 2913   8.085   5.579  10.093 -0.2121 -0.0916  0.1061
  116bbb     N4 2914   7.949   5.377  10.592  0.2428  0.3112  0.1730
  116bbb    H21 2915   7.851   5.404  10.601 -0.3609 -1.4495 -0.6552
  117bbb     C1 2916   7.398   5.896  10.359 -0.3180  0.0853 -0.6995
  117bbb     H1 2917   7.460   5.977  10.398  0.4506 -1.1302  0.7370
  117bbb     H2 2918   7.389   5.835  10.450  0.4793 -0.5121 -1.0123
  117bbb     C2 2919   7.469   5.811  10.249 -0.7658  0.4236  0.1138
  117bbb     H3 2920   7.418   5.714  10.248  1.1260 -0.6654  1.8209
  117bbb     H4 2921   7.459   5.852  10.148 -2.5510  1.4441  0.6533
  117bbb     N1 2922   7.261   5.944  10.316  0.9548 -0.2360 -0.1866
  117bbb     C3 2923   7.155   5.844  10.289  0.2558 -0.7700 -0.7095
  117bbb     H5 2924   7.197   5.757  10.237  2.2743  0.0068 -0.4659
  117bbb     H6 2925   7.071   5.884  10.230 -2.0988 -1.7565  1.7124
  117bbb     C4 2926   7.267   6.039  10.207  0.0899  0.9718  0.2347
  117bbb     H7 2927   7.305   5.984  10.120 -0.3710  1.1634 -0.0921
  117bbb     H8 2928   7.168   6.078  10.179 -0.0406  0.3948 -0.1172
  117bbb     C5 2929   7.350   6.157  10.225 -0.2452  0.5328 -0.8067
  117bbb     H9 2930   7.311   6.213  10.310 -1.2334  0.1395 -0.9905
  117bbb    H10 2931   7.451   6.129  10.256 -1.9991 -2.4431  3.0763
  117bbb     C6 2932   7.107   5.795  10.422 -0.1855 -0.1025 -0.6464
  117bbb    H11 2933   7.089   5.687  10.412 -0.0515  0.0219 -2.4851
  117bbb    H12 2934   7.182   5.812  10.500  0.8361 -0.1852 -1.5945
  117bbb     C7 2935   7.340   6.242  10.104 -0.3246 -0.1957  0.7841
  117bbb     C8 2936   6.976   5.859  10.464 -0.6834 -0.3954  0.6363
  117bbb     O1 2937   7.384   6.210   9.996  0.0445 -0.0286 -0.5343
  117bbb     O2 2938   6.869   5.838  10.408  0.0836 -0.2092 -0.0669
  117bbb     N4 2939   7.612   5.796  10.278 -0.1447 -0.4906 -0.2450
  117bbb    H21 2940   7.678   5.857  10.231 -1.2293  1.0899  0.1936
  118bbb     C1 2941  10.194   4.509   7.942 -0.4278 -0.5215  0.3947
  118bbb     H1 2942  10.294   4.490   7.900  0.0356  2.4322 -0.0580
  118bbb     H2 2943  10.181   4.618   7.953  1.1716  0.0413 -2.3585
  118bbb     C2 2944  10.185   4.449   8.086  0.0516 -0.4310  0.7318
  118bbb     H3 2945  10.228   4.350   8.071 -0.4783 -0.4924 -0.5495
  118bbb     H4 2946  10.256   4.504   8.148 -0.1016  1.1486 -0.4121
  118bbb     N1 2947  10.085   4.468   7.851  0.2654  0.0463 -0.0344
  118bbb     C3 2948  10.080   4.320   7.828 -0.2330  0.0403  0.0292
  118bbb     H5 2949  10.003   4.282   7.760 -0.1276  0.3817 -0.2887
  118bbb     H6 2950  10.066   4.274   7.926 -0.0264  2.3305  1.2012
  118bbb     C4 2951  10.089   4.551   7.733  0.5059  0.0895  0.3146
  118bbb     H7 2952  10.105   4.656   7.761  1.5359 -0.6001  2.5700
  118bbb     H8 2953  10.165   4.514   7.663 -0.0604  1.1526 -0.9009
  118bbb     C5 2954   9.957   4.545   7.660  0.6071  0.8182 -0.2606
  118bbb     H9 2955   9.940   4.439   7.633  0.5601  1.0680 -1.2432
  118bbb    H10 2956   9.874   4.578   7.724  1.8834  1.5180  1.0768
  118bbb     C6 2957  10.212   4.267   7.771 -0.6177 -0.3036 -0.7331
  118bbb    H11 2958  10.231   4.294   7.666  2.4604  0.4765 -0.0581
  118bbb    H12 2959  10.299   4.289   7.833 -0.3393 -2.0475 -0.4501
  118bbb     C7 2960   9.962   4.620   7.536  0.7881  0.4990  0.0398
  118bbb     C8 2961  10.215   4.110   7.777  0.0163  0.0712 -0.2950
  118bbb     O1 2962  10.063   4.671   7.487 -0.3054 -0.2318  0.4083
  118bbb     O2 2963  10.218   4.056   7.885  0.2786 -0.0194  0.4759
  118bbb     N4 2964  10.052   4.457   8.155  0.4374 -0.0094  0.5728
  118bbb    H21 2965   9.969   4.459   8.098  0.7227 -0.6611  0.1185
  119bbb     C1 2966   9.274   3.948   8.675  0.5258 -0.3441 -0.2276
  119bbb     H1 2967   9.355   3.877   8.699  1.7106  1.1771  0.4673
  119bbb     H2 2968   9.258   3.955   8.567 -2.2470  0.0268  0.1287
  119bbb     C2 2969   9.313   4.092   8.732 -0.0002 -0.2242 -0.0822
  119bbb     H3 2970   9.217   4.140   8.755 -0.1374  0.4102 -1.8494
  119bbb     H4 2971   9.368   4.071   8.824 -1.0734 -0.2972  0.5613
  119bbb     N1 2972   9.144   3.900   8.740 -0.1815 -0.3518 -0.1446
  119bbb     C3 2973   9.029   3.973   8.692  0.0492 -0.1052  0.7031
  119bbb     H5 2974   9.049   4.032   8.602  2.1244 -0.5754  0.8007
  119bbb     H6 2975   8.977   4.041   8.761 -1.6779  1.3532 -1.9124
  119bbb     C4 2976   9.142   3.887   8.890  0.4978 -0.0796 -0.6630
  119bbb     H7 2977   9.153   3.980   8.946 -0.1274  0.1750 -0.9483
  119bbb     H8 2978   9.044   3.852   8.926  1.5069  1.1364  3.8561
  119bbb     C5 2979   9.243   3.788   8.944 -0.1374 -0.0089  0.5824
  119bbb     H9 2980   9.232   3.684   8.913  1.0600 -0.7269  2.4191
  119bbb    H10 2981   9.345   3.823   8.924  0.4466 -1.5003  0.8055
  119bbb     C6 2982   8.923   3.863   8.662  0.0259 -0.4915 -0.1808
  119bbb    H11 2983   8.958   3.803   8.578 -3.6362 -0.0544 -2.2104
  119bbb    H12 2984   8.913   3.801   8.752  0.4487  0.5822  0.6431
  119bbb     C7 2985   9.220   3.779   9.090  0.3720 -0.0672 -0.0709
  119bbb     C8 2986   8.787   3.919   8.617 -0.2944 -0.3594  0.5000
  119bbb     O1 2987   9.288   3.842   9.166  0.0293  0.9059 -0.2208
  119bbb     O2 2988   8.768   3.940   8.500  0.6012 -0.4626  0.4473
  119bbb     N4 2989   9.393   4.180   8.634  0.3847  0.2454 -0.9578
  119bbb    H21 2990   9.384   4.172   8.534  3.3364 -2.4351 -1.1812
  120bbb     C1 2991   8.716   6.019   7.232 -0.4163 -0.2365 -0.2654
  120bbb     H1 2992   8.765   6.081   7.156 -2.3606  1.7200 -0.0130
  120bbb     H2 2993   8.665   6.090   7.298  0.1003  0.3668 -0.5013
  120bbb     C2 2994   8.833   5.949   7.316  0.3468 -0.4241 -0.0666
  120bbb     H3 2995   8.880   5.872   7.254  1.2836  0.8526 -1.0082
  120bbb     H4 2996   8.900   6.033   7.339 -0.0351 -0.2971  0.6113
  120bbb     N1 2997   8.623   5.927   7.153 -0.6456  0.4048  0.3551
  120bbb     C3 2998   8.566   5.832   7.243  0.4179  0.3141 -0.4704
  120bbb     H5 2999   8.493   5.877   7.312  2.3443  0.6793  1.4301
  120bbb     H6 3000   8.645   5.781   7.299  0.9770 -1.2651 -2.5686
  120bbb     C4 3001   8.519   6.019   7.093  0.0639  0.3490 -0.1110
  120bbb     H7 3002   8.426   5.963   7.075 -1.4401  2.9843 -0.9949
  120bbb     H8 3003   8.491   6.101   7.159 -0.1067 -1.0620  1.6525
  120bbb     C5 3004   8.570   6.057   6.954 -0.2637  0.7969  0.0543
  120bbb     H9 3005   8.667   6.109   6.958  0.6905 -0.9304  2.0227
  120bbb    H10 3006   8.587   5.967   6.894  1.9416  1.0818  0.1387
  120bbb     C6 3007   8.491   5.717   7.172  0.1361 -0.0982  0.5056
  120bbb    H11 3008   8.420   5.669   7.240 -2.3457  3.2283  0.5058
  120bbb    H12 3009   8.439   5.745   7.080  2.5583  1.1002 -0.5945
  120bbb     C7 3010   8.469   6.128   6.882  0.1172 -0.2608  0.0506
  120bbb     C8 3011   8.586   5.612   7.118 -0.6036 -0.2234 -0.0226
  120bbb     O1 3012   8.362   6.160   6.932  0.1173  0.4705 -0.2053
  120bbb     O2 3013   8.633   5.527   7.192 -0.4092 -0.0765 -0.0905
  120bbb     N4 3014   8.804   5.892   7.450  0.4677  0.7263  0.4033
  120bbb    H21 3015   8.708   5.870   7.472 -0.3716  2.8370 -0.8977
  121bbb     C1 3016   8.250   5.736   8.042  0.7630 -0.3930 -0.1567
  121bbb     H1 3017   8.254   5.639   7.992  1.5655  0.2611 -1.4076
  121bbb     H2 3018   8.269   5.804   7.958 -0.6701  0.4225  0.1430
  121bbb     C2 3019   8.358   5.763   8.148 -0.5253  0.1173  0.6673
  121bbb     H3 3020   8.335   5.848   8.213 -1.1831  0.6307 -0.2139
  121bbb     H4 3021   8.365   5.684   8.225  0.1053  0.7622  1.2909
  121bbb     N1 3022   8.115   5.754   8.084 -0.1998 -0.4212  0.0656
  121bbb     C3 3023   8.076   5.666   8.189 -0.4811 -0.0419 -0.5238
  121bbb     H5 3024   8.162   5.620   8.240 -1.3028 -0.8464  0.1670
  121bbb     H6 3025   8.026   5.576   8.150 -1.1456 -0.0463  0.3106
  121bbb     C4 3026   8.010   5.751   7.975 -0.3492  0.4232  0.3630
  121bbb     H7 3027   8.042   5.678   7.900 -0.7405  1.7143 -1.1033
  121bbb     H8 3028   7.914   5.712   8.011 -1.7209 -0.0940 -3.3673
  121bbb     C5 3029   7.985   5.882   7.905 -0.2293 -0.3610 -0.5244
  121bbb     H9 3030   7.975   5.966   7.975 -3.5740 -0.2602 -0.9649
  121bbb    H10 3031   8.079   5.896   7.850 -0.2361 -1.9177 -0.9967
  121bbb     C6 3032   8.007   5.740   8.302 -0.2540  0.3592 -1.0191
  121bbb    H11 3033   7.984   5.677   8.389 -1.0552  0.0616 -1.4357
  121bbb    H12 3034   8.064   5.824   8.344  1.1782 -1.8952  1.9551
  121bbb     C7 3035   7.869   5.877   7.812 -0.1017 -0.0670  0.1776
  121bbb     C8 3036   7.867   5.785   8.263  0.6879  0.1337  0.2722
  121bbb     O1 3037   7.760   5.852   7.858 -0.1717 -0.2658 -0.0080
  121bbb     O2 3038   7.781   5.704   8.230  0.1353  0.3668 -0.1207
  121bbb     N4 3039   8.491   5.786   8.095 -0.1116 -0.1182  0.0103
  121bbb    H21 3040   8.529   5.879   8.085 -1.2999  0.4318  0.4597
  122bbb     C1 3041   9.655   6.422  10.148 -0.1982 -0.3364  0.3717
  122bbb     H1 3042   9.649   6.420  10.257 -0.9585  0.0309  0.3471
  122bbb     H2 3043   9.586   6.350  10.102 -0.0271 -1.2367  1.4822
  122bbb     C2 3044   9.800   6.394  10.114 -1.0351 -0.0949 -0.6790
  122bbb     H3 3045   9.857   6.487  10.101 -2.1682  0.4191 -2.2796
  122bbb     H4 3046   9.838   6.340  10.201 -1.8211 -0.7093 -0.7100
  122bbb     N1 3047   9.620   6.555  10.103  0.8376  0.4110 -0.0932
  122bbb     C3 3048   9.593   6.556   9.961  0.0021  0.3078  0.3387
  122bbb     H5 3049   9.490   6.520   9.945 -0.4926  1.4542  0.8793
  122bbb     H6 3050   9.657   6.488   9.904 -0.7253  0.3433 -0.5421
  122bbb     C4 3051   9.521   6.619  10.186  0.4822 -0.5504  0.0808
  122bbb     H7 3052   9.458   6.690  10.132  0.3597  0.0362  0.9725
  122bbb     H8 3053   9.456   6.543  10.232  1.9634 -2.7068 -1.1888
  122bbb     C5 3054   9.602   6.682  10.297 -0.3326 -0.3986  0.0466
  122bbb     H9 3055   9.684   6.619  10.333 -0.9501 -0.7589  0.8659
  122bbb    H10 3056   9.645   6.774  10.255  0.3512 -1.5246 -1.8625
  122bbb     C6 3057   9.617   6.707   9.917  0.4686 -0.1047  0.2635
  122bbb    H11 3058   9.554   6.777   9.973 -3.5238 -1.0867 -2.4761
  122bbb    H12 3059   9.718   6.746   9.929  0.5868 -0.7096  1.3619
  122bbb     C7 3060   9.526   6.705  10.420  0.1081  0.3263  0.0002
  122bbb     C8 3061   9.580   6.724   9.773 -0.3801  0.4099  0.4504
  122bbb     O1 3062   9.439   6.787  10.421 -0.3577 -0.0888  0.6930
  122bbb     O2 3063   9.513   6.639   9.712 -0.2548 -0.3500 -0.4020
  122bbb     N4 3064   9.819   6.311   9.991  0.0474 -0.1287 -0.3517
  122bbb    H21 3065   9.749   6.242   9.967  1.3730 -0.7602 -2.7249
  123bbb     C1 3066  10.145   6.540   9.137  0.0485  0.0978 -0.1837
  123bbb     H1 3067  10.062   6.598   9.094  1.0778  0.0369 -2.3721
  123bbb     H2 3068  10.224   6.531   9.062  0.9851 -0.1548  0.8163
  123bbb     C2 3069  10.090   6.394   9.162  0.5260 -0.1223 -0.2918
  123bbb     H3 3070  10.015   6.369   9.085  0.7214 -1.7987  0.0352
  123bbb     H4 3071  10.165   6.320   9.134  1.9341  0.8030  0.8707
  123bbb     N1 3072  10.205   6.610   9.252 -0.6784  0.5483 -0.3191
  123bbb     C3 3073  10.226   6.749   9.225 -1.0861  0.0766  0.3225
  123bbb     H5 3074  10.264   6.764   9.124 -2.3489  1.4915  0.0212
  123bbb     H6 3075  10.305   6.781   9.294  0.2248  0.3032 -1.2285
  123bbb     C4 3076  10.320   6.546   9.301 -0.5546  0.5086 -0.8530
  123bbb     H7 3077  10.305   6.438   9.313 -0.5612  0.6258  0.3146
  123bbb     H8 3078  10.409   6.573   9.243  2.0158  1.6030  3.1773
  123bbb     C5 3079  10.343   6.586   9.446  0.8947  0.0494 -0.0089
  123bbb     H9 3080  10.430   6.532   9.486  1.0007  1.1839  1.3886
  123bbb    H10 3081  10.383   6.688   9.456 -1.6038  1.2282 -1.1113
  123bbb     C6 3082  10.101   6.829   9.250 -0.2731 -0.1001 -0.0484
  123bbb    H11 3083  10.043   6.836   9.157 -1.1138 -1.3068  0.3598
  123bbb    H12 3084  10.048   6.774   9.328  0.8032  1.3335  1.7645
  123bbb     C7 3085  10.229   6.565   9.543  0.5887 -0.4496  0.4162
  123bbb     C8 3086  10.148   6.964   9.305  0.7882  0.0390 -0.5055
  123bbb     O1 3087  10.171   6.459   9.560  0.7320  0.7050 -0.1795
  123bbb     O2 3088  10.155   6.980   9.428  0.0956  0.2018  0.9099
  123bbb     N4 3089  10.029   6.357   9.299 -0.3637  0.2268  0.2230
  123bbb    H21 3090  10.078   6.380   9.384  1.5798 -1.6181 -0.3123
  124bbb     C1 3091   9.194   6.120  10.673  0.4015 -0.2181 -0.0329
  124bbb     H1 3092   9.247   6.177  10.595 -2.5632  2.2369 -0.4652
  124bbb     H2 3093   9.267   6.126  10.754  1.7523  1.6849 -1.2980
  124bbb     C2 3094   9.158   5.972  10.636 -0.7292 -0.6184  0.4180
  124bbb     H3 3095   9.137   5.910  10.724 -0.7553 -4.2866 -1.9575
  124bbb     H4 3096   9.062   5.966  10.584 -0.9250  0.1308  0.6825
  124bbb     N1 3097   9.078   6.199  10.714 -0.2569 -0.0885 -0.3501
  124bbb     C3 3098   9.030   6.159  10.845  0.5695 -0.0029 -0.3525
  124bbb     H5 3099   9.068   6.230  10.919 -1.9164  2.0848 -0.9171
  124bbb     H6 3100   9.064   6.061  10.882  0.9544  0.1384 -0.3356
  124bbb     C4 3101   9.095   6.347  10.705 -0.2698  0.4880 -0.3740
  124bbb     H7 3102   9.013   6.409  10.744 -0.0852  0.9152 -0.6592
  124bbb     H8 3103   9.188   6.385  10.748  0.2051  0.2602 -1.1822
  124bbb     C5 3104   9.095   6.384  10.559 -0.3164 -0.2990 -0.4847
  124bbb     H9 3105   9.162   6.324  10.495  0.0332  0.0027 -0.4052
  124bbb    H10 3106   8.993   6.384  10.518 -0.1394 -0.8336 -0.9483
  124bbb     C6 3107   8.884   6.174  10.854 -0.5056 -0.1953 -0.4728
  124bbb    H11 3108   8.856   6.275  10.823  0.8283 -0.3597 -2.4229
  124bbb    H12 3109   8.837   6.108  10.780 -0.8696  0.9321 -1.2762
  124bbb     C7 3110   9.155   6.521  10.541 -0.2468  0.8065  0.2520
  124bbb     C8 3111   8.846   6.131  10.991 -0.0658 -0.0176 -0.4968
  124bbb     O1 3112   9.270   6.536  10.502 -0.3945  0.3786  0.2645
  124bbb     O2 3113   8.889   6.032  11.046  0.1953 -0.0860 -0.2843
  124bbb     N4 3114   9.263   5.906  10.556 -0.2906  0.1973  0.0426
  124bbb    H21 3115   9.247   5.918  10.457 -1.8360 -1.8672 -0.0158
  125bbb     C1 3116   9.999   5.964  10.168  0.2698 -0.8061  0.2313
  125bbb     H1 3117   9.935   6.017  10.097 -0.9187 -1.3954  0.8421
  125bbb     H2 3118  10.024   5.869  10.120  0.4565 -1.1021  0.9125
  125bbb     C2 3119   9.916   5.925  10.299  0.1642 -0.2753  0.4740
  125bbb     H3 3120   9.976   5.912  10.390  0.4429 -3.4418 -0.0297
  125bbb     H4 3121   9.857   6.011  10.331 -0.4745 -0.2202 -0.7811
  125bbb     N1 3122  10.122   6.043  10.202  0.0967 -0.3066 -0.3808
  125bbb     C3 3123  10.081   6.172  10.255 -0.4953 -0.1053 -1.0705
  125bbb     H5 3124  10.005   6.155  10.332  1.2339  0.8743  0.9617
  125bbb     H6 3125  10.034   6.233  10.177 -0.6998  0.6660 -0.3662
  125bbb     C4 3126  10.213   6.062  10.088 -0.7519  0.6411 -0.2901
  125bbb     H7 3127  10.149   6.096  10.006  2.2183  1.3824 -2.4866
  125bbb     H8 3128  10.294   6.132  10.108  0.1760 -1.2103  3.1708
  125bbb     C5 3129  10.276   5.932  10.052  0.3944 -0.2290 -0.0143
  125bbb     H9 3130  10.203   5.859  10.014  0.4012 -1.1449  1.6206
  125bbb    H10 3131  10.352   5.946   9.975 -0.6055  0.2596 -0.9395
  125bbb     C6 3132  10.184   6.258  10.330  0.5587  0.5279  0.2288
  125bbb    H11 3133  10.261   6.297  10.263  3.8223 -0.8415  2.8731
  125bbb    H12 3134  10.140   6.337  10.392  3.4079  1.3553  1.3371
  125bbb     C7 3135  10.339   5.874  10.175 -0.2173 -0.5407  1.5774
  125bbb     C8 3136  10.268   6.168  10.421  0.2779  0.2848 -0.1442
  125bbb     O1 3137  10.440   5.924  10.214 -0.8268 -0.4278  0.4083
  125bbb     O2 3138  10.216   6.092  10.491 -0.1288  0.3238 -0.2944
  125bbb     N4 3139   9.828   5.812  10.275 -0.6933  0.1474 -0.3145
  125bbb    H21 3140   9.728   5.824  10.262 -0.4200  0.3019 -2.6818
  126ccc     N1 3141   8.747   2.807   6.388  0.3539  0.0273 -0.3071
  126ccc     H4 3142   8.794   2.740   6.329 -1.1381 -0.9538 -0.4078
  126ccc     C3 3143   8.613   2.841   6.351  0.1728 -0.5785 -0.3516
  126ccc     C4 3144   8.529   2.735   6.273  0.5371  0.6622 -0.1563
  126ccc     H5 3145   8.607   2.930   6.287 -1.4055 -1.5652 -1.6626
  126ccc     H6 3146   8.554   2.860   6.442  0.8293  1.1899 -0.2727
  126ccc     H7 3147   8.429   2.775   6.250 -0.0710  0.9653  2.6558
  126ccc     H8 3148   8.568   2.716   6.173 -1.0522  0.9493 -0.8765
  126ccc     N2 3149   8.504   2.596   6.340 -0.8764 -0.2963  0.1413
  126ccc     H9 3150   8.593   2.550   6.365  0.0092  1.7924  1.0622
  126ccc    H10 3151   8.455   2.595   6.430  1.0410 -0.0779  1.2475
  126ccc    H11 3152   8.455   2.534   6.274  0.9839 -4.3121  2.1363
  127ccc     N1 3153   9.225   2.999   6.059  0.1570  0.1750 -0.1604
  127ccc     H4 3154   9.193   3.086   6.099  2.0955 -0.4130  3.0051
  127ccc     C3 3155   9.252   2.978   5.916  1.1199 -0.3551 -0.1347
  127ccc     C4 3156   9.227   3.103   5.824  0.6021  0.8362 -0.5663
  127ccc     H5 3157   9.188   2.897   5.879  0.8316 -1.0518  1.7819
  127ccc     H6 3158   9.357   2.950   5.898  0.9038  0.4026 -3.0169
  127ccc     H7 3159   9.254   3.079   5.721  1.6173 -0.8034  0.0403
  127ccc     H8 3160   9.120   3.123   5.818  0.6102  0.6245 -1.7334
  127ccc     N2 3161   9.303   3.229   5.870  0.7263 -0.0162 -0.0054
  127ccc     H9 3162   9.349   3.281   5.795 -1.1119  1.0419 -0.4552
  127ccc    H10 3163   9.265   3.288   5.945 -2.3668 -3.4226  1.4616
  127ccc    H11 3164   9.380   3.187   5.924  0.3980 -0.5693  0.0477
  128ccc     N1 3165   8.523   4.150   7.165 -0.1344  0.3135 -0.3190
  128ccc     H4 3166   8.570   4.232   7.128  0.9764 -0.6838 -1.1734
  128ccc     C3 3167   8.377   4.143   7.185  0.5926  0.5678  0.3133
  128ccc     C4 3168   8.315   4.279   7.198 -0.0915 -0.3762 -0.0598
  128ccc     H5 3169   8.374   4.084   7.278  0.3595 -2.1166 -1.2719
  128ccc     H6 3170   8.326   4.076   7.115  1.5564 -0.0095  0.1330
  128ccc     H7 3171   8.218   4.279   7.248 -0.6090 -1.2036 -1.0429
  128ccc     H8 3172   8.383   4.345   7.253  0.1296  1.5693 -2.4902
  128ccc     N2 3173   8.284   4.344   7.063  0.5559 -0.2945  0.6026
  128ccc     H9 3174   8.187   4.380   7.062  0.4354 -0.5969  1.0415
  128ccc    H10 3175   8.353   4.406   7.019 -0.3307 -1.5361 -2.8582
  128ccc    H11 3176   8.273   4.273   6.988  0.8874  0.8148 -0.5345
  129ccc     N1 3177   8.975   4.533   7.530 -0.6268  0.0351 -0.9503
  129ccc     H4 3178   8.890   4.506   7.579 -0.2511 -0.3395 -0.4985
  129ccc     C3 3179   9.014   4.669   7.500 -0.9726  0.6688 -0.1751
  129ccc     C4 3180   8.907   4.769   7.533  0.2872 -0.5116  0.2673
  129ccc     H5 3181   9.035   4.682   7.393 -0.6928  1.2912 -0.0472
  129ccc     H6 3182   9.113   4.687   7.543  0.6274  0.0829 -3.3261
  129ccc     H7 3183   8.810   4.741   7.493  0.9974 -0.6974 -1.4022
  129ccc     H8 3184   8.904   4.773   7.642  0.1299 -1.1450  0.2886
  129ccc     N2 3185   8.921   4.907   7.484 -0.3367 -0.2144  0.2786
  129ccc     H9 3186   8.863   4.973   7.538 -0.4623 -0.5324  0.5363
  129ccc    H10 3187   9.016   4.946   7.474 -1.2806  2.4876  0.8883
  129ccc    H11 3188   8.898   4.907   7.383  1.7081  2.3238 -0.3104
  130ccc     N1 3189  10.286   3.267   5.456 -0.2816  0.1911  0.4883
  130ccc     H4 3190  10.273   3.188   5.518 -0.7372 -0.2286 -0.1305
  130ccc     C3 3191  10.347   3.259   5.319  0.5702  0.2692  0.0623
  130ccc     C4 3192  10.412   3.116   5.290 -0.2851  0.5601  0.2675
  130ccc     H5 3193  10.421   3.340   5.326 -0.6844  1.4107  0.7376
  130ccc     H6 3194  10.278   3.296   5.242 -0.6048  0.5000  1.1819
  130ccc     H7 3195  10.491   3.103   5.365  2.1903 -1.9723 -2.5054
  130ccc     H8 3196  10.344   3.033   5.305  0.2197  0.2218  0.7193
  130ccc     N2 3197  10.478   3.103   5.153  0.7511 -0.2016  0.1317
  130ccc     H9 3198  10.405   3.092   5.082  2.3441  1.0311 -1.8144
  130ccc    H10 3199  10.533   3.185   5.124  2.4448 -1.0879  0.6323
  130ccc    H11 3200  10.536   3.018   5.148 -0.2141 -0.7995 -2.2175
  131ccc     N1 3201  10.503   3.800   5.973  0.3430 -0.0427  0.8687
  131ccc     H4 3202  10.526   3.752   5.887  0.4105  0.1775  0.7627
  131ccc     C3 3203  10.616   3.871   6.037  1.3178 -0.1952 -0.5084
  131ccc     C4 3204  10.742   3.880   5.956  0.2860 -0.0661 -0.3921
  131ccc     H5 3205  10.645   3.823   6.132  0.5803 -0.6456 -0.5041
  131ccc     H6 3206  10.573   3.970   6.056 -0.3102 -0.9939  0.2146
  131ccc     H7 3207  10.826   3.910   6.020  2.2855  0.6274 -3.1600
  131ccc     H8 3208  10.771   3.786   5.910  1.9742 -0.3429  1.0750
  131ccc     N2 3209  10.734   3.967   5.838  0.3652  0.0165  0.0014
  131ccc     H9 3210  10.679   3.925   5.762  0.7452 -0.5995  0.0564
  131ccc    H10 3211  10.709   4.058   5.878 -1.0432 -1.4908  2.8872
  131ccc    H11 3212  10.833   3.971   5.810  0.8419 -1.6286  1.2552
  132ccc     N1 3213   8.734   2.970   5.831  0.0156  0.5846  0.1993
  132ccc     H4 3214   8.652   3.029   5.836 -0.3311  0.0836  0.5070
  132ccc     C3 3215   8.753   2.866   5.731  0.7654 -0.4944 -0.0826
  132ccc     C4 3216   8.624   2.836   5.648  0.1919  0.6375 -0.3467
  132ccc     H5 3217   8.772   2.775   5.790  1.0494  0.0959  0.7570
  132ccc     H6 3218   8.834   2.885   5.659 -0.2554 -1.7961 -1.6468
  132ccc     H7 3219   8.644   2.750   5.583  1.4587 -0.9530  2.0146
  132ccc     H8 3220   8.539   2.814   5.713  0.5071  1.8082  0.4996
  132ccc     N2 3221   8.579   2.953   5.563 -0.1236 -0.1560  0.3547
  132ccc     H9 3222   8.515   2.906   5.498  2.0312 -1.1723 -1.1522
  132ccc    H10 3223   8.524   3.027   5.609 -0.7529  0.5333 -1.4185
  132ccc    H11 3224   8.662   2.993   5.517 -0.7296  1.9193  0.9362
  133ccc     N1 3225   8.803   3.263   6.667  0.8130 -0.4311  0.8229
  133ccc     H4 3226   8.716   3.296   6.625  0.2109 -0.6703  1.8508
  133ccc     C3 3227   8.784   3.181   6.784 -0.4642  0.4131  0.3973
  133ccc     C4 3228   8.647   3.179   6.831  0.5088 -0.8415 -0.3915
  133ccc     H5 3229   8.845   3.216   6.868 -0.3565  1.1382  0.0248
  133ccc     H6 3230   8.823   3.079   6.770  0.7763  1.2142 -2.8012
  133ccc     H7 3231   8.638   3.151   6.936  0.1138  0.4632 -0.0578
  133ccc     H8 3232   8.607   3.281   6.827 -1.7829 -1.6576  0.0089
  133ccc     N2 3233   8.555   3.082   6.766  0.5108  0.1641  0.4759
  133ccc     H9 3234   8.567   2.988   6.807  0.1994 -0.1563 -0.1525
  133ccc    H10 3235   8.457   3.101   6.788  0.0656 -2.5692  1.2255
  133ccc    H11 3236   8.566   3.069   6.664 -1.6254 -0.2650  0.2621
  134ccc     N1 3237   9.593   6.460   7.490  0.0117  0.4807 -0.0587
  134ccc     H4 3238   9.496   6.481   7.512 -0.1035 -0.1379  0.0453
  134ccc     C3 3239   9.695   6.565   7.503  0.1776 -0.5668 -0.6477
  134ccc     C4 3240   9.615   6.689   7.529  1.1851  0.4661  0.1617
  134ccc     H5 3241   9.749   6.567   7.407  0.1474 -2.4671 -0.7388
  134ccc     H6 3242   9.756   6.540   7.590  0.8618  0.0593 -0.9311
  134ccc     H7 3243   9.538   6.709   7.454  0.9626 -1.3940 -0.1670
  134ccc     H8 3244   9.580   6.678   7.632  2.1656  0.0108  0.4601
  134ccc     N2 3245   9.695   6.811   7.525 -0.2999 -0.3969  0.3485
  134ccc     H9 3246   9.650   6.887   7.580  0.1558 -0.5244  0.9097
  134ccc    H10 3247   9.794   6.799   7.551  0.1629 -0.1101 -1.2061
  134ccc    H11 3248   9.709   6.843   7.428  2.7587 -1.6544  0.2564
  135ccc     N1 3249   9.939   5.819   7.344 -0.2269  0.0211  0.0502
  135ccc     H4 3250   9.921   5.901   7.287  2.3218 -0.4570 -1.6010
  135ccc     C3 3251   9.997   5.700   7.277  0.2249  0.2884 -0.2171
  135ccc     C4 3252  10.085   5.748   7.163 -0.1765  0.0127 -0.1299
  135ccc     H5 3253   9.920   5.631   7.239  0.4017 -0.2716  0.4111
  135ccc     H6 3254  10.048   5.626   7.341 -1.0818 -0.4126  0.0573
  135ccc     H7 3255  10.182   5.781   7.203 -0.0936  0.4037 -0.6406
  135ccc     H8 3256  10.104   5.655   7.110 -0.0829 -0.2716  0.3955
  135ccc     N2 3257  10.024   5.845   7.062 -0.0176 -0.0703  0.3373
  135ccc     H9 3258  10.021   5.941   7.101  1.6120  0.1203  0.0653
  135ccc    H10 3259  10.090   5.851   6.983  1.2993  2.6117  1.4879
  135ccc    H11 3260   9.935   5.814   7.021  0.9911 -2.6185 -0.0687
  136ccc     N1 3261  10.263   5.991   8.314 -0.2084 -0.2079  0.3198
  136ccc     H4 3262  10.194   6.059   8.286  0.4797  1.4256  2.3988
  136ccc     C3 3263  10.406   6.034   8.279 -0.0254  0.3489 -0.6490
  136ccc     C4 3264  10.464   6.101   8.399 -0.0718 -0.6966 -0.1423
  136ccc     H5 3265  10.407   6.095   8.189 -1.2610 -1.9052 -2.2953
  136ccc     H6 3266  10.471   5.951   8.248 -0.2096 -0.0788  0.0828
  136ccc     H7 3267  10.559   6.140   8.363 -1.1802  0.4913 -1.9410
  136ccc     H8 3268  10.392   6.170   8.444  0.9608 -0.5343  1.3233
  136ccc     N2 3269  10.508   6.005   8.510 -0.6489  0.6193 -0.2604
  136ccc     H9 3270  10.569   6.052   8.578 -1.8363  2.0517 -0.1317
  136ccc    H10 3271  10.430   5.964   8.563  0.2960 -2.6748 -1.2200
  136ccc    H11 3272  10.563   5.926   8.475  0.2041  0.5603  1.1884
  137ccc     N1 3273   9.523   5.920   8.345 -0.0027 -0.1216 -0.4514
  137ccc     H4 3274   9.549   5.891   8.252 -2.2467  0.6716 -1.4143
  137ccc     C3 3275   9.431   6.034   8.339  0.0121  0.0202  0.0074
  137ccc     C4 3276   9.293   6.002   8.284 -0.7815  0.3174 -0.5167
  137ccc     H5 3277   9.478   6.109   8.274 -1.2356 -0.1865 -1.1859
  137ccc     H6 3278   9.423   6.082   8.437  0.6396 -0.4927  0.3097
  137ccc     H7 3279   9.247   5.926   8.347  0.6043 -1.0144 -1.0340
  137ccc     H8 3280   9.240   6.097   8.295  0.3700  0.9984 -0.6254
  137ccc     N2 3281   9.289   5.973   8.137 -0.1945 -0.6072 -0.4595
  137ccc     H9 3282   9.383   5.989   8.100  0.0606 -1.0023  0.0102
  137ccc    H10 3283   9.271   5.872   8.122 -3.7361 -0.2529  0.3679
  137ccc    H11 3284   9.215   6.031   8.096  1.5276  2.7319  0.8100
  138ccc     N1 3285   7.364   5.666   7.805  0.2156  0.0181  0.1359
  138ccc     H4 3286   7.372   5.756   7.760 -1.0425 -0.4914 -1.1704
  138ccc     C3 3287   7.278   5.678   7.918  0.9415 -0.0746  0.2216
  138ccc     C4 3288   7.122   5.653   7.890 -0.6632 -0.1004 -0.8141
  138ccc     H5 3289   7.287   5.784   7.944 -0.9304  0.8637 -2.4505
  138ccc     H6 3290   7.312   5.613   7.999 -1.3799 -0.8040  0.6997
  138ccc     H7 3291   7.071   5.647   7.987 -0.1344  1.5134 -0.4113
  138ccc     H8 3292   7.073   5.735   7.837  1.1381  2.6737  1.5170
  138ccc     N2 3293   7.091   5.524   7.817 -0.9432  0.1825 -0.0099
  138ccc     H9 3294   7.120   5.436   7.861  2.3146  1.1302  0.0226
  138ccc    H10 3295   6.988   5.523   7.818 -0.9492  0.2690  1.4029
  138ccc    H11 3296   7.120   5.524   7.718  0.9278  0.2459  0.4983
  139ccc     N1 3297   7.914   5.429   7.121  0.1418  0.3250  0.0496
  139ccc     H4 3298   8.006   5.424   7.165  1.2072 -2.3039 -2.1698
  139ccc     C3 3299   7.903   5.407   6.976  0.5662  1.0496  0.4425
  139ccc     C4 3300   7.914   5.259   6.941  0.5909  0.3701 -0.9576
  139ccc     H5 3301   7.983   5.457   6.920 -0.6320  1.6017 -0.8405
  139ccc     H6 3302   7.808   5.448   6.939  0.3659  0.9283  0.8139
  139ccc     H7 3303   7.913   5.253   6.832 -0.5486  1.7431 -1.0573
  139ccc     H8 3304   8.000   5.212   6.988  1.1978  1.0702 -1.3497
  139ccc     N2 3305   7.794   5.160   6.975  0.5296  0.1426 -0.0278
  139ccc     H9 3306   7.704   5.204   6.950 -2.0626 -2.3947  3.7345
  139ccc    H10 3307   7.800   5.071   6.923 -0.6223  1.4720 -2.6325
  139ccc    H11 3308   7.789   5.133   7.074  0.7659 -0.0855 -0.0746
  140ccc     N1 3309   7.673   5.105   7.897  0.5566  0.2673 -0.0868
  140ccc     H4 3310   7.657   5.108   7.797  2.4177  0.2044 -0.4304
  140ccc     C3 3311   7.638   5.223   7.972  0.4508  0.3796  0.7140
  140ccc     C4 3312   7.499   5.208   8.032  0.5277  0.6565  0.1194
  140ccc     H5 3313   7.625   5.304   7.900  0.6060  1.4381  1.8523
  140ccc     H6 3314   7.715   5.246   8.046 -0.8848  2.3257  1.5875
  140ccc     H7 3315   7.422   5.184   7.959  1.0756 -0.8287 -0.0030
  140ccc     H8 3316   7.506   5.134   8.112 -1.1654  1.1613  0.7799
  140ccc     N2 3317   7.448   5.337   8.094  1.0002 -0.6093 -0.0170
  140ccc     H9 3318   7.358   5.330   8.143  1.6753  1.1160  1.5767
  140ccc    H10 3319   7.510   5.369   8.170  1.1991 -1.8317  0.3620
  140ccc    H11 3320   7.439   5.416   8.030  0.7842  0.0323  0.7848
  141ccc     N1 3321   8.182   4.861   7.295 -0.3368 -0.2350 -0.8178
  141ccc     H4 3322   8.237   4.783   7.330 -0.3900 -0.1458 -0.5299
  141ccc     C3 3323   8.185   4.884   7.154  0.3353 -0.2860  0.2778
  141ccc     C4 3324   8.327   4.869   7.100 -0.9795 -0.8035  0.4955
  141ccc     H5 3325   8.153   4.986   7.130  0.0178 -0.2860  0.6826
  141ccc     H6 3326   8.116   4.817   7.101  1.2055 -0.1023 -1.1283
  141ccc     H7 3327   8.387   4.789   7.145 -1.8913 -1.7223  0.1021
  141ccc     H8 3328   8.327   4.841   6.995  1.6419 -0.5844  0.3568
  141ccc     N2 3329   8.418   4.987   7.111  0.9289  0.0915  0.3577
  141ccc     H9 3330   8.376   5.074   7.074 -2.1094 -0.9180  1.1675
  141ccc    H10 3331   8.419   5.004   7.213  0.0320 -0.2771  0.4338
  141ccc    H11 3332   8.511   4.946   7.093 -0.5006 -3.5907  0.5429
  142ccc     N1 3333  11.974   4.314   7.813  0.3142  0.1036  0.1279
  142ccc     H4 3334  11.926   4.388   7.862 -0.3896  0.7518 -1.4809
  142ccc     C3 3335  11.960   4.302   7.668 -0.0241  0.5916  0.3106
  142ccc     C4 3336  11.916   4.431   7.592  0.3167 -0.4050 -0.4102
  142ccc     H5 3337  11.881   4.230   7.640  1.4294 -1.3253  0.9116
  142ccc     H6 3338  12.054   4.268   7.623 -0.0494 -0.7873  1.2338
  142ccc     H7 3339  11.929   4.408   7.486  1.7637  0.1247 -0.3730
  142ccc     H8 3340  11.813   4.465   7.606  1.2617  2.2069  0.8185
  142ccc     N2 3341  12.001   4.546   7.627 -0.1222 -0.2934  0.2280
  142ccc     H9 3342  11.985   4.634   7.577  1.4541 -1.3931 -2.3827
  142ccc    H10 3343  12.006   4.569   7.728  0.3514  2.2382 -0.3080
  142ccc    H11 3344  12.097   4.537   7.592  0.4651  0.2231  1.6362
  143ccc     N1 3345  12.117   3.849   8.403 -0.5780  0.7576  0.2561
  143ccc     H4 3346  12.177   3.923   8.368  1.8711 -0.8276  0.8141
  143ccc     C3 3347  12.180   3.728   8.448 -0.3715  0.0306 -0.0397
  143ccc     C4 3348  12.330   3.696   8.411  0.2583  0.2373 -0.0467
  143ccc     H5 3349  12.123   3.645   8.405  1.8450 -1.4029 -0.3649
  143ccc     H6 3350  12.172   3.723   8.557  0.3682  1.2434  0.0862
  143ccc     H7 3351  12.335   3.591   8.438 -0.5487  0.3094  0.4020
  143ccc     H8 3352  12.337   3.721   8.305 -1.3418  1.4744  0.1070
  143ccc     N2 3353  12.437   3.773   8.494  0.7420  0.6487  0.4300
  143ccc     H9 3354  12.443   3.875   8.481  3.2057  0.6347  0.9500
  143ccc    H10 3355  12.436   3.747   8.594  2.3485  1.7774  0.7705
  143ccc    H11 3356  12.532   3.743   8.469  1.2507  1.3845  1.3914
  144ccc     N1 3357  11.692   3.626   7.921 -0.3449 -0.3018 -0.8965
  144ccc     H4 3358  11.615   3.642   7.858 -1.0881 -1.6180 -0.3609
  144ccc     C3 3359  11.809   3.589   7.840  0.6070  0.5012 -0.7520
  144ccc     C4 3360  11.796   3.457   7.762  0.1056  0.3294  0.1279
  144ccc     H5 3361  11.895   3.586   7.909 -0.7013  1.4261  0.9998
  144ccc     H6 3362  11.833   3.674   7.775 -0.1862  0.9239 -0.5075
  144ccc     H7 3363  11.897   3.420   7.741  0.6174  1.4540  0.5372
  144ccc     H8 3364  11.736   3.374   7.798 -0.9831  0.2952 -1.6467
  144ccc     N2 3365  11.731   3.491   7.628 -0.2844 -0.1204 -0.2299
  144ccc     H9 3366  11.632   3.515   7.641  0.0956  0.7580  1.3189
  144ccc    H10 3367  11.791   3.566   7.591  0.8387 -1.0462 -0.3427
  144ccc    H11 3368  11.722   3.414   7.560 -1.9748  0.5236 -0.7816
  145ccc     N1 3369  11.004   3.820   8.151  0.3991 -0.2537  0.5829
  145ccc     H4 3370  11.067   3.879   8.098 -0.6853 -0.7481 -1.3332
  145ccc     C3 3371  10.877   3.782   8.091 -0.2435  0.2339  0.2330
  145ccc     C4 3372  10.859   3.834   7.947  0.1688  0.7977 -0.0402
  145ccc     H5 3373  10.796   3.817   8.156 -0.6266 -0.2038 -0.0042
  145ccc     H6 3374  10.872   3.673   8.097  2.3610  0.0578  0.7431
  145ccc     H7 3375  10.923   3.778   7.880 -0.6069 -0.5020  0.2656
  145ccc     H8 3376  10.755   3.812   7.923  0.6603 -0.2403 -1.3256
  145ccc     N2 3377  10.889   3.975   7.923 -0.4140  0.3080 -0.0005
  145ccc     H9 3378  10.991   3.983   7.917  0.0024 -2.9224  0.9420
  145ccc    H10 3379  10.855   4.008   7.832  2.4746  0.3532 -1.1513
  145ccc    H11 3380  10.853   4.044   7.992 -0.2235 -1.8015  2.3606
  146ccc     N1 3381  10.005   4.776   9.692 -0.0434  0.1864 -0.3945
  146ccc     H4 3382  10.090   4.772   9.745 -0.1462 -1.5318 -0.2987
  146ccc     C3 3383   9.923   4.896   9.665  0.2503 -0.6260 -0.5753
  146ccc     C4 3384  10.011   5.019   9.630  0.2304  0.2124  0.5747
  146ccc     H5 3385   9.842   4.914   9.738  0.0851  0.3205 -0.9726
  146ccc     H6 3386   9.877   4.866   9.570 -0.6754 -1.8764  0.2273
  146ccc     H7 3387  10.093   4.989   9.565  0.5926  0.9854  0.6621
  146ccc     H8 3388   9.943   5.086   9.577 -2.6146 -3.2665 -0.6239
  146ccc     N2 3389  10.065   5.088   9.748  0.3435  0.1204 -0.8473
  146ccc     H9 3390  10.003   5.083   9.830  1.5586 -0.3811  0.0547
  146ccc    H10 3391  10.140   5.034   9.793 -0.7746 -1.7768 -1.1509
  146ccc    H11 3392  10.099   5.183   9.729  2.4193 -0.6116 -1.0922
  147ccc     N1 3393  10.212   4.393  10.078 -0.1183 -0.3197 -0.4974
  147ccc     H4 3394  10.272   4.318  10.044  0.9752  0.4112 -0.2332
  147ccc     C3 3395  10.273   4.531  10.101  0.1425 -0.3348  0.1612
  147ccc     C4 3396  10.407   4.525  10.164  0.5941 -0.6120 -0.8682
  147ccc     H5 3397  10.205   4.591  10.162  0.3208 -0.1636  0.1934
  147ccc     H6 3398  10.290   4.583  10.005  1.3824  1.7051  1.4089
  147ccc     H7 3399  10.380   4.497  10.267 -2.3752 -1.1698 -1.6869
  147ccc     H8 3400  10.472   4.448  10.123 -1.4041 -1.4975 -2.5694
  147ccc     N2 3401  10.487   4.653  10.167  0.5718 -0.5031  0.6697
  147ccc     H9 3402  10.581   4.631  10.203  0.6000 -0.3853  0.6697
  147ccc    H10 3403  10.509   4.677  10.069  0.0021 -1.7304  0.2245
  147ccc    H11 3404  10.457   4.730  10.230  3.5524  1.6821 -0.3338
  148ccc     N1 3405  11.049   3.353  10.024 -1.3364  0.3079 -0.2377
  148ccc     H4 3406  11.081   3.448  10.011  0.4924  0.0932  2.0381
  148ccc     C3 3407  10.975   3.335  10.148 -0.1248  0.1899  0.3343
  148ccc     C4 3408  10.991   3.439  10.258 -0.6132 -0.3267 -0.6963
  148ccc     H5 3409  10.979   3.235  10.193 -0.9815 -0.5686 -1.1998
  148ccc     H6 3410  10.870   3.353  10.122  0.0290  3.1463  1.3393
  148ccc     H7 3411  10.929   3.409  10.343 -0.3282 -1.0501 -0.7320
  148ccc     H8 3412  11.092   3.431  10.299 -0.4795  0.0442 -0.9555
  148ccc     N2 3413  10.958   3.586  10.227 -0.9104 -0.0068 -0.3686
  148ccc     H9 3414  11.031   3.638  10.177 -1.8102  1.0997 -0.5702
  148ccc    H10 3415  10.871   3.599  10.173 -0.0260  2.6240 -1.3079
  148ccc    H11 3416  10.948   3.621  10.323 -0.5811 -0.1903 -0.2656
  149ccc     N1 3417  11.460   3.130   9.325  0.1334 -0.3595 -0.0293
  149ccc     H4 3418  11.482   3.228   9.316 -0.2125 -0.4896 -3.3785
  149ccc     C3 3419  11.559   3.026   9.296 -0.1171 -0.1938 -0.1352
  149ccc     C4 3420  11.704   3.088   9.305  0.5133 -0.4935  0.2752
  149ccc     H5 3421  11.556   2.992   9.192  0.1702 -0.7874  0.0466
  149ccc     H6 3422  11.546   2.940   9.363 -0.3773  0.2162  0.3447
  149ccc     H7 3423  11.774   3.010   9.275 -0.1230 -1.1528  0.4882
  149ccc     H8 3424  11.711   3.169   9.232 -1.5369 -1.1915 -0.7671
  149ccc     N2 3425  11.730   3.135   9.443 -0.8088  0.0884  0.0153
  149ccc     H9 3426  11.830   3.157   9.454 -1.3074  2.7162 -0.0719
  149ccc    H10 3427  11.676   3.216   9.479  2.7779  2.1784  1.2062
  149ccc    H11 3428  11.700   3.062   9.510 -3.9479  1.1502 -0.0502
  150ccc     N1 3429   9.822   4.150   5.544  0.2408  0.0833 -0.0187
  150ccc     H4 3430   9.870   4.239   5.550 -0.8152  0.6409  0.4029
  150ccc     C3 3431   9.739   4.128   5.426  0.3764  0.5167  0.2165
  150ccc     C4 3432   9.814   4.041   5.323  0.2851 -1.2010  0.7100
  150ccc     H5 3433   9.715   4.226   5.383 -1.1473  0.2947  0.4791
  150ccc     H6 3434   9.648   4.067   5.437  0.4166  0.1846 -1.1387
  150ccc     H7 3435   9.915   4.080   5.309 -1.1114  2.4879 -0.0260
  150ccc     H8 3436   9.817   3.936   5.354  1.1263 -1.4359 -0.1420
  150ccc     N2 3437   9.767   4.053   5.174  0.0959 -0.3864 -0.1204
  150ccc     H9 3438   9.827   3.986   5.125  0.0031 -0.3478 -0.2874
  150ccc    H10 3439   9.667   4.034   5.158  0.2343 -0.7628 -0.5530
  150ccc    H11 3440   9.790   4.147   5.140 -1.4163 -0.8830 -2.8175
  151ccc     N1 3441  10.037   4.413   5.992 -0.4585 -0.1846  0.2680
  151ccc     H4 3442  10.044   4.389   6.090  2.9349 -2.5214 -0.3982
  151ccc     C3 3443   9.976   4.543   5.957 -0.1183 -0.7633  0.4968
  151ccc     C4 3444   9.864   4.594   6.055 -0.6129 -0.3844  0.3562
  151ccc     H5 3445   9.949   4.543   5.851 -0.0030  2.1677  0.3800
  151ccc     H6 3446  10.066   4.605   5.962  0.3310 -1.3907  0.2943
  151ccc     H7 3447   9.784   4.520   6.059 -1.5994  0.4734 -1.8381
  151ccc     H8 3448   9.922   4.607   6.146 -1.4812  3.2051  0.5598
  151ccc     N2 3449   9.796   4.723   6.019  0.6876  0.3941  0.4356
  151ccc     H9 3450   9.797   4.757   5.922 -0.8312  1.1830  0.6736
  151ccc    H10 3451   9.696   4.700   6.021  0.5331  0.6505 -1.8444
  151ccc    H11 3452   9.819   4.799   6.085 -0.3592 -1.2059  2.7986
  152ccc     N1 3453  11.176   3.563   6.008 -0.0868 -0.5925 -0.0577
  152ccc     H4 3454  11.195   3.471   6.047  0.2667 -1.0780 -1.3234
  152ccc     C3 3455  11.279   3.612   5.916  0.4008  0.2091  0.7335
  152ccc     C4 3456  11.354   3.728   5.976 -0.1656  0.0398  0.1731
  152ccc     H5 3457  11.235   3.639   5.819  1.1072  0.2653  0.4262
  152ccc     H6 3458  11.352   3.530   5.907 -0.0157 -0.0213 -1.0359
  152ccc     H7 3459  11.284   3.806   6.007 -0.8451 -0.4617 -0.0667
  152ccc     H8 3460  11.398   3.692   6.069 -2.7865  1.1249  1.9739
  152ccc     N2 3461  11.462   3.781   5.890  0.5598 -0.5009 -0.1405
  152ccc     H9 3462  11.497   3.871   5.925  0.7293 -1.1488  1.4946
  152ccc    H10 3463  11.537   3.716   5.863 -0.8804 -1.2409 -2.6537
  152ccc    H11 3464  11.425   3.806   5.798 -0.7442 -0.2116  0.4363
  153ccc     N1 3465  10.459   3.137   6.039  0.0801  0.2061  0.2253
  153ccc     H4 3466  10.542   3.084   6.012 -0.2248 -0.6154  0.8640
  153ccc     C3 3467  10.330   3.091   5.987  0.8379  0.1017 -0.1589
  153ccc     C4 3468  10.318   2.943   5.945 -0.1239  0.0818 -0.4377
  153ccc     H5 3469  10.306   3.154   5.900  2.1071 -0.3160 -0.8379
  153ccc     H6 3470  10.253   3.104   6.064 -0.7038 -1.8276 -1.2557
  153ccc     H7 3471  10.232   2.942   5.878 -0.7286 -1.0975  0.3212
  153ccc     H8 3472  10.406   2.914   5.888  1.0076  2.2251  0.0976
  153ccc     N2 3473  10.290   2.848   6.050 -0.8458 -0.3040  0.1159
  153ccc     H9 3474  10.195   2.865   6.087 -0.8941 -1.4349  0.5462
  153ccc    H10 3475  10.288   2.749   6.020 -2.0404 -0.1423 -0.3864
  153ccc    H11 3476  10.362   2.852   6.124 -0.7004  0.1545 -0.0476
  154ccc     N1 3477   9.322   2.139   6.857  0.6146 -0.4276  0.1645
  154ccc     H4 3478   9.334   2.107   6.761  1.3950  0.5737 -0.0925
  154ccc     C3 3479   9.441   2.119   6.939 -0.4181 -0.3033 -0.4355
  154ccc     C4 3480   9.541   2.032   6.854 -0.0679 -0.3269 -0.0223
  154ccc     H5 3481   9.407   2.057   7.022 -0.1254 -0.5659 -0.5151
  154ccc     H6 3482   9.479   2.213   6.982 -3.7742  0.9206  0.1885
  154ccc     H7 3483   9.482   1.952   6.811  0.5380  0.2162 -2.0033
  154ccc     H8 3484   9.595   2.090   6.778 -0.6747  1.6931  1.0019
  154ccc     N2 3485   9.651   1.965   6.937  0.3652 -0.3296  0.1611
  154ccc     H9 3486   9.704   1.897   6.882 -0.4503  0.0309 -1.1039
  154ccc    H10 3487   9.713   2.040   6.971 -1.5450  0.5601  1.9146
  154ccc    H11 3488   9.608   1.921   7.020 -1.8544  0.3352 -0.5579
  155ccc     N1 3489   9.406   2.432   6.366 -0.2290  0.3918 -0.6842
  155ccc     H4 3490   9.482   2.431   6.434  1.3126 -0.0354 -2.3277
  155ccc     C3 3491   9.434   2.441   6.226  0.0362  0.4997  0.0128
  155ccc     C4 3492   9.362   2.327   6.142 -0.4933 -0.3328  0.4184
  155ccc     H5 3493   9.541   2.420   6.213  0.4968  3.0427 -0.9221
  155ccc     H6 3494   9.411   2.540   6.185 -0.8355 -0.0588 -0.8691
  155ccc     H7 3495   9.396   2.229   6.175  0.9134  0.5641  1.7860
  155ccc     H8 3496   9.254   2.329   6.158 -0.6335 -0.0735 -0.4879
  155ccc     N2 3497   9.382   2.342   5.995  0.0172  0.7008 -0.0163
  155ccc     H9 3498   9.369   2.436   5.955  0.3032  0.7286 -0.0475
  155ccc    H10 3499   9.477   2.314   5.965  0.0719 -0.3954  1.1139
  155ccc    H11 3500   9.337   2.267   5.941  3.0229 -2.2068  1.1593
  156ccc     N1 3501   7.984   3.415   7.641  0.0888 -0.4320 -0.3805
  156ccc     H4 3502   8.052   3.365   7.698 -0.1802 -0.1352  0.2044
  156ccc     C3 3503   7.861   3.458   7.710 -0.1973 -0.2828  0.4830
  156ccc     C4 3504   7.880   3.601   7.763 -0.2563  0.7557  0.2471
  156ccc     H5 3505   7.830   3.393   7.793 -0.8203 -1.0050 -0.2945
  156ccc     H6 3506   7.767   3.464   7.654  0.1252 -0.2471 -0.0579
  156ccc     H7 3507   7.791   3.618   7.824 -1.2032  0.8645 -1.1239
  156ccc     H8 3508   7.967   3.591   7.828 -0.9673 -1.1947  0.9912
  156ccc     N2 3509   7.891   3.700   7.656  0.0590 -0.4381  0.0747
  156ccc     H9 3510   7.985   3.688   7.615 -0.4428 -0.4235 -1.1186
  156ccc    H10 3511   7.818   3.686   7.585 -0.6733  0.0864  0.7046
  156ccc    H11 3512   7.886   3.796   7.695  0.0418 -0.0369 -0.8756
  157ccc     N1 3513   8.390   2.864   7.125 -0.1156  0.0533  0.1669
  157ccc     H4 3514   8.409   2.849   7.224 -1.6534 -0.9878  0.3483
  157ccc     C3 3515   8.377   2.746   7.036  0.2383 -0.2474 -0.0702
  157ccc     C4 3516   8.227   2.694   7.024  0.2677 -0.3198 -0.0625
  157ccc     H5 3517   8.438   2.665   7.078  0.1607 -0.4337 -0.3166
  157ccc     H6 3518   8.420   2.760   6.936 -1.3068  1.6867 -0.5177
  157ccc     H7 3519   8.217   2.599   6.972  0.8935  0.1873 -1.1363
  157ccc     H8 3520   8.194   2.673   7.126  1.1350 -1.0233  0.0862
  157ccc     N2 3521   8.138   2.795   6.960 -0.2909 -0.2051  0.0124
  157ccc     H9 3522   8.171   2.892   6.969  1.2497 -0.7731  0.7025
  157ccc    H10 3523   8.137   2.775   6.859  0.0310 -0.5058  0.0681
  157ccc    H11 3524   8.041   2.779   6.992 -0.4984 -1.6067 -1.1951
  158ccc     N1 3525  10.365   0.801   9.300  0.1171  0.2842  0.2032
  158ccc     H4 3526  10.334   0.706   9.312  0.7021  0.1834  1.0077
  158ccc     C3 3527  10.451   0.816   9.181 -0.4473  0.5741 -0.1083
  158ccc     C4 3528  10.587   0.754   9.212 -0.5402 -0.1254  0.1244
  158ccc     H5 3529  10.448   0.920   9.147  1.2673  0.5765 -0.3595
  158ccc     H6 3530  10.400   0.763   9.101  1.4051  1.8474 -2.2473
  158ccc     H7 3531  10.636   0.822   9.281 -1.0292  0.1238  0.2336
  158ccc     H8 3532  10.571   0.657   9.257  1.6295  0.3455  2.0992
  158ccc     N2 3533  10.676   0.750   9.093  0.0535  0.5892  0.6433
  158ccc     H9 3534  10.702   0.843   9.057 -0.3721  0.4600 -0.0039
  158ccc    H10 3535  10.766   0.702   9.113 -0.5995 -1.1720 -0.3932
  158ccc    H11 3536  10.627   0.703   9.015 -0.7547  2.9060 -0.3103
  159ccc     N1 3537   9.942   0.475   9.819 -0.6639  0.2058 -0.6452
  159ccc     H4 3538  10.001   0.528   9.882  0.0017 -0.2807 -0.8485
  159ccc     C3 3539   9.911   0.332   9.850  0.5746 -0.2257  0.1428
  159ccc     C4 3540   9.996   0.274   9.967 -0.2570  0.2416 -0.7197
  159ccc     H5 3541   9.923   0.273   9.759 -0.5172  3.2370 -2.4352
  159ccc     H6 3542   9.807   0.333   9.884  0.7991 -0.8598  0.8736
  159ccc     H7 3543   9.985   0.330  10.059  0.0903  0.8755 -1.0559
  159ccc     H8 3544   9.958   0.174   9.990  1.1433 -0.7226 -2.3074
  159ccc     N2 3545  10.148   0.264   9.945 -0.0120 -0.8551  0.1755
  159ccc     H9 3546  10.213   0.262  10.025  2.6580  0.5497 -1.8051
  159ccc    H10 3547  10.167   0.188   9.878 -0.1219 -0.9424  0.2423
  159ccc    H11 3548  10.178   0.347   9.893  0.4407 -1.7378 -1.0354
  160ccc     N1 3549   8.856   1.641  10.319 -0.2862  0.1606  0.6641
  160ccc     H4 3550   8.831   1.682  10.230  0.4661  0.1534  0.4428
  160ccc     C3 3551   8.764   1.568  10.402  0.6230 -0.1029 -0.2355
  160ccc     C4 3552   8.784   1.417  10.423 -0.6789 -0.4306 -0.2854
  160ccc     H5 3553   8.665   1.586  10.359  0.3596  0.1985  0.4906
  160ccc     H6 3554   8.766   1.618  10.500  1.4189 -1.3728  0.4223
  160ccc     H7 3555   8.881   1.394  10.469 -0.6742 -0.0327 -0.0924
  160ccc     H8 3556   8.698   1.378  10.478  1.6783 -3.7027  1.4824
  160ccc     N2 3557   8.787   1.338  10.297 -0.5063  0.0310  0.4506
  160ccc     H9 3558   8.868   1.366  10.239 -0.8880 -0.3077 -0.2716
  160ccc    H10 3559   8.804   1.237  10.310 -1.4081 -0.9041 -3.9427
  160ccc    H11 3560   8.703   1.348  10.237 -2.0890 -1.4462  2.3020
  161ccc     N1 3561   9.116   2.370  10.236  0.4952 -0.5086  0.0475
  161ccc     H4 3562   9.075   2.329  10.154  0.5250  1.8254 -1.2155
  161ccc     C3 3563   9.036   2.479  10.306 -0.7357  0.6017  0.4151
  161ccc     C4 3564   8.915   2.426  10.386 -0.4674  0.4189 -0.7229
  161ccc     H5 3565   9.002   2.550  10.229  1.2787 -0.9133 -2.0627
  161ccc     H6 3566   9.104   2.532  10.373  0.0714  0.6792 -0.4424
  161ccc     H7 3567   8.952   2.352  10.457 -0.5809  0.6927 -0.3725
  161ccc     H8 3568   8.871   2.500  10.453  2.9725  0.8498  1.3230
  161ccc     N2 3569   8.798   2.373  10.310 -0.4979  0.2458  0.5032
  161ccc     H9 3570   8.748   2.456  10.276  0.6459  0.3279 -1.0665
  161ccc    H10 3571   8.832   2.324  10.226  3.2854  2.1401  0.7337
  161ccc    H11 3572   8.740   2.317  10.374 -0.5844  1.0467  1.1267
  162ccc     N1 3573   8.551   1.409  11.124  0.0934  0.6599  0.4903
  162ccc     H4 3574   8.546   1.407  11.023  0.5721 -0.1850  0.4727
  162ccc     C3 3575   8.429   1.426  11.207 -0.5748 -0.7081 -0.1870
  162ccc     C4 3576   8.311   1.345  11.151  0.3158 -0.5155 -0.2192
  162ccc     H5 3577   8.414   1.533  11.230 -0.7536 -1.3967  3.5083
  162ccc     H6 3578   8.451   1.391  11.308 -0.6630  0.0110  0.0898
  162ccc     H7 3579   8.287   1.395  11.057 -0.6493  0.8102  0.7082
  162ccc     H8 3580   8.343   1.243  11.126 -1.9385 -1.2124 -0.5060
  162ccc     N2 3581   8.185   1.347  11.231  0.2232 -0.1176  0.2574
  162ccc     H9 3582   8.099   1.352  11.175 -0.2760 -2.5315  0.7158
  162ccc    H10 3583   8.174   1.263  11.290  0.4070  0.3692  1.0093
  162ccc    H11 3584   8.184   1.431  11.291 -0.6936  0.8849 -1.0902
  163ccc     N1 3585   9.263   1.487  11.351 -0.1536 -0.1555 -0.2510
  163ccc     H4 3586   9.209   1.573  11.357 -1.0413 -0.7771  1.2663
  163ccc     C3 3587   9.324   1.431  11.477  0.1810  0.1250 -0.7563
  163ccc     C4 3588   9.277   1.486  11.613  0.1662  0.3520 -0.8030
  163ccc     H5 3589   9.433   1.446  11.481  0.2064  0.1833 -1.5195
  163ccc     H6 3590   9.298   1.325  11.483 -1.5448  0.5920  1.6870
  163ccc     H7 3591   9.352   1.464  11.690  0.6738 -0.0004 -1.3876
  163ccc     H8 3592   9.264   1.594  11.615  0.8476  0.4912  2.2606
  163ccc     N2 3593   9.140   1.446  11.660  0.1446  0.4226 -0.1259
  163ccc     H9 3594   9.126   1.461  11.761 -1.2296 -0.3814 -0.1753
  163ccc    H10 3595   9.066   1.495  11.607  0.8872  1.4352 -0.2592
  163ccc    H11 3596   9.125   1.346  11.643  2.5461 -0.0249 -0.0634
  164ccc     N1 3597   9.769   2.391  10.495 -0.5222 -0.2214  0.4019
  164ccc     H4 3598   9.715   2.307  10.476 -0.9656  0.2669 -0.5890
  164ccc     C3 3599   9.724   2.515  10.431  0.1940 -0.3532 -0.4306
  164ccc     C4 3600   9.588   2.510  10.369  0.0858  0.2433 -0.4502
  164ccc     H5 3601   9.800   2.534  10.354 -0.0969  2.5336 -0.1089
  164ccc     H6 3602   9.732   2.598  10.502  0.0883 -0.5891 -0.1430
  164ccc     H7 3603   9.518   2.506  10.453  2.6257  1.5486  1.8704
  164ccc     H8 3604   9.576   2.604  10.315 -2.7129 -0.8361 -1.9301
  164ccc     N2 3605   9.559   2.402  10.276 -0.0732  0.2803 -0.6492
  164ccc     H9 3606   9.565   2.313  10.329 -1.4043  0.4529 -0.1813
  164ccc    H10 3607   9.459   2.404  10.253  0.4598 -0.1687 -3.3301
  164ccc    H11 3608   9.621   2.399  10.194  0.7903  2.8925 -0.1744
  165ccc     N1 3609   9.945   2.180  11.323  0.2517 -0.1677  0.2916
  165ccc     H4 3610   9.973   2.089  11.289  1.7426  0.1906  0.5051
  165ccc     C3 3611   9.912   2.199  11.467  0.0952 -0.3345 -0.6021
  165ccc     C4 3612  10.035   2.258  11.540 -0.4810  0.3661 -0.3139
  165ccc     H5 3613   9.886   2.100  11.506 -0.1091 -0.6417 -1.4847
  165ccc     H6 3614   9.821   2.259  11.482 -1.6716 -2.6997 -1.2131
  165ccc     H7 3615  10.029   2.238  11.647 -0.2318  3.0777  0.2711
  165ccc     H8 3616  10.126   2.205  11.508  0.9045  1.8722  0.9690
  165ccc     N2 3617  10.052   2.406  11.509  0.1787 -0.3443 -0.2418
  165ccc     H9 3618   9.971   2.468  11.527  0.8382  1.6650 -3.3580
  165ccc    H10 3619  10.134   2.450  11.553  0.9604 -0.0305 -1.9597
  165ccc    H11 3620  10.061   2.425  11.409 -3.3160 -0.0528 -0.6251
  166ccc     N1 3621  11.877   2.417  10.381 -0.0374  0.1603  0.3415
  166ccc     H4 3622  11.880   2.320  10.412  0.5799  0.0876  0.0880
  166ccc     C3 3623  11.995   2.502  10.390 -0.5831 -0.1214  0.5556
  166ccc     C4 3624  12.038   2.501  10.537 -0.0870 -0.2950 -0.0314
  166ccc     H5 3625  11.982   2.605  10.354 -1.3322 -1.0472 -2.0967
  166ccc     H6 3626  12.077   2.456  10.333 -1.7392 -0.9483 -0.5059
  166ccc     H7 3627  11.954   2.542  10.592  0.3759  0.6282  0.0152
  166ccc     H8 3628  12.060   2.400  10.572 -0.4511 -0.1911  0.5077
  166ccc     N2 3629  12.153   2.597  10.569  0.1660 -0.1107  0.1980
  166ccc     H9 3630  12.174   2.598  10.670  1.0613 -0.1421  0.0134
  166ccc    H10 3631  12.241   2.571  10.524 -0.3292  1.7813 -2.0517
  166ccc    H11 3632  12.151   2.697  10.544  0.5316  0.4506  2.2367
  167ccc     N1 3633  11.521   2.222  10.759 -0.5499 -0.7738  0.2170
  167ccc     H4 3634  11.565   2.310  10.736  0.1220 -1.6898 -2.2988
  167ccc     C3 3635  11.564   2.135  10.872  0.2001  0.1682  0.8590
  167ccc     C4 3636  11.714   2.140  10.908  0.0247 -0.3471  0.0116
  167ccc     H5 3637  11.542   2.033  10.839  0.8341 -0.2069  1.5511
  167ccc     H6 3638  11.507   2.154  10.964  0.8237  0.3747  1.2118
  167ccc     H7 3639  11.782   2.144  10.822 -3.1078  1.6946 -2.5794
  167ccc     H8 3640  11.741   2.229  10.965 -1.5821 -1.2362  2.2863
  167ccc     N2 3641  11.761   2.022  10.988 -0.1277  0.4840 -0.1512
  167ccc     H9 3642  11.860   2.033  11.016 -0.1378  2.5175 -0.7814
  167ccc    H10 3643  11.698   2.029  11.069 -0.8417  1.3403 -0.7617
  167ccc    H11 3644  11.753   1.931  10.939 -0.8131  0.2809  0.3320
  168ccc     N1 3645  11.879   1.252  11.741  0.1691 -0.2563  0.2019
  168ccc     H4 3646  11.968   1.298  11.724  0.7607 -0.2619  2.8369
  168ccc     C3 3647  11.881   1.106  11.784  0.3294  0.8000  0.8030
  168ccc     C4 3648  12.022   1.047  11.795 -0.5205 -0.6321 -0.1742
  168ccc     H5 3649  11.834   1.058  11.698 -0.0879  0.1624  1.3791
  168ccc     H6 3650  11.825   1.093  11.878 -1.3505  1.4405 -0.0723
  168ccc     H7 3651  12.007   0.940  11.810  0.8391 -0.7781  0.3004
  168ccc     H8 3652  12.099   1.080  11.725  1.7382 -0.5760  2.1836
  168ccc     N2 3653  12.092   1.093  11.925  0.7723  0.1556 -0.3640
  168ccc     H9 3654  12.027   1.090  12.004  1.8083 -1.4283  0.4948
  168ccc    H10 3655  12.158   1.020  11.954  0.6129  0.1698  0.0351
  168ccc    H11 3656  12.144   1.181  11.912  0.7070  0.3225  0.4849
  169ccc     N1 3657  11.994   1.973  11.691 -0.4764 -0.2436  0.4658
  169ccc     H4 3658  12.056   1.904  11.650 -1.0990 -1.6039  1.7346
  169ccc     C3 3659  12.046   2.068  11.791 -0.0717 -0.3640 -0.0726
  169ccc     C4 3660  12.037   2.217  11.743  0.5376 -0.0915  0.6155
  169ccc     H5 3661  12.150   2.047  11.816  0.2906  2.0855  0.7614
  169ccc     H6 3662  11.996   2.047  11.887  1.2757 -0.6935  0.5793
  169ccc     H7 3663  12.094   2.228  11.651 -2.1048  0.0818 -1.1256
  169ccc     H8 3664  11.934   2.253  11.729  0.4572 -0.6545 -0.3341
  169ccc     N2 3665  12.096   2.317  11.843 -0.2524 -0.3853 -0.0661
  169ccc     H9 3666  12.056   2.309  11.938  0.7183 -1.0510  0.3009
  169ccc    H10 3667  12.197   2.300  11.848 -0.1663  0.4213  1.2939
  169ccc    H11 3668  12.077   2.413  11.811 -1.5766 -0.7522 -0.4751
  170ccc     N1 3669   9.940   2.254   9.529  0.1551  0.0696  0.0986
  170ccc     H4 3670   9.849   2.276   9.489  0.5739  2.6115  0.3662
  170ccc     C3 3671   9.961   2.284   9.670  0.3504  0.1163  0.0826
  170ccc     C4 3672   9.826   2.309   9.737 -0.1743 -0.0166 -0.1288
  170ccc     H5 3673  10.013   2.379   9.678  0.2422  0.1799  0.0467
  170ccc     H6 3674  10.022   2.208   9.720 -1.6905 -3.3038 -2.1087
  170ccc     H7 3675   9.773   2.215   9.754  1.4743 -1.1517 -1.0928
  170ccc     H8 3676   9.852   2.349   9.836  0.1723 -2.5677  0.8701
  170ccc     N2 3677   9.734   2.411   9.677 -0.4025  0.0778 -0.0897
  170ccc     H9 3678   9.769   2.507   9.688 -0.5723  0.1576 -0.2310
  170ccc    H10 3679   9.734   2.398   9.575 -0.9494 -1.9195  0.1334
  170ccc    H11 3680   9.634   2.402   9.702 -0.7694 -0.2741 -1.5753
  171ccc     N1 3681   9.871   1.652   9.129  0.2493 -0.2517  0.1449
  171ccc     H4 3682   9.956   1.674   9.080  0.1363  2.3129  0.9445
  171ccc     C3 3683   9.773   1.550   9.081 -0.0399  0.1810  0.8053
  171ccc     C4 3684   9.818   1.406   9.104 -0.1145 -0.3499 -0.7980
  171ccc     H5 3685   9.755   1.572   8.975  0.6970  2.6803  1.1289
  171ccc     H6 3686   9.674   1.554   9.130 -2.1544 -0.7615 -2.9654
  171ccc     H7 3687   9.786   1.364   9.199  0.4201  0.3917 -0.2826
  171ccc     H8 3688   9.762   1.351   9.028 -0.4659 -2.1258  0.6695
  171ccc     N2 3689   9.963   1.376   9.090 -0.3302 -0.5353 -0.0137
  171ccc     H9 3690  10.018   1.429   9.160 -1.2643  2.4489 -1.3432
  171ccc    H10 3691   9.982   1.276   9.101  3.5384 -0.0323 -0.4826
  171ccc    H11 3692   9.998   1.390   8.994  1.1956  0.6105  0.6457
  172ccc     N1 3693   9.453   2.271   9.414  0.0156  0.7554 -0.3584
  172ccc     H4 3694   9.365   2.220   9.416  0.6320 -0.3426 -0.5976
  172ccc     C3 3695   9.466   2.402   9.354  0.7144  0.3762 -0.6677
  172ccc     C4 3696   9.331   2.487   9.366  0.1195  0.1909 -0.0878
  172ccc     H5 3697   9.470   2.383   9.246  0.7585 -0.4374 -0.5221
  172ccc     H6 3698   9.550   2.459   9.395 -1.4942  0.5684  4.2489
  172ccc     H7 3699   9.261   2.431   9.303  1.0690 -3.0170  1.4874
  172ccc     H8 3700   9.295   2.487   9.469 -1.9362 -0.8494 -0.7657
  172ccc     N2 3701   9.332   2.633   9.320 -0.5529  0.6949  0.1059
  172ccc     H9 3702   9.380   2.635   9.229  1.1801 -0.5788  0.9293
  172ccc    H10 3703   9.235   2.668   9.321 -0.1142  2.0280 -0.8142
  172ccc    H11 3704   9.387   2.688   9.387 -0.0189 -0.5667  0.7241
  173ccc     N1 3705   9.359   1.482   9.633  0.5693 -0.2476 -0.3905
  173ccc     H4 3706   9.448   1.454   9.673 -0.6791 -1.5020  1.6711
  173ccc     C3 3707   9.253   1.380   9.609  0.0716 -0.0018  0.9449
  173ccc     C4 3708   9.322   1.246   9.584  0.3597  0.0834  0.1420
  173ccc     H5 3709   9.185   1.405   9.526 -0.7418 -0.1429  1.5599
  173ccc     H6 3710   9.187   1.373   9.697 -0.3687  0.4128  0.6589
  173ccc     H7 3711   9.253   1.164   9.562 -0.5647  0.7371  0.5709
  173ccc     H8 3712   9.403   1.258   9.511  1.1293  1.7999  1.2269
  173ccc     N2 3713   9.405   1.194   9.699 -0.3161  0.6857  0.0392
  173ccc     H9 3714   9.493   1.239   9.730 -0.1261 -0.1898  0.7973
  173ccc    H10 3715   9.343   1.178   9.780 -0.2960 -0.2146 -0.1168
  173ccc    H11 3716   9.430   1.098   9.672 -0.2427  0.6536  0.2159
  174ccc     N1 3717  10.227   4.313   8.631 -0.3585 -0.8343 -0.0942
  174ccc     H4 3718  10.240   4.226   8.581  1.9832  0.4578 -1.9279
  174ccc     C3 3719  10.337   4.407   8.646  0.1558  0.4143 -0.2646
  174ccc     C4 3720  10.440   4.379   8.534  0.1522 -0.5861  0.8864
  174ccc     H5 3721  10.386   4.363   8.735  0.7725  1.1293 -0.2450
  174ccc     H6 3722  10.297   4.508   8.661 -1.0456 -0.2389  1.2452
  174ccc     H7 3723  10.535   4.429   8.551  0.3662 -0.8435  0.4620
  174ccc     H8 3724  10.458   4.272   8.532 -1.3110 -0.8536  0.1304
  174ccc     N2 3725  10.405   4.431   8.397  0.5194  0.6002 -1.1592
  174ccc     H9 3726  10.306   4.408   8.380  0.4178 -0.5916  0.7971
  174ccc    H10 3727  10.409   4.533   8.385 -1.3255  0.6179 -1.9307
  174ccc    H11 3728  10.454   4.372   8.328 -0.5467 -1.7499 -0.0421
  175ccc     N1 3729   9.623   4.194   9.174 -0.2223  0.1777  0.5389
  175ccc     H4 3730   9.691   4.268   9.161 -1.0527  0.5275 -2.8262
  175ccc     C3 3731   9.562   4.184   9.315 -0.0292  0.5205 -0.0930
  175ccc     C4 3732   9.407   4.197   9.317  0.2323 -0.1962  0.3418
  175ccc     H5 3733   9.609   4.250   9.389  1.1831  2.3857 -2.3827
  175ccc     H6 3734   9.593   4.086   9.352  1.9040  0.3174 -2.0342
  175ccc     H7 3735   9.368   4.177   9.417 -1.7731 -2.4454 -0.7946
  175ccc     H8 3736   9.378   4.300   9.297  2.8373  1.1040  2.5914
  175ccc     N2 3737   9.325   4.115   9.225 -0.0913  0.3900 -0.2726
  175ccc     H9 3738   9.338   4.126   9.124 -1.6563 -0.0345 -0.5398
  175ccc    H10 3739   9.342   4.015   9.244  2.0901  0.7340 -0.0941
  175ccc    H11 3740   9.230   4.144   9.253  0.7073  2.2022  0.8314
  176ccc     N1 3741  10.459   3.722  10.353 -0.0923  0.2035 -0.5198
  176ccc     H4 3742  10.393   3.657  10.396  0.5925  0.2905  0.7033
  176ccc     C3 3743  10.593   3.755  10.415  0.3384 -0.2263  0.3294
  176ccc     C4 3744  10.577   3.757  10.568 -0.1420 -0.5050  0.4185
  176ccc     H5 3745  10.628   3.852  10.380  0.1583 -0.4723 -0.5465
  176ccc     H6 3746  10.669   3.681  10.387 -0.8208 -0.8339 -1.3416
  176ccc     H7 3747  10.662   3.812  10.607 -1.1592  0.3061  1.5593
  176ccc     H8 3748  10.493   3.823  10.591  1.2506  1.1532  0.8729
  176ccc     N2 3749  10.563   3.626  10.640  0.1058 -0.6839 -0.1636
  176ccc     H9 3750  10.643   3.571  10.606  1.7060  0.7848  1.0251
  176ccc    H10 3751  10.560   3.641  10.742 -2.4168  0.4060 -0.3143
  176ccc    H11 3752  10.477   3.574  10.615  1.1237 -1.6529 -1.8520
  177ccc     N1 3753   9.814   3.445  10.358 -0.5684  0.1901 -0.2179
  177ccc     H4 3754   9.820   3.545  10.372  2.5049  0.0989 -0.1671
  177ccc     C3 3755   9.761   3.362  10.464  0.0974 -0.2131 -0.6768
  177ccc     C4 3756   9.671   3.458  10.541 -0.3320 -0.1213  0.7549
  177ccc     H5 3757   9.850   3.338  10.523 -1.2226 -2.7102  0.4727
  177ccc     H6 3758   9.715   3.267  10.435  0.0051 -0.4711  0.2665
  177ccc     H7 3759   9.714   3.557  10.556  0.8055  0.1544 -3.3107
  177ccc     H8 3760   9.588   3.485  10.475  1.3372 -0.1380 -1.4537
  177ccc     N2 3761   9.620   3.397  10.666 -0.5501 -0.1718  0.8265
  177ccc     H9 3762   9.692   3.347  10.720  0.3015  1.2333  1.0270
  177ccc    H10 3763   9.568   3.463  10.726 -2.6670  0.2869 -1.3348
  177ccc    H11 3764   9.546   3.330  10.638  1.3885 -1.6375 -1.1550
  178ccc     N1 3765  11.135   2.779  10.127 -0.5478 -0.6171  0.2593
  178ccc     H4 3766  11.232   2.764  10.152 -0.7005  1.4659  2.4292
  178ccc     C3 3767  11.033   2.805  10.238 -0.4075  0.7835  0.4050
  178ccc     C4 3768  11.077   2.785  10.383 -0.1121  0.1213 -0.0070
  178ccc     H5 3769  10.948   2.736  10.226  0.1656  0.3046 -1.1321
  178ccc     H6 3770  10.994   2.906  10.219  0.1255  0.8176 -0.6000
  178ccc     H7 3771  11.101   2.679  10.398  0.2990  0.3203  0.7716
  178ccc     H8 3772  11.153   2.857  10.411 -1.0028  1.9987 -2.1609
  178ccc     N2 3773  10.960   2.817  10.473  0.1164 -0.7823  0.7271
  178ccc     H9 3774  10.914   2.906  10.449  1.4795  0.2658  1.8178
  178ccc    H10 3775  10.888   2.745  10.460 -1.1529  0.3051  1.4947
  178ccc    H11 3776  10.987   2.817  10.572  0.8652  0.0611  0.5359
  179ccc     N1 3777  11.785   2.772   9.791 -0.1073  0.3603  0.0075
  179ccc     H4 3778  11.732   2.721   9.861 -1.5421 -0.5034 -1.6030
  179ccc     C3 3779  11.921   2.833   9.813  0.4227  0.2419 -0.0760
  179ccc     C4 3780  12.038   2.738   9.805  0.2641 -0.3858  0.5018
  179ccc     H5 3781  11.925   2.886   9.910 -0.9484 -1.6452  1.0751
  179ccc     H6 3782  11.934   2.904   9.730  1.3530  0.6967  0.4450
  179ccc     H7 3783  12.125   2.782   9.855 -0.8546  0.8064  1.4466
  179ccc     H8 3784  12.024   2.643   9.857 -1.6218 -0.5147 -0.1741
  179ccc     N2 3785  12.069   2.695   9.666 -0.1341 -0.4100 -0.3520
  179ccc     H9 3786  12.150   2.633   9.656  0.7270  0.4887  0.7124
  179ccc    H10 3787  11.992   2.649   9.616 -0.7924 -0.5424  0.7610
  179ccc    H11 3788  12.081   2.782   9.611  0.6873 -1.0794 -1.2641
  180ccc     N1 3789  11.684   2.053   8.928  0.0409 -0.1599  0.1555
  180ccc     H4 3790  11.748   2.104   8.869 -1.5717  0.3728 -1.1776
  180ccc     C3 3791  11.606   1.934   8.875 -0.1243  0.3019 -0.4084
  180ccc     C4 3792  11.606   1.931   8.720  0.8255  0.6272 -0.1721
  180ccc     H5 3793  11.501   1.933   8.907 -0.1654 -1.7769 -0.4588
  180ccc     H6 3794  11.648   1.843   8.920 -0.4425 -0.3411 -1.3842
  180ccc     H7 3795  11.548   2.016   8.686  0.8087 -0.1977 -2.3324
  180ccc     H8 3796  11.709   1.941   8.686  1.5883 -0.0098  1.7498
  180ccc     N2 3797  11.543   1.811   8.652  0.1577 -0.7007  0.1354
  180ccc     H9 3798  11.536   1.825   8.550 -4.4678 -0.8385  0.2377
  180ccc    H10 3799  11.587   1.721   8.677  0.0923 -1.1638 -1.3387
  180ccc    H11 3800  11.443   1.806   8.675  0.2397 -0.9326  0.4515
  181ccc     N1 3801  11.956   2.029   9.509 -0.5913  0.7157  0.3966
  181ccc     H4 3802  12.057   2.022   9.517 -0.5061 -0.5345 -1.1082
  181ccc     C3 3803  11.875   1.908   9.529 -0.0637  0.0350  0.2401
  181ccc     C4 3804  11.965   1.794   9.577 -0.1117  0.1960 -0.8037
  181ccc     H5 3805  11.819   1.872   9.441 -2.0024 -0.7586  1.7159
  181ccc     H6 3806  11.804   1.925   9.611 -0.9600 -0.8782 -0.3171
  181ccc     H7 3807  12.010   1.826   9.671 -0.2064 -2.3743  0.1914
  181ccc     H8 3808  11.911   1.704   9.605 -0.4819  1.0976  1.6164
  181ccc     N2 3809  12.072   1.750   9.479 -0.2057 -0.0835  0.0623
  181ccc     H9 3810  12.111   1.663   9.517 -2.1446 -0.3213  1.6810
  181ccc    H10 3811  12.021   1.722   9.394 -0.6947  0.5023  0.1491
  181ccc    H11 3812  12.143   1.824   9.467  1.3927 -1.3033  1.4955
  182ccc     N1 3813  10.500   0.889  10.113 -0.4957  0.0298 -0.1387
  182ccc     H4 3814  10.565   0.942  10.169 -0.4719  1.2157 -1.2447
  182ccc     C3 3815  10.428   0.792  10.191 -0.1826 -0.4022  0.2632
  182ccc     C4 3816  10.453   0.650  10.139 -0.2521  0.9095  0.1847
  182ccc     H5 3817  10.320   0.806  10.184 -0.1595 -0.1991  0.3162
  182ccc     H6 3818  10.458   0.791  10.297  4.4314  0.3976 -0.8205
  182ccc     H7 3819  10.417   0.588  10.221  0.1580 -0.2552 -0.4938
  182ccc     H8 3820  10.400   0.622  10.048  1.3749 -0.0092 -0.5233
  182ccc     N2 3821  10.600   0.607  10.123  0.3320 -0.0681  0.4625
  182ccc     H9 3822  10.606   0.504  10.122 -1.4650 -0.1943  0.7304
  182ccc    H10 3823  10.626   0.641  10.029  0.3323 -0.4513  0.3220
  182ccc    H11 3824  10.655   0.647  10.201 -1.4720  0.8327  1.3212
  183ccc     N1 3825  10.691   1.450   9.648  0.7861 -0.2140  0.0115
  183ccc     H4 3826  10.765   1.439   9.716 -0.9818 -0.6643  1.9677
  183ccc     C3 3827  10.726   1.490   9.512  0.5985 -0.2701  0.6312
  183ccc     C4 3828  10.867   1.450   9.467 -0.1146 -0.8850  0.6461
  183ccc     H5 3829  10.717   1.599   9.507 -1.0858 -0.4025  0.3034
  183ccc     H6 3830  10.660   1.444   9.438 -1.2151  0.9422  1.4235
  183ccc     H7 3831  10.889   1.344   9.454  1.1016 -0.4452 -1.4477
  183ccc     H8 3832  10.883   1.497   9.369 -0.3246 -2.5132 -0.2081
  183ccc     N2 3833  10.976   1.513   9.553  0.1223 -0.8173 -0.0239
  183ccc     H9 3834  10.964   1.511   9.655 -0.7143  0.0721 -0.0826
  183ccc    H10 3835  11.063   1.461   9.537  0.7730  0.1201  0.4045
  183ccc    H11 3836  10.986   1.610   9.518  1.0235  0.6611  3.8899
  184ccc     N1 3837  11.215   1.349  10.991  0.0616  0.3648 -0.7527
  184ccc     H4 3838  11.157   1.355  10.908 -0.0045  0.5628 -0.6927
  184ccc     C3 3839  11.358   1.312  10.983 -0.0467  0.1803  0.0909
  184ccc     C4 3840  11.399   1.288  10.832 -1.1276  0.9289 -0.3310
  184ccc     H5 3841  11.383   1.224  11.044 -0.6908  0.9989  1.5670
  184ccc     H6 3842  11.421   1.388  11.031  1.1437 -2.0585  2.3069
  184ccc     H7 3843  11.351   1.199  10.793 -1.2772  1.0854 -0.5061
  184ccc     H8 3844  11.370   1.380  10.780 -0.2508  1.3141 -0.1611
  184ccc     N2 3845  11.550   1.256  10.819  0.3361 -0.7962 -0.1917
  184ccc     H9 3846  11.603   1.344  10.823 -2.9848  1.3744 -0.4252
  184ccc    H10 3847  11.589   1.203  10.899 -0.5490 -0.3790  0.5385
  184ccc    H11 3848  11.569   1.217  10.726 -0.0628  0.2388 -0.7231
  185ccc     N1 3849  10.578   1.434  11.547 -0.0923 -0.2034  0.5091
  185ccc     H4 3850  10.641   1.493  11.600 -0.4041  3.1702 -2.4716
  185ccc     C3 3851  10.484   1.351  11.630  0.5476 -0.3639 -0.0689
  185ccc     C4 3852  10.503   1.201  11.604 -0.3265 -0.0344 -0.0687
  185ccc     H5 3853  10.380   1.367  11.601  0.1708 -1.3978  0.6288
  185ccc     H6 3854  10.495   1.370  11.737 -0.0539  0.2092 -0.1058
  185ccc     H7 3855  10.439   1.138  11.666  1.8104 -1.2645  0.9962
  185ccc     H8 3856  10.485   1.177  11.499  2.0898 -1.5794 -0.1912
  185ccc     N2 3857  10.646   1.154  11.641 -0.0598 -0.8098 -0.2355
  185ccc     H9 3858  10.722   1.208  11.598  0.3471  0.2675  1.7313
  185ccc    H10 3859  10.677   1.148  11.739  2.3494  0.8579 -0.8010
  185ccc    H11 3860  10.655   1.061  11.598  0.7329 -0.4865 -0.7825
  186ccc     N1 3861  10.891   2.937  11.280 -0.1444 -0.0409 -0.0540
  186ccc     H4 3862  10.904   2.837  11.294  1.2738  0.0174 -0.7662
  186ccc     C3 3863  10.767   3.005  11.317  0.3657 -0.0302  0.6907
  186ccc     C4 3864  10.665   2.916  11.400  0.0931  1.2637  0.0290
  186ccc     H5 3865  10.716   3.034  11.225  2.5918 -1.6400 -1.1674
  186ccc     H6 3866  10.794   3.104  11.358  0.8242  1.5455 -2.9691
  186ccc     H7 3867  10.608   2.850  11.336  1.2296  0.6101 -0.3386
  186ccc     H8 3868  10.722   2.853  11.469 -1.6559 -0.9199 -0.4023
  186ccc     N2 3869  10.571   3.004  11.478 -0.0298  0.4531 -1.0852
  186ccc     H9 3870  10.615   3.097  11.493  1.5891 -0.4541  0.1535
  186ccc    H10 3871  10.484   3.018  11.424 -0.3906  0.4104 -0.5283
  186ccc    H11 3872  10.538   2.972  11.570 -2.1143  0.0323 -1.9207
  187ccc     N1 3873  11.616   3.036  11.545 -0.0698  0.0715  0.5671
  187ccc     H4 3874  11.562   3.119  11.521  0.6817  0.0414 -1.4135
  187ccc     C3 3875  11.730   3.045  11.639 -0.4301  0.3451 -0.2189
  187ccc     C4 3876  11.687   3.092  11.780  0.2777  0.0435  0.2150
  187ccc     H5 3877  11.809   3.110  11.600  0.3820 -1.2583 -1.3466
  187ccc     H6 3878  11.767   2.943  11.651 -2.1727 -0.0606  2.6135
  187ccc     H7 3879  11.613   3.021  11.819  1.8337 -1.5308  0.3996
  187ccc     H8 3880  11.770   3.095  11.851 -0.0792  0.2920  0.6315
  187ccc     N2 3881  11.627   3.235  11.769  0.3358 -0.3740 -0.2042
  187ccc     H9 3882  11.699   3.305  11.744 -0.2164 -0.4757 -2.2355
  187ccc    H10 3883  11.557   3.236  11.693 -0.2487  0.6526  0.3322
  187ccc    H11 3884  11.579   3.258  11.857 -0.2610  0.2665 -0.6904
  188ccc     N1 3885  11.361   1.644  12.112  0.0666 -0.3088 -0.1404
  188ccc     H4 3886  11.341   1.740  12.087  1.0304  0.6034  2.2833
  188ccc     C3 3887  11.324   1.617  12.257 -0.1190  0.0695 -0.0312
  188ccc     C4 3888  11.421   1.538  12.340  0.0697  0.6530 -0.2414
  188ccc     H5 3889  11.228   1.563  12.256 -0.2522  0.2959  0.5089
  188ccc     H6 3890  11.299   1.715  12.300  0.3979 -0.1740  0.8236
  188ccc     H7 3891  11.418   1.436  12.299  1.0275  0.1077  0.9875
  188ccc     H8 3892  11.523   1.577  12.333 -0.0123  0.8878 -0.1239
  188ccc     N2 3893  11.383   1.518  12.481  0.0326  0.4198 -0.6633
  188ccc     H9 3894  11.451   1.453  12.522  0.5932  0.0473 -2.1349
  188ccc    H10 3895  11.365   1.606  12.531 -0.0544  0.0940 -0.1047
  188ccc    H11 3896  11.292   1.469  12.482  0.4645 -0.4350  1.3176
  189ccc     N1 3897  11.049   1.132  11.460  0.0568 -0.2612  0.0610
  189ccc     H4 3898  11.148   1.133  11.440  0.6009 -0.6834  2.3484
  189ccc     C3 3899  10.979   1.002  11.441  0.3956 -0.4740 -0.1554
  189ccc     C4 3900  11.064   0.886  11.376  0.6139  0.3109  0.8197
  189ccc     H5 3901  10.886   1.029  11.389  0.2191  1.3726  1.0095
  189ccc     H6 3902  10.953   0.966  11.541 -0.0994  0.3132  0.0030
  189ccc     H7 3903  11.008   0.792  11.381 -0.0268  0.6920  0.8700
  189ccc     H8 3904  11.086   0.910  11.272 -0.1684 -0.6369  0.4133
  189ccc     N2 3905  11.191   0.858  11.446 -0.0787 -0.0710 -0.2237
  189ccc     H9 3906  11.254   0.940  11.439  1.0610 -1.0359 -2.0623
  189ccc    H10 3907  11.177   0.830  11.544 -0.6055 -0.2383 -0.3454
  189ccc    H11 3908  11.249   0.785  11.402 -0.0404  0.9790 -2.0088
  190ccc     N1 3909  12.161   5.085  10.783  0.2242  0.4490  0.0513
  190ccc     H4 3910  12.232   5.156  10.772 -1.8669  2.6406 -0.1584
  190ccc     C3 3911  12.093   5.070  10.910 -0.1104 -0.4233  0.0123
  190ccc     C4 3912  12.121   5.177  11.019  0.1864  0.1300 -0.0092
  190ccc     H5 3913  12.090   4.969  10.952 -1.2303  0.2874  1.7469
  190ccc     H6 3914  11.989   5.090  10.879 -0.4549 -0.9426  0.8183
  190ccc     H7 3915  12.094   5.276  10.984 -0.3279 -0.0903 -0.2322
  190ccc     H8 3916  12.068   5.158  11.113  1.4792  2.5209  1.3140
  190ccc     N2 3917  12.262   5.178  11.067 -0.4906 -0.4423 -0.3451
  190ccc     H9 3918  12.299   5.083  11.080 -2.7865 -1.2990  0.6169
  190ccc    H10 3919  12.321   5.227  10.999 -1.6487  1.8139  0.1694
  190ccc    H11 3920  12.257   5.231  11.156 -0.0921  0.4493 -0.8399
  191ccc     N1 3921  12.706   5.005  10.140 -0.2852  0.0108  0.0534
  191ccc     H4 3922  12.676   5.092  10.099 -2.8887  0.3452  2.3981
  191ccc     C3 3923  12.821   4.923  10.088  0.4441 -0.5749 -0.4878
  191ccc     C4 3924  12.904   4.999   9.990 -0.4235  0.3452  0.2354
  191ccc     H5 3925  12.789   4.835  10.031 -1.7404 -0.2678  0.1588
  191ccc     H6 3926  12.887   4.894  10.171 -0.8386 -3.6675 -0.4020
  191ccc     H7 3927  12.949   5.091  10.026  3.1640 -1.3336  0.4369
  191ccc     H8 3928  12.983   4.930   9.960 -2.2015 -1.1511 -1.3261
  191ccc     N2 3929  12.828   5.034   9.864  0.1139  0.0094  0.2732
  191ccc     H9 3930  12.802   4.944   9.821 -0.8617  0.2305  0.3958
  191ccc    H10 3931  12.743   5.090   9.878  0.0108  0.6512 -2.3010
  191ccc    H11 3932  12.892   5.083   9.799  0.3801 -1.0317 -0.2744
  192ccc     N1 3933  13.079   5.137   9.240  0.0326 -0.1523 -0.2698
  192ccc     H4 3934  13.128   5.225   9.242 -0.0870 -0.0765 -0.5695
  192ccc     C3 3935  13.159   5.018   9.251 -0.4517  0.4360 -0.0957
  192ccc     C4 3936  13.311   5.024   9.250 -0.0617  0.4796 -0.1322
  192ccc     H5 3937  13.135   4.957   9.163  0.9919 -0.1378 -0.1175
  192ccc     H6 3938  13.123   4.965   9.340  2.4683 -0.9981  0.3387
  192ccc     H7 3939  13.353   5.090   9.327  1.7058 -1.3364  0.5536
  192ccc     H8 3940  13.340   4.920   9.268 -0.0597  0.4363 -0.3853
  192ccc     N2 3941  13.369   5.070   9.112  0.1495  0.7144  0.1423
  192ccc     H9 3942  13.329   5.016   9.034 -1.9897  2.3778 -0.0298
  192ccc    H10 3943  13.342   5.169   9.102  1.4366  1.1692  0.8934
  192ccc    H11 3944  13.471   5.081   9.100  0.0600  1.4097 -0.0244
  193ccc     N1 3945  12.728   5.844   9.072 -0.2345  0.0828  0.2188
  193ccc     H4 3946  12.631   5.815   9.083  0.7085 -3.6630  0.3017
  193ccc     C3 3947  12.774   5.881   8.934 -0.3648  0.3439 -0.2345
  193ccc     C4 3948  12.647   5.898   8.852 -0.3489  0.3140 -1.3111
  193ccc     H5 3949  12.840   5.812   8.881 -0.8709  1.2642 -2.1711
  193ccc     H6 3950  12.822   5.979   8.943 -0.1192  0.1703  0.3899
  193ccc     H7 3951  12.582   5.810   8.858 -1.1102  0.9504  0.5438
  193ccc     H8 3952  12.578   5.970   8.897  0.2313  0.3088 -0.3853
  193ccc     N2 3953  12.674   5.929   8.707 -0.0125  0.0819 -0.2122
  193ccc     H9 3954  12.595   5.965   8.652 -1.3647 -2.8474 -0.3701
  193ccc    H10 3955  12.757   5.991   8.704  1.6843 -2.0068  0.3950
  193ccc    H11 3956  12.716   5.844   8.665  1.6045  1.4304 -1.4838
  194ccc     N1 3957  12.677   4.707   8.145  0.4477 -0.0292  0.6047
  194ccc     H4 3958  12.592   4.681   8.192 -0.4718 -0.6708 -1.3113
  194ccc     C3 3959  12.715   4.844   8.112  0.0150 -0.4108 -0.0984
  194ccc     C4 3960  12.616   4.942   8.177  0.2055 -0.7997 -0.2990
  194ccc     H5 3961  12.708   4.854   8.003  0.5759  0.4559 -0.0642
  194ccc     H6 3962  12.817   4.867   8.145  0.3176 -1.5900 -0.1604
  194ccc     H7 3963  12.633   5.040   8.133  1.0049  0.0197  1.7442
  194ccc     H8 3964  12.518   4.901   8.151  0.3473 -1.6593  0.4598
  194ccc     N2 3965  12.622   4.959   8.333 -0.1760 -0.3024  0.2491
  194ccc     H9 3966  12.718   4.980   8.365 -0.1098 -0.6380  0.2682
  194ccc    H10 3967  12.551   5.028   8.365 -0.3631  0.0281 -0.8522
  194ccc    H11 3968  12.598   4.876   8.388 -0.6758  1.3573  2.7313
  195ccc     N1 3969  12.914   3.863   7.988  0.1241 -1.1362  0.5844
  195ccc     H4 3970  12.834   3.840   8.045  1.1994  1.5866  3.4767
  195ccc     C3 3971  12.972   3.773   7.891  0.3644  0.4659  0.1489
  195ccc     C4 3972  12.883   3.649   7.874  0.4177 -0.0447 -0.0978
  195ccc     H5 3973  13.074   3.749   7.922  1.1222  0.8849 -1.9019
  195ccc     H6 3974  12.978   3.825   7.795  1.9298 -0.0207 -0.0444
  195ccc     H7 3975  12.866   3.587   7.962 -1.8530  1.1051  0.3520
  195ccc     H8 3976  12.779   3.678   7.856 -0.6748 -2.9918  0.9758
  195ccc     N2 3977  12.928   3.551   7.765  0.0629  0.3767  0.3468
  195ccc     H9 3978  13.021   3.510   7.782  0.1173 -0.3065 -1.4009
  195ccc    H10 3979  12.850   3.488   7.741 -1.6240  2.7804 -0.8991
  195ccc    H11 3980  12.948   3.595   7.674 -1.9493 -1.2225 -0.9708
  196ccc     N1 3981  13.081   3.722   8.957  0.5211 -0.0960  0.9621
  196ccc     H4 3982  13.138   3.803   8.937  0.0909 -0.3542 -1.6751
  196ccc     C3 3983  13.121   3.595   8.902  0.1543 -0.5175 -0.1646
  196ccc     C4 3984  13.268   3.595   8.859 -0.1445 -0.3262 -0.1707
  196ccc     H5 3985  13.067   3.570   8.810  1.0172 -2.6140 -0.1493
  196ccc     H6 3986  13.102   3.508   8.966 -0.2166  0.5023  1.1800
  196ccc     H7 3987  13.335   3.622   8.941  0.1192  0.2924 -0.5711
  196ccc     H8 3988  13.301   3.495   8.830 -0.5739 -0.1645 -1.2641
  196ccc     N2 3989  13.302   3.681   8.743 -0.1448 -0.8878  0.2893
  196ccc     H9 3990  13.295   3.628   8.655 -0.0137 -1.0420  0.3715
  196ccc    H10 3991  13.257   3.774   8.742  1.3923 -0.0795  1.0978
  196ccc    H11 3992  13.404   3.697   8.743  0.0662 -1.5342  3.5082
  197ccc     N1 3993  12.940   4.480   9.213 -0.2116 -1.0166  0.1497
  197ccc     H4 3994  12.846   4.482   9.251 -0.0957  1.3822  0.4879
  197ccc     C3 3995  13.025   4.600   9.243  0.5119  0.4922  0.8189
  197ccc     C4 3996  12.968   4.699   9.341 -0.2385 -0.4439  0.0384
  197ccc     H5 3997  13.052   4.648   9.148  1.2433 -0.3864  0.5628
  197ccc     H6 3998  13.110   4.556   9.298  1.2447  2.0784  0.9975
  197ccc     H7 3999  13.039   4.779   9.363  0.3947 -1.8803  4.0953
  197ccc     H8 4000  12.872   4.732   9.300  0.3125  2.1662  0.6364
  197ccc     N2 4001  12.953   4.651   9.483  0.3310  0.0047  0.2991
  197ccc     H9 4002  12.919   4.730   9.539 -1.2050  0.1063 -0.7084
  197ccc    H10 4003  12.881   4.578   9.486 -0.5844  0.8979  0.7293
  197ccc    H11 4004  13.039   4.608   9.519 -0.0507  0.8259  2.3115
  198ccc     N1 4005  10.807   2.093   8.897 -0.2497 -0.0655  0.2561
  198ccc     H4 4006  10.870   2.171   8.889  0.7270 -0.5008  2.8319
  198ccc     C3 4007  10.804   1.993   8.790 -0.0449  0.1276 -0.5553
  198ccc     C4 4008  10.914   1.875   8.807  0.2131  0.4378 -0.0294
  198ccc     H5 4009  10.831   2.047   8.698  2.1395 -2.6702 -1.7223
  198ccc     H6 4010  10.703   1.951   8.785  0.0481 -0.0260 -1.2410
  198ccc     H7 4011  11.015   1.913   8.818  0.7096 -0.8671  0.0496
  198ccc     H8 4012  10.891   1.824   8.901 -0.4565 -2.1164 -1.5063
  198ccc     N2 4013  10.906   1.770   8.696 -0.1881 -0.2354 -0.0678
  198ccc     H9 4014  10.815   1.723   8.690  0.1518 -0.9489  0.3342
  198ccc    H10 4015  10.918   1.806   8.600 -0.4451 -0.2428 -0.1020
  198ccc    H11 4016  10.985   1.705   8.711 -0.6554 -0.5019  1.3375
  199ccc     N1 4017  10.989   2.269   9.627 -0.3839  0.3795 -1.0410
  199ccc     H4 4018  10.969   2.182   9.578  2.6496 -0.6449 -0.6863
  199ccc     C3 4019  11.029   2.267   9.773  0.1165  0.3801 -0.2412
  199ccc     C4 4020  11.051   2.124   9.828 -0.4102  1.2336 -1.1520
  199ccc     H5 4021  10.955   2.320   9.836 -0.8168  0.4913 -1.4021
  199ccc     H6 4022  11.122   2.323   9.790  0.6682 -1.0993  2.0092
  199ccc     H7 4023  10.957   2.069   9.827  0.8856 -1.1380  0.3464
  199ccc     H8 4024  11.121   2.065   9.768  0.8702  0.2155  1.1973
  199ccc     N2 4025  11.105   2.115   9.964  0.3240 -0.1074 -0.4121
  199ccc     H9 4026  11.208   2.120   9.966  0.3276 -0.3343  0.0427
  199ccc    H10 4027  11.067   2.192  10.020  0.3673  1.1606 -2.0483
  199ccc    H11 4028  11.079   2.027  10.011 -2.2427  1.0499  0.5054
  200ccc     N1 4029  10.212   2.687   8.670 -0.5049 -0.2749 -0.3036
  200ccc     H4 4030  10.162   2.774   8.683  2.8862  1.8403 -0.3746
  200ccc     C3 4031  10.199   2.572   8.760 -0.1189  0.4931 -0.0466
  200ccc     C4 4032  10.116   2.597   8.886 -0.0925 -0.0647  0.2125
  200ccc     H5 4033  10.294   2.533   8.801  0.5404  2.6133  0.5426
  200ccc     H6 4034  10.146   2.490   8.710  1.0665 -2.6247  3.3216
  200ccc     H7 4035  10.014   2.624   8.858  0.0178  0.1564  0.0193
  200ccc     H8 4036  10.107   2.505   8.943 -1.5733 -1.1467 -1.6524
  200ccc     N2 4037  10.160   2.711   8.965  0.2262 -0.9696  0.2847
  200ccc     H9 4038  10.152   2.795   8.907  0.1089 -0.4682  1.0185
  200ccc    H10 4039  10.116   2.735   9.054  0.7027  1.4758 -0.0711
  200ccc    H11 4040  10.260   2.707   8.990  0.2184 -0.6237  0.3760
  201ccc     N1 4041  10.036   2.771   7.936 -0.2275  0.1022  0.7963
  201ccc     H4 4042  10.035   2.677   7.975 -1.9166 -1.1013 -1.8386
  201ccc     C3 4043   9.911   2.793   7.877  0.3570 -0.3022 -0.7861
  201ccc     C4 4044   9.918   2.778   7.719  0.2650 -0.0351 -0.1375
  201ccc     H5 4045   9.875   2.895   7.896 -0.2364 -0.5955 -0.2705
  201ccc     H6 4046   9.837   2.723   7.918  0.2981 -1.2966 -2.5083
  201ccc     H7 4047   9.824   2.817   7.682 -0.4880 -1.3209  0.3602
  201ccc     H8 4048  10.005   2.834   7.683 -0.4633  1.2727  0.1123
  201ccc     N2 4049   9.956   2.635   7.671 -0.1784  0.4522  0.0911
  201ccc     H9 4050   9.902   2.561   7.719  0.0647  0.5778  0.5626
  201ccc    H10 4051   9.951   2.619   7.569  0.4853  2.5135 -0.3188
  201ccc    H11 4052  10.054   2.622   7.697 -0.1823 -1.7627 -0.7958
  202ccc     N1 4053  11.581   2.032   7.935  0.2990  0.2917  0.0361
  202ccc     H4 4054  11.665   2.057   7.885 -0.0383  0.7468 -0.3205
  202ccc     C3 4055  11.526   1.898   7.918 -0.1299  0.8707 -0.0590
  202ccc     C4 4056  11.639   1.797   7.913  0.0385 -0.0179  0.1080
  202ccc     H5 4057  11.472   1.905   7.823 -1.0531  0.6292  0.4423
  202ccc     H6 4058  11.460   1.872   8.002 -0.1069  1.0269  0.0072
  202ccc     H7 4059  11.702   1.830   7.830  2.0293  1.6920  2.1564
  202ccc     H8 4060  11.691   1.801   8.009 -0.0118 -0.1315  0.1401
  202ccc     N2 4061  11.592   1.653   7.888  0.5329  0.5010  0.4706
  202ccc     H9 4062  11.537   1.631   7.803  1.5442 -1.3308  0.2513
  202ccc    H10 4063  11.677   1.596   7.883  0.7032  0.8379 -1.3701
  202ccc    H11 4064  11.547   1.618   7.973 -0.4701  0.7137  0.0497
  203ccc     N1 4065  11.647   2.715   7.521 -0.3007 -0.1759 -0.6167
  203ccc     H4 4066  11.727   2.664   7.556 -1.5845 -1.7340  0.1662
  203ccc     C3 4067  11.661   2.827   7.424 -0.6294 -0.0093 -0.4787
  203ccc     C4 4068  11.598   2.799   7.292 -0.2791 -0.5304 -0.0621
  203ccc     H5 4069  11.766   2.838   7.395 -0.9282  1.2737 -1.1781
  203ccc     H6 4070  11.622   2.922   7.464  3.1583  1.8979 -0.8808
  203ccc     H7 4071  11.638   2.873   7.222 -0.0361 -0.2408  0.3808
  203ccc     H8 4072  11.621   2.700   7.251  1.7812  0.0037 -0.3242
  203ccc     N2 4073  11.447   2.801   7.304  0.3091 -0.1149  0.6293
  203ccc     H9 4074  11.410   2.738   7.376  0.1646  0.3492  0.9614
  203ccc    H10 4075  11.418   2.898   7.324  1.0553  0.2834 -0.1294
  203ccc    H11 4076  11.407   2.775   7.212 -1.5958  0.5569  1.2258
  204ccc     N1 4077  12.618   2.769   9.275 -0.2964  0.1757 -0.7880
  204ccc     H4 4078  12.658   2.818   9.197  0.6609  1.0203  0.1937
  204ccc     C3 4079  12.612   2.834   9.410 -0.1361  0.3040 -0.4526
  204ccc     C4 4080  12.687   2.970   9.418  0.4933  0.0222  0.2627
  204ccc     H5 4081  12.652   2.770   9.490 -0.0836  0.4048 -0.3986
  204ccc     H6 4082  12.507   2.844   9.441  0.0892  0.3590  0.3134
  204ccc     H7 4083  12.674   3.023   9.513 -1.9711 -1.4939  0.8619
  204ccc     H8 4084  12.791   2.953   9.391  0.1282 -3.1385  0.3870
  204ccc     N2 4085  12.643   3.076   9.315  0.6021 -0.1387 -0.3585
  204ccc     H9 4086  12.546   3.099   9.342  0.6301  0.3910 -0.7077
  204ccc    H10 4087  12.702   3.160   9.318 -0.5136  0.9250 -3.6580
  204ccc    H11 4088  12.638   3.042   9.218  0.3950 -0.4658 -0.2369
  205ccc     N1 4089  12.729   2.452   8.665 -0.4790  0.6408  0.0446
  205ccc     H4 4090  12.712   2.552   8.668  0.9740  0.9074 -0.2299
  205ccc     C3 4091  12.859   2.389   8.649 -0.8060  1.2754  0.0063
  205ccc     C4 4092  12.971   2.495   8.652  0.5584  0.3249 -0.8271
  205ccc     H5 4093  12.857   2.320   8.564  0.1869  1.4603 -0.1855
  205ccc     H6 4094  12.878   2.320   8.733  0.4553  2.1729  0.4930
  205ccc     H7 4095  12.980   2.545   8.748  1.8130 -2.5421  0.6867
  205ccc     H8 4096  13.066   2.442   8.637  1.4236  1.5153  0.2616
  205ccc     N2 4097  12.958   2.609   8.557  0.0244 -0.6320  0.0126
  205ccc     H9 4098  13.000   2.689   8.607  2.0434 -3.2434  2.9078
  205ccc    H10 4099  13.001   2.588   8.466 -1.0335 -1.7284 -0.2562
  205ccc    H11 4100  12.863   2.633   8.527  0.8416  2.9406 -0.1640
  206ccc     N1 4101  10.177   6.379   7.845  0.0085 -0.0186 -0.5124
  206ccc     H4 4102  10.102   6.394   7.780  0.9595 -0.9924 -1.8898
  206ccc     C3 4103  10.239   6.504   7.900  0.2937  0.8795  0.1807
  206ccc     C4 4104  10.187   6.541   8.038  0.2244  0.3434  0.0529
  206ccc     H5 4105  10.230   6.582   7.823 -1.5586 -0.7719 -1.4052
  206ccc     H6 4106  10.342   6.480   7.927 -0.1611 -0.0337  1.2051
  206ccc     H7 4107  10.208   6.464   8.112 -0.4763  2.0794  2.1834
  206ccc     H8 4108  10.241   6.629   8.074 -0.7504  0.8754  0.2776
  206ccc     N2 4109  10.037   6.576   8.056 -0.3165  0.1187 -0.0665
  206ccc     H9 4110   9.980   6.491   8.045 -0.8315  0.3285  0.8930
  206ccc    H10 4111  10.010   6.619   8.145  0.4936 -0.7213  0.5972
  206ccc    H11 4112  10.008   6.637   7.977 -1.5670  1.1225  1.1131
  207ccc     N1 4113  10.419   5.782   7.402 -0.0661 -0.9675 -0.8255
  207ccc     H4 4114  10.392   5.875   7.373 -3.1637 -1.5693 -0.2348
  207ccc     C3 4115  10.513   5.700   7.324 -0.1210  0.9377 -0.0302
  207ccc     C4 4116  10.617   5.790   7.246 -0.2218 -0.1362  0.5205
  207ccc     H5 4117  10.451   5.634   7.262  2.5484 -0.3935 -1.4765
  207ccc     H6 4118  10.559   5.628   7.392 -4.1430  0.1942  2.2233
  207ccc     H7 4119  10.681   5.740   7.174 -0.3144  0.9975 -0.3774
  207ccc     H8 4120  10.563   5.865   7.188 -0.7434 -1.3904 -0.6490
  207ccc     N2 4121  10.717   5.859   7.335  0.4215  0.1052 -0.1631
  207ccc     H9 4122  10.772   5.921   7.275 -2.5130  0.8214 -2.3633
  207ccc    H10 4123  10.676   5.923   7.404 -1.5668  1.6211 -2.5888
  207ccc    H11 4124  10.772   5.795   7.394  0.9548  0.9407  0.2649
  208ccc     N1 4125  11.195   4.503   7.940  0.4053 -0.6691 -0.0802
  208ccc     H4 4126  11.109   4.530   7.987  0.5254 -2.7426  1.4931
  208ccc     C3 4127  11.230   4.361   7.965  0.3267 -0.6503 -0.2963
  208ccc     C4 4128  11.290   4.297   7.838  0.6041 -0.3842  0.4618
  208ccc     H5 4129  11.148   4.301   8.007  1.6292 -2.7765 -0.6286
  208ccc     H6 4130  11.313   4.357   8.037  0.7080 -3.4972 -0.7849
  208ccc     H7 4131  11.339   4.372   7.777  0.0102 -0.6006 -0.2914
  208ccc     H8 4132  11.363   4.216   7.851  1.8205  0.9066  2.2132
  208ccc     N2 4133  11.171   4.238   7.756 -0.4903  0.6399  0.4733
  208ccc     H9 4134  11.090   4.303   7.757 -0.3721  0.8608 -1.1063
  208ccc    H10 4135  11.205   4.243   7.658  0.5008  2.3121  0.8618
  208ccc    H11 4136  11.132   4.146   7.780  1.2095 -0.7125 -1.6005
  209ccc     N1 4137  11.549   5.253   8.094  0.0163 -0.6038  0.4889
  209ccc     H4 4138  11.532   5.254   7.994  0.1040  1.3021  0.4553
  209ccc     C3 4139  11.645   5.339   8.160  0.8039  0.1692  0.3273
  209ccc     C4 4140  11.587   5.454   8.234  0.6862 -0.4436  0.5445
  209ccc     H5 4141  11.710   5.378   8.081 -0.3186  1.5290  0.0298
  209ccc     H6 4142  11.707   5.282   8.230  1.4297  1.3355  0.7615
  209ccc     H7 4143  11.505   5.434   8.303 -0.5158  3.7343  0.5644
  209ccc     H8 4144  11.659   5.507   8.296  0.8658 -1.0560  0.8671
  209ccc     N2 4145  11.532   5.562   8.136 -0.2894  0.4361  0.1746
  209ccc     H9 4146  11.464   5.520   8.072 -0.0671  2.2332 -1.3239
  209ccc    H10 4147  11.493   5.647   8.179  0.4154  0.9861 -0.2521
  209ccc    H11 4148  11.605   5.598   8.073 -0.5053 -0.4054 -0.5736
  210ccc     N1 4149   9.168   3.594   7.977 -0.2616 -0.2817  0.0787
  210ccc     H4 4150   9.071   3.563   7.986 -1.2687  2.2435 -1.1311
  210ccc     C3 4151   9.241   3.574   7.853  0.4419  0.0595  0.5719
  210ccc     C4 4152   9.134   3.587   7.739  0.8228 -0.4491  0.4037
  210ccc     H5 4153   9.297   3.480   7.858  1.7406  0.7880  0.3209
  210ccc     H6 4154   9.315   3.655   7.843  0.4000 -0.0923 -1.2645
  210ccc     H7 4155   9.037   3.540   7.755  0.2293  0.7573  0.4999
  210ccc     H8 4156   9.117   3.693   7.718  1.0099 -0.4323  0.3411
  210ccc     N2 4157   9.188   3.530   7.609  0.0719  0.3854  0.0311
  210ccc     H9 4158   9.274   3.575   7.575 -0.5931  0.6038 -1.4414
  210ccc    H10 4159   9.198   3.428   7.609  0.6392  0.4183 -1.1126
  210ccc    H11 4160   9.123   3.539   7.529  0.6539 -2.7335 -0.9250
  211ccc     N1 4161   8.596   3.603   8.071  0.1687  0.5710 -0.8617
  211ccc     H4 4162   8.644   3.625   7.985  1.8870 -1.7760 -0.5968
  211ccc     C3 4163   8.476   3.519   8.072 -0.4780 -0.4625 -0.5539
  211ccc     C4 4164   8.343   3.595   8.041  0.7286 -0.1197 -0.5086
  211ccc     H5 4165   8.464   3.473   8.171 -0.2480  0.0897 -0.2706
  211ccc     H6 4166   8.485   3.432   8.005 -0.6741  0.2323 -1.5055
  211ccc     H7 4167   8.363   3.668   7.963  3.0691 -1.5337 -1.3433
  211ccc     H8 4168   8.260   3.528   8.018  0.2295  0.8431 -1.5731
  211ccc     N2 4169   8.295   3.672   8.157  0.0899 -0.1288 -0.4873
  211ccc     H9 4170   8.319   3.619   8.242  1.8306  0.7366 -0.3949
  211ccc    H10 4171   8.330   3.768   8.172 -1.6602  0.5462 -0.4409
  211ccc    H11 4172   8.192   3.685   8.153 -0.1416 -1.3799  0.6808
  212ccc     N1 4173   8.776   4.730   8.617  0.5937 -0.3196  0.5774
  212ccc     H4 4174   8.864   4.763   8.577  0.6607  0.3184  1.2153
  212ccc     C3 4175   8.735   4.801   8.738 -0.2668  0.2536 -0.7817
  212ccc     C4 4176   8.809   4.736   8.857  0.0093 -0.0597 -0.2137
  212ccc     H5 4177   8.629   4.780   8.755 -0.4614 -1.1127 -3.2525
  212ccc     H6 4178   8.755   4.909   8.734 -1.6414  0.5591 -0.0939
  212ccc     H7 4179   8.816   4.628   8.840 -0.2651 -0.0464 -0.3951
  212ccc     H8 4180   8.913   4.771   8.862 -0.1034  0.1220  1.3069
  212ccc     N2 4181   8.752   4.768   8.990  0.8713 -0.5042  0.0938
  212ccc     H9 4182   8.659   4.724   8.996  0.9340 -0.6179  0.2234
  212ccc    H10 4183   8.806   4.735   9.072  1.2271 -0.0294  0.0535
  212ccc    H11 4184   8.744   4.869   9.010  1.2625 -0.5158  0.3113
  213ccc     N1 4185   8.231   4.999   8.414  0.1297  0.6115  0.2300
  213ccc     H4 4186   8.287   5.062   8.357  1.3455 -0.5082  0.1259
  213ccc     C3 4187   8.097   5.042   8.463 -0.2160 -0.0775 -0.1994
  213ccc     C4 4188   7.996   5.046   8.353  0.2479 -0.9331 -0.8553
  213ccc     H5 4189   8.101   5.137   8.517 -0.4283  0.8004 -1.6836
  213ccc     H6 4190   8.066   4.964   8.534 -1.8026  0.3017 -0.4407
  213ccc     H7 4191   7.910   5.096   8.398 -0.2699 -0.2569 -2.5212
  213ccc     H8 4192   8.027   5.116   8.276  0.3121  0.4381  0.3710
  213ccc     N2 4193   7.957   4.914   8.292 -0.0892  0.1590 -0.2699
  213ccc     H9 4194   7.884   4.928   8.221 -0.4432 -0.4023 -0.0306
  213ccc    H10 4195   8.036   4.866   8.247  0.0786  0.6168 -0.4694
  213ccc    H11 4196   7.917   4.847   8.360  0.2810 -0.4097 -0.6059
  214ccc     N1 4197  10.030   3.259   8.601  0.2614  0.1446 -0.0607
  214ccc     H4 4198  10.022   3.352   8.561  1.6990 -0.7846 -2.7700
  214ccc     C3 4199   9.909   3.194   8.665 -0.6636  0.3339 -0.2992
  214ccc     C4 4200   9.823   3.296   8.741  0.7977 -0.2746  0.1210
  214ccc     H5 4201   9.937   3.111   8.730 -1.4232 -0.1706 -0.6095
  214ccc     H6 4202   9.853   3.147   8.583  0.9894  1.2700 -2.0727
  214ccc     H7 4203   9.780   3.369   8.671  0.5726  1.3014  1.8131
  214ccc     H8 4204   9.744   3.249   8.801  0.7387  0.7712  0.8970
  214ccc     N2 4205   9.896   3.381   8.840  0.2140 -0.6870 -0.1947
  214ccc     H9 4206   9.921   3.320   8.919 -0.7374 -1.2628 -0.3301
  214ccc    H10 4207   9.984   3.426   8.812 -0.1301  1.9783  2.4870
  214ccc    H11 4208   9.826   3.442   8.886  0.4322 -0.5101 -0.0932
  215ccc     N1 4209  10.307   3.192   7.900  0.5403 -0.1957 -0.2493
  215ccc     H4 4210  10.265   3.119   7.956 -0.4589  0.1573 -0.5265
  215ccc     C3 4211  10.292   3.179   7.754 -0.0603 -0.4468  0.4040
  215ccc     C4 4212  10.385   3.072   7.692  0.0972  0.3206  0.1150
  215ccc     H5 4213  10.320   3.276   7.712 -0.3594 -0.2146  0.7339
  215ccc     H6 4214  10.187   3.154   7.729 -0.2880  0.2400  0.6613
  215ccc     H7 4215  10.491   3.092   7.708 -0.0791  0.5522  1.0402
  215ccc     H8 4216  10.379   2.975   7.742  4.0783  0.9884  2.2609
  215ccc     N2 4217  10.353   3.046   7.544 -0.6586  0.6239  0.4714
  215ccc     H9 4218  10.268   2.991   7.525 -1.5573  2.2953 -0.6817
  215ccc    H10 4219  10.337   3.135   7.494 -1.2891  1.1610  1.6042
  215ccc    H11 4220  10.431   2.993   7.503 -0.7844  1.5608 -1.0876
  216ccc     N1 4221  11.251   3.143   8.293  0.3247  0.5221  0.5845
  216ccc     H4 4222  11.231   3.090   8.377 -0.1242 -1.6067 -0.7811
  216ccc     C3 4223  11.188   3.091   8.165  0.7412 -0.0712 -0.5175
  216ccc     C4 4224  11.103   2.962   8.201  0.7963 -0.2661 -0.4776
  216ccc     H5 4225  11.261   3.081   8.085  0.5082 -0.5328 -0.6793
  216ccc     H6 4226  11.118   3.168   8.130 -0.1678 -1.2113 -1.2978
  216ccc     H7 4227  11.154   2.898   8.273 -1.2492 -0.8709  0.5171
  216ccc     H8 4228  11.010   2.987   8.253  1.6871  0.2437  0.9262
  216ccc     N2 4229  11.072   2.872   8.085  0.2660  0.1850  0.4928
  216ccc     H9 4230  11.159   2.847   8.035 -0.4848 -0.9745 -0.2841
  216ccc    H10 4231  11.034   2.784   8.121  0.1656  0.2363  0.5127
  216ccc    H11 4232  11.006   2.903   8.013  0.2588 -0.2790  0.2965
  217ccc     N1 4233  12.009   3.108   8.718 -0.0483 -0.5738 -0.3631
  217ccc     H4 4234  12.006   3.175   8.794 -0.5373 -0.0063 -0.8654
  217ccc     C3 4235  12.129   3.026   8.702  0.1040  0.3458  0.0509
  217ccc     C4 4236  12.243   3.109   8.641  0.1004 -0.8702 -0.0712
  217ccc     H5 4237  12.097   2.943   8.638 -0.6643 -0.5775  1.5691
  217ccc     H6 4238  12.162   2.977   8.795 -1.1775 -1.0827 -0.2111
  217ccc     H7 4239  12.201   3.179   8.568  0.0934  0.1352  0.8645
  217ccc     H8 4240  12.288   3.170   8.719  0.6778  1.2374 -1.9619
  217ccc     N2 4241  12.350   3.016   8.594  0.2323 -0.4680 -0.6319
  217ccc     H9 4242  12.386   2.958   8.671 -1.0530 -1.1902 -0.5351
  217ccc    H10 4243  12.315   2.960   8.514 -0.0768 -0.5952 -0.4110
  217ccc    H11 4244  12.427   3.076   8.561 -1.1859 -0.1112 -3.7267
  218ccc     N1 4245  12.119   3.933   9.369 -0.2799 -0.6544  0.1104
  218ccc     H4 4246  12.128   3.938   9.470  0.2144  0.6090  0.0229
  218ccc     C3 4247  12.155   3.812   9.305  0.4008 -0.1748  0.2317
  218ccc     C4 4248  12.293   3.768   9.358 -0.1011  0.2159 -0.0715
  218ccc     H5 4249  12.149   3.829   9.196 -2.3797 -2.9964 -0.2276
  218ccc     H6 4250  12.076   3.739   9.329 -1.4331  0.5686 -2.9488
  218ccc     H7 4251  12.324   3.672   9.318  1.4268 -0.3188  2.2264
  218ccc     H8 4252  12.369   3.840   9.327  0.4513 -0.7795 -1.1059
  218ccc     N2 4253  12.297   3.737   9.503 -0.6730  0.4806 -0.7338
  218ccc     H9 4254  12.218   3.686   9.544 -0.7209  0.7444 -0.4912
  218ccc    H10 4255  12.384   3.688   9.527 -2.5402 -1.8139  1.9716
  218ccc    H11 4256  12.313   3.825   9.556 -0.4252  0.9064 -1.5035
  219ccc     N1 4257  12.095   4.685   9.402  0.2146  0.2704 -0.3625
  219ccc     H4 4258  12.147   4.602   9.379 -1.1051 -0.1947 -1.8347
  219ccc     C3 4259  12.145   4.823   9.379  0.7815  0.2580  0.2068
  219ccc     C4 4260  12.255   4.838   9.267 -0.5808  0.3877 -0.1528
  219ccc     H5 4261  12.179   4.868   9.473  1.7665  0.1424 -0.0807
  219ccc     H6 4262  12.064   4.890   9.348  0.3039  0.1187  1.1103
  219ccc     H7 4263  12.211   4.820   9.169  0.1733 -0.2470 -0.3864
  219ccc     H8 4264  12.285   4.942   9.270  0.8418 -0.0026 -0.2265
  219ccc     N2 4265  12.375   4.752   9.294 -0.0401 -0.4125 -0.2172
  219ccc     H9 4266  12.352   4.656   9.323  1.2900 -0.5288  0.5283
  219ccc    H10 4267  12.434   4.761   9.210 -0.1686  2.4257 -0.1291
  219ccc    H11 4268  12.422   4.795   9.376 -3.5707  0.1955  1.6750
  220ccc     N1 4269  11.299   5.624   9.761 -0.3513  0.4105 -0.2449
  220ccc     H4 4270  11.387   5.648   9.806  0.1265  2.2548 -2.0174
  220ccc     C3 4271  11.202   5.559   9.853  0.3715  0.9403 -0.7025
  220ccc     C4 4272  11.212   5.604  10.003  0.1455 -0.0042 -0.5727
  220ccc     H5 4273  11.210   5.450   9.850  0.6861  0.9779 -1.1654
  220ccc     H6 4274  11.101   5.578   9.814 -0.8950 -1.4924  1.1019
  220ccc     H7 4275  11.206   5.713  10.015  1.7166  0.0153  0.2310
  220ccc     H8 4276  11.128   5.556  10.055 -0.6970  1.7098 -0.2566
  220ccc     N2 4277  11.342   5.561  10.066 -0.1242 -0.1155 -0.6347
  220ccc     H9 4278  11.333   5.554  10.169 -1.4589  0.6833 -0.6738
  220ccc    H10 4279  11.366   5.469  10.028  2.0611  0.2584 -0.2817
  220ccc    H11 4280  11.410   5.633  10.036  1.2190 -1.3309 -0.6220
  221ccc     N1 4281  11.266   5.593   9.077 -0.0365 -0.3729 -0.2530
  221ccc     H4 4282  11.238   5.633   9.166  1.4111  1.7026 -0.6636
  221ccc     C3 4283  11.231   5.657   8.950  0.2487 -0.5122  0.1251
  221ccc     C4 4284  11.343   5.735   8.884 -0.0100 -0.1917 -1.2887
  221ccc     H5 4285  11.146   5.725   8.969  0.9675  0.7248 -0.8713
  221ccc     H6 4286  11.194   5.579   8.882  1.4624 -2.6242  1.7698
  221ccc     H7 4287  11.308   5.786   8.795  1.7530 -0.9834 -2.4768
  221ccc     H8 4288  11.385   5.808   8.954  1.6105 -0.1902 -2.2365
  221ccc     N2 4289  11.442   5.639   8.838 -0.6465 -0.9368  0.0996
  221ccc     H9 4290  11.403   5.577   8.766 -1.8255 -0.7387  0.5496
  221ccc    H10 4291  11.512   5.685   8.777 -1.5366 -1.4838 -1.3813
  221ccc    H11 4292  11.491   5.583   8.909  2.8001  2.4046  0.7708
  222ccc     N1 4293   9.097   5.157  11.196 -0.3143  0.2831 -0.3415
  222ccc     H4 4294   9.125   5.150  11.293  0.5782 -0.2504 -0.6237
  222ccc     C3 4295   9.025   5.270  11.147  0.0517  0.1132 -0.8955
  222ccc     C4 4296   8.975   5.371  11.253 -0.5179 -0.5510 -0.1560
  222ccc     H5 4297   8.935   5.234  11.096 -1.4125  0.4387  1.3187
  222ccc     H6 4298   9.084   5.334  11.080  0.3991  2.6593  1.6042
  222ccc     H7 4299   9.062   5.410  11.307 -2.3920  1.4024  1.7048
  222ccc     H8 4300   8.917   5.456  11.216  0.4042  0.7758  1.2632
  222ccc     N2 4301   8.884   5.318  11.365 -0.1448 -0.4211 -0.0488
  222ccc     H9 4302   8.790   5.318  11.324  0.4063 -0.8012 -1.3922
  222ccc    H10 4303   8.904   5.219  11.383 -1.0875 -0.7339 -0.6637
  222ccc    H11 4304   8.880   5.376  11.450 -3.4286 -0.0171 -0.3616
  223ccc     N1 4305   9.608   5.390  11.425 -0.2600 -0.2969 -0.5321
  223ccc     H4 4306   9.649   5.398  11.333  0.0284  1.5613 -0.2932
  223ccc     C3 4307   9.684   5.445  11.543 -0.1182  0.1073  0.1950
  223ccc     C4 4308   9.833   5.491  11.508  0.2549 -0.3672  0.1863
  223ccc     H5 4309   9.697   5.360  11.611  1.4861 -0.7386 -1.1061
  223ccc     H6 4310   9.628   5.522  11.598 -0.8346 -0.2998  0.0402
  223ccc     H7 4311   9.900   5.489  11.594 -0.9640  0.0596  1.1590
  223ccc     H8 4312   9.878   5.428  11.431  0.7077  2.3466 -1.9281
  223ccc     N2 4313   9.843   5.635  11.449  0.5253  0.5078  0.5384
  223ccc     H9 4314   9.768   5.691  11.491 -0.3746  1.2672 -1.8664
  223ccc    H10 4315   9.933   5.684  11.462 -0.3143  2.5505 -0.8127
  223ccc    H11 4316   9.825   5.639  11.347  2.3213 -0.8069  0.1164
  224ccc     N1 4317   8.471   6.105  10.568  0.0448  0.1975 -0.8208
  224ccc     H4 4318   8.474   6.017  10.518 -0.9001 -1.6414  2.1360
  224ccc     C3 4319   8.409   6.213  10.500  0.2061  0.0753 -0.6549
  224ccc     C4 4320   8.515   6.295  10.419  0.0785  0.4140  0.5387
  224ccc     H5 4321   8.367   6.282  10.573  2.9151  1.5365 -0.3721
  224ccc     H6 4322   8.332   6.166  10.437  0.1463 -0.5477 -0.1301
  224ccc     H7 4323   8.565   6.232  10.345 -1.4808  0.2490 -0.4257
  224ccc     H8 4324   8.462   6.374  10.365 -1.7194 -0.0478  1.5669
  224ccc     N2 4325   8.618   6.361  10.506  0.1767 -0.0313 -0.2758
  224ccc     H9 4326   8.579   6.439  10.561  0.8128 -0.6932  1.1505
  224ccc    H10 4327   8.661   6.293  10.570  1.4122  0.2501 -0.7774
  224ccc    H11 4328   8.689   6.416  10.457  0.8868  1.4792  2.2509
  225ccc     N1 4329   8.037   5.788  11.080  0.2001  0.4152 -0.0266
  225ccc     H4 4330   8.061   5.866  11.020  1.4683 -1.8227 -2.6202
  225ccc     C3 4331   7.931   5.802  11.182 -0.8106  0.1577  0.5072
  225ccc     C4 4332   7.951   5.939  11.246 -0.5822 -0.4999  0.1137
  225ccc     H5 4333   7.938   5.719  11.253 -2.4432  1.3060  2.0989
  225ccc     H6 4334   7.838   5.798  11.124 -0.9383 -0.6070  0.7511
  225ccc     H7 4335   8.042   5.946  11.306  0.4853 -0.5738 -1.4378
  225ccc     H8 4336   7.955   6.010  11.163  2.1203 -0.6523  0.0236
  225ccc     N2 4337   7.835   5.979  11.331  0.9214  0.0323  0.6012
  225ccc     H9 4338   7.836   6.082  11.329 -0.3312  0.0695  0.8010
  225ccc    H10 4339   7.745   5.953  11.288  0.8186 -0.9602  1.3614
  225ccc    H11 4340   7.835   5.956  11.432  0.3056 -4.6199 -0.2176
  226ccc     N1 4341   7.317   5.338  10.117  0.2967 -0.2311 -0.9843
  226ccc     H4 4342   7.339   5.431  10.083  0.8072 -0.0386 -0.1764
  226ccc     C3 4343   7.172   5.323  10.160  0.4271  0.0376 -0.0934
  226ccc     C4 4344   7.143   5.400  10.290  0.3661 -0.3744  0.2933
  226ccc     H5 4345   7.141   5.218  10.168 -0.0181  0.2184  0.6237
  226ccc     H6 4346   7.114   5.363  10.076  1.5525 -1.1256 -1.4666
  226ccc     H7 4347   7.229   5.372  10.351  1.1920  1.5095  0.0647
  226ccc     H8 4348   7.140   5.509  10.286 -0.2244 -0.2908  2.2561
  226ccc     N2 4349   7.013   5.371  10.367  0.1024  0.2880  0.0202
  226ccc     H9 4350   7.014   5.419  10.458  2.2999  1.2578 -0.4418
  226ccc    H10 4351   6.922   5.385  10.320  0.0319  0.9666  0.3503
  226ccc    H11 4352   7.002   5.271  10.389 -1.3949 -0.0845 -2.0602
  227ccc     N1 4353   7.578   5.847   9.785 -0.0698 -0.2817 -0.1081
  227ccc     H4 4354   7.533   5.791   9.714 -0.1518  0.6993 -0.8541
  227ccc     C3 4355   7.604   5.988   9.766 -0.2592 -0.6050 -0.6160
  227ccc     C4 4356   7.581   6.055   9.631  0.3534 -0.0735 -0.0170
  227ccc     H5 4357   7.704   6.021   9.798 -2.0931  1.2788  3.9362
  227ccc     H6 4358   7.536   6.039   9.835 -1.0288  0.3593 -2.0398
  227ccc     H7 4359   7.624   5.992   9.552 -0.9781 -0.8739 -0.1385
  227ccc     H8 4360   7.473   6.062   9.619 -0.1012 -1.1538  2.7081
  227ccc     N2 4361   7.642   6.195   9.634 -0.0674 -0.0017  0.8174
  227ccc     H9 4362   7.743   6.181   9.625  0.0291  1.5878 -1.5450
  227ccc    H10 4363   7.618   6.260   9.557  1.2712 -1.5428 -0.9945
  227ccc    H11 4364   7.624   6.229   9.729 -1.8238 -0.9192  0.8628
  228ccc     N1 4365   8.972   4.675  10.628 -0.6766 -0.0520 -0.3329
  228ccc     H4 4366   8.966   4.765  10.675  0.4998  0.3264 -0.8618
  228ccc     C3 4367   9.105   4.617  10.599 -1.0554 -0.4878  0.0677
  228ccc     C4 4368   9.162   4.528  10.708  0.5049  0.5073 -0.7923
  228ccc     H5 4369   9.167   4.708  10.592 -2.1525  0.3212  0.5215
  228ccc     H6 4370   9.104   4.579  10.496 -2.0470 -0.1078 -0.0742
  228ccc     H7 4371   9.157   4.588  10.799  0.2669 -0.2340 -0.3065
  228ccc     H8 4372   9.085   4.452  10.716 -2.4767  3.3009 -0.8445
  228ccc     N2 4373   9.303   4.477  10.676 -0.3470  0.2574  0.4995
  228ccc     H9 4374   9.376   4.517  10.736  0.5574 -1.8157  0.8564
  228ccc    H10 4375   9.311   4.374  10.683 -2.2380 -0.0558 -0.9638
  228ccc    H11 4376   9.312   4.512  10.580 -1.4825  3.7846  1.5198
  229ccc     N1 4377   8.357   4.808  10.954 -0.6860  0.0439 -0.4843
  229ccc     H4 4378   8.456   4.819  10.933 -1.0157  2.6373 -0.9743
  229ccc     C3 4379   8.307   4.752  11.077  0.3430  0.4924 -0.1770
  229ccc     C4 4380   8.295   4.853  11.190 -0.2411 -0.6531  0.6000
  229ccc     H5 4381   8.362   4.666  11.117  1.0069  1.6053  1.3870
  229ccc     H6 4382   8.204   4.716  11.061  0.9012 -0.8572 -0.9325
  229ccc     H7 4383   8.211   4.919  11.166 -1.0148 -1.4497  1.0754
  229ccc     H8 4384   8.274   4.795  11.280  2.6240 -1.5990  0.7701
  229ccc     N2 4385   8.428   4.934  11.205 -0.5285  0.2497 -0.1826
  229ccc     H9 4386   8.433   4.999  11.284  0.0448  0.5771 -0.4808
  229ccc    H10 4387   8.505   4.868  11.227 -1.8455 -0.9224  1.1057
  229ccc    H11 4388   8.439   4.998  11.126  0.1871 -0.6847 -0.8690
  230ccc     N1 4389   7.883   4.341  10.602 -0.6999  0.2845  0.6505
  230ccc     H4 4390   7.834   4.353  10.514  0.9535  0.3273 -0.2980
  230ccc     C3 4391   7.895   4.208  10.658 -1.1842  0.4498 -0.3752
  230ccc     C4 4392   8.049   4.170  10.690  0.2729  1.1588  0.6903
  230ccc     H5 4393   7.857   4.125  10.598  1.8555 -1.4286  0.0724
  230ccc     H6 4394   7.845   4.208  10.756  0.8324 -1.2110  0.7245
  230ccc     H7 4395   8.105   4.253  10.734  1.2707  1.7330 -1.5478
  230ccc     H8 4396   8.050   4.089  10.763  0.8462  1.4665  1.0370
  230ccc     N2 4397   8.131   4.110  10.577 -0.5360 -0.2018 -0.3453
  230ccc     H9 4398   8.093   4.140  10.487 -0.1963  1.4258  0.0178
  230ccc    H10 4399   8.231   4.136  10.584 -0.9011  1.8239 -1.9480
  230ccc    H11 4400   8.122   4.007  10.583  0.1523 -0.2573 -0.0957
  231ccc     N1 4401   7.476   4.864  10.224 -0.0552  1.0453 -0.5210
  231ccc     H4 4402   7.407   4.837  10.294  0.3256  1.9369  0.2180
  231ccc     C3 4403   7.443   4.849  10.081  0.2819  0.3065 -0.5102
  231ccc     C4 4404   7.295   4.822  10.057 -0.0594 -0.5861  0.2915
  231ccc     H5 4405   7.501   4.760  10.051  0.9467  0.5334  0.0795
  231ccc     H6 4406   7.483   4.930  10.018  3.8014 -1.1108 -0.3317
  231ccc     H7 4407   7.272   4.771   9.964  0.7767 -0.9270  0.2590
  231ccc     H8 4408   7.260   4.755  10.136 -1.5672  1.9688  1.9236
  231ccc     N2 4409   7.211   4.950  10.061  0.3839  0.3693 -0.2132
  231ccc     H9 4410   7.219   4.999   9.970 -1.6939 -2.7909 -2.3053
  231ccc    H10 4411   7.111   4.926  10.069 -0.1234  2.3889 -0.0491
  231ccc    H11 4412   7.229   5.006  10.145 -0.7367 -1.6211  1.4504
  232ccc     N1 4413   7.306   5.317  11.948 -0.2206  0.0922  0.9345
  232ccc     H4 4414   7.257   5.381  11.886  2.8160  2.3536  0.6756
  232ccc     C3 4415   7.243   5.244  12.063 -0.5812 -0.4235  0.1808
  232ccc     C4 4416   7.202   5.344  12.172  0.4354  0.3947 -0.8734
  232ccc     H5 4417   7.306   5.174  12.120  0.3629  0.3519  0.1170
  232ccc     H6 4418   7.169   5.173  12.023  1.2792 -2.3639 -0.0136
  232ccc     H7 4419   7.288   5.402  12.204  1.0294 -0.0578 -1.5958
  232ccc     H8 4420   7.122   5.406  12.134 -0.4219  0.0193  0.2570
  232ccc     N2 4421   7.161   5.273  12.297 -1.0785 -0.5468 -0.1769
  232ccc     H9 4422   7.121   5.334  12.370  1.2031  0.7249  0.1065
  232ccc    H10 4423   7.102   5.194  12.267 -1.9086  0.2325 -0.6195
  232ccc    H11 4424   7.243   5.237  12.348  0.8570  3.4587 -0.0507
  233ccc     N1 4425   7.438   5.902  11.874 -0.6445 -0.2428  0.6748
  233ccc     H4 4426   7.385   5.816  11.883 -0.4041 -0.6952 -1.6341
  233ccc     C3 4427   7.370   6.021  11.936 -0.2841  0.2674  0.0355
  233ccc     C4 4428   7.266   5.993  12.045 -0.7729  0.5296  0.2868
  233ccc     H5 4429   7.320   6.080  11.858  0.0044  0.3872 -0.0634
  233ccc     H6 4430   7.446   6.091  11.973 -0.6156  0.6052  0.0831
  233ccc     H7 4431   7.232   6.078  12.104  0.2582  0.8908  0.3898
  233ccc     H8 4432   7.178   5.940  12.010 -0.5405  0.2526  0.1129
  233ccc     N2 4433   7.328   5.909  12.154  0.4799  0.2139  0.2056
  233ccc     H9 4434   7.263   5.892  12.232  0.2445 -1.2124 -0.2800
  233ccc    H10 4435   7.353   5.814  12.122 -3.7397 -0.4699 -1.8107
  233ccc    H11 4436   7.417   5.944  12.192  0.6344 -2.5363  2.6897
  234ccc     N1 4437   7.966   4.827  10.115 -0.4230  0.4575  0.4529
  234ccc     H4 4438   7.892   4.873  10.167 -0.3075  2.2884 -0.9147
  234ccc     C3 4439   7.942   4.758   9.983  0.7539 -0.8782 -0.8460
  234ccc     C4 4440   7.803   4.698   9.968  0.9729 -0.8461 -0.2687
  234ccc     H5 4441   8.008   4.672   9.962 -0.0604 -2.0620  1.1904
  234ccc     H6 4442   7.959   4.820   9.894  2.0941  0.0615  0.0290
  234ccc     H7 4443   7.721   4.763   9.999  0.7395 -0.4929 -1.5947
  234ccc     H8 4444   7.789   4.666   9.865 -0.2556  0.0215 -0.3961
  234ccc     N2 4445   7.776   4.574  10.043 -0.3253  0.1753 -0.2856
  234ccc     H9 4446   7.816   4.501   9.983 -0.4362  0.4863 -0.7484
  234ccc    H10 4447   7.831   4.579  10.130 -0.4171  1.1153 -0.2650
  234ccc    H11 4448   7.678   4.548  10.062  0.1542 -1.6962 -0.1595
  235ccc     N1 4449   8.308   5.541  10.109 -0.1352 -0.2239 -0.2624
  235ccc     H4 4450   8.368   5.460  10.116  0.7106  0.5620  3.3375
  235ccc     C3 4451   8.349   5.664  10.044  0.4791  0.0086  0.1896
  235ccc     C4 4452   8.498   5.678  10.020  0.2705 -0.2150  0.4964
  235ccc     H5 4453   8.315   5.746  10.108  1.0021 -0.6608  1.3533
  235ccc     H6 4454   8.301   5.678   9.946  2.0281  1.4370 -0.4227
  235ccc     H7 4455   8.509   5.769   9.961 -2.5824  0.1028  0.2807
  235ccc     H8 4456   8.553   5.688  10.113 -0.9363 -0.8441  1.3093
  235ccc     N2 4457   8.554   5.564   9.932 -1.0834 -0.7648  0.1039
  235ccc     H9 4458   8.500   5.557   9.845 -1.1020 -1.2573  0.1515
  235ccc    H10 4459   8.652   5.587   9.910 -0.2761 -2.6749  1.4296
  235ccc    H11 4460   8.556   5.475   9.984  0.7853 -2.2470 -2.2804
  236ccc     N1 4461   7.255   6.347  10.119 -0.0845 -0.8511 -0.2979
  236ccc     H4 4462   7.201   6.356  10.203  1.5612  0.0714  0.7205
  236ccc     C3 4463   7.232   6.452  10.017  0.1168  0.4037  0.7269
  236ccc     C4 4464   7.085   6.494  10.010  0.4180 -0.3155 -0.6671
  236ccc     H5 4465   7.260   6.417   9.917 -0.3928  0.4767  0.5567
  236ccc     H6 4466   7.294   6.541  10.036 -0.6127  1.2556 -0.7253
  236ccc     H7 4467   7.016   6.413  10.035 -0.7585  1.5323  2.8188
  236ccc     H8 4468   7.083   6.564  10.094  0.6973 -0.2359 -0.7277
  236ccc     N2 4469   7.043   6.575   9.893  0.4365 -0.1091  0.4878
  236ccc     H9 4470   7.046   6.510   9.813  3.5024 -0.1232  0.4902
  236ccc    H10 4471   6.946   6.610   9.899  0.6606  0.3088  2.5771
  236ccc    H11 4472   7.099   6.661   9.886 -2.2186  1.8120  1.4109
  237ccc     N1 4473   6.992   5.958  10.549  0.3958 -0.8324  0.7542
  237ccc     H4 4474   7.088   5.980  10.572 -0.5201  2.1781  2.1846
  237ccc     C3 4475   6.895   6.054  10.586  0.1905 -0.7347 -0.1377
  237ccc     C4 4476   6.914   6.100  10.738 -0.1279  0.0951 -0.1607
  237ccc     H5 4477   6.803   5.995  10.587  0.9331 -2.0323  2.4126
  237ccc     H6 4478   6.906   6.140  10.519  2.7408 -0.6586  0.2422
  237ccc     H7 4479   6.898   6.015  10.804  0.2649 -0.9063 -1.3133
  237ccc     H8 4480   7.017   6.129  10.759  0.0900 -0.6691 -0.1575
  237ccc     N2 4481   6.821   6.210  10.789 -0.1488 -0.0478 -0.9771
  237ccc     H9 4482   6.852   6.306  10.765 -0.4877  0.0164 -1.1659
  237ccc    H10 4483   6.725   6.186  10.759 -0.6192  0.8954 -0.2698
  237ccc    H11 4484   6.815   6.201  10.891 -0.8865  0.9212 -0.9180
  238ccc     N1 4485   9.846   4.612   7.463 -0.4233  0.5792 -0.4541
  238ccc     H4 4486   9.769   4.577   7.520  1.2041 -0.4022  1.2643
  238ccc     C3 4487   9.815   4.658   7.335 -0.2365  0.8928  0.0004
  238ccc     C4 4488   9.800   4.538   7.232 -0.2901 -0.4667 -0.0536
  238ccc     H5 4489   9.900   4.722   7.307  2.2229 -2.1914 -0.0317
  238ccc     H6 4490   9.721   4.715   7.338 -1.3506 -0.8786  0.4060
  238ccc     H7 4491   9.893   4.481   7.240  1.0296  1.5710  0.0291
  238ccc     H8 4492   9.716   4.474   7.258  0.5142 -0.9313  1.5144
  238ccc     N2 4493   9.780   4.582   7.091 -0.3064  0.7548  0.1340
  238ccc     H9 4494   9.745   4.499   7.039  2.1875 -0.4188  0.1714
  238ccc    H10 4495   9.713   4.657   7.073 -0.6663  0.3841 -0.1008
  238ccc    H11 4496   9.868   4.606   7.043 -0.3878 -1.1665 -1.1068
  239ccc     N1 4497  10.210   4.051   7.653 -0.4882 -0.3104  0.1142
  239ccc     H4 4498  10.199   4.120   7.580 -0.4398  0.3474  0.7162
  239ccc     C3 4499  10.196   3.906   7.628  0.3674 -0.1317 -0.6019
  239ccc     C4 4500  10.281   3.860   7.513  0.5314  0.0250 -0.2500
  239ccc     H5 4501  10.091   3.876   7.614  0.5549 -1.6085  0.8476
  239ccc     H6 4502  10.230   3.852   7.718 -0.8012 -1.7244 -1.0590
  239ccc     H7 4503  10.236   3.906   7.425 -1.1055  0.6768  0.8761
  239ccc     H8 4504  10.384   3.893   7.530  0.4230 -0.7649  2.3701
  239ccc     N2 4505  10.289   3.711   7.500 -0.5899 -0.9732  0.2199
  239ccc     H9 4506  10.356   3.680   7.428 -0.6003  0.6837 -0.5448
  239ccc    H10 4507  10.308   3.663   7.589  1.5171 -0.1712  0.2645
  239ccc    H11 4508  10.196   3.684   7.464 -0.8669 -2.2691  1.8038
  240ccc     N1 4509   9.109   3.709   9.130 -0.4216 -0.0762  0.0933
  240ccc     H4 4510   9.059   3.660   9.056  0.2512 -0.0342 -0.3945
  240ccc     C3 4511   9.090   3.675   9.272  0.3198  0.3431  0.8077
  240ccc     C4 4512   8.986   3.778   9.339 -0.4096  0.2549  0.0531
  240ccc     H5 4513   9.186   3.677   9.323  1.1735 -0.5668 -0.7008
  240ccc     H6 4514   9.056   3.575   9.301 -0.2971  0.0186 -0.8920
  240ccc     H7 4515   9.028   3.877   9.326 -0.4539  0.1333 -1.1257
  240ccc     H8 4516   8.891   3.770   9.285 -0.9997 -3.3048  1.3316
  240ccc     N2 4517   8.971   3.773   9.493  0.2108 -0.0522  0.3903
  240ccc     H9 4518   8.933   3.683   9.526 -1.2870  0.3337 -0.1958
  240ccc    H10 4519   9.064   3.784   9.536  1.0807 -1.4616 -1.0186
  240ccc    H11 4520   8.907   3.849   9.518  0.1167 -0.0686  0.1983
  241ccc     N1 4521   8.703   3.954   8.721 -0.2843 -0.0706 -0.3963
  241ccc     H4 4522   8.747   3.950   8.812  2.5754  0.3612 -1.6489
  241ccc     C3 4523   8.566   4.013   8.714  0.4913  0.2683  0.4069
  241ccc     C4 4524   8.547   4.156   8.781  0.6792 -0.2191 -0.4490
  241ccc     H5 4525   8.491   3.948   8.761 -0.9498  1.9490  0.5591
  241ccc     H6 4526   8.535   4.029   8.610 -2.4540 -1.4692  0.8942
  241ccc     H7 4527   8.553   4.140   8.889 -0.0618 -2.6998 -0.6977
  241ccc     H8 4528   8.618   4.233   8.753 -0.3505  0.9800  0.1434
  241ccc     N2 4529   8.401   4.206   8.764  0.0543  0.4510 -0.5255
  241ccc     H9 4530   8.360   4.184   8.672  0.5476 -2.2413 -0.2003
  241ccc    H10 4531   8.342   4.160   8.835  1.1848 -0.0012  0.1494
  241ccc    H11 4532   8.404   4.308   8.779  1.0685  0.4080 -0.3321
  242ccc     N1 4533   8.503   6.159   6.753  0.0154 -0.8565 -0.0744
  242ccc     H4 4534   8.585   6.115   6.711  0.5766  0.7073 -0.6935
  242ccc     C3 4535   8.436   6.261   6.667  0.2072  0.3105 -0.4590
  242ccc     C4 4536   8.397   6.215   6.525  0.0171  0.2051 -0.1821
  242ccc     H5 4537   8.503   6.348   6.665 -0.8609  1.1828  0.1077
  242ccc     H6 4538   8.350   6.292   6.728 -0.6910 -3.4292  0.4420
  242ccc     H7 4539   8.337   6.124   6.522  1.9710 -1.1555  0.3981
  242ccc     H8 4540   8.342   6.295   6.475 -0.3313 -0.1111 -0.3113
  242ccc     N2 4541   8.518   6.200   6.437 -0.4992 -0.0936 -0.2260
  242ccc     H9 4542   8.591   6.135   6.470 -0.6260  0.7538  1.8775
  242ccc    H10 4543   8.501   6.173   6.339 -3.0808 -0.6473  0.2977
  242ccc    H11 4544   8.569   6.289   6.424  1.0327 -1.0519 -1.0944
  243ccc     N1 4545   8.617   5.633   6.981 -0.0694  0.9317 -0.2143
  243ccc     H4 4546   8.560   5.695   6.926 -0.6242  0.2359 -0.4441
  243ccc     C3 4547   8.703   5.536   6.910  0.1552 -0.3816 -0.5626
  243ccc     C4 4548   8.693   5.552   6.752 -0.3546 -0.1683 -1.3978
  243ccc     H5 4549   8.671   5.433   6.932  0.4223 -0.5708 -1.0541
  243ccc     H6 4550   8.804   5.545   6.952  0.4990  1.0747 -1.6279
  243ccc     H7 4551   8.594   5.540   6.709 -1.4528 -1.5584  1.2791
  243ccc     H8 4552   8.719   5.655   6.729  2.6940 -0.8802 -1.5423
  243ccc     N2 4553   8.800   5.472   6.681 -0.0619  0.6748  0.0608
  243ccc     H9 4554   8.891   5.484   6.728  1.6595 -0.4574 -2.7846
  243ccc    H10 4555   8.776   5.372   6.683 -0.0999  0.6806 -0.1564
  243ccc    H11 4556   8.799   5.487   6.579 -0.6828  0.8963  0.0917
  244ccc     N1 4557   7.909   5.871   7.681 -0.5940 -0.3495  0.4188
  244ccc     H4 4558   8.010   5.869   7.677 -0.6140 -1.2199 -0.3101
  244ccc     C3 4559   7.822   5.847   7.566  0.5366 -0.1384  0.9305
  244ccc     C4 4560   7.784   5.978   7.492 -0.1247 -0.4043 -0.0502
  244ccc     H5 4561   7.726   5.801   7.591  0.1616  0.3641  0.4384
  244ccc     H6 4562   7.877   5.789   7.490  0.3696  1.6856 -0.6685
  244ccc     H7 4563   7.744   6.045   7.569  1.1599 -0.2773  0.5487
  244ccc     H8 4564   7.872   6.036   7.461  1.4016 -2.6701 -0.1815
  244ccc     N2 4565   7.682   5.971   7.373 -0.4899 -0.0424 -0.0566
  244ccc     H9 4566   7.625   6.056   7.361 -2.1464 -1.2211 -0.9026
  244ccc    H10 4567   7.723   5.961   7.279 -0.1836  1.6546 -0.1340
  244ccc    H11 4568   7.612   5.899   7.394  0.6340 -1.2029 -0.1432
  245ccc     N1 4569   7.836   5.923   8.254  0.2454 -0.4718 -0.0209
  245ccc     H4 4570   7.904   5.987   8.293 -2.4044  1.4981  1.7376
  245ccc     C3 4571   7.717   5.973   8.176 -0.3922 -0.4089 -1.2836
  245ccc     C4 4572   7.572   5.947   8.249  0.5381 -0.0436  0.8660
  245ccc     H5 4573   7.719   5.935   8.073  1.3858 -2.5825 -0.5331
  245ccc     H6 4574   7.728   6.082   8.170 -1.1379 -0.1112  1.4128
  245ccc     H7 4575   7.561   5.838   8.253  0.4081 -0.0325  0.8173
  245ccc     H8 4576   7.570   5.994   8.347  1.5856  1.8017  0.0365
  245ccc     N2 4577   7.444   6.013   8.181  0.0591 -0.0709  0.0638
  245ccc     H9 4578   7.359   5.975   8.225 -0.2038  0.0218 -0.3564
  245ccc    H10 4579   7.445   6.116   8.181  3.1278  0.0299 -1.8711
  245ccc    H11 4580   7.441   5.998   8.079  0.8711  0.4227 -0.0431
  246ccc     N1 4581   9.556   6.627  10.528 -0.3525  0.1605 -0.3087
  246ccc     H4 4582   9.617   6.547  10.515  0.5568  0.3555  2.2214
  246ccc     C3 4583   9.512   6.660  10.667 -0.4332  0.4101  0.1331
  246ccc     C4 4584   9.632   6.693  10.753 -0.6894  0.8861 -0.5165
  246ccc     H5 4585   9.466   6.574  10.716 -0.4390  1.0297  1.2513
  246ccc     H6 4586   9.428   6.731  10.675 -3.3233 -2.7225 -0.3771
  246ccc     H7 4587   9.597   6.698  10.857  1.6340  1.5731  0.3035
  246ccc     H8 4588   9.718   6.626  10.749 -0.8049  0.5601  1.3622
  246ccc     N2 4589   9.677   6.830  10.728 -0.3230  0.5728  0.4931
  246ccc     H9 4590   9.607   6.898  10.764  0.8604  1.0313  2.0587
  246ccc    H10 4591   9.764   6.857  10.775 -0.2520  1.7349 -0.2503
  246ccc    H11 4592   9.703   6.837  10.629  1.1866 -2.9552  0.5132
  247ccc     N1 4593   9.620   6.846   9.713  0.1765 -0.6897  0.8577
  247ccc     H4 4594   9.657   6.920   9.772 -1.7770  0.1038  1.1664
  247ccc     C3 4595   9.576   6.889   9.579  0.5315  0.2320  0.6069
  247ccc     C4 4596   9.437   6.959   9.573  0.9349 -0.3378 -0.0623
  247ccc     H5 4597   9.575   6.803   9.511 -1.6452 -0.8044  1.8526
  247ccc     H6 4598   9.656   6.951   9.536  0.2880  0.3899  0.3726
  247ccc     H7 4599   9.402   6.964   9.470 -2.4584 -0.5173  0.9655
  247ccc     H8 4600   9.361   6.906   9.630  0.5662  1.9269  1.7379
  247ccc     N2 4601   9.433   7.100   9.625 -0.5619  0.4698  0.7735
  247ccc     H9 4602   9.500   7.156   9.571 -0.7179 -1.1419 -1.1687
  247ccc    H10 4603   9.336   7.136   9.617 -1.1936 -0.7219  2.5211
  247ccc    H11 4604   9.456   7.099   9.726  1.2067 -0.3191  0.3954
  248ccc     N1 4605  10.199   6.673   9.624 -0.3061  0.2019 -0.0945
  248ccc     H4 4606  10.259   6.755   9.622 -1.2619  1.0436  2.0793
  248ccc     C3 4607  10.106   6.669   9.739  0.0922 -0.5414 -0.0445
  248ccc     C4 4608  10.174   6.676   9.875 -0.3742 -1.0469 -0.2441
  248ccc     H5 4609  10.055   6.572   9.731  0.7270 -0.9349  0.4606
  248ccc     H6 4610  10.037   6.749   9.713 -1.1794 -1.4856  0.3253
  248ccc     H7 4611  10.263   6.739   9.874  0.4722 -2.1499  1.9035
  248ccc     H8 4612  10.104   6.723   9.944  1.7001  1.4504  0.2789
  248ccc     N2 4613  10.234   6.545   9.917  0.2247  0.2643  0.6917
  248ccc     H9 4614  10.167   6.468   9.904  0.9518 -0.5751  1.6489
  248ccc    H10 4615  10.312   6.517   9.855 -0.1640  0.4774  0.1083
  248ccc    H11 4616  10.261   6.548  10.017 -0.0669  0.2183  0.7707
  249ccc     N1 4617  10.164   7.066   9.218  0.5600 -0.5867  0.2396
  249ccc     H4 4618  10.140   7.035   9.124 -3.6790 -1.4825  1.3843
  249ccc     C3 4619  10.199   7.207   9.252  1.1308 -0.0788 -0.2444
  249ccc     C4 4620  10.187   7.295   9.130 -0.2235 -0.1428  0.3760
  249ccc     H5 4621  10.305   7.209   9.282  1.1957 -1.0220 -0.3703
  249ccc     H6 4622  10.124   7.244   9.322  0.1892  0.2718 -1.4058
  249ccc     H7 4623  10.221   7.392   9.166  1.9575 -1.1025  1.0644
  249ccc     H8 4624  10.249   7.260   9.047  0.2738  0.2483  0.5795
  249ccc     N2 4625  10.047   7.314   9.080 -0.0074 -0.1105 -0.1759
  249ccc     H9 4626  10.036   7.382   9.003 -0.1288 -0.4242 -0.4404
  249ccc    H10 4627  10.011   7.225   9.041  0.2749 -0.6282  0.7149
  249ccc    H11 4628   9.990   7.332   9.164 -2.6351 -1.7580 -1.4797
  250ccc     N1 4629   9.071   6.628  10.570  0.3427  0.0452  0.0447
  250ccc     H4 4630   8.984   6.595  10.611  0.9828 -1.1213  0.5150
  250ccc     C3 4631   9.108   6.766  10.544  0.0613 -0.4054  0.9240
  250ccc     C4 4632   9.090   6.812  10.398  0.6270 -0.3307 -0.0870
  250ccc     H5 4633   9.202   6.786  10.596 -0.1000  0.3941  0.9246
  250ccc     H6 4634   9.035   6.827  10.600 -0.6130  0.5903 -0.9550
  250ccc     H7 4635   8.992   6.788  10.355 -0.0247 -0.2481  1.2884
  250ccc     H8 4636   9.101   6.920  10.390 -1.4132  0.0243  1.0634
  250ccc     N2 4637   9.190   6.756  10.294  0.4602 -0.3594 -0.3879
  250ccc     H9 4638   9.196   6.820  10.214 -2.0911  0.1342 -0.2705
  250ccc    H10 4639   9.285   6.758  10.334 -0.1817  0.1581  1.1942
  250ccc    H11 4640   9.169   6.659  10.268  0.1445 -0.1765 -0.8340
  251ccc     N1 4641   8.747   6.206  11.055 -1.0317  0.8799 -0.1737
  251ccc     H4 4642   8.713   6.289  11.008  0.4879  2.9155  2.0772
  251ccc     C3 4643   8.671   6.151  11.172 -0.8767 -0.5386  0.7280
  251ccc     C4 4644   8.741   6.199  11.300 -0.1258  0.6372 -1.0628
  251ccc     H5 4645   8.665   6.041  11.163  0.0879 -0.4772 -1.1234
  251ccc     H6 4646   8.572   6.198  11.170  0.0013  1.3836 -0.4525
  251ccc     H7 4647   8.848   6.177  11.298 -0.0619  0.7573  0.2418
  251ccc     H8 4648   8.740   6.302  11.337 -2.3139 -0.4191  2.2273
  251ccc     N2 4649   8.666   6.148  11.418  0.1512 -0.3754 -0.1730
  251ccc     H9 4650   8.720   6.133  11.504 -0.5710  0.8796  0.5216
  251ccc    H10 4651   8.593   6.218  11.437 -0.1375 -1.2754  2.4342
  251ccc    H11 4652   8.611   6.062  11.402  1.2322 -1.0710 -0.2727
  252ccc     N1 4653  10.272   5.766  10.234  0.3689 -0.4546 -0.0215
  252ccc     H4 4654  10.198   5.729  10.177  0.2152 -2.0838  1.1930
  252ccc     C3 4655  10.315   5.704  10.360  0.3164 -0.2051  0.0236
  252ccc     C4 4656  10.237   5.760  10.484 -0.4300 -0.0542 -0.1088
  252ccc     H5 4657  10.423   5.705  10.379  0.0511 -2.7542  2.2809
  252ccc     H6 4658  10.298   5.598  10.338  3.0346 -0.2506 -2.3990
  252ccc     H7 4659  10.264   5.864  10.507 -4.1804  0.6210  1.9575
  252ccc     H8 4660  10.130   5.767  10.465 -0.7409 -0.2264  1.4269
  252ccc     N2 4661  10.260   5.672  10.604  0.0937 -0.6094  0.3482
  252ccc     H9 4662  10.227   5.577  10.581 -0.8875 -0.0191 -0.8201
  252ccc    H10 4663  10.360   5.658  10.627 -0.1136 -0.3451  1.4773
  252ccc    H11 4664  10.212   5.701  10.690  1.2923  0.6213  0.6370
  253ccc     N1 4665  10.407   6.199  10.423 -0.0369  0.1978  0.1413
  253ccc     H4 4666  10.442   6.270  10.359  2.2274 -0.6399  0.3556
  253ccc     C3 4667  10.502   6.117  10.499  0.0886  0.2164 -0.0989
  253ccc     C4 4668  10.567   6.192  10.614  0.1201  0.0650  0.3038
  253ccc     H5 4669  10.572   6.066  10.432  0.8057  0.3097  0.5651
  253ccc     H6 4670  10.441   6.035  10.539  1.6149 -1.8493 -1.7562
  253ccc     H7 4671  10.637   6.122  10.659 -0.2509 -0.0016  0.7964
  253ccc     H8 4672  10.626   6.278  10.582  2.7584 -0.4591  3.2626
  253ccc     N2 4673  10.469   6.248  10.724 -0.4017  0.0406 -0.5504
  253ccc     H9 4674  10.398   6.184  10.763 -0.4885  1.0334  1.0018
  253ccc    H10 4675  10.523   6.274  10.808 -0.0052 -2.0182 -0.1180
  253ccc    H11 4676  10.408   6.326  10.696 -1.2372 -0.8867 -1.4205
  254SOL     OW 4677   9.706   5.408   3.079 -0.3434 -0.3935  0.4965
  254SOL    HW1 4678   9.703   5.314   3.100  2.4069 -0.2259  2.1767
  254SOL    HW2 4679   9.716   5.411   2.984 -0.6788 -1.7821  0.3872
  255SOL     OW 4680   3.271   7.338   0.985 -0.0871  0.1745  0.1251
  255SOL    HW1 4681   3.277   7.412   1.045  1.2844 -0.7410  1.1941
  255SOL    HW2 4682   3.312   7.265   1.032 -1.8618 -1.4218 -0.6748
  256SOL     OW 4683   4.521   2.101   4.477 -0.1876  0.0888  0.4448
  256SOL    HW1 4684   4.466   2.155   4.535  0.4194  1.3530 -0.1222
  256SOL    HW2 4685   4.609   2.136   4.489 -0.0547  0.4186 -1.2806
  257SOL     OW 4686   8.928   1.923   9.280 -0.2840  0.3200  0.0108
  257SOL    HW1 4687   8.840   1.959   9.267 -1.3688 -2.4463 -0.9515
  257SOL    HW2 4688   8.932   1.903   9.373 -0.3806  1.1379  0.1965
  258SOL     OW 4689   5.267   5.564   4.538 -0.2548 -0.3178  0.1020
  258SOL    HW1 4690   5.184   5.553   4.491  0.9747 -1.1506 -1.9886
  258SOL    HW2 4691   5.299   5.650   4.512  0.4138 -0.7634 -0.5783
  259SOL     OW 4692   5.422   4.515  10.045  0.1281  1.1426  0.3243
  259SOL    HW1 4693   5.496   4.566  10.079 -0.3806 -0.5552  4.5832
  259SOL    HW2 4694   5.356   4.519  10.114 -0.7769 -3.4472  0.0445
  260SOL     OW 4695   7.929   6.713   9.984  0.3245 -0.0809  0.4364
  260SOL    HW1 4696   7.854   6.717   9.926  0.0611 -0.4118  0.7490
  260SOL    HW2 4697   8.002   6.745   9.931  0.3585 -1.6184 -0.5303
  261SOL     OW 4698   1.638   9.649   2.470  0.3484  0.0059 -0.4762
  261SOL    HW1 4699   1.698   9.593   2.519 -0.6451  0.2908  1.1385
  261SOL    HW2 4700   1.568   9.590   2.441 -0.5381  0.3115  0.9578
  262SOL     OW 4701   2.271   8.718   6.456  0.0873  0.5457  0.4434
  262SOL    HW1 4702   2.291   8.779   6.527  0.0928  0.6049  0.3917
  262SOL    HW2 4703   2.350   8.665   6.447 -0.1353  0.1216  0.8976
  263SOL     OW 4704   0.194   2.418   7.855 -0.1967  0.2816  0.2895
  263SOL    HW1 4705   0.274   2.438   7.807 -0.1615  1.5959  0.8579
  263SOL    HW2 4706   0.219   2.428   7.947 -0.8119 -0.0866  0.5017
  264SOL     OW 4707   7.877   1.310   5.090 -0.2535  0.0073 -0.0299
  264SOL    HW1 4708   7.858   1.295   5.182 -1.2814 -1.6244 -0.4634
  264SOL    HW2 4709   7.896   1.222   5.055  3.3310  0.8737 -0.7328
  265SOL     OW 4710  10.203   5.598   2.633 -0.0686  0.2975 -0.2757
  265SOL    HW1 4711  10.244   5.685   2.630  0.3707  0.1189  0.5041
  265SOL    HW2 4712  10.257   5.544   2.575  1.5265 -0.2290  1.6224
  266SOL     OW 4713   6.236   5.674   0.800  0.1797  0.0999  0.3300
  266SOL    HW1 4714   6.318   5.659   0.752  1.3179 -0.3471  2.3063
  266SOL    HW2 4715   6.260   5.665   0.892 -2.0369  0.3443  0.9907
  267SOL     OW 4716  10.186   4.041   4.801 -0.1541 -0.0669 -0.3182
  267SOL    HW1 4717  10.161   4.130   4.827 -1.4105 -0.2332 -0.8776
  267SOL    HW2 4718  10.112   4.010   4.749 -0.1381 -1.7753  0.6171
  268SOL     OW 4719   0.182   7.848   3.310  0.2589 -0.4372 -0.2374
  268SOL    HW1 4720   0.258   7.791   3.325  0.9050  0.3205 -0.5769
  268SOL    HW2 4721   0.183   7.865   3.216 -0.6418 -0.8365 -0.3298
  269SOL     OW 4722   8.727   5.759   2.195 -0.1151 -0.8494  0.7631
  269SOL    HW1 4723   8.751   5.749   2.287 -1.2595 -0.6895  1.0878
  269SOL    HW2 4724   8.795   5.711   2.147  2.3055  1.6487  1.4613
  270SOL     OW 4725   7.437   0.148   6.534  0.7446  0.1261  0.0243
  270SOL    HW1 4726   7.463   0.110   6.617 -1.6731  0.5678  1.0765
  270SOL    HW2 4727   7.347   0.119   6.521  0.7645  0.7776 -2.0267
  271SOL     OW 4728   2.481   5.060   6.746 -0.0150  0.0179  0.3839
  271SOL    HW1 4729   2.423   5.099   6.680  0.6534  0.3477 -0.0140
  271SOL    HW2 4730   2.455   5.103   6.828  0.0705  0.6115  0.1079
  272SOL     OW 4731  10.150   2.059   1.577 -0.3594  0.1857  0.6233
  272SOL    HW1 4732  10.210   2.007   1.631  0.0633 -1.0620 -0.9599
  272SOL    HW2 4733  10.069   2.063   1.628 -0.1462 -1.4030  1.1521
  273SOL     OW 4734   5.732   2.398   8.600 -0.5114 -0.0778  0.6059
  273SOL    HW1 4735   5.787   2.450   8.658 -1.9617  0.7366  1.3206
  273SOL    HW2 4736   5.746   2.308   8.628  0.9301  0.0361  0.3232
  274SOL     OW 4737   9.867   3.986   7.088 -0.6700 -0.0267  0.0969
  274SOL    HW1 4738   9.955   4.018   7.068 -0.9200  0.3274 -0.4536
  274SOL    HW2 4739   9.876   3.943   7.173  0.3681 -1.4016 -0.6704
  275SOL     OW 4740   7.284   9.495   5.835 -0.4481  0.4935  0.3874
  275SOL    HW1 4741   7.269   9.448   5.754 -0.2133  0.6291  0.2651
  275SOL    HW2 4742   7.357   9.555   5.816  2.0930 -1.9424  1.6714
  276SOL     OW 4743   0.030   4.773   3.375 -0.2732 -0.2137  0.1413
  276SOL    HW1 4744   0.064   4.861   3.361 -2.9269  0.8678 -0.1480
  276SOL    HW2 4745   0.061   4.747   3.462  0.1559  1.2169  0.4274
  277SOL     OW 4746   5.345   6.702   3.846  0.0259 -0.3058  0.1421
  277SOL    HW1 4747   5.350   6.671   3.756  0.4323 -1.1170  0.4355
  277SOL    HW2 4748   5.298   6.785   3.840 -1.5369 -1.2024 -0.6061
  278SOL     OW 4749   7.707   3.848   0.232 -0.1330 -0.3697 -0.0409
  278SOL    HW1 4750   7.774   3.818   0.292 -0.4635  0.0961  0.5680
  278SOL    HW2 4751   7.651   3.771   0.218  0.3732 -0.6856 -0.3521
  279SOL     OW 4752   8.112   9.683   7.972 -0.9848 -0.5141  0.5378
  279SOL    HW1 4753   8.098   9.626   7.897 -1.8834  1.4939 -0.9329
  279SOL    HW2 4754   8.033   9.675   8.024 -1.8959  0.6675 -0.6101
  280SOL     OW 4755   3.688   2.185   4.969  0.0718 -0.5598  0.3546
  280SOL    HW1 4756   3.724   2.206   5.056 -0.4087  0.2545  0.3717
  280SOL    HW2 4757   3.599   2.221   4.971  0.1000 -0.4242 -0.5128
  281SOL     OW 4758  10.201   9.752   6.337 -0.0814  0.7472 -0.3001
  281SOL    HW1 4759  10.269   9.687   6.355  0.0129  1.1138  0.7375
  281SOL    HW2 4760  10.175   9.735   6.247  1.5079  0.7014 -0.7893
  282SOL     OW 4761   5.367   7.964   8.639 -0.2458 -0.3127 -0.4995
  282SOL    HW1 4762   5.364   7.941   8.546 -0.4738 -0.7698 -0.3778
  282SOL    HW2 4763   5.350   8.059   8.640 -0.5594 -0.3612 -0.8975
  283SOL     OW 4764   9.698   9.761   6.335  0.2866  0.2202 -0.0992
  283SOL    HW1 4765   9.637   9.727   6.401 -0.0290 -0.7903 -0.8919
  283SOL    HW2 4766   9.782   9.763   6.380 -0.3213  1.8072  1.0739
  284SOL     OW 4767   6.550   5.650   4.037 -0.0970  0.0410 -0.9075
  284SOL    HW1 4768   6.489   5.587   4.074 -2.7703  1.5862 -2.3670
  284SOL    HW2 4769   6.622   5.596   4.002 -1.0497 -1.9506  0.0469
  285SOL     OW 4770   5.744   6.521   5.645 -0.2363  0.0909 -0.1590
  285SOL    HW1 4771   5.689   6.579   5.591 -0.1680  0.1957 -0.1178
  285SOL    HW2 4772   5.690   6.501   5.722 -0.2398  0.1456 -0.1469
  286SOL     OW 4773   9.282   0.875   0.676  0.5079 -0.1225 -0.1086
  286SOL    HW1 4774   9.303   0.944   0.738 -1.8306  0.7896 -0.2504
  286SOL    HW2 4775   9.293   0.794   0.726  0.5413  0.4957  0.9021
  287SOL     OW 4776   1.018   4.322   1.792 -0.0224  0.3710 -0.4126
  287SOL    HW1 4777   0.989   4.232   1.774 -1.3081  0.7103 -0.0986
  287SOL    HW2 4778   1.113   4.313   1.807 -0.0432 -0.8594 -0.8387
  288SOL     OW 4779   5.763   1.138   5.069 -0.3884 -0.6412  0.1974
  288SOL    HW1 4780   5.773   1.062   5.126  0.0369 -0.4504  0.3824
  288SOL    HW2 4781   5.843   1.189   5.083  0.0377 -0.9135 -1.0399
  289SOL     OW 4782   6.829   4.112   6.755 -0.3837 -0.0222  0.5442
  289SOL    HW1 4783   6.798   4.192   6.798  1.3714  0.4169  1.0789
  289SOL    HW2 4784   6.886   4.143   6.685  0.7777 -0.7939  1.1214
  290SOL     OW 4785   7.720   8.729   0.853  0.0141 -0.4120  0.1450
  290SOL    HW1 4786   7.768   8.812   0.854 -0.4061 -0.1520  1.4682
  290SOL    HW2 4787   7.788   8.662   0.864  0.2126 -0.1265  0.7023
  291SOL     OW 4788   1.003   2.182   5.185 -0.0860 -0.2824  0.1542
  291SOL    HW1 4789   0.944   2.152   5.254 -0.6180  2.3331  0.9605
  291SOL    HW2 4790   1.058   2.248   5.228  2.8572 -1.9172 -0.8046
  292SOL     OW 4791   6.040   9.217   5.150  0.1692 -0.5249 -0.6087
  292SOL    HW1 4792   6.062   9.125   5.137  1.4952 -0.1853 -0.9403
  292SOL    HW2 4793   6.001   9.220   5.237  0.6382 -1.3271 -0.3559
  293SOL     OW 4794   1.389   1.213   5.819 -0.2611  0.2193 -0.4234
  293SOL    HW1 4795   1.386   1.117   5.822 -0.3192  0.2136 -0.6416
  293SOL    HW2 4796   1.429   1.233   5.735 -1.7421  0.3984 -1.1257
  294SOL     OW 4797   3.509   0.869   5.599  0.3426 -0.1383 -0.0125
  294SOL    HW1 4798   3.469   0.955   5.614  0.4715  0.2659 -1.8233
  294SOL    HW2 4799   3.514   0.830   5.686  1.4541  2.1771  1.0395
  295SOL     OW 4800   8.137   7.292   0.031 -0.2700 -0.4466 -0.8378
  295SOL    HW1 4801   8.223   7.287   0.072  0.0217 -0.4605 -1.4487
  295SOL    HW2 4802   8.105   7.379   0.052 -0.4947 -0.7516  0.1497
  296SOL     OW 4803  10.044   1.145   8.070  0.6598 -0.2964 -0.1622
  296SOL    HW1 4804  10.095   1.079   8.117 -0.9279 -2.3857 -1.2146
  296SOL    HW2 4805  10.081   1.144   7.981 -0.2027 -0.7566 -0.5286
  297SOL     OW 4806   6.866   3.978   7.062  0.5688 -0.1681  0.0100
  297SOL    HW1 4807   6.882   3.985   7.156  1.2953  0.6013 -0.1625
  297SOL    HW2 4808   6.814   4.056   7.041 -0.6200 -0.9482 -0.0273
  298SOL     OW 4809   9.984   9.647   3.271 -0.4133 -0.1339 -0.3413
  298SOL    HW1 4810   9.975   9.558   3.304  0.5107  0.0987  0.5628
  298SOL    HW2 4811   9.987   9.637   3.176 -1.6409 -0.9380 -0.3145
  299SOL     OW 4812   5.935   9.224   9.983  0.1884  0.4433  0.3350
  299SOL    HW1 4813   5.868   9.246  10.048  0.5884  0.9818  0.5712
  299SOL    HW2 4814   5.971   9.140  10.013  0.6318  0.8641  1.0331
  300SOL     OW 4815   3.156   3.355   9.644  0.3561 -0.1974 -0.5081
  300SOL    HW1 4816   3.175   3.330   9.735  0.5081 -0.3277 -0.5753
  300SOL    HW2 4817   3.087   3.421   9.652 -0.9966 -1.5796 -0.3941
  301SOL     OW 4818   5.051   3.090   6.303 -0.0504  0.2443 -0.0613
  301SOL    HW1 4819   4.968   3.099   6.351  0.1517  1.5146  0.0953
  301SOL    HW2 4820   5.097   3.173   6.320  1.1700 -0.3684 -0.3057
  302SOL     OW 4821   4.811   5.823   1.632 -0.4764 -0.1785  0.6370
  302SOL    HW1 4822   4.800   5.827   1.727  1.7879 -0.7331  0.9726
  302SOL    HW2 4823   4.828   5.914   1.606 -1.8065  0.0861  0.6305
  303SOL     OW 4824   7.978   7.809   1.005 -0.5791  0.4027 -0.5076
  303SOL    HW1 4825   7.955   7.730   0.956 -1.5857  2.4469 -3.6049
  303SOL    HW2 4826   8.030   7.861   0.945 -0.4347  2.4024  1.2277
  304SOL     OW 4827   6.118   1.292   9.458  0.2735 -0.0680 -0.1545
  304SOL    HW1 4828   6.187   1.340   9.411  0.4002 -1.8328 -1.8964
  304SOL    HW2 4829   6.072   1.359   9.508  0.9285  1.7502 -1.8664
  305SOL     OW 4830   8.008   0.115   9.455  0.5999 -0.3201  0.7464
  305SOL    HW1 4831   7.969   0.090   9.371  0.1580 -0.1100  0.8876
  305SOL    HW2 4832   8.069   0.186   9.433 -1.2386  1.3859  0.8968
  306SOL     OW 4833   9.574   1.963   5.891  0.0826  0.4426 -0.7342
  306SOL    HW1 4834   9.487   1.944   5.924  0.2445  0.0440 -0.5243
  306SOL    HW2 4835   9.563   2.041   5.835 -0.3420  0.5980 -0.4373
  307SOL     OW 4836   7.351   2.790   4.882  0.4061  0.6813 -0.0807
  307SOL    HW1 4837   7.409   2.796   4.806  0.2600 -0.6623 -0.3244
  307SOL    HW2 4838   7.295   2.715   4.863 -0.8611  1.4504  0.5332
  308SOL     OW 4839   5.524   6.090   9.662 -0.0455  0.0978 -0.1258
  308SOL    HW1 4840   5.433   6.110   9.641 -0.0127 -0.1145 -0.4924
  308SOL    HW2 4841   5.526   5.995   9.669  0.2578  0.0602 -0.6729
  309SOL     OW 4842   6.780   8.570   5.279  0.0487 -0.0020 -0.1740
  309SOL    HW1 4843   6.801   8.573   5.372 -1.3992 -1.5928  0.2426
  309SOL    HW2 4844   6.730   8.650   5.263 -0.1662  0.0095  0.5399
  310SOL     OW 4845   6.740   8.564   1.381  0.2775  0.1881 -0.3876
  310SOL    HW1 4846   6.755   8.655   1.407  3.2431  0.0962 -1.4379
  310SOL    HW2 4847   6.698   8.570   1.295  1.4555  0.6224 -0.9550
  311SOL     OW 4848   5.217   4.600   9.267 -0.0414 -0.4110  0.3367
  311SOL    HW1 4849   5.196   4.572   9.178  0.5304  1.3758 -0.4010
  311SOL    HW2 4850   5.252   4.521   9.309 -1.4722 -1.5914 -0.6070
  312SOL     OW 4851   0.884   3.206   2.257 -0.2545  0.0305 -0.3449
  312SOL    HW1 4852   0.913   3.296   2.242 -1.2390  0.4995  0.4725
  312SOL    HW2 4853   0.908   3.160   2.177  1.2474  0.7566 -0.3477
  313SOL     OW 4854   5.124   6.086   3.989 -0.0817  0.6291 -0.0943
  313SOL    HW1 4855   5.179   6.110   4.063 -0.9224 -0.3783  0.9029
  313SOL    HW2 4856   5.039   6.125   4.008 -0.3407  0.2632 -0.4669
  314SOL     OW 4857   6.921   1.580   8.848 -0.3422  0.2200 -0.4785
  314SOL    HW1 4858   6.950   1.661   8.890  0.3399  0.0137 -0.5392
  314SOL    HW2 4859   6.963   1.581   8.763 -1.6201  0.5703 -1.1282
  315SOL     OW 4860   7.686   5.327   5.042 -0.0416 -0.5318  0.8969
  315SOL    HW1 4861   7.732   5.411   5.030 -1.4967  0.1429 -0.2574
  315SOL    HW2 4862   7.751   5.261   5.018  0.7496  0.3135  0.6404
  316SOL     OW 4863   8.316   3.786   2.509 -0.3512  0.2922 -0.2980
  316SOL    HW1 4864   8.333   3.797   2.603  0.3424  2.1644 -0.5872
  316SOL    HW2 4865   8.268   3.704   2.502  0.0906 -0.1716  1.6341
  317SOL     OW 4866  10.046   9.339   5.420  0.2836  0.2229  0.3583
  317SOL    HW1 4867  10.080   9.252   5.440  1.9804  1.3375  2.7008
  317SOL    HW2 4868  10.092   9.365   5.340 -1.4443 -1.5470 -1.3605
  318SOL     OW 4869   7.869   3.362   8.888  0.0130  0.1435 -0.2012
  318SOL    HW1 4870   7.852   3.367   8.794  0.8110 -1.0338 -0.4408
  318SOL    HW2 4871   7.897   3.271   8.902  0.7376  0.5288  1.0200
  319SOL     OW 4872   5.155   1.397   8.653  0.2119  0.2340 -0.5658
  319SOL    HW1 4873   5.203   1.358   8.579  1.1254  1.7503 -0.8231
  319SOL    HW2 4874   5.078   1.342   8.663  1.8322 -2.1603 -0.3232
  320SOL     OW 4875   8.434   2.644   4.813 -0.0052  0.5121 -0.3270
  320SOL    HW1 4876   8.497   2.585   4.856  0.1029  0.3565 -0.6996
  320SOL    HW2 4877   8.429   2.720   4.871 -0.4258 -0.0212  0.3562
  321SOL     OW 4878   6.744   6.618   7.414  0.2272  0.3054  0.7827
  321SOL    HW1 4879   6.709   6.706   7.408 -0.0831  0.2043  1.0591
  321SOL    HW2 4880   6.774   6.597   7.326 -1.1854  0.0733  0.3333
  322SOL     OW 4881   4.379   9.365   5.675  0.3869 -0.2390  0.1674
  322SOL    HW1 4882   4.443   9.400   5.613  1.3788  0.4626  1.5264
  322SOL    HW2 4883   4.322   9.309   5.622  1.1189  0.4147 -1.3801
  323SOL     OW 4884   1.459   2.370   9.857 -0.0704 -0.0752  0.1504
  323SOL    HW1 4885   1.552   2.365   9.835  0.1684  0.9272  0.9155
  323SOL    HW2 4886   1.419   2.414   9.782  0.6594  2.8053  1.3325
  324SOL     OW 4887   5.834   3.293   8.284  0.0646  0.2067  0.0744
  324SOL    HW1 4888   5.826   3.197   8.282  0.2972  0.1970 -0.6447
  324SOL    HW2 4889   5.874   3.315   8.200 -1.4586  1.0866 -0.4479
  325SOL     OW 4890   6.698   2.813   9.712  0.2888 -0.1063  0.3260
  325SOL    HW1 4891   6.669   2.721   9.708  1.5935 -0.6239  1.7447
  325SOL    HW2 4892   6.676   2.848   9.625 -0.5172 -1.6632 -0.1575
  326SOL     OW 4893   9.216   2.866   7.930 -0.6033  0.1471 -1.0410
  326SOL    HW1 4894   9.246   2.787   7.975 -3.0626 -0.1310  0.2982
  326SOL    HW2 4895   9.207   2.931   8.000 -1.2472  0.7609 -1.6808
  327SOL     OW 4896   3.669   9.008   5.929 -0.1058  0.8078  0.0612
  327SOL    HW1 4897   3.700   9.084   5.977  0.5984  0.9126 -0.5336
  327SOL    HW2 4898   3.599   8.972   5.983  0.7211  0.8612  1.1998
  328SOL     OW 4899   4.468   2.071   7.985 -0.1336 -0.3972  0.0374
  328SOL    HW1 4900   4.509   2.131   7.922 -2.7329  0.9716 -0.4997
  328SOL    HW2 4901   4.464   1.987   7.940  0.0165  0.0181 -0.7696
  329SOL     OW 4902   3.555   6.334   1.573 -0.1601  0.4900  0.3220
  329SOL    HW1 4903   3.479   6.321   1.630 -0.8955  0.1196 -0.7086
  329SOL    HW2 4904   3.563   6.429   1.565 -0.3109  0.5358  0.6943
  330SOL     OW 4905   5.951   3.463   5.664  0.3958 -0.0635 -0.2329
  330SOL    HW1 4906   5.997   3.524   5.606 -0.2880  0.2839 -0.4253
  330SOL    HW2 4907   5.860   3.492   5.662 -0.1588 -1.7141 -1.1599
  331SOL     OW 4908   6.574   7.357   7.849 -0.1119 -0.4645 -0.1447
  331SOL    HW1 4909   6.513   7.374   7.777 -0.3652 -0.6645  0.0226
  331SOL    HW2 4910   6.550   7.420   7.917 -2.0035 -2.3731  1.0615
  332SOL     OW 4911   5.634   2.779   5.955  0.4981 -0.1643 -0.0600
  332SOL    HW1 4912   5.691   2.735   5.892  0.0949  2.0759 -2.0912
  332SOL    HW2 4913   5.558   2.806   5.905 -0.7979 -0.0203  1.8558
  333SOL     OW 4914   3.563   5.545   2.213 -0.7267  0.9495  0.3131
  333SOL    HW1 4915   3.548   5.485   2.140  1.1374 -1.8633  2.0312
  333SOL    HW2 4916   3.503   5.516   2.281  1.3208 -0.1580  1.7448
  334SOL     OW 4917   9.804   2.658   2.855 -0.1593  0.3414  0.3618
  334SOL    HW1 4918   9.889   2.634   2.893  0.4353 -2.6580 -2.3989
  334SOL    HW2 4919   9.742   2.596   2.894 -0.1445 -0.5587 -0.9707
  335SOL     OW 4920   7.534   5.538   3.287  0.1006 -0.0952 -0.5047
  335SOL    HW1 4921   7.465   5.579   3.235 -3.1843 -2.3686  1.7340
  335SOL    HW2 4922   7.523   5.574   3.375 -0.1928 -2.6036  0.5527
  336SOL     OW 4923   0.707   8.788   4.569 -0.1266 -0.4531  0.4501
  336SOL    HW1 4924   0.746   8.782   4.482  2.6156  1.1196  1.4514
  336SOL    HW2 4925   0.657   8.706   4.579 -0.1508 -0.8676 -2.3598
  337SOL     OW 4926   8.812   3.650   4.758  0.4386 -0.0083  0.5309
  337SOL    HW1 4927   8.901   3.616   4.767  0.1777 -0.1326  3.2884
  337SOL    HW2 4928   8.814   3.734   4.803 -1.2513 -0.9167  2.4724
  338SOL     OW 4929   7.856   9.803   8.540 -0.3922  0.1300 -0.2384
  338SOL    HW1 4930   7.868   9.861   8.465 -0.1061 -2.1091 -2.0247
  338SOL    HW2 4931   7.779   9.837   8.585 -0.0870  2.0141 -1.0556
  339SOL     OW 4932   1.769   3.874   7.906 -0.3831  0.0371  0.1686
  339SOL    HW1 4933   1.811   3.836   7.983  0.6885 -2.8395 -1.6317
  339SOL    HW2 4934   1.837   3.927   7.865 -0.8149  1.1979  0.8999
  340SOL     OW 4935   9.772   2.374   7.970  0.7470 -0.0035 -0.0241
  340SOL    HW1 4936   9.729   2.294   7.940  1.9217 -0.9839  0.8091
  340SOL    HW2 4937   9.704   2.441   7.965 -0.6051 -1.2870  0.3903
  341SOL     OW 4938   0.385   4.684   1.221 -0.0625 -0.0320 -0.2481
  341SOL    HW1 4939   0.373   4.601   1.175  2.7347 -1.5188  1.4492
  341SOL    HW2 4940   0.403   4.659   1.312 -1.9609  2.6159  1.0098
  342SOL     OW 4941   1.977   9.077   5.593  0.4439 -0.0149  0.4496
  342SOL    HW1 4942   1.950   9.112   5.678 -0.2526 -0.8091  0.5646
  342SOL    HW2 4943   1.896   9.043   5.554  0.9790 -0.8940  0.0685
  343SOL     OW 4944   3.969   1.225   0.405  0.5700  0.0581  0.1008
  343SOL    HW1 4945   4.000   1.305   0.363 -0.3190  0.3357 -0.0363
  343SOL    HW2 4946   4.006   1.228   0.493 -0.2844  1.1375  0.4417
  344SOL     OW 4947   2.176   1.862   6.953 -0.2864 -0.2617  0.3112
  344SOL    HW1 4948   2.161   1.786   7.010 -1.0048 -0.5200 -0.2112
  344SOL    HW2 4949   2.237   1.830   6.886  1.7598  0.4545  1.7478
  345SOL     OW 4950   0.986   6.489   0.446  0.4731 -0.3954  0.6376
  345SOL    HW1 4951   0.955   6.563   0.394  2.9917 -0.0317 -0.5075
  345SOL    HW2 4952   1.080   6.506   0.458  1.2714 -3.6121 -0.0966
  346SOL     OW 4953   3.984   1.911   5.492 -0.2011 -0.5279 -0.0138
  346SOL    HW1 4954   4.079   1.904   5.484 -0.0186  1.5986 -0.3175
  346SOL    HW2 4955   3.951   1.898   5.404 -0.1100 -0.2896 -0.0830
  347SOL     OW 4956   7.407   3.495   9.561  0.1261  0.0378 -0.1490
  347SOL    HW1 4957   7.372   3.583   9.545  1.7745  1.2493  2.2295
  347SOL    HW2 4958   7.497   3.500   9.529  0.3927 -0.6057  0.4864
  348SOL     OW 4959   6.258   9.057   8.266 -0.1511 -0.0105  0.1866
  348SOL    HW1 4960   6.247   9.149   8.286  1.2881  0.1771  0.2679
  348SOL    HW2 4961   6.174   9.029   8.230 -0.2282  1.6526 -1.0214
  349SOL     OW 4962   8.982   8.223   2.130  0.4603 -0.0137 -0.0658
  349SOL    HW1 4963   8.953   8.313   2.144  0.7791  0.0176  0.4311
  349SOL    HW2 4964   8.907   8.169   2.157  0.1531  0.1074 -0.6653
  350SOL     OW 4965   7.363   9.491   0.045 -0.2709  0.1935  0.2602
  350SOL    HW1 4966   7.355   9.404   0.005  0.2356 -0.2227  1.0518
  350SOL    HW2 4967   7.289   9.540   0.009 -0.3218 -0.4363 -0.5148
  351SOL     OW 4968   1.079   2.022   9.283 -0.7375 -0.4383  0.1990
  351SOL    HW1 4969   1.147   2.018   9.216 -0.0595 -2.5582  0.9369
  351SOL    HW2 4970   1.086   2.111   9.318  3.3784 -1.1717  1.8822
  352SOL     OW 4971   8.478   2.632   8.028 -0.1182 -0.0355 -0.0056
  352SOL    HW1 4972   8.543   2.701   8.015 -2.3265  1.8851 -1.8040
  352SOL    HW2 4973   8.483   2.580   7.948  0.2843 -0.8594  0.5502
  353SOL     OW 4974   8.777   2.438   2.605 -0.2215  0.1548 -0.4327
  353SOL    HW1 4975   8.705   2.471   2.552 -1.5716 -0.9982  0.5880
  353SOL    HW2 4976   8.774   2.490   2.685 -1.9272 -1.8553  0.8941
  354SOL     OW 4977   3.000   3.641   9.406 -0.3133  0.3663  0.3466
  354SOL    HW1 4978   3.007   3.630   9.501  1.2122  2.4651  0.5567
  354SOL    HW2 4979   3.049   3.721   9.388 -0.5827  0.0285 -2.2333
  355SOL     OW 4980   1.713   4.382   2.445  0.3758 -0.0521 -0.2007
  355SOL    HW1 4981   1.753   4.324   2.381  1.5051  0.3308  0.1261
  355SOL    HW2 4982   1.741   4.470   2.419 -1.3521  0.3844 -0.7302
  356SOL     OW 4983   3.241   5.597   6.469  0.0086  0.2182  0.5437
  356SOL    HW1 4984   3.327   5.577   6.507 -1.2015 -0.3571  3.1697
  356SOL    HW2 4985   3.215   5.517   6.424  0.3250 -0.0364  0.8070
  357SOL     OW 4986   7.454   9.059   1.684 -0.0593 -0.4006  0.0292
  357SOL    HW1 4987   7.371   9.101   1.705 -0.5681 -1.5554  0.4649
  357SOL    HW2 4988   7.503   9.060   1.767 -0.8330 -2.2533  0.5727
  358SOL     OW 4989   5.176   1.845   3.744 -0.1284  1.0768 -0.0395
  358SOL    HW1 4990   5.115   1.824   3.815 -0.9862  1.9320 -0.4988
  358SOL    HW2 4991   5.262   1.824   3.780 -0.7444 -1.3570  0.1919
  359SOL     OW 4992   7.032   7.310   2.538 -0.0318  0.7285 -0.0240
  359SOL    HW1 4993   6.957   7.310   2.478  0.1911  0.1410 -0.3031
  359SOL    HW2 4994   6.993   7.328   2.624 -0.4493  0.7705 -0.2180
  360SOL     OW 4995   5.799   5.075   8.757 -0.5098  0.1460  0.5102
  360SOL    HW1 4996   5.758   5.134   8.820  0.3767  1.1131  0.2078
  360SOL    HW2 4997   5.889   5.065   8.789 -0.5308 -0.7016  0.3179
  361SOL     OW 4998   8.707   8.752   9.098  0.3136  0.0213  0.3155
  361SOL    HW1 4999   8.654   8.825   9.068  1.3829  1.5117  1.8593
  361SOL    HW2 5000   8.645   8.692   9.139 -0.4377  0.6337  0.0917
  362SOL     OW 5001   0.676   9.400   6.344  0.5331  0.2549 -0.3345
  362SOL    HW1 5002   0.635   9.318   6.374 -0.2672  1.2335  1.3774
  362SOL    HW2 5003   0.701   9.382   6.254  0.8510 -2.0565  0.1482
  363SOL     OW 5004   4.430   0.330   2.306 -0.3471  0.1105 -0.9636
  363SOL    HW1 5005   4.436   0.387   2.230  0.1617  1.2614 -0.1005
  363SOL    HW2 5006   4.505   0.271   2.299  0.3056  0.9143 -0.8136
  364SOL     OW 5007   0.641   8.685   7.389 -0.0740 -0.3372  0.4651
  364SOL    HW1 5008   0.677   8.669   7.477 -0.8631 -0.3320  0.8015
  364SOL    HW2 5009   0.717   8.686   7.332  0.4445 -0.4747  1.1345
  365SOL     OW 5010   2.124   7.052   5.663 -0.4631 -0.8279 -0.3603
  365SOL    HW1 5011   2.065   6.977   5.651 -0.5043 -0.9836  0.7066
  365SOL    HW2 5012   2.069   7.128   5.645 -0.4482 -1.0432 -1.3521
  366SOL     OW 5013   3.057   6.949   1.401  0.2605 -0.8400  0.8599
  366SOL    HW1 5014   3.144   6.933   1.437  0.0889  1.0306  2.2890
  366SOL    HW2 5015   3.069   7.024   1.343 -0.5629  0.2616  2.0554
  367SOL     OW 5016   1.826   3.041   6.638 -0.3276 -0.2202 -0.2462
  367SOL    HW1 5017   1.746   3.034   6.586  0.1179  1.3009 -1.2235
  367SOL    HW2 5018   1.875   2.962   6.619 -0.8128 -0.3357 -1.0414
  368SOL     OW 5019   4.294   7.787   9.247  0.0470 -0.0891  0.0171
  368SOL    HW1 5020   4.288   7.705   9.296  0.5629 -0.5556 -0.6729
  368SOL    HW2 5021   4.370   7.832   9.285 -0.2863  0.1082  0.4501
  369SOL     OW 5022   8.665   1.803   6.103 -0.4369 -0.0243 -0.7560
  369SOL    HW1 5023   8.686   1.871   6.167  2.0020 -0.8585 -0.5332
  369SOL    HW2 5024   8.574   1.820   6.079 -0.2722  2.6126  0.0936
  370SOL     OW 5025   7.892   7.865   0.183 -0.4890 -0.3855 -0.2791
  370SOL    HW1 5026   7.884   7.817   0.100 -1.0453 -1.2825  0.2822
  370SOL    HW2 5027   7.980   7.845   0.215 -1.4775 -2.9182  1.0669
  371SOL     OW 5028   0.432   0.362   7.662 -0.5252  0.1877 -0.0883
  371SOL    HW1 5029   0.362   0.384   7.724  0.0844  0.0087  0.6732
  371SOL    HW2 5030   0.508   0.343   7.717  0.8478  2.7566 -0.9700
  372SOL     OW 5031   2.816   8.965   1.117  0.0256 -0.1037 -0.0437
  372SOL    HW1 5032   2.909   8.975   1.139 -0.8395  3.6657  2.9931
  372SOL    HW2 5033   2.805   9.014   1.035  0.8724 -1.8317 -1.2403
  373SOL     OW 5034   1.915   6.106   1.412  1.0064  0.1238 -0.0397
  373SOL    HW1 5035   1.960   6.026   1.383  1.5394  0.0774  0.8656
  373SOL    HW2 5036   1.945   6.174   1.352 -0.6074 -0.6122 -1.7805
  374SOL     OW 5037   3.252   9.826   7.721  0.1405  0.0527  0.1948
  374SOL    HW1 5038   3.191   9.866   7.659 -0.1597  0.5261  0.7843
  374SOL    HW2 5039   3.328   9.803   7.668  0.0609  0.8328 -0.2776
  375SOL     OW 5040  10.079   0.392   1.891 -0.3068 -0.2246 -0.2333
  375SOL    HW1 5041  10.032   0.465   1.930  0.8839  1.6798 -2.1078
  375SOL    HW2 5042  10.019   0.356   1.826 -0.2835  0.2365 -0.5139
  376SOL     OW 5043   2.691   1.852   4.098 -0.4928  0.8158  0.0913
  376SOL    HW1 5044   2.631   1.811   4.160  0.3380 -0.8091 -0.1381
  376SOL    HW2 5045   2.635   1.902   4.039 -1.4661  0.6378  0.8421
  377SOL     OW 5046   6.081   0.176   9.230  0.7748 -0.0979 -0.6719
  377SOL    HW1 5047   6.090   0.194   9.324 -0.1155 -2.6180 -0.0092
  377SOL    HW2 5048   6.150   0.112   9.211  0.2095 -0.4978 -1.4473
  378SOL     OW 5049   7.226   2.377   9.193  0.4489 -0.3169  0.2652
  378SOL    HW1 5050   7.165   2.304   9.203  1.3232 -1.1524 -0.3229
  378SOL    HW2 5051   7.313   2.337   9.202  0.9426  0.6975  0.1820
  379SOL     OW 5052   9.875   4.682   3.504  0.6402 -0.3036  1.0212
  379SOL    HW1 5053   9.822   4.637   3.570 -0.5809  0.5444  0.6318
  379SOL    HW2 5054   9.951   4.625   3.492 -1.1261 -2.6074  0.0889
  380SOL     OW 5055   7.245   3.887   1.496  0.4299  0.3563  0.3307
  380SOL    HW1 5056   7.334   3.852   1.507  1.4435  2.8006  0.5600
  380SOL    HW2 5057   7.257   3.968   1.447 -1.5176  1.4803  1.5968
  381SOL     OW 5058   3.316   7.754   3.522 -0.2550 -0.4750  0.3339
  381SOL    HW1 5059   3.396   7.705   3.542  0.3112  0.7860  1.3148
  381SOL    HW2 5060   3.329   7.788   3.434  0.0043 -0.7988  0.2456
  382SOL     OW 5061   7.544   5.433   6.019  0.4498 -0.2221  0.6581
  382SOL    HW1 5062   7.545   5.341   5.992 -0.5823 -0.4019  1.1824
  382SOL    HW2 5063   7.504   5.479   5.945 -1.4065 -0.5716  1.3892
  383SOL     OW 5064   6.884   2.966   0.406 -0.5178  0.1267 -0.1214
  383SOL    HW1 5065   6.940   2.893   0.380 -1.2234 -1.6962  2.9401
  383SOL    HW2 5066   6.811   2.965   0.344 -0.2285 -1.3999 -0.4605
  384SOL     OW 5067   3.581   2.447   1.460  0.0317 -0.3153  0.2624
  384SOL    HW1 5068   3.666   2.491   1.467  0.5190 -1.1494 -0.1141
  384SOL    HW2 5069   3.581   2.411   1.371 -1.5454  1.2957 -0.4545
  385SOL     OW 5070   5.500   8.882   9.556 -0.3169 -0.2343 -0.0918
  385SOL    HW1 5071   5.595   8.887   9.570 -0.3359  0.0410 -0.0526
  385SOL    HW2 5072   5.490   8.893   9.461 -0.3893  0.9957  0.0451
  386SOL     OW 5073   5.147   4.138   6.367 -0.2925  0.5429  0.7491
  386SOL    HW1 5074   5.186   4.119   6.282  0.9988 -0.5464  1.5337
  386SOL    HW2 5075   5.127   4.231   6.365 -0.1187  0.5682 -0.6711
  387SOL     OW 5076   7.756   4.051   6.012  0.3346  0.6922 -0.6610
  387SOL    HW1 5077   7.709   4.122   5.968  1.1485  2.0617  0.6134
  387SOL    HW2 5078   7.709   3.971   5.984 -1.3214  1.7983 -1.2203
  388SOL     OW 5079   3.410   3.078   2.379  0.0678 -0.6069 -0.8138
  388SOL    HW1 5080   3.407   3.051   2.287  0.4711  0.1319 -1.0490
  388SOL    HW2 5081   3.319   3.094   2.403  0.0901  0.8059 -1.5825
  389SOL     OW 5082   8.883   4.862   6.144 -0.2359  0.1731  0.0220
  389SOL    HW1 5083   8.790   4.860   6.120 -0.2123  1.4846 -0.2437
  389SOL    HW2 5084   8.911   4.770   6.138 -1.5019 -0.2407  0.0943
  390SOL     OW 5085   7.781   8.965   7.090  0.0932 -0.1504 -0.0648
  390SOL    HW1 5086   7.723   9.023   7.141 -0.1141 -0.9373  0.6174
  390SOL    HW2 5087   7.720   8.909   7.042  0.2909 -0.5750  0.1819
  391SOL     OW 5088   2.603   3.517   9.559  0.1374 -0.0768 -0.5215
  391SOL    HW1 5089   2.668   3.518   9.488  0.4305  2.4591 -0.3051
  391SOL    HW2 5090   2.648   3.475   9.632  0.7356 -0.4124 -1.0750
  392SOL     OW 5091   3.178   9.716   4.669  0.2882 -0.0888 -0.1392
  392SOL    HW1 5092   3.190   9.743   4.760 -2.2675 -0.7678  0.5040
  392SOL    HW2 5093   3.193   9.795   4.617 -0.2429  0.8348  1.0742
  393SOL     OW 5094   8.963  10.032   0.397  0.1123 -0.3692  0.2847
  393SOL    HW1 5095   8.965  10.112   0.344  0.5015 -0.6650 -0.1557
  393SOL    HW2 5096   8.934  10.061   0.484  0.8183  0.3416  0.2937
  394SOL     OW 5097   3.131   9.952   4.518  0.1714  0.1658 -0.0809
  394SOL    HW1 5098   3.047   9.970   4.474  0.3293  0.4213 -0.2858
  394SOL    HW2 5099   3.164  10.039   4.542  0.6161  0.1032 -0.4562
  395SOL     OW 5100   7.145   7.709   4.863  0.1958 -0.4358 -0.1542
  395SOL    HW1 5101   7.238   7.714   4.885 -0.2118  4.2951  1.9008
  395SOL    HW2 5102   7.142   7.706   4.768  2.4684 -0.7258 -0.2516
  396SOL     OW 5103   4.533   8.682   8.470  0.2114  0.3848 -0.4281
  396SOL    HW1 5104   4.450   8.715   8.506 -0.8238 -1.3812 -1.0496
  396SOL    HW2 5105   4.601   8.733   8.514 -1.1854  1.5341  0.4767
  397SOL     OW 5106   6.679   7.147   1.780  0.2460  0.0385  0.1099
  397SOL    HW1 5107   6.623   7.126   1.705  0.1411  2.4810 -0.6007
  397SOL    HW2 5108   6.634   7.110   1.856 -0.5217 -1.0271 -0.8319
  398SOL     OW 5109   9.730   6.041   2.669 -0.2572  0.0319  0.1004
  398SOL    HW1 5110   9.691   5.964   2.709 -1.2888  0.3948 -0.1700
  398SOL    HW2 5111   9.691   6.045   2.581  0.3420  0.4411 -0.1537
  399SOL     OW 5112   5.266   8.880   4.887  0.4053 -0.0763  0.3123
  399SOL    HW1 5113   5.287   8.788   4.904 -0.4858 -1.1023 -3.3243
  399SOL    HW2 5114   5.195   8.900   4.948  1.1742 -1.5041  1.7424
  400SOL     OW 5115   1.052   1.386   8.190 -0.1772 -0.7752  0.0320
  400SOL    HW1 5116   1.107   1.310   8.169 -2.3676 -2.4608  0.0036
  400SOL    HW2 5117   1.000   1.357   8.265 -0.1618  1.2158  0.8545
  401SOL     OW 5118   8.248   1.816   7.744 -0.0139 -0.3711 -0.2901
  401SOL    HW1 5119   8.190   1.892   7.745 -2.4868 -1.8471 -4.4395
  401SOL    HW2 5120   8.293   1.821   7.660  0.1743 -3.0928 -0.4548
  402SOL     OW 5121   5.952   4.654   0.533  0.0158 -0.0800 -0.1576
  402SOL    HW1 5122   5.860   4.662   0.508  0.4842  1.5034 -1.5115
  402SOL    HW2 5123   5.949   4.646   0.629 -1.5206  0.1866 -0.1484
  403SOL     OW 5124   5.213   0.128   2.720 -0.0969 -0.2370 -0.1906
  403SOL    HW1 5125   5.255   0.057   2.770 -1.6243 -0.7840  0.3591
  403SOL    HW2 5126   5.154   0.170   2.783 -2.3845 -1.1995 -1.5696
  404SOL     OW 5127   0.424   9.890   4.142 -0.6179  0.1963  0.2613
  404SOL    HW1 5128   0.352   9.942   4.107 -0.2824  0.6262  0.2023
  404SOL    HW2 5129   0.472   9.950   4.200  0.7835  0.5118 -1.1277
  405SOL     OW 5130   3.112   3.227   3.102 -0.0080  0.1205 -0.3963
  405SOL    HW1 5131   3.183   3.237   3.166 -0.1772 -0.0019 -0.1863
  405SOL    HW2 5132   3.065   3.149   3.131 -1.1279  1.0453  0.3425
  406SOL     OW 5133   2.870   3.877   8.285 -0.0855  0.0965  0.0850
  406SOL    HW1 5134   2.954   3.847   8.250 -0.3534  0.6534 -1.0878
  406SOL    HW2 5135   2.810   3.803   8.272  0.1401 -0.1813  0.6143
  407SOL     OW 5136   0.118   9.360   7.846 -0.4748 -0.1615  0.2605
  407SOL    HW1 5137   0.028   9.389   7.854 -0.6043  0.8015 -3.2411
  407SOL    HW2 5138   0.168   9.440   7.827  0.4938 -1.0985 -1.3612
  408SOL     OW 5139   9.026   0.332   9.789 -0.4219  0.0700 -0.2035
  408SOL    HW1 5140   9.030   0.382   9.871  1.0933  1.2428 -0.9475
  408SOL    HW2 5141   9.009   0.398   9.722 -0.9923 -0.7893 -0.9225
  409SOL     OW 5142   1.080   6.352   8.052  0.2025  0.4307 -0.3753
  409SOL    HW1 5143   1.063   6.324   7.963  0.7103  1.9442 -0.9822
  409SOL    HW2 5144   1.093   6.447   8.046 -0.9537  0.7840  1.4688
  410SOL     OW 5145   6.435   9.693   6.241 -0.4003  0.5503  0.1611
  410SOL    HW1 5146   6.375   9.763   6.267 -2.5203 -0.1553 -2.4299
  410SOL    HW2 5147   6.389   9.612   6.264 -0.4863 -0.0096 -1.8272
  411SOL     OW 5148   5.838   9.594   9.186  0.2205  0.0404  0.5864
  411SOL    HW1 5149   5.787   9.598   9.267  0.6273 -3.2340  1.1476
  411SOL    HW2 5150   5.889   9.675   9.185 -1.1116  0.9843  2.6362
  412SOL     OW 5151   7.930   6.208   7.929  0.7269  0.5030  0.1154
  412SOL    HW1 5152   7.850   6.254   7.904  2.1097  2.9958  0.0345
  412SOL    HW2 5153   7.927   6.206   8.025  0.3036  0.0761  0.0957
  413SOL     OW 5154   1.206   9.305   7.650  0.0029  0.2566  0.3280
  413SOL    HW1 5155   1.154   9.384   7.635 -2.1529 -0.9325  1.0367
  413SOL    HW2 5156   1.189   9.250   7.574  0.0036 -0.2450  0.6816
  414SOL     OW 5157   4.877   1.975   3.169  0.8778 -0.1838 -0.1515
  414SOL    HW1 5158   4.849   1.995   3.079 -0.4306 -0.1416  0.2495
  414SOL    HW2 5159   4.894   2.061   3.208 -0.5071 -0.0633  0.2359
  415SOL     OW 5160   4.149   3.317   4.658 -0.5288 -0.5345  0.5940
  415SOL    HW1 5161   4.185   3.345   4.574  0.4974 -2.4665  0.3244
  415SOL    HW2 5162   4.054   3.323   4.647 -0.4648 -1.7683 -1.1253
  416SOL     OW 5163   3.124   5.744   4.166  0.1426 -0.9154  0.2678
  416SOL    HW1 5164   3.184   5.802   4.119  0.5067 -2.0573 -0.7380
  416SOL    HW2 5165   3.060   5.803   4.207 -0.7019  0.1442 -2.3728
  417SOL     OW 5166   5.923   3.180   2.897 -0.0178 -0.2796 -0.6022
  417SOL    HW1 5167   5.837   3.162   2.935  0.6599 -2.5978  0.0224
  417SOL    HW2 5168   5.906   3.244   2.828 -1.8408  1.2698  1.1632
  418SOL     OW 5169   3.913   3.217   5.705  0.2430 -0.0585  0.0208
  418SOL    HW1 5170   3.879   3.302   5.734 -0.6791 -0.3705 -0.0956
  418SOL    HW2 5171   3.895   3.215   5.611  1.3194  0.0855 -0.2039
  419SOL     OW 5172   8.022   1.393   2.830 -0.0723  0.1113  0.0848
  419SOL    HW1 5173   8.087   1.403   2.899 -0.1427  1.4913 -0.0188
  419SOL    HW2 5174   7.960   1.329   2.864  0.7028 -0.3442  0.6668
  420SOL     OW 5175   6.972   3.416   3.195  0.4238  0.2566  0.2689
  420SOL    HW1 5176   7.064   3.419   3.171 -0.0140 -0.8933 -1.8110
  420SOL    HW2 5177   6.966   3.347   3.261  1.1809  1.1914  1.3639
  421SOL     OW 5178   1.864   8.292   6.591  0.2187 -0.1738  0.4483
  421SOL    HW1 5179   1.869   8.388   6.588  3.2574 -0.2643 -1.0398
  421SOL    HW2 5180   1.947   8.265   6.630 -0.5336 -2.2422  0.7299
  422SOL     OW 5181   7.309   4.695   9.072  0.7336 -0.4290 -0.5520
  422SOL    HW1 5182   7.382   4.709   9.012 -0.5464  1.5653 -1.7662
  422SOL    HW2 5183   7.286   4.603   9.061  4.0131 -1.6445  1.1155
  423SOL     OW 5184   1.278   5.601   0.757 -0.1188  0.6268  0.0762
  423SOL    HW1 5185   1.327   5.609   0.675 -1.3612  2.7774 -0.5263
  423SOL    HW2 5186   1.345   5.592   0.825  1.1252  2.7605 -0.7915
  424SOL     OW 5187   5.692   4.158   6.281 -0.5836  0.1792 -0.5015
  424SOL    HW1 5188   5.666   4.073   6.317  2.0293 -0.4890  0.0796
  424SOL    HW2 5189   5.756   4.136   6.213 -0.1161  1.6512 -0.5824
  425SOL     OW 5190   7.455   7.887   8.869  0.3322  0.0550 -0.1015
  425SOL    HW1 5191   7.480   7.919   8.956 -0.2925 -0.1222  0.1433
  425SOL    HW2 5192   7.374   7.839   8.883 -0.8480  1.6635 -1.0803
  426SOL     OW 5193   6.936   4.503   1.326 -0.1402  0.4605  0.0529
  426SOL    HW1 5194   6.960   4.582   1.277 -1.2191  1.2961  0.8070
  426SOL    HW2 5195   6.968   4.520   1.415 -1.6393  0.7137  0.5731
  427SOL     OW 5196   7.554   5.648   3.535  0.5942 -0.0561  0.2451
  427SOL    HW1 5197   7.562   5.720   3.597  1.3970  0.7384 -0.7332
  427SOL    HW2 5198   7.632   5.594   3.552  0.3935 -0.2832  0.4583
  428SOL     OW 5199   5.135   4.971   7.606 -0.0168  0.0744  0.2206
  428SOL    HW1 5200   5.115   5.054   7.650 -0.7224 -0.0636  0.1740
  428SOL    HW2 5201   5.207   4.993   7.546  0.5942  0.3860  1.0376
  429SOL     OW 5202   1.149   9.055   9.477  0.0236  0.6545 -0.5158
  429SOL    HW1 5203   1.136   9.075   9.570  0.0102 -0.3256 -0.2933
  429SOL    HW2 5204   1.169   9.139   9.437  2.4698  0.7751  0.7901
  430SOL     OW 5205   5.218   2.846   4.176  0.0048  0.2439  0.2819
  430SOL    HW1 5206   5.148   2.816   4.119  0.1943  2.2492 -1.1209
  430SOL    HW2 5207   5.285   2.880   4.116 -0.5398  4.0729  1.5839
  431SOL     OW 5208   7.389   9.042   5.913  0.1043  0.3269  0.4702
  431SOL    HW1 5209   7.418   9.107   5.977 -0.7058  1.4951 -0.3162
  431SOL    HW2 5210   7.421   9.074   5.829  0.1149 -0.5595  0.1181
  432SOL     OW 5211   0.799   9.658   7.965 -0.1502 -0.2622 -0.4371
  432SOL    HW1 5212   0.877   9.708   7.940 -0.2616  0.7029  0.9837
  432SOL    HW2 5213   0.792   9.590   7.899  2.1248 -0.6216 -0.3945
  433SOL     OW 5214   8.739   4.148   1.181 -0.5122 -0.4403 -0.0464
  433SOL    HW1 5215   8.677   4.080   1.206  0.4725 -1.1496  0.5550
  433SOL    HW2 5216   8.816   4.132   1.236 -0.8334  2.1434  1.2659
  434SOL     OW 5217   8.728   2.110   8.895 -0.7757  0.8466 -0.3317
  434SOL    HW1 5218   8.817   2.133   8.868 -1.6590  2.6712 -1.9710
  434SOL    HW2 5219   8.692   2.064   8.820 -0.3295 -2.7633  1.4725
  435SOL     OW 5220   3.849   0.163   4.368 -0.6894 -0.2634 -0.0991
  435SOL    HW1 5221   3.830   0.254   4.347 -0.0414  0.0989  0.8442
  435SOL    HW2 5222   3.805   0.147   4.452 -2.6318 -1.4755 -1.2624
  436SOL     OW 5223   8.857   1.044   8.222 -0.5441 -0.1555 -0.5621
  436SOL    HW1 5224   8.882   1.042   8.130 -0.7013 -0.2017 -0.6038
  436SOL    HW2 5225   8.937   1.019   8.269 -0.0349  1.2486 -0.6082
  437SOL     OW 5226   9.560   9.767   4.774  0.7831 -1.0179  0.2197
  437SOL    HW1 5227   9.573   9.699   4.840  0.4913 -0.9969  0.2982
  437SOL    HW2 5228   9.471   9.799   4.789  0.9336 -0.5844  0.2196
  438SOL     OW 5229  10.042   9.507   7.340 -0.0721 -0.2842  0.4312
  438SOL    HW1 5230  10.041   9.430   7.397 -2.3937 -0.7691 -0.1841
  438SOL    HW2 5231  10.102   9.568   7.383  1.1339 -2.0670  1.4030
  439SOL     OW 5232   5.075   2.438   6.370  0.2066 -0.1845 -0.3569
  439SOL    HW1 5233   5.110   2.349   6.375 -0.0990 -0.2598  0.5722
  439SOL    HW2 5234   5.051   2.449   6.278  2.2863 -0.2772 -0.9553
  440SOL     OW 5235   6.661   7.344   5.063  0.2490  0.3024  0.7237
  440SOL    HW1 5236   6.646   7.374   5.153 -0.8791  1.6960  0.1117
  440SOL    HW2 5237   6.616   7.261   5.057 -1.2918  1.0922  0.9434
  441SOL     OW 5238   4.731   2.521   5.288  0.1280 -0.3075 -0.2015
  441SOL    HW1 5239   4.773   2.439   5.261 -0.7180 -1.2395  1.1392
  441SOL    HW2 5240   4.766   2.538   5.375 -0.8432 -0.0991  0.1628
  442SOL     OW 5241   5.566   6.719   5.530  0.1188  0.6217  0.2438
  442SOL    HW1 5242   5.526   6.755   5.609 -0.2035 -1.1271  0.9014
  442SOL    HW2 5243   5.503   6.656   5.497  0.7458  0.5062 -0.7818
  443SOL     OW 5244   8.036   6.893   3.326  0.3009  0.0094 -1.0713
  443SOL    HW1 5245   8.009   6.980   3.356  1.7085  0.6581 -1.5696
  443SOL    HW2 5246   8.124   6.882   3.362  0.2020 -1.1375 -1.1670
  444SOL     OW 5247   1.994   0.040   9.660 -0.3627  0.1678 -0.1289
  444SOL    HW1 5248   1.940  -0.020   9.711  0.5187 -0.0438  0.5840
  444SOL    HW2 5249   1.986   0.010   9.570  0.8039 -1.6476  0.3125
  445SOL     OW 5250   2.580   9.379   5.489  0.1766 -0.2654  0.4816
  445SOL    HW1 5251   2.628   9.459   5.508 -0.5779  0.2643  0.2180
  445SOL    HW2 5252   2.638   9.330   5.431 -0.1636  1.0316 -1.0472
  446SOL     OW 5253   8.358   0.308   1.928  0.0254  0.1613 -0.1696
  446SOL    HW1 5254   8.297   0.269   1.989 -1.4980  0.5063 -1.4129
  446SOL    HW2 5255   8.307   0.325   1.849  1.7224  0.4745 -1.2698
  447SOL     OW 5256   7.547   2.949   9.090 -0.0230 -0.4940  0.4409
  447SOL    HW1 5257   7.593   3.031   9.107  1.3971 -0.7405 -1.7232
  447SOL    HW2 5258   7.502   2.965   9.007  0.6509 -2.0230 -0.2444
  448SOL     OW 5259   7.251   9.620   8.461  0.0312  0.2024  0.4308
  448SOL    HW1 5260   7.167   9.594   8.425  1.0264 -0.0543 -1.8467
  448SOL    HW2 5261   7.276   9.548   8.519 -0.8717 -0.1626  0.3803
  449SOL     OW 5262   4.477   6.161   4.410 -0.1271 -0.1423  0.0436
  449SOL    HW1 5263   4.447   6.135   4.323 -1.6476  1.0356  0.1638
  449SOL    HW2 5264   4.439   6.248   4.423  0.9516  0.1579  1.4677
  450SOL     OW 5265   2.210   7.192   3.076  0.0819  0.0407 -0.3296
  450SOL    HW1 5266   2.169   7.263   3.125  1.9240 -0.0708  1.5142
  450SOL    HW2 5267   2.137   7.144   3.037 -1.3396  1.3906  0.5671
  451SOL     OW 5268   8.196   0.735   8.568  0.0564 -0.0016 -0.0441
  451SOL    HW1 5269   8.112   0.739   8.614 -0.5824 -3.0425 -0.7430
  451SOL    HW2 5270   8.254   0.789   8.621 -1.7045  0.0926  1.9325
  452SOL     OW 5271   3.066   9.529   4.520  0.3707  0.3773  0.1330
  452SOL    HW1 5272   3.116   9.605   4.550 -1.0382  1.4094 -0.0337
  452SOL    HW2 5273   3.088   9.521   4.428  0.8785  0.2924  0.2589
  453SOL     OW 5274   2.188   4.522   3.086  0.1598 -0.6207 -0.1783
  453SOL    HW1 5275   2.230   4.565   3.012 -2.2308  1.8505 -0.2119
  453SOL    HW2 5276   2.216   4.573   3.162 -0.1717 -0.9913  0.1980
  454SOL     OW 5277   1.525   2.143   6.488 -0.6961  1.1935  0.2621
  454SOL    HW1 5278   1.603   2.189   6.458 -0.7450  0.3371 -1.3322
  454SOL    HW2 5279   1.460   2.212   6.502  0.2369  1.8855  1.3549
  455SOL     OW 5280   6.925   6.607   1.317 -0.2594 -0.6382 -0.6498
  455SOL    HW1 5281   6.870   6.663   1.372 -0.9904 -1.8764 -0.0809
  455SOL    HW2 5282   7.006   6.657   1.306 -2.3148  2.5182 -3.7326
  456SOL     OW 5283   4.606   5.482   6.462  0.4418  0.1278 -0.5333
  456SOL    HW1 5284   4.650   5.502   6.379  2.4807 -0.7519  0.2603
  456SOL    HW2 5285   4.640   5.548   6.524  2.5853 -1.9259  0.6473
  457SOL     OW 5286   6.003   9.750   5.083 -0.2894  0.5968  0.5141
  457SOL    HW1 5287   5.982   9.748   4.990  0.9480  1.1661  0.2040
  457SOL    HW2 5288   5.962   9.671   5.119  2.0229 -1.5343 -1.1694
  458SOL     OW 5289   5.723   5.503   2.825 -0.0267 -0.5020 -0.3581
  458SOL    HW1 5290   5.738   5.586   2.780  1.4916  0.2945  1.4419
  458SOL    HW2 5291   5.770   5.438   2.773 -0.0111  0.0172 -1.0024
  459SOL     OW 5292   9.789   7.284   0.468 -0.2446 -0.4165  0.6772
  459SOL    HW1 5293   9.772   7.346   0.538  0.8727  0.9939 -0.2438
  459SOL    HW2 5294   9.780   7.335   0.388  0.5895 -1.4665 -0.1176
  460SOL     OW 5295   2.279   5.170   4.341  0.0672  0.2924  0.0990
  460SOL    HW1 5296   2.273   5.077   4.365 -1.9318  0.9264  2.4882
  460SOL    HW2 5297   2.220   5.179   4.266 -0.9721 -0.1225  0.8409
  461SOL     OW 5298   5.074   7.280   8.358 -0.3174 -0.0971 -0.3511
  461SOL    HW1 5299   5.042   7.369   8.345 -1.5095 -0.1093  1.9489
  461SOL    HW2 5300   5.167   7.291   8.376 -0.9502  1.1021  2.7970
  462SOL     OW 5301   5.958   1.594   4.691  0.0321 -0.3304 -0.7336
  462SOL    HW1 5302   5.903   1.660   4.648  0.4638 -0.6151 -1.7562
  462SOL    HW2 5303   5.895   1.531   4.727 -0.3431 -0.9157 -2.3097
  463SOL     OW 5304   8.945   5.775   0.846 -0.3671  0.2205  0.8847
  463SOL    HW1 5305   9.031   5.759   0.807 -0.1953  2.6999  0.0481
  463SOL    HW2 5306   8.926   5.866   0.824 -3.3200 -0.3043  0.8584
  464SOL     OW 5307   5.891   6.289   5.602  0.2419  0.2249  0.3055
  464SOL    HW1 5308   5.822   6.231   5.569 -0.0925  1.1516 -0.7018
  464SOL    HW2 5309   5.846   6.372   5.618  1.1051  0.8305 -0.3364
  465SOL     OW 5310   1.682   2.480   6.616  0.0252 -0.2061  0.0935
  465SOL    HW1 5311   1.699   2.572   6.597 -1.3455  0.0951  0.2239
  465SOL    HW2 5312   1.709   2.434   6.537  0.4113  0.3315 -0.0979
  466SOL     OW 5313   6.823   7.119   8.432 -0.0028  0.3571 -0.3082
  466SOL    HW1 5314   6.881   7.088   8.363  0.1632 -0.6221  0.2640
  466SOL    HW2 5315   6.874   7.112   8.512  0.4664  3.2087 -0.2535
  467SOL     OW 5316   4.957   7.145   8.891  0.0733  0.1365 -0.1424
  467SOL    HW1 5317   4.990   7.231   8.863 -1.7062  0.4895 -1.3135
  467SOL    HW2 5318   4.874   7.135   8.845  0.1584 -2.1757  0.0916
  468SOL     OW 5319   4.958   5.382   6.293 -0.5007  0.1861  1.0817
  468SOL    HW1 5320   4.997   5.328   6.224  0.6364  1.2924  0.8137
  468SOL    HW2 5321   5.025   5.386   6.361 -0.8254  0.7201  1.3782
  469SOL     OW 5322  10.071   0.129   9.254 -0.0751  0.0227  1.4120
  469SOL    HW1 5323  10.080   0.036   9.277 -3.0646 -0.1593  2.1899
  469SOL    HW2 5324  10.037   0.129   9.165  1.1434  0.4535  0.9235
  470SOL     OW 5325   3.158   0.089   5.613 -0.3924 -0.0660 -0.0905
  470SOL    HW1 5326   3.210   0.026   5.563 -0.0874 -0.5709  0.8391
  470SOL    HW2 5327   3.136   0.157   5.550  1.6264  0.3114 -0.4657
  471SOL     OW 5328   4.922   7.552   6.259  0.5846  0.5742  0.6764
  471SOL    HW1 5329   4.878   7.565   6.343  0.2075 -2.7456  1.0987
  471SOL    HW2 5330   5.013   7.534   6.283  0.7873  0.9960  0.2403
  472SOL     OW 5331   0.900   4.987   4.957  0.2841  0.6115  0.1643
  472SOL    HW1 5332   0.908   5.055   5.024  2.4751  0.2918  0.3126
  472SOL    HW2 5333   0.938   5.026   4.878  1.9646 -0.5311  0.3575
  473SOL     OW 5334   7.831   6.560   2.190 -0.3599  0.3207  0.1406
  473SOL    HW1 5335   7.795   6.471   2.183 -0.5057  0.2888  1.0619
  473SOL    HW2 5336   7.926   6.547   2.198 -0.1806  0.3647 -1.5500
  474SOL     OW 5337   6.040   7.858   9.741  0.7510 -0.2534  0.0081
  474SOL    HW1 5338   5.987   7.782   9.715  0.8251 -0.3882  0.2513
  474SOL    HW2 5339   6.129   7.835   9.717  0.6469  0.1414 -0.7761
  475SOL     OW 5340   1.544   7.609   8.333 -0.1840 -0.3302  0.1153
  475SOL    HW1 5341   1.591   7.652   8.262 -1.9222  1.1630 -0.1963
  475SOL    HW2 5342   1.536   7.676   8.401  1.6727 -1.7990  1.9247
  476SOL     OW 5343  10.195  10.200   0.308  0.2539  0.1594  0.3666
  476SOL    HW1 5344  10.274  10.190   0.360  0.1061 -0.0787  0.5448
  476SOL    HW2 5345  10.195  10.124   0.250  0.3406  0.3447  0.1226
  477SOL     OW 5346   5.129   9.570   2.360 -0.5522  0.0534 -0.0436
  477SOL    HW1 5347   5.189   9.641   2.386  1.5728 -1.4161 -0.6848
  477SOL    HW2 5348   5.103   9.529   2.443 -0.2375  0.3628  0.2123
  478SOL     OW 5349   0.102   4.600   2.437  0.5090  0.1370  0.6180
  478SOL    HW1 5350   0.188   4.575   2.471  0.6762  0.1694  0.2347
  478SOL    HW2 5351   0.091   4.691   2.464 -1.1059 -0.9080  4.0135
  479SOL     OW 5352   5.253   6.005   9.855  0.8005 -0.1596  0.3956
  479SOL    HW1 5353   5.226   5.985   9.765  1.1147 -2.2678  0.7017
  479SOL    HW2 5354   5.188   6.067   9.886 -0.2423 -0.5965 -0.7980
  480SOL     OW 5355   3.173   1.548   8.506 -0.6246 -0.1390  0.0373
  480SOL    HW1 5356   3.178   1.630   8.555 -0.8917 -0.8852  1.3776
  480SOL    HW2 5357   3.260   1.509   8.516  0.1576  0.8444 -2.2641
  481SOL     OW 5358   1.938   3.043   7.186  0.0277 -0.1466 -0.6290
  481SOL    HW1 5359   1.934   3.079   7.098  1.6456  0.6511 -0.4170
  481SOL    HW2 5360   2.032   3.042   7.207 -0.3228 -0.3298  1.0695
  482SOL     OW 5361   0.446   8.623   5.224 -0.3444 -0.2000  0.0048
  482SOL    HW1 5362   0.416   8.635   5.314  0.1532  0.2131  0.1251
  482SOL    HW2 5363   0.436   8.529   5.207 -1.5566 -0.1040  0.0773
  483SOL     OW 5364   6.700   1.297   0.838 -0.5138 -0.5747  0.3812
  483SOL    HW1 5365   6.784   1.300   0.883 -0.8104 -1.4463  1.0011
  483SOL    HW2 5366   6.704   1.218   0.784 -1.0719 -0.8224  0.6969
  484SOL     OW 5367   9.125   4.312   3.416  0.3610  0.4012 -0.0493
  484SOL    HW1 5368   9.164   4.400   3.411  1.4695 -0.1385 -1.5979
  484SOL    HW2 5369   9.047   4.318   3.361  0.6766  0.3022 -0.5099
  485SOL     OW 5370   3.305   1.301   3.937  0.8515  0.0475 -0.0663
  485SOL    HW1 5371   3.311   1.391   3.907  1.0658  0.2172  0.4895
  485SOL    HW2 5372   3.225   1.267   3.895 -0.4357  1.1312  1.3741
  486SOL     OW 5373   4.487   5.693   6.218 -0.0387  0.1790 -0.7353
  486SOL    HW1 5374   4.582   5.686   6.224  0.1818  1.7438 -1.8789
  486SOL    HW2 5375   4.455   5.606   6.245  1.6810 -0.3100 -0.1523
  487SOL     OW 5376   2.796   4.405   2.951 -0.2096 -0.0804 -0.4210
  487SOL    HW1 5377   2.842   4.433   3.031 -0.3936 -1.3306  0.1634
  487SOL    HW2 5378   2.860   4.419   2.881 -0.6459  2.6749 -0.3720
  488SOL     OW 5379   6.521   7.894   1.854 -0.1471  0.0540  0.7114
  488SOL    HW1 5380   6.514   7.799   1.863 -2.6958  0.0460 -0.3122
  488SOL    HW2 5381   6.524   7.909   1.759  1.8141  0.9816  0.8640
  489SOL     OW 5382   0.079   6.716   2.893 -0.1091  0.1350 -1.0432
  489SOL    HW1 5383   0.134   6.728   2.815  2.6586 -0.8634  0.6168
  489SOL    HW2 5384   0.120   6.770   2.960 -0.9439 -0.9354  0.3861
  490SOL     OW 5385   7.082   5.280   2.988  0.8672 -0.3772  0.0566
  490SOL    HW1 5386   7.112   5.201   3.034 -0.2250 -0.8740 -0.0472
  490SOL    HW2 5387   7.016   5.318   3.046  3.2302  1.9888  1.3720
  491SOL     OW 5388   7.950   6.526   0.518 -0.4353 -0.3843  0.2586
  491SOL    HW1 5389   7.967   6.620   0.515 -0.0591 -0.4004  1.4400
  491SOL    HW2 5390   7.885   6.517   0.588  1.3799 -1.2331  1.9255
  492SOL     OW 5391   9.163   5.632   3.451  0.7095  0.2718 -0.3153
  492SOL    HW1 5392   9.127   5.543   3.454 -1.2336  0.9571 -1.4849
  492SOL    HW2 5393   9.252   5.623   3.487  1.6570 -2.6484 -2.9143
  493SOL     OW 5394   0.597   8.738  10.110 -0.1327 -0.8350  0.3016
  493SOL    HW1 5395   0.602   8.751  10.015 -1.3232 -0.1213  0.3130
  493SOL    HW2 5396   0.602   8.827  10.146 -0.6438 -1.0251  0.8430
  494SOL     OW 5397   4.867   5.883   0.440 -0.2301 -0.0882 -0.6441
  494SOL    HW1 5398   4.890   5.973   0.418  0.3435 -0.0403  0.1290
  494SOL    HW2 5399   4.771   5.882   0.441 -0.2367  0.6328 -0.1793
  495SOL     OW 5400   6.659   0.804   6.826 -0.6451 -0.0443 -0.1129
  495SOL    HW1 5401   6.728   0.740   6.805 -0.5068 -0.1561  0.6671
  495SOL    HW2 5402   6.579   0.763   6.793 -0.3908 -0.0460 -0.7619
  496SOL     OW 5403   1.340   7.246   2.781  0.3097  0.1404 -0.1620
  496SOL    HW1 5404   1.334   7.307   2.854 -0.2476  1.8325 -1.5718
  496SOL    HW2 5405   1.263   7.190   2.789 -0.4023  1.1185 -0.1431
  497SOL     OW 5406  10.064   2.618   3.628  0.2012  0.2797 -0.0463
  497SOL    HW1 5407  10.047   2.564   3.705 -1.5769  0.2904 -0.3940
  497SOL    HW2 5408  10.096   2.701   3.663  0.5552 -0.1282  0.6066
  498SOL     OW 5409   5.981   9.300   3.249 -0.1972 -0.1710 -0.0261
  498SOL    HW1 5410   5.972   9.214   3.209  2.4653 -0.6115  0.0838
  498SOL    HW2 5411   6.025   9.283   3.332  2.5238  1.3762 -1.0050
  499SOL     OW 5412   0.955   7.499   5.622  0.0403 -0.0234  0.2023
  499SOL    HW1 5413   0.922   7.588   5.607  1.4633  1.0790  2.9183
  499SOL    HW2 5414   1.038   7.496   5.574  0.1960  0.2706  0.4504
  500SOL     OW 5415   2.680   0.318   2.788  0.1665  0.1864  0.0836
  500SOL    HW1 5416   2.662   0.387   2.852  1.0163  0.2529  0.2724
  500SOL    HW2 5417   2.709   0.244   2.841  1.0547  0.3017 -0.2212
  501SOL     OW 5418   2.184   9.749   5.746 -0.3772  0.0164  0.3612
  501SOL    HW1 5419   2.144   9.671   5.785  0.8164 -2.5568 -3.0503
  501SOL    HW2 5420   2.111   9.798   5.710 -1.0050 -0.8809  0.3788
  502SOL     OW 5421   9.667   0.611   9.404  0.4573 -0.6988  0.2414
  502SOL    HW1 5422   9.587   0.569   9.434  0.4771  0.1823  1.6201
  502SOL    HW2 5423   9.735   0.545   9.415  0.0895 -1.1203 -0.0043
  503SOL     OW 5424   1.997   8.473   5.754 -0.1453  0.5653 -0.5045
  503SOL    HW1 5425   1.967   8.557   5.790  0.3882  1.0636 -1.1852
  503SOL    HW2 5426   2.057   8.498   5.683  0.2641 -0.3990 -0.5067
  504SOL     OW 5427   7.517   7.084   0.753  0.5602  0.3611 -0.3038
  504SOL    HW1 5428   7.470   7.010   0.792  0.0148  1.2229  0.7034
  504SOL    HW2 5429   7.507   7.155   0.816  0.6898  1.4429 -1.4702
  505SOL     OW 5430   2.313   8.741   5.457  0.1905  0.0659  0.2337
  505SOL    HW1 5431   2.392   8.733   5.510  0.0169 -0.4565  0.4224
  505SOL    HW2 5432   2.344   8.768   5.371  0.7337 -1.6383 -0.1350
  506SOL     OW 5433   6.732   4.005   8.373 -0.2897 -0.8587  0.8764
  506SOL    HW1 5434   6.685   3.965   8.446 -0.3507 -2.8881 -0.2001
  506SOL    HW2 5435   6.715   3.947   8.299  2.2497 -0.5507 -0.0409
  507SOL     OW 5436   2.647   8.129   9.607  0.0686 -0.0679 -0.6308
  507SOL    HW1 5437   2.580   8.198   9.609  0.5121  0.5158 -2.8647
  507SOL    HW2 5438   2.635   8.087   9.522  2.1320 -0.3567 -0.8148
  508SOL     OW 5439   9.350   2.963   9.323  0.5619  0.1267 -0.5469
  508SOL    HW1 5440   9.440   2.988   9.304  0.6493 -0.5531 -1.0306
  508SOL    HW2 5441   9.309   2.953   9.237 -0.1253  0.9303 -0.3352
  509SOL     OW 5442   9.187   3.342   3.470 -0.5607  0.1449 -0.1813
  509SOL    HW1 5443   9.175   3.276   3.401  0.8601  0.2834 -0.5844
  509SOL    HW2 5444   9.246   3.406   3.432 -0.5790  0.7682  0.8146
  510SOL     OW 5445   2.086   0.515   1.687  0.0131  0.8679  0.1509
  510SOL    HW1 5446   2.000   0.555   1.674 -0.3980  0.4347  1.4053
  510SOL    HW2 5447   2.096   0.510   1.782 -0.1220 -2.3086  0.1141
  511SOL     OW 5448   2.479   8.477   2.896  0.6980 -0.1000  0.2271
  511SOL    HW1 5449   2.409   8.541   2.884 -0.3715 -1.3406 -0.4425
  511SOL    HW2 5450   2.452   8.425   2.972  0.7307 -0.7711 -0.2088
  512SOL     OW 5451   6.291   7.907   8.419  0.2721 -0.5199 -0.1066
  512SOL    HW1 5452   6.317   7.818   8.442  1.5082  0.0647  0.9415
  512SOL    HW2 5453   6.350   7.931   8.347 -1.6684 -1.3464 -2.0487
  513SOL     OW 5454   7.973   0.732   0.486 -0.1597 -0.0333  0.2096
  513SOL    HW1 5455   8.035   0.662   0.508 -1.4248 -1.0559  0.5974
  513SOL    HW2 5456   7.909   0.691   0.429 -0.7677  0.8884  0.2057
  514SOL     OW 5457   4.024   6.694   3.883  0.0135  0.2066  0.0291
  514SOL    HW1 5458   4.070   6.768   3.922  0.4573  0.0797 -0.2458
  514SOL    HW2 5459   3.953   6.674   3.944 -0.2241  0.9739  0.0167
  515SOL     OW 5460   3.887   2.531   3.870  0.0425  0.1750  0.1947
  515SOL    HW1 5461   3.939   2.526   3.950 -0.7935 -1.7635  0.6983
  515SOL    HW2 5462   3.948   2.505   3.801  0.5724  1.1000  0.3068
  516SOL     OW 5463   3.763   0.322   2.107  0.4728  0.0009 -0.0448
  516SOL    HW1 5464   3.711   0.329   2.026 -1.4312  2.4537  1.2723
  516SOL    HW2 5465   3.823   0.396   2.103  0.2521  0.2315  0.8579
  517SOL     OW 5466   7.782   5.682   2.271  0.0536 -0.1044  0.1240
  517SOL    HW1 5467   7.783   5.696   2.366  2.1217  1.7625 -0.0955
  517SOL    HW2 5468   7.705   5.730   2.241  0.0988  0.3663  0.7313
  518SOL     OW 5469   3.273   4.899   2.259 -0.0260 -0.3394  0.8983
  518SOL    HW1 5470   3.250   4.810   2.231 -0.4248 -0.4133  1.4374
  518SOL    HW2 5471   3.360   4.914   2.221 -0.4522 -0.5093 -0.1673
  519SOL     OW 5472   1.744   7.776   0.023  0.5316 -0.4380 -0.0833
  519SOL    HW1 5473   1.707   7.689   0.009 -1.2286  0.5266 -2.0418
  519SOL    HW2 5474   1.737   7.790   0.117 -1.1820 -1.5863  0.0101
  520SOL     OW 5475   0.744   0.323   1.330 -0.4393  0.0378 -0.6328
  520SOL    HW1 5476   0.656   0.295   1.356 -1.0790  1.6612 -0.9273
  520SOL    HW2 5477   0.772   0.256   1.267 -0.4549 -1.7930  1.1972
  521SOL     OW 5478   2.559   5.992   6.849  0.1002  1.1479  0.4861
  521SOL    HW1 5479   2.581   5.903   6.822  0.1305  1.0123  0.9669
  521SOL    HW2 5480   2.643   6.039   6.849  0.0384  1.2725 -0.1063
  522SOL     OW 5481   2.116  10.050   2.797  0.0036  0.4093 -0.2095
  522SOL    HW1 5482   2.031  10.007   2.791  0.2396 -0.3109  1.1320
  522SOL    HW2 5483   2.162  10.004   2.868 -0.2125  3.6500  2.2952
  523SOL     OW 5484   4.341   7.999   6.185 -0.2209 -0.3857  0.3053
  523SOL    HW1 5485   4.269   7.938   6.195 -1.7066  1.2542  0.1205
  523SOL    HW2 5486   4.356   8.003   6.090 -0.6848  0.1278  0.2480
  524SOL     OW 5487   8.986   7.159   5.298 -0.1113 -0.1472 -0.2603
  524SOL    HW1 5488   9.054   7.194   5.355 -1.6033  0.0347  1.4864
  524SOL    HW2 5489   9.007   7.195   5.211  1.0173  1.3274  0.5704
  525SOL     OW 5490   4.553   5.782   5.173 -0.3811 -0.5598 -0.3196
  525SOL    HW1 5491   4.635   5.792   5.124 -1.3048  0.7538 -1.7131
  525SOL    HW2 5492   4.495   5.735   5.113 -0.8126 -1.0370  0.4544
  526SOL     OW 5493   5.556   0.134   4.045 -0.0716  0.7439  0.1446
  526SOL    HW1 5494   5.496   0.063   4.066  0.8943  0.1907  1.1856
  526SOL    HW2 5495   5.571   0.128   3.951  1.1411 -1.4046  0.4131
  527SOL     OW 5496   2.395   7.251   8.304 -0.1100  0.2528  0.2791
  527SOL    HW1 5497   2.454   7.227   8.375 -1.4184  0.1765  1.3677
  527SOL    HW2 5498   2.307   7.230   8.336 -0.7960  0.8500 -1.0883
  528SOL     OW 5499   3.910   8.619   0.131 -0.2236  0.6641 -0.0657
  528SOL    HW1 5500   3.925   8.712   0.112  0.0526  0.3972 -1.2565
  528SOL    HW2 5501   3.931   8.575   0.049  2.1353 -0.7175  1.1616
  529SOL     OW 5502   8.957   7.189   0.181 -0.4194 -0.2155 -0.5944
  529SOL    HW1 5503   8.933   7.281   0.175  1.2503  0.3166  0.2247
  529SOL    HW2 5504   8.995   7.167   0.096 -0.2157  0.0417 -0.5687
  530SOL     OW 5505   2.181   6.466   5.888  0.1793 -0.4247 -0.0634
  530SOL    HW1 5506   2.123   6.538   5.861 -0.1352 -0.3904  0.6847
  530SOL    HW2 5507   2.268   6.505   5.890  0.0558 -0.1485  0.0132
  531SOL     OW 5508   7.635   0.746   1.149 -1.2611  0.0699  0.2721
  531SOL    HW1 5509   7.636   0.718   1.058  0.9857 -2.6726  1.0147
  531SOL    HW2 5510   7.707   0.810   1.155 -0.5733 -0.6928  0.3369
  532SOL     OW 5511   2.155   3.612   6.538  0.3884  0.1601 -0.4411
  532SOL    HW1 5512   2.088   3.680   6.534 -0.3584 -0.5902 -0.9750
  532SOL    HW2 5513   2.219   3.639   6.471  0.3737  0.6207 -0.2730
  533SOL     OW 5514   0.782   6.645   8.472 -0.1036  0.4508 -0.1870
  533SOL    HW1 5515   0.846   6.696   8.523  0.2662 -0.4004  0.2300
  533SOL    HW2 5516   0.698   6.686   8.491  0.2816  1.4916 -0.6136
  534SOL     OW 5517  10.051   2.334   6.906 -0.4040  0.3085 -0.1404
  534SOL    HW1 5518  10.074   2.335   6.813  0.1287 -0.1444 -0.0175
  534SOL    HW2 5519  10.117   2.390   6.947 -0.3590  0.1364  0.0231
  535SOL     OW 5520   5.775   9.830   3.668 -0.2694 -0.3114 -0.0209
  535SOL    HW1 5521   5.783   9.740   3.700 -1.6393 -0.4985 -0.1573
  535SOL    HW2 5522   5.756   9.882   3.746 -2.6543 -0.6301 -0.3223
  536SOL     OW 5523   8.290   9.375   1.021  0.0923 -0.4790  0.2576
  536SOL    HW1 5524   8.361   9.396   1.081 -0.8515 -1.5370  1.8031
  536SOL    HW2 5525   8.226   9.446   1.033  0.5954  0.1567 -0.6978
  537SOL     OW 5526   3.059   0.011   8.534  0.3043  0.3850  0.3915
  537SOL    HW1 5527   3.005  -0.061   8.505  2.1987 -0.9344 -0.0498
  537SOL    HW2 5528   3.037   0.083   8.475 -1.5461  0.1900  0.7827
  538SOL     OW 5529   4.556   0.005  10.037  0.6396  0.4673 -0.3790
  538SOL    HW1 5530   4.536  -0.006   9.944  1.1535  3.6006 -0.9715
  538SOL    HW2 5531   4.471   0.027  10.077  0.5880  0.0851 -0.2728
  539SOL     OW 5532   3.435   3.929   3.012 -0.0287 -0.2467  0.1881
  539SOL    HW1 5533   3.340   3.924   3.022 -0.0563 -2.2019 -0.5290
  539SOL    HW2 5534   3.463   3.988   3.082 -1.7297  0.1010  0.6332
  540SOL     OW 5535   1.402   4.611   3.914  0.3575 -0.3064  0.1043
  540SOL    HW1 5536   1.468   4.649   3.857  0.7928  0.0126  0.8085
  540SOL    HW2 5537   1.324   4.663   3.898  0.6484  0.1773  0.2511
  541SOL     OW 5538   7.029   4.863   3.289 -0.5936 -0.6832 -0.0790
  541SOL    HW1 5539   7.046   4.927   3.359 -1.1253 -0.4490 -0.1593
  541SOL    HW2 5540   7.074   4.784   3.318  0.6746 -0.0731 -0.3122
  542SOL     OW 5541   2.614   6.862   1.235 -0.0546  0.4068 -0.4290
  542SOL    HW1 5542   2.674   6.915   1.287 -1.4221  0.3292  1.3316
  542SOL    HW2 5543   2.554   6.823   1.300  0.2240 -2.4332 -1.7261
  543SOL     OW 5544   0.838   6.223   4.041 -0.6050  0.4797  0.0340
  543SOL    HW1 5545   0.759   6.200   4.090  1.2107 -1.2665  2.3907
  543SOL    HW2 5546   0.836   6.318   4.036 -3.6120  0.4825 -1.5054
  544SOL     OW 5547   1.123   7.591   9.441 -0.1136  0.1492 -0.2077
  544SOL    HW1 5548   1.205   7.582   9.490  0.1981 -1.0883 -0.9125
  544SOL    HW2 5549   1.147   7.646   9.366 -0.4969  1.7014  0.7477
  545SOL     OW 5550   3.485   3.683   5.644  0.3293  0.1660 -0.0012
  545SOL    HW1 5551   3.556   3.623   5.666  1.3623  1.3000 -0.1917
  545SOL    HW2 5552   3.481   3.743   5.718 -0.7371 -0.1275  0.2100
  546SOL     OW 5553   5.178  10.038   0.276  0.1485  0.1265 -0.3546
  546SOL    HW1 5554   5.218   9.992   0.201  1.4177  0.9337 -0.2063
  546SOL    HW2 5555   5.090  10.059   0.247 -0.3104 -1.9351 -0.6180
  547SOL     OW 5556   6.821   3.200   4.810  0.3109 -0.2142 -0.0914
  547SOL    HW1 5557   6.899   3.220   4.863  0.8682 -1.0070 -0.5813
  547SOL    HW2 5558   6.792   3.115   4.843  0.6029 -0.6659 -0.9728
  548SOL     OW 5559   4.059   3.216   7.071  0.1758  0.1754  0.0443
  548SOL    HW1 5560   4.079   3.300   7.030 -1.1691 -0.4400 -2.0148
  548SOL    HW2 5561   4.091   3.151   7.009 -2.0194 -0.8143 -0.1319
  549SOL     OW 5562   1.642   0.741   7.670  0.5075  0.1341  0.1029
  549SOL    HW1 5563   1.708   0.672   7.680  0.8699  0.5319  0.4658
  549SOL    HW2 5564   1.596   0.741   7.755 -1.8358 -2.0313 -0.9942
  550SOL     OW 5565   5.955   9.853   9.173  0.2126  0.2477 -0.2988
  550SOL    HW1 5566   6.036   9.825   9.216 -0.5277  1.3088  1.9184
  550SOL    HW2 5567   5.981   9.870   9.082  2.3448  0.0402  0.2204
  551SOL     OW 5568   7.351   2.875   1.950  0.5828 -0.0136  0.1482
  551SOL    HW1 5569   7.424   2.815   1.967  1.5413  0.9719 -0.3631
  551SOL    HW2 5570   7.275   2.831   1.989  0.9619 -2.2138 -1.3770
  552SOL     OW 5571   7.708   8.347   3.274 -0.0152  0.0144  0.3048
  552SOL    HW1 5572   7.714   8.253   3.289  0.2191 -0.0148  0.0402
  552SOL    HW2 5573   7.615   8.364   3.261 -0.1538 -0.0571  1.1293
  553SOL     OW 5574   4.378   4.355   3.017 -0.0600  0.3158  0.1792
  553SOL    HW1 5575   4.393   4.275   3.068 -1.0878  0.9476  1.5457
  553SOL    HW2 5576   4.409   4.333   2.929 -1.0759 -1.8793  0.2855
  554SOL     OW 5577   8.854   0.905   7.300  0.3893 -0.0452  0.4617
  554SOL    HW1 5578   8.812   0.948   7.225  2.4848  1.8148  0.2309
  554SOL    HW2 5579   8.899   0.829   7.261 -1.2836 -1.0768  0.4517
  555SOL     OW 5580   8.269   9.215   6.937  0.1149  0.3914 -0.0599
  555SOL    HW1 5581   8.284   9.260   6.854  1.0975  1.1992  0.5300
  555SOL    HW2 5582   8.202   9.268   6.981  0.0053  0.2914 -0.1099
  556SOL     OW 5583   8.175   8.973   3.369  0.3267 -0.0628  0.3673
  556SOL    HW1 5584   8.103   8.990   3.309  0.7419  1.7429  0.3096
  556SOL    HW2 5585   8.174   9.047   3.430  0.9781 -0.9698  1.5260
  557SOL     OW 5586   8.290   2.755   2.360  0.3605  0.2577 -0.3379
  557SOL    HW1 5587   8.322   2.703   2.434  1.1691  0.7307 -0.3431
  557SOL    HW2 5588   8.356   2.823   2.348  0.3665  0.0470 -1.6584
  558SOL     OW 5589   6.824   5.330  10.095 -0.6052 -0.2641  0.1576
  558SOL    HW1 5590   6.872   5.355  10.016  0.0621  1.0543  0.9513
  558SOL    HW2 5591   6.739   5.373  10.085  0.3131  1.9052  1.2190
  559SOL     OW 5592   1.883   9.894   5.372 -0.1314  0.4169  0.4804
  559SOL    HW1 5593   1.968   9.909   5.330  0.0875  1.9378  1.4167
  559SOL    HW2 5594   1.824   9.957   5.331 -0.7716 -0.4428  0.0386
  560SOL     OW 5595   3.256   4.463   4.034  0.1851 -0.3320  0.3576
  560SOL    HW1 5596   3.313   4.420   3.970  0.6054 -0.3953  0.7620
  560SOL    HW2 5597   3.175   4.482   3.986  1.2866  1.6610 -0.8465
  561SOL     OW 5598   5.242   2.688   2.887  0.0794 -0.5390  0.3395
  561SOL    HW1 5599   5.215   2.596   2.886 -0.5124 -0.4249  2.0926
  561SOL    HW2 5600   5.308   2.693   2.956 -1.6658  0.7512  2.0371
  562SOL     OW 5601   8.960   8.809   5.773 -0.2437 -0.2892 -0.0635
  562SOL    HW1 5602   9.002   8.895   5.777  0.0731 -0.4401 -0.1791
  562SOL    HW2 5603   9.028   8.747   5.799 -0.3865 -0.5341 -0.2689
  563SOL     OW 5604   9.607   7.261   1.873  0.0198 -0.1214  0.0574
  563SOL    HW1 5605   9.660   7.329   1.915 -0.1698 -0.5991  1.0944
  563SOL    HW2 5606   9.517   7.293   1.879 -0.1896 -0.9242  1.4968
  564SOL     OW 5607   5.174   0.418   0.241  0.2636 -0.3691 -0.4892
  564SOL    HW1 5608   5.165   0.324   0.260  0.8628 -0.0559  1.6662
  564SOL    HW2 5609   5.085   0.449   0.230 -0.2653 -0.5923  2.4055
  565SOL     OW 5610   3.708   5.932   9.376  0.8013 -0.7318 -0.0183
  565SOL    HW1 5611   3.639   5.895   9.431  0.5037 -0.5586 -0.2730
  565SOL    HW2 5612   3.726   6.018   9.413 -1.6868  0.7904 -2.0755
  566SOL     OW 5613   8.735   7.678   8.654  0.0488 -0.0317  0.1145
  566SOL    HW1 5614   8.816   7.686   8.705 -0.0879 -0.5719  0.4274
  566SOL    HW2 5615   8.764   7.644   8.569 -0.0703 -2.6893  1.0423
  567SOL     OW 5616   1.717   5.422   6.761 -0.2391  0.2560  0.2492
  567SOL    HW1 5617   1.786   5.439   6.697 -0.2837  1.8148  0.5700
  567SOL    HW2 5618   1.637   5.416   6.708 -0.0251 -0.3593 -0.0103
  568SOL     OW 5619   6.695   3.450   2.982  0.3707  0.3280 -0.2396
  568SOL    HW1 5620   6.772   3.402   2.952 -0.1435 -1.1834  0.7774
  568SOL    HW2 5621   6.720   3.486   3.067  0.0682  0.1072 -0.0547
  569SOL     OW 5622   5.786   4.276   7.809 -0.4802  0.2422 -0.0110
  569SOL    HW1 5623   5.881   4.282   7.817 -0.1106 -1.5332 -1.9925
  569SOL    HW2 5624   5.753   4.285   7.898  1.6694 -0.7453  0.9606
  570SOL     OW 5625   9.701   2.935   5.303 -0.0445 -0.2664  0.0150
  570SOL    HW1 5626   9.611   2.906   5.290 -0.3228  1.1124 -1.5049
  570SOL    HW2 5627   9.749   2.856   5.325 -1.2605 -1.3717 -1.1397
  571SOL     OW 5628   7.592   0.856   2.062 -0.2381  0.0957 -0.3547
  571SOL    HW1 5629   7.498   0.873   2.071 -0.0731  1.0999 -0.3633
  571SOL    HW2 5630   7.597   0.775   2.012 -1.1003  0.1275 -0.5114
  572SOL     OW 5631   4.072   3.316   7.993 -0.2033  0.5013 -0.1711
  572SOL    HW1 5632   4.061   3.338   7.901  1.7754 -0.3869 -0.6799
  572SOL    HW2 5633   4.166   3.329   8.010 -0.0804 -1.5873  1.0730
  573SOL     OW 5634   8.974   7.610   7.318 -0.0162 -0.0986  0.1953
  573SOL    HW1 5635   8.942   7.687   7.365  0.3783 -0.4403  1.0573
  573SOL    HW2 5636   8.939   7.536   7.367  0.6681 -0.4645  0.1499
  574SOL     OW 5637   7.960   9.346   9.933 -0.0167 -0.0235 -0.4851
  574SOL    HW1 5638   7.939   9.439   9.946 -0.6353  0.2725 -3.0118
  574SOL    HW2 5639   8.011   9.322  10.010  1.9534  3.0086 -0.6692
  575SOL     OW 5640   0.421   9.718   3.095 -0.0260 -0.0205  0.0512
  575SOL    HW1 5641   0.402   9.641   3.042  0.9500 -0.3661  0.1845
  575SOL    HW2 5642   0.516   9.726   3.094 -0.1162  1.3994 -0.2466
  576SOL     OW 5643   6.793   4.664   4.100 -0.0138 -0.4222 -0.6204
  576SOL    HW1 5644   6.787   4.618   4.184  2.0077  0.5795  0.1421
  576SOL    HW2 5645   6.769   4.598   4.035  0.2735 -1.8071  0.6178
  577SOL     OW 5646   9.356   3.815   6.556  0.3647  0.2327 -0.1469
  577SOL    HW1 5647   9.294   3.871   6.509  0.8857  0.1940 -0.9033
  577SOL    HW2 5648   9.440   3.830   6.513  0.5846 -0.8568 -0.1382
  578SOL     OW 5649   4.909   1.220   7.298 -0.5968  0.5762 -0.0050
  578SOL    HW1 5650   4.929   1.212   7.205  1.4606 -0.7301  0.4810
  578SOL    HW2 5651   4.983   1.268   7.335 -1.6900  1.6467  0.8947
  579SOL     OW 5652   0.238   7.050   5.605  0.0965 -0.2475  0.0926
  579SOL    HW1 5653   0.195   6.999   5.673  1.1112 -0.9838  0.2087
  579SOL    HW2 5654   0.167   7.079   5.548 -0.8536  0.8880  1.7627
  580SOL     OW 5655   5.335   0.312   3.887  0.1695 -0.1932  0.1413
  580SOL    HW1 5656   5.328   0.362   3.806  0.8980 -2.1687 -1.2097
  580SOL    HW2 5657   5.424   0.327   3.918 -0.4166  1.3918  1.2223
  581SOL     OW 5658   6.257   1.013   0.858 -0.0397  0.1464  0.5852
  581SOL    HW1 5659   6.311   1.058   0.793 -0.6902  1.1529  0.7209
  581SOL    HW2 5660   6.214   0.943   0.809  1.0651 -0.4097  0.3907
  582SOL     OW 5661   9.956   6.961  10.007 -0.2209 -0.0440 -0.4511
  582SOL    HW1 5662   9.932   7.038  10.058 -1.2690  0.9213 -2.2875
  582SOL    HW2 5663  10.050   6.970   9.993 -0.1026  0.2052  0.4068
  583SOL     OW 5664   2.077   0.567   1.957 -0.0572  0.1221 -0.3534
  583SOL    HW1 5665   2.162   0.522   1.951 -0.8460 -1.3607 -0.7984
  583SOL    HW2 5666   2.090   0.634   2.024  0.5023 -2.2768  2.0734
  584SOL     OW 5667   5.731   8.682   3.623 -0.0123  0.2983 -0.2167
  584SOL    HW1 5668   5.750   8.624   3.548 -1.6454  2.9649 -2.8866
  584SOL    HW2 5669   5.650   8.647   3.659  0.2413 -0.4201 -0.3065
  585SOL     OW 5670   6.896   2.306   5.208  0.2128  0.1253 -0.8248
  585SOL    HW1 5671   6.923   2.241   5.144 -0.6893 -1.2396  0.1259
  585SOL    HW2 5672   6.805   2.286   5.227 -0.0045  1.4910 -0.2838
  586SOL     OW 5673   8.840   3.734   5.422 -0.3857  0.0716  0.1302
  586SOL    HW1 5674   8.884   3.817   5.442  0.7332 -0.6351  0.7146
  586SOL    HW2 5675   8.822   3.739   5.328  0.3456  0.6770  0.0088
  587SOL     OW 5676   6.227   4.923   5.694  0.2516  0.2334 -0.4359
  587SOL    HW1 5677   6.241   4.941   5.601  1.2902 -0.7936 -0.5139
  587SOL    HW2 5678   6.281   4.987   5.740  1.4283 -0.5863 -0.6231
  588SOL     OW 5679   5.566   6.566   7.016  0.0121  0.2517  0.0456
  588SOL    HW1 5680   5.552   6.588   7.108  1.1689  0.0689  0.2906
  588SOL    HW2 5681   5.483   6.530   6.986 -0.1755 -0.3398  1.2177
  589SOL     OW 5682   7.286   8.618   3.171  0.0624  0.1014 -0.2216
  589SOL    HW1 5683   7.191   8.604   3.172 -0.0762  1.0119 -0.1436
  589SOL    HW2 5684   7.298   8.708   3.200  1.0370 -0.4148  1.0671
  590SOL     OW 5685   1.827   0.591   2.218 -0.2781 -0.1102  0.2798
  590SOL    HW1 5686   1.816   0.599   2.313  1.6732 -0.7949  0.6266
  590SOL    HW2 5687   1.817   0.498   2.200  0.4478 -0.1441  0.0033
  591SOL     OW 5688   6.925   4.835   4.574  0.5712 -0.3863 -0.1600
  591SOL    HW1 5689   6.980   4.791   4.638  0.7502  0.0929  0.0197
  591SOL    HW2 5690   6.984   4.859   4.503  0.3210 -1.1676 -0.6361
  592SOL     OW 5691   0.451   1.003   6.132  0.1306 -0.4288  0.1566
  592SOL    HW1 5692   0.416   0.986   6.044  1.2396  0.0391 -0.3997
  592SOL    HW2 5693   0.405   1.082   6.161  1.6659  1.0222 -1.1609
  593SOL     OW 5694   0.411   9.838   0.241  0.0193  0.1112  0.2642
  593SOL    HW1 5695   0.502   9.850   0.268  0.3170  1.8333 -1.2730
  593SOL    HW2 5696   0.410   9.863   0.149 -1.3582 -3.2588 -0.7988
  594SOL     OW 5697   5.472   9.991   8.842 -0.8467 -0.2275 -0.5033
  594SOL    HW1 5698   5.538  10.040   8.793 -0.3393  0.8342  1.1639
  594SOL    HW2 5699   5.521   9.922   8.886 -0.5623  1.3060  1.7264
  595SOL     OW 5700   5.503   8.483   3.449 -0.9039  0.3097  0.0097
  595SOL    HW1 5701   5.494   8.522   3.536 -1.4550  1.5742 -0.5920
  595SOL    HW2 5702   5.425   8.513   3.402 -0.9766 -0.9484 -0.7100
  596SOL     OW 5703   9.290   2.140   2.598  0.4088 -0.2270 -0.0999
  596SOL    HW1 5704   9.318   2.049   2.586  1.9193  0.2793 -0.5824
  596SOL    HW2 5705   9.195   2.137   2.589  0.4266 -1.7718 -0.0122
  597SOL     OW 5706   4.708   4.184   0.632 -0.3569  0.1523  0.0682
  597SOL    HW1 5707   4.649   4.218   0.564  0.3164 -0.0654 -0.6315
  597SOL    HW2 5708   4.673   4.098   0.654  0.5724 -0.6535 -1.4715
  598SOL     OW 5709   6.509   5.804   2.050 -0.2272  0.2183  0.4341
  598SOL    HW1 5710   6.447   5.772   1.986 -0.6417  0.9210  0.4737
  598SOL    HW2 5711   6.470   5.885   2.083 -0.1889 -0.2916  1.8084
  599SOL     OW 5712   0.476   8.591   0.733 -0.2471 -0.1801 -0.0008
  599SOL    HW1 5713   0.390   8.619   0.703 -0.4624 -0.1642  0.6195
  599SOL    HW2 5714   0.532   8.668   0.722 -0.0260 -0.5161 -1.4762
  600SOL     OW 5715   7.483   3.397   5.072 -0.3248 -0.2762 -0.0214
  600SOL    HW1 5716   7.409   3.354   5.029 -0.1665  0.4523 -1.0484
  600SOL    HW2 5717   7.443   3.443   5.146 -0.9163  0.1690 -0.6034
  601SOL     OW 5718   4.159   3.331   3.980 -0.6721  0.2658 -0.5277
  601SOL    HW1 5719   4.140   3.422   4.001 -1.5395 -0.0274  0.0237
  601SOL    HW2 5720   4.153   3.285   4.063  0.2344 -0.2234 -0.7258
  602SOL     OW 5721   5.441   5.482   1.037  0.8140  0.7572  0.1833
  602SOL    HW1 5722   5.511   5.446   1.091  0.7531  0.3081 -0.0267
  602SOL    HW2 5723   5.477   5.483   0.949  0.1637 -0.5818 -0.1185
  603SOL     OW 5724   7.348   1.848   6.733  0.4276 -0.1814  0.3915
  603SOL    HW1 5725   7.384   1.844   6.822  0.6307  0.1266  0.3251
  603SOL    HW2 5726   7.253   1.844   6.745  0.3506  1.9329  0.7631
  604SOL     OW 5727   2.307   7.069   2.750 -0.1578  0.3580  0.3578
  604SOL    HW1 5728   2.317   7.117   2.833  3.0610  0.3886  0.0594
  604SOL    HW2 5729   2.332   6.979   2.772  1.5798  0.5485 -0.7070
  605SOL     OW 5730   4.673   9.518   8.887 -0.5219  0.2872 -0.1213
  605SOL    HW1 5731   4.698   9.531   8.795  0.1512  1.9714  0.2662
  605SOL    HW2 5732   4.634   9.430   8.889 -1.2626  0.5223 -2.1573
  606SOL     OW 5733   6.905   8.908   9.568 -0.2673  0.2391  0.1760
  606SOL    HW1 5734   6.871   8.876   9.484 -1.0642  0.3073  0.4607
  606SOL    HW2 5735   6.982   8.853   9.585 -0.0374  0.2953 -0.6463
  607SOL     OW 5736   5.877   7.835   0.260  0.0400  0.1948  0.6139
  607SOL    HW1 5737   5.816   7.903   0.232  1.2149  0.2891 -1.9888
  607SOL    HW2 5738   5.822   7.773   0.309 -2.1659  0.3173 -1.4951
  608SOL     OW 5739   5.138   2.429   3.030  0.8515  0.0643  0.0816
  608SOL    HW1 5740   5.083   2.370   2.978  0.6892  0.8107 -0.6307
  608SOL    HW2 5741   5.118   2.407   3.121  1.6722 -1.7635 -0.1487
  609SOL     OW 5742   6.956   9.427   2.469 -0.1099 -0.2178 -0.0909
  609SOL    HW1 5743   6.955   9.492   2.398 -0.6521  0.3470  0.4225
  609SOL    HW2 5744   6.892   9.361   2.442  0.4693 -0.5730 -0.6331
  610SOL     OW 5745   7.934   0.037   9.201  0.3029 -0.2185 -1.1611
  610SOL    HW1 5746   7.874   0.096   9.154 -0.4120 -0.2772 -0.3364
  610SOL    HW2 5747   8.020   0.056   9.163 -0.0697  0.6317 -1.6136
  611SOL     OW 5748   0.388   9.687   3.806  0.4217  0.3287  0.4264
  611SOL    HW1 5749   0.462   9.626   3.802 -0.8366 -1.3905  1.7351
  611SOL    HW2 5750   0.405   9.749   3.736  3.5904  0.5879  1.2481
  612SOL     OW 5751   8.583   4.589   2.081 -0.1207 -0.2036  0.4884
  612SOL    HW1 5752   8.676   4.579   2.059 -0.1580  1.2082 -0.5025
  612SOL    HW2 5753   8.579   4.581   2.176  1.1473  0.4788  0.6196
  613SOL     OW 5754   4.061   8.458   8.815  0.1202  0.2750  0.5287
  613SOL    HW1 5755   4.099   8.535   8.859  2.7459 -0.3096 -0.5061
  613SOL    HW2 5756   3.977   8.489   8.781  1.2271  2.8336 -0.1446
  614SOL     OW 5757   7.985   2.053   4.407 -0.4054 -0.2616 -0.2612
  614SOL    HW1 5758   7.913   1.991   4.410 -0.5063 -0.1587 -0.4998
  614SOL    HW2 5759   8.056   2.006   4.364 -0.8735  0.1706 -1.5558
  615SOL     OW 5760   7.490   4.993   8.816 -0.3456 -0.5194  0.2307
  615SOL    HW1 5761   7.454   5.078   8.844  1.8553  0.7088 -0.4772
  615SOL    HW2 5762   7.438   4.970   8.739 -1.0775  0.0972  0.5208
  616SOL     OW 5763   5.032   4.227   4.620  0.4784 -0.0111 -0.3306
  616SOL    HW1 5764   5.118   4.269   4.613  1.1505 -1.0294  1.2641
  616SOL    HW2 5765   5.052   4.134   4.631 -0.7478 -0.1131  1.4459
  617SOL     OW 5766   2.267   5.586   3.861  0.4322  0.4375  0.4637
  617SOL    HW1 5767   2.339   5.553   3.808 -0.9496 -1.6729 -0.2048
  617SOL    HW2 5768   2.292   5.568   3.951  0.5376 -0.7815  0.2051
  618SOL     OW 5769   9.489   8.207   5.542  0.3373  0.3105  0.6150
  618SOL    HW1 5770   9.509   8.265   5.616  1.6628  1.8815 -0.8760
  618SOL    HW2 5771   9.573   8.192   5.499 -0.3199 -0.9719 -0.3109
  619SOL     OW 5772   5.821   0.284   4.419 -0.4895 -0.9242  0.3980
  619SOL    HW1 5773   5.845   0.245   4.335  0.5324  0.7476 -0.1317
  619SOL    HW2 5774   5.904   0.313   4.457 -1.1369  0.2280  0.9992
  620SOL     OW 5775   6.062   9.436   4.117 -0.1094 -0.1466 -0.4284
  620SOL    HW1 5776   6.077   9.490   4.194  0.1424 -1.2215  0.2976
  620SOL    HW2 5777   6.134   9.458   4.057 -0.1165  0.4481 -0.2173
  621SOL     OW 5778   7.805   2.261   9.431 -0.0419 -0.1393 -0.1856
  621SOL    HW1 5779   7.770   2.246   9.519 -0.4759  1.9364  0.0504
  621SOL    HW2 5780   7.900   2.268   9.443  0.0090 -0.9230 -0.0713
  622SOL     OW 5781   4.942   1.493   9.819  0.2548  0.4215  0.0347
  622SOL    HW1 5782   4.979   1.550   9.752 -1.5243  0.2033 -1.2157
  622SOL    HW2 5783   4.884   1.550   9.870 -0.3774  0.0549 -0.2647
  623SOL     OW 5784   9.642   7.403   0.656 -0.0813  0.4021  0.1230
  623SOL    HW1 5785   9.651   7.334   0.722  1.3565  0.4821  0.0486
  623SOL    HW2 5786   9.571   7.458   0.688  0.4203  0.2922  1.4880
  624SOL     OW 5787   7.173   8.489   0.135 -0.2461  0.7682  0.3923
  624SOL    HW1 5788   7.218   8.493   0.220 -0.0170  0.3896  0.2913
  624SOL    HW2 5789   7.229   8.432   0.082 -1.9270 -1.5563  0.9408
  625SOL     OW 5790   1.578   4.223   0.531  0.2900  0.3376 -0.1817
  625SOL    HW1 5791   1.577   4.211   0.436  2.1538  1.8029 -0.4384
  625SOL    HW2 5792   1.617   4.142   0.565  0.1309  0.0367 -0.7123
  626SOL     OW 5793   1.572   3.344   0.125  0.2897 -0.0568 -0.0406
  626SOL    HW1 5794   1.547   3.387   0.044  1.3110 -0.5251 -0.6362
  626SOL    HW2 5795   1.663   3.372   0.140  0.5603 -1.0165  0.2093
  627SOL     OW 5796  10.164   2.193   8.038 -0.1335  0.6410 -0.4330
  627SOL    HW1 5797  10.254   2.182   8.006 -0.2596  1.7084 -1.1745
  627SOL    HW2 5798  10.166   2.275   8.086 -0.3045 -0.2173  1.1014
  628SOL     OW 5799   9.943   2.158   3.903  0.2431 -0.0699 -0.4208
  628SOL    HW1 5800   9.992   2.174   3.984  0.2768 -0.9102 -0.2667
  628SOL    HW2 5801   9.886   2.234   3.895  0.5409  0.2259  0.1725
  629SOL     OW 5802   8.157   8.252   3.823 -0.3774  0.3857  0.0041
  629SOL    HW1 5803   8.164   8.222   3.732  0.2427 -0.5367  0.3303
  629SOL    HW2 5804   8.203   8.336   3.824 -2.0396  1.3630 -0.9111
  630SOL     OW 5805   0.737   1.169   9.909 -0.4949  0.1839 -0.4658
  630SOL    HW1 5806   0.714   1.116   9.985  0.1426  3.9795  2.6531
  630SOL    HW2 5807   0.654   1.185   9.864 -1.0545 -1.1860  0.0458
  631SOL     OW 5808   7.446   3.148   0.121  0.4137 -0.2032 -0.0807
  631SOL    HW1 5809   7.389   3.077   0.091  1.2225 -0.6135 -0.6839
  631SOL    HW2 5810   7.422   3.223   0.066  1.4681 -0.7876 -1.3949
  632SOL     OW 5811   2.515   0.553   1.714 -0.0284  0.0084 -0.1368
  632SOL    HW1 5812   2.540   0.463   1.690  1.7067 -0.1542  2.0032
  632SOL    HW2 5813   2.593   0.590   1.753 -1.2007  1.9432  0.5017
  633SOL     OW 5814   6.106   3.727   9.718 -0.3673  0.0650 -0.2952
  633SOL    HW1 5815   6.167   3.795   9.748  0.0815  0.3931 -1.8648
  633SOL    HW2 5816   6.162   3.654   9.693 -0.5991  0.2536 -1.4534
  634SOL     OW 5817   0.965   7.850   4.294  0.2101  0.3499  0.0126
  634SOL    HW1 5818   0.896   7.826   4.233 -0.9634 -0.6081  1.6546
  634SOL    HW2 5819   1.037   7.790   4.274 -0.6397 -0.8180  0.3997
  635SOL     OW 5820   5.008   9.339   8.334 -0.1817  0.1118 -0.0306
  635SOL    HW1 5821   5.044   9.306   8.252 -0.2490 -1.2448  0.4691
  635SOL    HW2 5822   5.004   9.434   8.321 -0.5089 -0.0947 -1.7195
  636SOL     OW 5823   0.593   9.116   4.035  0.2945 -0.1511 -0.0422
  636SOL    HW1 5824   0.579   9.207   4.012 -0.5782 -0.2408  0.1067
  636SOL    HW2 5825   0.505   9.081   4.052  0.4533 -1.4141 -1.5513
  637SOL     OW 5826   5.188   7.534   7.647  0.4759  0.5152  0.5040
  637SOL    HW1 5827   5.142   7.600   7.699  0.9938 -0.0082  1.6653
  637SOL    HW2 5828   5.201   7.576   7.562  1.8310  2.4115  1.5404
  638SOL     OW 5829   7.814   1.894   8.801  1.2772  0.1932  0.0421
  638SOL    HW1 5830   7.885   1.953   8.778  0.8077  0.6001 -0.3806
  638SOL    HW2 5831   7.738   1.928   8.754  0.2401  1.1278  2.2440
  639SOL     OW 5832   7.805   8.071   3.392  0.6921 -0.1448 -0.1906
  639SOL    HW1 5833   7.872   8.116   3.340  0.1224  1.2332  0.2175
  639SOL    HW2 5834   7.798   8.123   3.472  0.3323 -1.2522  0.5236
  640SOL     OW 5835   8.548   1.798   1.083 -0.2568  0.5045 -0.0139
  640SOL    HW1 5836   8.638   1.770   1.068  0.0268  0.0480  2.2396
  640SOL    HW2 5837   8.521   1.836   0.999  1.9698  0.5445 -0.7916
  641SOL     OW 5838   3.912   5.744   0.079  0.4563 -0.1521  0.6459
  641SOL    HW1 5839   3.973   5.671   0.087  0.2387 -0.1817  2.7134
  641SOL    HW2 5840   3.840   5.709   0.027  2.5441  0.2023 -2.7376
  642SOL     OW 5841   6.637   5.482   6.140 -0.3483 -0.3329 -0.1483
  642SOL    HW1 5842   6.621   5.525   6.224 -0.0881  1.0847 -0.8059
  642SOL    HW2 5843   6.708   5.531   6.100 -1.3048 -0.1756 -1.7580
  643SOL     OW 5844   3.434   0.525   3.483  0.2202 -0.8788 -0.4920
  643SOL    HW1 5845   3.411   0.595   3.422 -1.5348  0.7673  1.8835
  643SOL    HW2 5846   3.493   0.566   3.546 -1.8754 -1.0371  1.7192
  644SOL     OW 5847   0.087   2.420   7.117  0.2489 -0.3884 -0.6632
  644SOL    HW1 5848   0.034   2.483   7.068  0.6081  1.0869  0.7805
  644SOL    HW2 5849   0.177   2.446   7.099  0.4497 -1.2366 -0.9625
  645SOL     OW 5850   1.158   0.887   0.640 -0.4091 -0.1762  0.1908
  645SOL    HW1 5851   1.089   0.908   0.702 -1.2578  0.2854 -0.8750
  645SOL    HW2 5852   1.136   0.937   0.561  1.5198  0.5073  0.0492
  646SOL     OW 5853   0.902   0.244   4.160  0.6000  0.2861 -0.1073
  646SOL    HW1 5854   0.883   0.334   4.133 -0.0342 -0.6972 -3.4167
  646SOL    HW2 5855   0.834   0.192   4.117  1.5786 -1.8833  0.8641
  647SOL     OW 5856   3.367   3.934   3.531 -1.0378 -0.3935  0.2741
  647SOL    HW1 5857   3.320   4.011   3.498 -0.6076  0.1422  0.8609
  647SOL    HW2 5858   3.433   3.971   3.590 -0.1666 -1.1573 -0.2003
  648SOL     OW 5859   1.485   8.453   0.190  0.0140  0.3834 -0.1871
  648SOL    HW1 5860   1.552   8.472   0.256 -0.7641  1.9519  0.2025
  648SOL    HW2 5861   1.442   8.373   0.222  0.6660  0.2434  0.3677
  649SOL     OW 5862   5.173   4.261   8.777 -0.0949  0.0634 -0.4917
  649SOL    HW1 5863   5.200   4.313   8.853 -0.7087  1.8532 -1.4327
  649SOL    HW2 5864   5.256   4.240   8.733  0.1344  0.8631 -0.4656
  650SOL     OW 5865   7.161   4.453   5.926  0.2915 -0.9197  0.3029
  650SOL    HW1 5866   7.072   4.464   5.893  0.0090 -0.6673  1.1193
  650SOL    HW2 5867   7.213   4.515   5.876  0.0418 -1.1975 -0.3066
  651SOL     OW 5868   1.666   5.760   0.978 -0.5922  0.0475  0.1440
  651SOL    HW1 5869   1.711   5.761   1.063 -0.1055  1.4613 -0.0950
  651SOL    HW2 5870   1.656   5.852   0.955 -0.4693 -0.3023 -1.4674
  652SOL     OW 5871   5.180   2.642   5.796  0.4698  0.6262 -0.2973
  652SOL    HW1 5872   5.219   2.564   5.834  1.0299  0.9707 -0.1579
  652SOL    HW2 5873   5.166   2.701   5.870 -3.1653 -0.5990  0.2164
  653SOL     OW 5874   5.914   2.421   5.801  0.2359 -0.1648 -0.2463
  653SOL    HW1 5875   5.863   2.341   5.818  0.1132 -0.0439 -0.0461
  653SOL    HW2 5876   5.964   2.435   5.882  0.8573 -0.4790 -0.5627
  654SOL     OW 5877   4.990   2.414  10.194  0.5450 -0.2590 -0.3964
  654SOL    HW1 5878   5.055   2.449  10.256 -1.2897 -0.3148  1.6791
  654SOL    HW2 5879   4.991   2.319  10.210 -1.9246 -0.0246  1.7361
  655SOL     OW 5880   2.763   5.300   2.521  0.0302 -0.3871 -0.5707
  655SOL    HW1 5881   2.848   5.342   2.503  0.5435 -0.4719  1.4277
  655SOL    HW2 5882   2.730   5.345   2.598 -0.4997 -2.1158  0.2515
  656SOL     OW 5883   3.104   9.387   7.106  0.0377 -0.5052  0.1053
  656SOL    HW1 5884   3.049   9.444   7.052 -0.5595 -0.7073  0.4921
  656SOL    HW2 5885   3.068   9.395   7.194  1.4593  0.4171  0.6466
  657SOL     OW 5886   4.510   3.409   2.165 -0.1100  0.1645 -0.0658
  657SOL    HW1 5887   4.571   3.374   2.100  0.1669 -0.1194  0.3417
  657SOL    HW2 5888   4.526   3.503   2.166 -0.0451  0.1582 -0.3302
  658SOL     OW 5889   9.979   6.683   7.223  0.3099 -0.0175 -0.9529
  658SOL    HW1 5890   9.972   6.702   7.316  0.3640 -0.3861 -0.8694
  658SOL    HW2 5891  10.056   6.626   7.216 -0.0586 -0.5016 -1.1379
  659SOL     OW 5892   4.223   4.707   4.719 -0.1334 -0.6255  0.4547
  659SOL    HW1 5893   4.198   4.791   4.679  0.2480 -0.1437  1.2065
  659SOL    HW2 5894   4.177   4.705   4.803  2.0151  0.1455  1.7384
  660SOL     OW 5895   8.124   1.989   6.055 -0.3654  0.1502 -0.1320
  660SOL    HW1 5896   8.110   1.902   6.019  0.2841 -0.0997  0.1854
  660SOL    HW2 5897   8.145   1.973   6.147 -2.2717  0.7897  0.4504
  661SOL     OW 5898   2.263   0.730   7.733 -0.0794  0.0780  0.2899
  661SOL    HW1 5899   2.200   0.715   7.803 -2.0309  0.1087 -1.3658
  661SOL    HW2 5900   2.243   0.664   7.667 -1.4230  2.7721 -2.2381
  662SOL     OW 5901  10.069   8.537   7.977  0.0502 -0.6476  0.2843
  662SOL    HW1 5902  10.119   8.617   7.962 -0.1962 -0.6797 -0.8229
  662SOL    HW2 5903  10.012   8.557   8.051 -1.4636  0.9290 -1.2283
  663SOL     OW 5904   7.022   7.006   7.095  0.1151  0.1374 -0.2405
  663SOL    HW1 5905   6.978   6.978   7.175  0.8427  0.7467  0.3906
  663SOL    HW2 5906   6.953   7.006   7.028 -0.2092 -1.8203  0.0083
  664SOL     OW 5907   6.564   9.201   6.232 -0.1101 -0.1644 -0.2339
  664SOL    HW1 5908   6.648   9.164   6.259 -0.0237  0.7939  0.8583
  664SOL    HW2 5909   6.574   9.217   6.138  0.5939 -0.8902 -0.2986
  665SOL     OW 5910   5.944   3.586   4.103 -0.1531  0.4600 -0.6120
  665SOL    HW1 5911   5.971   3.498   4.078 -0.5040  0.3335 -0.5565
  665SOL    HW2 5912   5.859   3.598   4.061 -1.4209 -0.2815  1.5537
  666SOL     OW 5913   4.006   6.353   4.211 -0.0754  0.5766  0.2751
  666SOL    HW1 5914   4.011   6.430   4.267  0.4315  1.9721 -1.6187
  666SOL    HW2 5915   3.962   6.287   4.266 -0.3342  2.1062  2.0089
  667SOL     OW 5916   7.681   7.340   3.229  0.0868  0.2574 -0.0120
  667SOL    HW1 5917   7.770   7.312   3.206 -0.8907 -0.7662 -3.0301
  667SOL    HW2 5918   7.680   7.434   3.210  0.8359  0.5695  1.3396
  668SOL     OW 5919   3.747   6.093  10.196  0.4004 -0.0663 -0.0358
  668SOL    HW1 5920   3.731   6.017  10.140  0.8739  1.0778 -1.7962
  668SOL    HW2 5921   3.660   6.133  10.207  0.0348 -1.1598  1.4397
  669SOL     OW 5922   5.179   6.445   8.225 -0.2227  0.3207  0.1917
  669SOL    HW1 5923   5.157   6.352   8.234  0.4454 -0.1311 -2.0973
  669SOL    HW2 5924   5.107   6.482   8.174  0.9217  0.3350 -1.5017
  670SOL     OW 5925   8.668   7.102   9.448 -0.0299  0.2278  0.0716
  670SOL    HW1 5926   8.752   7.109   9.403  0.3478 -1.2664  0.4946
  670SOL    HW2 5927   8.629   7.021   9.413 -1.7947  1.4226 -0.9152
  671SOL     OW 5928   1.858   7.969   8.143  0.1040 -0.0349  0.0334
  671SOL    HW1 5929   1.925   8.036   8.155 -1.1489  0.9230  2.3791
  671SOL    HW2 5930   1.906   7.886   8.144  1.4324  0.7044 -0.4640
  672SOL     OW 5931   4.219   7.301   5.905 -0.1356  0.5988 -0.8954
  672SOL    HW1 5932   4.213   7.261   5.992 -1.5455  1.7346 -0.4413
  672SOL    HW2 5933   4.129   7.303   5.873  0.5871 -2.0763 -3.5004
  673SOL     OW 5934   2.146   7.324   2.483  0.5450 -0.6171  0.8346
  673SOL    HW1 5935   2.220   7.351   2.430  0.8773  1.4875  2.2732
  673SOL    HW2 5936   2.104   7.405   2.510 -1.1219 -1.6999  1.6852
  674SOL     OW 5937   7.938   7.570   2.432  0.3633  0.2416  0.0891
  674SOL    HW1 5938   8.003   7.522   2.380 -0.0532 -0.7034  0.4219
  674SOL    HW2 5939   7.954   7.541   2.522  0.5919  1.3068  0.4086
  675SOL     OW 5940   6.364   1.687   5.301  0.3935 -0.1620  0.2780
  675SOL    HW1 5941   6.396   1.754   5.361 -1.0714  0.9257 -0.1115
  675SOL    HW2 5942   6.388   1.604   5.343  1.3270  0.5791  1.2703
  676SOL     OW 5943   5.245   7.038   8.373  0.2062 -0.0557 -0.1338
  676SOL    HW1 5944   5.219   7.041   8.465  2.3492 -0.6939  0.5659
  676SOL    HW2 5945   5.180   7.090   8.327 -0.1779  1.3875  1.9338
  677SOL     OW 5946   0.450   4.906  10.192  0.3822 -0.1780 -0.7390
  677SOL    HW1 5947   0.376   4.942  10.143 -0.4802  1.3970  1.5579
  677SOL    HW2 5948   0.527   4.940  10.146 -0.3879  3.9129  0.6069
  678SOL     OW 5949   6.532   0.437   6.332  0.3875  0.8712 -1.0925
  678SOL    HW1 5950   6.601   0.496   6.301  1.8033 -0.1723 -0.0898
  678SOL    HW2 5951   6.554   0.421   6.424 -1.8252  1.3157 -0.4320
  679SOL     OW 5952   9.126  10.177   6.035 -0.5939  0.5647  0.4267
  679SOL    HW1 5953   9.150  10.266   6.010 -0.3456  0.4052  0.0925
  679SOL    HW2 5954   9.175  10.121   5.975  0.1421  0.1735  1.3527
  680SOL     OW 5955   4.279   4.233   7.268  0.7239 -0.1681  0.4730
  680SOL    HW1 5956   4.246   4.150   7.301 -0.6214  0.1886  0.0985
  680SOL    HW2 5957   4.270   4.227   7.173  0.0147  0.6171  0.4715
  681SOL     OW 5958   7.618   4.508   5.809  0.3108 -0.2651  0.2801
  681SOL    HW1 5959   7.578   4.542   5.889 -1.5726  0.1124 -0.7720
  681SOL    HW2 5960   7.632   4.585   5.754  1.3988 -0.5480  0.1418
  682SOL     OW 5961   3.907   7.295   3.421  0.3474  0.0404  0.1567
  682SOL    HW1 5962   3.924   7.201   3.426  0.0350 -0.1240 -1.2992
  682SOL    HW2 5963   3.994   7.334   3.407  0.2906 -0.2251 -1.0765
  683SOL     OW 5964   1.161   9.634   7.682  0.0328 -0.1041  0.0075
  683SOL    HW1 5965   1.180   9.654   7.590  0.7237 -1.0126 -0.0599
  683SOL    HW2 5966   1.072   9.598   7.680 -0.7060  1.6561 -0.0348
  684SOL     OW 5967   4.887   0.207   1.206 -0.3437 -0.0502  0.1016
  684SOL    HW1 5968   4.956   0.142   1.191 -1.2289 -1.0713  0.3869
  684SOL    HW2 5969   4.839   0.174   1.282 -0.3340  1.3506  0.7406
  685SOL     OW 5970   8.805   2.971   5.397  0.0871 -0.2208 -0.0044
  685SOL    HW1 5971   8.848   2.970   5.312  2.1592 -0.1088  0.9888
  685SOL    HW2 5972   8.865   3.018   5.454 -1.4983  0.1752  1.4301
  686SOL     OW 5973   8.122   8.427   0.654 -0.2835  0.7083 -0.0606
  686SOL    HW1 5974   8.158   8.470   0.577 -1.3593  1.4668 -0.1602
  686SOL    HW2 5975   8.027   8.437   0.645 -0.5666 -1.2687  0.1506
  687SOL     OW 5976   5.541   8.946   6.970  0.2997 -0.3099  0.0928
  687SOL    HW1 5977   5.536   8.873   6.908  0.4885 -0.4474  0.2370
  687SOL    HW2 5978   5.492   9.017   6.928 -0.3658 -0.6977  0.1903
  688SOL     OW 5979   5.966   6.957   5.139 -0.2611 -0.3069  0.0885
  688SOL    HW1 5980   5.949   6.992   5.227  0.5508  0.6987 -0.1264
  688SOL    HW2 5981   5.885   6.912   5.115 -1.1060  0.8052  0.7109
  689SOL     OW 5982   8.881   5.843   0.267 -0.1533  0.2615 -0.3954
  689SOL    HW1 5983   8.843   5.782   0.203 -0.8058  1.3354 -1.0766
  689SOL    HW2 5984   8.915   5.915   0.213 -0.8699  1.2747  0.4721
  690SOL     OW 5985   6.436   4.280   0.154 -0.6809  0.0923  0.2800
  690SOL    HW1 5986   6.448   4.375   0.153 -1.1667  0.1536 -0.0380
  690SOL    HW2 5987   6.341   4.268   0.157 -0.6133 -0.3847  0.5579
  691SOL     OW 5988   5.433   3.614   3.584 -0.0470 -0.3731  0.2681
  691SOL    HW1 5989   5.512   3.583   3.628 -0.1041  2.0315  2.2867
  691SOL    HW2 5990   5.361   3.573   3.632 -0.0542  0.6508  1.1907
  692SOL     OW 5991   4.662   8.070   7.609 -0.3592  0.6587 -0.1948
  692SOL    HW1 5992   4.733   8.116   7.563 -0.6263  0.8911 -0.3748
  692SOL    HW2 5993   4.621   8.136   7.664 -1.2651  0.8398 -1.0664
  693SOL     OW 5994  10.124   4.679   5.275 -0.1456  0.2079 -0.5070
  693SOL    HW1 5995  10.083   4.684   5.361 -0.1823 -1.0808 -0.4401
  693SOL    HW2 5996  10.209   4.639   5.291 -0.1429 -0.0172 -1.0692
  694SOL     OW 5997   0.056   7.293   7.020 -0.1813  0.0718 -0.4527
  694SOL    HW1 5998   0.021   7.210   7.051  1.0434 -0.2222  0.1998
  694SOL    HW2 5999   0.007   7.311   6.939 -1.7367 -0.3556  0.3476
  695SOL     OW 6000   1.990   2.183   5.081 -0.4896  0.0599 -0.2808
  695SOL    HW1 6001   1.926   2.220   5.021 -1.2154  2.2083  1.6623
  695SOL    HW2 6002   1.937   2.140   5.149  0.1794 -0.0060  0.2092
  696SOL     OW 6003   4.542   8.837   7.824 -0.0700 -0.1561  0.9411
  696SOL    HW1 6004   4.628   8.795   7.816  0.7501  1.6183 -0.2875
  696SOL    HW2 6005   4.547   8.887   7.905 -0.6125 -1.3959  1.7740
  697SOL     OW 6006   9.802   1.779   4.031  0.0870  0.3100  0.3734
  697SOL    HW1 6007   9.798   1.797   4.125 -0.0679 -0.7350  0.5872
  697SOL    HW2 6008   9.711   1.777   4.003 -0.2478 -3.6342  1.1308
  698SOL     OW 6009   8.631   4.882   6.428  0.4263  0.2207  0.4174
  698SOL    HW1 6010   8.717   4.898   6.468  0.6888  1.2799 -0.5078
  698SOL    HW2 6011   8.605   4.796   6.461  1.9208 -0.2063  0.5831
  699SOL     OW 6012   4.397   8.667   3.670  0.0476 -0.3844  0.6230
  699SOL    HW1 6013   4.479   8.643   3.714 -0.3521 -2.0006  0.5523
  699SOL    HW2 6014   4.352   8.723   3.733  0.4599 -0.8745  1.3740
  700SOL     OW 6015   6.063   9.928   3.689  0.4229 -0.5723  0.4916
  700SOL    HW1 6016   5.976   9.927   3.648 -0.2690 -0.0930  1.8964
  700SOL    HW2 6017   6.120   9.888   3.623 -1.0854 -2.1733  0.0725
  701SOL     OW 6018   8.956   3.542   8.939 -0.7803  0.3842  0.3485
  701SOL    HW1 6019   8.896   3.535   9.013 -0.4090  1.1936  0.7464
  701SOL    HW2 6020   8.904   3.516   8.863 -1.0457 -0.8982  0.9342
  702SOL     OW 6021   3.131   2.801   0.452  0.8631  0.2504  0.1389
  702SOL    HW1 6022   3.125   2.709   0.478 -0.2179  0.4077  0.5040
  702SOL    HW2 6023   3.195   2.801   0.381 -0.8998 -1.1763 -1.5784
  703SOL     OW 6024   5.641   9.567   1.481 -0.3237 -0.1905  0.3803
  703SOL    HW1 6025   5.717   9.536   1.431  0.5791 -1.2912  2.3086
  703SOL    HW2 6026   5.593   9.488   1.502 -0.1843  0.1230  1.9826
  704SOL     OW 6027   6.951   3.337   7.164 -0.0063 -0.1117 -0.5394
  704SOL    HW1 6028   6.929   3.384   7.244  1.0842 -0.8317  0.2105
  704SOL    HW2 6029   6.941   3.402   7.094 -2.3643  0.1649 -0.0431
  705SOL     OW 6030   4.569   2.819   2.828 -0.4998 -0.2212  0.3205
  705SOL    HW1 6031   4.643   2.869   2.794 -0.2283  0.4520  1.7999
  705SOL    HW2 6032   4.494   2.878   2.818 -0.4958 -0.1869  0.4857
  706SOL     OW 6033   2.992   6.388   0.140  0.2352  0.3579 -0.1154
  706SOL    HW1 6034   3.029   6.308   0.177  1.1592 -0.5683 -2.8128
  706SOL    HW2 6035   2.912   6.360   0.096 -0.1786  1.2003  0.0739
  707SOL     OW 6036   7.861   5.260   4.682 -0.3594  0.1478  0.1724
  707SOL    HW1 6037   7.950   5.296   4.675 -0.4412  0.5197  0.9848
  707SOL    HW2 6038   7.857   5.224   4.770 -1.9344  2.7230  1.2845
  708SOL     OW 6039   4.980   5.134   1.749  0.4667  0.3821  0.0179
  708SOL    HW1 6040   4.969   5.089   1.832  0.2820  0.2843 -0.0611
  708SOL    HW2 6041   5.027   5.215   1.772 -0.8128  1.0369  0.4224
  709SOL     OW 6042   4.035   1.274   7.675  0.5878  0.0696 -0.1421
  709SOL    HW1 6043   4.049   1.335   7.748 -2.9704 -0.9478  1.5973
  709SOL    HW2 6044   3.998   1.327   7.605  0.1305  0.3946  0.3382
  710SOL     OW 6045   9.047  10.009   6.686 -0.2958 -0.0490  0.2314
  710SOL    HW1 6046   9.117   9.950   6.712 -0.4939 -0.5137 -0.2607
  710SOL    HW2 6047   9.067  10.091   6.730  0.8705 -0.0055 -0.3477
  711SOL     OW 6048   6.022   7.070   2.954  0.7105 -0.3118  0.5006
  711SOL    HW1 6049   5.999   7.096   2.865 -1.7755  0.1266  1.1983
  711SOL    HW2 6050   6.025   6.974   2.950  1.6073 -0.2668 -0.2483
  712SOL     OW 6051   6.959   0.174   8.464  0.1349  0.2119 -0.0663
  712SOL    HW1 6052   6.944   0.084   8.433 -0.2613  0.6617 -1.2213
  712SOL    HW2 6053   7.009   0.215   8.394  0.8262  0.7414  0.7197
  713SOL     OW 6054   2.300   3.464   6.914 -0.1465  0.3583 -0.0314
  713SOL    HW1 6055   2.306   3.457   6.819 -0.7374 -0.2632 -0.0345
  713SOL    HW2 6056   2.360   3.396   6.946 -0.5433  0.0273  0.0230
  714SOL     OW 6057  10.046   9.224   4.985 -0.2220 -0.0296  0.0901
  714SOL    HW1 6058  10.075   9.167   4.914  0.8807  0.3684  0.2092
  714SOL    HW2 6059  10.126   9.263   5.019 -0.9198  1.3785  0.2055
  715SOL     OW 6060   6.962   1.619   0.832  0.2967  0.4207  0.3537
  715SOL    HW1 6061   6.929   1.652   0.749  2.0661  1.3635 -0.0166
  715SOL    HW2 6062   7.055   1.638   0.830  0.2221  1.4360  3.0115
  716SOL     OW 6063   5.585   3.645   0.351  0.4895 -0.0992  0.3647
  716SOL    HW1 6064   5.619   3.693   0.426  0.7287 -2.4560  1.8845
  716SOL    HW2 6065   5.655   3.584   0.329 -0.0681 -0.2739 -0.9926
  717SOL     OW 6066   2.240   9.895   2.067  0.7070  0.1824 -0.2267
  717SOL    HW1 6067   2.253   9.986   2.095  0.3118 -0.1351  1.0617
  717SOL    HW2 6068   2.196   9.853   2.141 -0.9457 -0.5777 -1.5684
  718SOL     OW 6069   0.062   1.354   2.994  0.2022 -0.6632  0.3148
  718SOL    HW1 6070  -0.034   1.357   2.993  0.1938 -0.9728 -0.5037
  718SOL    HW2 6071   0.086   1.383   3.082 -0.6483 -0.7888  0.5968
  719SOL     OW 6072   3.572   0.059   5.697 -0.4902 -0.3994  0.2372
  719SOL    HW1 6073   3.543  -0.032   5.689 -0.8086 -0.2639 -0.2305
  719SOL    HW2 6074   3.495   0.106   5.729 -0.2105 -0.3578  0.8520
  720SOL     OW 6075   2.487   0.892   2.666 -0.4530 -0.4048 -0.0743
  720SOL    HW1 6076   2.417   0.867   2.726 -1.1265  0.3765 -0.5202
  720SOL    HW2 6077   2.527   0.809   2.640 -0.7738 -0.8091  0.7057
  721SOL     OW 6078   6.140   5.979   9.531  0.2249  0.0502  0.4653
  721SOL    HW1 6079   6.055   5.945   9.558 -0.2020  1.8426  1.4916
  721SOL    HW2 6080   6.201   5.949   9.598  0.6903 -2.1400 -0.8133
  722SOL     OW 6081   1.775   8.763   6.889 -0.0801  0.1862 -0.2794
  722SOL    HW1 6082   1.843   8.775   6.954 -0.2731 -1.1179  0.2080
  722SOL    HW2 6083   1.760   8.668   6.887 -3.7759  0.5454  1.6361
  723SOL     OW 6084   5.876   7.966   6.563 -0.4139  0.0257  0.0014
  723SOL    HW1 6085   5.897   7.989   6.653 -0.5715  0.7385 -0.1371
  723SOL    HW2 6086   5.837   7.879   6.569  1.6478 -0.9197  0.3643
  724SOL     OW 6087   5.499   5.682   6.284 -0.7274  0.6167 -0.1999
  724SOL    HW1 6088   5.576   5.686   6.340 -0.2756  0.5663 -0.8101
  724SOL    HW2 6089   5.514   5.748   6.217 -0.5601 -0.3574 -1.1378
  725SOL     OW 6090   7.280   4.078   2.437  0.4793 -0.5561 -0.4133
  725SOL    HW1 6091   7.208   4.016   2.452  0.5268 -0.0994  2.0597
  725SOL    HW2 6092   7.242   4.144   2.378 -0.5035 -1.3646 -0.7107
  726SOL     OW 6093   3.929   6.122   8.670  0.2520  0.1763 -0.1345
  726SOL    HW1 6094   3.836   6.122   8.648 -0.0855  0.1351  1.1673
  726SOL    HW2 6095   3.937   6.060   8.743  1.2623  0.3103 -0.1067
  727SOL     OW 6096   1.341   2.087   8.444 -0.7903  0.7505 -0.2499
  727SOL    HW1 6097   1.252   2.115   8.420 -0.2798  0.9263 -2.0236
  727SOL    HW2 6098   1.344   1.994   8.424 -1.4991 -0.0309  2.7503
  728SOL     OW 6099   9.807   1.515   6.003 -0.2355  0.1348  0.2273
  728SOL    HW1 6100   9.768   1.443   5.953  0.0997 -1.1733  1.7758
  728SOL    HW2 6101   9.865   1.559   5.940 -1.0269 -0.4599 -0.9551
  729SOL     OW 6102   9.793   6.124   4.769 -0.2653 -0.3798  0.6267
  729SOL    HW1 6103   9.706   6.132   4.808  0.4002 -2.5525  2.7760
  729SOL    HW2 6104   9.810   6.030   4.767  2.2081  0.0083  0.6352
  730SOL     OW 6105   0.120   7.420   5.785 -0.2532  0.1317  0.1019
  730SOL    HW1 6106   0.191   7.388   5.841 -0.0515  0.5320  0.0821
  730SOL    HW2 6107   0.059   7.462   5.846 -0.1589  0.3456  0.0485
  731SOL     OW 6108   7.393   0.465   7.492  0.1769  0.4400  0.1001
  731SOL    HW1 6109   7.419   0.556   7.505 -0.4212  0.6223  0.0748
  731SOL    HW2 6110   7.393   0.454   7.397  0.7401  0.2660  0.1214
  732SOL     OW 6111   3.883   1.386   0.937 -0.4432  0.4073 -0.1014
  732SOL    HW1 6112   3.925   1.394   1.022  1.4903  1.6023 -1.1172
  732SOL    HW2 6113   3.853   1.295   0.934  2.2193 -0.5709  0.6404
  733SOL     OW 6114   4.986   3.647   5.920  0.2660  0.2381 -0.1021
  733SOL    HW1 6115   5.073   3.661   5.958  0.2187 -2.6056  1.2984
  733SOL    HW2 6116   5.002   3.597   5.840 -0.0530 -0.0208 -0.0076
  734SOL     OW 6117   6.810   1.143   1.338  0.5783  0.0963  0.1165
  734SOL    HW1 6118   6.807   1.100   1.253 -0.0573  0.3546  0.0040
  734SOL    HW2 6119   6.718   1.150   1.365  0.6327  1.6934 -0.0309
  735SOL     OW 6120   9.601   7.845   2.432  0.4772 -0.4290 -0.7798
  735SOL    HW1 6121   9.681   7.792   2.441  0.5307 -0.2544 -0.2276
  735SOL    HW2 6122   9.615   7.894   2.351  1.7378  0.9637  0.2311
  736SOL     OW 6123   2.330   7.407   7.410  0.5961  0.3380  0.5468
  736SOL    HW1 6124   2.387   7.331   7.397  0.4978  0.6179 -2.2713
  736SOL    HW2 6125   2.385   7.482   7.386  0.4591  1.1218  2.5458
  737SOL     OW 6126   4.807   5.600   0.820 -0.3383  0.3499  0.3886
  737SOL    HW1 6127   4.730   5.619   0.766 -0.1403 -1.5788 -0.6679
  737SOL    HW2 6128   4.832   5.685   0.856 -0.9898  1.6043 -1.9001
  738SOL     OW 6129   5.428   4.518   3.181  0.0404  0.1003 -0.3007
  738SOL    HW1 6130   5.458   4.524   3.272  0.4091  0.4483 -0.4423
  738SOL    HW2 6131   5.508   4.511   3.130  0.0380  3.0132 -0.8541
  739SOL     OW 6132   5.241   3.433   8.723 -0.5129  0.1834 -0.4488
  739SOL    HW1 6133   5.169   3.370   8.732 -0.7347  0.6015  1.0578
  739SOL    HW2 6134   5.294   3.419   8.801  0.7278  0.2990 -1.2557
  740SOL     OW 6135   5.219   4.919   2.825 -0.4514 -0.1816 -0.1841
  740SOL    HW1 6136   5.199   4.973   2.901  0.7773  1.8132 -1.1904
  740SOL    HW2 6137   5.166   4.956   2.754  2.2103  1.4705 -1.4930
  741SOL     OW 6138   1.160   3.908   1.316 -0.3025 -0.4993  0.1268
  741SOL    HW1 6139   1.160   3.872   1.404  2.4166 -1.2377 -0.0629
  741SOL    HW2 6140   1.234   3.969   1.315 -3.3505  3.6762 -0.2272
  742SOL     OW 6141   5.340   9.141   2.726 -0.0260  0.3835 -0.2985
  742SOL    HW1 6142   5.412   9.172   2.780  0.0117 -0.8086  0.3569
  742SOL    HW2 6143   5.318   9.216   2.671  1.1019  1.0543  0.1270
  743SOL     OW 6144   5.951  10.058  10.122  0.4856 -0.1231 -0.3156
  743SOL    HW1 6145   5.896   9.981  10.110  0.6695 -0.4571  0.7968
  743SOL    HW2 6146   5.927  10.117  10.051  0.2295 -1.1414 -1.0953
  744SOL     OW 6147   3.305   3.253   6.115 -0.9052  0.0079 -0.7020
  744SOL    HW1 6148   3.371   3.184   6.121 -1.4347 -0.4288  0.2891
  744SOL    HW2 6149   3.336   3.323   6.172 -0.9971  0.0654 -0.7216
  745SOL     OW 6150   4.882   1.969   9.212 -0.1094 -0.6439 -0.3688
  745SOL    HW1 6151   4.975   1.951   9.201  0.2384 -0.4807  1.8603
  745SOL    HW2 6152   4.838   1.887   9.191  0.5694 -0.8385 -1.0228
  746SOL     OW 6153  10.138   2.591   9.799  0.1508 -0.1897 -0.0359
  746SOL    HW1 6154  10.158   2.510   9.845  0.1735 -0.6494 -0.8235
  746SOL    HW2 6155  10.045   2.605   9.814  0.4571  0.4876  1.3832
  747SOL     OW 6156   4.577   7.792   5.424 -0.2907  0.1822 -0.0998
  747SOL    HW1 6157   4.655   7.771   5.372 -0.4284 -1.5326  0.3289
  747SOL    HW2 6158   4.505   7.756   5.374 -0.6364  0.2513  0.3464
  748SOL     OW 6159   0.160   3.427   2.237  0.0307  0.6131  0.0066
  748SOL    HW1 6160   0.092   3.464   2.293  1.6591  1.3498  1.5807
  748SOL    HW2 6161   0.200   3.357   2.290  0.5280  0.1996 -0.8789
  749SOL     OW 6162   0.386   0.522   9.683 -0.3925  0.7655 -0.8239
  749SOL    HW1 6163   0.318   0.582   9.713 -0.8029  0.6356 -1.4750
  749SOL    HW2 6164   0.345   0.435   9.687  0.0525  0.5727 -0.3086
  750SOL     OW 6165   1.122   6.121   8.648  0.1781 -0.4074 -0.2793
  750SOL    HW1 6166   1.090   6.065   8.578 -0.6460 -0.9331  0.4934
  750SOL    HW2 6167   1.073   6.093   8.725  2.1108 -0.8307  0.8436
  751SOL     OW 6168   3.341   7.114   1.128  0.2522 -0.0528  0.0396
  751SOL    HW1 6169   3.340   7.019   1.134  0.0221 -0.1967 -1.6977
  751SOL    HW2 6170   3.271   7.143   1.187 -0.7365 -1.0647 -0.5969
  752SOL     OW 6171   2.029   5.929   0.560 -0.0311  0.1050  0.1115
  752SOL    HW1 6172   1.958   5.952   0.501  0.9037  1.2682 -0.6040
  752SOL    HW2 6173   1.986   5.906   0.642 -1.2689 -0.1587 -0.6002
  753SOL     OW 6174   8.529   0.302   3.425  0.0598  0.1948  0.5216
  753SOL    HW1 6175   8.503   0.382   3.379  1.8392  0.8235  0.5404
  753SOL    HW2 6176   8.511   0.320   3.517  0.8199  0.7562  0.5726
  754SOL     OW 6177   2.334   4.032   1.024 -0.7777 -0.2105  0.1445
  754SOL    HW1 6178   2.296   4.110   1.065  0.3598  0.3372  0.1918
  754SOL    HW2 6179   2.297   4.031   0.936  0.0283  1.0263 -0.2346
  755SOL     OW 6180   5.261   0.861   0.604 -0.3264  0.1756  0.2757
  755SOL    HW1 6181   5.208   0.940   0.592 -1.0092  0.1244  2.5095
  755SOL    HW2 6182   5.317   0.880   0.679 -0.3708 -1.3777  0.7423
  756SOL     OW 6183   7.923   3.101   8.972 -0.2642  0.4082 -0.1136
  756SOL    HW1 6184   7.858   3.122   9.038  1.1162  0.4610  1.2975
  756SOL    HW2 6185   7.925   3.006   8.968 -1.0849  0.4106 -0.8748
  757SOL     OW 6186   3.170   5.546   1.047 -0.1567 -0.3936  0.1655
  757SOL    HW1 6187   3.250   5.497   1.066 -0.3560 -0.2449  1.4650
  757SOL    HW2 6188   3.137   5.573   1.133 -2.3886 -1.6832 -0.2096
  758SOL     OW 6189   1.821   1.363   3.231 -0.5286  0.2006 -0.0552
  758SOL    HW1 6190   1.887   1.321   3.176  2.1111  2.6098  1.0140
  758SOL    HW2 6191   1.782   1.431   3.175  0.9572  1.5237  0.4254
  759SOL     OW 6192   4.550  10.137   1.646 -0.1209  0.2310 -0.0351
  759SOL    HW1 6193   4.620  10.075   1.625 -0.2981  0.0751 -0.1746
  759SOL    HW2 6194   4.578  10.178   1.727 -1.2195 -1.8955  1.5071
  760SOL     OW 6195   2.932   2.883   9.418 -0.7125 -0.5222  0.3734
  760SOL    HW1 6196   2.884   2.953   9.462  0.0089  0.0333  0.3029
  760SOL    HW2 6197   2.999   2.857   9.482  0.1090  0.0397 -0.2458
  761SOL     OW 6198   7.053   6.676   8.288 -0.0259 -0.1537 -0.4665
  761SOL    HW1 6199   7.009   6.601   8.248 -0.3231 -0.8100  1.0233
  761SOL    HW2 6200   7.078   6.731   8.214 -1.5277 -0.7709 -1.4921
  762SOL     OW 6201   0.442   7.801   9.747  0.7489 -0.0029 -0.0978
  762SOL    HW1 6202   0.491   7.719   9.749 -0.3184 -0.7059 -1.2598
  762SOL    HW2 6203   0.474   7.846   9.669 -1.0480 -0.9050 -1.4289
  763SOL     OW 6204   8.419  10.135   4.100 -0.5851 -0.4258  0.1301
  763SOL    HW1 6205   8.431  10.134   4.195  0.5027 -1.9392  0.0076
  763SOL    HW2 6206   8.348  10.198   4.086 -1.5056 -0.9357  2.0346
  764SOL     OW 6207   3.284   5.866   8.231 -0.2497 -0.1131  0.6172
  764SOL    HW1 6208   3.219   5.797   8.246  0.9402 -1.8202 -1.4874
  764SOL    HW2 6209   3.334   5.869   8.312 -1.8284  0.0132  1.6339
  765SOL     OW 6210   3.143   1.275   4.208 -0.0588  0.1771 -0.1819
  765SOL    HW1 6211   3.206   1.260   4.278 -2.1215  1.4974  2.1054
  765SOL    HW2 6212   3.189   1.334   4.147  1.4889 -0.3001  0.4684
  766SOL     OW 6213   8.732   0.142   1.467  0.1419  0.1735 -0.3243
  766SOL    HW1 6214   8.807   0.191   1.500  0.6019 -1.6478  1.5075
  766SOL    HW2 6215   8.686   0.112   1.545 -1.9288  0.3406 -1.3986
  767SOL     OW 6216   3.484   3.381   9.663 -0.2171  0.2290 -0.5307
  767SOL    HW1 6217   3.525   3.463   9.691  0.3219 -0.0926 -0.3745
  767SOL    HW2 6218   3.397   3.408   9.632 -0.2071  0.8034 -0.0861
  768SOL     OW 6219   6.215   0.895   4.304 -0.2338  0.1603  0.4157
  768SOL    HW1 6220   6.141   0.837   4.286  0.6354 -0.3211 -2.0290
  768SOL    HW2 6221   6.221   0.898   4.399 -2.6904 -0.6587  0.6624
  769SOL     OW 6222   5.942   5.333   4.735  0.4452  0.1058 -0.0067
  769SOL    HW1 6223   5.947   5.360   4.643 -0.6995  0.3547 -0.0082
  769SOL    HW2 6224   5.850   5.306   4.747  0.6331 -0.1131  1.0132
  770SOL     OW 6225   8.945   7.311   1.321 -0.0888 -0.0840  0.3565
  770SOL    HW1 6226   8.949   7.406   1.311 -2.3795  0.4572  3.2683
  770SOL    HW2 6227   8.872   7.283   1.266 -0.0544 -0.0068  0.2730
  771SOL     OW 6228   2.380   5.846   3.812  0.1555 -0.2345 -0.7322
  771SOL    HW1 6229   2.349   5.756   3.803 -0.2443 -0.0014 -1.8191
  771SOL    HW2 6230   2.455   5.851   3.754  0.2406  0.1108 -0.5937
  772SOL     OW 6231   1.862   0.124   1.179 -0.2474 -0.1227 -0.3152
  772SOL    HW1 6232   1.915   0.159   1.107 -0.6328 -0.0797 -0.5798
  772SOL    HW2 6233   1.845   0.033   1.154 -2.0792  0.4502 -1.2696
  773SOL     OW 6234   1.975   1.571   8.498  0.3247  0.2559 -0.1892
  773SOL    HW1 6235   2.067   1.577   8.472 -0.0199  0.4131 -1.4729
  773SOL    HW2 6236   1.935   1.513   8.433 -0.3045 -0.5699  0.9071
  774SOL     OW 6237   3.231   1.997   1.764 -0.0086  0.0217 -0.0106
  774SOL    HW1 6238   3.224   1.974   1.857  1.1022 -1.6101 -0.2876
  774SOL    HW2 6239   3.178   2.076   1.755 -0.0861  0.2591  2.0209
  775SOL     OW 6240  10.191   7.465   5.472 -0.5196 -0.6555  0.3409
  775SOL    HW1 6241  10.233   7.524   5.409 -0.6418  0.7846  1.5525
  775SOL    HW2 6242  10.260   7.444   5.535 -1.1787  0.5227  1.5070
  776SOL     OW 6243   6.358   2.075   3.551 -0.6815 -0.2129  0.1296
  776SOL    HW1 6244   6.421   2.024   3.500 -1.3338  0.2298 -1.1763
  776SOL    HW2 6245   6.341   2.023   3.629  0.7100 -0.6957  0.1368
  777SOL     OW 6246   5.436   3.039   4.448 -0.0961 -0.2274 -0.2190
  777SOL    HW1 6247   5.411   2.952   4.478  0.2838 -0.1653  0.2963
  777SOL    HW2 6248   5.355   3.090   4.453 -0.3874 -0.6210 -0.8115
  778SOL     OW 6249   3.556   3.655   9.714  0.2301 -0.6775  0.4129
  778SOL    HW1 6250   3.591   3.744   9.706 -0.5435 -0.4041 -0.0020
  778SOL    HW2 6251   3.577   3.628   9.804  0.3343 -0.0210  0.5846
  779SOL     OW 6252   7.929   1.030   7.742 -0.1082 -0.0582  0.1000
  779SOL    HW1 6253   7.952   1.073   7.824  0.4571 -0.2773  0.0575
  779SOL    HW2 6254   7.961   0.940   7.752  0.3874  0.0424 -0.5524
  780SOL     OW 6255   2.719   6.458   8.500 -0.3210  0.2253 -0.7608
  780SOL    HW1 6256   2.709   6.521   8.572  0.2236 -1.7328  1.1327
  780SOL    HW2 6257   2.809   6.471   8.469  0.8456 -1.4549  1.5943
  781SOL     OW 6258   8.764   0.192   8.734  0.0388 -0.5480 -0.4136
  781SOL    HW1 6259   8.705   0.259   8.700  0.1326 -0.0072  0.4584
  781SOL    HW2 6260   8.726   0.109   8.703  0.5800 -0.0697 -2.4803
  782SOL     OW 6261   7.772   6.795   3.275 -0.2635 -0.2281 -0.3234
  782SOL    HW1 6262   7.865   6.817   3.285 -0.1387 -1.2456  0.9821
  782SOL    HW2 6263   7.726   6.870   3.314 -0.0481  0.7171 -1.8072
  783SOL     OW 6264   2.720   7.933   5.354 -0.1182  0.3946  0.1560
  783SOL    HW1 6265   2.733   7.838   5.347 -0.5815  0.3827 -0.8057
  783SOL    HW2 6266   2.718   7.951   5.448  1.1688 -0.3690  0.3542
  784SOL     OW 6267   4.950   9.333   6.516 -0.2854 -0.0227 -0.2064
  784SOL    HW1 6268   5.010   9.286   6.459  2.2242  1.7823  0.7952
  784SOL    HW2 6269   4.897   9.264   6.557 -0.8729 -1.4886 -3.1346
  785SOL     OW 6270   3.175   4.236   2.207  0.3476 -0.2942  0.1416
  785SOL    HW1 6271   3.115   4.191   2.148  0.7557  0.4906 -0.9069
  785SOL    HW2 6272   3.176   4.182   2.286 -3.0078  0.4828  0.8906
  786SOL     OW 6273   5.494   3.430   5.148  1.0204 -0.5126  0.4492
  786SOL    HW1 6274   5.430   3.359   5.142 -0.3802  0.6553  0.9324
  786SOL    HW2 6275   5.543   3.412   5.228  0.0542 -0.4580  1.0673
  787SOL     OW 6276   1.683   8.761   0.922 -0.4058  0.5374  0.1584
  787SOL    HW1 6277   1.773   8.752   0.955 -0.4410 -1.4112 -0.1314
  787SOL    HW2 6278   1.629   8.720   0.989 -1.0000  1.0400 -0.0128
  788SOL     OW 6279   5.884   2.365   3.152  0.4726 -0.4066  0.0940
  788SOL    HW1 6280   5.951   2.317   3.103  0.2962  1.9676 -2.7309
  788SOL    HW2 6281   5.925   2.449   3.171 -2.0047  1.7821 -3.1537
  789SOL     OW 6282   2.786   0.241   0.599  0.8220  0.5430 -0.2107
  789SOL    HW1 6283   2.787   0.329   0.637 -1.4218 -0.1209  1.6465
  789SOL    HW2 6284   2.836   0.187   0.661  1.5660  0.3583 -0.9572
  790SOL     OW 6285   7.940   2.429   9.987  0.0357  0.0335 -0.2440
  790SOL    HW1 6286   7.845   2.443   9.984 -0.1594 -0.3747  2.0079
  790SOL    HW2 6287   7.951   2.336   9.967  0.1345  0.3583 -1.8724
  791SOL     OW 6288   7.227   6.055   9.830 -0.3571 -0.3495  0.3454
  791SOL    HW1 6289   7.292   6.098   9.885 -0.6520  0.2528  0.2203
  791SOL    HW2 6290   7.256   6.071   9.740  0.5713 -2.0084  0.2988
  792SOL     OW 6291   6.546   4.557   4.223  0.4172 -0.1338  0.0109
  792SOL    HW1 6292   6.493   4.613   4.281 -0.6304 -2.4193  1.4096
  792SOL    HW2 6293   6.495   4.551   4.143 -0.2979 -0.4369  0.4819
  793SOL     OW 6294   6.752   7.947   2.663  0.0792  0.2700 -0.1857
  793SOL    HW1 6295   6.673   7.999   2.682 -2.1914 -2.6607 -0.7357
  793SOL    HW2 6296   6.776   7.971   2.574 -0.5391  0.8557 -0.2024
  794SOL     OW 6297   3.369   3.248   1.413 -0.0570 -0.1782  0.3797
  794SOL    HW1 6298   3.354   3.163   1.371  2.1257  0.2700 -1.5393
  794SOL    HW2 6299   3.364   3.230   1.507 -2.7160 -1.7456  0.0487
  795SOL     OW 6300   7.356   4.146   1.471  0.5234 -0.0033  0.2020
  795SOL    HW1 6301   7.346   4.240   1.457  1.0100  0.1964  1.1099
  795SOL    HW2 6302   7.449   4.129   1.455  0.2577 -0.5173 -0.9086
  796SOL     OW 6303   6.773   8.654   9.048 -0.0071  0.1032  0.1024
  796SOL    HW1 6304   6.822   8.736   9.053  1.3142 -0.6405 -0.1302
  796SOL    HW2 6305   6.702   8.663   9.112 -0.6880  1.9239 -0.8517
  797SOL     OW 6306   0.945   2.633   6.703 -0.0369 -0.3426 -0.3861
  797SOL    HW1 6307   0.896   2.693   6.759  0.9448  0.1962 -0.0857
  797SOL    HW2 6308   0.967   2.684   6.625  1.0802 -0.1795  0.0115
  798SOL     OW 6309   2.802   6.996   3.463 -0.8870 -0.0314 -0.3951
  798SOL    HW1 6310   2.823   7.087   3.482 -0.5729 -0.2154  0.1251
  798SOL    HW2 6311   2.789   6.956   3.548 -1.0015 -0.4833 -0.6241
  799SOL     OW 6312   8.498   4.197   0.751 -0.0521 -0.5617  0.2162
  799SOL    HW1 6313   8.557   4.229   0.819 -0.2217  0.6929 -0.1980
  799SOL    HW2 6314   8.556   4.161   0.684  0.1371 -1.2907  0.7626
  800SOL     OW 6315   6.038   3.978   9.166  0.6046 -0.7736  0.5882
  800SOL    HW1 6316   5.955   3.931   9.177  0.5327 -1.0902 -1.0175
  800SOL    HW2 6317   6.104   3.918   9.201  0.4596 -1.8924 -0.9549
  801SOL     OW 6318   1.174   9.736   0.259 -0.2237  0.4638 -0.0578
  801SOL    HW1 6319   1.171   9.687   0.177 -0.7815  1.3378 -0.5770
  801SOL    HW2 6320   1.187   9.670   0.327 -1.1854 -0.4192 -0.7165
  802SOL     OW 6321   8.399   9.703   1.203 -0.3524  0.0550  0.2337
  802SOL    HW1 6322   8.322   9.738   1.159 -1.8693 -2.9864  0.2768
  802SOL    HW2 6323   8.400   9.747   1.288  0.3631  3.0439 -1.1480
  803SOL     OW 6324   9.275   2.616   8.819 -0.0983 -0.2703  0.7527
  803SOL    HW1 6325   9.274   2.665   8.737 -1.3927 -0.0409  0.8812
  803SOL    HW2 6326   9.183   2.609   8.844  0.2411 -0.7032  1.9698
  804SOL     OW 6327   9.565   4.080   5.886  0.0726  0.3451 -0.3190
  804SOL    HW1 6328   9.487   4.029   5.910  1.6200 -1.3824  1.2906
  804SOL    HW2 6329   9.598   4.037   5.807  1.1821 -1.0109  0.8429
  805SOL     OW 6330   9.980   2.652   1.692  0.0510 -0.2589 -0.3346
  805SOL    HW1 6331   9.889   2.664   1.722 -0.3995 -0.8973 -1.3809
  805SOL    HW2 6332  10.014   2.740   1.685  0.2719 -0.0473  2.2111
  806SOL     OW 6333   2.501   2.725   8.635  0.2758  0.0987  0.3544
  806SOL    HW1 6334   2.419   2.757   8.598  1.3832  0.6790 -1.7725
  806SOL    HW2 6335   2.507   2.767   8.721 -1.3323  0.5556  0.2737
  807SOL     OW 6336   8.848   4.144   6.249  0.4792  0.3382  0.7389
  807SOL    HW1 6337   8.767   4.094   6.240 -0.6423  1.8640  1.9688
  807SOL    HW2 6338   8.899   4.121   6.170 -1.6339  0.2416 -0.6659
  808SOL     OW 6339  10.114   3.600   3.724  0.7397  0.0840 -0.0403
  808SOL    HW1 6340  10.039   3.623   3.669  1.0834 -0.1487 -0.6122
  808SOL    HW2 6341  10.090   3.630   3.812 -0.0111  0.0322 -0.2254
  809SOL     OW 6342   5.563   3.888   9.257 -0.1221  0.2050  0.2122
  809SOL    HW1 6343   5.527   3.825   9.195 -2.2859  0.4091  1.1806
  809SOL    HW2 6344   5.526   3.972   9.230  1.2115  0.7887  0.0969
  810SOL     OW 6345   7.623   1.719   9.547 -0.3338 -0.0598 -0.3346
  810SOL    HW1 6346   7.603   1.628   9.570  1.3736 -0.7023 -1.1989
  810SOL    HW2 6347   7.718   1.720   9.533 -0.1585  2.0931  0.6375
  811SOL     OW 6348   1.519   1.805   2.276 -0.0221  0.2812  0.3747
  811SOL    HW1 6349   1.443   1.848   2.237 -1.2602 -1.4206  0.7687
  811SOL    HW2 6350   1.489   1.777   2.363  1.0411 -0.4381  0.5328
  812SOL     OW 6351   2.750   7.673   5.889  0.0125  0.2628 -0.4930
  812SOL    HW1 6352   2.753   7.762   5.924 -0.8077  0.3282 -0.5697
  812SOL    HW2 6353   2.779   7.682   5.798  1.7757  0.1491  0.0207
  813SOL     OW 6354   7.736   1.092   7.519  0.1382  1.0170 -0.4990
  813SOL    HW1 6355   7.768   1.022   7.463  0.3815 -0.2163  1.1177
  813SOL    HW2 6356   7.793   1.090   7.596 -1.3404  1.3740  0.6619
  814SOL     OW 6357   5.893   9.756   3.382 -0.5781  0.2201 -0.4006
  814SOL    HW1 6358   5.805   9.726   3.358 -0.3833 -0.3766 -0.3900
  814SOL    HW2 6359   5.891   9.851   3.368 -1.7388  0.4726  1.2132
  815SOL     OW 6360   9.751   5.746   0.534 -0.1754  0.1571 -0.3006
  815SOL    HW1 6361   9.692   5.818   0.510 -0.4258  0.1094  0.1572
  815SOL    HW2 6362   9.715   5.713   0.616 -1.1694 -1.6751 -1.3997
  816SOL     OW 6363   2.662   8.994   4.657  0.2426 -0.1602  0.6040
  816SOL    HW1 6364   2.586   8.971   4.603  1.6837 -1.8112 -0.8414
  816SOL    HW2 6365   2.631   9.067   4.711 -1.3028  1.6743 -2.4394
  817SOL     OW 6366   2.094   6.457   4.894 -0.6629 -0.0858  0.0780
  817SOL    HW1 6367   1.999   6.464   4.888 -0.5041  0.7830 -2.1431
  817SOL    HW2 6368   2.116   6.502   4.976 -2.0513  0.9718 -0.1060
  818SOL     OW 6369   8.457   5.912   1.139  0.0518  0.1762  0.2589
  818SOL    HW1 6370   8.386   5.970   1.112  0.0819  1.1577  2.1156
  818SOL    HW2 6371   8.436   5.890   1.230  1.0641 -1.1890  0.1908
  819SOL     OW 6372   7.166   1.500   5.380 -0.3905 -0.4128  0.5823
  819SOL    HW1 6373   7.083   1.535   5.411 -0.8657 -0.7578 -0.2679
  819SOL    HW2 6374   7.218   1.486   5.460 -0.5004  1.3861  1.0005
  820SOL     OW 6375   5.739   9.914   3.132 -0.3166 -0.1120  0.3696
  820SOL    HW1 6376   5.720   9.821   3.150 -1.7235 -0.1699 -1.2303
  820SOL    HW2 6377   5.682   9.962   3.193  0.1622 -0.2708  0.9593
  821SOL     OW 6378   8.859   0.712   7.517  0.3736 -0.6314 -0.3051
  821SOL    HW1 6379   8.772   0.732   7.552  0.6497  0.7940 -0.3751
  821SOL    HW2 6380   8.868   0.769   7.441  0.9007 -1.6618 -1.0339
  822SOL     OW 6381   8.546   4.577   2.813  0.3303 -0.1471  0.4229
  822SOL    HW1 6382   8.468   4.588   2.760 -0.7159 -0.1577  1.8958
  822SOL    HW2 6383   8.568   4.665   2.843  1.7009  0.0512 -1.0343
  823SOL     OW 6384   5.246   9.589   3.264 -0.2662  0.2905 -0.1015
  823SOL    HW1 6385   5.225   9.497   3.277 -1.0015  0.3605 -0.6720
  823SOL    HW2 6386   5.265   9.622   3.352 -3.0181  0.2956  0.5829
  824SOL     OW 6387   2.708   1.072   1.115  0.1635 -0.1205 -0.0343
  824SOL    HW1 6388   2.791   1.096   1.074 -0.2726  0.3128 -0.6882
  824SOL    HW2 6389   2.667   1.011   1.054 -1.0950  1.5420 -0.9733
  825SOL     OW 6390   8.431   0.682   7.326 -0.3168  0.0850 -0.9648
  825SOL    HW1 6391   8.363   0.695   7.393  0.2676  0.6147 -0.4636
  825SOL    HW2 6392   8.513   0.694   7.373  0.0945  1.4640 -1.9762
  826SOL     OW 6393   3.821   6.212   3.094 -0.1635 -0.5346  0.0763
  826SOL    HW1 6394   3.817   6.151   3.021  0.0072  1.1117 -1.3632
  826SOL    HW2 6395   3.914   6.234   3.102 -0.3616  0.4964 -0.2824
  827SOL     OW 6396   8.939   3.066   3.522 -0.2710  0.4402  0.2913
  827SOL    HW1 6397   8.926   2.982   3.567 -0.4099  0.5387  0.4381
  827SOL    HW2 6398   9.030   3.064   3.493 -0.3273  0.1587  0.1300
  828SOL     OW 6399   4.701   2.909   2.130 -0.4927 -0.6773 -0.0834
  828SOL    HW1 6400   4.677   2.825   2.092 -0.1337 -0.7251 -0.2144
  828SOL    HW2 6401   4.657   2.974   2.075 -2.1925 -0.8063  1.0452
  829SOL     OW 6402   3.441   9.624   9.133 -0.1389  0.3291 -0.0895
  829SOL    HW1 6403   3.472   9.690   9.072  0.0331  0.1653 -0.1788
  829SOL    HW2 6404   3.452   9.541   9.087 -0.3781  0.2382  0.0127
  830SOL     OW 6405   6.496   0.647   4.391 -0.4474 -0.0580  0.3416
  830SOL    HW1 6406   6.502   0.742   4.393 -1.6529  0.0821 -1.1134
  830SOL    HW2 6407   6.433   0.626   4.460  0.7502  0.0731  1.5082
  831SOL     OW 6408   3.146   4.860   1.608 -0.1339 -0.6736  0.0778
  831SOL    HW1 6409   3.143   4.941   1.660 -0.0118  0.1542 -1.1543
  831SOL    HW2 6410   3.054   4.842   1.588 -0.1374 -0.6382  0.0601
  832SOL     OW 6411   5.177   2.420  10.008 -0.1450 -0.7615 -0.4641
  832SOL    HW1 6412   5.169   2.491   9.945 -1.0478 -0.2129  0.2346
  832SOL    HW2 6413   5.100   2.430  10.064 -0.1166 -2.1069 -0.1636
  833SOL     OW 6414   5.029   4.844   4.591  0.0873  0.7258 -0.0076
  833SOL    HW1 6415   5.106   4.873   4.640  2.2478 -0.1328 -2.6143
  833SOL    HW2 6416   5.024   4.750   4.608 -0.3199  0.7619  0.0707
  834SOL     OW 6417   3.297   2.622   1.292  0.0946 -0.5707 -0.1663
  834SOL    HW1 6418   3.323   2.573   1.214 -0.0281  0.6002 -0.9773
  834SOL    HW2 6419   3.331   2.710   1.276  0.8048 -0.5047  1.5007
  835SOL     OW 6420   2.705   1.664   9.349 -0.3653  0.6564  0.2051
  835SOL    HW1 6421   2.640   1.620   9.403 -1.7550  0.9753 -1.1339
  835SOL    HW2 6422   2.779   1.603   9.345 -1.2641 -0.4699  0.3870
  836SOL     OW 6423   2.794   6.978   4.247 -0.4284 -1.1851  0.1225
  836SOL    HW1 6424   2.781   7.013   4.159  2.9551 -3.6278 -1.5483
  836SOL    HW2 6425   2.730   6.906   4.254 -0.8543 -0.8451 -0.2449
  837SOL     OW 6426   5.096   8.417   5.363  0.0971  0.3823  0.5013
  837SOL    HW1 6427   5.128   8.350   5.423  0.4182 -0.1242 -0.2073
  837SOL    HW2 6428   5.173   8.440   5.311  0.1228  1.6980  1.0807
  838SOL     OW 6429   8.786   7.438   2.786  0.4524  0.4382  0.8539
  838SOL    HW1 6430   8.879   7.459   2.774  0.5947 -0.4134  0.3547
  838SOL    HW2 6431   8.740   7.499   2.728  0.7439  0.4846  0.6662
  839SOL     OW 6432   9.164   6.853   3.094  0.2268 -0.0172 -0.0050
  839SOL    HW1 6433   9.249   6.848   3.051  0.5430  2.3683  0.2550
  839SOL    HW2 6434   9.118   6.924   3.050 -0.8403  0.0894  1.2099
  840SOL     OW 6435   2.022   7.923   4.316  0.3617  0.2929 -0.2640
  840SOL    HW1 6436   1.956   7.864   4.278 -0.3955  0.0786  1.2737
  840SOL    HW2 6437   2.039   7.988   4.248 -1.5302  0.3985 -0.7024
  841SOL     OW 6438   8.083   1.722   5.986 -0.1550  0.4729  0.4808
  841SOL    HW1 6439   8.124   1.673   6.058 -0.8351  0.4896  0.8918
  841SOL    HW2 6440   8.118   1.682   5.907 -0.8500 -0.8300  0.7979
  842SOL     OW 6441   7.030   7.812   6.770  0.4027  0.2326  0.0947
  842SOL    HW1 6442   6.989   7.821   6.856 -1.1080 -0.0148 -0.5751
  842SOL    HW2 6443   7.084   7.891   6.761 -1.3871  1.5448  0.2491
  843SOL     OW 6444   5.808   4.137   2.046  0.4143 -0.1272 -0.0894
  843SOL    HW1 6445   5.740   4.204   2.038 -0.2201 -0.6472  0.7822
  843SOL    HW2 6446   5.768   4.058   2.010  0.9284 -0.2092 -0.5020
  844SOL     OW 6447   3.331   3.401   5.746 -0.4069  0.0902 -0.2608
  844SOL    HW1 6448   3.400   3.439   5.801 -0.9032  1.1103 -0.3277
  844SOL    HW2 6449   3.268   3.366   5.809 -0.0703 -0.4157 -0.1981
  845SOL     OW 6450   9.706   1.405   3.846 -0.7617  0.1678 -0.1207
  845SOL    HW1 6451   9.765   1.345   3.892  0.4895  0.5302 -1.2056
  845SOL    HW2 6452   9.643   1.349   3.802  0.5173 -0.4011 -1.2888
  846SOL     OW 6453   9.237   4.113   4.138 -0.2155 -0.2344 -0.0342
  846SOL    HW1 6454   9.218   4.205   4.117  0.2831  0.4365  2.2107
  846SOL    HW2 6455   9.326   4.100   4.104  0.4711  0.7333  1.2894
  847SOL     OW 6456   5.090   1.757   7.293  1.3301 -0.0317 -0.4797
  847SOL    HW1 6457   5.177   1.737   7.326  1.7575  0.3054 -1.3734
  847SOL    HW2 6458   5.100   1.761   7.198  0.4739  0.6550 -0.5570
  848SOL     OW 6459   2.310   0.425   2.898  0.0801  0.1858 -0.6192
  848SOL    HW1 6460   2.315   0.357   2.830 -1.6265  0.0394 -0.6308
  848SOL    HW2 6461   2.218   0.451   2.900  0.3585  1.1817  0.6908
  849SOL     OW 6462   0.658   9.573   9.429  0.0178 -0.0399  0.0758
  849SOL    HW1 6463   0.689   9.596   9.342  1.2643  0.2299  0.5588
  849SOL    HW2 6464   0.633   9.657   9.468  0.8810  0.0446  0.4808
  850SOL     OW 6465   9.217   8.652   1.938 -0.1885  0.7104 -0.0885
  850SOL    HW1 6466   9.301   8.696   1.946  0.2646  0.3611 -2.2560
  850SOL    HW2 6467   9.235   8.561   1.962 -0.3558  0.9897  1.1197
  851SOL     OW 6468   7.534   1.360   9.184 -0.6988 -0.0989 -0.1202
  851SOL    HW1 6469   7.492   1.439   9.151 -0.6098 -0.9393 -2.4440
  851SOL    HW2 6470   7.555   1.310   9.105  1.9986 -1.0508  1.0840
  852SOL     OW 6471   3.221   0.115   9.019  0.3237 -0.8060 -0.2440
  852SOL    HW1 6472   3.221   0.104   8.924  0.8386  0.3846 -0.4044
  852SOL    HW2 6473   3.172   0.040   9.052 -1.6893 -0.1470 -1.5747
  853SOL     OW 6474   8.441   8.593   4.337  0.2745 -0.3995  0.2500
  853SOL    HW1 6475   8.387   8.573   4.260 -2.0530 -0.0834  1.6767
  853SOL    HW2 6476   8.518   8.638   4.302 -0.4191 -0.8008 -1.9221
  854SOL     OW 6477   2.034   4.347   5.923 -0.0840  0.5172 -0.3146
  854SOL    HW1 6478   2.078   4.263   5.930  0.3162  0.7748  0.3903
  854SOL    HW2 6479   1.956   4.329   5.870 -0.6519 -0.5732  0.8105
  855SOL     OW 6480   4.845   7.345   3.767  0.0452  0.9296 -0.1152
  855SOL    HW1 6481   4.834   7.285   3.841 -1.6034  0.0998 -1.0013
  855SOL    HW2 6482   4.940   7.351   3.756  0.5081 -4.3953 -2.1741
  856SOL     OW 6483   3.842   1.430   2.061  0.7569  0.0151 -0.6038
  856SOL    HW1 6484   3.930   1.425   2.098  0.9737  3.1949 -0.4136
  856SOL    HW2 6485   3.847   1.500   1.995 -1.6294  0.4390 -0.4400
  857SOL     OW 6486   4.506   4.747   9.510 -0.3117  0.0817  0.2588
  857SOL    HW1 6487   4.593   4.787   9.510  0.1424 -0.8739  0.1916
  857SOL    HW2 6488   4.518   4.663   9.554 -0.8463 -0.7886 -1.1843
  858SOL     OW 6489   3.768   2.570   9.625 -0.2166  0.4465 -0.0336
  858SOL    HW1 6490   3.831   2.551   9.555 -0.5017 -1.5471  0.1777
  858SOL    HW2 6491   3.819   2.559   9.706 -1.0005 -2.4384  0.1913
  859SOL     OW 6492   4.314   4.680   8.819  0.0777 -0.4448  0.0475
  859SOL    HW1 6493   4.352   4.609   8.871 -1.1681 -2.3630 -1.5205
  859SOL    HW2 6494   4.345   4.664   8.730 -3.6110 -1.6772 -1.1770
  860SOL     OW 6495   1.924   1.021   0.473  0.2983 -0.2991 -0.1577
  860SOL    HW1 6496   1.871   1.000   0.550  3.1922 -0.1252  2.0497
  860SOL    HW2 6497   1.987   0.949   0.467  0.6492  0.0981 -1.9422
  861SOL     OW 6498   3.647  10.044   0.820  0.1503  0.0026  0.0513
  861SOL    HW1 6499   3.645  10.106   0.893  0.2908 -1.4158  1.2822
  861SOL    HW2 6500   3.556  10.015   0.811  0.3439 -0.7221  0.4403
  862SOL     OW 6501   0.710   5.702   3.097  0.5784  0.5826 -0.0150
  862SOL    HW1 6502   0.633   5.760   3.100 -0.7712 -1.1397  0.2846
  862SOL    HW2 6503   0.762   5.727   3.174 -0.4956  0.7301  0.6875
  863SOL     OW 6504   4.828   0.019   6.373  0.3422 -0.1675 -0.5981
  863SOL    HW1 6505   4.737   0.049   6.381 -0.1942 -1.1405 -2.4414
  863SOL    HW2 6506   4.839   0.001   6.280  2.2520 -0.6681 -0.3145
  864SOL     OW 6507   0.842   4.372   4.565  0.4326  0.1553 -0.3369
  864SOL    HW1 6508   0.898   4.397   4.638 -0.0102 -0.3087  0.1660
  864SOL    HW2 6509   0.755   4.405   4.589  0.3313  0.2246 -0.7763
  865SOL     OW 6510   7.742   0.929   2.642  0.0170  0.4897  0.0685
  865SOL    HW1 6511   7.718   1.008   2.594 -0.6600  0.2374 -0.0164
  865SOL    HW2 6512   7.822   0.898   2.599 -0.1006  0.7468 -0.3360
  866SOL     OW 6513   5.786   9.212   8.292  0.0428  0.3803  0.2401
  866SOL    HW1 6514   5.775   9.168   8.208 -1.6889 -0.2555  0.7542
  866SOL    HW2 6515   5.797   9.305   8.269  2.6593 -0.0956 -0.7935
  867SOL     OW 6516   7.002   1.485   4.290 -0.4745  0.0710  0.2207
  867SOL    HW1 6517   7.032   1.480   4.381  1.5837 -1.8053 -0.4633
  867SOL    HW2 6518   7.082   1.477   4.239 -1.5983  1.0125 -1.7985
  868SOL     OW 6519   1.378   6.188   1.495 -0.2284  0.1651 -0.3858
  868SOL    HW1 6520   1.434   6.218   1.423  0.3246 -1.7158 -0.7777
  868SOL    HW2 6521   1.370   6.265   1.552  0.4063  1.3027 -1.7671
  869SOL     OW 6522   2.196   2.743   6.761 -0.0601 -0.0390 -0.1023
  869SOL    HW1 6523   2.149   2.781   6.836  0.6098  1.7884 -0.5783
  869SOL    HW2 6524   2.130   2.738   6.692  0.0554  1.1039 -0.3049
  870SOL     OW 6525   0.728   3.635   0.310 -0.0931 -0.1722 -0.1407
  870SOL    HW1 6526   0.772   3.719   0.324  2.0874 -1.1319 -0.8614
  870SOL    HW2 6527   0.704   3.605   0.397 -1.1668  1.3028  0.1024
  871SOL     OW 6528   3.187   4.923   0.999  0.1994 -0.1880  0.1384
  871SOL    HW1 6529   3.150   4.891   0.917 -0.7424  1.1920 -0.0013
  871SOL    HW2 6530   3.282   4.928   0.982 -0.0058  0.3112 -0.9563
  872SOL     OW 6531   6.684   3.142   8.457 -0.5693  0.0330 -0.2510
  872SOL    HW1 6532   6.737   3.105   8.528 -0.0651  1.0801 -0.0631
  872SOL    HW2 6533   6.728   3.223   8.433  0.6328 -1.3720 -3.4010
  873SOL     OW 6534   2.107   1.165   1.173  0.0294  0.4457  0.0804
  873SOL    HW1 6535   2.194   1.195   1.201  0.4664  0.0372 -0.7805
  873SOL    HW2 6536   2.112   1.167   1.077 -0.5092 -0.7207  0.0177
  874SOL     OW 6537   7.972   3.147   3.426  0.4963  0.4960  0.0742
  874SOL    HW1 6538   7.999   3.210   3.359 -2.9139  0.8238 -1.1386
  874SOL    HW2 6539   7.980   3.196   3.508  0.8857  1.4350 -0.5013
  875SOL     OW 6540   9.870   9.650   0.251 -0.1532 -0.6214 -0.4458
  875SOL    HW1 6541   9.924   9.715   0.296 -1.7321  0.6966 -0.3757
  875SOL    HW2 6542   9.824   9.699   0.184 -1.2418 -1.7121 -0.5355
  876SOL     OW 6543   7.583   8.199   5.889  0.5765  0.6546 -0.1260
  876SOL    HW1 6544   7.665   8.153   5.903 -0.2168 -0.3055  1.7521
  876SOL    HW2 6545   7.579   8.264   5.959 -0.7237 -0.0290  0.4686
  877SOL     OW 6546   1.239   6.762   2.692 -0.6485 -0.4279  0.0951
  877SOL    HW1 6547   1.333   6.747   2.678 -0.2146  1.4092  0.8073
  877SOL    HW2 6548   1.198   6.681   2.661  1.3059 -2.1810  1.7078
  878SOL     OW 6549   9.410   2.722   4.074  0.6360 -0.1225 -0.0224
  878SOL    HW1 6550   9.488   2.729   4.130  0.5065 -0.1168  0.1558
  878SOL    HW2 6551   9.430   2.650   4.015  1.1280  0.4032 -0.5187
  879SOL     OW 6552   4.572   7.083   2.205 -0.7629 -0.0019  0.2195
  879SOL    HW1 6553   4.547   7.104   2.115 -1.3615 -2.4237 -0.2562
  879SOL    HW2 6554   4.663   7.054   2.198 -1.1717 -1.3259  0.1622
  880SOL     OW 6555   5.673   4.479   0.960 -0.0358  0.2967  0.2299
  880SOL    HW1 6556   5.632   4.412   1.015  0.5838 -1.0464 -0.8780
  880SOL    HW2 6557   5.749   4.507   1.009  1.6781 -2.3470 -0.6822
  881SOL     OW 6558   3.994   8.130   2.389 -0.3291  0.1632  0.0728
  881SOL    HW1 6559   4.035   8.121   2.475 -0.2963  2.2458  0.3180
  881SOL    HW2 6560   3.970   8.222   2.383 -1.2208 -0.1388 -1.7686
  882SOL     OW 6561   9.455   2.932   8.732  0.3509  0.1072  0.1514
  882SOL    HW1 6562   9.361   2.922   8.723  0.4301 -1.5044  0.8290
  882SOL    HW2 6563   9.491   2.902   8.649  0.3916 -2.4551  0.9991
  883SOL     OW 6564   0.799   3.888   1.967  0.6312  0.2823  0.0641
  883SOL    HW1 6565   0.849   3.885   2.048  0.3589  0.5573  0.2463
  883SOL    HW2 6566   0.857   3.850   1.901  0.5212 -0.7726  0.5569
  884SOL     OW 6567   2.368   9.006   9.307 -0.1083 -0.8080  0.2500
  884SOL    HW1 6568   2.343   8.983   9.218  0.3251  0.5037 -0.2411
  884SOL    HW2 6569   2.359   8.925   9.357  0.7759 -1.8588 -1.2305
  885SOL     OW 6570   6.972   4.104   8.836 -0.2013  0.4343 -0.1516
  885SOL    HW1 6571   6.931   4.167   8.896 -0.8805 -0.8281  0.7457
  885SOL    HW2 6572   6.901   4.048   8.807  0.4112 -0.0036 -0.8441
  886SOL     OW 6573   9.067   2.953   4.201  0.3802  0.2743 -0.1093
  886SOL    HW1 6574   9.004   3.025   4.194  0.5750  0.5290  0.7071
  886SOL    HW2 6575   9.055   2.919   4.290  0.6499 -0.3747 -0.3130
  887SOL     OW 6576   9.775   3.991   6.843  0.1199  0.6136 -0.6847
  887SOL    HW1 6577   9.777   3.897   6.828 -2.6796  0.4386 -0.4899
  887SOL    HW2 6578   9.812   4.002   6.931 -1.3116 -0.5531  0.0974
  888SOL     OW 6579   9.372   1.852   1.827 -0.3180 -0.0758 -0.3466
  888SOL    HW1 6580   9.292   1.850   1.879 -1.0423 -0.9612 -1.4356
  888SOL    HW2 6581   9.397   1.944   1.824 -2.4950  0.5388 -1.7483
  889SOL     OW 6582   4.984   7.656   1.232  0.2488  0.4239 -0.0747
  889SOL    HW1 6583   5.004   7.749   1.226  2.4186 -0.0116 -0.2125
  889SOL    HW2 6584   4.995   7.635   1.325 -2.0502  0.6305  0.3032
  890SOL     OW 6585   7.297   9.636   8.064 -0.4908  0.0816 -0.1431
  890SOL    HW1 6586   7.295   9.574   7.991  1.1877  0.1397 -0.2780
  890SOL    HW2 6587   7.325   9.584   8.139 -0.7174  0.3333  0.1164
  891SOL     OW 6588   1.008   8.005   6.142  0.1938  0.2934  0.2307
  891SOL    HW1 6589   0.936   8.029   6.084  1.6487  4.7654 -0.0692
  891SOL    HW2 6590   1.068   7.955   6.087  0.0095  1.6041 -1.2082
  892SOL     OW 6591   3.374   1.735   9.966 -0.0245  0.2257  0.0100
  892SOL    HW1 6592   3.341   1.804  10.024 -0.3808  0.2340 -0.1971
  892SOL    HW2 6593   3.295   1.699   9.924  0.0979 -0.7015  0.5462
  893SOL     OW 6594   8.590   2.806   1.651 -0.3364 -0.4767 -0.0602
  893SOL    HW1 6595   8.660   2.871   1.656  0.1688 -0.9719 -0.5715
  893SOL    HW2 6596   8.600   2.753   1.730  0.8401 -1.4937 -0.8390
  894SOL     OW 6597   3.422   6.439   9.779 -0.1021  0.1381  0.5729
  894SOL    HW1 6598   3.440   6.390   9.699 -0.8218  1.1996 -0.2534
  894SOL    HW2 6599   3.374   6.377   9.834 -0.3205 -0.3435 -0.1470
  895SOL     OW 6600   0.119   9.658   7.742  0.4807  0.4799  0.0145
  895SOL    HW1 6601   0.200   9.691   7.783  0.4537  1.8531 -0.9774
  895SOL    HW2 6602   0.149   9.619   7.660  0.5344 -2.2784  1.2390
  896SOL     OW 6603   4.946   1.356   3.465 -0.3298 -1.0636 -0.0175
  896SOL    HW1 6604   4.920   1.445   3.441 -1.1274 -0.9907  1.0579
  896SOL    HW2 6605   4.914   1.345   3.554  1.6694 -1.6833  0.6686
  897SOL     OW 6606   7.940   9.243   2.378  0.5644 -0.0796  0.1104
  897SOL    HW1 6607   7.877   9.261   2.309  1.3095  2.4168 -0.0351
  897SOL    HW2 6608   7.895   9.184   2.438 -0.6931 -0.9622 -1.6344
  898SOL     OW 6609   9.627   2.114   8.639 -0.5132 -0.1890  0.2242
  898SOL    HW1 6610   9.712   2.089   8.603 -0.9388 -1.1165 -0.1617
  898SOL    HW2 6611   9.564   2.062   8.590 -1.3476  0.8251  0.2019
  899SOL     OW 6612   8.488   3.002   4.526 -0.1260  0.1461 -0.8158
  899SOL    HW1 6613   8.402   2.960   4.527 -0.1834  0.2624 -0.0454
  899SOL    HW2 6614   8.514   3.006   4.618  0.9330 -0.3347 -1.0787
  900SOL     OW 6615   2.368   3.158   8.675 -0.0952 -0.3695  0.2927
  900SOL    HW1 6616   2.449   3.127   8.634 -1.6123 -2.1090 -1.5553
  900SOL    HW2 6617   2.395   3.185   8.763  2.1930 -2.5528  0.3650
  901SOL     OW 6618   2.663   2.684   5.952  0.0090 -0.4277 -0.2788
  901SOL    HW1 6619   2.738   2.675   5.894 -0.5956 -0.2385 -1.1021
  901SOL    HW2 6620   2.663   2.602   6.002  0.7548 -0.4324 -0.2687
  902SOL     OW 6621   0.123   3.479   2.643 -0.4077  0.1671 -0.2629
  902SOL    HW1 6622   0.201   3.436   2.679 -0.6206 -0.0393 -0.0460
  902SOL    HW2 6623   0.065   3.407   2.618 -0.5077  0.3189 -0.4759
  903SOL     OW 6624   2.394   8.013   7.287 -0.6330 -0.4001  0.3238
  903SOL    HW1 6625   2.468   7.952   7.285 -0.8644 -0.6671 -1.2406
  903SOL    HW2 6626   2.342   7.991   7.210 -0.7356  1.7607 -0.3030
  904SOL     OW 6627   3.208   5.480   4.592  0.4102 -0.5399 -0.2843
  904SOL    HW1 6628   3.287   5.432   4.616 -1.2045 -2.7911  0.8238
  904SOL    HW2 6629   3.219   5.498   4.498  1.1392 -3.1030 -0.7659
  905SOL     OW 6630   3.121   1.854   0.516 -0.2764 -0.0471 -0.1384
  905SOL    HW1 6631   3.073   1.909   0.454  0.1321 -1.1121 -1.4606
  905SOL    HW2 6632   3.205   1.838   0.474  0.2936 -0.2165  1.0291
  906SOL     OW 6633   4.151   7.137   4.124  0.3966  0.2602 -0.1636
  906SOL    HW1 6634   4.177   7.225   4.096  1.6305  0.1394  0.4986
  906SOL    HW2 6635   4.222   7.109   4.182 -0.2708 -0.9415  0.1069
  907SOL     OW 6636   3.621   6.188   0.390 -0.2529  0.6085 -0.0453
  907SOL    HW1 6637   3.640   6.244   0.315  0.5369  0.7307  0.2459
  907SOL    HW2 6638   3.610   6.100   0.352 -1.8520  0.9813 -0.5513
  908SOL     OW 6639   6.037   2.849   8.012  0.0774  0.0708  0.0688
  908SOL    HW1 6640   5.990   2.786   7.958  1.5438 -1.3798  0.4082
  908SOL    HW2 6641   5.970   2.886   8.070 -0.9451 -0.6198 -0.6499
  909SOL     OW 6642   6.352   7.458   1.001 -0.9070  0.2114 -0.1554
  909SOL    HW1 6643   6.313   7.425   1.081  2.2213 -1.9188  0.6882
  909SOL    HW2 6644   6.397   7.539   1.027  0.7058 -0.8468  0.5351
  910SOL     OW 6645   7.746   8.463   8.234 -0.6625  0.0434  0.1751
  910SOL    HW1 6646   7.746   8.458   8.138  0.6602 -0.5263  0.1762
  910SOL    HW2 6647   7.832   8.427   8.259 -0.4836  1.3414  1.5085
  911SOL     OW 6648   9.354   3.218   8.460 -0.1630  0.1470  0.0685
  911SOL    HW1 6649   9.442   3.180   8.462  0.3377  1.3060  0.5678
  911SOL    HW2 6650   9.296   3.143   8.477  0.7416 -0.5504  0.1833
  912SOL     OW 6651   4.000   9.457   0.897 -0.5877 -0.9120  0.4315
  912SOL    HW1 6652   4.038   9.466   0.984  1.8637  0.0922 -0.6666
  912SOL    HW2 6653   3.996   9.363   0.883  1.7782 -1.0703  0.5253
  913SOL     OW 6654   8.473   3.811   1.430  0.1009 -0.3297 -0.5825
  913SOL    HW1 6655   8.504   3.879   1.371  0.7930 -0.2809 -0.1646
  913SOL    HW2 6656   8.520   3.732   1.404 -1.0337 -0.7781 -1.3671
  914SOL     OW 6657   0.402   8.148  10.185 -0.0519  0.8338  0.5521
  914SOL    HW1 6658   0.312   8.118  10.194  0.7121 -1.3881  1.5375
  914SOL    HW2 6659   0.455   8.071  10.204  2.0804  1.5472 -1.8555
  915SOL     OW 6660   0.167   1.332   2.058  0.1911 -0.0752 -0.2855
  915SOL    HW1 6661   0.157   1.346   2.152 -3.8062  0.0035 -0.5558
  915SOL    HW2 6662   0.089   1.372   2.019  2.2145  0.8848 -3.8078
  916SOL     OW 6663   6.496   1.066   3.551  0.1953 -0.1793 -0.0417
  916SOL    HW1 6664   6.492   1.011   3.630  1.0865  0.4331  0.4485
  916SOL    HW2 6665   6.426   1.033   3.495  1.0994 -2.2384 -0.0403
  917SOL     OW 6666   1.355   4.183   5.716 -0.3677 -0.0307 -0.4300
  917SOL    HW1 6667   1.328   4.156   5.803 -0.4084 -1.9064 -0.9953
  917SOL    HW2 6668   1.400   4.266   5.730 -1.2931  0.2425  1.2321
  918SOL     OW 6669   8.732   4.037   0.469 -0.9120 -0.1705  0.1485
  918SOL    HW1 6670   8.718   3.981   0.392  0.6863 -0.9008  0.3360
  918SOL    HW2 6671   8.663   4.011   0.530 -1.3457 -0.5861 -0.4957
  919SOL     OW 6672   3.455   0.585   2.029 -0.2989  0.4885  0.0260
  919SOL    HW1 6673   3.371   0.577   1.985  0.0035 -1.0923 -0.3255
  919SOL    HW2 6674   3.514   0.622   1.963 -0.5412  0.9279  0.0521
  920SOL     OW 6675   3.904   0.273   4.790  0.6268 -0.0316  1.0270
  920SOL    HW1 6676   3.859   0.261   4.873 -0.7557  1.9031  0.6180
  920SOL    HW2 6677   3.946   0.359   4.797  1.0614 -0.1412 -0.0094
  921SOL     OW 6678   1.476   5.868   9.503 -0.2100 -0.5164  0.3815
  921SOL    HW1 6679   1.441   5.907   9.423  0.4662  0.5475  0.5816
  921SOL    HW2 6680   1.556   5.824   9.476  0.7027  0.9163  0.6475
  922SOL     OW 6681   2.307   0.236   5.508 -0.6006  0.0886  0.2677
  922SOL    HW1 6682   2.238   0.274   5.563 -1.4118  0.8546 -1.1884
  922SOL    HW2 6683   2.268   0.233   5.421  0.9978 -0.0801 -0.4739
  923SOL     OW 6684   4.989   4.626   0.729  0.0686  0.0760 -0.7409
  923SOL    HW1 6685   5.072   4.639   0.776  0.1410 -1.1399 -0.4997
  923SOL    HW2 6686   4.940   4.565   0.784 -1.1945  1.1173 -0.6585
  924SOL     OW 6687   8.580   5.047   5.496  0.0246  0.3678  0.4028
  924SOL    HW1 6688   8.606   5.079   5.410  1.3395 -0.0010  0.6447
  924SOL    HW2 6689   8.525   5.117   5.532  0.2984  0.9628 -0.3233
  925SOL     OW 6690   0.314   6.086   7.347  0.7630  0.2915 -0.2972
  925SOL    HW1 6691   0.405   6.105   7.323  0.9012  1.1025  0.8007
  925SOL    HW2 6692   0.277   6.171   7.369  0.4227 -0.2881  1.5443
  926SOL     OW 6693   8.164   8.826   0.998 -0.0568 -0.0054 -0.0721
  926SOL    HW1 6694   8.176   8.846   0.906 -0.0157 -0.9193 -0.2795
  926SOL    HW2 6695   8.071   8.842   1.015 -0.3869 -1.1583 -0.6400
  927SOL     OW 6696   7.788   0.503   1.209 -0.6503  0.0819 -0.0091
  927SOL    HW1 6697   7.728   0.439   1.172  0.9722 -0.7343 -1.3600
  927SOL    HW2 6698   7.739   0.585   1.208 -3.0093 -1.1210  2.3339
  928SOL     OW 6699   9.853   3.833   4.676  0.1509  0.0627  0.2207
  928SOL    HW1 6700   9.774   3.784   4.652 -0.1556 -0.3942  1.9923
  928SOL    HW2 6701   9.919   3.766   4.693  0.8182  0.4299 -0.8425
  929SOL     OW 6702   6.042   6.791   8.385 -0.4898 -0.7561  0.3541
  929SOL    HW1 6703   5.999   6.748   8.311  1.1179  0.4228 -1.3441
  929SOL    HW2 6704   6.118   6.736   8.404  1.5368  1.0957 -1.7808
  930SOL     OW 6705   6.618   3.309   8.033  0.9253 -0.5096  0.3744
  930SOL    HW1 6706   6.698   3.362   8.030  0.2397  0.5160 -0.1361
  930SOL    HW2 6707   6.549   3.367   8.001 -0.0264 -1.3951  0.7659
  931SOL     OW 6708   3.759   5.940   0.544 -0.0654 -0.4977  0.2957
  931SOL    HW1 6709   3.822   6.009   0.566  1.2195 -2.0139  1.6962
  931SOL    HW2 6710   3.737   5.956   0.452  1.0984  1.0603  0.2400
  932SOL     OW 6711   1.873   0.887   3.059  0.3128 -0.3656  0.2692
  932SOL    HW1 6712   1.922   0.966   3.083  0.7721 -0.2469 -1.0138
  932SOL    HW2 6713   1.912   0.818   3.114  0.8744  0.0237  0.3742
  933SOL     OW 6714   6.207   4.643   2.990 -0.6721 -0.2449  0.6102
  933SOL    HW1 6715   6.197   4.554   2.956 -5.0014 -0.2766  1.3884
  933SOL    HW2 6716   6.182   4.635   3.083  0.2437  1.5651  1.0362
  934SOL     OW 6717   7.721   5.980   2.350 -0.1530  0.2191  0.4605
  934SOL    HW1 6718   7.651   6.043   2.368  0.1275  0.4748  0.6745
  934SOL    HW2 6719   7.763   5.966   2.435 -1.0701 -1.3141  0.6919
  935SOL     OW 6720   1.340   2.308   5.100 -0.2230  0.0415  0.6726
  935SOL    HW1 6721   1.358   2.236   5.160 -1.9874 -1.7089 -0.7837
  935SOL    HW2 6722   1.278   2.364   5.147 -0.4016 -0.4778  1.0592
  936SOL     OW 6723   8.550   3.559   5.286 -0.1420 -0.3633  0.2590
  936SOL    HW1 6724   8.626   3.595   5.240  0.9464 -0.6222  1.7664
  936SOL    HW2 6725   8.493   3.635   5.301  0.9786  0.3178  1.2389
  937SOL     OW 6726   4.966   9.598   9.056 -0.1941 -0.0871  0.1125
  937SOL    HW1 6727   4.940   9.506   9.061 -0.2924 -0.1159 -0.7697
  937SOL    HW2 6728   4.984   9.613   8.963 -0.3095  0.8191  0.2258
  938SOL     OW 6729   7.062   1.594   0.463  0.1372  0.0173  0.7928
  938SOL    HW1 6730   6.991   1.530   0.453  0.5330 -0.2162 -0.7908
  938SOL    HW2 6731   7.083   1.620   0.373  3.3564 -1.3689  1.0108
  939SOL     OW 6732   5.412   5.480   9.810  0.3729  0.1786 -0.6627
  939SOL    HW1 6733   5.457   5.412   9.759 -0.5347  0.1876 -1.5101
  939SOL    HW2 6734   5.438   5.464   9.901  1.6537 -0.1371 -1.0599
  940SOL     OW 6735   4.331   3.800   9.270 -0.1546 -0.1966 -0.1784
  940SOL    HW1 6736   4.312   3.832   9.182  1.4745  0.0755 -0.4787
  940SOL    HW2 6737   4.338   3.705   9.260  1.2361 -0.0803 -0.6499
  941SOL     OW 6738   9.563   9.529   0.036 -0.4880  0.4186 -0.2190
  941SOL    HW1 6739   9.639   9.471   0.029 -1.2810 -0.4508 -2.6239
  941SOL    HW2 6740   9.515   9.495   0.112  0.4785 -0.3013  0.1037
  942SOL     OW 6741   8.666   0.352   4.557  0.3436 -0.5506  0.1964
  942SOL    HW1 6742   8.615   0.400   4.623  2.0337  3.2365 -0.9338
  942SOL    HW2 6743   8.601   0.306   4.504 -1.3990 -0.1226  1.8742
  943SOL     OW 6744   7.286  10.136   2.096 -0.2022 -0.1206 -0.0028
  943SOL    HW1 6745   7.317  10.120   2.006 -2.4745 -1.4919 -0.6505
  943SOL    HW2 6746   7.342  10.081   2.150  1.8514  1.4728 -0.3971
  944SOL     OW 6747   4.508   0.352   1.252 -0.2672  0.0704  0.7023
  944SOL    HW1 6748   4.544   0.432   1.290 -2.6817  1.3719  0.4382
  944SOL    HW2 6749   4.477   0.301   1.328 -1.7315  0.9642  0.7394
  945SOL     OW 6750   4.103   4.327   6.456  0.4135  0.3721 -0.6860
  945SOL    HW1 6751   4.044   4.274   6.509 -0.2715  0.6546 -1.1524
  945SOL    HW2 6752   4.155   4.263   6.407  0.4905  0.1201 -0.2793
  946SOL     OW 6753  10.187   2.080   6.492  0.4934  0.2225 -0.3691
  946SOL    HW1 6754  10.136   2.035   6.560  2.2296  0.0562  0.9011
  946SOL    HW2 6755  10.186   2.020   6.417  1.1662 -1.0791  0.6256
  947SOL     OW 6756   2.426   5.076   8.947  0.0813  0.7699  0.1160
  947SOL    HW1 6757   2.361   5.068   9.016  0.2447  1.4411  0.3577
  947SOL    HW2 6758   2.439   5.170   8.937 -0.7146  0.7397 -1.5685
  948SOL     OW 6759   2.160   3.677   7.036  0.1077 -0.2625 -0.6617
  948SOL    HW1 6760   2.121   3.717   6.958  1.9473  0.8352 -1.0787
  948SOL    HW2 6761   2.198   3.595   7.006  0.5425  0.0119 -0.8747
  949SOL     OW 6762   9.155   0.726   1.197 -0.9356  0.6440  1.0269
  949SOL    HW1 6763   9.214   0.746   1.270  4.6209 -1.7346 -2.1140
  949SOL    HW2 6764   9.125   0.637   1.214  3.8641 -1.7486 -0.9127
  950SOL     OW 6765   7.485   3.447   1.217  0.0390 -0.1982 -0.0802
  950SOL    HW1 6766   7.397   3.435   1.182  0.2747 -0.5791 -0.5632
  950SOL    HW2 6767   7.497   3.373   1.276 -1.1997  1.6266  2.6525
  951SOL     OW 6768   2.166   1.464   4.179 -0.2632  0.1213  0.1002
  951SOL    HW1 6769   2.112   1.520   4.123 -0.0719 -0.5425 -0.7628
  951SOL    HW2 6770   2.245   1.447   4.128  0.3923  0.3766  1.0063
  952SOL     OW 6771   5.103   2.692   0.001 -0.6109 -0.1460  0.5611
  952SOL    HW1 6772   5.131   2.720  -0.086  0.9671  0.7498  1.3174
  952SOL    HW2 6773   5.018   2.733   0.013 -0.8292 -0.2361 -0.5283
  953SOL     OW 6774   1.946   1.420  10.086  0.0694 -0.0301  0.7645
  953SOL    HW1 6775   2.024   1.452  10.130  0.2072 -0.9083  1.1857
  953SOL    HW2 6776   1.912   1.352  10.144 -0.8333  0.1284  0.4354
  954SOL     OW 6777  10.202   7.751   2.947  0.2763 -0.1410 -0.3596
  954SOL    HW1 6778  10.144   7.776   3.019 -0.3609 -1.6977 -0.2868
  954SOL    HW2 6779  10.155   7.779   2.868  0.6756  0.9806 -0.2169
  955SOL     OW 6780   2.076   4.906   8.019  0.2068  0.1513  0.3000
  955SOL    HW1 6781   2.048   4.900   8.110 -1.2554 -0.8948 -0.1811
  955SOL    HW2 6782   2.123   4.990   8.014  1.0228 -0.1364  2.1655
  956SOL     OW 6783   4.413   8.816   5.228 -0.3083 -0.2886 -0.0508
  956SOL    HW1 6784   4.461   8.734   5.231  0.7900  0.3290 -0.2901
  956SOL    HW2 6785   4.364   8.812   5.146 -1.0870 -1.1306  0.4293
  957SOL     OW 6786   2.436   1.476   4.011  0.1365  0.5496  0.2435
  957SOL    HW1 6787   2.426   1.552   3.954  3.1131  0.7532 -0.1715
  957SOL    HW2 6788   2.497   1.419   3.964 -0.3406 -1.1004  1.5383
  958SOL     OW 6789   5.352   7.582   5.655  0.7296 -0.2226  0.3388
  958SOL    HW1 6790   5.264   7.594   5.690  0.1300 -0.7686 -0.9254
  958SOL    HW2 6791   5.395   7.667   5.668  0.1907 -0.0991  1.3969
  959SOL     OW 6792   4.714   4.794   7.291  0.0198  0.3828  0.7292
  959SOL    HW1 6793   4.744   4.712   7.251 -1.3160  0.2958 -0.1595
  959SOL    HW2 6794   4.787   4.820   7.347  0.6365 -1.2063  0.7466
  960SOL     OW 6795   0.748   9.711   1.603 -0.4063  0.6167 -0.3433
  960SOL    HW1 6796   0.711   9.631   1.639 -1.7648  0.0083 -2.8218
  960SOL    HW2 6797   0.835   9.686   1.572 -0.6659  0.1856 -0.7336
  961SOL     OW 6798   8.761   8.027   1.596  0.0554  0.5692 -0.3096
  961SOL    HW1 6799   8.692   8.093   1.596 -0.6343 -0.1353 -1.2057
  961SOL    HW2 6800   8.725   7.954   1.647  0.4314  0.4873 -0.1577
  962SOL     OW 6801   8.111   9.687   5.361  0.1270  0.0539  0.0031
  962SOL    HW1 6802   8.148   9.602   5.339 -1.3123 -0.3056 -1.1892
  962SOL    HW2 6803   8.158   9.749   5.305  1.0460  0.0378  0.7361
  963SOL     OW 6804   6.290   6.527   2.778 -0.4987  0.0123 -0.2600
  963SOL    HW1 6805   6.219   6.548   2.718 -1.4108 -0.4427  0.6401
  963SOL    HW2 6806   6.278   6.434   2.799 -0.0476  0.1008  0.4301
  964SOL     OW 6807   6.140   2.914   0.337  0.0709  0.5980  0.1317
  964SOL    HW1 6808   6.217   2.905   0.393  0.2936  0.8239 -0.1339
  964SOL    HW2 6809   6.084   2.841   0.361  2.1291 -2.0832 -2.4930
  965SOL     OW 6810   4.621   7.117   0.003 -0.1249 -0.2835  0.1112
  965SOL    HW1 6811   4.595   7.198   0.048  2.7577  0.5217  0.5312
  965SOL    HW2 6812   4.617   7.140  -0.090  0.5489  0.3234  0.2228
  966SOL     OW 6813   7.397   2.532   3.740  0.5261 -0.1642 -0.1629
  966SOL    HW1 6814   7.349   2.454   3.712  0.2296 -0.1663  0.3390
  966SOL    HW2 6815   7.330   2.600   3.749  0.4146 -0.4537  1.6078
  967SOL     OW 6816   7.581   0.555   1.613  0.0522  0.1243  0.0320
  967SOL    HW1 6817   7.657   0.591   1.567  1.0962 -1.3504  0.5109
  967SOL    HW2 6818   7.515   0.544   1.545  0.5051  0.7500 -0.5334
  968SOL     OW 6819   8.259   2.121   9.305  0.4394 -0.8696  0.1530
  968SOL    HW1 6820   8.278   2.028   9.304  1.8528 -0.6029 -0.1546
  968SOL    HW2 6821   8.167   2.127   9.278  0.6827 -2.0979 -1.0766
  969SOL     OW 6822   4.110   6.648   4.805  0.3046 -0.5544 -0.2514
  969SOL    HW1 6823   4.103   6.555   4.824  1.1138 -1.0948 -2.3906
  969SOL    HW2 6824   4.176   6.680   4.868  1.3883 -1.8245 -0.6966
  970SOL     OW 6825   6.827   5.492   3.610  0.0290  0.3536  0.5625
  970SOL    HW1 6826   6.809   5.583   3.631 -0.7888  0.0469  1.2921
  970SOL    HW2 6827   6.830   5.489   3.515 -0.8239  0.9859  0.5081
  971SOL     OW 6828   6.787   2.229   1.473 -0.2193 -0.1805  0.0569
  971SOL    HW1 6829   6.850   2.278   1.525 -0.0771 -0.0215 -0.2621
  971SOL    HW2 6830   6.747   2.167   1.535  1.4914 -1.5057 -0.0763
  972SOL     OW 6831   0.481   6.748   9.294 -0.3919  0.2079 -0.5988
  972SOL    HW1 6832   0.447   6.821   9.346  1.9108  0.5025  0.5946
  972SOL    HW2 6833   0.481   6.674   9.355 -1.7034 -0.5888 -1.4970
  973SOL     OW 6834   4.431   9.080   8.656 -0.5913 -0.1937 -0.7362
  973SOL    HW1 6835   4.461   9.032   8.733 -1.2332 -1.1803 -1.0838
  973SOL    HW2 6836   4.498   9.147   8.642 -0.0557 -0.5167  0.1984
  974SOL     OW 6837   4.907   9.323   9.018  0.1826 -0.2427  0.3225
  974SOL    HW1 6838   4.873   9.278   8.940 -1.0325  0.4088  0.4569
  974SOL    HW2 6839   4.972   9.263   9.053  1.0133 -0.4100 -1.3779
  975SOL     OW 6840   1.429   9.380   9.470 -0.0125 -0.5422 -0.6703
  975SOL    HW1 6841   1.501   9.334   9.429 -0.2012 -0.8191 -0.6887
  975SOL    HW2 6842   1.468   9.462   9.502  0.4291 -0.9295 -0.1960
  976SOL     OW 6843   8.913   0.479   6.293  0.0572 -0.7952 -0.1020
  976SOL    HW1 6844   8.837   0.532   6.269 -0.9889 -2.0082  0.4550
  976SOL    HW2 6845   8.960   0.534   6.357 -0.6058 -0.2430 -0.0752
  977SOL     OW 6846   9.837   9.632   1.278  0.5159 -0.2227  0.5694
  977SOL    HW1 6847   9.762   9.589   1.238  1.0426  0.2941 -1.0651
  977SOL    HW2 6848   9.913   9.595   1.233  1.0345  1.6096 -0.1470
  978SOL     OW 6849  10.072   1.693   2.112  0.4047  0.3628 -0.4792
  978SOL    HW1 6850   9.978   1.714   2.116  0.6009  1.1388  0.1451
  978SOL    HW2 6851  10.076   1.613   2.058 -0.7798 -0.7258  0.9734
  979SOL     OW 6852   4.744   1.178   8.212 -0.2565  0.2033 -0.2171
  979SOL    HW1 6853   4.683   1.226   8.267 -0.5780 -0.6158  0.1619
  979SOL    HW2 6854   4.690   1.112   8.167  0.0832  0.5321 -1.1320
  980SOL     OW 6855   9.110   9.815   0.068  0.2379 -0.0225 -0.1523
  980SOL    HW1 6856   9.094   9.908   0.057  0.5461  0.0506  0.0373
  980SOL    HW2 6857   9.130   9.784  -0.021 -0.4948 -0.0312 -0.3213
  981SOL     OW 6858   2.454   1.163   7.681 -0.3466 -0.2183 -0.0108
  981SOL    HW1 6859   2.500   1.096   7.632  0.1728 -0.6129  0.9892
  981SOL    HW2 6860   2.519   1.232   7.696 -1.0820  0.9099 -1.7122
  982SOL     OW 6861   8.060   0.520   0.135 -0.3753 -0.3320  0.2142
  982SOL    HW1 6862   8.151   0.533   0.162 -0.2137  1.7972 -1.1051
  982SOL    HW2 6863   8.065   0.458   0.062  0.2825  1.1961 -1.0887
  983SOL     OW 6864   0.761   0.276   5.520 -0.1261  0.0663  0.4128
  983SOL    HW1 6865   0.736   0.285   5.612 -0.6512  1.5031  0.1547
  983SOL    HW2 6866   0.785   0.365   5.493  0.1802 -0.3650 -0.7957
  984SOL     OW 6867   7.663   0.070   0.783  0.2487  0.3471  0.1983
  984SOL    HW1 6868   7.659   0.088   0.689  0.8563  0.5399  0.2051
  984SOL    HW2 6869   7.590   0.011   0.799 -2.2189  3.1491  0.2418
  985SOL     OW 6870   1.791   1.071   5.010 -0.2937 -0.1711  0.9296
  985SOL    HW1 6871   1.781   0.993   4.956 -3.1305  0.0582  0.9871
  985SOL    HW2 6872   1.818   1.140   4.949  0.8947 -0.8672  0.6451
  986SOL     OW 6873   1.827   3.022   0.949 -0.0399  0.2379  0.5498
  986SOL    HW1 6874   1.760   3.046   0.885  1.8136  2.3692 -0.7161
  986SOL    HW2 6875   1.779   3.016   1.032 -2.2657 -1.2190 -0.7307
  987SOL     OW 6876   8.766   1.169   6.500 -0.3613 -0.0380  0.0055
  987SOL    HW1 6877   8.764   1.205   6.588 -0.6870 -0.9268  0.3756
  987SOL    HW2 6878   8.775   1.074   6.513  0.0361 -0.1404 -0.9217
  988SOL     OW 6879   6.670   4.105   8.083 -0.0210 -0.0394 -0.4861
  988SOL    HW1 6880   6.600   4.103   8.148 -0.7663 -0.8205 -1.2940
  988SOL    HW2 6881   6.649   4.035   8.022  2.0442 -0.9826 -0.1826
  989SOL     OW 6882   2.172   0.308   7.262 -0.6378  0.1305 -0.1473
  989SOL    HW1 6883   2.112   0.236   7.276 -0.6432  0.2342  0.3908
  989SOL    HW2 6884   2.117   0.386   7.264 -0.5632  0.1858 -0.2184
  990SOL     OW 6885   0.710   2.254   4.601 -0.0817  0.3787 -0.3203
  990SOL    HW1 6886   0.802   2.271   4.624 -0.0810  3.0935 -1.9485
  990SOL    HW2 6887   0.660   2.318   4.652 -0.8720  0.2815 -0.9562
  991SOL     OW 6888   2.674   7.979   1.887 -0.0071  0.4161  0.0807
  991SOL    HW1 6889   2.727   7.982   1.807 -1.3396 -1.5316 -0.9606
  991SOL    HW2 6890   2.684   8.066   1.926  1.9078  0.9189 -1.3707
  992SOL     OW 6891  10.155   1.101   3.231  0.5768 -0.0963  0.0578
  992SOL    HW1 6892  10.155   1.197   3.237 -1.5879  0.0899 -1.4919
  992SOL    HW2 6893  10.062   1.079   3.221  0.9264 -2.4623  1.4314
  993SOL     OW 6894   6.824   5.570   1.630  0.3345 -0.1768 -0.0575
  993SOL    HW1 6895   6.901   5.597   1.580 -0.8154  1.7409 -0.8697
  993SOL    HW2 6896   6.851   5.581   1.722  0.4483  2.4136 -0.3281
  994SOL     OW 6897   6.157   5.706   9.038 -0.1149  0.2604  0.3635
  994SOL    HW1 6898   6.062   5.696   9.039 -0.0091 -0.9502  1.5131
  994SOL    HW2 6899   6.178   5.744   9.124  0.3670  1.6459 -0.3292
  995SOL     OW 6900   2.400   5.019   7.838  0.4567  0.2267 -0.0880
  995SOL    HW1 6901   2.452   5.077   7.894 -0.5312 -1.9972  3.4811
  995SOL    HW2 6902   2.457   4.997   7.765  1.9229  3.1927  0.0366
  996SOL     OW 6903   9.815   8.901   3.104  0.1250 -0.4234 -0.0818
  996SOL    HW1 6904   9.723   8.923   3.117  0.5342  0.1797  2.2237
  996SOL    HW2 6905   9.837   8.845   3.179  1.3521 -1.5747 -1.2314
  997SOL     OW 6906   8.507   8.030   0.546  0.1214 -0.3124 -0.2200
  997SOL    HW1 6907   8.508   8.020   0.642  0.4386 -2.7264 -0.4095
  997SOL    HW2 6908   8.567   8.102   0.529  0.3556 -0.0783  1.3695
  998SOL     OW 6909   0.851   7.582   9.516 -0.4758 -0.5654  0.1947
  998SOL    HW1 6910   0.805   7.563   9.435  0.0587  1.2541 -0.5916
  998SOL    HW2 6911   0.943   7.568   9.495 -0.4082 -1.0370  0.7832
  999SOL     OW 6912   6.202   3.706   6.572 -0.0100  0.2774 -0.2866
  999SOL    HW1 6913   6.147   3.742   6.641 -0.1987  1.7816 -1.1534
  999SOL    HW2 6914   6.148   3.638   6.531  0.5023 -1.3872  1.6557
 1000SOL     OW 6915   7.987   3.557   1.196  0.2453  0.7316  0.4415
 1000SOL    HW1 6916   8.064   3.506   1.218  0.7590  0.3422 -1.9570
 1000SOL    HW2 6917   7.923   3.493   1.164  0.7801  1.4371 -2.2923
 1001SOL     OW 6918   2.800   5.165   4.854 -0.0870  0.1951 -0.0398
 1001SOL    HW1 6919   2.815   5.089   4.911  1.4817 -0.7971 -1.7073
 1001SOL    HW2 6920   2.886   5.204   4.842 -0.5274  0.9060 -1.0196
 1002SOL     OW 6921   2.099   8.584   6.671 -0.1585  0.0814  0.9676
 1002SOL    HW1 6922   2.156   8.646   6.716 -0.9976 -0.7762  3.3697
 1002SOL    HW2 6923   2.159   8.524   6.627  0.6987  1.0621  0.7490
 1003SOL     OW 6924   8.945   4.878   2.457  0.3358 -0.6726  0.2612
 1003SOL    HW1 6925   8.870   4.927   2.422  1.3058 -0.0134 -1.0036
 1003SOL    HW2 6926   9.016   4.898   2.396  2.3244  0.9953  2.9227
 1004SOL     OW 6927   6.849   5.926   4.311  0.5272 -0.2162 -0.2835
 1004SOL    HW1 6928   6.770   5.884   4.278 -0.1364 -0.0903  1.0950
 1004SOL    HW2 6929   6.916   5.857   4.305  0.4382 -0.2103 -1.8020
 1005SOL     OW 6930   7.858   2.871   2.778 -0.0336  0.3658 -0.5973
 1005SOL    HW1 6931   7.928   2.910   2.724 -0.0062  0.6798 -0.3390
 1005SOL    HW2 6932   7.836   2.790   2.733 -0.7577  1.1284 -1.6960
 1006SOL     OW 6933   5.239   9.921   8.366 -0.5890 -0.0409  0.2613
 1006SOL    HW1 6934   5.208   9.905   8.455  0.1953 -0.8808  0.4008
 1006SOL    HW2 6935   5.162   9.950   8.318 -1.4570 -1.4578  0.7447
 1007SOL     OW 6936   4.350   8.525   1.124  0.6649 -0.6171 -0.1626
 1007SOL    HW1 6937   4.375   8.617   1.117  0.0812 -0.5355 -1.6588
 1007SOL    HW2 6938   4.365   8.502   1.215 -1.5549  1.6489  0.8763
 1008SOL     OW 6939   9.911   3.791   2.536  0.5635 -0.2190 -0.0097
 1008SOL    HW1 6940   9.839   3.835   2.491 -0.5171 -0.1042  1.6934
 1008SOL    HW2 6941   9.885   3.699   2.536  0.3006 -0.1530  0.7654
 1009SOL     OW 6942   2.660   3.086   0.886  0.3956 -0.1596 -0.9180
 1009SOL    HW1 6943   2.613   3.084   0.803 -2.1413 -0.6574  0.4328
 1009SOL    HW2 6944   2.666   3.178   0.909 -1.7732 -0.1393 -0.2062
 1010SOL     OW 6945   8.953   5.301   4.897  0.0941 -0.4448 -0.1155
 1010SOL    HW1 6946   9.017   5.355   4.942 -1.6882  2.8807 -1.1691
 1010SOL    HW2 6947   8.871   5.315   4.946 -0.7380 -0.9808 -1.2949
 1011SOL     OW 6948   6.826   0.993   9.793  0.5258 -0.3184  0.7406
 1011SOL    HW1 6949   6.765   0.963   9.725 -0.7040  1.9382  0.7412
 1011SOL    HW2 6950   6.909   1.005   9.748  0.1911 -0.5659  0.0464
 1012SOL     OW 6951   2.434   9.479   1.823 -0.2243  0.6393  0.2126
 1012SOL    HW1 6952   2.342   9.460   1.836  0.2646 -1.2181  1.3785
 1012SOL    HW2 6953   2.470   9.484   1.912  1.2264 -1.1991 -0.2174
 1013SOL     OW 6954   5.062   3.511   4.777  0.1262 -0.1073 -0.1359
 1013SOL    HW1 6955   5.156   3.518   4.794  0.1202  2.6510 -0.7323
 1013SOL    HW2 6956   5.022   3.514   4.865  0.5532  1.6241  0.0488
 1014SOL     OW 6957   4.810   4.618   8.389  0.1931  0.2376 -0.1615
 1014SOL    HW1 6958   4.783   4.527   8.390  0.5785  0.0988 -1.2203
 1014SOL    HW2 6959   4.816   4.641   8.296  1.2510  0.9883  0.0662
 1015SOL     OW 6960   5.455   0.876   6.027  0.2426 -0.5641 -0.5996
 1015SOL    HW1 6961   5.484   0.836   6.109 -0.3299  0.4053  0.0899
 1015SOL    HW2 6962   5.399   0.809   5.987 -0.3587 -0.6392  0.3323
 1016SOL     OW 6963   2.343   6.002   7.661  0.1318  0.1558 -0.1787
 1016SOL    HW1 6964   2.399   6.075   7.688 -0.4822  0.7978 -0.5821
 1016SOL    HW2 6965   2.356   5.996   7.566  0.1911 -0.2775 -0.1453
 1017SOL     OW 6966   8.371   7.158   2.076 -0.2093  0.7927 -0.0604
 1017SOL    HW1 6967   8.365   7.185   1.984  2.3913 -1.5491 -1.0583
 1017SOL    HW2 6968   8.290   7.190   2.115 -0.8000  3.0837 -2.8029
 1018SOL     OW 6969   9.611   1.011   1.644  0.7448  0.2319 -0.2535
 1018SOL    HW1 6970   9.577   0.975   1.726 -0.0883  1.4165 -0.0487
 1018SOL    HW2 6971   9.615   1.105   1.659 -2.5394  0.9170 -2.5920
 1019SOL     OW 6972   7.941   3.027   4.533  0.0314  0.1647  0.3240
 1019SOL    HW1 6973   7.979   3.107   4.569 -1.2809  0.8867  0.1689
 1019SOL    HW2 6974   7.906   3.053   4.448  0.0759 -0.7136  0.0224
 1020SOL     OW 6975   6.125   0.831   4.034  0.1705 -0.3267 -0.3056
 1020SOL    HW1 6976   6.186   0.904   4.027  0.8615 -0.8882 -0.1919
 1020SOL    HW2 6977   6.097   0.814   3.944 -1.9327  1.6685 -0.1364
 1021SOL     OW 6978   7.744   6.217   3.585  0.3497 -0.1835  0.8351
 1021SOL    HW1 6979   7.807   6.160   3.631  1.2339  0.7197  0.7805
 1021SOL    HW2 6980   7.762   6.304   3.620 -0.3678  0.2003  0.2488
 1022SOL     OW 6981   9.483   6.283   1.158 -0.5467  0.3662 -0.8756
 1022SOL    HW1 6982   9.551   6.337   1.198 -0.8459  0.8968 -1.0787
 1022SOL    HW2 6983   9.411   6.343   1.141 -1.9826 -0.5699  1.3976
 1023SOL     OW 6984   6.971   0.166   5.209  0.2012  0.2385  0.0508
 1023SOL    HW1 6985   6.961   0.233   5.142  2.7047  0.4083 -0.2520
 1023SOL    HW2 6986   6.992   0.086   5.161 -1.0005 -0.3734  0.5048
 1024SOL     OW 6987   2.333   4.874   4.624  0.2285 -0.2490  0.6162
 1024SOL    HW1 6988   2.238   4.873   4.611  0.2473 -3.0006  0.1922
 1024SOL    HW2 6989   2.358   4.964   4.602 -2.1267  0.2874 -0.2496
 1025SOL     OW 6990   6.886   2.311   5.534 -0.0714 -0.1757 -0.6067
 1025SOL    HW1 6991   6.958   2.309   5.597 -0.6104  2.3763  0.2117
 1025SOL    HW2 6992   6.924   2.349   5.455 -0.3154  0.5631 -0.3860
 1026SOL     OW 6993   1.754   3.370   0.719 -0.1317 -0.0564 -0.0040
 1026SOL    HW1 6994   1.820   3.346   0.654  1.3838 -1.4552  1.9305
 1026SOL    HW2 6995   1.753   3.466   0.717  1.8563  0.0009 -0.2126
 1027SOL     OW 6996   1.652  10.023   5.263  0.4716  0.1810 -0.6804
 1027SOL    HW1 6997   1.559  10.015   5.282  0.8057 -0.6642  0.7108
 1027SOL    HW2 6998   1.659  10.004   5.169 -0.6760 -0.4000 -0.6646
 1028SOL     OW 6999   6.978   3.033   7.515  0.8233 -0.2531  0.0818
 1028SOL    HW1 7000   6.957   2.978   7.440 -2.0355 -1.3474  1.5507
 1028SOL    HW2 7001   6.906   3.095   7.520  2.2291  1.4156  0.5310
 1029SOL     OW 7002   9.502   9.284   3.590  0.6137 -0.1976  0.3242
 1029SOL    HW1 7003   9.529   9.374   3.573 -1.7005  0.8855  1.7294
 1029SOL    HW2 7004   9.455   9.289   3.674 -0.1228 -2.6132  0.1412
 1030SOL     OW 7005   0.641   7.259   4.670  0.0836  0.4275 -0.1802
 1030SOL    HW1 7006   0.720   7.244   4.722 -0.1492 -2.4098 -0.5065
 1030SOL    HW2 7007   0.570   7.262   4.734  0.0580 -0.8911 -0.1085
 1031SOL     OW 7008   3.627   8.978   1.026  0.2643  0.4917  0.2903
 1031SOL    HW1 7009   3.602   8.892   1.058  1.8164  0.1860  0.7309
 1031SOL    HW2 7010   3.697   8.961   0.963  1.1952  1.4798  1.0300
 1032SOL     OW 7011   8.652   8.924   2.088 -0.0950 -0.3551  0.3852
 1032SOL    HW1 7012   8.586   8.961   2.146 -2.3114 -0.4464 -1.9056
 1032SOL    HW2 7013   8.602   8.876   2.022  2.3532 -1.5266 -0.7662
 1033SOL     OW 7014   4.365   4.528   1.527 -0.7568 -0.0064 -0.3778
 1033SOL    HW1 7015   4.331   4.460   1.468  0.6645  0.7123 -2.1327
 1033SOL    HW2 7016   4.452   4.497   1.552 -0.9790  0.1462  0.6274
 1034SOL     OW 7017   7.451   4.868   4.075 -0.0784  0.3741 -0.3544
 1034SOL    HW1 7018   7.515   4.856   4.145  0.6408 -1.0671 -1.2039
 1034SOL    HW2 7019   7.421   4.779   4.054 -2.1832  0.9885 -0.1735
 1035SOL     OW 7020   1.841   5.028   8.494  0.0954 -0.1955  0.9453
 1035SOL    HW1 7021   1.876   5.078   8.421 -0.2428 -1.8485 -0.3982
 1035SOL    HW2 7022   1.821   5.094   8.561 -0.7849  1.5246 -0.9064
 1036SOL     OW 7023   6.242   7.876   6.048  0.0069  0.0339  0.2673
 1036SOL    HW1 7024   6.147   7.879   6.042 -0.2285  2.1380  3.0190
 1036SOL    HW2 7025   6.272   7.949   5.995  0.3184 -1.7624 -2.1784
 1037SOL     OW 7026   1.631   6.748   4.365  0.7233  0.2998 -0.0053
 1037SOL    HW1 7027   1.672   6.662   4.378  0.4163  0.1997  0.3363
 1037SOL    HW2 7028   1.633   6.762   4.270  0.1752 -0.3938 -0.1305
 1038SOL     OW 7029   4.207   9.694   6.113  0.4651 -0.0385  0.2931
 1038SOL    HW1 7030   4.252   9.612   6.134  2.0686  0.7182 -0.0799
 1038SOL    HW2 7031   4.240   9.718   6.027  0.8276  1.5415  0.8429
 1039SOL     OW 7032   8.245   6.547   8.360 -0.9567 -0.0365 -0.1303
 1039SOL    HW1 7033   8.298   6.497   8.297  1.7396  3.7644 -1.2716
 1039SOL    HW2 7034   8.288   6.533   8.444  0.1964  0.7798 -0.5588
 1040SOL     OW 7035   4.273   7.532   9.369  0.1076 -0.1791 -0.1873
 1040SOL    HW1 7036   4.195   7.517   9.316 -1.5257  1.2896  1.6735
 1040SOL    HW2 7037   4.262   7.475   9.445  0.9105 -0.0373  0.0422
 1041SOL     OW 7038   0.480   0.818   9.880  0.1581 -0.6097  0.7346
 1041SOL    HW1 7039   0.532   0.857   9.951 -0.0208 -0.6111  0.8658
 1041SOL    HW2 7040   0.515   0.858   9.801  0.0584 -0.2673  0.8600
 1042SOL     OW 7041   7.135   0.416   2.257 -0.6085 -0.0127  0.1695
 1042SOL    HW1 7042   7.114   0.421   2.350  0.0535 -0.6316  0.3537
 1042SOL    HW2 7043   7.053   0.388   2.216 -0.3270 -1.8626  0.8182
 1043SOL     OW 7044   3.916   1.639   1.912  0.2992  0.6925  0.1012
 1043SOL    HW1 7045   3.999   1.628   1.960  1.2677 -0.5746 -1.7522
 1043SOL    HW2 7046   3.923   1.725   1.872  0.9870  0.3621 -0.5065
 1044SOL     OW 7047   8.542   3.909   0.614  0.0279 -0.2492  0.0168
 1044SOL    HW1 7048   8.600   3.900   0.690 -1.8279  0.7294  1.6214
 1044SOL    HW2 7049   8.488   3.830   0.616 -0.3246 -0.0129  0.0065
 1045SOL     OW 7050   8.412   3.201   3.881 -0.2382 -0.2143  0.2983
 1045SOL    HW1 7051   8.405   3.296   3.881  0.3305 -0.1681  0.3490
 1045SOL    HW2 7052   8.506   3.184   3.887 -0.2940 -0.7798 -0.3952
 1046SOL     OW 7053   1.791   4.436   1.926  0.3925 -0.4118  0.3276
 1046SOL    HW1 7054   1.744   4.480   1.997 -0.6014  0.1448 -0.6429
 1046SOL    HW2 7055   1.883   4.441   1.951  0.1470  0.7326  1.0504
 1047SOL     OW 7056   0.212   1.067   8.180 -0.6979  0.8209 -0.0996
 1047SOL    HW1 7057   0.262   1.084   8.100 -2.0010 -0.7870 -1.3384
 1047SOL    HW2 7058   0.273   1.023   8.238  0.7756  3.5106  0.5708
 1048SOL     OW 7059   8.717   2.750   9.190  0.1722 -0.3296 -0.2120
 1048SOL    HW1 7060   8.686   2.700   9.265 -1.6024  0.8651 -0.1043
 1048SOL    HW2 7061   8.769   2.821   9.227  0.5736 -0.6228 -0.2118
 1049SOL     OW 7062   2.407   3.618   5.574 -0.1629  0.1267 -0.0021
 1049SOL    HW1 7063   2.338   3.567   5.617  1.7475 -1.1429  1.8023
 1049SOL    HW2 7064   2.435   3.681   5.641  1.7063 -0.7182  0.0905
 1050SOL     OW 7065   8.414   2.891   4.171  0.3698  0.1818 -0.4983
 1050SOL    HW1 7066   8.362   2.828   4.121 -0.7996  1.7502 -1.3524
 1050SOL    HW2 7067   8.451   2.950   4.104 -0.3972  1.7182  0.3670
 1051SOL     OW 7068   2.170   7.077   6.915  0.3102  0.4491 -0.1095
 1051SOL    HW1 7069   2.156   7.141   6.845  1.2769  2.2505  1.2542
 1051SOL    HW2 7070   2.242   7.023   6.884 -0.7099 -0.2118 -1.4132
 1052SOL     OW 7071   1.957   8.290   2.185 -0.8313 -0.4678  0.9018
 1052SOL    HW1 7072   1.925   8.380   2.180 -1.6543 -0.7948 -0.1991
 1052SOL    HW2 7073   2.002   8.276   2.102 -0.3535 -0.9528  1.2340
 1053SOL     OW 7074   5.713   3.435   4.532 -0.3262 -0.3279 -0.0309
 1053SOL    HW1 7075   5.804   3.418   4.509 -0.3085 -1.5197  0.8128
 1053SOL    HW2 7076   5.716   3.467   4.623 -0.6967  0.3748 -0.2549
 1054SOL     OW 7077   0.155   6.741   1.710  0.0620  0.3039  0.4457
 1054SOL    HW1 7078   0.205   6.659   1.713 -0.7544 -0.1888  0.9200
 1054SOL    HW2 7079   0.130   6.750   1.618  1.1538  0.6539  0.1621
 1055SOL     OW 7080   3.934   7.421   3.997  0.5377 -0.1171  0.7867
 1055SOL    HW1 7081   4.011   7.402   4.049  0.4969  0.1095  0.9330
 1055SOL    HW2 7082   3.928   7.517   3.997  0.1751 -0.1369  0.8991
 1056SOL     OW 7083   3.778   6.467   4.967 -0.0126 -0.6779  0.2101
 1056SOL    HW1 7084   3.727   6.443   4.889 -1.3206 -0.3075  0.9212
 1056SOL    HW2 7085   3.850   6.403   4.968 -0.7356 -1.5481 -0.5596
 1057SOL     OW 7086   1.805   8.131   6.836 -0.0122  0.3392  0.6412
 1057SOL    HW1 7087   1.723   8.111   6.791 -0.7797  1.1897  1.6165
 1057SOL    HW2 7088   1.863   8.057   6.816 -1.0260 -0.2882 -0.0218
 1058SOL     OW 7089   7.189  10.033   6.929 -0.4538 -0.0166 -0.4087
 1058SOL    HW1 7090   7.206   9.995   6.843  1.1305  1.3065 -0.7441
 1058SOL    HW2 7091   7.188  10.127   6.914  0.6988  0.2843  1.1282
 1059SOL     OW 7092   4.991   1.177   6.581  0.0239  0.4156  0.0333
 1059SOL    HW1 7093   5.045   1.236   6.633 -1.5064  1.2343  0.7614
 1059SOL    HW2 7094   4.971   1.227   6.502 -0.4050  0.4634  0.1719
 1060SOL     OW 7095   0.269   7.006   3.304 -0.2148  0.8273  0.0813
 1060SOL    HW1 7096   0.321   6.951   3.363 -2.0777 -1.3927 -0.2012
 1060SOL    HW2 7097   0.217   7.061   3.363  0.0366  0.6908  0.4378
 1061SOL     OW 7098   7.152   4.877   0.629  0.6199  0.2312 -0.2620
 1061SOL    HW1 7099   7.203   4.890   0.709  0.8291 -1.7002 -0.0203
 1061SOL    HW2 7100   7.068   4.920   0.646  0.5744 -0.3527  1.0991
 1062SOL     OW 7101   3.022   7.610   8.193 -0.3964  0.3203  0.1334
 1062SOL    HW1 7102   2.956   7.657   8.244 -0.6100  1.5888 -1.2491
 1062SOL    HW2 7103   3.071   7.560   8.258 -0.6538  1.8749  1.5958
 1063SOL     OW 7104   5.697   7.220   8.201 -0.0276  0.2431  0.1451
 1063SOL    HW1 7105   5.696   7.213   8.296 -0.8268  1.3361  0.2186
 1063SOL    HW2 7106   5.753   7.295   8.182 -0.9553  0.8628 -0.1908
 1064SOL     OW 7107  10.004   8.549   3.983 -0.5808 -0.4834  0.1997
 1064SOL    HW1 7108  10.077   8.591   3.937 -0.9360  0.1053  0.1600
 1064SOL    HW2 7109  10.003   8.589   4.069 -2.1949  1.1393 -0.5121
 1065SOL     OW 7110   2.271   9.984   4.651  0.0699 -0.2262  0.0215
 1065SOL    HW1 7111   2.227  10.037   4.584  0.2114 -0.7456 -0.4996
 1065SOL    HW2 7112   2.333   9.931   4.601  0.6284 -0.1691  0.6459
 1066SOL     OW 7113   7.782   4.282   3.681  0.1687  0.7477  0.1977
 1066SOL    HW1 7114   7.875   4.282   3.701  0.6623 -3.0554 -1.2191
 1066SOL    HW2 7115   7.746   4.212   3.735 -1.6319  1.2686 -0.2395
 1067SOL     OW 7116  10.175   8.768   2.804 -0.2136  0.2395 -0.4212
 1067SOL    HW1 7117  10.107   8.718   2.849 -0.8690  1.1102 -0.4404
 1067SOL    HW2 7118  10.188   8.846   2.857  0.2568  0.4272 -0.8027
 1068SOL     OW 7119   2.923   8.074   5.832 -0.0617  0.5517 -0.4160
 1068SOL    HW1 7120   2.925   8.135   5.758 -1.3232  1.1980  0.0438
 1068SOL    HW2 7121   2.986   8.110   5.894 -0.4694  1.1479 -0.3383
 1069SOL     OW 7122   8.617   5.922   4.070  0.2448  0.1390  0.4125
 1069SOL    HW1 7123   8.709   5.947   4.067  0.0230  1.0678  0.9833
 1069SOL    HW2 7124   8.570   6.005   4.080 -0.6003 -0.3970  1.0054
 1070SOL     OW 7125   0.212   2.026   3.319 -0.3383 -0.0761 -0.9676
 1070SOL    HW1 7126   0.175   2.114   3.314  2.8933  1.4240 -1.6432
 1070SOL    HW2 7127   0.158   1.973   3.261 -0.1308  2.4579 -3.7119
 1071SOL     OW 7128   2.331   4.820   8.564  0.2316 -0.1404 -0.7553
 1071SOL    HW1 7129   2.292   4.878   8.631  1.5575 -1.0734  0.9027
 1071SOL    HW2 7130   2.295   4.734   8.584  1.0140 -0.5142 -0.9441
 1072SOL     OW 7131   7.053   1.706   7.447 -0.1240 -0.0628  0.6923
 1072SOL    HW1 7132   6.997   1.639   7.487  0.0609 -1.4127 -1.1707
 1072SOL    HW2 7133   7.003   1.739   7.373 -0.6760  2.7864  2.2011
 1073SOL     OW 7134   3.412  10.178   6.980  0.5331 -0.1141  0.1830
 1073SOL    HW1 7135   3.331  10.167   7.030  0.7929  0.1641  0.6723
 1073SOL    HW2 7136   3.413  10.104   6.918  0.3852 -0.6718  0.8354
 1074SOL     OW 7137   2.893   0.705   4.413 -0.4990 -0.2196  0.4367
 1074SOL    HW1 7138   2.822   0.641   4.407 -0.8624  0.2519 -0.6278
 1074SOL    HW2 7139   2.953   0.682   4.342 -0.3840  0.3083  0.3572
 1075SOL     OW 7140   4.956   0.551   3.566  0.3445  0.1534 -0.3178
 1075SOL    HW1 7141   4.869   0.587   3.550  0.0546  1.2262  2.9832
 1075SOL    HW2 7142   5.000   0.557   3.481 -1.1836  4.2176 -1.0587
 1076SOL     OW 7143   7.621   6.817   7.605 -0.5412 -0.3008 -0.3336
 1076SOL    HW1 7144   7.703   6.808   7.557 -0.1072  0.7227  0.1995
 1076SOL    HW2 7145   7.610   6.911   7.618 -0.0815 -0.5674  2.5385
 1077SOL     OW 7146   8.445   0.396   8.033 -0.1735  0.1295  0.5654
 1077SOL    HW1 7147   8.465   0.423   8.122 -0.3966 -1.3938  1.0953
 1077SOL    HW2 7148   8.435   0.301   8.037 -1.5615  0.1602 -0.7985
 1078SOL     OW 7149   2.011   4.346   5.264 -0.2091  0.2382 -0.1683
 1078SOL    HW1 7150   1.988   4.423   5.317 -0.2847  0.0637  0.0500
 1078SOL    HW2 7151   1.957   4.355   5.185  0.6153  1.0137 -0.6617
 1079SOL     OW 7152   0.494   8.806   5.655 -0.7080  0.5671 -0.3277
 1079SOL    HW1 7153   0.551   8.855   5.714 -2.8593  0.5747  1.8745
 1079SOL    HW2 7154   0.551   8.783   5.581  1.5983  2.2240  0.8023
 1080SOL     OW 7155   0.452   3.998   2.118 -0.1320 -0.1494  0.3416
 1080SOL    HW1 7156   0.363   3.977   2.147 -0.7130  0.2468 -1.0655
 1080SOL    HW2 7157   0.505   3.927   2.154 -1.5308 -2.2325 -1.4354
 1081SOL     OW 7158   5.853   2.451   5.531 -0.2752  0.2888 -0.3208
 1081SOL    HW1 7159   5.840   2.359   5.509  1.2322  0.3406 -1.6112
 1081SOL    HW2 7160   5.866   2.451   5.626  0.4526 -0.9609 -0.3968
 1082SOL     OW 7161   5.510   7.407   5.541  0.0221 -0.2476 -0.0501
 1082SOL    HW1 7162   5.570   7.403   5.615  0.9363  1.7378 -0.6234
 1082SOL    HW2 7163   5.430   7.446   5.575 -0.4934 -1.6217  0.3990
 1083SOL     OW 7164   1.205   0.251   1.406  0.1995 -0.0819 -0.3151
 1083SOL    HW1 7165   1.140   0.188   1.437 -0.7466  1.5065  1.0969
 1083SOL    HW2 7166   1.284   0.231   1.455  0.1134 -0.6163 -0.3956
 1084SOL     OW 7167   2.169   1.377   6.095 -0.5109  0.3204  0.5374
 1084SOL    HW1 7168   2.094   1.401   6.149 -1.1487 -2.3078  0.9569
 1084SOL    HW2 7169   2.134   1.374   6.006 -0.8763 -0.7301  0.7104
 1085SOL     OW 7170   5.662   3.251   6.757  0.1203 -0.3699  0.0547
 1085SOL    HW1 7171   5.654   3.156   6.756 -1.2218 -0.2645 -0.1175
 1085SOL    HW2 7172   5.721   3.271   6.684  1.1141 -1.1072  0.6260
 1086SOL     OW 7173   1.219   6.130   2.880 -0.1853 -0.8316  0.0267
 1086SOL    HW1 7174   1.133   6.121   2.921 -0.8044  1.3311 -0.6481
 1086SOL    HW2 7175   1.255   6.210   2.918  0.2644 -0.1201 -1.7937
 1087SOL     OW 7176   7.811   9.052   2.750  0.4456 -0.2230  0.6702
 1087SOL    HW1 7177   7.727   9.007   2.760  1.2100 -2.1605 -0.7763
 1087SOL    HW2 7178   7.859   9.032   2.830 -0.0305 -0.1499  0.9767
 1088SOL     OW 7179   1.167   9.525   8.022 -0.2363 -0.0311  0.2105
 1088SOL    HW1 7180   1.210   9.552   8.103 -0.7292 -1.5821  1.0178
 1088SOL    HW2 7181   1.227   9.552   7.953  2.1609 -2.2036  1.2866
 1089SOL     OW 7182   2.503   1.231   9.813  0.3984 -0.1355  0.1764
 1089SOL    HW1 7183   2.534   1.157   9.865 -1.1271 -0.7028  0.3364
 1089SOL    HW2 7184   2.432   1.268   9.866  1.4774  1.7858  0.3524
 1090SOL     OW 7185   5.453   2.749   7.594 -0.4634  0.0657  0.1464
 1090SOL    HW1 7186   5.548   2.765   7.598 -0.5637  0.5080  0.9133
 1090SOL    HW2 7187   5.426   2.744   7.685 -1.6824  2.9301  0.0298
 1091SOL     OW 7188   6.402   1.555   6.429 -0.0723 -0.4372 -0.1663
 1091SOL    HW1 7189   6.374   1.464   6.420  2.2496 -1.3600  1.0044
 1091SOL    HW2 7190   6.417   1.585   6.339  2.2524 -2.3492 -0.5147
 1092SOL     OW 7191   8.051   8.471   8.318 -0.2404 -0.2431 -0.1648
 1092SOL    HW1 7192   8.074   8.471   8.225 -1.6933 -2.0482 -0.5736
 1092SOL    HW2 7193   8.104   8.542   8.356 -1.5633  2.3482 -2.8118
 1093SOL     OW 7194   4.451   1.672   0.322 -0.0438  0.0613 -0.0248
 1093SOL    HW1 7195   4.462   1.577   0.329  1.4136  0.3096  2.1394
 1093SOL    HW2 7196   4.363   1.689   0.357 -1.1119 -0.5984 -2.2350
 1094SOL     OW 7197   0.047   6.180   7.088  0.1339  0.1612  0.2245
 1094SOL    HW1 7198   0.090   6.140   7.012 -0.5745  0.2900 -0.2626
 1094SOL    HW2 7199   0.115   6.232   7.130  0.3608  0.6799 -0.7510
 1095SOL     OW 7200   1.825   3.690   0.270  0.0838 -0.2449  0.1089
 1095SOL    HW1 7201   1.818   3.711   0.177  0.3567 -0.2719  0.0815
 1095SOL    HW2 7202   1.902   3.738   0.299 -1.0044  1.1960  0.7259
 1096SOL     OW 7203   3.291   7.462   2.114  0.2093  0.6945 -0.0349
 1096SOL    HW1 7204   3.268   7.496   2.201 -0.0597  2.1869 -0.6519
 1096SOL    HW2 7205   3.343   7.384   2.132 -0.0994  0.7923  1.4661
 1097SOL     OW 7206   1.848   4.924   3.814 -1.0135  0.4984  0.9894
 1097SOL    HW1 7207   1.871   4.846   3.762 -1.6131 -0.4480  2.1020
 1097SOL    HW2 7208   1.753   4.930   3.806 -0.9507  1.2931  0.7075
 1098SOL     OW 7209   6.879   7.011   2.996 -0.1255  0.3565 -0.0501
 1098SOL    HW1 7210   6.921   7.021   2.910 -1.0565  0.2008 -0.5464
 1098SOL    HW2 7211   6.930   6.944   3.041  0.9287  1.0991 -0.1194
 1099SOL     OW 7212   4.714   1.688   4.794  0.1303  0.4417 -0.0698
 1099SOL    HW1 7213   4.684   1.776   4.772 -2.1590 -0.1948  0.2064
 1099SOL    HW2 7214   4.746   1.695   4.883  0.0412  1.0201 -0.0792
 1100SOL     OW 7215   4.080   0.762   9.334 -0.4718 -0.0159  0.3229
 1100SOL    HW1 7216   4.165   0.778   9.375 -0.8863 -1.6116  1.9814
 1100SOL    HW2 7217   4.099   0.703   9.262 -0.2500 -1.5191  1.5437
 1101SOL     OW 7218   1.522   1.896   1.996  0.2394 -0.6082  0.2074
 1101SOL    HW1 7219   1.532   1.981   1.953 -0.9753 -1.6246 -2.3184
 1101SOL    HW2 7220   1.455   1.911   2.063 -1.4272  0.0780 -1.5041
 1102SOL     OW 7221   1.701  10.201   9.806 -0.0661 -0.3274 -0.1199
 1102SOL    HW1 7222   1.718  10.256   9.882 -0.0552 -0.2300 -0.1924
 1102SOL    HW2 7223   1.614  10.165   9.821 -0.2026 -0.0384 -0.2255
 1103SOL     OW 7224   9.895  10.164   9.801  0.1866 -0.1277  0.1914
 1103SOL    HW1 7225   9.804  10.192   9.793  0.2781  0.3527  0.8216
 1103SOL    HW2 7226   9.906  10.142   9.893 -0.0328 -2.7786 -0.3355
 1104SOL     OW 7227  10.136   6.157   2.626  0.0654  0.0428  0.4884
 1104SOL    HW1 7228  10.072   6.161   2.697 -1.0475 -0.3873 -0.4613
 1104SOL    HW2 7229  10.085   6.135   2.548  0.9273  2.4733 -0.8745
 1105SOL     OW 7230   3.781   9.374   1.444  0.0105 -0.4953 -0.3772
 1105SOL    HW1 7231   3.800   9.302   1.505 -0.4500 -0.6404 -0.4020
 1105SOL    HW2 7232   3.686   9.374   1.436  0.0352 -0.1355 -0.6901
 1106SOL     OW 7233   7.414   2.290   8.836 -0.3950  0.4526  0.6192
 1106SOL    HW1 7234   7.384   2.219   8.892 -2.3803  1.2386  0.6196
 1106SOL    HW2 7235   7.464   2.348   8.894  0.0955 -0.2331  0.8967
 1107SOL     OW 7236   2.328   4.918   1.957 -0.4708  0.1024  0.1036
 1107SOL    HW1 7237   2.365   4.928   2.045 -3.1427  0.5404  1.2860
 1107SOL    HW2 7238   2.356   4.995   1.909  2.0561 -0.7400  0.1154
 1108SOL     OW 7239   0.481   2.641   1.357  0.6678 -0.1085  0.1859
 1108SOL    HW1 7240   0.549   2.581   1.386  1.7520  0.5702 -0.8454
 1108SOL    HW2 7241   0.462   2.695   1.434  0.9499 -0.6199  0.6197
 1109SOL     OW 7242   0.960   7.179   9.273 -0.6058  0.1067  0.9933
 1109SOL    HW1 7243   1.027   7.219   9.328 -0.8499 -0.3676  1.6365
 1109SOL    HW2 7244   1.007   7.113   9.222 -0.1810  1.2307 -0.1429
 1110SOL     OW 7245   2.475   9.268   1.428 -0.8672  0.3724 -0.7110
 1110SOL    HW1 7246   2.531   9.199   1.393 -4.0867 -2.6888 -0.4519
 1110SOL    HW2 7247   2.511   9.286   1.515  0.9043  0.1648 -1.3547
 1111SOL     OW 7248   0.469   5.384   8.196 -0.1833  0.0262  0.0862
 1111SOL    HW1 7249   0.548   5.395   8.250 -0.0867 -1.5828  0.3290
 1111SOL    HW2 7250   0.460   5.467   8.150  1.8561  0.1405 -0.1935
 1112SOL     OW 7251   5.764   4.862   8.615  0.2298  0.1944  0.0760
 1112SOL    HW1 7252   5.784   4.948   8.652  1.5437  0.5882 -1.4619
 1112SOL    HW2 7253   5.795   4.800   8.681  0.9957  0.8842  0.3851
 1113SOL     OW 7254   9.866   4.611   0.890 -0.0590 -0.0093 -0.1807
 1113SOL    HW1 7255   9.825   4.689   0.852  0.4351  0.5753  0.4671
 1113SOL    HW2 7256   9.948   4.643   0.927  0.9868 -1.1436 -1.4071
 1114SOL     OW 7257   4.275   8.589   8.938 -0.2874  0.4304 -0.1048
 1114SOL    HW1 7258   4.317   8.509   8.970  2.6419  1.8389 -0.1549
 1114SOL    HW2 7259   4.233   8.626   9.016 -0.6101 -0.4819  0.1732
 1115SOL     OW 7260   0.822   2.784   6.885 -0.3732  0.4484 -0.1717
 1115SOL    HW1 7261   0.884   2.856   6.875 -0.5595  0.5111 -1.0113
 1115SOL    HW2 7262   0.814   2.771   6.979  0.4337  0.8567 -0.0396
 1116SOL     OW 7263   5.584   6.300   7.340  0.3725  0.6026 -0.2536
 1116SOL    HW1 7264   5.631   6.249   7.274 -2.0469 -2.6440  0.3188
 1116SOL    HW2 7265   5.637   6.291   7.419  0.5929  0.0314 -0.4654
 1117SOL     OW 7266   8.678   6.121  10.153  0.1100  0.3724 -0.0301
 1117SOL    HW1 7267   8.772   6.107  10.167  0.1705  2.1000  1.9658
 1117SOL    HW2 7268   8.636   6.076  10.226 -0.6741 -0.7044 -1.1192
 1118SOL     OW 7269   6.157   1.268   8.645  0.7480  0.0396 -0.3274
 1118SOL    HW1 7270   6.067   1.292   8.668 -0.5191 -0.7389 -3.7550
 1118SOL    HW2 7271   6.207   1.349   8.654 -0.1173  0.3821  2.1066
 1119SOL     OW 7272   8.824   5.695   2.425  0.0504 -0.1336 -0.2967
 1119SOL    HW1 7273   8.784   5.611   2.449 -3.2514  0.9028 -1.6712
 1119SOL    HW2 7274   8.799   5.755   2.496  0.3676  0.2383 -0.4941
 1120SOL     OW 7275   1.206   7.568   5.537  0.1746 -0.7807 -0.0507
 1120SOL    HW1 7276   1.247   7.644   5.578 -0.0071  1.6887 -3.9364
 1120SOL    HW2 7277   1.279   7.509   5.516  0.7549 -0.0891  0.0081
 1121SOL     OW 7278   3.741   4.552   5.115 -0.0009  0.1603 -0.2230
 1121SOL    HW1 7279   3.819   4.582   5.163 -0.3867  0.3740  0.2796
 1121SOL    HW2 7280   3.717   4.469   5.156 -0.8837  0.7975  0.6022
 1122SOL     OW 7281   8.028   8.626   8.080  0.2682 -0.3200  0.1836
 1122SOL    HW1 7282   7.991   8.711   8.103 -1.6351 -0.7941 -0.9197
 1122SOL    HW2 7283   7.963   8.586   8.023  1.8913 -1.8256 -0.7129
 1123SOL     OW 7284   3.350   9.308   4.501 -0.1368  0.7353  0.9597
 1123SOL    HW1 7285   3.364   9.382   4.561  0.2771 -0.2334  2.1000
 1123SOL    HW2 7286   3.401   9.237   4.539 -0.2400 -0.0465 -0.3169
 1124SOL     OW 7287   3.960   1.167   5.939  0.3164 -0.2391  0.2820
 1124SOL    HW1 7288   3.942   1.245   5.992  2.5372  0.2833  0.3435
 1124SOL    HW2 7289   3.880   1.115   5.945 -1.9598  2.7831 -1.1895
 1125SOL     OW 7290   9.280   9.801   4.836 -0.1760 -0.6221  0.0567
 1125SOL    HW1 7291   9.253   9.759   4.918  2.6411 -1.3257  0.7461
 1125SOL    HW2 7292   9.277   9.730   4.771  0.6720 -0.8944  0.3034
 1126SOL     OW 7293   2.062   0.465   7.884  0.2694 -0.4602  0.2880
 1126SOL    HW1 7294   2.052   0.390   7.942  0.3804 -0.7544 -0.0662
 1126SOL    HW2 7295   2.075   0.540   7.942 -1.3782 -0.4614  0.7065
 1127SOL     OW 7296   9.713   8.617   2.525  0.3820 -0.0213 -0.5267
 1127SOL    HW1 7297   9.712   8.658   2.612 -1.4284 -2.4632  0.7325
 1127SOL    HW2 7298   9.624   8.626   2.493  0.5539 -0.8225 -1.2766
 1128SOL     OW 7299   1.245   4.466   0.891 -0.5089  0.1404 -0.0462
 1128SOL    HW1 7300   1.270   4.416   0.968  0.8840  0.8305 -0.0249
 1128SOL    HW2 7301   1.179   4.528   0.923 -2.3242 -1.6674 -0.0979
 1129SOL     OW 7302   4.500   7.600   2.882  0.1071 -1.0914 -0.6141
 1129SOL    HW1 7303   4.466   7.514   2.858 -0.3426 -0.9052 -0.6581
 1129SOL    HW2 7304   4.565   7.583   2.950  0.5325 -1.5267 -1.1250
 1130SOL     OW 7305   7.497   9.845   9.742 -0.1141 -0.2094  0.2493
 1130SOL    HW1 7306   7.530   9.853   9.653  2.1824  0.0114  1.0558
 1130SOL    HW2 7307   7.495   9.751   9.759 -0.0215 -0.2310  0.1457
 1131SOL     OW 7308   8.523   4.397   3.757  0.5905 -0.0938  0.3948
 1131SOL    HW1 7309   8.489   4.385   3.846  0.2230  0.8118  0.3928
 1131SOL    HW2 7310   8.573   4.478   3.761  0.3036  0.1311 -0.2946
 1132SOL     OW 7311   2.603   5.850   2.726 -0.1722 -0.0596 -0.0800
 1132SOL    HW1 7312   2.554   5.867   2.646  0.8162  1.9562 -0.3275
 1132SOL    HW2 7313   2.600   5.932   2.774 -0.3693 -1.1003  1.7697
 1133SOL     OW 7314   9.304   2.510   3.912  0.6325 -0.3228  0.6190
 1133SOL    HW1 7315   9.333   2.434   3.961 -1.6472 -0.7970  1.3483
 1133SOL    HW2 7316   9.337   2.495   3.823  0.6230 -1.9429  0.8561
 1134SOL     OW 7317   2.439   1.919   4.174 -0.4711 -0.5112  0.1579
 1134SOL    HW1 7318   2.366   1.936   4.114 -0.5122  1.6443  0.7372
 1134SOL    HW2 7319   2.452   2.002   4.219  2.0999 -0.9639  0.3750
 1135SOL     OW 7320   1.081   5.792   3.839  0.4810  0.6056  0.5332
 1135SOL    HW1 7321   1.075   5.705   3.881 -1.5510  0.7521  0.6441
 1135SOL    HW2 7322   1.123   5.847   3.905  0.4095  0.0585  1.0472
 1136SOL     OW 7323   5.123   2.570   0.345 -0.0792  0.1243 -0.3477
 1136SOL    HW1 7324   5.152   2.590   0.256 -3.5835 -1.0590 -1.9259
 1136SOL    HW2 7325   5.114   2.475   0.347 -0.4107  0.1586  1.1565
 1137SOL     OW 7326   7.816   2.327   1.313 -0.0598  0.3181 -0.6621
 1137SOL    HW1 7327   7.895   2.318   1.261 -0.6540  0.9527 -1.7303
 1137SOL    HW2 7328   7.763   2.390   1.264 -2.0445 -1.5042 -1.0166
 1138SOL     OW 7329  10.127   2.595   6.996 -0.1095  0.1289 -0.0523
 1138SOL    HW1 7330  10.093   2.654   6.930 -0.1702  0.6686  0.4548
 1138SOL    HW2 7331  10.054   2.583   7.058 -0.5579 -1.5497 -0.8547
 1139SOL     OW 7332   9.101   0.075   8.617 -0.2116 -0.0569  0.6914
 1139SOL    HW1 7333   9.033   0.034   8.563  0.5821 -0.0641 -0.3489
 1139SOL    HW2 7334   9.081   0.169   8.613  0.6262  0.0949 -0.8143
 1140SOL     OW 7335   9.570   2.467   6.969  0.3628  0.2062 -0.4947
 1140SOL    HW1 7336   9.590   2.406   6.898  0.5923 -0.4038  0.0844
 1140SOL    HW2 7337   9.609   2.427   7.046  0.4842  1.0712 -0.0930
 1141SOL     OW 7338   2.131   8.046   6.554  0.1478  0.2265  0.1601
 1141SOL    HW1 7339   2.042   8.021   6.530  1.1677 -2.8137 -1.0631
 1141SOL    HW2 7340   2.120   8.111   6.624 -3.0128 -1.1663  1.1648
 1142SOL     OW 7341   5.659   7.193   0.716  0.0872 -0.0195  0.4740
 1142SOL    HW1 7342   5.705   7.256   0.661 -1.0273  0.0566 -0.3887
 1142SOL    HW2 7343   5.701   7.202   0.802  1.6508  0.0665 -0.2523
 1143SOL     OW 7344   5.690   3.770   5.857  0.6619  0.1278  0.1911
 1143SOL    HW1 7345   5.675   3.860   5.829 -1.1574 -0.1304  0.1913
 1143SOL    HW2 7346   5.781   3.752   5.835  0.3986  1.2094 -1.9654
 1144SOL     OW 7347   6.874   9.116   2.749 -0.1491 -0.4904 -0.1384
 1144SOL    HW1 7348   6.895   9.195   2.800  0.2990 -0.0216 -1.0238
 1144SOL    HW2 7349   6.784   9.095   2.774  0.0656 -0.2846  0.8541
 1145SOL     OW 7350   5.075   6.128   5.209  0.2756 -0.2803 -0.1183
 1145SOL    HW1 7351   5.001   6.157   5.156  0.0316  0.9102  0.8473
 1145SOL    HW2 7352   5.036   6.074   5.278  0.4512 -0.6820 -0.3268
 1146SOL     OW 7353  10.178   2.859   1.909 -0.0970  0.0855  0.1401
 1146SOL    HW1 7354  10.182   2.843   2.004  0.3906 -0.9123 -0.0320
 1146SOL    HW2 7355  10.199   2.951   1.899 -1.0176  0.4195  1.0700
 1147SOL     OW 7356   6.138   7.807   0.158  0.3882 -0.3392  0.2135
 1147SOL    HW1 7357   6.153   7.865   0.233  0.8495  1.7277 -1.3819
 1147SOL    HW2 7358   6.043   7.805   0.147  0.3154 -0.7088  0.8760
 1148SOL     OW 7359   8.576  10.130   7.075 -0.3062 -0.2830 -0.1756
 1148SOL    HW1 7360   8.513  10.135   7.003 -1.3903 -2.0613  0.5906
 1148SOL    HW2 7361   8.601  10.221   7.091 -1.9474  0.3866 -1.1338
 1149SOL     OW 7362   9.396   8.330   9.289 -0.0195  0.3310  0.3877
 1149SOL    HW1 7363   9.436   8.259   9.339 -1.0913 -0.5335  0.0439
 1149SOL    HW2 7364   9.334   8.287   9.231  0.0388  1.4681 -0.5545
 1150SOL     OW 7365   7.431   7.318   4.490  0.0936 -0.2742 -0.5970
 1150SOL    HW1 7366   7.338   7.327   4.510 -0.0893 -0.1555 -1.4837
 1150SOL    HW2 7367   7.445   7.224   4.479  0.1455 -0.3183 -0.1934
 1151SOL     OW 7368   3.717   2.045   2.174 -0.1497 -0.3425  0.0869
 1151SOL    HW1 7369   3.627   2.033   2.144  0.3273  0.9736 -2.0804
 1151SOL    HW2 7370   3.758   1.959   2.159 -0.8913 -0.8042  0.6100
 1152SOL     OW 7371   2.121   7.276   9.264  0.2375 -0.0216 -0.2820
 1152SOL    HW1 7372   2.035   7.313   9.283  0.7430  1.0785 -0.0390
 1152SOL    HW2 7373   2.105   7.184   9.246 -1.1201  0.3826 -1.2592
 1153SOL     OW 7374   4.643   8.931   6.406 -0.2971 -0.6003 -0.5349
 1153SOL    HW1 7375   4.652   9.004   6.345  0.6083 -0.2154  0.0287
 1153SOL    HW2 7376   4.552   8.905   6.399 -0.9792  1.4028  0.1461
 1154SOL     OW 7377   2.146   6.687   8.787  0.0705  0.3337 -0.0730
 1154SOL    HW1 7378   2.236   6.670   8.760  0.1823  0.8478 -0.0426
 1154SOL    HW2 7379   2.114   6.603   8.820  1.2325  0.6007  1.8946
 1155SOL     OW 7380   1.842   4.343   5.049 -0.5091  0.0599 -0.7148
 1155SOL    HW1 7381   1.771   4.325   4.988 -0.5532 -1.4316 -0.2723
 1155SOL    HW2 7382   1.922   4.326   5.000 -0.4056  2.2357 -1.3663
 1156SOL     OW 7383   5.669   6.125   9.140  0.1030 -0.2695  0.3824
 1156SOL    HW1 7384   5.574   6.140   9.139 -0.0414 -1.1537 -0.0839
 1156SOL    HW2 7385   5.701   6.179   9.212 -0.7562  0.0363  0.5482
 1157SOL     OW 7386   3.935   5.884   0.809  0.1845  0.0605 -0.1930
 1157SOL    HW1 7387   3.874   5.821   0.770 -1.4535  1.3611  0.1178
 1157SOL    HW2 7388   3.945   5.952   0.743  0.9796  0.0684 -0.0701
 1158SOL     OW 7389   8.153   7.581   7.933 -0.6101  0.1906  0.0538
 1158SOL    HW1 7390   8.151   7.648   8.001  1.1806 -1.5186  1.9114
 1158SOL    HW2 7391   8.240   7.589   7.893 -0.9166 -0.1112 -0.7043
 1159SOL     OW 7392   4.050   6.693   6.431 -0.2302  0.0620 -0.4156
 1159SOL    HW1 7393   4.010   6.621   6.382 -0.5109  0.9968 -1.5893
 1159SOL    HW2 7394   3.995   6.703   6.509  0.2495 -1.4666  0.1647
 1160SOL     OW 7395   3.411   7.378   5.576  0.0964  0.0037 -0.6495
 1160SOL    HW1 7396   3.389   7.467   5.547  1.2518  0.0601 -1.4264
 1160SOL    HW2 7397   3.443   7.390   5.666  2.1736  0.6991 -1.4193
 1161SOL     OW 7398   4.939   0.743   7.219 -0.1140 -0.7101  0.1882
 1161SOL    HW1 7399   4.996   0.794   7.277  0.9851 -2.3601  0.6237
 1161SOL    HW2 7400   4.913   0.805   7.151 -0.4032  0.9406  1.7261
 1162SOL     OW 7401   9.697   8.708   2.790 -0.6372 -0.3291  0.3122
 1162SOL    HW1 7402   9.621   8.694   2.847 -0.0313 -0.6469  1.0511
 1162SOL    HW2 7403   9.743   8.782   2.830  0.2745 -1.1175  0.7686
 1163SOL     OW 7404   2.092   2.046   3.672  0.7214  0.2302  0.2599
 1163SOL    HW1 7405   2.106   2.055   3.766  2.1188  0.4340  0.0461
 1163SOL    HW2 7406   2.014   1.991   3.665  0.6683  0.1139  1.5307
 1164SOL     OW 7407   2.884   4.911   6.823  0.1608 -0.1984  0.2495
 1164SOL    HW1 7408   2.881   4.818   6.803  0.6858 -0.2607  0.4600
 1164SOL    HW2 7409   2.892   4.915   6.919 -0.1694  0.0695  0.2705
 1165SOL     OW 7410   2.494   3.372   1.120  0.6191  0.3927 -0.0149
 1165SOL    HW1 7411   2.461   3.287   1.091  0.0020  0.1945  1.1784
 1165SOL    HW2 7412   2.586   3.374   1.092  0.2821 -0.1131 -1.1853
 1166SOL     OW 7413   6.551   3.350  10.104 -0.3180 -0.2631 -0.1680
 1166SOL    HW1 7414   6.530   3.297  10.180  0.4631 -0.2103  0.0870
 1166SOL    HW2 7415   6.644   3.369  10.112 -0.3007  0.0336 -0.9545
 1167SOL     OW 7416   7.373   6.958   2.057  0.1160  0.0315 -0.0821
 1167SOL    HW1 7417   7.411   6.967   2.144  2.9422 -0.0782 -1.1595
 1167SOL    HW2 7418   7.353   7.048   2.030  0.4923  0.2033  0.1970
 1168SOL     OW 7419   5.870   2.986   4.254  0.0349 -0.4034  0.0988
 1168SOL    HW1 7420   5.911   3.070   4.276 -1.1158  0.2988 -0.3609
 1168SOL    HW2 7421   5.879   2.934   4.334 -0.1005  0.5103  0.7263
 1169SOL     OW 7422   0.041   9.816   2.116 -0.8788 -0.0200  0.2680
 1169SOL    HW1 7423  -0.004   9.731   2.122 -0.4238 -0.4543 -1.6334
 1169SOL    HW2 7424  -0.026   9.876   2.084 -1.1970  0.3597  1.6003
 1170SOL     OW 7425   1.782   1.702   7.591  0.1991 -0.5218 -0.2612
 1170SOL    HW1 7426   1.695   1.665   7.579  0.0001  0.2541 -1.3444
 1170SOL    HW2 7427   1.793   1.763   7.519  0.9668  0.7015  0.8335
 1171SOL     OW 7428   6.078   0.883   9.215 -0.0322  0.2503 -0.2797
 1171SOL    HW1 7429   6.095   0.973   9.188 -1.6145  0.4530 -0.6925
 1171SOL    HW2 7430   6.082   0.885   9.310  2.4743  0.1918 -0.3245
 1172SOL     OW 7431   4.279   4.063   5.313 -0.0568  0.3576 -0.2366
 1172SOL    HW1 7432   4.193   4.068   5.272 -0.2519  1.9584  0.3085
 1172SOL    HW2 7433   4.290   4.147   5.356  0.7471 -0.7292  1.8095
 1173SOL     OW 7434   4.383   2.235   7.644  0.1178  0.2742  0.0508
 1173SOL    HW1 7435   4.411   2.320   7.678  2.6896  0.4398 -2.1131
 1173SOL    HW2 7436   4.302   2.253   7.598 -0.2394  1.1897  0.9873
 1174SOL     OW 7437   6.965   2.912   2.038 -0.4662 -0.1514 -0.0614
 1174SOL    HW1 7438   6.891   2.915   2.098  1.5269  0.9906  2.5358
 1174SOL    HW2 7439   6.977   2.819   2.019 -4.1096 -0.2856 -2.8445
 1175SOL     OW 7440   8.925   6.963   8.534  0.1434 -0.3262  0.2386
 1175SOL    HW1 7441   9.007   6.915   8.522 -0.6930 -1.6824 -0.2890
 1175SOL    HW2 7442   8.879   6.916   8.604 -1.7175 -1.8065 -1.8387
 1176SOL     OW 7443   7.225   1.615   0.876  0.4076  0.2976  0.6816
 1176SOL    HW1 7444   7.268   1.549   0.931 -0.9633 -1.0680  0.1722
 1176SOL    HW2 7445   7.176   1.669   0.938 -0.5453 -0.7879  0.9096
 1177SOL     OW 7446   1.304   2.017   1.630 -0.2855  0.0089 -0.0846
 1177SOL    HW1 7447   1.278   1.947   1.689 -0.3415  1.1184  1.2533
 1177SOL    HW2 7448   1.387   1.988   1.593 -0.2176 -0.6720  0.5806
 1178SOL     OW 7449   7.064   8.911   4.682 -0.5126 -0.0572  0.3654
 1178SOL    HW1 7450   7.020   8.863   4.752  1.3907 -0.5351  1.2917
 1178SOL    HW2 7451   7.074   9.000   4.716  0.8989 -0.4230  0.9745
 1179SOL     OW 7452   0.354   2.190   6.502  0.1487  0.2757  0.0245
 1179SOL    HW1 7453   0.326   2.102   6.527 -0.3812  0.2930 -0.5047
 1179SOL    HW2 7454   0.449   2.190   6.518  0.0700 -0.2168  0.5229
 1180SOL     OW 7455   1.971   6.075  10.168  0.0835  0.2040  0.0196
 1180SOL    HW1 7456   1.972   6.157  10.217  0.2778 -0.1566  0.6222
 1180SOL    HW2 7457   1.956   6.007  10.233  1.0419 -0.3477 -0.3081
 1181SOL     OW 7458   4.120   5.176   9.074 -0.4842 -0.8148  0.0387
 1181SOL    HW1 7459   4.057   5.221   9.131 -1.1534 -0.7921 -0.7097
 1181SOL    HW2 7460   4.206   5.198   9.112 -0.8033  0.7802 -0.0790
 1182SOL     OW 7461   3.276   6.473   9.341 -0.7759 -0.2790  0.6723
 1182SOL    HW1 7462   3.190   6.452   9.377 -2.1365  0.4857 -1.8825
 1182SOL    HW2 7463   3.263   6.556   9.294  1.3051 -0.2695  0.0182
 1183SOL     OW 7464   1.322   7.452   1.825 -0.0606  0.7172  0.0012
 1183SOL    HW1 7465   1.415   7.465   1.804 -0.2388  0.3988 -1.0290
 1183SOL    HW2 7466   1.289   7.398   1.753 -1.0555  0.8596  0.3439
 1184SOL     OW 7467   6.407   9.719   9.491 -0.3181  0.3582  0.1659
 1184SOL    HW1 7468   6.351   9.758   9.559  1.4546  3.5171 -0.0202
 1184SOL    HW2 7469   6.479   9.781   9.481  0.3560 -0.8000 -3.4886
 1185SOL     OW 7470   1.764   7.133   6.757  0.1376 -0.1763 -0.1008
 1185SOL    HW1 7471   1.722   7.081   6.688 -1.0749  1.8538 -0.9557
 1185SOL    HW2 7472   1.853   7.097   6.762 -0.5396 -2.0979 -0.8644
 1186SOL     OW 7473   2.712   5.984   4.793 -0.1355  0.4018 -0.1850
 1186SOL    HW1 7474   2.754   6.055   4.743 -0.0021 -0.5310 -1.4263
 1186SOL    HW2 7475   2.723   5.906   4.739 -1.7119 -0.2705  0.4078
 1187SOL     OW 7476   3.428  10.188   3.430 -0.1670  0.3482 -0.5695
 1187SOL    HW1 7477   3.475  10.128   3.488  1.2887 -0.1955 -2.2011
 1187SOL    HW2 7478   3.482  10.266   3.427  0.6452 -0.2223 -2.3449
 1188SOL     OW 7479   5.728   8.083   7.804  0.0821 -0.0900  0.1020
 1188SOL    HW1 7480   5.781   8.110   7.879  0.7656 -2.9862  0.7955
 1188SOL    HW2 7481   5.753   7.992   7.789 -2.4825 -0.6260 -1.5370
 1189SOL     OW 7482   2.456   7.947   5.071 -0.0027 -0.4428  0.0267
 1189SOL    HW1 7483   2.415   8.006   5.008  0.0273 -0.6141 -0.1545
 1189SOL    HW2 7484   2.511   7.890   5.018  1.4706  0.5914  0.3817
 1190SOL     OW 7485   5.458   8.104  10.020 -0.2440  0.6043 -0.7606
 1190SOL    HW1 7486   5.531   8.044  10.030 -0.3723  0.5812  0.1376
 1190SOL    HW2 7487   5.490   8.173   9.961  0.7247  0.9474  0.1518
 1191SOL     OW 7488   4.468   2.009   1.649  0.2458  0.5042 -0.0138
 1191SOL    HW1 7489   4.536   1.955   1.611  0.0668 -1.1695  1.8784
 1191SOL    HW2 7490   4.389   1.986   1.601 -0.3257 -2.8379  2.2101
 1192SOL     OW 7491   4.033   9.142   9.877 -0.7918 -0.2043 -0.3274
 1192SOL    HW1 7492   4.005   9.230   9.902 -0.3295  0.0308 -0.6146
 1192SOL    HW2 7493   4.089   9.113   9.950 -0.0829  0.1682 -0.7097
 1193SOL     OW 7494   5.814   2.018   5.255 -0.3705 -0.6566  0.7904
 1193SOL    HW1 7495   5.848   2.042   5.169 -1.4465  0.8281  0.7302
 1193SOL    HW2 7496   5.841   1.927   5.268 -0.7042 -1.1011 -1.3650
 1194SOL     OW 7497   9.413   3.805   0.542 -0.2103 -0.6457 -0.4292
 1194SOL    HW1 7498   9.352   3.801   0.616 -2.2123 -0.3135 -1.9673
 1194SOL    HW2 7499   9.430   3.898   0.530 -1.5461 -0.5150 -1.5977
 1195SOL     OW 7500   6.837   2.880   6.312  0.0952  0.6041 -0.0125
 1195SOL    HW1 7501   6.746   2.851   6.323 -0.5872  2.3871 -0.4513
 1195SOL    HW2 7502   6.862   2.912   6.398  1.0118 -1.6138  0.5919
 1196SOL     OW 7503   7.794   7.637   1.920 -0.5508 -0.3589 -0.4402
 1196SOL    HW1 7504   7.889   7.640   1.909 -0.5236 -1.4695 -0.5932
 1196SOL    HW2 7505   7.780   7.569   1.987 -1.2419 -0.2658 -0.4839
 1197SOL     OW 7506   4.843   6.410   3.751 -0.1125 -0.8280  0.5779
 1197SOL    HW1 7507   4.775   6.381   3.812 -0.5192 -1.8083 -0.3072
 1197SOL    HW2 7508   4.800   6.409   3.665  0.6993 -0.3353  0.1502
 1198SOL     OW 7509   9.139   4.728   5.561 -0.4245 -0.3303  0.2703
 1198SOL    HW1 7510   9.154   4.790   5.490 -1.4563 -0.1825  0.1677
 1198SOL    HW2 7511   9.143   4.642   5.519  1.1008 -0.3716  0.4292
 1199SOL     OW 7512   5.036   2.121   0.681 -0.4809  0.0901 -0.6151
 1199SOL    HW1 7513   5.087   2.066   0.622 -1.1887 -1.1433 -0.1194
 1199SOL    HW2 7514   5.059   2.090   0.769 -0.8205  0.6481 -0.3198
 1200SOL     OW 7515   5.220   5.262   0.080  0.0523  0.0144 -0.1823
 1200SOL    HW1 7516   5.147   5.220   0.125 -1.0930  0.5153 -1.4969
 1200SOL    HW2 7517   5.250   5.330   0.141 -2.4559  1.7151 -0.6902
 1201SOL     OW 7518   9.577   0.079   4.916  0.0467  0.0920 -0.0145
 1201SOL    HW1 7519   9.567  -0.016   4.918  0.1063  0.0720 -0.4655
 1201SOL    HW2 7520   9.669   0.093   4.893  0.7469  0.2722  2.6010
 1202SOL     OW 7521   9.154   8.596   7.644  0.1958 -0.4553  0.2938
 1202SOL    HW1 7522   9.216   8.568   7.712 -0.2187 -1.0986  0.4094
 1202SOL    HW2 7523   9.072   8.610   7.691  0.2560  0.4590  0.1524
 1203SOL     OW 7524   1.204  10.012   5.699 -0.3040  0.0429 -0.1389
 1203SOL    HW1 7525   1.298   9.995   5.706 -0.4832 -0.9363 -0.0273
 1203SOL    HW2 7526   1.173  10.006   5.789 -0.9505 -2.6022 -0.4662
 1204SOL     OW 7527   1.942   7.305   7.017  0.2593 -0.3044  0.1816
 1204SOL    HW1 7528   1.896   7.245   7.075 -0.7855 -0.3491 -0.6620
 1204SOL    HW2 7529   2.029   7.316   7.056  0.0090 -1.3304  1.0381
 1205SOL     OW 7530   3.490   7.438   5.850  0.0974 -0.2579 -0.5591
 1205SOL    HW1 7531   3.413   7.478   5.890 -1.6883 -1.3068 -2.7431
 1205SOL    HW2 7532   3.526   7.383   5.919 -0.7872  0.6719  0.6899
 1206SOL     OW 7533   8.793   5.212   9.198 -0.7583 -0.0631 -0.3747
 1206SOL    HW1 7534   8.714   5.161   9.216 -1.8874  1.9804  0.8756
 1206SOL    HW2 7535   8.833   5.226   9.284  1.0123 -1.0513 -0.9863
 1207SOL     OW 7536   4.846   6.421   7.354  0.0773  0.0812 -0.1549
 1207SOL    HW1 7537   4.903   6.429   7.278  2.1229 -1.4055  1.1274
 1207SOL    HW2 7538   4.761   6.394   7.317  0.3385  1.6659 -2.0430
 1208SOL     OW 7539   4.508   5.187   5.562  0.2449  0.2380  0.3661
 1208SOL    HW1 7540   4.528   5.130   5.488  0.9563  0.7248  0.1765
 1208SOL    HW2 7541   4.418   5.164   5.586  0.7722 -1.5282  0.8177
 1209SOL     OW 7542   6.427   2.580   0.730 -0.0065 -0.1053  0.0878
 1209SOL    HW1 7543   6.503   2.631   0.703 -0.6017  0.1580 -1.1496
 1209SOL    HW2 7544   6.425   2.505   0.671 -0.6359 -0.1832  0.1959
 1210SOL     OW 7545   8.202   1.788   4.461 -0.2282  0.0818  0.3294
 1210SOL    HW1 7546   8.184   1.786   4.367  0.3754  1.5357  0.1565
 1210SOL    HW2 7547   8.297   1.799   4.467 -0.3038  0.3934  1.1030
 1211SOL     OW 7548   2.598   4.325   3.225 -0.0611  0.3865 -0.5282
 1211SOL    HW1 7549   2.640   4.242   3.248  0.4022  1.0075  0.9674
 1211SOL    HW2 7550   2.520   4.328   3.280  0.5356  1.4587  0.2720
 1212SOL     OW 7551   0.789   5.011   0.073  0.0310  0.2308 -0.6813
 1212SOL    HW1 7552   0.748   5.036  -0.010  1.3819  2.6845 -0.7249
 1212SOL    HW2 7553   0.883   5.012   0.055  0.3084 -0.2992  0.6112
 1213SOL     OW 7554   0.847   5.609   7.263 -0.0372 -1.2365 -0.0933
 1213SOL    HW1 7555   0.912   5.648   7.321  0.0810 -0.3839 -0.7759
 1213SOL    HW2 7556   0.818   5.682   7.208 -1.6404 -1.5589  0.2582
 1214SOL     OW 7557   0.439   6.658   7.592  0.6414  0.3764  0.0431
 1214SOL    HW1 7558   0.363   6.698   7.636  0.8313 -0.1591  0.8774
 1214SOL    HW2 7559   0.486   6.732   7.554 -0.4694  0.6952 -0.7850
 1215SOL     OW 7560   9.313   5.650   2.671  0.2307 -0.1586 -0.2926
 1215SOL    HW1 7561   9.340   5.580   2.731 -0.3172 -0.8386 -0.8206
 1215SOL    HW2 7562   9.394   5.696   2.650  0.4562 -0.0295  0.8131
 1216SOL     OW 7563   2.869   3.630   1.085 -0.2657  0.0087 -0.1810
 1216SOL    HW1 7564   2.876   3.560   1.150 -0.9691  0.7349  0.6950
 1216SOL    HW2 7565   2.844   3.707   1.135 -1.8775  0.3537 -1.4348
 1217SOL     OW 7566   2.237   3.427   9.724  0.2725  0.4044 -0.2503
 1217SOL    HW1 7567   2.144   3.446   9.711  0.8842  2.0032 -3.3232
 1217SOL    HW2 7568   2.261   3.479   9.800 -0.9405  1.6569 -0.6651
 1218SOL     OW 7569   4.735   7.326   8.424  0.0580 -0.6173  0.1907
 1218SOL    HW1 7570   4.735   7.230   8.424 -0.9081 -0.6613 -1.5863
 1218SOL    HW2 7571   4.822   7.350   8.456  0.9651 -2.1204 -0.9820
 1219SOL     OW 7572   0.079   4.602   1.209 -0.3249 -0.0355  0.0657
 1219SOL    HW1 7573   0.144   4.560   1.152 -0.3825  1.6216 -1.3034
 1219SOL    HW2 7574   0.111   4.692   1.219 -1.8122  0.4797  0.3354
 1220SOL     OW 7575   5.236   7.244   0.423  0.5301 -0.4318  0.8552
 1220SOL    HW1 7576   5.302   7.181   0.452  0.9322 -0.3012  0.2504
 1220SOL    HW2 7577   5.286   7.324   0.405  0.3278 -0.5341 -0.2783
 1221SOL     OW 7578   2.580   1.961   3.498 -0.2134  0.6061 -0.2797
 1221SOL    HW1 7579   2.655   1.907   3.474 -1.2217 -1.4264  0.8902
 1221SOL    HW2 7580   2.505   1.917   3.457 -1.1313  0.7825  1.1316
 1222SOL     OW 7581   1.540   9.947   6.206 -0.3926  0.1191  0.0266
 1222SOL    HW1 7582   1.553   9.908   6.292  1.4881 -0.6913 -0.5721
 1222SOL    HW2 7583   1.599  10.022   6.204 -1.4606  0.9814 -0.0739
 1223SOL     OW 7584   4.996   0.352  10.159 -0.0948 -0.2518  0.7102
 1223SOL    HW1 7585   4.946   0.396  10.229 -0.4869  0.5562 -0.0609
 1223SOL    HW2 7586   4.930   0.301  10.112 -0.2395  0.8761 -0.3564
 1224SOL     OW 7587   0.417   5.726   5.107  0.4612 -0.0497  0.1353
 1224SOL    HW1 7588   0.392   5.756   5.020  0.5452 -0.9010 -0.1933
 1224SOL    HW2 7589   0.383   5.636   5.112  0.6754 -0.0948  0.8800
 1225SOL     OW 7590   4.948   4.535   2.518 -0.3757  0.2038  0.3784
 1225SOL    HW1 7591   4.959   4.529   2.613 -0.8067  1.0230  0.4910
 1225SOL    HW2 7592   5.006   4.468   2.483  1.6089  1.4238  1.1265
 1226SOL     OW 7593   6.592   1.467   9.883 -0.7135 -0.0194  0.2262
 1226SOL    HW1 7594   6.534   1.413   9.937  1.0769 -1.3224  0.9309
 1226SOL    HW2 7595   6.678   1.427   9.892  0.1949  1.4279 -1.3576
 1227SOL     OW 7596   2.391   1.057   0.159  0.2296  0.1354  0.3201
 1227SOL    HW1 7597   2.364   0.989   0.098 -2.6822  0.9805  0.5248
 1227SOL    HW2 7598   2.334   1.132   0.139  2.3020  2.0363  1.0756
 1228SOL     OW 7599   7.027   0.959   9.598 -0.3854  0.3051  0.1555
 1228SOL    HW1 7600   7.122   0.974   9.596 -0.0239 -1.7454 -1.0248
 1228SOL    HW2 7601   7.015   0.885   9.657 -1.1501 -0.0662 -0.4513
 1229SOL     OW 7602   9.488   0.013  10.122 -0.3035 -0.0203  0.4183
 1229SOL    HW1 7603   9.490  -0.044  10.200  1.1102  0.3848  0.7002
 1229SOL    HW2 7604   9.435  -0.035  10.059 -1.3632 -0.4281  1.5775
 1230SOL     OW 7605   3.814   0.834   6.894  0.0995 -0.1092 -0.0179
 1230SOL    HW1 7606   3.856   0.751   6.874 -1.7943 -0.9377 -0.7432
 1230SOL    HW2 7607   3.812   0.837   6.990 -0.9092 -1.5215  0.0392
 1231SOL     OW 7608   7.370   1.708   4.232 -0.3312  0.0231  0.5951
 1231SOL    HW1 7609   7.316   1.710   4.310 -1.2238  0.0486 -0.0130
 1231SOL    HW2 7610   7.339   1.633   4.182  0.8975 -0.5981  0.7134
 1232SOL     OW 7611   3.833   9.823   6.392  0.2964 -0.5179 -0.5064
 1232SOL    HW1 7612   3.821   9.881   6.467 -0.6472 -0.3803 -0.7491
 1232SOL    HW2 7613   3.928   9.821   6.378  0.4020  0.3060  0.0246
 1233SOL     OW 7614  10.073   8.220   9.938 -0.2771 -0.2305  0.0871
 1233SOL    HW1 7615  10.128   8.298   9.952 -1.9895  1.8319 -3.3748
 1233SOL    HW2 7616  10.119   8.170   9.871 -1.0000 -0.1841 -0.4540
 1234SOL     OW 7617   4.138   2.731   9.355 -0.3400 -0.2871 -0.2283
 1234SOL    HW1 7618   4.135   2.826   9.348 -1.2733 -0.3701 -1.2331
 1234SOL    HW2 7619   4.066   2.700   9.299  0.4568 -1.6009 -0.5861
 1235SOL     OW 7620   5.753   9.543  10.007  0.4845  0.0141 -0.0581
 1235SOL    HW1 7621   5.767   9.533   9.913  0.1433  0.0904 -0.1208
 1235SOL    HW2 7622   5.682   9.482  10.027 -0.1050  0.6944 -0.0345
 1236SOL     OW 7623   1.206   2.235   1.490  0.0660  0.3937 -0.0531
 1236SOL    HW1 7624   1.247   2.178   1.556 -1.4673 -0.0492  0.5632
 1236SOL    HW2 7625   1.115   2.241   1.518 -1.3875 -2.0727 -3.6305
 1237SOL     OW 7626   4.898   8.995   1.291  0.5923 -0.2217 -0.0161
 1237SOL    HW1 7627   4.918   8.902   1.275  0.0342 -0.6460  1.6133
 1237SOL    HW2 7628   4.859   9.024   1.209 -0.2382 -1.7339 -0.2060
 1238SOL     OW 7629   0.217   0.527   8.657  0.3517 -0.0439  0.1713
 1238SOL    HW1 7630   0.245   0.569   8.575 -0.7154  0.1373 -0.1287
 1238SOL    HW2 7631   0.291   0.536   8.716  1.1097 -0.0992 -0.7596
 1239SOL     OW 7632   6.289   6.138   6.063 -0.6562  0.1086 -0.8223
 1239SOL    HW1 7633   6.296   6.220   6.014 -0.0841 -0.5373 -1.8801
 1239SOL    HW2 7634   6.207   6.145   6.111 -0.3379  1.5357 -0.4347
 1240SOL     OW 7635   2.756   7.167   1.680 -0.1736  0.1636  0.4381
 1240SOL    HW1 7636   2.810   7.184   1.756  0.8863  1.1743 -0.5077
 1240SOL    HW2 7637   2.783   7.232   1.615  0.7733 -2.2120 -1.7301
 1241SOL     OW 7638   6.427   8.165   1.881 -1.0049 -0.5994  0.4970
 1241SOL    HW1 7639   6.425   8.211   1.965  1.1074 -0.2969  0.4274
 1241SOL    HW2 7640   6.455   8.076   1.902 -0.8523 -0.6328  0.1630
 1242SOL     OW 7641   5.637   3.678   7.498 -0.6073  0.0507 -0.4152
 1242SOL    HW1 7642   5.674   3.753   7.546  3.0568 -0.5669 -1.9281
 1242SOL    HW2 7643   5.665   3.691   7.408 -1.5485 -2.1531 -1.0881
 1243SOL     OW 7644   5.759   5.069   5.665 -0.0525 -0.2878 -0.3743
 1243SOL    HW1 7645   5.712   5.151   5.676  0.8603  0.4735 -1.9067
 1243SOL    HW2 7646   5.722   5.011   5.732 -0.5089  1.4365  0.9275
 1244SOL     OW 7647   0.965   7.598   5.924 -0.2847 -0.4687 -0.0634
 1244SOL    HW1 7648   0.963   7.532   5.993 -0.1065 -1.0357 -0.5880
 1244SOL    HW2 7649   0.945   7.550   5.844  2.0249 -0.3409 -0.7933
 1245SOL     OW 7650   6.323   1.607   2.736  0.2384  0.3727  0.2447
 1245SOL    HW1 7651   6.270   1.565   2.804 -1.9250 -0.2646 -1.7183
 1245SOL    HW2 7652   6.412   1.573   2.750 -0.5630 -1.3442  1.4706
 1246SOL     OW 7653   3.308   1.435   1.857  0.2750  0.1105 -0.4911
 1246SOL    HW1 7654   3.250   1.498   1.901 -0.1154  0.6163 -1.7064
 1246SOL    HW2 7655   3.337   1.377   1.928  1.6064  2.3300  0.9448
 1247SOL     OW 7656   7.317   9.536   3.741  0.8017  0.7065 -0.3466
 1247SOL    HW1 7657   7.367   9.603   3.694  0.6918  2.8471  2.3305
 1247SOL    HW2 7658   7.261   9.586   3.800  0.8812 -1.7569  1.9828
 1248SOL     OW 7659   1.260   1.226   3.859  0.5892  0.5296  0.3062
 1248SOL    HW1 7660   1.171   1.261   3.860  0.0488 -0.7131 -0.8810
 1248SOL    HW2 7661   1.306   1.280   3.794  1.5139  2.8718  2.7265
 1249SOL     OW 7662   1.540   7.905   8.876 -0.3425 -0.4359 -0.4750
 1249SOL    HW1 7663   1.575   7.827   8.834 -0.6914 -0.5821 -0.4956
 1249SOL    HW2 7664   1.526   7.967   8.804  0.3086 -0.2104 -0.4115
 1250SOL     OW 7665   5.733   9.112   5.597  0.0424  0.4575 -0.6077
 1250SOL    HW1 7666   5.804   9.086   5.655 -2.2535  0.5127  2.4811
 1250SOL    HW2 7667   5.702   9.029   5.559 -0.8873 -0.1538  1.3760
 1251SOL     OW 7668   4.486   7.872   1.298  0.2710  0.0164  0.1055
 1251SOL    HW1 7669   4.401   7.843   1.267  1.1255 -3.9390  0.9662
 1251SOL    HW2 7670   4.487   7.966   1.279 -3.3224 -0.1731 -2.0055
 1252SOL     OW 7671   6.634   0.015   6.355 -0.0652  0.1967  0.0372
 1252SOL    HW1 7672   6.640  -0.080   6.363 -0.3756  0.0289 -1.4766
 1252SOL    HW2 7673   6.541   0.034   6.367 -0.0030  0.3246  0.3428
 1253SOL     OW 7674   9.886   9.567   6.722  0.6967  0.0141 -0.5619
 1253SOL    HW1 7675   9.815   9.610   6.771  1.3879  2.2232 -1.3815
 1253SOL    HW2 7676   9.841   9.524   6.649  0.0929  0.5429 -0.5194
 1254SOL     OW 7677   4.949   5.031   0.748  0.0326  0.1415 -0.3280
 1254SOL    HW1 7678   4.953   5.115   0.794 -1.6277 -0.3041  0.7394
 1254SOL    HW2 7679   4.921   5.054   0.659 -1.2772  0.6915  0.1991
 1255SOL     OW 7680   9.725   6.846   8.530  0.0304 -0.4313 -0.3529
 1255SOL    HW1 7681   9.635   6.878   8.523  0.0986  0.5315  2.0593
 1255SOL    HW2 7682   9.777   6.911   8.483 -0.5152 -1.0827 -1.9102
 1256SOL     OW 7683   4.264   9.429   4.150  0.1519  0.9543 -0.2520
 1256SOL    HW1 7684   4.257   9.351   4.204 -0.8919  1.0879 -0.1726
 1256SOL    HW2 7685   4.298   9.497   4.209  0.3492  0.7509 -0.1321
 1257SOL     OW 7686   3.834   5.330   0.006 -0.2969  0.1896 -0.2218
 1257SOL    HW1 7687   3.858   5.404  -0.050  0.5462 -0.0345 -0.1609
 1257SOL    HW2 7688   3.763   5.287  -0.041  0.0612  0.2991 -0.8720
 1258SOL     OW 7689   9.890   7.788   3.482 -0.3299  0.2327  0.2461
 1258SOL    HW1 7690   9.831   7.861   3.463 -1.1559 -0.9981 -2.3776
 1258SOL    HW2 7691   9.977   7.821   3.460 -0.4222  1.0139  0.9902
 1259SOL     OW 7692   5.168   7.903   3.567  0.2420  0.5474  0.3689
 1259SOL    HW1 7693   5.255   7.942   3.577  0.6410 -0.7512  2.7824
 1259SOL    HW2 7694   5.165   7.873   3.477  2.2396  0.7747  0.1803
 1260SOL     OW 7695   2.775   3.650   1.969  0.3264  0.5633  0.5981
 1260SOL    HW1 7696   2.744   3.560   1.958 -0.2135  0.6458  1.3752
 1260SOL    HW2 7697   2.696   3.703   1.959  0.5013  0.8940  0.9572
 1261SOL     OW 7698   1.166   1.318   9.044  0.7207  0.2811  0.3095
 1261SOL    HW1 7699   1.144   1.409   9.029  0.5016  0.2365  0.3575
 1261SOL    HW2 7700   1.159   1.306   9.139  0.7057  0.2022  0.2983
 1262SOL     OW 7701   1.406   0.901   6.529  0.2723  0.3838 -0.1144
 1262SOL    HW1 7702   1.337   0.933   6.587 -0.1469 -1.2912  0.3606
 1262SOL    HW2 7703   1.434   0.818   6.568  1.1611  0.0534 -1.3858
 1263SOL     OW 7704   1.065   2.652   1.319  0.6816  0.1621  0.0133
 1263SOL    HW1 7705   0.991   2.711   1.304  0.8972  0.5892  0.5510
 1263SOL    HW2 7706   1.038   2.569   1.282  0.9400  0.9587 -2.0792
 1264SOL     OW 7707   9.728   7.215   6.493  0.3415 -0.2753  0.0674
 1264SOL    HW1 7708   9.656   7.274   6.511  0.0810 -0.1099 -1.3927
 1264SOL    HW2 7709   9.787   7.224   6.568  0.2081  1.6737 -0.0268
 1265SOL     OW 7710   8.636   5.535   5.636 -0.2610 -0.3805  0.0522
 1265SOL    HW1 7711   8.564   5.556   5.576  0.1049 -0.5360 -0.4502
 1265SOL    HW2 7712   8.684   5.464   5.592  1.8526  1.5472 -1.0261
 1266SOL     OW 7713   6.170   2.157   0.426  0.0265 -0.3380  0.7391
 1266SOL    HW1 7714   6.220   2.128   0.502 -0.6290 -2.3096  0.4929
 1266SOL    HW2 7715   6.124   2.235   0.456  1.5297  0.2604  1.6286
 1267SOL     OW 7716   8.517   9.864   0.845 -0.4250 -0.0950  0.4415
 1267SOL    HW1 7717   8.601   9.832   0.877 -1.6083 -2.1973  1.6935
 1267SOL    HW2 7718   8.486   9.794   0.786 -1.0464  0.9299 -0.4900
 1268SOL     OW 7719   4.517   5.130   7.212  0.2155  0.1816  0.2033
 1268SOL    HW1 7720   4.429   5.098   7.195  0.4994 -1.1588  1.1517
 1268SOL    HW2 7721   4.533   5.193   7.142 -1.1014 -0.3180 -0.5808
 1269SOL     OW 7722   8.631   0.669   3.002 -0.0561  0.4068 -0.4206
 1269SOL    HW1 7723   8.565   0.656   3.070 -0.4047  0.7922 -0.6895
 1269SOL    HW2 7724   8.691   0.734   3.040 -2.0530  3.1695 -1.7421
 1270SOL     OW 7725   9.170   7.555   6.669 -0.2509 -0.6872  0.3937
 1270SOL    HW1 7726   9.153   7.522   6.580 -0.4147 -0.0315  0.1757
 1270SOL    HW2 7727   9.207   7.642   6.655  0.2146 -0.7912  0.9623
 1271SOL     OW 7728   7.425   2.672   7.356  0.1964 -0.1859  0.8061
 1271SOL    HW1 7729   7.470   2.755   7.343  0.2174 -0.0671  1.6508
 1271SOL    HW2 7730   7.488   2.606   7.327 -0.9253  0.1369 -3.0968
 1272SOL     OW 7731   4.833   3.933   9.323  0.4640 -0.3836 -0.0191
 1272SOL    HW1 7732   4.854   3.983   9.402 -1.1729  2.0405 -1.0022
 1272SOL    HW2 7733   4.884   3.975   9.254 -0.3389 -0.5818 -0.7440
 1273SOL     OW 7734   9.410   5.868   3.621  0.4678  0.2510  0.4539
 1273SOL    HW1 7735   9.469   5.815   3.567 -2.0214 -1.6235 -0.6458
 1273SOL    HW2 7736   9.408   5.954   3.577  2.0121  0.2408  0.3094
 1274SOL     OW 7737   4.840   8.540   3.927  0.6197  0.0372  0.2911
 1274SOL    HW1 7738   4.846   8.449   3.955 -0.1448 -0.2153 -0.3127
 1274SOL    HW2 7739   4.930   8.566   3.908  1.0138 -0.1397  1.8319
 1275SOL     OW 7740   5.492   5.237   2.169  0.9832  0.2464 -0.2130
 1275SOL    HW1 7741   5.480   5.171   2.101  1.5347 -0.4182  0.3257
 1275SOL    HW2 7742   5.468   5.193   2.250  3.0723  0.1285  0.3850
 1276SOL     OW 7743   6.199   5.066   9.522 -0.2754  0.5168 -0.2630
 1276SOL    HW1 7744   6.199   5.135   9.589 -2.0128  1.3137 -1.0097
 1276SOL    HW2 7745   6.142   4.998   9.558  0.4734 -0.0065 -0.0474
 1277SOL     OW 7746   4.996   3.657   4.570  0.0564 -0.2789 -0.1239
 1277SOL    HW1 7747   4.994   3.589   4.637  2.8710  0.5978  0.9951
 1277SOL    HW2 7748   5.048   3.618   4.499 -0.0461 -0.0012 -0.3534
 1278SOL     OW 7749   3.852   7.202   8.545 -0.1145  0.5049  1.0669
 1278SOL    HW1 7750   3.777   7.168   8.594  0.6319  1.1752  2.7830
 1278SOL    HW2 7751   3.839   7.297   8.545  0.8269  0.6483  1.6097
 1279SOL     OW 7752   7.258   0.340   1.218 -0.0825 -0.1171  0.2149
 1279SOL    HW1 7753   7.342   0.337   1.263  0.2437 -0.0917 -0.3807
 1279SOL    HW2 7754   7.235   0.249   1.202  0.1645 -0.1057 -0.2219
 1280SOL     OW 7755   0.394   4.299   6.945 -0.0939  0.6316 -0.4212
 1280SOL    HW1 7756   0.489   4.293   6.935 -0.0570 -2.4412  0.6864
 1280SOL    HW2 7757   0.380   4.327   7.035 -0.2285  0.6738 -0.4544
 1281SOL     OW 7758   7.196  10.198   7.325  0.7031  0.2306  0.7209
 1281SOL    HW1 7759   7.158  10.221   7.409 -0.5924  0.2409  0.1626
 1281SOL    HW2 7760   7.229  10.280   7.290  2.2903  0.0452  1.6856
 1282SOL     OW 7761   1.530   3.751   6.584  0.3485  0.0732 -0.1679
 1282SOL    HW1 7762   1.585   3.776   6.511  1.4672 -0.1817  0.5615
 1282SOL    HW2 7763   1.516   3.833   6.633 -0.1162  0.1782 -0.4668
 1283SOL     OW 7764   8.853   8.719   5.227 -0.3978  0.2977  0.0262
 1283SOL    HW1 7765   8.833   8.664   5.152  0.0383  0.8656 -0.5174
 1283SOL    HW2 7766   8.814   8.804   5.206 -1.4930  0.0704  1.0783
 1284SOL     OW 7767   8.578   1.596   5.583  0.2111  0.2882  0.0119
 1284SOL    HW1 7768   8.610   1.674   5.628 -0.6846  0.2394  0.7695
 1284SOL    HW2 7769   8.657   1.547   5.561  0.8427  1.7403 -1.1426
 1285SOL     OW 7770   0.265   1.352   6.837  0.1225  0.2176  0.6831
 1285SOL    HW1 7771   0.232   1.265   6.863 -1.1943  0.3441 -0.4056
 1285SOL    HW2 7772   0.344   1.333   6.786  0.4387 -0.2655  1.3376
 1286SOL     OW 7773   4.766   8.494   6.220 -0.3905 -0.1051 -0.2823
 1286SOL    HW1 7774   4.815   8.491   6.137  1.6798  0.5989  0.8346
 1286SOL    HW2 7775   4.779   8.408   6.259 -0.5571 -0.1128 -0.2415
 1287SOL     OW 7776   1.332   1.825   5.549  0.0428  0.3717  0.2285
 1287SOL    HW1 7777   1.306   1.915   5.566  1.2573  1.0377 -1.2257
 1287SOL    HW2 7778   1.309   1.810   5.457 -1.0344 -1.1433  0.7059
 1288SOL     OW 7779   8.723   5.771   2.938 -0.2538  0.3275  0.5183
 1288SOL    HW1 7780   8.639   5.745   2.977  0.8346 -1.0243  2.1051
 1288SOL    HW2 7781   8.751   5.846   2.990 -0.3464  0.5922  0.1841
 1289SOL     OW 7782   5.645   7.001   0.179 -0.0333 -0.6004 -0.7392
 1289SOL    HW1 7783   5.577   7.069   0.177  1.7437  1.6774  3.2772
 1289SOL    HW2 7784   5.603   6.925   0.219 -0.9519 -0.2823 -1.0896
 1290SOL     OW 7785   8.876   6.338   3.646 -0.3252  0.2313  0.0050
 1290SOL    HW1 7786   8.947   6.303   3.593 -0.0464  0.9556 -0.1020
 1290SOL    HW2 7787   8.918   6.399   3.707 -0.9083  1.0825 -0.4241
 1291SOL     OW 7788   7.321   9.433   0.525 -0.4304 -0.2500  0.0124
 1291SOL    HW1 7789   7.415   9.422   0.539 -0.8560 -3.1446  1.4298
 1291SOL    HW2 7790   7.308   9.407   0.434  0.1961  0.6776 -0.3502
 1292SOL     OW 7791   0.315   9.955   5.269  0.1400  0.1182  0.0973
 1292SOL    HW1 7792   0.354  10.038   5.240  0.7410 -0.8857 -2.2290
 1292SOL    HW2 7793   0.234   9.949   5.218  0.0010 -0.6220  0.4014
 1293SOL     OW 7794   8.608   7.121   7.879 -0.3580 -0.5744  0.3682
 1293SOL    HW1 7795   8.537   7.183   7.865 -0.0025  0.2294  1.9152
 1293SOL    HW2 7796   8.564   7.036   7.888 -1.0957 -0.1472  0.9096
 1294SOL     OW 7797   1.935   7.942  10.123 -0.2176 -0.1605  0.7809
 1294SOL    HW1 7798   1.863   7.880  10.134  0.1967 -0.3036  3.4072
 1294SOL    HW2 7799   2.013   7.888  10.117 -0.1145  0.0497  0.1482
 1295SOL     OW 7800   5.264   3.715   1.315 -0.4183 -0.0380  0.4873
 1295SOL    HW1 7801   5.178   3.756   1.316 -1.0721 -1.3291  2.5840
 1295SOL    HW2 7802   5.261   3.650   1.385  2.0251 -0.6344  0.1338
 1296SOL     OW 7803   2.111   9.698   9.200  0.0890 -0.6171 -0.9761
 1296SOL    HW1 7804   2.031   9.646   9.197 -1.0985  0.9652  1.0581
 1296SOL    HW2 7805   2.181   9.633   9.209 -1.2872 -1.9459  0.8938
 1297SOL     OW 7806   7.246   4.925   9.234  0.1422  0.4785 -0.2517
 1297SOL    HW1 7807   7.331   4.959   9.259  0.1272  1.5843 -1.5983
 1297SOL    HW2 7808   7.265   4.851   9.177  0.1936  0.4914 -0.2517
 1298SOL     OW 7809   6.873   0.248   0.727 -0.2151 -0.0737  0.3525
 1298SOL    HW1 7810   6.779   0.268   0.721  0.2685  2.1527 -0.6858
 1298SOL    HW2 7811   6.893   0.201   0.647 -0.1807  0.7055 -0.1016
 1299SOL     OW 7812   1.076   4.044   6.573 -0.6269  0.3626  0.0951
 1299SOL    HW1 7813   1.103   4.136   6.570 -1.3793  0.6221  0.7228
 1299SOL    HW2 7814   1.116   4.005   6.496  1.5446  0.6988  0.9702
 1300SOL     OW 7815   6.504   9.567   3.418  0.5293  0.5240  0.0946
 1300SOL    HW1 7816   6.597   9.585   3.434  0.3955  1.0118  0.3415
 1300SOL    HW2 7817   6.492   9.582   3.324  1.1695 -1.6720 -0.4004
 1301SOL     OW 7818   6.221  10.143   3.448 -0.2462  0.0195 -0.3434
 1301SOL    HW1 7819   6.130  10.129   3.474 -0.4282 -1.0419 -1.4655
 1301SOL    HW2 7820   6.256  10.055   3.431  0.9872  0.4104  0.0380
 1302SOL     OW 7821   5.773   6.208   7.541 -0.1592  0.2061  0.2606
 1302SOL    HW1 7822   5.740   6.293   7.571 -0.5230  0.4346 -0.7453
 1302SOL    HW2 7823   5.845   6.230   7.482 -0.2085 -0.1892  0.0509
 1303SOL     OW 7824   5.911   4.829   3.657 -0.3291  0.0027 -0.4747
 1303SOL    HW1 7825   5.937   4.886   3.730 -0.4777 -0.2652 -0.2092
 1303SOL    HW2 7826   5.820   4.855   3.638 -1.1605 -1.5685  1.0588
 1304SOL     OW 7827   5.156   1.216   2.473  0.0433  0.0535 -0.8818
 1304SOL    HW1 7828   5.162   1.124   2.449  2.1096  0.4369 -2.0683
 1304SOL    HW2 7829   5.100   1.217   2.551  2.5591 -2.6281  1.1828
 1305SOL     OW 7830   8.215   6.265   7.968 -0.1294  0.2103  0.1249
 1305SOL    HW1 7831   8.131   6.219   7.975  0.8962 -1.6029  1.6017
 1305SOL    HW2 7832   8.260   6.223   7.895  0.1257  0.0330  0.3792
 1306SOL     OW 7833   1.035   0.568   9.790  0.4395  0.2355  0.5726
 1306SOL    HW1 7834   1.003   0.624   9.720  0.7070  0.9750  1.0263
 1306SOL    HW2 7835   1.131   0.576   9.785  0.6008 -1.5987 -0.4939
 1307SOL     OW 7836   3.374   8.585   2.339 -0.3440 -0.2722  0.0442
 1307SOL    HW1 7837   3.345   8.674   2.359 -2.4656 -1.1494  1.2716
 1307SOL    HW2 7838   3.469   8.590   2.335 -0.3980  1.9400  0.5880
 1308SOL     OW 7839   6.374   0.973   1.988  0.0615 -0.0657  0.1384
 1308SOL    HW1 7840   6.382   0.966   2.083 -0.7767 -0.4283  0.1906
 1308SOL    HW2 7841   6.368   0.883   1.958 -0.8819  0.0714 -0.1344
 1309SOL     OW 7842   6.276   7.717   9.662  0.5223 -0.0138 -0.2034
 1309SOL    HW1 7843   6.290   7.623   9.653  0.6563 -0.0667  0.4662
 1309SOL    HW2 7844   6.256   7.748   9.574  2.8044 -0.2656 -0.8725
 1310SOL     OW 7845   1.365   8.019   8.297 -0.4558 -0.0317  0.6537
 1310SOL    HW1 7846   1.412   7.966   8.233  1.9657  2.5761  0.0486
 1310SOL    HW2 7847   1.390   7.983   8.382  0.3783 -0.4416  0.2459
 1311SOL     OW 7848   2.843   9.228   5.033 -0.2842  0.1136  0.2102
 1311SOL    HW1 7849   2.851   9.162   4.963  0.5285  0.3705  0.0442
 1311SOL    HW2 7850   2.758   9.210   5.073 -1.6175  1.0665 -1.9825
 1312SOL     OW 7851   8.555   8.091   7.879 -0.1423 -0.0316 -0.4390
 1312SOL    HW1 7852   8.647   8.100   7.906 -0.0736  0.9231 -0.9491
 1312SOL    HW2 7853   8.543   8.158   7.812 -1.0656 -0.5316 -0.7923
 1313SOL     OW 7854   9.975   6.912   3.534  0.1639 -0.1241  0.0587
 1313SOL    HW1 7855  10.014   6.824   3.531  1.0495  0.2854 -0.8438
 1313SOL    HW2 7856   9.920   6.917   3.456  0.0737  0.1021  0.1372
 1314SOL     OW 7857   5.758   3.819   6.863 -0.0938  0.5231  0.1432
 1314SOL    HW1 7858   5.745   3.903   6.907  1.9158  2.0475 -1.9206
 1314SOL    HW2 7859   5.794   3.762   6.932 -0.6074  1.6161  1.3659
 1315SOL     OW 7860   1.666   8.270   6.409  0.6172  0.0814 -0.0963
 1315SOL    HW1 7861   1.693   8.350   6.364 -0.7936  0.6777  0.0758
 1315SOL    HW2 7862   1.738   8.252   6.470  1.8827  0.0687 -1.5253
 1316SOL     OW 7863   5.842   6.953   0.342  0.1010 -0.6993 -0.1110
 1316SOL    HW1 7864   5.876   7.026   0.395 -0.8232 -0.5223  0.2654
 1316SOL    HW2 7865   5.777   6.993   0.285  1.3878 -0.8173 -1.7337
 1317SOL     OW 7866   4.480   8.609   9.766 -0.2416 -0.6441 -0.1607
 1317SOL    HW1 7867   4.492   8.680   9.703 -0.4453 -0.7713 -0.3424
 1317SOL    HW2 7868   4.540   8.631   9.838 -0.2760 -0.3094 -0.2327
 1318SOL     OW 7869   1.870   6.499   6.763 -0.1032  0.2512 -0.3876
 1318SOL    HW1 7870   1.827   6.583   6.779 -1.5286 -0.6150  0.5468
 1318SOL    HW2 7871   1.805   6.447   6.716  1.1778  0.0227 -2.0156
 1319SOL     OW 7872   5.581   3.599   9.488 -0.3907  0.2084  0.0890
 1319SOL    HW1 7873   5.635   3.634   9.417  0.5640 -0.6910  0.3515
 1319SOL    HW2 7874   5.520   3.670   9.509  0.8309  1.3348 -0.0631
 1320SOL     OW 7875   0.225   5.321   8.293  0.1055 -0.0501 -0.2660
 1320SOL    HW1 7876   0.310   5.341   8.256 -0.2863  1.6082 -0.3299
 1320SOL    HW2 7877   0.196   5.402   8.336 -0.8226 -0.9871  0.9929
 1321SOL     OW 7878   4.914   8.849   2.459 -0.2219 -0.3087 -0.6309
 1321SOL    HW1 7879   4.832   8.818   2.497  0.1602 -0.3437  0.1853
 1321SOL    HW2 7880   4.959   8.770   2.429  0.7844 -0.6121  1.5112
 1322SOL     OW 7881   8.080   1.895   0.013 -0.1473 -0.3466 -0.0194
 1322SOL    HW1 7882   8.018   1.873   0.082  0.4721 -0.3116  0.5587
 1322SOL    HW2 7883   8.070   1.990   0.001  0.1780 -0.2473  0.4611
 1323SOL     OW 7884   0.600   9.012   0.012  0.4715 -0.1122 -0.0010
 1323SOL    HW1 7885   0.644   9.029   0.095  0.3615  2.1805 -0.3611
 1323SOL    HW2 7886   0.665   9.033  -0.055 -0.4127  1.0838 -0.5136
 1324SOL     OW 7887   8.772   6.795   1.897  0.6336  0.2879 -0.2680
 1324SOL    HW1 7888   8.769   6.890   1.885  2.9056  0.5140  0.4950
 1324SOL    HW2 7889   8.805   6.761   1.814 -2.4054 -0.1747 -1.4410
 1325SOL     OW 7890   8.900   3.878   4.891  0.0988  0.0689 -0.1544
 1325SOL    HW1 7891   8.925   3.970   4.882 -1.2533  0.4411 -0.3224
 1325SOL    HW2 7892   8.935   3.852   4.977  0.6739  0.6737 -0.1989
 1326SOL     OW 7893   4.179   2.736   7.136 -0.6218  0.4911 -0.0031
 1326SOL    HW1 7894   4.141   2.759   7.221 -0.8397  1.8262 -0.4376
 1326SOL    HW2 7895   4.241   2.807   7.117 -1.2354  0.6912 -1.3630
 1327SOL     OW 7896   4.659   9.344   4.775 -0.4721  0.1163 -0.5977
 1327SOL    HW1 7897   4.584   9.403   4.769 -0.7813 -0.4071 -2.6169
 1327SOL    HW2 7898   4.662   9.300   4.690  2.0063 -0.0485 -0.5083
 1328SOL     OW 7899   8.485   5.011   8.741 -0.5503  0.0527  0.2866
 1328SOL    HW1 7900   8.533   5.050   8.667  0.4300 -0.2560  0.7481
 1328SOL    HW2 7901   8.402   5.059   8.743  0.7998  2.5448  1.1559
 1329SOL     OW 7902   2.217   1.069   2.651  0.0006  0.2755  0.4403
 1329SOL    HW1 7903   2.255   0.997   2.700 -0.4401  0.5007  1.1286
 1329SOL    HW2 7904   2.256   1.062   2.564  1.4396  0.3664  1.0415
 1330SOL     OW 7905   4.775   2.832   1.522  0.0951  0.1998  0.4775
 1330SOL    HW1 7906   4.692   2.797   1.554  0.3730  0.0034  1.0018
 1330SOL    HW2 7907   4.794   2.779   1.444  0.2075 -0.4232  0.9156
 1331SOL     OW 7908   1.182   6.528   9.728  0.6819  0.2407 -0.3789
 1331SOL    HW1 7909   1.213   6.493   9.811  0.1150 -0.5541 -0.4884
 1331SOL    HW2 7910   1.145   6.452   9.682 -0.7845  1.0079 -0.5340
 1332SOL     OW 7911   8.300   7.562   3.123 -0.0159 -0.1736  0.5275
 1332SOL    HW1 7912   8.335   7.643   3.161  2.2948 -0.8955  0.0970
 1332SOL    HW2 7913   8.297   7.500   3.196 -2.0710  0.3188  0.9246
 1333SOL     OW 7914   4.277   6.313   8.994 -0.5038  0.4263  0.0750
 1333SOL    HW1 7915   4.245   6.298   8.905 -2.7120  2.4593  0.4361
 1333SOL    HW2 7916   4.247   6.238   9.043 -1.4213  0.4614 -0.4111
 1334SOL     OW 7917   6.949   6.020   1.996 -0.3808 -0.0305  0.3665
 1334SOL    HW1 7918   6.958   6.061   1.910  0.2164 -1.1441 -0.1258
 1334SOL    HW2 7919   7.001   6.076   2.054 -1.3814  1.1456  0.1799
 1335SOL     OW 7920   1.572   7.498   1.754  0.2702  0.3856  0.1316
 1335SOL    HW1 7921   1.644   7.521   1.813 -1.1851  1.7086  1.4903
 1335SOL    HW2 7922   1.613   7.443   1.687  2.3861  0.4811  1.2463
 1336SOL     OW 7923   5.895   9.127   0.277  0.5284 -0.3788  1.0159
 1336SOL    HW1 7924   5.987   9.125   0.306  0.5301 -0.3623  1.0124
 1336SOL    HW2 7925   5.888   9.209   0.228 -0.0737  0.7858  2.9287
 1337SOL     OW 7926   5.813   5.084   5.116  0.3154 -1.1841 -0.1209
 1337SOL    HW1 7927   5.896   5.104   5.159  0.3193 -0.5697 -0.4059
 1337SOL    HW2 7928   5.831   5.004   5.066  0.3828 -1.7549  0.7843
 1338SOL     OW 7929   6.583   1.415   6.080 -0.3701 -0.2666 -0.1528
 1338SOL    HW1 7930   6.491   1.408   6.106 -0.1539 -1.9504  0.2867
 1338SOL    HW2 7931   6.604   1.508   6.091 -1.1300 -0.3483  2.9453
 1339SOL     OW 7932   8.012   4.785   1.000 -0.5227 -0.3530  0.2004
 1339SOL    HW1 7933   7.962   4.798   0.919 -1.4792 -0.6115  0.7405
 1339SOL    HW2 7934   8.029   4.874   1.031 -0.7926 -0.2680  0.1075
 1340SOL     OW 7935   2.153   8.962   7.522 -0.0094 -0.0739 -0.0652
 1340SOL    HW1 7936   2.078   8.974   7.579 -1.6808 -1.4688 -1.8527
 1340SOL    HW2 7937   2.214   8.909   7.574 -1.2422 -0.8464  0.6456
 1341SOL     OW 7938   9.230   7.321   5.917 -0.1602  0.3648 -0.4515
 1341SOL    HW1 7939   9.295   7.374   5.963 -0.3711  1.0252 -0.9070
 1341SOL    HW2 7940   9.150   7.331   5.967  0.2142 -0.9573  0.4771
 1342SOL     OW 7941   9.483   6.912   7.850  0.0220 -0.4386  0.0075
 1342SOL    HW1 7942   9.412   6.889   7.791 -0.9251 -2.1056  1.6948
 1342SOL    HW2 7943   9.542   6.837   7.848  1.6135  0.7686 -1.0910
 1343SOL     OW 7944   4.358   7.974   8.693 -0.1324  0.0369 -0.1270
 1343SOL    HW1 7945   4.318   8.026   8.762 -0.1431  1.4923 -1.1767
 1343SOL    HW2 7946   4.385   8.038   8.627  2.0256 -1.0690 -0.4257
 1344SOL     OW 7947   3.904   3.931   2.396 -0.1208  0.2019 -0.1025
 1344SOL    HW1 7948   3.985   3.981   2.391 -0.5351  0.9043 -0.0326
 1344SOL    HW2 7949   3.849   3.981   2.456 -0.4704 -0.4608  0.1393
 1345SOL     OW 7950   2.442   5.332   8.876  0.1914  0.0493  0.2099
 1345SOL    HW1 7951   2.526   5.369   8.849  0.3174  0.8035  1.5472
 1345SOL    HW2 7952   2.384   5.408   8.887 -0.7022 -0.4606 -0.7128
 1346SOL     OW 7953   2.696   7.931   3.471  0.0291 -0.4931  0.2511
 1346SOL    HW1 7954   2.675   8.024   3.457  0.7217 -0.2792  0.6040
 1346SOL    HW2 7955   2.748   7.930   3.551 -1.2466 -1.3520  1.1100
 1347SOL     OW 7956   4.711   6.782   1.163 -0.3081  0.1814 -0.1334
 1347SOL    HW1 7957   4.680   6.847   1.226 -1.4727 -0.1742 -0.3206
 1347SOL    HW2 7958   4.800   6.762   1.191 -0.6663  0.3274  1.1682
 1348SOL     OW 7959   8.241   8.986   3.734  0.5188  0.0386  0.3019
 1348SOL    HW1 7960   8.283   9.027   3.810 -0.8913 -0.9691  1.6770
 1348SOL    HW2 7961   8.290   8.906   3.719 -0.7483 -1.0763  1.8299
 1349SOL     OW 7962   1.237   2.399   1.267  0.1505  0.1191  0.0365
 1349SOL    HW1 7963   1.225   2.335   1.338  0.1398 -0.8768 -0.8457
 1349SOL    HW2 7964   1.148   2.419   1.238  0.2091 -1.8198 -1.7124
 1350SOL     OW 7965   4.115   0.981   8.888 -0.3661 -0.0386  0.3636
 1350SOL    HW1 7966   4.060   0.944   8.819 -0.3535  1.1659 -0.3144
 1350SOL    HW2 7967   4.061   0.977   8.966 -0.3977 -1.3815  0.3029
 1351SOL     OW 7968   1.535   4.645   9.924  0.0123  0.0368 -0.4711
 1351SOL    HW1 7969   1.596   4.646   9.998  1.4311  0.3086 -1.5901
 1351SOL    HW2 7970   1.457   4.601   9.957  0.5643  0.2505  1.2086
 1352SOL     OW 7971   9.870   8.611  10.016 -0.1976  0.6140  0.3307
 1352SOL    HW1 7972   9.871   8.674   9.944  0.9092 -0.0152 -0.2316
 1352SOL    HW2 7973   9.945   8.635  10.070  0.0082  0.0121  0.3178
 1353SOL     OW 7974   8.676   1.631   2.316  0.4257 -0.2259 -0.6160
 1353SOL    HW1 7975   8.642   1.594   2.235 -0.6555 -0.0178 -0.2700
 1353SOL    HW2 7976   8.750   1.686   2.289 -1.5442  2.0169 -1.7997
 1354SOL     OW 7977   3.982   3.689   5.337 -0.1426  0.7615 -0.3151
 1354SOL    HW1 7978   3.958   3.597   5.351 -0.0699  0.7889 -0.0048
 1354SOL    HW2 7979   3.916   3.721   5.276  0.1100  0.3748 -0.8007
 1355SOL     OW 7980   4.998   8.479   8.574 -0.0611  0.1116 -0.1671
 1355SOL    HW1 7981   4.919   8.425   8.575  0.9326 -1.4613  2.2735
 1355SOL    HW2 7982   4.980   8.550   8.634  0.1620  0.0902 -0.0738
 1356SOL     OW 7983   1.926   3.751   6.492 -0.2993 -0.2033  0.1961
 1356SOL    HW1 7984   1.841   3.729   6.453 -1.2586 -0.5677  2.3459
 1356SOL    HW2 7985   1.921   3.844   6.510 -0.4935 -0.3331  0.8460
 1357SOL     OW 7986   4.415   5.037   5.002  0.1422 -0.7650 -0.2547
 1357SOL    HW1 7987   4.432   4.943   5.003  1.5547 -0.5245  0.8187
 1357SOL    HW2 7988   4.321   5.044   4.985 -0.3568 -2.4175  1.5306
 1358SOL     OW 7989   7.104   7.531   9.687 -0.3608 -0.1122  0.0778
 1358SOL    HW1 7990   7.168   7.559   9.622 -0.4219 -0.6145 -0.2018
 1358SOL    HW2 7991   7.020   7.532   9.641 -0.2546 -1.5923 -0.2095
 1359SOL     OW 7992   2.531   3.057   3.871  0.7666 -0.1022 -0.4036
 1359SOL    HW1 7993   2.484   2.981   3.835  1.3843 -0.3356 -0.7568
 1359SOL    HW2 7994   2.585   3.087   3.797  2.4211 -0.8751  0.4344
 1360SOL     OW 7995  10.031   4.861   9.326 -0.1077  0.0440 -0.4201
 1360SOL    HW1 7996  10.099   4.841   9.390 -1.3531 -0.4566  0.8040
 1360SOL    HW2 7997  10.059   4.943   9.286  2.2389 -1.1661 -1.4568
 1361SOL     OW 7998   7.591   3.341   3.579 -0.5194  0.3408  0.3662
 1361SOL    HW1 7999   7.676   3.366   3.614 -0.3431 -2.2684  2.1401
 1361SOL    HW2 8000   7.610   3.294   3.498 -0.3673  0.7666  0.1566
 1362SOL     OW 8001   6.262   3.589   3.967  0.3486 -0.0427 -0.0918
 1362SOL    HW1 8002   6.172   3.619   3.981  0.3317 -0.4008  0.6296
 1362SOL    HW2 8003   6.254   3.518   3.903  0.1490  0.0848 -0.2109
 1363SOL     OW 8004   4.525   2.193   5.326 -0.2523  0.2911 -0.0212
 1363SOL    HW1 8005   4.614   2.196   5.362 -0.1877  0.2303 -0.1751
 1363SOL    HW2 8006   4.519   2.107   5.284 -0.9035 -0.3346  1.2940
 1364SOL     OW 8007   0.621   0.944   6.348  0.2201  0.7723 -0.7036
 1364SOL    HW1 8008   0.553   0.946   6.415  1.4423  0.6867  0.6101
 1364SOL    HW2 8009   0.576   0.920   6.268 -0.8449 -2.5474  0.7144
 1365SOL     OW 8010   6.364   9.438   1.296  0.1236 -0.0731 -0.6414
 1365SOL    HW1 8011   6.321   9.523   1.288  1.6172  0.7172 -0.5273
 1365SOL    HW2 8012   6.393   9.434   1.387  0.7607 -0.3527 -0.8533
 1366SOL     OW 8013   2.856   3.248   3.390 -0.1185  0.6300 -0.1229
 1366SOL    HW1 8014   2.934   3.234   3.444 -0.7488 -0.1034  0.6190
 1366SOL    HW2 8015   2.860   3.178   3.325 -0.8298 -0.2206  0.7243
 1367SOL     OW 8016  10.057   8.606   0.413  0.8224  0.8968 -0.6319
 1367SOL    HW1 8017  10.127   8.545   0.390  0.8172 -0.3668  2.2666
 1367SOL    HW2 8018   9.976   8.555   0.406  0.5649  1.2859 -0.5676
 1368SOL     OW 8019   9.567   7.709   9.759 -0.0692 -0.3214  0.1550
 1368SOL    HW1 8020   9.488   7.690   9.709  0.7299 -1.9808 -0.5486
 1368SOL    HW2 8021   9.548   7.791   9.804 -2.0273 -0.4750 -0.3207
 1369SOL     OW 8022   8.874   9.428   2.839  0.0954  0.7275 -0.3731
 1369SOL    HW1 8023   8.942   9.361   2.839 -0.0643  0.5669 -0.6434
 1369SOL    HW2 8024   8.880   9.470   2.754 -1.2290 -0.3952 -1.0603
 1370SOL     OW 8025   8.467   0.227   4.765  0.4055  0.0330 -0.3431
 1370SOL    HW1 8026   8.385   0.276   4.764  0.2597 -0.1873  0.2921
 1370SOL    HW2 8027   8.482   0.207   4.857  1.2144  0.1343 -0.4420
 1371SOL     OW 8028   6.718   0.318   7.373  0.0487 -0.4458  0.3155
 1371SOL    HW1 8029   6.780   0.340   7.304  0.3137  1.0951  0.9962
 1371SOL    HW2 8030   6.637   0.298   7.327  0.2874  0.3199 -0.4690
 1372SOL     OW 8031   1.300   0.596   9.726  0.5461 -0.2288 -0.3581
 1372SOL    HW1 8032   1.377   0.557   9.767 -0.3444 -0.7541  0.8724
 1372SOL    HW2 8033   1.311   0.690   9.740  1.3300 -0.2352 -0.8693
 1373SOL     OW 8034   8.042   2.761   0.848  0.7282 -0.4639  0.2408
 1373SOL    HW1 8035   8.037   2.707   0.769  0.3159 -1.4417  0.9183
 1373SOL    HW2 8036   7.988   2.837   0.828  2.8041  0.6861 -1.4297
 1374SOL     OW 8037   1.719   1.047   7.338  0.3249 -0.0555  0.4116
 1374SOL    HW1 8038   1.738   1.032   7.430  1.8863 -0.4211  0.0700
 1374SOL    HW2 8039   1.753   0.970   7.293  1.0289  0.7959 -0.5930
 1375SOL     OW 8040   6.734   4.812   5.725 -0.0613 -0.1438  0.4409
 1375SOL    HW1 8041   6.702   4.759   5.797  0.6685  0.1648  1.0088
 1375SOL    HW2 8042   6.777   4.750   5.666 -0.7958 -0.4170  0.1820
 1376SOL     OW 8043   2.883   4.289   2.339 -0.7445 -0.2354 -0.3474
 1376SOL    HW1 8044   2.878   4.324   2.250 -2.5750  1.0720  0.1939
 1376SOL    HW2 8045   2.825   4.213   2.338 -0.8979 -0.1215 -0.2474
 1377SOL     OW 8046   5.443   5.977   2.241 -0.2690  0.1905 -1.0572
 1377SOL    HW1 8047   5.523   6.029   2.230 -0.2133  0.8215  1.7265
 1377SOL    HW2 8048   5.467   5.890   2.208  0.4423  1.1853 -3.3799
 1378SOL     OW 8049   1.946   1.353   1.550 -0.4559 -0.3495  0.1228
 1378SOL    HW1 8050   1.937   1.444   1.576 -0.2854  0.1206 -1.3716
 1378SOL    HW2 8051   2.032   1.348   1.508  0.7198 -1.7996  2.4496
 1379SOL     OW 8052   0.131   1.698   1.536  0.2652 -0.1759 -0.0655
 1379SOL    HW1 8053   0.192   1.767   1.508  0.4872 -0.7131 -0.9678
 1379SOL    HW2 8054   0.083   1.675   1.457 -1.9958  1.0577  0.8763
 1380SOL     OW 8055   9.808   8.340  10.033  0.1976 -0.1741 -0.7256
 1380SOL    HW1 8056   9.819   8.434  10.019 -0.7776  0.0181 -0.2936
 1380SOL    HW2 8057   9.896   8.304  10.025  0.9740  1.0805  1.2812
 1381SOL     OW 8058   8.166   9.565   3.312  0.6151  0.0290  0.5726
 1381SOL    HW1 8059   8.086   9.527   3.345  0.3027  0.1277 -0.0454
 1381SOL    HW2 8060   8.138   9.622   3.240  1.2910 -0.5209 -0.1609
 1382SOL     OW 8061   7.919   6.910   6.260  0.0494 -0.0065  0.4899
 1382SOL    HW1 8062   7.928   6.838   6.198  0.6062 -0.4178  1.0244
 1382SOL    HW2 8063   7.951   6.873   6.343  0.9733  1.0567  0.6249
 1383SOL     OW 8064   5.138   1.570   6.592 -0.4771 -0.5324 -0.0704
 1383SOL    HW1 8065   5.045   1.551   6.605 -0.5331 -0.7769 -0.8295
 1383SOL    HW2 8066   5.152   1.562   6.498  0.4060 -0.8922  0.0827
 1384SOL     OW 8067   6.498   5.386   3.254  0.5394 -0.1170 -0.3573
 1384SOL    HW1 8068   6.442   5.427   3.320 -1.1115 -0.1022 -1.7019
 1384SOL    HW2 8069   6.526   5.304   3.294  0.5873  0.4515  0.8212
 1385SOL     OW 8070   8.012   2.183   3.347 -0.6647  0.1741 -0.6091
 1385SOL    HW1 8071   7.959   2.150   3.420 -1.5768  2.3430 -0.1962
 1385SOL    HW2 8072   8.101   2.188   3.383 -0.7765 -0.4591 -0.2308
 1386SOL     OW 8073   9.916   8.165   2.348  0.5709  0.3153 -0.0660
 1386SOL    HW1 8074   9.881   8.174   2.437 -0.9169 -0.8605 -0.5007
 1386SOL    HW2 8075   9.954   8.251   2.329  3.4687 -0.1328  2.6999
 1387SOL     OW 8076   2.691   2.833   7.508 -0.2532  0.6647  0.2476
 1387SOL    HW1 8077   2.773   2.835   7.460  0.0984 -1.6525  0.6343
 1387SOL    HW2 8078   2.626   2.804   7.444 -0.0310 -1.1471  0.7996
 1388SOL     OW 8079   2.211   5.740   7.705 -0.2482 -0.4650 -0.1183
 1388SOL    HW1 8080   2.247   5.825   7.680 -0.4357 -0.5209 -0.5896
 1388SOL    HW2 8081   2.234   5.730   7.797  0.0028 -0.0204 -0.1315
 1389SOL     OW 8082   7.811   2.173   4.885 -0.4708  0.0848  0.7468
 1389SOL    HW1 8083   7.847   2.191   4.799  0.2670 -1.8627  0.5951
 1389SOL    HW2 8084   7.887   2.160   4.941 -0.9410  0.6181  1.5247
 1390SOL     OW 8085   3.654   9.050   2.567  0.5335  0.4785 -0.1147
 1390SOL    HW1 8086   3.653   9.125   2.508 -1.1363 -0.6581 -1.6210
 1390SOL    HW2 8087   3.565   9.016   2.565  0.8066 -0.5051  1.9195
 1391SOL     OW 8088   9.445   7.164   4.102 -0.8182  0.3755 -0.2354
 1391SOL    HW1 8089   9.496   7.181   4.023 -2.5691 -0.4708 -1.6534
 1391SOL    HW2 8090   9.475   7.078   4.131 -0.4751  0.4898 -0.2514
 1392SOL     OW 8091   8.316   4.763   2.393  0.2071 -0.3946  0.3433
 1392SOL    HW1 8092   8.321   4.787   2.486 -0.4809  1.8258 -0.1247
 1392SOL    HW2 8093   8.222   4.769   2.372  0.2756 -1.5245 -0.3624
 1393SOL     OW 8094   9.927   4.834   6.621 -0.0644  0.1285 -0.0314
 1393SOL    HW1 8095   9.926   4.778   6.699  1.0158 -0.7727 -0.6267
 1393SOL    HW2 8096   9.975   4.782   6.556 -0.9329  0.8669 -1.2948
 1394SOL     OW 8097   3.393   1.730   7.201 -0.0796 -0.3468 -1.0617
 1394SOL    HW1 8098   3.404   1.671   7.275  0.3179 -1.4999 -2.0026
 1394SOL    HW2 8099   3.415   1.816   7.236  1.0507 -1.0000 -0.0644
 1395SOL     OW 8100   7.093   1.139   8.307 -0.3118  0.4722 -0.2655
 1395SOL    HW1 8101   7.116   1.090   8.386 -0.5193  0.6077 -0.1205
 1395SOL    HW2 8102   7.164   1.121   8.246  1.7724  3.1756  1.1333
 1396SOL     OW 8103   9.263   1.754   8.457  0.0362 -0.0090 -0.2303
 1396SOL    HW1 8104   9.247   1.766   8.363  2.2103  0.7493 -0.5722
 1396SOL    HW2 8105   9.331   1.686   8.460  0.5407  0.5287  0.7400
 1397SOL     OW 8106   6.108   4.132   8.703  0.4126  0.0672  0.3415
 1397SOL    HW1 8107   6.189   4.169   8.739  0.2967 -0.7391  1.4910
 1397SOL    HW2 8108   6.038   4.185   8.743  0.3219 -0.1480  0.4702
 1398SOL     OW 8109   1.452   9.448   0.541  0.6322 -0.0137  0.1796
 1398SOL    HW1 8110   1.428   9.468   0.632 -0.1025 -0.3987  0.0730
 1398SOL    HW2 8111   1.546   9.428   0.546  0.9967  1.5758  0.5870
 1399SOL     OW 8112   3.919   3.337   8.852  0.4534 -0.1458  0.3417
 1399SOL    HW1 8113   3.873   3.364   8.773 -0.0581 -1.3236  0.2194
 1399SOL    HW2 8114   3.866   3.371   8.924  0.2220 -0.1827  0.1886
 1400SOL     OW 8115   2.120   4.098   5.874 -0.2033 -0.3619  0.9149
 1400SOL    HW1 8116   2.126   4.087   5.780 -3.6406 -0.3262  0.5661
 1400SOL    HW2 8117   2.092   4.013   5.907  1.5967 -0.5647  2.0358
 1401SOL     OW 8118   4.544   9.964   2.030 -0.0837 -0.2335  0.5929
 1401SOL    HW1 8119   4.458   9.925   2.016  0.6126 -1.3044 -1.0235
 1401SOL    HW2 8120   4.606   9.892   2.015  1.1244  0.7605  0.6099
 1402SOL     OW 8121   8.110   0.804   7.825  0.7280 -0.4854  0.1794
 1402SOL    HW1 8122   8.061   0.753   7.889  0.3649 -0.9289 -0.4382
 1402SOL    HW2 8123   8.138   0.739   7.760  0.5909  0.0454 -0.4115
 1403SOL     OW 8124   8.317   3.897   3.622 -0.5954 -0.0703  0.0353
 1403SOL    HW1 8125   8.381   3.934   3.684  1.1608 -1.5597 -0.7709
 1403SOL    HW2 8126   8.247   3.863   3.678  1.0814 -1.6478  1.3293
 1404SOL     OW 8127   0.425   8.028   5.101  0.5158  0.2099  0.3681
 1404SOL    HW1 8128   0.468   7.958   5.149  0.5087  0.3372  0.5658
 1404SOL    HW2 8129   0.389   7.986   5.023  2.5057  0.4151 -0.7351
 1405SOL     OW 8130   3.387   7.158   7.434  0.1465  0.1686 -0.2516
 1405SOL    HW1 8131   3.358   7.069   7.413 -0.7976  0.6530 -1.1050
 1405SOL    HW2 8132   3.427   7.190   7.353 -1.0790  1.1100 -0.5188
 1406SOL     OW 8133   3.396   7.047   4.674 -0.1074  0.0659 -0.3895
 1406SOL    HW1 8134   3.429   7.107   4.606 -1.2958  0.0963 -0.9670
 1406SOL    HW2 8135   3.301   7.054   4.667 -0.2517  0.0537  1.2984
 1407SOL     OW 8136   0.458   6.996   3.747  0.3795 -0.2611 -0.7104
 1407SOL    HW1 8137   0.481   6.940   3.822  1.8022 -0.3795 -1.1971
 1407SOL    HW2 8138   0.487   7.083   3.774 -0.1407 -0.0934 -0.6879
 1408SOL     OW 8139   7.604   2.132   6.467 -0.3890  0.0384 -0.5124
 1408SOL    HW1 8140   7.550   2.164   6.539  0.5644  0.4815  0.0326
 1408SOL    HW2 8141   7.566   2.170   6.388 -0.5522  0.7710 -0.0813
 1409SOL     OW 8142   4.116   0.372   4.363 -0.2086 -0.0741  0.2778
 1409SOL    HW1 8143   4.031   0.332   4.383 -0.8961  0.5903 -1.1699
 1409SOL    HW2 8144   4.097   0.466   4.356  0.8240  0.1885  0.7556
 1410SOL     OW 8145   1.425   3.091   4.390  0.0984 -0.2310  0.1959
 1410SOL    HW1 8146   1.468   3.057   4.313  1.3770  0.9544  0.3448
 1410SOL    HW2 8147   1.480   3.064   4.463  1.3125  2.2322  0.2987
 1411SOL     OW 8148   6.983   0.216   9.423  0.4884  0.1051  0.4293
 1411SOL    HW1 8149   6.977   0.227   9.518  0.5383 -0.7549  0.5372
 1411SOL    HW2 8150   6.972   0.305   9.388 -0.2716  0.3198  1.1946
 1412SOL     OW 8151   1.143   8.871   7.379  0.3982  0.2178  0.5713
 1412SOL    HW1 8152   1.167   8.821   7.301  2.0272  2.0796 -0.2123
 1412SOL    HW2 8153   1.112   8.806   7.441 -3.4736 -1.2034 -2.3812
 1413SOL     OW 8154   0.863   4.312   5.375  0.0306 -0.0782  0.4965
 1413SOL    HW1 8155   0.906   4.228   5.360 -0.9112 -0.4784 -0.0932
 1413SOL    HW2 8156   0.935   4.375   5.380  0.7112 -0.7959  0.0772
 1414SOL     OW 8157   6.909   5.658   5.265 -0.6627  0.6959 -0.3166
 1414SOL    HW1 8158   6.875   5.577   5.303 -1.3055  1.2937  0.4111
 1414SOL    HW2 8159   6.973   5.628   5.199 -1.1996 -0.4067 -0.3702
 1415SOL     OW 8160   1.459   2.789   6.376  0.4019  0.0713  0.4368
 1415SOL    HW1 8161   1.474   2.718   6.438 -0.1449 -0.8462 -0.4482
 1415SOL    HW2 8162   1.505   2.762   6.297  0.6270  0.9558  0.2558
 1416SOL     OW 8163   1.369   9.038   3.471 -0.6326 -0.5112 -0.0947
 1416SOL    HW1 8164   1.416   8.957   3.493  1.2191  0.7328  0.7629
 1416SOL    HW2 8165   1.421   9.107   3.512 -3.6368  0.9419  1.5623
 1417SOL     OW 8166   3.831   8.876   7.480 -0.5618  0.0537 -0.1904
 1417SOL    HW1 8167   3.859   8.861   7.390 -1.0167  0.3938 -0.3987
 1417SOL    HW2 8168   3.889   8.823   7.533 -1.2878 -1.4040 -0.7962
 1418SOL     OW 8169   0.399   8.700   1.535 -0.3586 -0.0586 -0.4639
 1418SOL    HW1 8170   0.366   8.657   1.614 -1.1335  0.5420 -0.4452
 1418SOL    HW2 8171   0.339   8.674   1.466 -1.4260  1.7232 -0.2616
 1419SOL     OW 8172   4.794   8.877   8.308  0.6896 -0.1268  0.4402
 1419SOL    HW1 8173   4.705   8.912   8.306  0.2985 -1.0206  1.4707
 1419SOL    HW2 8174   4.786   8.792   8.352  1.9767 -0.4493  0.0997
 1420SOL     OW 8175   6.808   9.428   2.167 -0.4065 -0.1082  0.1281
 1420SOL    HW1 8176   6.723   9.473   2.171  0.0652  0.8258 -0.0814
 1420SOL    HW2 8177   6.786   9.335   2.171 -1.3838  0.1425  0.9777
 1421SOL     OW 8178   1.862   6.920   2.035 -0.2690  0.1739  0.4177
 1421SOL    HW1 8179   1.884   7.002   2.080 -0.4135  1.2099 -1.2586
 1421SOL    HW2 8180   1.814   6.949   1.957  0.0865 -1.4888 -0.4563
 1422SOL     OW 8181   6.954   0.719   8.527 -0.2768 -0.4362  0.3733
 1422SOL    HW1 8182   6.932   0.710   8.619  1.0488  3.1436  1.1986
 1422SOL    HW2 8183   6.882   0.770   8.490 -0.2177 -0.8244 -0.2885
 1423SOL     OW 8184   3.003   4.905   1.977  0.0177 -0.2856 -0.0218
 1423SOL    HW1 8185   2.995   4.996   2.003  1.0203  0.7950 -3.0998
 1423SOL    HW2 8186   3.074   4.870   2.031  1.2659  1.4666 -0.4848
 1424SOL     OW 8187   2.431  10.178   7.075 -0.4636 -0.3099 -0.5701
 1424SOL    HW1 8188   2.483  10.227   7.010  0.0070 -1.6041 -1.1963
 1424SOL    HW2 8189   2.490  10.167   7.149 -1.4923  2.5373  0.8268
 1425SOL     OW 8190   7.939   0.487   7.214  0.3324  0.4005  0.3197
 1425SOL    HW1 8191   7.934   0.561   7.275 -3.0782 -0.1752  0.9779
 1425SOL    HW2 8192   7.927   0.526   7.127  1.4233  0.8542  0.3605
 1426SOL     OW 8193   0.904   1.598   2.324 -0.8972  0.0972 -0.1693
 1426SOL    HW1 8194   0.824   1.547   2.342 -1.5744  0.4501 -2.0175
 1426SOL    HW2 8195   0.884   1.685   2.359 -1.6480  0.3943 -1.2837
 1427SOL     OW 8196   0.912   1.057   7.338  0.2360 -0.4724  0.4697
 1427SOL    HW1 8197   1.005   1.040   7.324  0.3640  0.7407 -0.3171
 1427SOL    HW2 8198   0.892   1.132   7.281 -1.6789 -1.9162 -0.9210
 1428SOL     OW 8199   7.430   0.531   2.161  0.2896 -0.4104  1.2203
 1428SOL    HW1 8200   7.377   0.578   2.096  0.1261 -1.5668  0.4916
 1428SOL    HW2 8201   7.380   0.539   2.242 -1.0337 -1.4732  0.5485
 1429SOL     OW 8202   8.422   9.154   5.612 -0.6551  0.0738  0.2179
 1429SOL    HW1 8203   8.396   9.139   5.702 -1.6022  0.8431  0.0918
 1429SOL    HW2 8204   8.362   9.100   5.560 -1.0063  0.6554  0.0000
 1430SOL     OW 8205   2.176   3.204   0.013 -0.8846 -0.1399  0.2576
 1430SOL    HW1 8206   2.212   3.292   0.025  2.8024 -1.1637 -1.8248
 1430SOL    HW2 8207   2.127   3.209  -0.069 -0.6497 -0.0120  0.1231
 1431SOL     OW 8208   7.458   6.194   7.675 -0.1676 -0.1569  0.1204
 1431SOL    HW1 8209   7.554   6.199   7.668 -0.1994  0.7554  0.2075
 1431SOL    HW2 8210   7.426   6.259   7.612 -0.7144 -0.0801  0.4700
 1432SOL     OW 8211   4.967   4.386   3.671  0.0077  0.0590 -0.2719
 1432SOL    HW1 8212   4.941   4.352   3.585  0.2835 -2.1520  0.4535
 1432SOL    HW2 8213   4.974   4.308   3.726 -1.8847  1.5246  2.2726
 1433SOL     OW 8214   4.402   8.136   0.755  0.2597  0.4696 -0.0052
 1433SOL    HW1 8215   4.424   8.097   0.670 -1.5349 -1.2259  0.2491
 1433SOL    HW2 8216   4.328   8.194   0.736 -0.2513 -0.0385  0.4117
 1434SOL     OW 8217   9.039   1.975   7.728  0.4545 -0.6731  0.1843
 1434SOL    HW1 8218   8.999   2.001   7.811  0.1406  0.4952 -0.3077
 1434SOL    HW2 8219   8.969   1.931   7.680  0.4156 -0.6657  0.2340
 1435SOL     OW 8220   5.444   8.685   0.537 -0.7866 -0.2965  0.2894
 1435SOL    HW1 8221   5.454   8.697   0.632  0.2802  0.0464  0.1440
 1435SOL    HW2 8222   5.452   8.591   0.524 -1.2812 -0.3820  0.5716
 1436SOL     OW 8223   4.261   3.047   5.882  0.0326 -0.1665 -0.1950
 1436SOL    HW1 8224   4.332   3.054   5.946  0.1079  0.1475 -0.3106
 1436SOL    HW2 8225   4.207   2.976   5.915  0.7371 -0.8283 -0.4392
 1437SOL     OW 8226   1.555   4.964   7.228  0.3872 -0.6012 -0.5811
 1437SOL    HW1 8227   1.507   4.943   7.308  1.0328 -0.3694 -0.1188
 1437SOL    HW2 8228   1.614   5.035   7.254 -1.1696  1.2886 -1.8873
 1438SOL     OW 8229   0.158   2.099   1.824  0.1241 -0.2099 -0.2024
 1438SOL    HW1 8230   0.251   2.080   1.815 -0.1416 -2.4639  1.0961
 1438SOL    HW2 8231   0.128   2.040   1.894 -1.9268  1.7003  0.6346
 1439SOL     OW 8232   3.684   4.135   8.804  0.3799  0.4253  0.1807
 1439SOL    HW1 8233   3.766   4.099   8.773 -0.4048 -1.2898 -0.0360
 1439SOL    HW2 8234   3.678   4.221   8.762  0.5761 -0.7205 -2.4043
 1440SOL     OW 8235   6.136   0.862   0.670 -0.3383 -0.8098  0.5163
 1440SOL    HW1 8236   6.136   0.838   0.578 -0.6044 -1.3677  0.6566
 1440SOL    HW2 8237   6.043   0.874   0.691 -0.1949  0.9255  0.3103
 1441SOL     OW 8238   1.033   7.813   1.379 -0.2511 -0.2955 -0.0284
 1441SOL    HW1 8239   1.124   7.830   1.403  0.8302  0.1691 -3.7567
 1441SOL    HW2 8240   1.016   7.725   1.411  1.0702  0.0543  1.7893
 1442SOL     OW 8241   7.422   9.727   2.925 -0.2475 -0.0035  0.5808
 1442SOL    HW1 8242   7.341   9.711   2.875  0.0048  1.1253 -0.2185
 1442SOL    HW2 8243   7.481   9.658   2.896 -0.7264 -0.4877  0.7350
 1443SOL     OW 8244   4.328   3.795   8.495 -0.2297 -0.0777 -0.8048
 1443SOL    HW1 8245   4.239   3.764   8.478 -0.3099 -0.0121 -0.5103
 1443SOL    HW2 8246   4.373   3.786   8.411 -0.8171  0.9167 -1.2451
 1444SOL     OW 8247   3.620   9.863   4.460  0.6373 -0.0221 -0.3791
 1444SOL    HW1 8248   3.714   9.844   4.470  0.3011 -0.7298  1.9699
 1444SOL    HW2 8249   3.583   9.781   4.427  0.7593  0.0791 -0.7712
 1445SOL     OW 8250   7.407   9.729   0.292 -0.0317  0.5195 -0.4230
 1445SOL    HW1 8251   7.410   9.638   0.264 -0.5016  0.5436 -0.5708
 1445SOL    HW2 8252   7.469   9.734   0.365 -0.0356  0.0718 -0.3842
 1446SOL     OW 8253   6.295   6.722   4.878  0.2039 -0.6508  0.3493
 1446SOL    HW1 8254   6.208   6.762   4.870  0.6116  0.2064  0.1541
 1446SOL    HW2 8255   6.340   6.774   4.944  1.2455  0.1400 -0.9467
 1447SOL     OW 8256   9.072   4.345   4.755 -0.7953  0.6566  0.3849
 1447SOL    HW1 8257   8.996   4.374   4.806 -0.3826  2.8400 -0.1643
 1447SOL    HW2 8258   9.101   4.423   4.708 -0.2080 -0.8998 -2.0106
 1448SOL     OW 8259   3.167   5.785   3.762 -0.5509 -0.2053 -0.1012
 1448SOL    HW1 8260   3.102   5.727   3.723  0.3841 -1.6887  0.4520
 1448SOL    HW2 8261   3.212   5.730   3.827 -0.5659  1.5424  1.4580
 1449SOL     OW 8262   3.286   5.802   5.839 -0.5560  0.1607 -0.0401
 1449SOL    HW1 8263   3.226   5.863   5.883 -0.4279 -0.0842  0.4819
 1449SOL    HW2 8264   3.343   5.770   5.909  0.9675  1.2791 -0.6986
 1450SOL     OW 8265   9.229   9.054   1.789  0.5104  0.2875  0.0891
 1450SOL    HW1 8266   9.201   9.113   1.720  0.9123  0.5426  0.1406
 1450SOL    HW2 8267   9.302   9.005   1.751 -0.5842 -1.0427 -0.3652
 1451SOL     OW 8268   0.786   3.725   2.807  0.3505 -0.0231 -0.2662
 1451SOL    HW1 8269   0.716   3.773   2.762  2.0418  2.2428 -0.6641
 1451SOL    HW2 8270   0.864   3.780   2.796  2.0910 -2.1445  0.6645
 1452SOL     OW 8271   6.697   9.124   7.382 -0.9073  0.3268  0.3594
 1452SOL    HW1 8272   6.728   9.198   7.435 -0.3239  0.3176  0.0476
 1452SOL    HW2 8273   6.744   9.134   7.299 -2.3420  0.7536 -0.4268
 1453SOL     OW 8274   5.815   9.386   4.501 -0.1193 -0.0740 -0.0245
 1453SOL    HW1 8275   5.720   9.387   4.493 -0.1287  1.5140  0.1283
 1453SOL    HW2 8276   5.836   9.293   4.515 -1.7941 -0.2406  1.7771
 1454SOL     OW 8277   7.726   4.977   5.109  0.0000 -0.3429 -0.0665
 1454SOL    HW1 8278   7.777   4.951   5.186  0.2501 -0.1236 -0.1546
 1454SOL    HW2 8279   7.635   4.978   5.139 -0.0347 -1.4457 -0.0959
 1455SOL     OW 8280   6.207   8.607   0.931 -0.0749  0.2460  0.0963
 1455SOL    HW1 8281   6.142   8.617   0.862 -0.0154  0.1671  0.0282
 1455SOL    HW2 8282   6.186   8.523   0.972  0.3282 -0.0509 -0.2913
 1456SOL     OW 8283   5.953   6.368   6.825 -0.5039  0.2157  0.1465
 1456SOL    HW1 8284   5.990   6.456   6.836  0.2256 -0.3449  2.8344
 1456SOL    HW2 8285   6.018   6.321   6.772 -0.1065  0.8359  0.0707
 1457SOL     OW 8286   1.368   7.394   2.131  0.1187 -0.3235 -0.0941
 1457SOL    HW1 8287   1.283   7.402   2.089  0.6449  0.0061 -1.1394
 1457SOL    HW2 8288   1.356   7.327   2.198 -1.3284  0.7541  0.7747
 1458SOL     OW 8289   0.614   9.034   3.039  0.4672 -0.2962  0.0042
 1458SOL    HW1 8290   0.535   8.993   3.074  1.6302 -1.5036  1.3429
 1458SOL    HW2 8291   0.661   8.963   2.996  0.8245  0.4209 -0.8378
 1459SOL     OW 8292   7.679   7.091   5.054 -0.0412  0.4529 -0.1000
 1459SOL    HW1 8293   7.594   7.057   5.028 -0.9559  1.8160  0.9531
 1459SOL    HW2 8294   7.721   7.018   5.100 -1.6609  0.4457  1.4960
 1460SOL     OW 8295  10.070   6.617   0.681  0.1886 -0.3724  0.0291
 1460SOL    HW1 8296  10.129   6.577   0.745  0.1739  0.4297  0.5444
 1460SOL    HW2 8297  10.001   6.658   0.734 -0.8121 -1.2283 -0.5565
 1461SOL     OW 8298   9.937   9.348   0.907 -0.5782 -0.0298  0.0354
 1461SOL    HW1 8299   9.934   9.254   0.890  1.1069  0.0024 -0.6202
 1461SOL    HW2 8300   9.845   9.374   0.912 -1.0810 -1.6117 -0.2495
 1462SOL     OW 8301   6.733   8.000   9.473  0.0900  0.2938  0.5920
 1462SOL    HW1 8302   6.662   7.989   9.409 -0.5699 -0.3655  1.4193
 1462SOL    HW2 8303   6.755   8.093   9.467 -0.3780  0.3682 -0.1583
 1463SOL     OW 8304   8.967   0.747   8.935  0.2294 -0.1676 -0.7494
 1463SOL    HW1 8305   8.937   0.748   9.026 -1.7045 -0.2295 -1.3376
 1463SOL    HW2 8306   9.043   0.806   8.934  1.6222 -1.7649  1.2749
 1464SOL     OW 8307   8.488   9.908   6.530  1.0243  0.2083  0.0791
 1464SOL    HW1 8308   8.488   9.931   6.437 -2.7054 -0.6674 -0.3003
 1464SOL    HW2 8309   8.440   9.825   6.535  0.8104  0.3858  2.8138
 1465SOL     OW 8310   9.872   1.039   3.172  0.0027 -0.1009  0.3499
 1465SOL    HW1 8311   9.842   1.114   3.224  0.9675  0.3091  0.3490
 1465SOL    HW2 8312   9.819   0.966   3.202 -3.6059  1.1759 -2.1359
 1466SOL     OW 8313   7.015   8.573   3.420  0.4368  0.2409 -0.3428
 1466SOL    HW1 8314   6.930   8.545   3.454  0.8750 -0.1135  0.4976
 1466SOL    HW2 8315   7.022   8.529   3.335  0.4895 -1.0839  0.3205
 1467SOL     OW 8316   1.809   6.378   2.671  0.4130  0.2835  0.4963
 1467SOL    HW1 8317   1.815   6.283   2.670  0.9710  0.2633  2.0919
 1467SOL    HW2 8318   1.735   6.398   2.614  1.4634 -0.9563 -1.4239
 1468SOL     OW 8319   1.295   0.570   7.641  0.1203  0.2230 -0.9080
 1468SOL    HW1 8320   1.315   0.626   7.717  0.6204  0.3595 -1.1300
 1468SOL    HW2 8321   1.377   0.523   7.625  0.2287  0.6725 -1.7512
 1469SOL     OW 8322   8.208   1.834   6.786 -0.7354  1.2860  0.1249
 1469SOL    HW1 8323   8.198   1.778   6.863  0.3770  0.7094 -0.1253
 1469SOL    HW2 8324   8.179   1.921   6.815 -0.2362  1.1009  1.2283
 1470SOL     OW 8325   5.746   2.462   3.599  0.0597 -0.6848 -0.3934
 1470SOL    HW1 8326   5.775   2.501   3.517 -1.6604 -1.4967 -1.4424
 1470SOL    HW2 8327   5.822   2.411   3.629  0.2597 -1.5623 -2.2552
 1471SOL     OW 8328   3.161   0.306   3.530  0.3287 -0.8365 -0.2958
 1471SOL    HW1 8329   3.187   0.385   3.578 -0.9236 -0.6085  0.0423
 1471SOL    HW2 8330   3.205   0.235   3.577  0.6118 -0.4428  0.0485
 1472SOL     OW 8331   2.627   0.965   9.949  0.0416  0.1238 -0.0411
 1472SOL    HW1 8332   2.561   0.905   9.985 -0.0076 -0.3390 -0.9005
 1472SOL    HW2 8333   2.649   1.022  10.023 -1.4384  0.3963  0.2254
 1473SOL     OW 8334   0.316   3.756   7.748 -0.4239 -0.6692 -0.2308
 1473SOL    HW1 8335   0.269   3.755   7.831 -0.1719 -0.2666 -0.0820
 1473SOL    HW2 8336   0.365   3.674   7.746 -0.2432 -0.5697  0.1232
 1474SOL     OW 8337   5.319   2.254   8.605 -0.1075  0.5383  0.0991
 1474SOL    HW1 8338   5.349   2.165   8.584  0.2244  0.5995  0.3036
 1474SOL    HW2 8339   5.288   2.290   8.522 -1.4148 -0.2115  0.2304
 1475SOL     OW 8340   5.415   1.248   7.399  0.0645 -0.9213 -0.5975
 1475SOL    HW1 8341   5.494   1.296   7.376  1.0003 -2.1756 -0.0929
 1475SOL    HW2 8342   5.345   1.293   7.352  0.5884  2.0935  1.2710
 1476SOL     OW 8343   5.783   6.119   6.379  0.3308 -0.2226 -0.2712
 1476SOL    HW1 8344   5.848   6.179   6.414  1.0446 -0.8252 -0.5533
 1476SOL    HW2 8345   5.805   6.112   6.286  0.3989 -1.0956 -0.1975
 1477SOL     OW 8346   6.227   6.138   3.398  0.4049  0.1179 -0.1878
 1477SOL    HW1 8347   6.225   6.093   3.482 -0.7263 -2.2183 -1.3571
 1477SOL    HW2 8348   6.144   6.185   3.394  0.5888  0.4726  0.1036
 1478SOL     OW 8349   3.556   7.700   7.905  0.0851 -0.5540  0.6208
 1478SOL    HW1 8350   3.631   7.654   7.867  0.6103  0.5179  0.3330
 1478SOL    HW2 8351   3.483   7.678   7.848  0.1912 -1.5170  0.8369
 1479SOL     OW 8352   0.560   5.477   2.184 -0.0427  0.2611  0.0952
 1479SOL    HW1 8353   0.504   5.554   2.176  0.3933  0.8481  2.0272
 1479SOL    HW2 8354   0.641   5.500   2.139 -0.7011  0.0572 -1.2344
 1480SOL     OW 8355   8.462   0.006   4.968 -0.4386  0.2488 -0.1847
 1480SOL    HW1 8356   8.458  -0.024   5.059 -0.9847 -1.2849 -0.6927
 1480SOL    HW2 8357   8.553  -0.011   4.942 -0.9679 -2.0725 -0.7783
 1481SOL     OW 8358   9.832   0.674   6.434  0.2079  0.3682  0.0799
 1481SOL    HW1 8359   9.857   0.679   6.342 -0.4161 -0.8432 -0.1762
 1481SOL    HW2 8360   9.770   0.747   6.447  0.6257  0.8018 -0.3321
 1482SOL     OW 8361   9.508   9.053   7.141 -0.1146  0.3506  0.3845
 1482SOL    HW1 8362   9.449   9.037   7.215 -1.7297 -0.5712 -1.0103
 1482SOL    HW2 8363   9.454   9.101   7.077  0.2545 -1.4348 -1.3731
 1483SOL     OW 8364   9.222   1.866   3.839  0.2770 -0.4958  0.1056
 1483SOL    HW1 8365   9.220   1.953   3.879 -0.4363 -0.8613  0.8937
 1483SOL    HW2 8366   9.147   1.864   3.780  0.9581 -0.1862 -0.7971
 1484SOL     OW 8367  10.071   3.508   7.508  0.5515 -0.0080  0.3170
 1484SOL    HW1 8368  10.059   3.568   7.434  0.6967 -1.3608 -0.8556
 1484SOL    HW2 8369   9.993   3.451   7.506  1.3391 -1.1180  0.1411
 1485SOL     OW 8370   7.103   0.568   1.312  0.3090 -0.2308  0.1935
 1485SOL    HW1 8371   7.090   0.599   1.222  0.1018 -1.9928 -0.4310
 1485SOL    HW2 8372   7.170   0.501   1.304 -0.5401 -1.2347  1.1587
 1486SOL     OW 8373   5.384  10.121   4.090  0.0020  0.1558 -0.2639
 1486SOL    HW1 8374   5.358  10.037   4.053 -0.7220  0.4677 -0.5022
 1486SOL    HW2 8375   5.354  10.118   4.181 -1.6567  0.8068 -0.7402
 1487SOL     OW 8376   2.648   7.769   8.066  0.1192 -0.4949 -0.4742
 1487SOL    HW1 8377   2.573   7.731   8.018 -1.1285  0.3844  0.7048
 1487SOL    HW2 8378   2.701   7.811   7.998 -1.6902  0.8571 -1.1286
 1488SOL     OW 8379   5.307   8.363   7.069 -0.0891 -0.6274 -0.5160
 1488SOL    HW1 8380   5.393   8.398   7.044 -0.3137 -0.4130 -1.0107
 1488SOL    HW2 8381   5.312   8.353   7.164 -0.0849  0.9621 -0.3229
 1489SOL     OW 8382   4.813   2.939   7.887 -0.3791 -0.7825  1.0013
 1489SOL    HW1 8383   4.901   2.973   7.876 -0.6949  0.0015  0.8580
 1489SOL    HW2 8384   4.811   2.905   7.977 -0.2412  0.1497  1.3667
 1490SOL     OW 8385   8.708   9.157   7.314  0.0055  0.0644 -0.2335
 1490SOL    HW1 8386   8.689   9.071   7.275 -0.2913  0.3540 -0.7288
 1490SOL    HW2 8387   8.752   9.206   7.244  1.0135  0.0049  0.3397
 1491SOL     OW 8388   5.200   8.082   3.142  0.3219 -0.1454  0.2725
 1491SOL    HW1 8389   5.147   8.137   3.200  0.6326  0.6365 -0.1730
 1491SOL    HW2 8390   5.277   8.135   3.123  0.3457 -0.4936 -0.6592
 1492SOL     OW 8391   6.004   0.214   3.460  0.0682  0.0244  0.4983
 1492SOL    HW1 8392   6.023   0.140   3.517  0.7374 -0.9300 -0.9208
 1492SOL    HW2 8393   6.038   0.189   3.375 -0.5964  1.5575 -0.2666
 1493SOL     OW 8394   5.014   7.001   3.048 -1.0647 -0.2819  0.3930
 1493SOL    HW1 8395   4.991   6.957   2.966  0.0685 -1.1451  0.5179
 1493SOL    HW2 8396   5.009   6.932   3.114  0.5214 -0.2050  0.6307
 1494SOL     OW 8397   9.169   5.876   3.796  0.6095 -0.1962  0.3936
 1494SOL    HW1 8398   9.220   5.851   3.872  0.0562 -1.8618  0.2610
 1494SOL    HW2 8399   9.223   5.850   3.721 -0.3038 -1.7621  0.2535
 1495SOL     OW 8400   9.375   5.503   7.927 -0.7806 -0.1377 -0.1693
 1495SOL    HW1 8401   9.386   5.568   7.858 -0.2335 -0.6277 -0.5465
 1495SOL    HW2 8402   9.422   5.426   7.896 -0.0698 -0.1921  0.9837
 1496SOL     OW 8403   9.764   0.434  10.119 -0.0008  0.3198  0.2213
 1496SOL    HW1 8404   9.721   0.454  10.202  0.0257  0.9360  0.0909
 1496SOL    HW2 8405   9.715   0.361  10.083  0.2426 -0.2252  0.9753
 1497SOL     OW 8406   6.098   1.202   9.903 -0.2001  0.1274 -0.3731
 1497SOL    HW1 8407   6.090   1.256   9.981 -5.7333 -0.4785 -0.0879
 1497SOL    HW2 8408   6.089   1.112   9.935  1.7013 -0.5047 -1.4493
 1498SOL     OW 8409   0.260   8.791   7.902  0.0830 -0.1025 -0.1115
 1498SOL    HW1 8410   0.226   8.728   7.839  0.7198 -1.2131  0.6204
 1498SOL    HW2 8411   0.331   8.835   7.856  0.6717 -1.0440 -0.1437
 1499SOL     OW 8412   7.498   7.723   0.022  0.0738  0.4621 -0.2175
 1499SOL    HW1 8413   7.517   7.640  -0.023  0.7243 -0.7735  2.1427
 1499SOL    HW2 8414   7.493   7.699   0.115 -2.8060  2.5765  0.2938
 1500SOL     OW 8415   6.276   4.043   6.002 -0.6167  0.5648  0.4412
 1500SOL    HW1 8416   6.260   3.950   6.016  0.7257  0.2148 -0.2469
 1500SOL    HW2 8417   6.250   4.084   6.085  0.3443 -0.6107  1.3612
 1501SOL     OW 8418   0.250   0.656   6.153 -0.3791 -0.3611  0.2563
 1501SOL    HW1 8419   0.177   0.609   6.193 -0.5256  1.0863  1.7788
 1501SOL    HW2 8420   0.226   0.748   6.160  0.3966  0.0237 -1.6731
 1502SOL     OW 8421   0.415   6.414   7.444 -0.2490  0.0969  0.2764
 1502SOL    HW1 8422   0.386   6.495   7.487  0.5366  0.2078  0.6103
 1502SOL    HW2 8423   0.511   6.420   7.445 -0.1687  0.6178 -2.4119
 1503SOL     OW 8424   3.782   4.875   3.453  0.3782  0.0821  0.0718
 1503SOL    HW1 8425   3.720   4.913   3.390 -0.3380 -0.2679  0.5556
 1503SOL    HW2 8426   3.861   4.927   3.442  0.2659  0.0389 -1.1165
 1504SOL     OW 8427   7.782   8.373   9.867  0.1434  0.3863  0.4915
 1504SOL    HW1 8428   7.800   8.372   9.773 -1.0537  1.2512  0.2364
 1504SOL    HW2 8429   7.781   8.281   9.892 -2.8140 -0.1041 -1.0376
 1505SOL     OW 8430   8.618   7.248   7.237 -0.3219 -0.3583 -0.3677
 1505SOL    HW1 8431   8.614   7.301   7.317 -1.3307  0.5005 -0.9614
 1505SOL    HW2 8432   8.712   7.232   7.224 -0.0922  0.1738  0.5496
 1506SOL     OW 8433   7.681   7.704   7.573 -0.6597  0.5734  0.1060
 1506SOL    HW1 8434   7.629   7.785   7.571 -0.9630  0.3659 -0.7947
 1506SOL    HW2 8435   7.618   7.635   7.593 -1.0192  0.1476 -2.2056
 1507SOL     OW 8436   1.051   0.107   8.221 -0.2716 -0.1989 -0.6110
 1507SOL    HW1 8437   1.117   0.061   8.273 -0.7375  0.9631  1.0938
 1507SOL    HW2 8438   1.101   0.161   8.161  0.2848 -1.0172 -0.9080
 1508SOL     OW 8439   9.989   7.996   5.053  0.5839  0.4285 -0.2998
 1508SOL    HW1 8440   9.938   7.916   5.064  0.2436  0.1989 -2.9542
 1508SOL    HW2 8441   9.926   8.062   5.025  1.2429  0.9578 -0.5773
 1509SOL     OW 8442   6.093   4.118   5.305  0.6863  0.0552  0.2866
 1509SOL    HW1 8443   6.105   4.204   5.263 -1.3439  0.0400 -0.4495
 1509SOL    HW2 8444   6.161   4.063   5.267  1.5702  1.1467  0.2380
 1510SOL     OW 8445   9.459   2.305   2.456 -0.4872  0.3484  0.1430
 1510SOL    HW1 8446   9.395   2.251   2.503 -1.5764  0.5936 -0.9958
 1510SOL    HW2 8447   9.541   2.289   2.501 -1.0739 -1.0984  0.7764
 1511SOL     OW 8448   9.275   3.810   4.521 -0.1449 -0.3753  0.1844
 1511SOL    HW1 8449   9.280   3.870   4.595  2.1437  0.2265 -0.3774
 1511SOL    HW2 8450   9.321   3.855   4.450 -0.0777 -1.9737 -0.8428
 1512SOL     OW 8451   5.834   0.731   4.914  0.2006 -0.3614  0.4538
 1512SOL    HW1 8452   5.748   0.693   4.931 -1.8620  2.8901 -1.5788
 1512SOL    HW2 8453   5.862   0.691   4.832 -0.0423 -0.4432  0.4099
 1513SOL     OW 8454   7.007   8.647   5.151  0.2306  0.2357 -0.6566
 1513SOL    HW1 8455   6.989   8.726   5.099  0.6226  0.1555 -0.9264
 1513SOL    HW2 8456   6.921   8.612   5.174  0.0383 -0.1687 -1.9299
 1514SOL     OW 8457   2.142   3.016   8.184 -0.4795 -0.2657  0.2479
 1514SOL    HW1 8458   2.095   3.099   8.188  1.5468  1.0375 -1.4244
 1514SOL    HW2 8459   2.120   2.980   8.098  0.8705 -0.0328 -0.2158
 1515SOL     OW 8460   9.100   6.944   5.604 -0.5059 -0.8418  0.2918
 1515SOL    HW1 8461   9.041   6.874   5.574 -2.4378  0.1226  1.6562
 1515SOL    HW2 8462   9.126   6.917   5.692 -0.7099 -0.1639  0.5626
 1516SOL     OW 8463  10.169   6.036   7.315  0.3750 -0.4008  0.4320
 1516SOL    HW1 8464  10.201   6.071   7.232 -0.5449 -2.3775 -0.8564
 1516SOL    HW2 8465  10.110   6.104   7.348 -1.3306 -0.5561 -1.9326
 1517SOL     OW 8466   7.869   0.206   3.642 -0.2048  0.0324 -0.1911
 1517SOL    HW1 8467   7.833   0.233   3.727  0.4531 -0.9834  0.4338
 1517SOL    HW2 8468   7.879   0.288   3.593 -4.7003  0.3098 -1.0106
 1518SOL     OW 8469   0.319   0.581   2.995  0.3449 -0.5746  0.4027
 1518SOL    HW1 8470   0.275   0.510   3.041  0.1807 -0.3607  0.5784
 1518SOL    HW2 8471   0.251   0.646   2.979  0.6469 -0.1258  0.9119
 1519SOL     OW 8472   3.673   3.938   7.457  0.7897 -0.1936  0.2205
 1519SOL    HW1 8473   3.699   3.922   7.367 -1.0091 -2.5652  0.0207
 1519SOL    HW2 8474   3.721   3.873   7.508 -1.2261 -1.6582  0.3751
 1520SOL     OW 8475   8.256   3.706   3.426  0.0796 -0.0595 -0.5551
 1520SOL    HW1 8476   8.252   3.789   3.472 -0.5861 -0.3751 -0.0265
 1520SOL    HW2 8477   8.239   3.729   3.334  3.3620  0.8398 -1.0669
 1521SOL     OW 8478   0.267   4.642   2.119  0.4122 -0.3191 -0.1209
 1521SOL    HW1 8479   0.298   4.732   2.103 -0.8519 -0.0415 -1.2057
 1521SOL    HW2 8480   0.183   4.653   2.163 -0.7116 -0.8710 -1.9994
 1522SOL     OW 8481   6.240   1.931   3.088  0.2735  0.0745 -0.0763
 1522SOL    HW1 8482   6.302   1.862   3.065 -0.6516 -0.3112 -1.5715
 1522SOL    HW2 8483   6.292   2.011   3.089  0.9392 -0.3439 -0.5468
 1523SOL     OW 8484   1.600   8.911   4.022 -0.5844 -0.0310  0.4081
 1523SOL    HW1 8485   1.547   8.832   4.022  2.4639 -2.2462  0.9523
 1523SOL    HW2 8486   1.652   8.906   3.942  0.7782  0.5613  1.2121
 1524SOL     OW 8487   3.207   0.860   5.400  0.2920  0.3642 -0.9370
 1524SOL    HW1 8488   3.209   0.828   5.490 -0.4460  1.4928 -0.4893
 1524SOL    HW2 8489   3.287   0.825   5.360  0.6152 -0.1809  0.1331
 1525SOL     OW 8490   4.291   9.469   4.469  0.6107  0.3429 -0.0947
 1525SOL    HW1 8491   4.298   9.376   4.450  0.2592  0.6434 -1.8370
 1525SOL    HW2 8492   4.357   9.511   4.414  1.4229  1.0689  1.3719
 1526SOL     OW 8493   0.722   0.436   2.300  0.0117 -0.1668  0.0786
 1526SOL    HW1 8494   0.726   0.356   2.352  0.5204 -0.8175 -0.9393
 1526SOL    HW2 8495   0.637   0.474   2.322 -0.6559 -1.4713 -0.1206
 1527SOL     OW 8496   1.389   0.585   4.632  0.1471  0.4055  0.3902
 1527SOL    HW1 8497   1.380   0.490   4.626  1.4163  0.2557  0.7533
 1527SOL    HW2 8498   1.407   0.612   4.542  3.4202 -0.1306  0.7870
 1528SOL     OW 8499  10.077   1.543   6.378 -0.0656  0.2944 -0.2322
 1528SOL    HW1 8500  10.100   1.476   6.314 -0.0841 -0.0192  0.0841
 1528SOL    HW2 8501   9.994   1.514   6.415  0.7320 -0.3930  1.0885
 1529SOL     OW 8502   1.010   3.582   5.217  0.0342 -0.4759 -0.2821
 1529SOL    HW1 8503   0.974   3.575   5.128  0.8749 -1.3403 -0.5644
 1529SOL    HW2 8504   1.033   3.492   5.241 -0.5373 -0.3051  0.9712
 1530SOL     OW 8505   2.229   9.373   0.965 -0.0785 -0.1736 -0.3083
 1530SOL    HW1 8506   2.268   9.377   1.052 -2.1364  0.7536  0.6572
 1530SOL    HW2 8507   2.302   9.386   0.905  1.3206 -0.2826  1.2855
 1531SOL     OW 8508   8.206   4.103   6.912  0.2459 -0.2177 -0.4343
 1531SOL    HW1 8509   8.232   4.064   6.829 -2.4735 -1.2759 -0.8900
 1531SOL    HW2 8510   8.122   4.061   6.933  0.1615  1.0500  2.1359
 1532SOL     OW 8511   9.253   2.793   4.739  0.1080  0.4371 -0.8530
 1532SOL    HW1 8512   9.226   2.847   4.665 -0.0460  1.3457 -0.1591
 1532SOL    HW2 8513   9.346   2.777   4.725  0.0676  0.5570 -1.2639
 1533SOL     OW 8514   9.878   1.974   8.514 -0.2181 -0.4051 -0.7123
 1533SOL    HW1 8515   9.970   1.961   8.491  0.0575 -0.2392  0.2611
 1533SOL    HW2 8516   9.834   1.896   8.482  0.4121 -0.8937 -0.4052
 1534SOL     OW 8517   3.021   6.359   5.752 -0.3252  0.0264  0.2905
 1534SOL    HW1 8518   3.059   6.395   5.832  0.1495 -0.7789  0.4476
 1534SOL    HW2 8519   3.089   6.301   5.718 -0.7994 -0.1882 -0.3105
 1535SOL     OW 8520   1.956   8.202   3.248  0.7429  0.8822  0.4633
 1535SOL    HW1 8521   1.946   8.279   3.192 -0.8912 -0.2202 -0.8650
 1535SOL    HW2 8522   1.870   8.190   3.288  1.1213  0.0243  1.0491
 1536SOL     OW 8523   7.166   8.196   2.494 -0.2013 -0.2720  0.1457
 1536SOL    HW1 8524   7.140   8.200   2.402 -0.5004 -1.1074  0.1855
 1536SOL    HW2 8525   7.097   8.243   2.541 -0.7296 -0.9744  0.0735
 1537SOL     OW 8526   7.344   2.234   5.030 -0.6199  0.0047  0.1845
 1537SOL    HW1 8527   7.326   2.285   5.109 -1.1179  0.4067 -0.1788
 1537SOL    HW2 8528   7.437   2.248   5.013 -0.5488  0.0527  0.6017
 1538SOL     OW 8529   0.479   7.056   7.272 -0.0229  0.0144  0.0977
 1538SOL    HW1 8530   0.406   7.107   7.237  0.3319  0.4979  0.0402
 1538SOL    HW2 8531   0.549   7.121   7.285 -0.3497  0.0214  2.3481
 1539SOL     OW 8532   8.457   5.560   3.866 -0.3239 -0.5544 -0.3101
 1539SOL    HW1 8533   8.365   5.575   3.845 -0.1231  1.0709 -0.1323
 1539SOL    HW2 8534   8.485   5.495   3.802 -1.5452 -0.9509 -0.4744
 1540SOL     OW 8535   5.026   0.848   1.395  0.4796  0.2225 -0.6889
 1540SOL    HW1 8536   5.034   0.927   1.448  1.3854 -1.7087  2.3221
 1540SOL    HW2 8537   4.943   0.810   1.422  2.4093 -2.4755  2.1242
 1541SOL     OW 8538   3.159   8.488   8.671 -0.5629 -0.3898 -0.2511
 1541SOL    HW1 8539   3.177   8.460   8.761  0.0459  0.7160 -0.0020
 1541SOL    HW2 8540   3.205   8.572   8.663 -2.2898  0.5431 -0.9347
 1542SOL     OW 8541   4.042   4.487   9.688  1.0957  0.1616  0.8538
 1542SOL    HW1 8542   4.060   4.404   9.645 -0.7942 -0.0466  0.3806
 1542SOL    HW2 8543   3.950   4.481   9.715  0.8912  2.1124  0.7538
 1543SOL     OW 8544   5.698   2.784   8.732 -0.0079  0.8351  0.1047
 1543SOL    HW1 8545   5.691   2.703   8.782 -1.4001  1.5230  1.0775
 1543SOL    HW2 8546   5.791   2.807   8.735  0.0678  0.4095  1.6540
 1544SOL     OW 8547   8.966   0.143   3.023 -0.4200  0.1769 -0.5054
 1544SOL    HW1 8548   8.919   0.226   3.016 -1.3557 -0.4482 -2.5419
 1544SOL    HW2 8549   8.975   0.113   2.933  3.1479 -0.2228 -0.1658
 1545SOL     OW 8550   2.526   6.111   1.089  0.2142 -0.0509  0.2864
 1545SOL    HW1 8551   2.593   6.063   1.040 -0.1289  0.1063 -0.3419
 1545SOL    HW2 8552   2.547   6.203   1.074 -0.6290  0.0049 -0.5934
 1546SOL     OW 8553   2.223   3.104   3.924 -0.4097  0.7933 -0.0861
 1546SOL    HW1 8554   2.255   3.051   3.997 -2.6110  1.8083  1.7288
 1546SOL    HW2 8555   2.269   3.070   3.848 -0.1480 -2.3035  1.3069
 1547SOL     OW 8556   6.824   5.432   5.599 -0.6273 -0.1934  0.1189
 1547SOL    HW1 8557   6.855   5.418   5.510 -1.9796 -1.5155 -0.1810
 1547SOL    HW2 8558   6.873   5.508   5.630  0.6968 -0.4118 -1.3383
 1548SOL     OW 8559   5.326   2.873   3.129  0.2131  0.8050 -0.7070
 1548SOL    HW1 8560   5.381   2.807   3.087  0.2077  1.5209 -1.9123
 1548SOL    HW2 8561   5.330   2.949   3.070  0.6577  2.0950  0.9028
 1549SOL     OW 8562   4.994  10.030   7.495 -0.1526  0.6450 -0.3612
 1549SOL    HW1 8563   4.925  10.095   7.506 -1.0449 -0.1963 -0.8618
 1549SOL    HW2 8564   5.055  10.047   7.567 -1.5880  0.5187  0.9336
 1550SOL     OW 8565   1.935   9.566   3.267  0.4196 -0.3316  0.5101
 1550SOL    HW1 8566   1.983   9.646   3.245  0.4759 -0.4125  0.3403
 1550SOL    HW2 8567   1.894   9.539   3.185  1.0208 -0.8968  0.3887
 1551SOL     OW 8568   7.359   5.978   6.168 -0.1403 -0.0452 -0.3089
 1551SOL    HW1 8569   7.423   5.985   6.238  1.8983  1.2698 -2.1676
 1551SOL    HW2 8570   7.393   5.909   6.111 -0.2835  0.7481 -1.3828
 1552SOL     OW 8571   6.728   1.678   5.743 -0.0053 -0.0665 -0.2064
 1552SOL    HW1 8572   6.701   1.769   5.750  0.0518 -0.1021  0.6407
 1552SOL    HW2 8573   6.795   1.667   5.811 -0.5815 -0.9361  0.2461
 1553SOL     OW 8574   7.935   1.968   7.919 -0.2914 -0.4134 -0.4835
 1553SOL    HW1 8575   7.906   1.882   7.891 -1.9979  0.1422 -0.5233
 1553SOL    HW2 8576   8.031   1.962   7.920 -0.3752 -2.2735 -0.5299
 1554SOL     OW 8577   1.088   5.356   6.225 -0.4868 -0.0677  0.3812
 1554SOL    HW1 8578   1.005   5.398   6.251  0.0030  0.7203  0.7169
 1554SOL    HW2 8579   1.155   5.412   6.264  0.1974 -0.9594  0.4998
 1555SOL     OW 8580   2.209   9.487   9.853 -0.1140  0.1725  0.3291
 1555SOL    HW1 8581   2.225   9.577   9.882  0.2496  0.2702 -0.1579
 1555SOL    HW2 8582   2.247   9.484   9.765 -0.6523 -0.2858  0.1097
 1556SOL     OW 8583   1.884   6.808  10.171  0.1505  0.0486 -0.6454
 1556SOL    HW1 8584   1.882   6.712  10.166 -0.6493  0.0028  0.1748
 1556SOL    HW2 8585   1.812   6.830  10.231  0.1552  1.1780 -1.0301
 1557SOL     OW 8586   4.887   1.871   5.984  0.0732  0.8041 -0.1708
 1557SOL    HW1 8587   4.817   1.865   5.918 -0.7613  3.1773  0.4264
 1557SOL    HW2 8588   4.924   1.958   5.972  1.4548  0.4211  1.0407
 1558SOL     OW 8589   4.522   8.801   0.650 -0.2014  0.3426  0.1312
 1558SOL    HW1 8590   4.483   8.744   0.717 -1.0851 -1.0489 -1.4914
 1558SOL    HW2 8591   4.457   8.869   0.635 -0.4577  0.0677 -0.0226
 1559SOL     OW 8592   4.357   9.181   4.465 -0.3282 -0.0425  0.3248
 1559SOL    HW1 8593   4.267   9.151   4.476 -0.4927  0.7428  1.1535
 1559SOL    HW2 8594   4.396   9.116   4.406 -1.4595 -0.3218 -0.1443
 1560SOL     OW 8595   4.405   2.594   4.353 -0.5367  0.0008 -0.2627
 1560SOL    HW1 8596   4.334   2.608   4.415 -0.4294  0.7970 -0.3124
 1560SOL    HW2 8597   4.411   2.676   4.303  1.3649  0.5362  0.7300
 1561SOL     OW 8598   1.491   8.745   7.249  0.0337  0.7268  0.0215
 1561SOL    HW1 8599   1.522   8.688   7.179  0.5916  0.4294  0.4997
 1561SOL    HW2 8600   1.545   8.824   7.241  1.5549 -0.0985  1.3434
 1562SOL     OW 8601   9.474   2.726   9.058 -0.7343 -0.1892 -0.1806
 1562SOL    HW1 8602   9.426   2.686   8.987  0.1950 -1.1518 -0.2889
 1562SOL    HW2 8603   9.565   2.726   9.029 -0.5792  1.2049  0.1927
 1563SOL     OW 8604   8.115   5.964   3.509 -0.4703  0.2565  0.5026
 1563SOL    HW1 8605   8.169   6.031   3.468 -0.0096 -0.4027  0.0058
 1563SOL    HW2 8606   8.174   5.890   3.522 -1.7405 -1.5298 -2.5462
 1564SOL     OW 8607   1.102   3.024   0.436 -0.1924  0.0318  0.4445
 1564SOL    HW1 8608   1.126   3.105   0.479  1.8829 -1.4629  2.3339
 1564SOL    HW2 8609   1.165   3.015   0.364 -0.8621  0.4023 -0.1996
 1565SOL     OW 8610   7.061   9.675   9.821 -0.1160  0.0690 -0.2688
 1565SOL    HW1 8611   6.977   9.638   9.793  0.8076 -1.8383 -0.5879
 1565SOL    HW2 8612   7.073   9.752   9.765 -0.8537 -0.6042 -1.3780
 1566SOL     OW 8613   5.371   4.219   7.491 -0.0570 -0.2379 -0.3327
 1566SOL    HW1 8614   5.392   4.291   7.550  0.8763 -0.8328  0.0952
 1566SOL    HW2 8615   5.280   4.232   7.467 -0.7982 -0.5624  2.0948
 1567SOL     OW 8616   3.344   9.134   8.724  0.3552 -0.2610 -0.7953
 1567SOL    HW1 8617   3.269   9.190   8.742  0.3171 -0.5791  0.1484
 1567SOL    HW2 8618   3.418   9.194   8.718  0.4299 -0.1212  0.9081
 1568SOL     OW 8619   8.625   8.742   2.994  0.6857 -0.9031 -0.0078
 1568SOL    HW1 8620   8.720   8.751   2.990  1.1919 -3.1598  3.1042
 1568SOL    HW2 8621   8.594   8.825   3.029  1.1816  0.5024 -2.5945
 1569SOL     OW 8622   8.102   5.674   5.372 -0.4879 -0.3057 -0.6323
 1569SOL    HW1 8623   8.175   5.614   5.390 -0.8772 -0.9041 -0.9938
 1569SOL    HW2 8624   8.133   5.760   5.400  0.5105 -0.4824 -1.1491
 1570SOL     OW 8625   6.026   0.267   8.048  0.4267 -0.4742  1.1827
 1570SOL    HW1 8626   6.066   0.322   7.980 -1.0024 -1.7049 -0.7748
 1570SOL    HW2 8627   6.080   0.188   8.049  0.4764 -0.4386  1.5475
 1571SOL     OW 8628   4.106   7.661   5.509 -0.3040 -0.0844 -0.2783
 1571SOL    HW1 8629   4.160   7.615   5.573  0.9980  0.9458 -0.6010
 1571SOL    HW2 8630   4.116   7.754   5.530 -0.9169  0.1980 -1.1446
 1572SOL     OW 8631   7.800   3.844   7.925 -0.0790  0.1402 -0.0487
 1572SOL    HW1 8632   7.721   3.884   7.962  0.3265 -0.5267  1.6170
 1572SOL    HW2 8633   7.829   3.906   7.859 -3.0832 -0.4913 -2.1696
 1573SOL     OW 8634   1.823  10.105   3.033 -0.2427  0.5552 -0.0178
 1573SOL    HW1 8635   1.813  10.061   2.949  1.8740  0.4569 -0.2773
 1573SOL    HW2 8636   1.798  10.196   3.015  0.4574  0.5979 -0.8492
 1574SOL     OW 8637   5.718   0.566   5.287  0.1953 -0.0682  0.0141
 1574SOL    HW1 8638   5.753   0.615   5.213  0.3091 -0.2145 -0.0288
 1574SOL    HW2 8639   5.653   0.507   5.249  1.1296 -1.0291 -0.1428
 1575SOL     OW 8640   1.353   8.006   1.977  0.2369  0.0617  0.0482
 1575SOL    HW1 8641   1.347   8.067   2.051  0.1598  1.1726 -0.8411
 1575SOL    HW2 8642   1.381   8.061   1.903  0.9555 -1.1423 -0.6041
 1576SOL     OW 8643   5.971   4.296   6.624  0.7937  0.0196 -0.3197
 1576SOL    HW1 8644   5.991   4.383   6.657 -0.0767  0.0446  0.1612
 1576SOL    HW2 8645   5.932   4.312   6.538 -0.3235  0.1688  0.2096
 1577SOL     OW 8646   3.851   2.422   8.862  0.0073 -0.2870  0.3573
 1577SOL    HW1 8647   3.934   2.439   8.905 -0.4052 -0.6001  1.3016
 1577SOL    HW2 8648   3.823   2.337   8.897 -0.8329 -0.0652  0.2403
 1578SOL     OW 8649   0.354   8.822   9.826 -0.2578  0.0260  0.0525
 1578SOL    HW1 8650   0.340   8.915   9.844 -1.0188 -0.2718  1.1335
 1578SOL    HW2 8651   0.449   8.811   9.826 -0.1548  0.8655 -0.4588
 1579SOL     OW 8652   7.938   0.270   1.293  0.7689  0.0940 -0.1887
 1579SOL    HW1 8653   8.015   0.320   1.322 -0.0308  1.9939 -1.1493
 1579SOL    HW2 8654   7.873   0.337   1.271 -0.6085 -1.4151 -0.9367
 1580SOL     OW 8655   2.437   0.826   2.262 -0.2795  0.1567 -0.1184
 1580SOL    HW1 8656   2.445   0.758   2.329 -0.4648 -0.7449 -0.9758
 1580SOL    HW2 8657   2.500   0.893   2.288  0.5365 -0.7384  0.3118
 1581SOL     OW 8658   8.241   8.860   4.365  0.3075  0.6707 -0.4642
 1581SOL    HW1 8659   8.214   8.942   4.323 -1.2784  0.1565 -0.4960
 1581SOL    HW2 8660   8.329   8.878   4.398 -0.4411  2.7908  0.5668
 1582SOL     OW 8661   7.616   9.897   5.205  0.3716  0.2982 -0.4804
 1582SOL    HW1 8662   7.521   9.887   5.215  0.5685 -0.4949  0.8230
 1582SOL    HW2 8663   7.636   9.854   5.122 -0.3455  0.0296 -0.5230
 1583SOL     OW 8664   1.396   1.034   9.928  0.3085 -0.0241 -0.2118
 1583SOL    HW1 8665   1.338   0.975   9.880 -0.0224  0.4685 -0.4249
 1583SOL    HW2 8666   1.338   1.098   9.968  0.8025  2.2692 -2.8431
 1584SOL     OW 8667   7.641   9.583   2.829  0.4640 -0.0434  0.4285
 1584SOL    HW1 8668   7.643   9.495   2.866  2.4103  0.7660  2.4888
 1584SOL    HW2 8669   7.725   9.593   2.784 -0.3563  0.2872 -1.1225
 1585SOL     OW 8670   7.706   4.308   6.586 -0.0454 -0.3569 -0.2137
 1585SOL    HW1 8671   7.799   4.329   6.600  0.1213  0.2154 -1.9261
 1585SOL    HW2 8672   7.707   4.217   6.555 -0.0933 -0.4536  0.0655
 1586SOL     OW 8673   6.607  10.033   4.934  0.4521  0.0247  0.4730
 1586SOL    HW1 8674   6.573  10.104   4.989 -3.4687  0.4902 -2.1451
 1586SOL    HW2 8675   6.586   9.953   4.981  0.2665  0.4751  1.1682
 1587SOL     OW 8676   3.725   0.550   8.757 -0.2011  0.2161  0.2514
 1587SOL    HW1 8677   3.735   0.641   8.730  0.2165  0.2270  0.4364
 1587SOL    HW2 8678   3.814   0.519   8.771 -0.4095  0.4205  2.3060
 1588SOL     OW 8679   0.875   1.353   5.850 -0.5684  0.9809  0.7597
 1588SOL    HW1 8680   0.966   1.341   5.825 -1.3841  0.2716 -2.3096
 1588SOL    HW2 8681   0.855   1.279   5.907  0.2290 -0.1182 -0.3424
 1589SOL     OW 8682   8.487   1.880   0.825 -0.4843  0.1666 -0.2024
 1589SOL    HW1 8683   8.479   1.971   0.799 -3.4015 -0.1042 -0.6454
 1589SOL    HW2 8684   8.523   1.835   0.748  0.2331  0.8073 -0.2474
 1590SOL     OW 8685   3.914   2.227   7.827 -0.1586 -0.1865 -0.3637
 1590SOL    HW1 8686   3.874   2.179   7.900  0.6230 -0.4888 -0.1201
 1590SOL    HW2 8687   3.994   2.265   7.864  1.2323 -1.8492 -1.4772
 1591SOL     OW 8688   2.402   4.893   9.766 -0.0976  0.2259  0.5675
 1591SOL    HW1 8689   2.400   4.833   9.691  1.4649 -0.7386  1.2664
 1591SOL    HW2 8690   2.318   4.939   9.761 -1.1140 -1.6137 -0.3149
 1592SOL     OW 8691   1.105   5.434   8.023  0.3544  0.2308  0.4538
 1592SOL    HW1 8692   1.039   5.417   7.956  0.7498 -0.4143  0.2229
 1592SOL    HW2 8693   1.058   5.484   8.090 -0.3170 -0.0387  0.1944
 1593SOL     OW 8694   2.843   4.182   7.571  0.3561 -0.1404 -0.2098
 1593SOL    HW1 8695   2.779   4.223   7.630 -0.2583 -1.6538  0.2326
 1593SOL    HW2 8696   2.818   4.212   7.484 -0.6727 -0.3212  0.0064
 1594SOL     OW 8697   1.245   1.676   7.168 -0.2846 -0.4730  0.0568
 1594SOL    HW1 8698   1.211   1.588   7.185 -1.2112  0.0808  1.2016
 1594SOL    HW2 8699   1.181   1.735   7.208  1.6275  0.6301  1.6855
 1595SOL     OW 8700   0.539   9.329   7.456  0.3151 -0.0086 -0.7525
 1595SOL    HW1 8701   0.633   9.310   7.448  0.1369 -1.1894 -0.1333
 1595SOL    HW2 8702   0.496   9.257   7.410 -0.3780 -1.2768  1.7316
 1596SOL     OW 8703   7.368   3.139   5.226 -0.6300  0.2737 -0.2417
 1596SOL    HW1 8704   7.275   3.117   5.219 -0.3873 -1.8434  1.7478
 1596SOL    HW2 8705   7.413   3.064   5.186  0.2076 -0.2567  1.5771
 1597SOL     OW 8706   4.463   3.985   2.840  0.1186  0.1873  0.2328
 1597SOL    HW1 8707   4.413   3.926   2.784 -0.3946  1.1508 -0.3358
 1597SOL    HW2 8708   4.548   3.992   2.796 -0.3545  1.1127 -0.5649
 1598SOL     OW 8709   5.765   9.411   8.712  0.2562 -0.4035 -0.0677
 1598SOL    HW1 8710   5.840   9.373   8.758  0.9914  0.6768 -0.3367
 1598SOL    HW2 8711   5.802   9.482   8.660 -0.9163 -0.0449 -0.4419
 1599SOL     OW 8712   4.682   0.672   1.274  0.1632 -0.2761 -0.3839
 1599SOL    HW1 8713   4.737   0.605   1.235 -0.4384 -1.4685  0.7365
 1599SOL    HW2 8714   4.723   0.692   1.358  0.7624  1.3586 -1.0185
 1600SOL     OW 8715   9.158   2.860   1.156 -0.9716 -0.3174 -0.0230
 1600SOL    HW1 8716   9.222   2.919   1.117  1.0324 -0.8030  2.2865
 1600SOL    HW2 8717   9.113   2.913   1.222 -0.5265 -0.8159  0.7050
 1601SOL     OW 8718   8.278   8.284   8.741 -0.2268  0.0728  0.5630
 1601SOL    HW1 8719   8.238   8.239   8.667 -1.0752 -1.0062  1.6306
 1601SOL    HW2 8720   8.318   8.214   8.793  0.3653  0.8079  1.1169
 1602SOL     OW 8721   7.961   4.888   3.913  0.7707 -0.0291  0.0230
 1602SOL    HW1 8722   7.941   4.979   3.933  0.8945  0.3407 -1.4177
 1602SOL    HW2 8723   8.036   4.867   3.969  1.0880  0.9264 -0.0218
 1603SOL     OW 8724   8.490   0.841  10.170  0.3480 -0.1468  0.4162
 1603SOL    HW1 8725   8.420   0.777  10.160  1.3685 -1.3051  0.4680
 1603SOL    HW2 8726   8.516   0.863  10.081  1.2933 -1.3076  0.3744
 1604SOL     OW 8727   4.546   7.302   3.711  0.3786 -0.6746  0.2803
 1604SOL    HW1 8728   4.560   7.209   3.729  0.6674 -1.0121 -1.4501
 1604SOL    HW2 8729   4.633   7.341   3.717  0.3500 -0.6326  0.4213
 1605SOL     OW 8730   9.036   5.600   1.292  0.3871  0.1080  0.0247
 1605SOL    HW1 8731   9.071   5.680   1.331 -0.2812 -0.3755  1.6748
 1605SOL    HW2 8732   8.982   5.630   1.219  1.0553  1.0771 -0.0906
 1606SOL     OW 8733   8.559   6.984   7.184 -0.0683 -0.2084  0.1683
 1606SOL    HW1 8734   8.581   6.923   7.254  0.9240  0.2397  0.2632
 1606SOL    HW2 8735   8.591   7.069   7.215 -2.7275  0.6911  0.6916
 1607SOL     OW 8736   5.084   2.494   5.405 -0.1648 -0.2966  0.4493
 1607SOL    HW1 8737   5.107   2.441   5.329 -1.5754  0.7981 -0.8412
 1607SOL    HW2 8738   5.060   2.579   5.367  1.4097  1.0866  2.3615
 1608SOL     OW 8739   4.768   0.993   8.955  0.0365  0.1091  0.2591
 1608SOL    HW1 8740   4.863   0.984   8.952  0.3894  2.8785  0.0851
 1608SOL    HW2 8741   4.747   1.002   9.048  0.1046  0.4882  0.2424
 1609SOL     OW 8742   4.488   2.366   6.255  0.1324  0.3281  0.0227
 1609SOL    HW1 8743   4.438   2.447   6.266 -1.2184 -0.6364  1.5935
 1609SOL    HW2 8744   4.506   2.337   6.345  0.1103 -1.3733 -0.4906
 1610SOL     OW 8745   2.055   3.427   8.638 -0.6431 -0.3828  0.1615
 1610SOL    HW1 8746   1.982   3.395   8.585 -1.0977  2.6804 -1.2763
 1610SOL    HW2 8747   2.014   3.487   8.701  0.4869  0.7537 -0.1395
 1611SOL     OW 8748  10.087   2.379   4.004 -0.6740 -0.4245  0.0038
 1611SOL    HW1 8749  10.161   2.363   3.945  0.1532  1.8217  0.3113
 1611SOL    HW2 8750  10.050   2.461   3.972  0.3400  1.3779  3.0344
 1612SOL     OW 8751   8.118   0.699   9.816 -0.1792  0.6497  0.0537
 1612SOL    HW1 8752   8.031   0.731   9.793 -0.2515  0.1239 -0.4300
 1612SOL    HW2 8753   8.140   0.638   9.746  0.9966  1.5081 -0.3667
 1613SOL     OW 8754   8.547   6.762   9.643  0.0083  0.0663 -0.0744
 1613SOL    HW1 8755   8.515   6.731   9.558  1.6374  0.3362 -0.8378
 1613SOL    HW2 8756   8.515   6.698   9.706 -1.2813 -0.1118 -0.8800
 1614SOL     OW 8757   3.485   1.427   2.501  0.3317 -0.2934  0.0055
 1614SOL    HW1 8758   3.402   1.475   2.495 -0.9624 -2.2746  0.7361
 1614SOL    HW2 8759   3.546   1.478   2.448 -1.5696  0.8019 -1.2808
 1615SOL     OW 8760   5.476   1.750   0.981 -0.0976 -0.0923 -0.1913
 1615SOL    HW1 8761   5.405   1.808   0.953 -0.1288  0.6703  1.3541
 1615SOL    HW2 8762   5.495   1.777   1.071  1.6501 -0.7873 -0.3146
 1616SOL     OW 8763   2.021   2.936   9.616 -0.1094 -0.0985 -0.2793
 1616SOL    HW1 8764   2.023   3.024   9.652 -0.2058  0.3641 -1.3609
 1616SOL    HW2 8765   2.094   2.891   9.659 -0.6675  0.1882  1.0183
 1617SOL     OW 8766   1.789   6.412   8.785  0.0683  0.2924 -0.0009
 1617SOL    HW1 8767   1.759   6.378   8.701 -2.6831  1.5326  0.3557
 1617SOL    HW2 8768   1.716   6.466   8.816  1.2237  0.3678  2.9011
 1618SOL     OW 8769   9.302   3.455   1.713 -0.3708  0.2132 -0.2650
 1618SOL    HW1 8770   9.350   3.503   1.781  0.4129  0.4031 -0.9312
 1618SOL    HW2 8771   9.304   3.513   1.637  0.2344 -0.6851 -0.9616
 1619SOL     OW 8772   2.608   6.713   9.642 -0.0011 -0.0962  0.3690
 1619SOL    HW1 8773   2.634   6.768   9.567 -1.3239  0.0352 -0.0131
 1619SOL    HW2 8774   2.625   6.624   9.613  0.4368  0.0044  0.3011
 1620SOL     OW 8775   5.411   3.092   2.932  0.0569 -0.4601  0.0625
 1620SOL    HW1 8776   5.423   3.087   2.837  0.6721 -0.9601  0.1608
 1620SOL    HW2 8777   5.356   3.168   2.945  0.0656 -0.3178 -0.6945
 1621SOL     OW 8778   0.931   2.915   5.500 -0.2521 -0.0142  0.0138
 1621SOL    HW1 8779   1.012   2.920   5.551 -0.5743  1.5010  0.4474
 1621SOL    HW2 8780   0.931   2.827   5.462  0.8340 -0.5736  1.2465
 1622SOL     OW 8781   1.006   9.513   7.031  0.0759 -1.0066 -0.6286
 1622SOL    HW1 8782   0.948   9.522   6.956  1.3686 -0.8604 -1.6422
 1622SOL    HW2 8783   1.051   9.597   7.037  1.4462 -1.6849 -0.9551
 1623SOL     OW 8784   1.804   9.457   3.047  0.6065  0.3301 -0.6841
 1623SOL    HW1 8785   1.832   9.418   2.964  2.3876 -0.2056  0.1223
 1623SOL    HW2 8786   1.711   9.478   3.034 -0.2845 -3.4096 -1.4707
 1624SOL     OW 8787   1.668   2.590   8.394 -0.1283  0.1239  0.0721
 1624SOL    HW1 8788   1.577   2.572   8.417  0.1985  0.3352  1.6732
 1624SOL    HW2 8789   1.667   2.681   8.364 -0.4633  0.0909 -0.0230
 1625SOL     OW 8790  10.065   0.021  10.207 -0.7377 -0.0504 -0.3429
 1625SOL    HW1 8791  10.023   0.093  10.253  0.9066 -0.1046  1.3668
 1625SOL    HW2 8792  10.158   0.031  10.226 -0.2310 -1.4580 -1.7758
 1626SOL     OW 8793   6.435   9.312   2.192  0.0681 -0.4263  0.2347
 1626SOL    HW1 8794   6.519   9.357   2.179 -0.1914  0.1247  0.4237
 1626SOL    HW2 8795   6.416   9.272   2.107  1.2121 -1.7724  0.5770
 1627SOL     OW 8796   0.899   6.974   5.595 -0.1952 -0.2462 -0.7080
 1627SOL    HW1 8797   0.864   7.008   5.677 -1.5054 -0.8810 -0.9795
 1627SOL    HW2 8798   0.954   6.900   5.622  0.1847  0.1618 -0.3421
 1628SOL     OW 8799   5.365   9.049   1.483  0.1404  0.3752  0.0989
 1628SOL    HW1 8800   5.371   9.119   1.548 -0.6441  0.8575 -0.3399
 1628SOL    HW2 8801   5.372   8.969   1.535  2.5888  0.7318  0.4689
 1629SOL     OW 8802   2.698   4.535   2.397  0.2673 -0.0921  0.8473
 1629SOL    HW1 8803   2.764   4.468   2.413 -0.5800 -1.1301  0.1206
 1629SOL    HW2 8804   2.729   4.580   2.318  0.4242 -0.1620  0.8684
 1630SOL     OW 8805   9.005   2.233   5.610  0.0248  0.3649  0.0071
 1630SOL    HW1 8806   9.030   2.317   5.570 -1.3589  1.1133  0.6259
 1630SOL    HW2 8807   8.957   2.258   5.689  1.3502 -1.0665  1.3067
 1631SOL     OW 8808   3.362   9.094   1.039 -0.4864 -0.1128  0.4383
 1631SOL    HW1 8809   3.453   9.066   1.050 -0.5869 -1.0643 -0.8761
 1631SOL    HW2 8810   3.367   9.186   1.014  0.1090 -0.1626  0.3797
 1632SOL     OW 8811   5.289   6.887   4.829 -0.2258 -0.1632 -0.6603
 1632SOL    HW1 8812   5.275   6.792   4.826 -1.8979 -0.0150  0.8725
 1632SOL    HW2 8813   5.379   6.899   4.799 -0.4794 -2.0830 -2.4205
 1633SOL     OW 8814   5.366  10.045   5.524 -0.1496  0.3678 -0.1287
 1633SOL    HW1 8815   5.309  10.118   5.548  1.0237  1.0080  0.8161
 1633SOL    HW2 8816   5.426  10.081   5.459 -0.9805 -0.3885 -1.3645
 1634SOL     OW 8817   5.137   8.349   0.358  0.1592 -0.2731  0.1223
 1634SOL    HW1 8818   5.101   8.302   0.433 -1.1378 -1.3643 -1.1302
 1634SOL    HW2 8819   5.176   8.281   0.304  2.9754  0.7189  0.7387
 1635SOL     OW 8820   9.958   6.286   6.829 -0.0339  0.0497  0.2857
 1635SOL    HW1 8821   9.937   6.379   6.830  1.1254  0.3895 -1.7594
 1635SOL    HW2 8822   9.941   6.258   6.738  1.3329 -1.3035  0.4043
 1636SOL     OW 8823   9.586   4.811   7.616 -0.4468  0.7380  0.5597
 1636SOL    HW1 8824   9.664   4.867   7.612  0.2373 -0.2596 -0.7128
 1636SOL    HW2 8825   9.540   4.829   7.534 -0.9148  0.4143  0.7478
 1637SOL     OW 8826   1.381   9.503   6.869 -0.1948 -0.2273 -0.3616
 1637SOL    HW1 8827   1.447   9.477   6.805 -1.1810 -0.3885 -1.3574
 1637SOL    HW2 8828   1.317   9.431   6.867  0.1189 -0.5794  1.3515
 1638SOL     OW 8829   3.837   8.488   3.985  0.0849  0.8928 -0.7034
 1638SOL    HW1 8830   3.841   8.403   4.028 -0.7789  0.1534 -1.9957
 1638SOL    HW2 8831   3.760   8.530   4.023 -0.0129  0.7177 -0.7037
 1639SOL     OW 8832   3.728   2.606   7.096 -0.2282  0.3892 -0.1807
 1639SOL    HW1 8833   3.761   2.593   7.185  0.9028 -0.4178 -0.7045
 1639SOL    HW2 8834   3.665   2.536   7.084 -1.0183  0.9999  0.2624
 1640SOL     OW 8835   0.852   3.197   5.273 -0.5078 -0.0118  0.1467
 1640SOL    HW1 8836   0.807   3.131   5.220  0.1957  0.3935 -0.9913
 1640SOL    HW2 8837   0.881   3.149   5.350  0.0733 -1.0753 -0.6965
 1641SOL     OW 8838   7.828   2.505   5.365 -0.3102  0.3765 -0.5516
 1641SOL    HW1 8839   7.913   2.520   5.406 -0.7393 -1.0372  0.9717
 1641SOL    HW2 8840   7.849   2.472   5.278  0.6908  0.6017 -0.4105
 1642SOL     OW 8841   4.014   6.954   0.780 -0.5006 -0.0248 -0.1412
 1642SOL    HW1 8842   4.106   6.930   0.769 -0.1489  1.7066 -1.5255
 1642SOL    HW2 8843   3.990   6.921   0.867  1.0574 -1.5637 -0.2524
 1643SOL     OW 8844   1.867   0.571   9.046  0.8911 -0.1895 -0.5142
 1643SOL    HW1 8845   1.836   0.609   9.128 -0.5734 -0.3123 -0.9909
 1643SOL    HW2 8846   1.849   0.478   9.053  3.8517 -0.7963  0.3634
 1644SOL     OW 8847   8.494   8.452   9.435  0.1569 -0.0695 -0.4347
 1644SOL    HW1 8848   8.462   8.408   9.355 -2.1199  1.9229 -0.7382
 1644SOL    HW2 8849   8.464   8.395   9.506 -0.5785 -0.3046 -0.9106
 1645SOL     OW 8850   1.599   0.286   4.461 -0.1179 -0.2368  0.4565
 1645SOL    HW1 8851   1.588   0.274   4.367  1.5878 -1.4964  0.3670
 1645SOL    HW2 8852   1.510   0.282   4.497 -0.8400  0.7838 -1.1273
 1646SOL     OW 8853   3.577   1.266   7.947  0.0747 -0.3008 -0.0268
 1646SOL    HW1 8854   3.592   1.274   8.041 -0.1043 -0.0491 -0.0184
 1646SOL    HW2 8855   3.523   1.187   7.938  0.4433 -0.5650  0.0413
 1647SOL     OW 8856   5.419   6.872   9.796 -0.1694  0.3174 -0.8448
 1647SOL    HW1 8857   5.496   6.817   9.811  0.1401  0.2210 -2.5668
 1647SOL    HW2 8858   5.375   6.832   9.721 -2.3039 -0.0114  0.4835
 1648SOL     OW 8859   3.984   2.810   0.757  0.3550 -0.0463  0.9540
 1648SOL    HW1 8860   3.918   2.820   0.826  0.2566  0.7234  0.7649
 1648SOL    HW2 8861   4.036   2.890   0.763  0.6738 -0.2166  0.4767
 1649SOL     OW 8862   2.923   1.309   7.092  0.4443 -0.8352  0.0285
 1649SOL    HW1 8863   2.894   1.299   7.002  3.5007  1.5938 -1.4210
 1649SOL    HW2 8864   3.018   1.321   7.085  0.4621  2.9084  3.1442
 1650SOL     OW 8865   5.147   8.000   5.824  0.8852 -0.4029 -0.2193
 1650SOL    HW1 8866   5.092   8.027   5.898  1.3895 -0.5239  0.2022
 1650SOL    HW2 8867   5.085   7.962   5.762  0.1717  1.5974 -0.7897
 1651SOL     OW 8868   8.151   1.639   7.915  0.0694 -0.0918  0.1732
 1651SOL    HW1 8869   8.191   1.560   7.880  0.5606 -0.0469  0.6243
 1651SOL    HW2 8870   8.195   1.710   7.867  1.1786  0.0007  1.2660
 1652SOL     OW 8871   2.088   4.326   7.787 -0.5502 -0.5036 -0.1902
 1652SOL    HW1 8872   2.060   4.235   7.794 -0.8875 -0.5756 -1.9256
 1652SOL    HW2 8873   2.065   4.351   7.697  2.0341  0.4309 -0.6805
 1653SOL     OW 8874   3.446   4.328   4.616 -0.0330  0.1860  0.7754
 1653SOL    HW1 8875   3.392   4.265   4.567  0.6701  0.4525 -0.3601
 1653SOL    HW2 8876   3.483   4.276   4.688 -0.2870 -0.4435  0.4610
 1654SOL     OW 8877   4.602   8.319   7.443  0.2415 -0.0370 -0.3887
 1654SOL    HW1 8878   4.578   8.386   7.379 -0.4668  1.4135  1.2799
 1654SOL    HW2 8879   4.626   8.369   7.522  0.2900 -1.7397  0.7409
 1655SOL     OW 8880   3.919   2.257   3.243  0.3968  0.3442  0.1954
 1655SOL    HW1 8881   3.907   2.265   3.148 -0.8438 -0.6822  0.2306
 1655SOL    HW2 8882   3.970   2.176   3.254 -1.7999 -1.0898  0.4631
 1656SOL     OW 8883   7.653   9.982   4.528  0.4722  0.5390 -0.2765
 1656SOL    HW1 8884   7.685   9.936   4.450 -1.4061  0.9981 -1.3841
 1656SOL    HW2 8885   7.562   9.955   4.536  0.2130  1.6614  0.8869
 1657SOL     OW 8886   6.027   6.851   3.810 -0.0797  0.1968  0.7712
 1657SOL    HW1 8887   5.977   6.772   3.791  1.6662 -0.3932 -1.8518
 1657SOL    HW2 8888   6.028   6.857   3.906 -3.4217 -0.7905  0.9728
 1658SOL     OW 8889   8.363   1.806   8.155 -0.2121  0.1932  0.0579
 1658SOL    HW1 8890   8.429   1.760   8.207 -0.6980 -0.8738 -0.2521
 1658SOL    HW2 8891   8.414   1.862   8.096  0.5335 -1.8873 -1.3884
 1659SOL     OW 8892   4.210   2.853   3.607 -0.0927 -0.0193  0.4416
 1659SOL    HW1 8893   4.147   2.826   3.541 -1.9570 -0.2830  2.2224
 1659SOL    HW2 8894   4.290   2.807   3.584 -0.0098  1.4293 -2.7434
 1660SOL     OW 8895   0.314   4.086   1.888 -0.2440  0.1624  0.1094
 1660SOL    HW1 8896   0.388   4.050   1.938  0.2239  1.3246  0.2665
 1660SOL    HW2 8897   0.305   4.026   1.813 -0.0704 -0.8049  0.8332
 1661SOL     OW 8898   5.850   7.556   3.374  0.6330 -0.2055 -0.0329
 1661SOL    HW1 8899   5.928   7.567   3.428  0.6199 -1.7924  0.3710
 1661SOL    HW2 8900   5.810   7.475   3.406 -1.1808  0.5476 -0.2382
 1662SOL     OW 8901   2.876   1.604   4.955  0.3693  0.1802 -0.7136
 1662SOL    HW1 8902   2.898   1.517   4.988 -0.3332 -0.5395 -2.0881
 1662SOL    HW2 8903   2.788   1.621   4.991  0.6740  0.5072 -0.1116
 1663SOL     OW 8904   6.949   1.044   7.485  0.4693 -0.3774 -0.3017
 1663SOL    HW1 8905   6.926   0.956   7.512  1.1018  0.0386  1.7214
 1663SOL    HW2 8906   7.016   1.031   7.417  0.5293 -1.4437 -0.0574
 1664SOL     OW 8907   4.187   3.739   5.607  0.4109  0.0039  0.0520
 1664SOL    HW1 8908   4.208   3.711   5.518 -1.3707  0.5752 -0.5721
 1664SOL    HW2 8909   4.130   3.815   5.596 -1.0327 -0.7870  1.6479
 1665SOL     OW 8910   0.988  10.119   6.546 -0.0405  0.2979  0.2425
 1665SOL    HW1 8911   1.055  10.137   6.612 -0.4840 -0.3539  0.8771
 1665SOL    HW2 8912   0.928  10.058   6.588  0.9235 -2.0362 -1.5357
 1666SOL     OW 8913  10.182   7.493   7.754  0.1782 -0.1165 -0.7679
 1666SOL    HW1 8914  10.147   7.410   7.788  2.1105 -0.8647 -0.4305
 1666SOL    HW2 8915  10.235   7.467   7.678  2.3800  0.5145  0.4687
 1667SOL     OW 8916   3.180   5.091   0.532 -0.3520  0.4636 -0.5925
 1667SOL    HW1 8917   3.180   5.095   0.436  1.3721  0.0268 -0.6464
 1667SOL    HW2 8918   3.268   5.061   0.554 -0.9443 -0.1135  1.1104
 1668SOL     OW 8919   7.104   3.883   4.900 -0.1829 -0.2421  0.7737
 1668SOL    HW1 8920   7.155   3.812   4.939  0.0421  0.4248  1.7269
 1668SOL    HW2 8921   7.116   3.957   4.960  0.0824  0.7966 -0.5060
 1669SOL     OW 8922   9.741   3.742   0.200 -0.0345  0.0884 -0.0944
 1669SOL    HW1 8923   9.682   3.756   0.274  0.4056  0.5741  0.1738
 1669SOL    HW2 8924   9.704   3.796   0.130  1.1033  1.8968  0.6383
 1670SOL     OW 8925   7.868   7.802   1.432  0.0302  0.0918 -0.0970
 1670SOL    HW1 8926   7.809   7.787   1.506 -0.1319  3.0007  0.4466
 1670SOL    HW2 8927   7.952   7.764   1.460 -0.8288 -1.6607  0.2242
 1671SOL     OW 8928   5.245   0.983   3.693  0.3320 -0.4490  0.3610
 1671SOL    HW1 8929   5.234   0.901   3.741  0.1054 -0.0591  0.9810
 1671SOL    HW2 8930   5.292   1.041   3.753  0.5686 -0.1483 -0.1047
 1672SOL     OW 8931   8.001   6.512   8.970  0.2566 -0.3611  0.2358
 1672SOL    HW1 8932   7.972   6.597   8.937 -1.0493 -0.8579  0.0334
 1672SOL    HW2 8933   8.082   6.493   8.923 -1.2418 -0.7870 -2.3278
 1673SOL     OW 8934   0.814   0.939   8.142 -0.1213 -0.6388  0.0373
 1673SOL    HW1 8935   0.843   1.013   8.090  1.1180  0.0780  1.6544
 1673SOL    HW2 8936   0.873   0.868   8.118 -0.3900 -0.6891 -0.4761
 1674SOL     OW 8937   3.342   1.981   2.651  0.1477 -0.7937  0.0107
 1674SOL    HW1 8938   3.342   2.008   2.743 -0.5710  0.5419 -0.3525
 1674SOL    HW2 8939   3.408   2.038   2.610 -1.6121  0.7608 -0.8338
 1675SOL     OW 8940   0.174   0.240   1.990 -0.2508  0.1264  0.2428
 1675SOL    HW1 8941   0.127   0.316   2.023 -1.0637 -0.8635  1.4257
 1675SOL    HW2 8942   0.221   0.205   2.066 -0.0928 -0.7014 -0.2210
 1676SOL     OW 8943   3.942   4.995   0.399  0.4968  0.0835 -0.0719
 1676SOL    HW1 8944   3.908   4.923   0.345  3.1023 -1.5913  0.3326
 1676SOL    HW2 8945   3.975   5.058   0.335  3.3095 -1.7608 -0.6238
 1677SOL     OW 8946   0.099   6.091   9.312  0.2166 -0.1753 -0.2367
 1677SOL    HW1 8947   0.129   6.120   9.226 -1.3734  0.0176 -0.7698
 1677SOL    HW2 8948   0.086   5.997   9.303  0.7844 -0.2839  0.0367
 1678SOL     OW 8949   6.611   1.756   1.876  0.1855  0.0552 -0.2858
 1678SOL    HW1 8950   6.688   1.746   1.932 -0.8377 -0.3653  1.0975
 1678SOL    HW2 8951   6.614   1.680   1.818  1.0308  0.2637 -0.5246
 1679SOL     OW 8952   9.641   7.651   7.380 -0.3684  0.1618  0.1343
 1679SOL    HW1 8953   9.695   7.628   7.305  0.4204 -1.1127  1.0379
 1679SOL    HW2 8954   9.679   7.732   7.414 -0.8232  0.8279 -0.8968
 1680SOL     OW 8955   5.684   6.988   1.046 -0.1186  0.6711  0.6252
 1680SOL    HW1 8956   5.679   7.072   1.093  0.8196  1.1429 -0.0994
 1680SOL    HW2 8957   5.775   6.981   1.019 -0.3299 -0.3017  0.1357
 1681SOL     OW 8958   8.713  10.117   2.881 -1.1149  0.0067 -0.0447
 1681SOL    HW1 8959   8.675  10.141   2.796 -2.7782  0.3040  0.7510
 1681SOL    HW2 8960   8.664  10.169   2.945  0.2124 -0.0977  1.1042
 1682SOL     OW 8961   4.272   7.872   4.754 -0.4585 -0.7868  0.3842
 1682SOL    HW1 8962   4.305   7.818   4.683 -0.4788 -1.7686  1.0968
 1682SOL    HW2 8963   4.181   7.843   4.765 -0.2705 -1.0859  1.2059
 1683SOL     OW 8964   9.603   5.725   3.510  0.1237  0.1151 -0.0529
 1683SOL    HW1 8965   9.609   5.643   3.461  1.7976  0.7009 -0.8820
 1683SOL    HW2 8966   9.659   5.712   3.587 -1.1721 -0.1899  0.8916
 1684SOL     OW 8967   4.751   2.813   8.122 -0.3092 -0.3984 -0.5006
 1684SOL    HW1 8968   4.759   2.841   8.213 -1.3988 -0.0635 -0.4967
 1684SOL    HW2 8969   4.661   2.783   8.114  0.0107 -1.1865 -1.2664
 1685SOL     OW 8970   3.758   4.574   5.813  0.4105  0.2765 -0.2857
 1685SOL    HW1 8971   3.799   4.571   5.727  0.5341  1.4310 -0.2796
 1685SOL    HW2 8972   3.683   4.632   5.802  0.3718  0.3531  0.3633
 1686SOL     OW 8973   7.737   4.549   2.670  0.0157 -0.5667  0.0323
 1686SOL    HW1 8974   7.667   4.556   2.606 -1.2124 -1.8182  1.1761
 1686SOL    HW2 8975   7.710   4.606   2.742 -0.3001 -1.7195  0.8598
 1687SOL     OW 8976   6.019   0.536   1.500 -0.0212  0.2747 -0.5315
 1687SOL    HW1 8977   5.989   0.508   1.414 -1.6365 -1.1883  0.4405
 1687SOL    HW2 8978   5.961   0.608   1.524 -0.2774 -0.0336 -0.2226
 1688SOL     OW 8979   7.528  10.030   7.368 -0.0107  0.2346  0.7361
 1688SOL    HW1 8980   7.542   9.940   7.396 -0.6196 -0.3714 -0.7828
 1688SOL    HW2 8981   7.441  10.030   7.328  0.8750  0.9113 -1.3847
 1689SOL     OW 8982   8.019   2.228   7.819  0.3370 -0.1241 -0.1272
 1689SOL    HW1 8983   7.966   2.166   7.870  0.6124 -1.0881 -0.9801
 1689SOL    HW2 8984   8.079   2.266   7.883 -1.1710  0.7739  0.8052
 1690SOL     OW 8985   1.093   2.192   2.676 -0.0315 -0.6297  0.4484
 1690SOL    HW1 8986   1.007   2.201   2.717  0.6396 -1.3030  2.0913
 1690SOL    HW2 8987   1.087   2.245   2.596 -2.2809 -1.4658 -0.0165
 1691SOL     OW 8988   5.274   3.535   9.543 -0.7049 -0.6100 -0.1970
 1691SOL    HW1 8989   5.348   3.592   9.520 -1.6888  1.0249  0.5383
 1691SOL    HW2 8990   5.231   3.518   9.460  0.9571 -2.3196 -0.7737
 1692SOL     OW 8991   0.301   0.270   8.378  0.4324 -0.2157 -0.3247
 1692SOL    HW1 8992   0.380   0.219   8.363  0.9766  0.3318  0.5937
 1692SOL    HW2 8993   0.276   0.250   8.468  0.2336  0.5735 -0.1985
 1693SOL     OW 8994   3.872   3.015   7.789 -0.1042  0.0025 -0.1605
 1693SOL    HW1 8995   3.944   3.069   7.755  0.4809 -2.1962 -2.7990
 1693SOL    HW2 8996   3.793   3.051   7.748  0.1627 -0.4789 -1.1352
 1694SOL     OW 8997   5.289  10.040   9.527 -0.0987 -0.0950 -0.3322
 1694SOL    HW1 8998   5.354  10.040   9.457  0.1467 -0.1329 -0.1041
 1694SOL    HW2 8999   5.335  10.004   9.603 -0.4970 -0.5040 -0.2793
 1695SOL     OW 9000   1.875   0.029   5.276  0.1688  0.9479  0.8481
 1695SOL    HW1 9001   1.803  -0.032   5.260  0.2412  1.0827 -0.0658
 1695SOL    HW2 9002   1.917  -0.003   5.355 -0.4304  0.4192  0.9584
 1696SOL     OW 9003   7.167   7.216   4.249  0.4744  0.5973  0.2911
 1696SOL    HW1 9004   7.080   7.229   4.286  0.6946  1.4412  0.5314
 1696SOL    HW2 9005   7.227   7.222   4.323  0.6728 -1.0971  0.3039
 1697SOL     OW 9006   8.936   2.551   3.070  0.2766 -0.1846  0.4327
 1697SOL    HW1 9007   8.999   2.489   3.033 -2.7158 -2.9266 -0.4168
 1697SOL    HW2 9008   8.917   2.612   2.999 -0.9912 -1.8364 -0.7182
 1698SOL     OW 9009   8.575   2.758   3.345  0.0114 -0.3874  0.2737
 1698SOL    HW1 9010   8.575   2.812   3.267  1.6221 -1.7498 -0.7330
 1698SOL    HW2 9011   8.497   2.785   3.393 -1.0013  0.5152 -1.7745
 1699SOL     OW 9012   2.001   3.795   1.573 -0.1895  0.5091 -0.1157
 1699SOL    HW1 9013   1.949   3.798   1.492 -0.5083 -0.7696  0.0178
 1699SOL    HW2 9014   2.087   3.766   1.544 -0.1586  0.5362 -0.0504
 1700SOL     OW 9015   5.191   8.988   5.412 -0.0609 -0.0441  0.1208
 1700SOL    HW1 9016   5.109   9.037   5.403 -0.2593 -0.0441  1.5556
 1700SOL    HW2 9017   5.168   8.913   5.467  0.7628 -0.3899  0.0114
 1701SOL     OW 9018   1.602   1.969  10.004  0.0529 -0.1193 -0.2296
 1701SOL    HW1 9019   1.690   1.981   9.970 -0.1705 -2.7871 -2.0495
 1701SOL    HW2 9020   1.603   1.881  10.043 -1.4570  0.3526  0.9760
 1702SOL     OW 9021   4.876   1.906   6.368 -0.3443  0.2755 -0.0896
 1702SOL    HW1 9022   4.846   1.887   6.457 -2.7268 -1.7984 -1.2398
 1702SOL    HW2 9023   4.884   1.821   6.326  1.3266  1.1713 -1.7481
 1703SOL     OW 9024   8.552   2.261   9.511 -0.6155  0.0656 -0.1993
 1703SOL    HW1 9025   8.457   2.271   9.510 -0.6960 -0.5528  0.5709
 1703SOL    HW2 9026   8.585   2.351   9.517 -1.2433  0.1926  2.6051
 1704SOL     OW 9027   7.065   2.756   4.200  0.5154  0.5087  0.5884
 1704SOL    HW1 9028   7.133   2.822   4.193  0.5048  0.3042 -2.2341
 1704SOL    HW2 9029   7.052   2.746   4.295  1.9162  3.0481  1.1419
 1705SOL     OW 9030   8.088   5.465   5.157 -0.0271 -0.2318 -0.2458
 1705SOL    HW1 9031   8.002   5.445   5.195  0.1169  0.2952  0.3877
 1705SOL    HW2 9032   8.111   5.550   5.194 -0.0708  0.5301 -1.8928
 1706SOL     OW 9033   8.429   1.497   0.225  0.1270  0.1338  0.3215
 1706SOL    HW1 9034   8.443   1.531   0.313  1.7186 -1.7222  0.8515
 1706SOL    HW2 9035   8.341   1.526   0.202  0.3210  2.1164  1.8026
 1707SOL     OW 9036   7.163   6.367   0.719 -0.3882 -0.9330 -0.4492
 1707SOL    HW1 9037   7.113   6.428   0.773  1.0408  0.1112 -0.2357
 1707SOL    HW2 9038   7.146   6.394   0.629  1.1060  0.5585 -0.3268
 1708SOL     OW 9039   8.344   1.681   0.653  0.0682  0.6103  0.1616
 1708SOL    HW1 9040   8.312   1.669   0.742 -0.7528 -0.1224 -0.2146
 1708SOL    HW2 9041   8.275   1.643   0.597  1.6351 -1.1436 -0.6753
 1709SOL     OW 9042   8.200   0.314   6.446 -0.0063 -0.5743  0.4828
 1709SOL    HW1 9043   8.187   0.232   6.399  0.6155 -1.2527  1.4548
 1709SOL    HW2 9044   8.281   0.350   6.410 -1.3902  0.7457 -1.4835
 1710SOL     OW 9045   1.034   6.836   1.635  0.8759 -0.0775 -0.0339
 1710SOL    HW1 9046   0.994   6.760   1.677  0.1236  1.1982  1.7023
 1710SOL    HW2 9047   0.978   6.856   1.561 -0.6397  0.4822  1.2071
 1711SOL     OW 9048   6.694   9.850   8.170 -0.4293 -0.0143 -0.3814
 1711SOL    HW1 9049   6.703   9.760   8.139 -2.9124 -0.1739 -0.8770
 1711SOL    HW2 9050   6.757   9.900   8.117  3.8948 -1.8225  2.5342
 1712SOL     OW 9051   4.183   2.087   9.873 -0.4111  0.2269 -0.6392
 1712SOL    HW1 9052   4.229   2.151   9.819  0.4611  0.0851 -0.0743
 1712SOL    HW2 9053   4.208   2.108   9.963 -1.1069 -0.1283 -0.3575
 1713SOL     OW 9054   6.422   2.990   7.141  0.3038  0.2446  0.3530
 1713SOL    HW1 9055   6.497   2.938   7.171 -0.7582 -1.2178  0.5575
 1713SOL    HW2 9056   6.350   2.964   7.198 -1.2413 -0.9957 -1.9865
 1714SOL     OW 9057   3.348   0.930   2.046  0.0077  0.3187 -0.6918
 1714SOL    HW1 9058   3.304   0.853   2.084  0.1164  1.2017  1.3491
 1714SOL    HW2 9059   3.370   0.903   1.957 -0.9430 -1.6237 -0.3998
 1715SOL     OW 9060   1.964   2.601   0.651 -0.4008  0.8314  0.0657
 1715SOL    HW1 9061   1.906   2.527   0.669 -1.3864  1.4500 -0.4404
 1715SOL    HW2 9062   2.028   2.599   0.722 -0.2771 -0.6223 -0.0654
 1716SOL     OW 9063   3.526   3.051   3.972 -0.2720  0.1261 -0.4148
 1716SOL    HW1 9064   3.554   3.001   4.049 -0.8546 -0.3796 -0.5291
 1716SOL    HW2 9065   3.600   3.045   3.911 -0.3013 -0.5238 -0.3921
 1717SOL     OW 9066   9.589   8.673   8.766 -0.2517 -0.6811 -1.0605
 1717SOL    HW1 9067   9.633   8.745   8.811  0.8722 -1.5086 -0.7863
 1717SOL    HW2 9068   9.533   8.633   8.833  0.3283 -1.0205 -0.7633
 1718SOL     OW 9069   0.628   5.783   0.667 -0.0236 -0.2876 -0.0727
 1718SOL    HW1 9070   0.712   5.824   0.688  0.4187 -1.0170 -0.4062
 1718SOL    HW2 9071   0.579   5.787   0.749 -0.2051  1.4052 -0.2335
 1719SOL     OW 9072   3.703   1.833   1.360  0.3047 -0.0558 -0.5090
 1719SOL    HW1 9073   3.635   1.767   1.374 -0.2264  0.6058  0.0313
 1719SOL    HW2 9074   3.775   1.784   1.319 -0.5123 -0.7422 -1.1540
 1720SOL     OW 9075   3.713   2.471   4.095  0.5102 -0.2004 -0.0295
 1720SOL    HW1 9076   3.745   2.510   4.014 -1.9943 -0.6948 -1.3432
 1720SOL    HW2 9077   3.701   2.378   4.073  0.3858 -0.4659  1.1197
 1721SOL     OW 9078   7.294   3.909   7.869 -0.2846  0.1485 -0.1108
 1721SOL    HW1 9079   7.354   3.925   7.797  0.0755 -2.6571 -0.5665
 1721SOL    HW2 9080   7.347   3.861   7.934 -1.2436  0.3840  0.8742
 1722SOL     OW 9081   1.863   4.593   7.904  0.0252 -0.2718 -0.6369
 1722SOL    HW1 9082   1.941   4.545   7.930  1.1689  0.9082 -1.7381
 1722SOL    HW2 9083   1.853   4.661   7.970 -0.1964 -0.5464 -0.3860
 1723SOL     OW 9084   5.345   7.207   9.210  0.0752  0.0220  0.2148
 1723SOL    HW1 9085   5.285   7.278   9.230 -0.9505 -1.0375  1.0155
 1723SOL    HW2 9086   5.324   7.138   9.273 -0.0202 -1.5960 -1.4900
 1724SOL     OW 9087   0.988   8.086   3.196 -0.0305 -0.2263  0.0528
 1724SOL    HW1 9088   1.053   8.016   3.183 -1.6358 -1.6351 -0.7873
 1724SOL    HW2 9089   0.961   8.077   3.287 -0.3810 -0.8617 -0.1081
 1725SOL     OW 9090   7.727   4.773   4.212  0.9087  0.4493  0.2787
 1725SOL    HW1 9091   7.705   4.689   4.253  0.9794 -0.5464 -1.6166
 1725SOL    HW2 9092   7.799   4.807   4.265 -1.0845  0.8744  2.9615
 1726SOL     OW 9093   0.185   7.812   4.686  0.2510  0.8512 -0.0079
 1726SOL    HW1 9094   0.175   7.724   4.723 -1.1561  0.6616 -0.7843
 1726SOL    HW2 9095   0.221   7.798   4.599  1.2998  1.1451  0.3683
 1727SOL     OW 9096   1.537   2.474   0.503 -0.0734  0.4139  0.0596
 1727SOL    HW1 9097   1.589   2.455   0.581 -3.0125 -0.1192  2.0285
 1727SOL    HW2 9098   1.559   2.404   0.442  0.3528 -0.6917  1.4260
 1728SOL     OW 9099   2.946   1.562   5.326  0.2068  0.6142 -0.8525
 1728SOL    HW1 9100   2.960   1.592   5.416  2.5722 -1.9221 -0.2298
 1728SOL    HW2 9101   2.853   1.538   5.323  0.5372 -1.5854  1.8284
 1729SOL     OW 9102   9.459   4.941   2.488 -0.4086  0.0436 -0.2660
 1729SOL    HW1 9103   9.501   4.856   2.471 -1.1072 -0.4394  0.3516
 1729SOL    HW2 9104   9.394   4.922   2.555 -1.5521  0.8055 -1.1311
 1730SOL     OW 9105   9.194   9.248   2.534  0.3184 -0.0174  0.0460
 1730SOL    HW1 9106   9.126   9.228   2.470  1.1198  0.0770 -0.8757
 1730SOL    HW2 9107   9.221   9.163   2.568  1.1507 -0.2558 -1.1269
 1731SOL     OW 9108   1.201   2.978   4.926  0.6457 -0.0922 -0.4070
 1731SOL    HW1 9109   1.249   3.039   4.869  1.2659 -1.5708 -1.5258
 1731SOL    HW2 9110   1.208   2.894   4.881 -1.6948 -0.6632  0.1958
 1732SOL     OW 9111   2.726   3.094   2.340  0.1947 -0.4055 -0.2315
 1732SOL    HW1 9112   2.662   3.082   2.270  0.3105  0.5784 -0.5162
 1732SOL    HW2 9113   2.784   3.019   2.332 -0.3974 -0.8450 -0.5334
 1733SOL     OW 9114   9.707   7.417   3.497 -0.1341  0.2371  0.2067
 1733SOL    HW1 9115   9.757   7.403   3.578 -1.3086 -1.6428  0.6639
 1733SOL    HW2 9116   9.637   7.477   3.522  0.4097  0.9167  0.1587
 1734SOL     OW 9117   1.591   3.082   0.410 -0.3101  0.4724  0.2851
 1734SOL    HW1 9118   1.512   3.133   0.392 -1.9152 -0.6484  3.3511
 1734SOL    HW2 9119   1.654   3.147   0.444 -0.8790  1.0012  0.3453
 1735SOL     OW 9120   0.119   4.048  10.201 -0.0518 -0.5281 -0.1665
 1735SOL    HW1 9121   0.163   4.099  10.133  3.1762 -0.4893  1.7333
 1735SOL    HW2 9122   0.097   4.112  10.268  0.7154 -1.1071  0.6534
 1736SOL     OW 9123   5.451   8.851   8.948 -0.2034  0.2206  0.0088
 1736SOL    HW1 9124   5.540   8.885   8.963 -0.1290 -0.3234  0.9110
 1736SOL    HW2 9125   5.454   8.762   8.983 -0.6644 -0.3952 -1.4307
 1737SOL     OW 9126   4.597   7.502   9.893  0.3772  1.4199 -0.0009
 1737SOL    HW1 9127   4.546   7.447   9.953  0.7319  1.6588  0.5302
 1737SOL    HW2 9128   4.531   7.558   9.851  0.2803  2.4965  1.4932
 1738SOL     OW 9129   3.222   6.006   3.622  0.2372  0.2789  0.0867
 1738SOL    HW1 9130   3.222   5.922   3.668 -0.9906 -0.3536 -1.0176
 1738SOL    HW2 9131   3.200   6.070   3.690 -0.7010 -0.5291  0.5610
 1739SOL     OW 9132   3.937   1.274   9.634  0.2840  0.1261  0.0951
 1739SOL    HW1 9133   3.858   1.319   9.605  1.3965  2.3570  0.2798
 1739SOL    HW2 9134   3.942   1.293   9.727 -0.5223 -2.6233  0.7911
 1740SOL     OW 9135   3.847   8.035   2.715 -0.4418  0.3256  0.0177
 1740SOL    HW1 9136   3.926   8.089   2.712 -1.3738  1.7721  0.5274
 1740SOL    HW2 9137   3.823   8.022   2.623  0.7285 -0.6752 -0.1650
 1741SOL     OW 9138   6.713   1.318   4.954 -0.1015 -0.3604  0.0566
 1741SOL    HW1 9139   6.622   1.341   4.933  0.1305  0.8481  0.2853
 1741SOL    HW2 9140   6.748   1.282   4.873 -0.3797  0.4897 -0.4496
 1742SOL     OW 9141   1.991   9.756   3.074  0.0301 -0.0114 -0.1957
 1742SOL    HW1 9142   2.065   9.812   3.050  0.2118 -0.0358  0.2850
 1742SOL    HW2 9143   1.930   9.763   3.000  0.4047  0.1963 -0.4896
 1743SOL     OW 9144   6.549   4.828   9.408 -0.2139  0.0106  0.2340
 1743SOL    HW1 9145   6.487   4.840   9.480  0.0190  1.5368  0.2162
 1743SOL    HW2 9146   6.634   4.848   9.446 -0.3363  3.6132 -0.9992
 1744SOL     OW 9147   3.994   8.026   9.866 -0.4491  0.0308 -0.0495
 1744SOL    HW1 9148   3.950   8.081   9.802 -2.3340  1.4084  2.2449
 1744SOL    HW2 9149   3.944   7.945   9.868 -1.0321  0.3912  0.3596
 1745SOL     OW 9150   8.907   1.400   4.561  0.2900  0.3008 -0.6150
 1745SOL    HW1 9151   8.933   1.483   4.521 -1.7105  0.9326 -0.7135
 1745SOL    HW2 9152   8.883   1.423   4.651 -1.0687  0.0091 -0.8832
 1746SOL     OW 9153   1.446   0.813   5.984  0.2493  0.3392 -0.6366
 1746SOL    HW1 9154   1.534   0.848   5.971 -0.3688  2.3716  0.2553
 1746SOL    HW2 9155   1.437   0.807   6.079 -0.3197 -0.5765 -0.7408
 1747SOL     OW 9156   1.296   6.490   7.064  0.3261  0.3729  0.6463
 1747SOL    HW1 9157   1.345   6.491   6.982 -0.2142 -0.8796  0.2810
 1747SOL    HW2 9158   1.230   6.558   7.053 -0.1374 -0.2021 -0.2178
 1748SOL     OW 9159   6.941   0.607   9.144 -0.4182 -0.1564 -0.2481
 1748SOL    HW1 9160   6.865   0.564   9.105  0.6045 -0.0247 -2.5363
 1748SOL    HW2 9161   6.975   0.663   9.074  0.5591  1.3939  1.4076
 1749SOL     OW 9162   5.223   0.457   4.562  0.5179  0.5651  0.5388
 1749SOL    HW1 9163   5.248   0.547   4.583  0.8505  0.5733  0.1282
 1749SOL    HW2 9164   5.257   0.443   4.474  1.1183 -0.2082  0.8830
 1750SOL     OW 9165   6.194   7.194   0.734  0.0694  0.3600  0.1175
 1750SOL    HW1 9166   6.267   7.139   0.707 -1.2525 -1.5467  0.2424
 1750SOL    HW2 9167   6.234   7.279   0.752  2.3111 -0.7350  0.6741
 1751SOL     OW 9168   0.891   8.328   1.882 -0.3668 -0.5169 -0.6129
 1751SOL    HW1 9169   0.934   8.413   1.871  3.1771 -1.9920  0.5510
 1751SOL    HW2 9170   0.813   8.347   1.934  1.5523  1.7568  1.6598
 1752SOL     OW 9171   7.145   4.996   7.551  0.1841 -0.1621  0.1534
 1752SOL    HW1 9172   7.116   5.063   7.488  1.6574 -0.1361 -0.5273
 1752SOL    HW2 9173   7.139   5.040   7.636 -1.6013 -0.1228  0.0554
 1753SOL     OW 9174   4.480   0.259   6.205 -0.2564 -0.6695  0.3557
 1753SOL    HW1 9175   4.444   0.347   6.205  0.9049 -0.1499  1.8579
 1753SOL    HW2 9176   4.574   0.272   6.192 -0.2400 -1.8096 -0.8946
 1754SOL     OW 9177   0.088   6.000   6.242 -0.0621 -0.2280 -0.5508
 1754SOL    HW1 9178   0.154   5.960   6.297  0.0845  2.0296  1.0199
 1754SOL    HW2 9179   0.128   6.002   6.155  0.8833 -1.1571 -0.1660
 1755SOL     OW 9180   1.152   3.559   1.990  0.1979  0.0883 -0.5824
 1755SOL    HW1 9181   1.123   3.643   2.024  1.6527  0.2208  0.4427
 1755SOL    HW2 9182   1.248   3.562   1.998  0.2756 -1.6930 -0.4267
 1756SOL     OW 9183   3.854   5.454   5.156 -0.1480 -0.0532 -0.3779
 1756SOL    HW1 9184   3.774   5.467   5.106  0.2374  1.4133 -0.6661
 1756SOL    HW2 9185   3.885   5.543   5.175 -0.1345 -0.5423  2.2498
 1757SOL     OW 9186   0.956   9.764   6.565 -0.1944  0.0066  0.3235
 1757SOL    HW1 9187   0.990   9.785   6.477 -0.9438 -2.2465 -0.5785
 1757SOL    HW2 9188   1.035   9.755   6.619  0.4028 -0.5537 -0.6095
 1758SOL     OW 9189   0.981   0.459   3.738  0.2748 -0.1045  0.0303
 1758SOL    HW1 9190   0.955   0.372   3.768  2.8173 -0.4709  1.5281
 1758SOL    HW2 9191   1.021   0.444   3.652 -0.3251 -0.2391 -0.2245
 1759SOL     OW 9192   5.342   3.923  10.170 -0.5683  0.0395  0.5544
 1759SOL    HW1 9193   5.403   3.872  10.224 -0.7982 -1.7066 -0.7591
 1759SOL    HW2 9194   5.395   3.952  10.095 -0.8515  0.3253  0.4605
 1760SOL     OW 9195   3.894   5.299   8.896 -0.1772  0.4082 -0.4516
 1760SOL    HW1 9196   3.830   5.364   8.867  0.2218  1.5431  1.0935
 1760SOL    HW2 9197   3.977   5.346   8.895  0.0490  0.0926  1.1401
 1761SOL     OW 9198   3.083   2.784   9.622  0.1500  0.2022  0.1216
 1761SOL    HW1 9199   3.174   2.793   9.650  0.0192  0.6243  0.4329
 1761SOL    HW2 9200   3.066   2.690   9.621  0.9023  0.0703 -0.9551
 1762SOL     OW 9201   5.960   7.101   7.322 -0.0384  0.1574  0.3356
 1762SOL    HW1 9202   6.018   7.076   7.250 -0.7732  1.5439 -0.8047
 1762SOL    HW2 9203   5.969   7.031   7.386  0.6858 -1.1152 -1.0889
 1763SOL     OW 9204   8.799   4.405   6.147  0.5926 -0.0702  0.1653
 1763SOL    HW1 9205   8.720   4.441   6.186  0.1699  0.1697 -0.8906
 1763SOL    HW2 9206   8.863   4.476   6.153  0.2466  0.3045 -0.4143
 1764SOL     OW 9207   2.981   8.298  10.186 -0.2326  0.2584 -0.5672
 1764SOL    HW1 9208   2.895   8.312  10.147 -0.0259 -1.3315 -1.6818
 1764SOL    HW2 9209   2.963   8.271  10.276 -0.7824  2.1127 -0.0739
 1765SOL     OW 9210   5.300   7.153   1.183  0.2542  0.1477 -0.4578
 1765SOL    HW1 9211   5.379   7.206   1.181  0.1973  0.2608  0.0627
 1765SOL    HW2 9212   5.324   7.074   1.231  0.6769 -0.8837 -2.2923
 1766SOL     OW 9213   0.647   5.413   2.684  0.1564  0.4392  0.1548
 1766SOL    HW1 9214   0.582   5.427   2.615  0.8349  2.3009 -0.1506
 1766SOL    HW2 9215   0.633   5.486   2.745  1.8030  0.7673  0.1844
 1767SOL     OW 9216   8.252   3.493   4.191 -0.0616  0.0982  0.1884
 1767SOL    HW1 9217   8.320   3.522   4.130  1.5855 -1.1760  1.3421
 1767SOL    HW2 9218   8.282   3.524   4.277 -1.2390 -0.0216  0.6625
 1768SOL     OW 9219   2.238   5.316   9.761  0.1941 -0.6040 -0.3573
 1768SOL    HW1 9220   2.209   5.293   9.849 -2.2137 -2.2556 -1.4708
 1768SOL    HW2 9221   2.258   5.410   9.766  0.4158 -0.7155  1.9895
 1769SOL     OW 9222   8.708   9.882   3.103 -0.2754 -0.4988 -0.0321
 1769SOL    HW1 9223   8.758   9.954   3.066  0.3277 -1.3346 -0.8751
 1769SOL    HW2 9224   8.677   9.832   3.027 -0.3229 -1.3620  0.5370
 1770SOL     OW 9225   0.889   9.075   1.508  0.7249 -0.4681  0.3229
 1770SOL    HW1 9226   0.981   9.079   1.482  0.0533 -0.1736 -2.2606
 1770SOL    HW2 9227   0.867   8.982   1.503  0.2422 -0.2977 -1.8119
 1771SOL     OW 9228   6.494   8.036   8.281  0.4316 -0.2079  0.4204
 1771SOL    HW1 9229   6.472   8.096   8.352  0.7715 -0.0197  0.3680
 1771SOL    HW2 9230   6.561   8.082   8.231  0.3258 -0.4179  0.0850
 1772SOL     OW 9231   6.669   0.354  10.117 -0.3432  0.2717 -0.0946
 1772SOL    HW1 9232   6.618   0.431  10.144 -0.9991 -0.3422  0.4614
 1772SOL    HW2 9233   6.758   0.387  10.109 -0.4719  0.9409  0.8888
 1773SOL     OW 9234   6.596   9.925   6.358  0.3488 -0.5683  0.1416
 1773SOL    HW1 9235   6.631   9.836   6.359 -0.6248 -0.9846 -1.0936
 1773SOL    HW2 9236   6.508   9.917   6.395  0.5127  0.0149  0.6908
 1774SOL     OW 9237   5.278   5.738   9.950  0.2443  0.1014  0.0368
 1774SOL    HW1 9238   5.368   5.724   9.919 -0.0711  0.6415 -1.2121
 1774SOL    HW2 9239   5.263   5.832   9.936  0.2816  0.5342  2.5099
 1775SOL     OW 9240   3.106   9.093   0.100  0.5178  0.6885  0.3064
 1775SOL    HW1 9241   3.148   9.179   0.103  1.4636  0.2120  2.5580
 1775SOL    HW2 9242   3.160   9.043   0.038  0.6332  1.3673 -0.1573
 1776SOL     OW 9243   5.897   4.576   6.450 -1.5215 -0.7086 -0.0041
 1776SOL    HW1 9244   5.858   4.637   6.387 -1.9284 -1.8017 -0.8327
 1776SOL    HW2 9245   5.910   4.495   6.401  1.1931 -0.6289  0.4167
 1777SOL     OW 9246   3.605   1.968   7.792  0.0576  0.0309 -0.0961
 1777SOL    HW1 9247   3.568   1.980   7.704 -1.4151 -1.3109  0.2898
 1777SOL    HW2 9248   3.577   1.880   7.818  0.2775  0.4813  1.8123
 1778SOL     OW 9249   9.251   8.563   3.227  0.6040 -0.5315 -0.5241
 1778SOL    HW1 9250   9.261   8.511   3.307 -0.0970 -0.8622 -0.6472
 1778SOL    HW2 9251   9.202   8.507   3.167 -1.1955  0.6643 -0.2472
 1779SOL     OW 9252   1.498   0.195   2.128  0.0434 -0.2953 -0.2235
 1779SOL    HW1 9253   1.528   0.113   2.168  1.4979  1.2812  2.1933
 1779SOL    HW2 9254   1.415   0.214   2.173 -0.0495 -0.1712 -0.4448
 1780SOL     OW 9255   2.133   5.165   1.434  0.1358 -0.0894 -0.2191
 1780SOL    HW1 9256   2.191   5.102   1.475  0.3904  1.6514  2.2998
 1780SOL    HW2 9257   2.045   5.137   1.459  0.3119  1.2591  2.1292
 1781SOL     OW 9258   5.857   7.690   6.426  0.3705 -0.1187 -0.0533
 1781SOL    HW1 9259   5.948   7.718   6.416  0.2897 -0.1125 -0.7690
 1781SOL    HW2 9260   5.845   7.623   6.359  0.0751 -0.7006  0.5650
 1782SOL     OW 9261   0.066   1.892   3.121  0.0185  0.8880 -0.1839
 1782SOL    HW1 9262  -0.027   1.906   3.140  0.2481  1.5329  0.5145
 1782SOL    HW2 9263   0.066   1.846   3.037 -0.9786 -0.6202  0.6101
 1783SOL     OW 9264   8.398   8.325   2.204 -0.1144  0.3184  0.2176
 1783SOL    HW1 9265   8.350   8.267   2.145 -1.0087 -1.7761  2.7888
 1783SOL    HW2 9266   8.331   8.383   2.240 -0.0512 -0.0669  0.9750
 1784SOL     OW 9267   7.664   3.415   5.959  0.2108 -0.5695  0.5111
 1784SOL    HW1 9268   7.606   3.468   6.013 -0.1408  0.3946 -0.7539
 1784SOL    HW2 9269   7.632   3.325   5.970 -1.2236 -0.1198  0.2158
 1785SOL     OW 9270   2.567   7.452   4.903  0.4466 -0.5570  0.2205
 1785SOL    HW1 9271   2.564   7.357   4.907 -0.8733 -0.5576 -0.4173
 1785SOL    HW2 9272   2.485   7.478   4.861  0.5389  0.8904  0.8575
 1786SOL     OW 9273  10.169   2.847   4.775 -0.3978 -0.2757  0.0957
 1786SOL    HW1 9274  10.158   2.832   4.682 -0.0011  1.3602 -0.2474
 1786SOL    HW2 9275  10.090   2.811   4.815 -1.1656  0.1268 -1.0177
 1787SOL     OW 9276   4.312   3.437   8.842  0.0248  0.2108  0.3060
 1787SOL    HW1 9277   4.342   3.457   8.754  0.0546 -0.2740  0.2062
 1787SOL    HW2 9278   4.391   3.444   8.896  0.1568 -0.2339  0.1755
 1788SOL     OW 9279   1.365   9.035   9.151  0.5402 -0.1439  0.2553
 1788SOL    HW1 9280   1.373   9.102   9.083  1.4819 -1.4173 -0.9406
 1788SOL    HW2 9281   1.432   9.058   9.215 -0.9109  1.5497  1.2494
 1789SOL     OW 9282   2.819   5.002   4.113  0.4212 -0.0431 -0.1874
 1789SOL    HW1 9283   2.783   4.916   4.134 -2.6331  0.8344 -1.2271
 1789SOL    HW2 9284   2.785   5.060   4.182  1.3596  0.5646 -0.2154
 1790SOL     OW 9285   6.931   3.696   7.553  0.8370 -0.8010 -0.1955
 1790SOL    HW1 9286   6.892   3.784   7.554 -1.5927 -1.7904 -1.5084
 1790SOL    HW2 9287   6.881   3.646   7.617  1.8505 -1.4060  0.1523
 1791SOL     OW 9288   8.123   7.288   3.817  0.0557  0.0059  0.4253
 1791SOL    HW1 9289   8.092   7.345   3.888  0.8349  0.5457  0.3458
 1791SOL    HW2 9290   8.121   7.200   3.855 -1.4934  0.0275  0.4348
 1792SOL     OW 9291   4.746   3.595   3.882 -0.1280 -0.4158  0.1000
 1792SOL    HW1 9292   4.669   3.571   3.934 -0.9253  0.1811 -0.7675
 1792SOL    HW2 9293   4.722   3.574   3.792  1.5632 -2.2556  0.0060
 1793SOL     OW 9294   7.159   1.820  10.162  0.1118 -0.1839 -0.2005
 1793SOL    HW1 9295   7.251   1.846  10.164 -0.5125  2.1737  0.7254
 1793SOL    HW2 9296   7.130   1.839  10.073  0.2050  0.2622 -0.1338
 1794SOL     OW 9297   4.035   4.068   5.181 -0.6128  0.2366  0.0764
 1794SOL    HW1 9298   4.052   4.034   5.093 -2.6104  0.0336 -0.2667
 1794SOL    HW2 9299   3.945   4.101   5.177 -0.5531  0.7033  1.9055
 1795SOL     OW 9300   2.547   7.203   0.595 -0.4961  0.6619  0.1429
 1795SOL    HW1 9301   2.602   7.127   0.614 -0.7212  0.6852  0.9212
 1795SOL    HW2 9302   2.608   7.277   0.598 -0.3255  0.5431 -0.3514
 1796SOL     OW 9303   9.328   5.705   8.148  0.2292  0.2791  0.4362
 1796SOL    HW1 9304   9.332   5.630   8.088 -0.9633  0.4218  0.1567
 1796SOL    HW2 9305   9.300   5.668   8.231 -0.6008  0.4343  0.2348
 1797SOL     OW 9306   9.140   7.948   5.157  0.2654  0.1326 -0.0565
 1797SOL    HW1 9307   9.063   8.003   5.168  0.4123  0.6267 -1.2698
 1797SOL    HW2 9308   9.129   7.877   5.220 -0.9732  0.4206  0.0688
 1798SOL     OW 9309   0.679   8.412   2.012 -0.0083 -0.5257  0.0352
 1798SOL    HW1 9310   0.585   8.407   1.993  0.3714 -1.6234 -1.7813
 1798SOL    HW2 9311   0.686   8.482   2.077 -1.9581  0.4358 -0.6915
 1799SOL     OW 9312   8.151   5.563   6.309 -0.4296 -0.4725 -0.7389
 1799SOL    HW1 9313   8.129   5.607   6.227 -0.7193 -0.7887 -0.8328
 1799SOL    HW2 9314   8.161   5.634   6.372  2.2557 -0.0052 -1.5741
 1800SOL     OW 9315   7.823   8.231   9.254 -0.0781 -0.4510 -0.5747
 1800SOL    HW1 9316   7.800   8.176   9.179  0.4107 -0.8377 -0.4406
 1800SOL    HW2 9317   7.848   8.169   9.322 -3.3809 -0.3089  0.9516
 1801SOL     OW 9318   6.076   1.297   8.003 -0.0618 -0.2109  1.0630
 1801SOL    HW1 9319   6.030   1.336   8.077  1.6577  1.1039  1.5194
 1801SOL    HW2 9320   6.100   1.210   8.033 -1.9028 -0.8096  0.9236
 1802SOL     OW 9321   7.279   7.167   6.184  0.0247  0.3124  0.6106
 1802SOL    HW1 9322   7.248   7.201   6.100  2.0936 -1.5677 -1.0776
 1802SOL    HW2 9323   7.358   7.218   6.202 -0.4362  0.7341  1.4601
 1803SOL     OW 9324   3.487   8.237   5.021  0.2223  0.1599  0.2807
 1803SOL    HW1 9325   3.439   8.184   4.958  0.8894  1.4368 -1.4047
 1803SOL    HW2 9326   3.431   8.240   5.099 -0.3996 -1.8820 -0.0392
 1804SOL     OW 9327   1.843   8.514   1.219  0.3809  0.8789 -0.0639
 1804SOL    HW1 9328   1.766   8.558   1.183  0.7892  1.2521 -0.4967
 1804SOL    HW2 9329   1.812   8.427   1.244  0.0305  0.6881 -1.1115
 1805SOL     OW 9330   1.541   4.183   0.269 -0.5341  0.6488 -0.1692
 1805SOL    HW1 9331   1.451   4.205   0.246 -0.2438  0.3699 -1.6856
 1805SOL    HW2 9332   1.586   4.173   0.185  0.6726 -0.2196  0.5356
 1806SOL     OW 9333   5.826   9.776   3.953 -0.2728 -0.3569  0.1927
 1806SOL    HW1 9334   5.920   9.762   3.943  0.3188  1.9249  1.8759
 1806SOL    HW2 9335   5.799   9.711   4.017  0.3049 -0.5148  0.2796
 1807SOL     OW 9336   0.470   5.965   7.584 -0.5714  0.2893  0.4508
 1807SOL    HW1 9337   0.402   6.031   7.600 -0.9556 -0.5014  2.3536
 1807SOL    HW2 9338   0.548   6.002   7.625 -0.2983  0.3847 -0.1460
 1808SOL     OW 9339   3.106   4.579   1.935  0.5108  0.4084  0.4616
 1808SOL    HW1 9340   3.013   4.580   1.913  0.5264  2.6097  0.2775
 1808SOL    HW2 9341   3.139   4.499   1.896 -1.0874  0.1518 -0.4538
 1809SOL     OW 9342   4.517   4.006   9.228 -0.4506 -0.2250 -0.2828
 1809SOL    HW1 9343   4.545   4.056   9.305 -0.9528  1.4350 -1.1349
 1809SOL    HW2 9344   4.466   3.934   9.265 -1.1342  0.8376  0.9514
 1810SOL     OW 9345   7.973   0.318   7.421  0.0697 -0.1272  0.0569
 1810SOL    HW1 9346   8.059   0.358   7.434  0.7400 -1.5290  0.1604
 1810SOL    HW2 9347   7.935   0.365   7.346  1.1264  0.1940 -0.2902
 1811SOL     OW 9348   0.975   1.449   6.539  0.3239 -0.7100  0.0584
 1811SOL    HW1 9349   0.901   1.426   6.595  1.5879 -3.8695  0.6251
 1811SOL    HW2 9350   1.027   1.510   6.591 -0.8626  0.0328  0.4143
 1812SOL     OW 9351   9.010   0.028   0.835 -0.1776 -0.0571  0.0875
 1812SOL    HW1 9352   8.993   0.018   0.929 -0.5858  0.4386  0.0727
 1812SOL    HW2 9353   9.103   0.010   0.825  0.0515  0.7362  0.7208
 1813SOL     OW 9354   2.383   9.211   9.474 -0.3093 -0.0591  0.6969
 1813SOL    HW1 9355   2.304   9.263   9.466 -1.5134 -1.4688  2.5558
 1813SOL    HW2 9356   2.370   9.138   9.414 -0.4855 -0.3318  1.0578
 1814SOL     OW 9357   9.950   9.207   6.021 -0.2313  0.0818 -0.2800
 1814SOL    HW1 9358   9.866   9.253   6.012 -0.6503 -0.4870  0.6666
 1814SOL    HW2 9359   9.948   9.141   5.952 -0.4014  0.3097 -0.4960
 1815SOL     OW 9360   6.593   9.324   5.286 -0.0332  0.0708  0.2563
 1815SOL    HW1 9361   6.621   9.284   5.368  0.0391 -0.6600 -0.1165
 1815SOL    HW2 9362   6.609   9.257   5.220 -1.5325  0.0696 -0.1354
 1816SOL     OW 9363   2.337   1.108   2.066  0.2843  0.6385  0.0050
 1816SOL    HW1 9364   2.362   1.200   2.055 -1.5403  0.9671 -2.0142
 1816SOL    HW2 9365   2.251   1.111   2.107  0.8964 -0.2714  1.4308
 1817SOL     OW 9366   4.413   5.255   3.324 -0.2881  0.4172 -1.0073
 1817SOL    HW1 9367   4.485   5.254   3.261 -0.4402  0.9196 -1.1929
 1817SOL    HW2 9368   4.431   5.182   3.383 -0.6637 -0.6856 -2.2171
 1818SOL     OW 9369   9.399   7.306   8.101 -0.3590 -0.9301 -0.3853
 1818SOL    HW1 9370   9.349   7.377   8.141  0.0980  0.4465 -2.1151
 1818SOL    HW2 9371   9.332   7.249   8.063 -0.6973 -0.6229 -0.2626
 1819SOL     OW 9372   5.206   0.060   1.194  0.0334  0.0113  0.2706
 1819SOL    HW1 9373   5.213   0.154   1.208  2.1260  0.1705 -1.2627
 1819SOL    HW2 9374   5.263   0.022   1.261  1.4886  0.0855 -0.8616
 1820SOL     OW 9375   6.663   2.090   6.483  0.0281 -0.1877 -0.1292
 1820SOL    HW1 9376   6.740   2.033   6.488  0.8704  1.0075  1.4574
 1820SOL    HW2 9377   6.592   2.031   6.458  1.1492 -1.6192 -0.1284
 1821SOL     OW 9378   2.101   3.666   5.188  0.2205 -0.3588  0.0772
 1821SOL    HW1 9379   2.185   3.692   5.225  0.0187  0.1423  0.1957
 1821SOL    HW2 9380   2.068   3.745   5.145  0.0102 -0.6728 -0.3481
 1822SOL     OW 9381   6.793   5.602   9.565 -0.4153 -0.4493 -0.0953
 1822SOL    HW1 9382   6.708   5.561   9.546  0.0833 -0.8632 -1.6254
 1822SOL    HW2 9383   6.822   5.561   9.646 -1.1658 -1.1400 -0.1606
 1823SOL     OW 9384   3.098   6.531   7.456 -0.2829 -0.3112 -0.6786
 1823SOL    HW1 9385   3.094   6.440   7.427 -0.9366 -0.2021 -0.9388
 1823SOL    HW2 9386   3.178   6.535   7.509 -0.6163 -1.2045 -0.0797
 1824SOL     OW 9387   8.301   8.358   0.286 -0.1804 -0.3239 -0.1595
 1824SOL    HW1 9388   8.344   8.356   0.200 -2.4046  0.2749 -1.3566
 1824SOL    HW2 9389   8.222   8.411   0.273 -1.2729 -1.2905  1.9421
 1825SOL     OW 9390   1.665   9.610   8.775 -0.1017  0.3520 -0.1817
 1825SOL    HW1 9391   1.675   9.681   8.711 -1.8362 -0.1326 -1.0590
 1825SOL    HW2 9392   1.704   9.534   8.733  0.4767  0.4546  0.1599
 1826SOL     OW 9393   5.557   6.295   6.375  0.0784  0.5636  0.0382
 1826SOL    HW1 9394   5.586   6.209   6.405  0.1920  0.6076  0.0582
 1826SOL    HW2 9395   5.501   6.327   6.445  2.2745  1.7119  1.3930
 1827SOL     OW 9396   3.117   1.559   4.078 -0.2494  0.3989  0.3183
 1827SOL    HW1 9397   3.130   1.645   4.119  0.4358  1.2374 -1.5359
 1827SOL    HW2 9398   3.150   1.570   3.989 -1.6626 -1.3244 -0.4832
 1828SOL     OW 9399   2.097   0.206   0.985 -0.1382  0.3921 -0.1769
 1828SOL    HW1 9400   2.105   0.124   0.936 -0.6120 -0.1284  0.5942
 1828SOL    HW2 9401   2.096   0.274   0.917  1.0078 -0.1678 -0.7909
 1829SOL     OW 9402   2.867   4.421   0.343 -0.2304  0.5664  0.1435
 1829SOL    HW1 9403   2.772   4.422   0.328 -0.1442  1.2158 -0.3907
 1829SOL    HW2 9404   2.901   4.358   0.280 -0.3386  0.1173  0.5338
 1830SOL     OW 9405   9.547   0.690   1.000  0.6193  0.2914 -0.7347
 1830SOL    HW1 9406   9.622   0.657   1.050  1.5305  0.4260 -1.9876
 1830SOL    HW2 9407   9.528   0.775   1.040  0.9533  0.1439 -0.2415
 1831SOL     OW 9408   2.921   2.805   6.589 -0.1402  0.1754  0.4427
 1831SOL    HW1 9409   2.839   2.834   6.550 -0.0132 -0.7831 -0.5939
 1831SOL    HW2 9410   2.902   2.717   6.622  1.2906 -1.6257 -2.9961
 1832SOL     OW 9411   5.256   5.216   0.451  0.3156 -0.0994  0.2136
 1832SOL    HW1 9412   5.331   5.230   0.509  1.3998 -1.4949 -0.7742
 1832SOL    HW2 9413   5.294   5.175   0.373 -1.2986  0.4765 -0.9039
 1833SOL     OW 9414   5.000   8.187   3.467  0.5855  0.3568 -0.2102
 1833SOL    HW1 9415   4.965   8.225   3.386  0.8879  2.1382  0.4449
 1833SOL    HW2 9416   4.957   8.102   3.474 -0.5890  0.8075 -1.4585
 1834SOL     OW 9417   7.899   4.284   8.304  0.2947 -0.2114 -0.0891
 1834SOL    HW1 9418   7.832   4.292   8.237  2.6524  0.0782 -2.5907
 1834SOL    HW2 9419   7.880   4.354   8.367  0.1315  2.0999 -2.5438
 1835SOL     OW 9420   4.374   4.686   5.569  0.2463  0.0984 -0.2899
 1835SOL    HW1 9421   4.419   4.717   5.647 -1.8406 -1.9663  1.8859
 1835SOL    HW2 9422   4.426   4.611   5.539 -0.1510 -0.5189  0.5253
 1836SOL     OW 9423   9.025   2.347   2.560  0.8815 -0.1977  0.4432
 1836SOL    HW1 9424   8.954   2.401   2.595  1.0213  0.2627  0.0201
 1836SOL    HW2 9425   9.002   2.334   2.468  1.0584 -0.5237  0.4434
 1837SOL     OW 9426   4.880   1.060   5.010  0.3107 -0.6583 -0.3911
 1837SOL    HW1 9427   4.897   1.003   5.085  2.5317  1.1496  0.6198
 1837SOL    HW2 9428   4.960   1.055   4.957  0.9322  1.9578  0.1350
 1838SOL     OW 9429   6.284   7.153   2.399  0.4617  0.1697  0.1763
 1838SOL    HW1 9430   6.293   7.060   2.422 -0.4783 -0.1545 -0.6882
 1838SOL    HW2 9431   6.198   7.178   2.433 -0.1560  0.1676 -1.3311
 1839SOL     OW 9432   9.607   9.593   3.639 -0.2779 -0.1740 -0.0968
 1839SOL    HW1 9433   9.662   9.521   3.671 -2.1299 -2.7169 -2.1277
 1839SOL    HW2 9434   9.662   9.638   3.575 -0.1269 -2.0128 -1.3341
 1840SOL     OW 9435   2.777   2.528   0.092 -0.0584 -0.2001  0.7853
 1840SOL    HW1 9436   2.839   2.461   0.122  0.2723 -1.3985 -2.1541
 1840SOL    HW2 9437   2.761   2.582   0.168  2.7969 -1.2535  2.2868
 1841SOL     OW 9438   0.462   9.846   9.845 -0.2557 -0.0572 -0.2971
 1841SOL    HW1 9439   0.445   9.755   9.867  1.0457 -0.4937 -0.9869
 1841SOL    HW2 9440   0.531   9.842   9.778 -0.3883  1.4170 -0.5564
 1842SOL     OW 9441   2.749   9.946   4.869 -0.8419 -0.6524 -0.2299
 1842SOL    HW1 9442   2.756   9.871   4.927 -3.3509  0.2852  1.4499
 1842SOL    HW2 9443   2.838   9.981   4.864 -0.1467 -2.1166  1.1857
 1843SOL     OW 9444   8.992   2.612   5.828  0.1906  0.7059  0.3647
 1843SOL    HW1 9445   9.087   2.603   5.839  0.4534  1.3837 -1.0770
 1843SOL    HW2 9446   8.982   2.648   5.740 -1.5188 -2.1309 -0.7267
 1844SOL     OW 9447   5.386   6.880   8.099  0.1126  0.2660  0.3697
 1844SOL    HW1 9448   5.331   6.941   8.149 -0.5573 -0.3294  0.3724
 1844SOL    HW2 9449   5.324   6.823   8.055  0.7375 -0.5193  0.4884
 1845SOL     OW 9450   0.289  10.017   6.922 -0.2377 -0.9675  0.1324
 1845SOL    HW1 9451   0.251   9.931   6.936  1.2568 -1.6298  0.2922
 1845SOL    HW2 9452   0.375  10.013   6.963  0.3146  0.2316 -0.8235
 1846SOL     OW 9453   7.462   0.253   6.147 -0.3335 -0.2153  0.1766
 1846SOL    HW1 9454   7.554   0.278   6.154 -1.0299  2.6235  0.4440
 1846SOL    HW2 9455   7.414   0.323   6.191 -2.6141 -2.0268  0.7970
 1847SOL     OW 9456   2.941   9.457   9.550 -0.1663  0.1619 -0.1193
 1847SOL    HW1 9457   2.915   9.383   9.497 -2.0802  0.5802  0.1587
 1847SOL    HW2 9458   2.983   9.517   9.489 -0.2494 -0.3684 -0.7022
 1848SOL     OW 9459   0.974  10.167   2.657  0.5998 -0.3463 -0.3696
 1848SOL    HW1 9460   1.013  10.218   2.586  1.4083 -3.3239 -2.2785
 1848SOL    HW2 9461   0.883  10.156   2.631  0.3261  0.4338  0.2451
 1849SOL     OW 9462   5.785   2.093   8.600  0.5452 -1.0368  0.0556
 1849SOL    HW1 9463   5.757   2.108   8.509 -1.1546 -0.0403  0.6950
 1849SOL    HW2 9464   5.880   2.103   8.597  0.2930  3.0682 -0.9711
 1850SOL     OW 9465   2.930  10.100   4.192  0.2437  0.3056 -0.0037
 1850SOL    HW1 9466   2.843  10.125   4.222 -0.7879 -1.5942 -1.2310
 1850SOL    HW2 9467   2.936  10.006   4.211  2.4004  0.5473  0.8411
 1851SOL     OW 9468   6.057   7.739   6.864 -0.1915 -0.2134 -0.2069
 1851SOL    HW1 9469   6.128   7.799   6.844 -1.0920  1.3399  1.0147
 1851SOL    HW2 9470   5.988   7.761   6.802  0.2832 -1.6176 -1.2943
 1852SOL     OW 9471   6.222   3.478   9.656 -0.4815  0.4800 -0.3204
 1852SOL    HW1 9472   6.286   3.480   9.727  3.1915 -0.9229 -3.2461
 1852SOL    HW2 9473   6.200   3.385   9.646 -0.3940  0.5618 -1.4103
 1853SOL     OW 9474   2.260   2.089   2.866 -0.1023 -0.9898 -0.0036
 1853SOL    HW1 9475   2.202   2.165   2.879 -0.2615 -1.1265  0.0837
 1853SOL    HW2 9476   2.346   2.120   2.893 -0.1344 -0.7860 -0.1292
 1854SOL     OW 9477   5.777   5.174   9.157 -0.0465 -0.6996  0.1582
 1854SOL    HW1 9478   5.768   5.270   9.156 -1.4755 -0.7499  2.1384
 1854SOL    HW2 9479   5.863   5.158   9.117  1.9621  1.6735  3.0270
 1855SOL     OW 9480   9.401   7.604   4.292  0.2698 -0.3004  0.1902
 1855SOL    HW1 9481   9.394   7.680   4.234  1.3186 -0.1563  0.2318
 1855SOL    HW2 9482   9.368   7.531   4.239  1.5496 -0.2355 -0.7440
 1856SOL     OW 9483   1.457   6.476   0.590 -0.1042  0.1226  0.0320
 1856SOL    HW1 9484   1.410   6.444   0.512  0.2550  1.4589 -0.7790
 1856SOL    HW2 9485   1.401   6.547   0.622  1.3437  1.8117 -1.0079
 1857SOL     OW 9486   9.850   2.143   2.486 -1.2902  0.9222 -0.5533
 1857SOL    HW1 9487   9.773   2.099   2.448 -1.0806  1.5675 -1.7875
 1857SOL    HW2 9488   9.832   2.236   2.473 -0.5339  1.0949 -0.3808
 1858SOL     OW 9489   8.668   0.152   4.195  0.3486 -0.2331 -0.0351
 1858SOL    HW1 9490   8.612   0.171   4.119 -0.7441 -0.8639  0.5852
 1858SOL    HW2 9491   8.736   0.219   4.192  0.6770 -0.5968 -1.9129
 1859SOL     OW 9492   1.619   3.944   5.937 -0.4091  1.0253  0.0600
 1859SOL    HW1 9493   1.664   3.979   6.014  0.7100  1.0537 -0.5818
 1859SOL    HW2 9494   1.681   3.882   5.899 -0.7143  1.4256 -1.1389
 1860SOL     OW 9495   1.471   6.714   3.678 -0.1806  0.0281  0.3754
 1860SOL    HW1 9496   1.546   6.698   3.621 -0.4863 -1.4499  0.3532
 1860SOL    HW2 9497   1.417   6.777   3.630  1.2931  1.5819  0.6478
 1861SOL     OW 9498   9.350   8.204   0.392  0.4346  0.4194 -0.1508
 1861SOL    HW1 9499   9.309   8.135   0.340 -1.2796  1.4778 -0.2690
 1861SOL    HW2 9500   9.392   8.157   0.464  1.1193 -0.9017 -1.3324
 1862SOL     OW 9501   9.951   0.354   3.219  0.3676  0.0941 -0.0283
 1862SOL    HW1 9502   9.875   0.395   3.179  1.2488  0.8897 -0.9345
 1862SOL    HW2 9503   9.969   0.408   3.296  2.3203  2.3784 -1.9224
 1863SOL     OW 9504   0.137   9.475   9.891 -0.0591 -0.1797  0.1265
 1863SOL    HW1 9505   0.069   9.493   9.957 -1.6652  0.0764 -1.5090
 1863SOL    HW2 9506   0.118   9.386   9.862 -0.1729  0.1577 -0.8571
 1864SOL     OW 9507   6.301   1.372   9.806  0.0767 -0.0381  0.1423
 1864SOL    HW1 9508   6.211   1.361   9.836 -0.0015 -2.1890 -0.6543
 1864SOL    HW2 9509   6.314   1.301   9.743  2.1025  0.6730 -0.3309
 1865SOL     OW 9510   1.013   8.443   2.842  0.3015  0.2662 -0.6156
 1865SOL    HW1 9511   0.939   8.486   2.801 -0.2284  0.4122  0.4523
 1865SOL    HW2 9512   1.090   8.480   2.798 -0.2381  0.2801 -1.5739
 1866SOL     OW 9513   2.272   4.721   1.771 -0.5184  0.6100  0.1476
 1866SOL    HW1 9514   2.304   4.786   1.834 -0.9622 -0.8247  1.9500
 1866SOL    HW2 9515   2.350   4.671   1.747 -0.5241  0.4586  0.4361
 1867SOL     OW 9516   9.123   8.328   0.493  0.1363 -0.0790 -0.0464
 1867SOL    HW1 9517   9.049   8.338   0.432  1.1602  0.7572 -1.2060
 1867SOL    HW2 9518   9.188   8.279   0.444  0.9277  0.4705  0.4337
 1868SOL     OW 9519   7.603   6.481   1.669  0.4214 -0.1931 -0.3718
 1868SOL    HW1 9520   7.547   6.427   1.725  0.0666  0.0836 -0.4563
 1868SOL    HW2 9521   7.688   6.483   1.714  0.2959 -0.4236 -0.1227
 1869SOL     OW 9522   3.857   4.374   8.151  0.3067 -0.2841  0.1865
 1869SOL    HW1 9523   3.944   4.354   8.184 -0.6556 -2.8935  1.4050
 1869SOL    HW2 9524   3.846   4.468   8.166  1.5470 -0.5565  3.5059
 1870SOL     OW 9525   5.053   1.748   9.532 -0.3497  0.2767  0.2541
 1870SOL    HW1 9526   5.110   1.673   9.549 -0.6019  0.0600  0.1471
 1870SOL    HW2 9527   5.113   1.818   9.504  0.0043  0.4354  1.3501
 1871SOL     OW 9528   2.244   7.698   4.978  0.3190  0.2974  0.3098
 1871SOL    HW1 9529   2.264   7.788   4.956 -0.0563  0.6545  1.3446
 1871SOL    HW2 9530   2.185   7.705   5.054 -1.7943 -0.7317 -1.1288
 1872SOL     OW 9531   6.012   4.704   5.584  0.2471  0.3081 -0.1316
 1872SOL    HW1 9532   6.029   4.779   5.642  1.9113 -0.3345  0.2508
 1872SOL    HW2 9533   6.097   4.680   5.549 -0.4439 -0.6342 -1.2511
 1873SOL     OW 9534   7.432   4.256   7.340  0.1463 -0.7537  0.5232
 1873SOL    HW1 9535   7.387   4.279   7.421  0.0599 -0.6216  0.4372
 1873SOL    HW2 9536   7.484   4.179   7.363 -1.4509 -1.9922  0.2000
 1874SOL     OW 9537   7.280   4.939   8.657  0.3270  0.0214  0.6161
 1874SOL    HW1 9538   7.240   4.910   8.740  0.0957 -1.5211 -0.0050
 1874SOL    HW2 9539   7.214   4.996   8.618  0.8437  1.5951  1.9321
 1875SOL     OW 9540   0.772   0.858   6.741  0.0519 -0.4859 -0.0795
 1875SOL    HW1 9541   0.733   0.931   6.789  1.4203  0.2519 -0.0359
 1875SOL    HW2 9542   0.802   0.897   6.659 -2.0607 -1.6807 -1.5311
 1876SOL     OW 9543   1.606   1.212   3.013 -0.1595 -0.0743 -0.2111
 1876SOL    HW1 9544   1.612   1.140   3.076 -2.8181 -0.1094  0.1232
 1876SOL    HW2 9545   1.577   1.287   3.065  0.4043  0.6566 -0.9317
 1877SOL     OW 9546   4.711   0.783   8.668 -0.7598 -0.2854 -0.3619
 1877SOL    HW1 9547   4.803   0.808   8.661 -0.7091 -0.5283 -0.5679
 1877SOL    HW2 9548   4.666   0.836   8.602 -0.8752  0.3450  0.2091
 1878SOL     OW 9549   4.331   6.648   9.843 -0.4004 -0.8506 -0.2416
 1878SOL    HW1 9550   4.388   6.571   9.849 -0.4669 -0.8265  0.8490
 1878SOL    HW2 9551   4.313   6.657   9.749  1.9448 -0.4437 -0.7018
 1879SOL     OW 9552   5.170   6.281   4.871  1.1262  0.3892  0.4000
 1879SOL    HW1 9553   5.084   6.240   4.878  0.3461  0.5510 -4.4514
 1879SOL    HW2 9554   5.191   6.310   4.960 -1.9626 -3.0809  2.5372
 1880SOL     OW 9555   6.403   5.849   5.790 -0.0079  0.5113 -0.5114
 1880SOL    HW1 9556   6.499   5.844   5.785  0.0608  1.3515 -0.1639
 1880SOL    HW2 9557   6.384   5.847   5.884 -0.3432  0.1605 -0.5862
 1881SOL     OW 9558   1.039   5.791   1.985 -0.5241 -0.4992 -0.5263
 1881SOL    HW1 9559   1.029   5.826   2.074  2.0687 -0.1550 -0.2984
 1881SOL    HW2 9560   1.128   5.758   1.982 -1.0994 -2.0508 -2.5218
 1882SOL     OW 9561   4.377   5.749   5.471  0.5614  0.3823  0.3946
 1882SOL    HW1 9562   4.339   5.693   5.404 -0.7880  1.2072  0.4436
 1882SOL    HW2 9563   4.452   5.699   5.504 -0.0452 -0.9785 -0.2092
 1883SOL     OW 9564   8.823   0.916   6.293  0.6831  0.6974  0.0685
 1883SOL    HW1 9565   8.753   0.851   6.300  0.3897  0.9579 -0.4286
 1883SOL    HW2 9566   8.812   0.955   6.207  1.0824  1.1559  0.2172
 1884SOL     OW 9567   2.569   8.188   0.098 -0.1523 -0.4096 -0.1972
 1884SOL    HW1 9568   2.619   8.269   0.101 -0.8557  0.0239  0.3643
 1884SOL    HW2 9569   2.544   8.172   0.189 -1.8004 -0.1076 -0.5576
 1885SOL     OW 9570   4.806   8.588   5.155 -0.6901 -0.8128  0.3499
 1885SOL    HW1 9571   4.719   8.570   5.191 -0.9669 -3.2176 -1.2652
 1885SOL    HW2 9572   4.810   8.536   5.075  2.0813 -0.4525  0.1555
 1886SOL     OW 9573   2.837   7.441   7.610  0.3924  0.2833 -0.1381
 1886SOL    HW1 9574   2.922   7.428   7.567  0.4027  3.1542 -1.2199
 1886SOL    HW2 9575   2.857   7.497   7.685 -0.4306  0.1959  0.1534
 1887SOL     OW 9576   2.228   2.079   7.089  0.0487 -0.0324 -0.2456
 1887SOL    HW1 9577   2.174   2.137   7.035 -0.8075  0.3171  0.9487
 1887SOL    HW2 9578   2.226   1.995   7.045 -0.9230  0.1605 -0.5750
 1888SOL     OW 9579   3.685   9.530   7.646 -0.0766 -0.6954 -0.1198
 1888SOL    HW1 9580   3.726   9.466   7.587  1.2978  0.2241 -0.2113
 1888SOL    HW2 9581   3.667   9.480   7.725  1.3556 -1.1382 -0.0400
 1889SOL     OW 9582   0.189   6.958   1.066 -0.5105  0.3823 -0.0434
 1889SOL    HW1 9583   0.164   6.939   0.976 -2.2881 -0.3218  0.5577
 1889SOL    HW2 9584   0.106   6.970   1.112  0.3074 -0.4340  1.7314
 1890SOL     OW 9585   8.494   4.611   1.526 -0.1083 -0.5693 -0.4830
 1890SOL    HW1 9586   8.409   4.610   1.569 -0.3428 -0.8387 -0.9441
 1890SOL    HW2 9587   8.507   4.702   1.499  0.3822 -0.2417  0.8087
 1891SOL     OW 9588   4.749   1.094   3.814 -0.0211 -0.3614  0.5296
 1891SOL    HW1 9589   4.683   1.149   3.771  0.7595  0.6598  0.5665
 1891SOL    HW2 9590   4.807   1.157   3.858 -0.0035 -1.3202  1.9228
 1892SOL     OW 9591   6.182   1.755   3.329 -0.2690 -0.3897 -0.0113
 1892SOL    HW1 9592   6.171   1.836   3.280  0.8484  0.5148  1.1589
 1892SOL    HW2 9593   6.268   1.722   3.302  0.4324  0.2030  1.3871
 1893SOL     OW 9594   9.087   4.971   3.676 -0.4535 -0.9698 -0.4312
 1893SOL    HW1 9595   9.183   4.980   3.672 -0.3556  0.7842  2.5349
 1893SOL    HW2 9596   9.055   5.029   3.607  0.5966 -1.3369 -1.2659
 1894SOL     OW 9597   8.365   1.198   0.297 -0.0495 -0.2578 -0.2045
 1894SOL    HW1 9598   8.407   1.267   0.348  1.1139 -0.2930 -1.0605
 1894SOL    HW2 9599   8.301   1.244   0.243  0.5123  0.1365 -0.5519
 1895SOL     OW 9600   0.891   4.630   4.026  0.3087  0.1116  0.2336
 1895SOL    HW1 9601   0.947   4.592   4.094  0.3129  0.3643  0.3740
 1895SOL    HW2 9602   0.804   4.593   4.042  0.0791  0.9589  1.0187
 1896SOL     OW 9603   5.024   4.592   3.032 -0.1276 -0.2298 -0.3104
 1896SOL    HW1 9604   5.084   4.624   3.100 -0.2488  0.4421 -0.5136
 1896SOL    HW2 9605   4.991   4.509   3.067 -0.6310  0.3766  0.7192
 1897SOL     OW 9606   1.392   9.492   2.669 -0.2160 -0.0605  0.3376
 1897SOL    HW1 9607   1.358   9.402   2.676  1.5222 -0.6631  2.1640
 1897SOL    HW2 9608   1.375   9.517   2.579  1.6006 -3.2516 -1.0635
 1898SOL     OW 9609   7.936   7.625   2.924 -0.2764  0.0065  0.0484
 1898SOL    HW1 9610   7.998   7.565   2.883  0.4260  2.4534 -2.8587
 1898SOL    HW2 9611   7.948   7.611   3.018  1.6373 -2.5332 -0.4454
 1899SOL     OW 9612   7.321   4.635   2.041  0.3543 -0.7483  0.3858
 1899SOL    HW1 9613   7.343   4.560   2.098  0.2080 -0.4142  0.8910
 1899SOL    HW2 9614   7.226   4.642   2.047  0.2037 -1.4563 -0.8645
 1900SOL     OW 9615   7.714   1.372   6.646 -0.0762 -0.1870 -0.0181
 1900SOL    HW1 9616   7.635   1.427   6.647  0.6222  0.9101 -1.2193
 1900SOL    HW2 9617   7.784   1.432   6.617  0.8055 -1.6179 -0.9671
 1901SOL     OW 9618   9.734   4.850   1.169 -0.0266  0.0510  0.2394
 1901SOL    HW1 9619   9.711   4.758   1.158  1.4101 -0.2283 -0.7076
 1901SOL    HW2 9620   9.650   4.894   1.187 -0.5518 -1.6317  2.3315
 1902SOL     OW 9621   5.928  10.000   1.567  0.2747 -0.1902  0.0613
 1902SOL    HW1 9622   5.900  10.089   1.590  0.8232  0.4269 -1.5895
 1902SOL    HW2 9623   5.985   9.974   1.640  0.1761  0.8281  0.5272
 1903SOL     OW 9624   5.154   5.666   7.362  0.2195 -0.1107  0.0484
 1903SOL    HW1 9625   5.139   5.579   7.325  0.8049 -1.3437  2.4974
 1903SOL    HW2 9626   5.231   5.698   7.317 -0.8565 -0.1913 -1.9356
 1904SOL     OW 9627   3.756   6.893   9.786 -0.1019 -0.2189 -0.0963
 1904SOL    HW1 9628   3.776   6.966   9.727 -0.2913  0.7934  1.0403
 1904SOL    HW2 9629   3.662   6.901   9.803  0.1494  0.2105  1.2041
 1905SOL     OW 9630   0.068   4.183   3.021  0.1355  0.3487 -0.0657
 1905SOL    HW1 9631   0.062   4.247   2.951  0.6666  0.2511 -0.2091
 1905SOL    HW2 9632   0.115   4.228   3.091  2.2285 -0.4497 -0.8792
 1906SOL     OW 9633   3.278   8.990   6.154 -0.1875 -0.4318  0.0467
 1906SOL    HW1 9634   3.235   8.943   6.083  0.3376 -1.0258  0.1163
 1906SOL    HW2 9635   3.358   8.940   6.172  0.8173  0.9458 -0.4494
 1907SOL     OW 9636   4.503   0.838   4.183 -0.0367 -0.0092  0.0278
 1907SOL    HW1 9637   4.569   0.849   4.251  0.5869 -2.9301  0.0011
 1907SOL    HW2 9638   4.524   0.905   4.117  2.0108  0.0425  0.6859
 1908SOL     OW 9639   2.655   3.593   0.126 -0.2235  0.1781 -0.1849
 1908SOL    HW1 9640   2.565   3.623   0.131  0.1164  1.3030 -0.5137
 1908SOL    HW2 9641   2.698   3.635   0.201 -0.0037 -0.4904  0.0707
 1909SOL     OW 9642   6.462   5.457   7.167  0.9689 -0.2759 -0.3026
 1909SOL    HW1 9643   6.417   5.404   7.101  1.0865 -0.2523 -0.4012
 1909SOL    HW2 9644   6.555   5.446   7.148  0.9764  0.9219 -1.0762
 1910SOL     OW 9645   2.646   8.506   3.643  0.0828 -0.1465  0.2248
 1910SOL    HW1 9646   2.627   8.559   3.566  0.1959 -1.4602 -0.7381
 1910SOL    HW2 9647   2.586   8.539   3.710  1.1873  2.1821  0.1463
 1911SOL     OW 9648   3.731   7.984   8.719  0.0593 -0.0733  0.1892
 1911SOL    HW1 9649   3.711   7.891   8.711  1.0984 -0.3840  0.8857
 1911SOL    HW2 9650   3.753   8.012   8.630  1.5648 -0.9714  0.2359
 1912SOL     OW 9651   6.367   3.600   5.953 -0.1109  0.2890 -0.4328
 1912SOL    HW1 9652   6.418   3.552   6.019  0.6398  0.6687 -0.7279
 1912SOL    HW2 9653   6.415   3.587   5.871 -0.6586  0.4024 -0.7779
 1913SOL     OW 9654   1.912   2.443   4.692 -0.2320  0.3223 -0.2486
 1913SOL    HW1 9655   1.878   2.494   4.618  0.2868  1.3866  0.2129
 1913SOL    HW2 9656   1.990   2.400   4.657  1.0055  2.1784  0.0690
 1914SOL     OW 9657   9.883  10.099   9.253 -0.0186 -0.7872 -0.3159
 1914SOL    HW1 9658   9.826  10.158   9.303  2.2257  1.2963  0.0002
 1914SOL    HW2 9659   9.853  10.108   9.162 -0.4797 -0.0483 -0.0989
 1915SOL     OW 9660   7.145   7.641   0.785 -0.3335  0.3029  0.2770
 1915SOL    HW1 9661   7.150   7.588   0.865  1.6360 -0.3586 -0.2484
 1915SOL    HW2 9662   7.224   7.620   0.736 -1.3080  0.9657 -1.7129
 1916SOL     OW 9663   8.776   7.055   8.173 -0.6277 -0.3322 -0.0554
 1916SOL    HW1 9664   8.836   7.110   8.224 -0.2658 -1.1174  0.3916
 1916SOL    HW2 9665   8.803   7.067   8.082  0.2590 -0.7262  0.1460
 1917SOL     OW 9666   8.537   9.870   3.368 -0.1686  0.1164 -0.0727
 1917SOL    HW1 9667   8.451   9.909   3.381 -0.5365 -0.8037  0.3606
 1917SOL    HW2 9668   8.538   9.845   3.276 -0.3847  0.1027 -0.0730
 1918SOL     OW 9669   0.348   6.676   2.197  0.1652 -0.7399  0.7125
 1918SOL    HW1 9670   0.295   6.684   2.118  0.3870 -0.5463  0.5783
 1918SOL    HW2 9671   0.360   6.767   2.226 -0.8957 -0.8773  1.6328
 1919SOL     OW 9672   8.519   3.750   9.064 -0.1807 -0.0107  0.0791
 1919SOL    HW1 9673   8.510   3.714   9.152  1.3309 -1.3960 -0.2884
 1919SOL    HW2 9674   8.509   3.675   9.006 -1.8974  1.0071 -1.0156
 1920SOL     OW 9675   4.573   8.846   4.092  0.2378 -0.3310 -0.1644
 1920SOL    HW1 9676   4.560   8.864   3.999 -0.6269 -0.2153 -0.0306
 1920SOL    HW2 9677   4.660   8.880   4.111 -0.5561  2.0352 -0.3726
 1921SOL     OW 9678   9.428   8.774   6.681  0.4654 -0.2319  0.0095
 1921SOL    HW1 9679   9.474   8.810   6.605  1.6204 -0.4908  0.5510
 1921SOL    HW2 9680   9.383   8.848   6.720  0.3085  0.0075 -0.6172
 1922SOL     OW 9681   1.961   1.439   6.280 -0.3432  0.3125  0.3783
 1922SOL    HW1 9682   1.934   1.514   6.227  1.0358  0.8326  0.3512
 1922SOL    HW2 9683   2.021   1.476   6.345  1.3570 -0.8987 -0.4060
 1923SOL     OW 9684   6.018   4.114   4.836 -0.6866  0.0255 -0.1622
 1923SOL    HW1 9685   6.084   4.083   4.774 -0.3104  0.3189  0.0878
 1923SOL    HW2 9686   6.016   4.209   4.825 -0.3084  0.1274  0.5675
 1924SOL     OW 9687   8.128   4.350   0.787 -0.4900 -0.2305  0.2504
 1924SOL    HW1 9688   8.058   4.396   0.742 -1.0370  1.0681  2.3021
 1924SOL    HW2 9689   8.085   4.274   0.826 -0.4732 -0.1729  0.3818
 1925SOL     OW 9690   1.996   6.693   1.182 -0.4496 -0.9225 -0.0552
 1925SOL    HW1 9691   2.072   6.639   1.158  0.0808  0.1154 -0.7987
 1925SOL    HW2 9692   1.964   6.726   1.098  0.3594  1.3682  0.4644
 1926SOL     OW 9693   7.436   3.519   9.224  0.0810  0.4271  0.1159
 1926SOL    HW1 9694   7.511   3.478   9.267 -0.0117  0.2745  0.1351
 1926SOL    HW2 9695   7.418   3.461   9.149 -0.6095 -0.0642  0.6519
 1927SOL     OW 9696   7.204   7.556  10.021 -0.2396 -0.1865 -0.2740
 1927SOL    HW1 9697   7.178   7.536  10.111 -1.0485  1.1632 -0.1864
 1927SOL    HW2 9698   7.131   7.525   9.967 -0.6042  0.6788 -0.2957
 1928SOL     OW 9699   7.395   1.588   3.169  0.5587 -0.5799 -0.0364
 1928SOL    HW1 9700   7.443   1.623   3.244  0.7903  0.9725 -0.8754
 1928SOL    HW2 9701   7.449   1.515   3.139  0.9627 -0.6041  0.7166
 1929SOL     OW 9702   5.586   1.647   9.173 -0.2023 -0.1448 -0.5009
 1929SOL    HW1 9703   5.606   1.575   9.113 -0.3622 -1.1086  0.5597
 1929SOL    HW2 9704   5.533   1.606   9.242  0.7483  0.7279  0.7768
 1930SOL     OW 9705   7.318   0.674   9.790  0.1095  0.4192 -0.2120
 1930SOL    HW1 9706   7.408   0.699   9.768  0.0707 -0.5269 -1.5773
 1930SOL    HW2 9707   7.328   0.600   9.850  0.3083 -1.0988 -2.0322
 1931SOL     OW 9708   7.634   9.597   9.355 -0.4209  0.6337  0.7200
 1931SOL    HW1 9709   7.711   9.623   9.304 -0.0179  0.9223  1.4549
 1931SOL    HW2 9710   7.581   9.546   9.294  0.0328  0.9904  0.0047
 1932SOL     OW 9711   0.341   3.757   6.770  0.4288 -0.0372 -0.1788
 1932SOL    HW1 9712   0.297   3.705   6.703  0.5837  0.3695 -0.6020
 1932SOL    HW2 9713   0.421   3.788   6.728  1.7464 -1.7147  0.9167
 1933SOL     OW 9714   6.764   9.547   0.369 -0.6952  0.2458 -0.0009
 1933SOL    HW1 9715   6.744   9.597   0.448  0.5381 -1.5965  1.6000
 1933SOL    HW2 9716   6.769   9.456   0.399 -1.6546 -0.7391 -2.5236
 1934SOL     OW 9717   5.609   8.892   5.480 -0.5989 -0.1486  0.0283
 1934SOL    HW1 9718   5.627   8.803   5.512 -0.1382 -0.5999 -1.3979
 1934SOL    HW2 9719   5.624   8.886   5.386 -3.5091  0.7075 -0.5570
 1935SOL     OW 9720   6.624   5.551   3.072  0.0979  0.0462  0.0251
 1935SOL    HW1 9721   6.549   5.593   3.030  0.9669  1.1449 -0.4787
 1935SOL    HW2 9722   6.588   5.508   3.149 -1.0901  0.3033 -0.3715
 1936SOL     OW 9723   3.137   1.960   9.805 -0.1704  0.0579  0.2551
 1936SOL    HW1 9724   3.128   1.864   9.801 -1.3419  0.0747  1.8375
 1936SOL    HW2 9725   3.143   1.980   9.898  1.8876  1.4194 -0.0898
 1937SOL     OW 9726   8.707   3.518   5.519  0.3714 -0.5447 -0.0156
 1937SOL    HW1 9727   8.768   3.590   5.503  1.6353 -1.5499  0.0895
 1937SOL    HW2 9728   8.664   3.504   5.435  0.0446  0.3644 -0.0181
 1938SOL     OW 9729   0.687   9.722   9.130 -0.3383 -0.2743 -0.2951
 1938SOL    HW1 9730   0.749   9.779   9.175 -0.8016  0.1822 -0.2309
 1938SOL    HW2 9731   0.721   9.634   9.145  0.6958  0.0135 -0.8875
 1939SOL     OW 9732   5.394   7.381   9.929  0.2972  0.0673 -0.5144
 1939SOL    HW1 9733   5.403   7.290   9.899  1.8479 -0.2033  0.6743
 1939SOL    HW2 9734   5.481   7.405   9.960 -0.9327  0.6218  2.8994
 1940SOL     OW 9735   1.776   9.480   2.191  0.2485 -0.5844  0.6698
 1940SOL    HW1 9736   1.857   9.514   2.152  1.7330 -4.4072 -0.0350
 1940SOL    HW2 9737   1.710   9.546   2.169  2.3748  0.7951 -2.3323
 1941SOL     OW 9738   1.215  10.065   7.586  0.8988  1.0159  0.5980
 1941SOL    HW1 9739   1.248  10.137   7.534 -0.2792  1.0985 -0.0672
 1941SOL    HW2 9740   1.293  10.016   7.611  1.5182  1.0616 -1.1063
 1942SOL     OW 9741   9.079   4.020   0.713 -0.4387  0.1062  0.1611
 1942SOL    HW1 9742   9.169   3.986   0.713 -0.6287 -0.4344 -0.5964
 1942SOL    HW2 9743   9.072   4.071   0.794  0.7600  0.7264 -0.1111
 1943SOL     OW 9744   3.812   6.148   2.487  0.6162  0.3260  0.0862
 1943SOL    HW1 9745   3.864   6.223   2.457  0.1205 -0.0664 -1.9057
 1943SOL    HW2 9746   3.814   6.086   2.414  0.1107 -1.1484  1.2624
 1944SOL     OW 9747   2.740   7.201  10.129 -0.2125  0.1634  0.6893
 1944SOL    HW1 9748   2.821   7.169  10.089  0.0537  0.5834  0.8786
 1944SOL    HW2 9749   2.673   7.139  10.103  0.2352 -0.3633  0.7857
 1945SOL     OW 9750   5.272   8.721   9.561 -0.2499  0.1052  0.7143
 1945SOL    HW1 9751   5.278   8.668   9.641  0.0393 -0.9868 -0.0181
 1945SOL    HW2 9752   5.343   8.785   9.570 -1.6489  1.5686  2.4097
 1946SOL     OW 9753   3.803   7.738   6.062 -0.3065  0.4185  0.1164
 1946SOL    HW1 9754   3.746   7.735   5.986 -0.5668 -1.2756  0.3260
 1946SOL    HW2 9755   3.880   7.688   6.035 -0.7019 -0.8074  1.1690
 1947SOL     OW 9756   6.535   3.895   4.314 -0.0462  1.1491 -0.2113
 1947SOL    HW1 9757   6.521   3.803   4.296 -2.4730  1.7855 -2.1424
 1947SOL    HW2 9758   6.616   3.898   4.366  0.9425 -1.8752 -1.3894
 1948SOL     OW 9759   0.096   0.671   7.504  0.3783 -0.0327 -0.2421
 1948SOL    HW1 9760   0.003   0.648   7.503 -0.0224  1.2811  1.3740
 1948SOL    HW2 9761   0.123   0.666   7.412 -1.1242 -1.0160 -0.6691
 1949SOL     OW 9762   4.690   2.391   3.447  0.5942  0.5122  0.0940
 1949SOL    HW1 9763   4.630   2.459   3.416  0.0658 -0.0230 -0.0785
 1949SOL    HW2 9764   4.767   2.439   3.478 -0.9137  1.4385  2.7759
 1950SOL     OW 9765   2.373   9.372   6.531 -0.6801  0.2038 -0.0728
 1950SOL    HW1 9766   2.326   9.330   6.459 -0.4488 -0.8311  0.3523
 1950SOL    HW2 9767   2.314   9.440   6.563  0.1318  2.3509 -2.7454
 1951SOL     OW 9768   0.816   8.957   7.257 -0.8577 -0.9382 -0.0147
 1951SOL    HW1 9769   0.820   8.867   7.289 -5.4863 -1.4100 -0.0223
 1951SOL    HW2 9770   0.838   8.951   7.164 -1.6653 -2.1937 -0.1463
 1952SOL     OW 9771   1.026   9.514   8.773  0.3998 -0.2353 -0.8734
 1952SOL    HW1 9772   0.944   9.558   8.751  0.7737  0.9164 -0.0444
 1952SOL    HW2 9773   1.074   9.509   8.691  0.0256  0.2250 -1.1219
 1953SOL     OW 9774   0.161   7.818   2.018  0.0930 -0.7360  0.0277
 1953SOL    HW1 9775   0.251   7.786   2.026  0.4589 -0.2359 -1.5494
 1953SOL    HW2 9776   0.106   7.740   2.024  0.6419 -1.0551  0.9151
 1954SOL     OW 9777   2.478   2.785   6.743 -0.0085 -0.4833 -0.2519
 1954SOL    HW1 9778   2.525   2.710   6.780  0.0335  0.5652  2.0327
 1954SOL    HW2 9779   2.385   2.761   6.751 -0.0221 -0.0759  1.1125
 1955SOL     OW 9780   9.223   1.328   7.061  0.0067  0.2084  0.0479
 1955SOL    HW1 9781   9.134   1.315   7.094  0.5815  0.6991  1.9188
 1955SOL    HW2 9782   9.235   1.422   7.061  0.3714  0.1676 -0.6734
 1956SOL     OW 9783   5.498   8.172   2.296 -0.5654 -0.7656 -0.2342
 1956SOL    HW1 9784   5.448   8.212   2.366  0.0743 -0.6541  0.1652
 1956SOL    HW2 9785   5.543   8.098   2.337 -0.2531 -0.7503 -0.5382
 1957SOL     OW 9786   3.384   3.305   8.824  0.2788  0.0557  0.3176
 1957SOL    HW1 9787   3.416   3.216   8.840  0.1168  0.1997  1.4948
 1957SOL    HW2 9788   3.289   3.297   8.833  0.2598  0.3394  0.3565
 1958SOL     OW 9789   3.217   1.665   2.883 -0.3352  0.0060  0.2810
 1958SOL    HW1 9790   3.125   1.687   2.895 -0.3710  0.1549 -0.2210
 1958SOL    HW2 9791   3.215   1.582   2.835 -0.2171  0.3454 -0.3218
 1959SOL     OW 9792   1.145   9.160   0.889 -0.4514  0.3627  0.5310
 1959SOL    HW1 9793   1.222   9.200   0.850  1.4166 -1.9706  1.5260
 1959SOL    HW2 9794   1.108   9.106   0.820  0.0912 -0.1417  0.6232
 1960SOL     OW 9795   6.908   3.355   2.781  0.1526 -0.3540  0.0756
 1960SOL    HW1 9796   6.938   3.405   2.705  0.0229  0.0331  0.2758
 1960SOL    HW2 9797   6.982   3.297   2.802  0.8672  0.7611  0.7124
 1961SOL     OW 9798   9.508   8.728   7.749 -0.2871  0.4256  0.0056
 1961SOL    HW1 9799   9.499   8.774   7.832 -1.2789 -1.3620  0.9558
 1961SOL    HW2 9800   9.436   8.665   7.748  1.9839 -2.4209 -0.3161
 1962SOL     OW 9801   9.494   1.750   5.253 -0.9263 -0.0557 -0.6344
 1962SOL    HW1 9802   9.432   1.681   5.229 -1.8993  0.1041  1.2636
 1962SOL    HW2 9803   9.486   1.759   5.348 -0.0131  1.9050 -0.6759
 1963SOL     OW 9804   1.471   9.980   3.723 -0.1408 -0.2299  0.1049
 1963SOL    HW1 9805   1.399   9.931   3.684 -1.0684  0.4582  0.8834
 1963SOL    HW2 9806   1.435  10.012   3.806  0.4489  1.6632 -0.3305
 1964SOL     OW 9807   6.589   1.115   0.328  0.1020  0.3543 -0.0497
 1964SOL    HW1 9808   6.616   1.175   0.258 -1.2411  0.3747 -0.5797
 1964SOL    HW2 9809   6.590   1.169   0.407  0.8922  0.5338 -0.1720
 1965SOL     OW 9810   7.964   9.663   2.416  0.0974 -0.4011 -0.0271
 1965SOL    HW1 9811   8.012   9.580   2.416  0.4118 -0.2239 -0.1866
 1965SOL    HW2 9812   7.891   9.649   2.356  1.0101 -0.0942 -1.2657
 1966SOL     OW 9813   6.541   6.293   6.950 -0.3916  0.3775 -0.0914
 1966SOL    HW1 9814   6.572   6.297   7.040 -1.0781 -0.7538  0.2128
 1966SOL    HW2 9815   6.487   6.371   6.939 -1.1171  0.0234  0.8029
 1967SOL     OW 9816   3.146   7.122   2.661  0.0662 -0.1115 -0.5694
 1967SOL    HW1 9817   3.124   7.063   2.590 -1.8601  0.4795 -0.5288
 1967SOL    HW2 9818   3.137   7.070   2.740  0.1018 -0.2178 -0.6358
 1968SOL     OW 9819   1.811   6.744   2.269 -0.3646 -0.0896 -0.5113
 1968SOL    HW1 9820   1.752   6.783   2.205 -0.5157 -0.4266 -0.5800
 1968SOL    HW2 9821   1.885   6.805   2.274 -1.0595  0.7191  0.1245
 1969SOL     OW 9822   8.751   0.237   2.504 -0.2713 -0.0259  1.0292
 1969SOL    HW1 9823   8.712   0.289   2.574 -1.3786  0.5598  0.0178
 1969SOL    HW2 9824   8.697   0.257   2.427  0.4719 -1.1967  0.1776
 1970SOL     OW 9825   1.466   7.700   9.082 -0.3306 -0.7882 -0.1265
 1970SOL    HW1 9826   1.469   7.626   9.022  0.6312 -1.3312  0.5639
 1970SOL    HW2 9827   1.440   7.774   9.028 -0.3207 -1.4342 -1.0281
 1971SOL     OW 9828   2.833   2.794   8.791  0.0829  0.6318  0.7392
 1971SOL    HW1 9829   2.849   2.844   8.711  0.7502  0.2257  0.6093
 1971SOL    HW2 9830   2.893   2.833   8.855 -2.0397  2.4781  1.7196
 1972SOL     OW 9831   9.021   0.757   3.620  0.2174 -0.1280 -0.4671
 1972SOL    HW1 9832   8.956   0.734   3.687 -0.5192  1.2785 -0.6345
 1972SOL    HW2 9833   8.995   0.846   3.593  0.9718 -0.3614 -2.0476
 1973SOL     OW 9834   6.517   1.237   3.258 -0.2018  0.5106 -0.0522
 1973SOL    HW1 9835   6.507   1.251   3.352 -0.3368  0.5645 -0.0743
 1973SOL    HW2 9836   6.569   1.312   3.229 -0.4946  0.6990 -0.0857
 1974SOL     OW 9837   4.109   7.151   2.550 -0.0714 -0.1485  0.1726
 1974SOL    HW1 9838   4.187   7.197   2.580 -0.1092 -0.9332  1.5614
 1974SOL    HW2 9839   4.081   7.099   2.626 -2.4316  0.7611  0.0331
 1975SOL     OW 9840   4.696   5.532   8.808  0.4004 -0.1676 -0.5167
 1975SOL    HW1 9841   4.605   5.555   8.829  0.3317  0.2966 -1.2925
 1975SOL    HW2 9842   4.688   5.463   8.742  0.6157 -1.4969  0.7889
 1976SOL     OW 9843   0.931   2.581   3.924  0.0363  0.1338 -0.0502
 1976SOL    HW1 9844   0.938   2.643   3.996  0.7401 -0.0798  0.0704
 1976SOL    HW2 9845   1.005   2.600   3.867 -1.5434  1.5512 -1.7433
 1977SOL     OW 9846   1.176   4.528   1.563  0.1666 -0.3371  0.4922
 1977SOL    HW1 9847   1.186   4.511   1.656 -0.2367  0.7038  0.7337
 1977SOL    HW2 9848   1.118   4.604   1.558  1.1588  0.3856 -0.5552
 1978SOL     OW 9849   5.745   3.066   2.338  0.9787  0.0388  0.0488
 1978SOL    HW1 9850   5.704   3.145   2.305 -0.6933 -0.3202  1.1287
 1978SOL    HW2 9851   5.839   3.082   2.330  0.7065  2.4399  0.9468
 1979SOL     OW 9852   7.333   1.778   2.090  0.1191  0.3473 -0.4919
 1979SOL    HW1 9853   7.267   1.708   2.086  1.2768 -0.7680 -0.6105
 1979SOL    HW2 9854   7.414   1.736   2.063  1.5178  0.8993  2.4258
 1980SOL     OW 9855   7.204   8.757   3.655  0.0524  0.1348 -0.0773
 1980SOL    HW1 9856   7.217   8.837   3.604 -3.2923 -0.0195 -1.4039
 1980SOL    HW2 9857   7.162   8.787   3.736  1.1727 -0.0806  0.6080
 1981SOL     OW 9858   4.699   8.767   1.814  0.4126  0.7031  0.0668
 1981SOL    HW1 9859   4.750   8.688   1.798 -1.1995  0.1095 -3.0636
 1981SOL    HW2 9860   4.644   8.746   1.889 -0.3415 -1.4466 -1.0008
 1982SOL     OW 9861   8.065   9.897   1.355 -0.0261 -0.3109  0.3279
 1982SOL    HW1 9862   8.027   9.838   1.420 -0.4688  1.1390  1.4240
 1982SOL    HW2 9863   8.157   9.905   1.381 -0.2571  0.4584  0.9592
 1983SOL     OW 9864  10.025   7.871   8.043 -0.1129  0.2565  0.1250
 1983SOL    HW1 9865  10.002   7.830   8.126 -1.9592 -0.5379 -0.7249
 1983SOL    HW2 9866   9.990   7.960   8.050 -2.0235 -0.4009 -0.4793
 1984SOL     OW 9867   1.072   5.721   2.799  0.2604  0.5470 -0.1794
 1984SOL    HW1 9868   1.093   5.630   2.778  0.9045  1.0855 -2.1218
 1984SOL    HW2 9869   1.153   5.756   2.837  0.4669  0.6488 -0.7012
 1985SOL     OW 9870   2.006   8.495   3.281  0.5469  0.5711 -0.1471
 1985SOL    HW1 9871   2.029   8.586   3.262  0.0551  0.4894 -1.2076
 1985SOL    HW2 9872   2.050   8.476   3.363  2.8558  0.9651 -1.1979
 1986SOL     OW 9873   6.069   8.597   1.707 -0.1801  0.3508 -0.3452
 1986SOL    HW1 9874   6.130   8.658   1.749 -1.9368  1.4973  0.6782
 1986SOL    HW2 9875   6.023   8.650   1.642  0.1348 -0.5903 -1.3759
 1987SOL     OW 9876   8.506   4.490   5.399  0.9257 -0.3459  0.2917
 1987SOL    HW1 9877   8.546   4.577   5.402 -0.4045  0.2931  0.2418
 1987SOL    HW2 9878   8.579   4.430   5.381  1.8195  0.7840  0.0664
 1988SOL     OW 9879   5.480   3.090   0.809  0.4037 -0.1116 -0.2461
 1988SOL    HW1 9880   5.430   3.168   0.786 -1.1387 -0.9615  0.0694
 1988SOL    HW2 9881   5.511   3.106   0.898 -0.4209 -0.0890  0.0446
 1989SOL     OW 9882   0.381   9.421   0.550  0.2102  0.4010  0.1143
 1989SOL    HW1 9883   0.446   9.371   0.599 -1.0092 -0.7452  0.6294
 1989SOL    HW2 9884   0.313   9.443   0.614 -0.2009  1.0713 -0.5236
 1990SOL     OW 9885   8.061   6.826   7.905 -0.8213 -0.2403 -0.0542
 1990SOL    HW1 9886   8.115   6.763   7.952 -1.5998 -0.3567  0.6856
 1990SOL    HW2 9887   8.009   6.774   7.844 -0.7081 -0.2063 -0.1822
 1991SOL     OW 9888   0.537   9.039   7.366 -0.2060 -0.2576 -0.8101
 1991SOL    HW1 9889   0.606   8.994   7.317  2.0354  2.8966 -0.8119
 1991SOL    HW2 9890   0.515   8.978   7.437  0.7604 -2.3965 -2.2412
 1992SOL     OW 9891   1.298   5.809   8.050  0.5777  0.0676 -0.4178
 1992SOL    HW1 9892   1.257   5.861   8.119 -0.6026 -1.9932  0.5243
 1992SOL    HW2 9893   1.352   5.871   8.002 -0.2275  1.9971  1.0507
 1993SOL     OW 9894   8.021   3.853   6.696 -0.2098  0.0932  0.2647
 1993SOL    HW1 9895   8.099   3.901   6.666 -0.3954 -0.0247 -0.4239
 1993SOL    HW2 9896   7.985   3.908   6.766  0.0117  0.5736  0.0067
 1994SOL     OW 9897   9.374   0.120   9.760  0.0564  0.5146 -0.0559
 1994SOL    HW1 9898   9.329   0.046   9.801  0.5316  1.1814  1.7641
 1994SOL    HW2 9899   9.344   0.119   9.669 -0.9253 -1.1317  0.2431
 1995SOL     OW 9900   4.103   9.852   9.917 -0.1733  0.3489  0.3996
 1995SOL    HW1 9901   4.087   9.907   9.994 -1.8471  1.9534 -0.9905
 1995SOL    HW2 9902   4.020   9.806   9.904  0.2320 -0.2215 -0.2277
 1996SOL     OW 9903   1.818   6.382   1.493 -0.6042  0.4944  0.0402
 1996SOL    HW1 9904   1.819   6.292   1.523 -1.4128  0.5703  0.3046
 1996SOL    HW2 9905   1.754   6.426   1.549  0.2313  1.3797  0.3340
 1997SOL     OW 9906   9.551   2.385   4.799  0.1909  0.7364  0.1586
 1997SOL    HW1 9907   9.555   2.298   4.840  1.3324  0.2263 -0.9462
 1997SOL    HW2 9908   9.482   2.377   4.733  0.0071  0.8124  0.3389
 1998SOL     OW 9909   9.331   1.024   4.177 -0.8965  0.1462 -0.3787
 1998SOL    HW1 9910   9.316   0.958   4.109 -1.5754 -0.3147  0.2087
 1998SOL    HW2 9911   9.421   1.054   4.162 -0.3752 -1.3337 -0.2788
 1999SOL     OW 9912   5.385   3.776   9.813  0.5701  0.6717  0.6335
 1999SOL    HW1 9913   5.343   3.716   9.875  2.1529  0.2064  1.3077
 1999SOL    HW2 9914   5.314   3.804   9.755 -0.7623  0.3700  2.0596
 2000SOL     OW 9915   1.991   8.332   0.548  0.4326 -0.4266  0.1872
 2000SOL    HW1 9916   1.944   8.359   0.626  0.9375 -2.9931  1.5040
 2000SOL    HW2 9917   2.026   8.413   0.511 -0.8983  0.9974  1.8809
 2001SOL     OW 9918  10.013   6.478   3.644  0.0205 -0.5693 -0.4027
 2001SOL    HW1 9919  10.046   6.550   3.591 -1.2771  0.2569 -0.1075
 2001SOL    HW2 9920   9.953   6.518   3.706  0.5782 -1.6785  0.9112
 2002SOL     OW 9921   1.681   6.314   0.614 -0.4226  0.2936  0.2565
 2002SOL    HW1 9922   1.600   6.362   0.597  0.1737  1.0928 -0.3966
 2002SOL    HW2 9923   1.706   6.342   0.702 -0.7932  0.1315  0.4158
 2003SOL     OW 9924   3.371   2.302   7.515  0.1050 -0.0358 -0.2088
 2003SOL    HW1 9925   3.466   2.295   7.504  0.1512 -1.7605  0.9502
 2003SOL    HW2 9926   3.335   2.258   7.439  0.2367  0.1106 -0.3577
 2004SOL     OW 9927   8.103   1.995   4.105 -0.4916 -0.1289 -0.0556
 2004SOL    HW1 9928   8.164   1.970   4.036  0.6593 -0.4021  1.0258
 2004SOL    HW2 9929   8.033   1.929   4.100 -1.1753  0.6524 -1.8254
 2005SOL     OW 9930   8.814   5.159   2.695 -0.2363  0.1867  0.3602
 2005SOL    HW1 9931   8.767   5.165   2.778  0.2594  0.4856  0.6238
 2005SOL    HW2 9932   8.907   5.162   2.719 -0.0741 -0.5290 -0.1439
 2006SOL     OW 9933   7.847   1.691   7.397  0.3157  0.4289  0.4861
 2006SOL    HW1 9934   7.779   1.715   7.461  0.3716  0.5912  0.4853
 2006SOL    HW2 9935   7.907   1.635   7.446  1.0005  1.4957  0.9170
 2007SOL     OW 9936   1.500   1.317   9.124  0.6017  0.0557  0.2594
 2007SOL    HW1 9937   1.432   1.292   9.062 -1.0128  2.3553  0.9723
 2007SOL    HW2 9938   1.503   1.413   9.119  1.9538  0.1713  2.1681
 2008SOL     OW 9939   4.388   6.867   3.579 -0.5412 -0.3350  0.6024
 2008SOL    HW1 9940   4.321   6.926   3.612 -0.9002 -0.8828  0.8680
 2008SOL    HW2 9941   4.430   6.915   3.508  1.0088  1.3436  2.5275
 2009SOL     OW 9942   6.420   7.565   6.947  0.2851 -0.3043  0.1489
 2009SOL    HW1 9943   6.385   7.512   6.874 -1.6729 -0.7815  1.3643
 2009SOL    HW2 9944   6.512   7.541   6.950  0.0021 -1.7517 -0.9655
 2010SOL     OW 9945   7.442   2.234   6.717 -0.0668 -0.3981 -0.3248
 2010SOL    HW1 9946   7.479   2.320   6.694  1.6113 -1.3253 -1.3601
 2010SOL    HW2 9947   7.504   2.198   6.780 -2.1000  0.1205  2.1196
 2011SOL     OW 9948   8.893   9.308   7.736  0.0527 -0.3581  0.0961
 2011SOL    HW1 9949   8.835   9.241   7.771  1.5524 -0.5766  2.4187
 2011SOL    HW2 9950   8.938   9.265   7.663 -2.8795 -0.0323 -2.0616
 2012SOL     OW 9951   1.162   4.038   8.764 -0.0881 -0.4384  0.9571
 2012SOL    HW1 9952   1.074   4.075   8.757 -0.1122 -0.5972  0.4286
 2012SOL    HW2 9953   1.211   4.078   8.692 -0.2761 -1.8840 -0.0088
 2013SOL     OW 9954   3.991   8.596   2.769 -0.6341  0.8237  0.1342
 2013SOL    HW1 9955   4.035   8.526   2.818 -0.8668 -0.1089 -0.9642
 2013SOL    HW2 9956   4.042   8.675   2.790 -0.5460  0.4040  1.6211
 2014SOL     OW 9957   2.035   8.395   5.083 -0.4601  0.3478  0.0384
 2014SOL    HW1 9958   2.040   8.474   5.029  1.0779  1.5747  1.8302
 2014SOL    HW2 9959   2.073   8.326   5.028 -0.4153  1.1869 -1.0154
 2015SOL     OW 9960   9.175   5.416   1.430  0.2276 -0.2252  0.7203
 2015SOL    HW1 9961   9.258   5.408   1.384  0.6056 -1.2780  1.5648
 2015SOL    HW2 9962   9.127   5.483   1.380  1.1791 -0.3059 -0.3506
 2016SOL     OW 9963   4.886   4.071   3.309 -0.5941 -0.4529 -0.2255
 2016SOL    HW1 9964   4.913   3.981   3.329 -0.6477 -0.4861 -0.3025
 2016SOL    HW2 9965   4.912   4.121   3.387 -0.9602 -0.6147  0.0065
 2017SOL     OW 9966   3.733   8.698   6.225 -0.3696  0.0956  0.1762
 2017SOL    HW1 9967   3.760   8.609   6.204 -0.0218  0.0252  0.8763
 2017SOL    HW2 9968   3.803   8.731   6.282 -2.5172 -0.7469  3.6303
 2018SOL     OW 9969   1.670   5.517   4.518  0.0047 -0.3417  0.5338
 2018SOL    HW1 9970   1.686   5.451   4.586 -0.5498 -1.8896 -0.7790
 2018SOL    HW2 9971   1.596   5.567   4.550  1.8342  1.2307  2.6312
 2019SOL     OW 9972   9.191   2.665  10.055  0.3390 -0.2955 -0.2383
 2019SOL    HW1 9973   9.097   2.650  10.051  0.2397  0.1641  0.3502
 2019SOL    HW2 9974   9.204   2.722  10.130  1.0581 -0.0993 -0.4995
 2020SOL     OW 9975   8.001   9.093   7.277  0.3315 -0.0819 -0.3249
 2020SOL    HW1 9976   7.921   9.041   7.282  0.5388 -0.4458 -0.7468
 2020SOL    HW2 9977   7.978   9.165   7.218  0.4509 -0.4431 -0.8199
 2021SOL     OW 9978  10.128   4.340   1.040 -0.2558  0.2664  0.1379
 2021SOL    HW1 9979  10.113   4.308   1.128  0.1863  0.9410  0.4651
 2021SOL    HW2 9980  10.206   4.395   1.047  0.0558 -0.0400 -0.7612
 2022SOL     OW 9981   6.427   5.226   7.323  0.1423  0.1453  0.4355
 2022SOL    HW1 9982   6.516   5.232   7.356  0.2473 -0.4813  0.2751
 2022SOL    HW2 9983   6.429   5.275   7.241  0.5920 -0.6734 -0.0612
 2023SOL     OW 9984   9.886   5.289   8.862  0.2912 -0.0994  0.0915
 2023SOL    HW1 9985   9.924   5.231   8.928 -0.8337 -0.0872  0.7883
 2023SOL    HW2 9986   9.891   5.241   8.780  2.2011  0.0933  0.0556
 2024SOL     OW 9987   6.889   7.024  10.010  0.1112  0.3106 -0.3226
 2024SOL    HW1 9988   6.825   7.018   9.939  0.7191  2.9417 -1.2236
 2024SOL    HW2 9989   6.845   7.075  10.078 -0.3499 -1.9204  1.1222
 2025SOL     OW 9990   7.969   5.812   9.954 -0.2236  0.4155 -0.2276
 2025SOL    HW1 9991   7.968   5.723   9.989 -3.4875 -0.3767 -1.9295
 2025SOL    HW2 9992   8.023   5.806   9.875 -0.6740 -0.1340 -0.4975
 2026SOL     OW 9993   9.689   1.847   1.403  0.4509  0.3951  0.2264
 2026SOL    HW1 9994   9.712   1.892   1.485  1.0369  1.7850 -0.6799
 2026SOL    HW2 9995   9.597   1.870   1.388  0.8559  1.6766 -0.4391
 2027SOL     OW 9996   8.039   2.390   5.679  0.1784  0.1460 -0.1307
 2027SOL    HW1 9997   7.963   2.417   5.731  0.6296 -1.8071  1.6632
 2027SOL    HW2 9998   8.012   2.308   5.637  1.0184 -0.1531 -0.1137
 2028SOL     OW 9999   1.012   2.695   5.926  0.1264 -0.2604  0.0539
 2028SOL    HW110000   1.017   2.609   5.885  0.5426 -0.4290  0.4563
 2028SOL    HW210001   0.918   2.713   5.933  0.0484 -0.4880 -0.4313
 2029SOL     OW10002   0.849   6.036   6.698  0.0594  0.0662 -0.0669
 2029SOL    HW110003   0.868   5.942   6.697  1.1115  0.0345 -5.2296
 2029SOL    HW210004   0.936   6.078   6.698 -0.3899  1.0450  1.0493
 2030SOL     OW10005   9.563   0.202   8.539  0.5588  0.0677 -0.6168
 2030SOL    HW110006   9.626   0.174   8.606  0.6505  0.5497 -0.4939
 2030SOL    HW210007   9.511   0.269   8.583  0.2728  0.0136 -0.8707
 2031SOL     OW10008   7.700   6.464   0.687 -0.7392  0.7730  0.5125
 2031SOL    HW110009   7.708   6.440   0.780 -2.9514 -0.2737  0.4903
 2031SOL    HW210010   7.609   6.444   0.665 -0.3061  1.1734 -1.8529
 2032SOL     OW10011   7.350   1.837   1.336 -0.1453  0.3164 -0.4324
 2032SOL    HW110012   7.266   1.796   1.315 -0.4568  0.4638  0.4913
 2032SOL    HW210013   7.371   1.890   1.259 -0.5654 -0.2473 -0.9436
 2033SOL     OW10014   2.390   4.166   2.555  0.0246 -0.0501 -0.5387
 2033SOL    HW110015   2.337   4.118   2.492  0.2655 -0.4709 -0.4257
 2033SOL    HW210016   2.414   4.247   2.510  0.0684 -0.2794 -0.9345
 2034SOL     OW10017   9.178  10.076   1.155 -0.2660 -0.1292 -0.1436
 2034SOL    HW110018   9.172  10.061   1.250 -1.7194 -1.1052 -0.3566
 2034SOL    HW210019   9.175   9.989   1.117  1.4475  0.1819 -1.0770
 2035SOL     OW10020   4.440   8.026   9.548  0.6194  0.5593 -0.2481
 2035SOL    HW110021   4.454   7.938   9.582 -1.6423 -1.3119 -3.5747
 2035SOL    HW210022   4.371   8.063   9.603 -0.2686 -0.8137 -0.4082
 2036SOL     OW10023   0.247   4.730   5.759  0.3347  0.1179 -0.2356
 2036SOL    HW110024   0.320   4.738   5.698 -0.1980  0.2018 -0.8731
 2036SOL    HW210025   0.171   4.756   5.708  0.1255  2.1898  1.0492
 2037SOL     OW10026   0.792   5.017   5.268  0.2960  1.0506 -0.2338
 2037SOL    HW110027   0.768   5.069   5.344  0.0250  2.0729 -0.9971
 2037SOL    HW210028   0.887   5.006   5.275  0.0983 -0.1160  1.0036
 2038SOL     OW10029   2.071   2.167   7.325  0.6797  0.1504 -0.2577
 2038SOL    HW110030   2.111   2.253   7.315 -0.1285  0.4544 -1.0393
 2038SOL    HW210031   2.105   2.116   7.251  1.2767 -0.2613  0.2897
 2039SOL     OW10032   3.059   4.532   6.067  0.0543 -0.1052 -0.3295
 2039SOL    HW110033   3.142   4.569   6.039  0.5904  0.7226  2.0966
 2039SOL    HW210034   2.994   4.597   6.044  0.3117  0.0347 -0.6647
 2040SOL     OW10035   4.774   7.339   6.943 -0.0675  0.6638  0.5640
 2040SOL    HW110036   4.817   7.382   7.017  0.3302  0.6908  0.3176
 2040SOL    HW210037   4.825   7.260   6.927 -2.0541 -1.1430  2.4450
 2041SOL     OW10038   8.082   0.902   2.233 -0.0239  0.2523 -0.1729
 2041SOL    HW110039   8.002   0.934   2.274 -1.1650  0.4216 -2.3700
 2041SOL    HW210040   8.069   0.807   2.224  0.0086  0.2783 -0.5307
 2042SOL     OW10041   0.734   5.820   5.475  0.3620  0.1172  0.2062
 2042SOL    HW110042   0.689   5.768   5.409 -1.2424  1.7972 -0.0992
 2042SOL    HW210043   0.819   5.841   5.436 -0.3709  0.6744 -1.1340
 2043SOL     OW10044   2.569   0.666   4.671  0.3094  0.2874 -0.2245
 2043SOL    HW110045   2.546   0.701   4.757  1.5938 -2.0712  1.1832
 2043SOL    HW210046   2.566   0.742   4.613 -0.7039  1.9433  1.8601
 2044SOL     OW10047   1.549   9.934   8.937  0.4228  0.3736 -0.5353
 2044SOL    HW110048   1.624   9.897   8.983 -0.2669 -0.7567 -0.2835
 2044SOL    HW210049   1.540   9.881   8.858  0.7351  1.3997 -1.2859
 2045SOL     OW10050   6.436   1.095   1.054 -0.2407 -0.0883  0.1492
 2045SOL    HW110051   6.515   1.048   1.026 -1.2338 -1.4280 -0.5110
 2045SOL    HW210052   6.370   1.070   0.989 -0.8862  2.0416 -0.0702
 2046SOL     OW10053  10.148   6.903   8.388  0.2192  0.4699 -0.2436
 2046SOL    HW110054  10.153   6.969   8.457 -2.0587  2.4161 -1.7824
 2046SOL    HW210055  10.155   6.820   8.435 -0.7053  1.7078  2.2785
 2047SOL     OW10056   1.294   3.832   3.662 -0.0237  0.2277 -0.2032
 2047SOL    HW110057   1.390   3.840   3.655  0.1150  0.3286  1.3344
 2047SOL    HW210058   1.276   3.740   3.646  0.1078  0.5348 -2.3368
 2048SOL     OW10059   7.392   4.671   4.827 -0.1921 -0.1043  0.5684
 2048SOL    HW110060   7.379   4.675   4.922 -2.7476  1.6430  0.2490
 2048SOL    HW210061   7.457   4.739   4.809  0.2961 -0.4333  1.0338
 2049SOL     OW10062   8.013   8.665   1.294 -0.2584 -0.6674  0.4490
 2049SOL    HW110063   8.043   8.678   1.384  0.1817 -4.2088  0.9801
 2049SOL    HW210064   7.992   8.571   1.289  0.0631 -0.7001 -3.2283
 2050SOL     OW10065   0.218   2.829   1.478  0.1953  0.1357  0.3608
 2050SOL    HW110066   0.158   2.899   1.452  0.9729  0.6269 -0.1840
 2050SOL    HW210067   0.186   2.799   1.563  1.2863  2.8879  1.8700
 2051SOL     OW10068   5.984   1.138   0.455  0.0352 -0.3070  0.2837
 2051SOL    HW110069   5.900   1.179   0.434 -0.0972 -1.1205 -0.8837
 2051SOL    HW210070   6.049   1.208   0.441 -0.4112  0.2537  0.9594
 2052SOL     OW10071   4.681   7.687   1.015  0.5323  0.1705 -0.1199
 2052SOL    HW110072   4.741   7.635   0.962 -0.5266 -1.4985  0.2169
 2052SOL    HW210073   4.697   7.658   1.105 -1.2888 -0.9697 -0.1003
 2053SOL     OW10074   0.729   0.166   1.056  0.4671  0.4689  0.3805
 2053SOL    HW110075   0.815   0.161   1.013  0.4439  2.2762  0.0375
 2053SOL    HW210076   0.704   0.258   1.047 -1.5903 -0.0554  0.3185
 2054SOL     OW10077   4.979   1.362   8.217 -0.0365  0.0804  0.1405
 2054SOL    HW110078   4.930   1.443   8.223  1.8785  1.2591  0.8664
 2054SOL    HW210079   4.913   1.294   8.202 -1.7874  1.6155  0.6071
 2055SOL     OW10080   9.166   0.396   1.174 -0.1312 -0.2534 -0.4710
 2055SOL    HW110081   9.200   0.382   1.262 -1.1662 -0.8222 -0.1401
 2055SOL    HW210082   9.074   0.421   1.188  0.2876  1.9417 -1.2924
 2056SOL     OW10083   0.313   1.361   9.246 -0.5614 -0.3812  0.0833
 2056SOL    HW110084   0.220   1.357   9.271 -0.6519  0.4792 -0.0663
 2056SOL    HW210085   0.334   1.455   9.248 -0.2812 -0.3447 -1.9801
 2057SOL     OW10086   2.891   8.255   5.171  0.2731 -0.8763  0.3682
 2057SOL    HW110087   2.874   8.322   5.238 -0.1803 -1.9540  1.3619
 2057SOL    HW210088   2.979   8.275   5.139  0.3703 -0.1511  1.0566
 2058SOL     OW10089   3.942   7.958   0.089 -0.3306 -0.0549  0.2983
 2058SOL    HW110090   3.997   7.886   0.122  1.1527 -0.2877 -2.3922
 2058SOL    HW210091   3.866   7.958   0.146 -0.0711 -3.3257  0.8399
 2059SOL     OW10092   3.946   5.683   5.248  0.0654 -0.0558  0.4065
 2059SOL    HW110093   3.979   5.747   5.185  0.4027  0.2856  0.9189
 2059SOL    HW210094   4.011   5.684   5.318 -0.2210 -0.5530  0.6812
 2060SOL     OW10095   9.098   7.129   4.057 -0.2428 -0.2418  0.5846
 2060SOL    HW110096   9.180   7.175   4.036 -1.1835  1.0248 -0.4581
 2060SOL    HW210097   9.089   7.064   3.988 -0.8506  0.6310 -0.1812
 2061SOL     OW10098   9.087   7.946   2.668 -0.5094  0.1369 -0.1816
 2061SOL    HW110099   8.992   7.940   2.660 -0.5724  0.5987  0.2155
 2061SOL    HW210100   9.106   8.039   2.663 -0.1407  0.1009  0.4465
 2062SOL     OW10101   9.684   1.715   0.411  0.7076  0.8380  0.1513
 2062SOL    HW110102   9.700   1.621   0.404 -0.8578  0.6794 -2.7434
 2062SOL    HW210103   9.608   1.722   0.470  0.2462  0.2116 -0.3596
 2063SOL     OW10104   0.666   8.587   4.798 -0.0078 -0.0759  0.3512
 2063SOL    HW110105   0.688   8.523   4.731  1.7576 -0.8964  1.6229
 2063SOL    HW210106   0.750   8.625   4.825 -0.5094 -0.3974  2.6467
 2064SOL     OW10107   0.586   3.745  10.066  0.3827 -0.0013  0.4047
 2064SOL    HW110108   0.601   3.834  10.097  1.0402 -0.1556  0.5314
 2064SOL    HW210109   0.490   3.737  10.064  0.2760  1.2195 -1.0913
 2065SOL     OW10110   7.029   1.255   6.009  0.3063 -0.6378  0.1432
 2065SOL    HW110111   6.939   1.277   5.983 -0.6231 -3.4796  0.6133
 2065SOL    HW210112   7.053   1.182   5.951  2.1039 -0.3157  0.4348
 2066SOL     OW10113   2.552   1.504   9.509 -0.0238 -0.9960  0.0591
 2066SOL    HW110114   2.457   1.502   9.497  0.1709 -1.8726 -1.7019
 2066SOL    HW210115   2.564   1.516   9.603 -1.8573  0.5180  0.1509
 2067SOL     OW10116   9.237   6.022   6.145  0.2119 -0.2688 -0.3549
 2067SOL    HW110117   9.253   6.110   6.111  1.7511 -0.8182 -1.1365
 2067SOL    HW210118   9.144   6.022   6.170 -0.9196  0.4228 -3.9928
 2068SOL     OW10119   8.628   7.371   1.253 -0.2066  0.2599 -0.3565
 2068SOL    HW110120   8.572   7.391   1.178 -1.8063  0.4064  0.8140
 2068SOL    HW210121   8.702   7.430   1.245  0.9626 -1.3775 -3.1091
 2069SOL     OW10122   4.561   5.530   5.978  0.2082 -0.4045  0.0774
 2069SOL    HW110123   4.563   5.609   5.924 -0.4234 -0.1532  0.4203
 2069SOL    HW210124   4.488   5.543   6.038 -0.8312 -1.8521 -0.7839
 2070SOL     OW10125   2.440   0.643   1.086 -0.7254  0.1924 -0.4944
 2070SOL    HW110126   2.474   0.568   1.134 -0.9877  0.7056  0.5195
 2070SOL    HW210127   2.444   0.616   0.994 -0.9703 -1.1288 -0.1461
 2071SOL     OW10128   0.522   1.048   7.339 -0.4721 -0.7304  0.1779
 2071SOL    HW110129   0.503   1.074   7.249 -0.9570 -1.9597 -0.0953
 2071SOL    HW210130   0.599   1.099   7.364  0.3975 -1.2331 -1.3507
 2072SOL     OW10131   3.929   5.794   5.572  0.2579  0.1536 -0.2995
 2072SOL    HW110132   3.937   5.699   5.584  1.2813  0.3244  0.4816
 2072SOL    HW210133   4.006   5.819   5.521  0.0614  0.5882 -0.3871
 2073SOL     OW10134   4.797  10.126   0.581 -0.1310  0.1566 -0.0218
 2073SOL    HW110135   4.754  10.211   0.571 -1.3901 -0.5675 -0.9345
 2073SOL    HW210136   4.813  10.097   0.492  0.0778 -0.6801  0.2827
 2074SOL     OW10137   0.741   8.793   3.042  0.4503 -0.1552 -0.0677
 2074SOL    HW110138   0.829   8.812   3.074 -0.2225 -0.1101  1.9228
 2074SOL    HW210139   0.710   8.723   3.100 -0.8607 -0.1033 -0.6821
 2075SOL     OW10140   6.071   2.435   7.595  0.1037  0.0878 -0.2351
 2075SOL    HW110141   6.070   2.524   7.628  0.6756  0.0933 -0.2247
 2075SOL    HW210142   6.075   2.444   7.500  0.4936  0.0793 -0.2230
 2076SOL     OW10143   4.356   6.605   4.146 -0.8106 -0.9624  0.5665
 2076SOL    HW110144   4.342   6.521   4.103  0.3933 -1.2607  0.7173
 2076SOL    HW210145   4.348   6.670   4.077 -1.1524 -1.2509  0.3345
 2077SOL     OW10146   0.672   2.939   2.203 -0.1842 -0.2802 -0.7935
 2077SOL    HW110147   0.599   2.879   2.189 -1.0703  0.5693  0.0708
 2077SOL    HW210148   0.673   2.995   2.125 -0.3681 -0.3796 -0.8661
 2078SOL     OW10149   9.172   4.022   5.281  0.3368  0.1485 -0.1976
 2078SOL    HW110150   9.132   3.999   5.364  0.9076 -2.0493 -0.4653
 2078SOL    HW210151   9.135   3.959   5.218  2.3368 -0.3740 -0.9204
 2079SOL     OW10152   7.695   8.573   1.129  0.0400 -0.0408  0.0215
 2079SOL    HW110153   7.676   8.489   1.171 -0.6301  0.2400  0.3025
 2079SOL    HW210154   7.616   8.626   1.144  0.1511  0.3804 -0.8080
 2080SOL     OW10155   1.367   1.326   3.603 -0.0161 -0.1534 -0.5501
 2080SOL    HW110156   1.355   1.416   3.571 -1.6174 -0.8534 -2.0330
 2080SOL    HW210157   1.461   1.321   3.622  0.1519  1.7705 -0.5979
 2081SOL     OW10158   5.638   9.485   7.791  0.0252  0.4681 -0.1892
 2081SOL    HW110159   5.677   9.556   7.842  1.9586 -2.2586  2.4637
 2081SOL    HW210160   5.712   9.432   7.762 -1.3342 -0.4943 -2.1327
 2082SOL     OW10161   0.699   5.745   4.027  0.4954 -0.5391  0.3232
 2082SOL    HW110162   0.743   5.796   3.958  0.3638 -1.3766 -0.4049
 2082SOL    HW210163   0.606   5.764   4.015  0.5138 -0.2331  0.6511
 2083SOL     OW10164   4.091   7.674   5.979 -0.0566  0.1426  0.0969
 2083SOL    HW110165   4.031   7.632   5.917 -2.1708  3.9184 -0.7488
 2083SOL    HW210166   4.167   7.699   5.926  0.4393 -1.0571  0.2257
 2084SOL     OW10167   1.234   3.273   2.064  0.2854 -0.6458  0.6556
 2084SOL    HW110168   1.328   3.268   2.079  0.3459 -1.8027  0.0468
 2084SOL    HW210169   1.221   3.351   2.011  0.9750 -0.7889  0.2756
 2085SOL     OW10170   9.407   5.707   5.082  0.0872 -0.1958  0.2014
 2085SOL    HW110171   9.329   5.722   5.135 -1.4242  0.4318 -2.0474
 2085SOL    HW210172   9.400   5.770   5.010  1.2281 -1.9429 -1.5579
 2086SOL     OW10173   9.338   4.931   4.226  0.2022 -0.0764 -0.3109
 2086SOL    HW110174   9.255   4.937   4.274  0.2846 -2.7474  0.3099
 2086SOL    HW210175   9.313   4.896   4.140  0.7712 -2.7856  0.5314
 2087SOL     OW10176   6.433   3.498   8.006 -0.0554 -0.3195 -0.1200
 2087SOL    HW110177   6.369   3.509   7.935  0.3255  0.5074 -0.3563
 2087SOL    HW210178   6.384   3.520   8.085 -0.3431 -0.7264 -0.1851
 2088SOL     OW10179   7.786   9.591   5.778  0.2405  0.7670 -0.0936
 2088SOL    HW110180   7.810   9.630   5.693 -0.4358  1.8635  0.2012
 2088SOL    HW210181   7.744   9.662   5.826 -0.8376 -0.2885  0.5610
 2089SOL     OW10182   6.960   2.916  10.080 -0.3169  0.1210 -0.5397
 2089SOL    HW110183   7.001   2.870  10.007 -2.4157 -2.8352 -0.0708
 2089SOL    HW210184   6.873   2.875  10.088 -0.0281 -0.0930  3.8939
 2090SOL     OW10185   9.869   1.663   1.246 -0.6053  0.2676 -0.0804
 2090SOL    HW110186   9.809   1.734   1.270 -0.1875  0.5635  0.0925
 2090SOL    HW210187   9.864   1.659   1.150  1.4568  2.4088 -0.3491
 2091SOL     OW10188   1.607   9.117   5.266  0.4754 -0.7964 -0.1656
 2091SOL    HW110189   1.551   9.046   5.299 -0.3658 -1.1922 -2.2418
 2091SOL    HW210190   1.545   9.182   5.233  1.2554 -0.1204 -0.3159
 2092SOL     OW10191   1.321   3.209   5.538 -0.3331  0.3913 -0.1703
 2092SOL    HW110192   1.355   3.283   5.489  2.2199 -2.2791 -2.8948
 2092SOL    HW210193   1.383   3.197   5.610 -1.4433  1.5204  1.0278
 2093SOL     OW10194   7.239   3.176   9.294  0.1433  0.6553  0.0054
 2093SOL    HW110195   7.197   3.227   9.364  0.8691  1.6077 -0.2199
 2093SOL    HW210196   7.332   3.179   9.316  0.3826  0.9710 -1.0027
 2094SOL     OW10197   6.508   7.634   8.827  0.1189  0.2412 -0.2840
 2094SOL    HW110198   6.503   7.674   8.740  1.2654  0.5964 -0.2040
 2094SOL    HW210199   6.502   7.540   8.811  1.9946  0.1940 -0.9388
 2095SOL     OW10200   6.734   8.442   2.607 -0.1072  0.1122 -0.0040
 2095SOL    HW110201   6.695   8.355   2.594 -0.1680  0.0089  0.8639
 2095SOL    HW210202   6.827   8.425   2.616  0.0860  0.2992 -1.4239
 2096SOL     OW10203  10.166   6.756   6.715  0.1456  0.0488 -0.0639
 2096SOL    HW110204  10.134   6.739   6.804  0.1246 -1.2193 -0.2928
 2096SOL    HW210205  10.252   6.796   6.728 -0.1149  0.4326  0.5355
 2097SOL     OW10206   7.342   5.358   6.936  0.2209  0.1972 -0.1130
 2097SOL    HW110207   7.415   5.317   6.981  0.5884  1.8294  0.8372
 2097SOL    HW210208   7.335   5.445   6.975 -1.5291  0.4766 -0.9569
 2098SOL     OW10209   0.219   5.102   7.082  0.3302  0.6698  0.7554
 2098SOL    HW110210   0.301   5.077   7.039 -0.8278  0.5719 -1.4971
 2098SOL    HW210211   0.207   5.194   7.058 -2.1489 -0.3071 -2.3984
 2099SOL     OW10212   2.560   9.920   6.826  0.3197  0.2235 -0.1229
 2099SOL    HW110213   2.506   9.993   6.796 -2.2538 -1.9571 -1.3104
 2099SOL    HW210214   2.601   9.886   6.746  3.3154  1.5871  0.7081
 2100SOL     OW10215   9.281   7.767   3.942  0.1264 -0.2934 -0.4726
 2100SOL    HW110216   9.377   7.763   3.950  0.2702  0.1562 -1.7100
 2100SOL    HW210217   9.262   7.718   3.862 -0.6957 -0.4386 -0.1961
 2101SOL     OW10218   8.876   6.866   5.060 -0.2286 -0.2195  0.1461
 2101SOL    HW110219   8.791   6.847   5.019 -0.2434  3.1203 -1.7395
 2101SOL    HW210220   8.853   6.891   5.150 -1.0487 -0.7867  0.1108
 2102SOL     OW10221   8.728   2.106   1.626 -0.2790 -0.1353 -0.2703
 2102SOL    HW110222   8.636   2.108   1.654 -0.2818 -0.3128 -0.2608
 2102SOL    HW210223   8.773   2.061   1.698 -0.2265 -0.2689 -0.3871
 2103SOL     OW10224   3.339   0.976   7.375  0.0860 -0.0037 -0.2500
 2103SOL    HW110225   3.327   1.068   7.354  1.4450  0.5094  1.0703
 2103SOL    HW210226   3.432   0.967   7.396 -0.0449 -1.6354 -0.1802
 2104SOL     OW10227   4.649   0.355   2.073  1.0363 -0.0449 -0.1918
 2104SOL    HW110228   4.644   0.397   1.987 -0.5481 -0.8402 -0.5452
 2104SOL    HW210229   4.697   0.416   2.128  0.7884  1.1556 -1.2737
 2105SOL     OW10230   8.710   3.663   6.700  0.4402  0.4698  0.0981
 2105SOL    HW110231   8.685   3.580   6.660 -1.0573  1.8587 -2.1147
 2105SOL    HW210232   8.685   3.654   6.792 -1.2477 -0.9535 -0.4416
 2106SOL     OW10233   9.659   5.958   9.646  0.2729 -0.0103 -0.6671
 2106SOL    HW110234   9.608   6.039   9.638  0.8160  0.3323 -0.7177
 2106SOL    HW210235   9.596   5.888   9.628 -0.1573  0.4091 -0.8168
 2107SOL     OW10236   4.866   9.303   4.949  0.6763  0.0565  0.7956
 2107SOL    HW110237   4.908   9.221   4.926  0.5598  0.1905  0.0680
 2107SOL    HW210238   4.793   9.311   4.888 -0.5738 -0.2902  2.1902
 2108SOL     OW10239   0.297   7.334   3.542  0.0788  0.4666  0.0204
 2108SOL    HW110240   0.318   7.427   3.539 -0.1926  0.5159 -0.5804
 2108SOL    HW210241   0.295   7.307   3.450  1.0727 -0.3465  0.2269
 2109SOL     OW10242   1.757   2.333   3.127  0.0276  0.3425 -0.6482
 2109SOL    HW110243   1.665   2.353   3.114 -0.2726 -1.2559 -1.2634
 2109SOL    HW210244   1.804   2.409   3.091 -1.0169  1.8785  1.0709
 2110SOL     OW10245   9.178   8.429   6.948 -0.2082 -0.2030  0.5833
 2110SOL    HW110246   9.134   8.506   6.983 -0.1145  0.0410  0.1644
 2110SOL    HW210247   9.251   8.463   6.897  0.6210 -0.6185  1.4653
 2111SOL     OW10248   9.107   0.981   7.071 -0.3421 -0.2112  0.2324
 2111SOL    HW110249   9.074   0.905   7.118  1.2478 -2.1579 -1.6345
 2111SOL    HW210250   9.072   0.971   6.982 -1.2398  2.0455  0.2435
 2112SOL     OW10251   0.679   8.627   2.192  0.1486 -0.3125  0.0187
 2112SOL    HW110252   0.652   8.706   2.144  0.4721  0.8437  1.6485
 2112SOL    HW210253   0.774   8.634   2.198 -0.0437  1.1276  3.2353
 2113SOL     OW10254   3.124   0.674   9.516  0.2611  0.2691  0.0283
 2113SOL    HW110255   3.099   0.740   9.451 -1.6235 -0.1302  0.3033
 2113SOL    HW210256   3.107   0.716   9.601  2.8412  0.8432  0.3700
 2114SOL     OW10257   1.490   4.839   1.747 -0.2931  0.3343  0.1940
 2114SOL    HW110258   1.480   4.934   1.743 -0.3937  0.3614  0.9410
 2114SOL    HW210259   1.581   4.826   1.773 -0.3100  0.2275  0.1981
 2115SOL     OW10260   0.717   5.622   7.971  0.9695 -0.2987  0.0593
 2115SOL    HW110261   0.776   5.601   8.043 -1.6684 -2.5073  1.7774
 2115SOL    HW210262   0.699   5.537   7.930 -0.9274  0.3044 -0.4398
 2116SOL     OW10263   0.168   9.450   9.531  0.4535  0.8289 -0.7631
 2116SOL    HW110264   0.262   9.458   9.521  0.6762 -1.3248 -0.8102
 2116SOL    HW210265   0.156   9.372   9.585 -1.2976  1.1777 -0.5796
 2117SOL     OW10266   6.351   6.570   1.436  0.0984 -0.2336 -0.0264
 2117SOL    HW110267   6.342   6.534   1.524  0.1439 -1.7616 -0.6159
 2117SOL    HW210268   6.286   6.522   1.384 -0.2003  0.9231 -0.7571
 2118SOL     OW10269   0.395   2.518   7.697  0.3514  0.0820 -0.4702
 2118SOL    HW110270   0.488   2.504   7.718  0.4977  0.9919 -0.4835
 2118SOL    HW210271   0.392   2.512   7.601  0.5190  0.7104 -0.5200
 2119SOL     OW10272   0.070   5.311   6.170 -0.7559  0.2032 -0.3648
 2119SOL    HW110273   0.117   5.247   6.224  0.5745  1.5342  0.1360
 2119SOL    HW210274  -0.009   5.331   6.221  0.4792  1.4426  1.2170
 2120SOL     OW10275   1.469   4.175   4.028 -0.1313 -0.1789  1.3909
 2120SOL    HW110276   1.394   4.116   4.035 -0.1583 -0.2122  0.8972
 2120SOL    HW210277   1.440   4.244   3.969  0.6388 -0.8803  0.1401
 2121SOL     OW10278   3.687   9.572   8.147  0.5784  0.3905  0.1126
 2121SOL    HW110279   3.595   9.549   8.158  0.6613 -1.2507 -2.0249
 2121SOL    HW210280   3.735   9.493   8.174  1.3791  1.1261  0.9326
 2122SOL     OW10281   7.267   1.631   8.739 -0.2832 -0.3363  0.3191
 2122SOL    HW110282   7.213   1.702   8.775 -0.3031  0.2056 -0.7396
 2122SOL    HW210283   7.310   1.593   8.815 -0.3146  0.7866  0.9243
 2123SOL     OW10284   6.562   3.462   7.602 -0.5270  0.2477 -0.2524
 2123SOL    HW110285   6.519   3.380   7.625 -2.2220  1.1664  0.0094
 2123SOL    HW210286   6.649   3.454   7.640 -0.4721 -1.6089 -0.6468
 2124SOL     OW10287   5.193   7.792   0.564 -0.2928  0.2409  0.5976
 2124SOL    HW110288   5.207   7.778   0.471  1.2289  2.2402  0.4786
 2124SOL    HW210289   5.169   7.705   0.598 -0.2590 -0.6412 -1.5077
 2125SOL     OW10290   0.872   3.216   7.808  0.1332  0.1005 -0.6722
 2125SOL    HW110291   0.810   3.264   7.862 -0.4601 -1.0821 -0.2652
 2125SOL    HW210292   0.912   3.283   7.752  1.1194  1.4506  1.5099
 2126SOL     OW10293   8.019   1.540   8.725  0.0270  1.1453 -0.0172
 2126SOL    HW110294   8.005   1.628   8.692 -1.4879  0.8403 -0.2505
 2126SOL    HW210295   8.011   1.483   8.649  0.7535  0.7774  0.1687
 2127SOL     OW10296   4.626   8.692   9.146 -0.3293  0.2334 -0.4317
 2127SOL    HW110297   4.707   8.641   9.149 -0.0377  0.6911 -0.2393
 2127SOL    HW210298   4.580   8.662   9.068  0.0945  0.0653 -0.6165
 2128SOL     OW10299   6.888   8.292  10.107 -0.5235 -0.4989  0.7989
 2128SOL    HW110300   6.959   8.230  10.126 -1.1910 -2.0706 -1.3981
 2128SOL    HW210301   6.820   8.238  10.066 -1.9300  1.3957  0.5256
 2129SOL     OW10302   3.697   6.820   5.374 -0.5810  0.7519 -0.1572
 2129SOL    HW110303   3.663   6.739   5.334  0.6619 -0.2437  0.7390
 2129SOL    HW210304   3.697   6.802   5.468  0.1983  1.6131  0.0134
 2130SOL     OW10305   8.354   1.567   3.674 -0.2116  0.6371 -0.9981
 2130SOL    HW110306   8.299   1.562   3.752 -0.6455 -0.6349 -1.3680
 2130SOL    HW210307   8.443   1.563   3.708 -0.3720  1.1250 -0.5006
 2131SOL     OW10308   3.820   1.707   2.217 -0.3134 -0.0592 -0.2360
 2131SOL    HW110309   3.752   1.739   2.275  0.2667  0.0913  0.3743
 2131SOL    HW210310   3.777   1.640   2.163 -1.5485  1.7037 -1.5471
 2132SOL     OW10311   9.208   3.438   8.885 -0.0634  0.1295  0.1696
 2132SOL    HW110312   9.224   3.367   8.947 -0.3834  0.6278  0.8328
 2132SOL    HW210313   9.124   3.475   8.911 -0.0989  0.4850 -0.4283
 2133SOL     OW10314   7.280   5.138   4.184  0.3299  0.0337  0.4426
 2133SOL    HW110315   7.356   5.125   4.241  1.1725 -0.1847 -0.6941
 2133SOL    HW210316   7.286   5.068   4.120  0.2568  1.1410 -0.8156
 2134SOL     OW10317   7.228   7.726   8.880  0.1033  0.6621 -0.0316
 2134SOL    HW110318   7.161   7.789   8.908 -2.0312 -1.6260  0.4212
 2134SOL    HW210319   7.207   7.708   8.789  0.2423  0.0852  0.0479
 2135SOL     OW10320   1.169   3.913   2.996  0.2646 -0.2510  0.0643
 2135SOL    HW110321   1.137   3.993   3.037 -0.7235 -0.5855 -0.0221
 2135SOL    HW210322   1.221   3.870   3.063 -0.0616 -0.0374  0.4562
 2136SOL     OW10323   2.004   0.751   5.103  0.4179 -0.1988 -0.4322
 2136SOL    HW110324   2.052   0.788   5.177 -0.3791 -0.8305  0.4475
 2136SOL    HW210325   2.015   0.814   5.032  2.1996 -0.1503 -0.1538
 2137SOL     OW10326   3.548   8.262   5.719 -0.5077 -0.4761 -0.2739
 2137SOL    HW110327   3.484   8.334   5.722  1.1666  1.0833 -0.2926
 2137SOL    HW210328   3.587   8.261   5.806  1.1605  0.2771 -0.9765
 2138SOL     OW10329   3.406   4.320   0.132  0.0342 -0.6912  0.3851
 2138SOL    HW110330   3.456   4.256   0.083  1.7734  0.5917  0.3966
 2138SOL    HW210331   3.336   4.347   0.073 -1.0004 -2.8286  0.5301
 2139SOL     OW10332   4.627   6.498   5.916 -0.4924  0.0482  0.1357
 2139SOL    HW110333   4.636   6.519   6.009 -0.2545  1.9200 -0.2847
 2139SOL    HW210334   4.568   6.564   5.882 -1.3054 -1.1611 -0.8978
 2140SOL     OW10335   4.337   4.330   6.643  0.2721 -0.0840  0.2215
 2140SOL    HW110336   4.258   4.335   6.589 -0.7818  0.9768  1.7719
 2140SOL    HW210337   4.365   4.239   6.637 -0.1634 -0.1402 -1.5677
 2141SOL     OW10338   2.322   9.353   2.435 -0.5145 -0.7645 -0.4435
 2141SOL    HW110339   2.236   9.317   2.457 -0.7245 -0.8157 -1.2944
 2141SOL    HW210340   2.319   9.365   2.340 -0.1745  0.7993 -0.2711
 2142SOL     OW10341   1.185   9.758   4.544  0.1952  1.0372 -0.0697
 2142SOL    HW110342   1.174   9.844   4.584  1.0762  0.7627  0.8044
 2142SOL    HW210343   1.277   9.756   4.516  0.2126  0.3395  0.0138
 2143SOL     OW10344   9.518   3.430   7.679  0.2714 -0.2351 -0.2233
 2143SOL    HW110345   9.473   3.353   7.644  1.1552 -0.2512 -1.4347
 2143SOL    HW210346   9.502   3.499   7.613  0.7431  0.1740  0.0806
 2144SOL     OW10347   5.680   1.017   7.995  0.2440 -0.1111 -0.2872
 2144SOL    HW110348   5.692   0.983   7.906 -0.7416 -0.0105 -0.4683
 2144SOL    HW210349   5.719   1.105   7.993 -1.4030  0.6403 -1.1627
 2145SOL     OW10350   9.759   6.890   4.274 -0.2554  0.1079 -0.6172
 2145SOL    HW110351   9.822   6.864   4.207 -0.3828 -3.2892  0.3630
 2145SOL    HW210352   9.812   6.900   4.353 -0.5246  0.6852 -0.5094
 2146SOL     OW10353   8.065   7.064   2.105  0.2747  0.6258  0.3750
 2146SOL    HW110354   8.112   7.076   2.187  1.1007 -0.7838  0.1316
 2146SOL    HW210355   8.013   6.984   2.119  1.5993 -0.5116 -0.9788
 2147SOL     OW10356   8.975   9.211   4.753  0.5708 -0.9474 -0.1573
 2147SOL    HW110357   9.066   9.182   4.744  0.7794 -0.2585 -0.3269
 2147SOL    HW210358   8.938   9.201   4.665  1.0270  0.5419 -0.5422
 2148SOL     OW10359   0.928   9.455   2.335 -0.2909 -0.0210  0.6474
 2148SOL    HW110360   1.006   9.433   2.386  0.0328 -0.0533  0.1463
 2148SOL    HW210361   0.858   9.401   2.372 -0.0170 -0.1747  0.9384
 2149SOL     OW10362   4.756   0.506   9.179 -0.0265 -0.0797 -0.2560
 2149SOL    HW110363   4.803   0.435   9.135  0.8684 -0.0571  0.6273
 2149SOL    HW210364   4.790   0.586   9.139  3.4322  0.1749  2.7078
 2150SOL     OW10365   0.633   5.371   3.704 -0.6054 -0.5260 -0.5433
 2150SOL    HW110366   0.674   5.400   3.785  0.8627 -1.1717 -1.0098
 2150SOL    HW210367   0.557   5.428   3.693 -1.9250 -1.5740  2.1872
 2151SOL     OW10368   4.295   5.842   8.739  0.0326  0.6129 -0.0079
 2151SOL    HW110369   4.337   5.916   8.694 -1.7218  1.8168  0.2411
 2151SOL    HW210370   4.239   5.803   8.673 -0.1045  0.3721  0.2523
 2152SOL     OW10371   2.093   3.672   0.665 -0.7946  0.2006  0.0124
 2152SOL    HW110372   2.151   3.598   0.648 -0.9321  0.4975 -1.9681
 2152SOL    HW210373   2.076   3.710   0.579  0.2174  3.2845  1.0232
 2153SOL     OW10374   1.262   3.853   7.458  0.1988 -0.4610  0.0084
 2153SOL    HW110375   1.290   3.927   7.405 -1.8511  0.2756 -0.1589
 2153SOL    HW210376   1.200   3.806   7.403 -2.6271  0.7803  1.8574
 2154SOL     OW10377   2.941   9.274   6.751 -0.0006 -0.4719  0.3904
 2154SOL    HW110378   2.865   9.328   6.732 -0.6658 -1.8960 -1.1946
 2154SOL    HW210379   2.977   9.252   6.665  4.0194  2.4891  0.9964
 2155SOL     OW10380   2.777   1.175   5.396 -0.1506  0.0315 -0.7919
 2155SOL    HW110381   2.781   1.154   5.490  0.2908  0.9192 -0.6068
 2155SOL    HW210382   2.844   1.119   5.356  1.3731  1.3901 -0.2318
 2156SOL     OW10383   3.437   9.687   2.943 -0.2290 -0.1118 -0.0510
 2156SOL    HW110384   3.471   9.614   2.994 -0.8771  0.1941  0.8525
 2156SOL    HW210385   3.435   9.760   3.005  1.3715  0.9696 -1.1826
 2157SOL     OW10386   7.407   3.155   2.327  0.7009 -0.2525 -0.6050
 2157SOL    HW110387   7.319   3.146   2.362  1.1700 -0.3733  0.5813
 2157SOL    HW210388   7.431   3.246   2.346  1.8557 -0.9600  1.6158
 2158SOL     OW10389   0.586   9.693   4.988 -0.0749  0.7254 -0.4120
 2158SOL    HW110390   0.662   9.694   5.046  0.3326  1.1408 -0.9537
 2158SOL    HW210391   0.545   9.778   5.000 -0.5903  0.4256  0.0383
 2159SOL     OW10392   0.179   6.283   9.840  0.5555 -0.1344 -0.0963
 2159SOL    HW110393   0.167   6.319   9.752 -0.2858 -0.2173 -0.0251
 2159SOL    HW210394   0.209   6.194   9.825 -0.6442 -0.5257 -0.3439
 2160SOL     OW10395   0.881   6.423   8.360  0.2244  0.5085 -0.3134
 2160SOL    HW110396   0.836   6.502   8.390  0.4496  0.1163  1.1225
 2160SOL    HW210397   0.963   6.421   8.411 -0.2203 -1.1559  0.4146
 2161SOL     OW10398   7.044   3.999   7.926  0.3867 -0.2497 -0.0334
 2161SOL    HW110399   7.060   4.093   7.927  0.4362 -0.2078  2.4120
 2161SOL    HW210400   7.120   3.962   7.881  1.0394  0.8085  0.1484
 2162SOL     OW10401   3.543   6.984   1.444 -0.2022  0.2051 -0.0159
 2162SOL    HW110402   3.622   6.931   1.447 -1.2767 -1.4318  0.6441
 2162SOL    HW210403   3.513   6.978   1.354  0.7582  1.4031 -0.4444
 2163SOL     OW10404   0.767   5.378   6.798  0.1825  0.0709  0.3067
 2163SOL    HW110405   0.831   5.441   6.831 -0.7318  1.0519  0.2471
 2163SOL    HW210406   0.799   5.355   6.710  0.6288  0.2860  0.4111
 2164SOL     OW10407   8.668   2.109   7.831  0.0107  0.4657  0.3014
 2164SOL    HW110408   8.755   2.104   7.869 -0.0834 -0.4977  0.4082
 2164SOL    HW210409   8.671   2.185   7.773  0.7325  0.7962  0.7591
 2165SOL     OW10410   7.489   5.567   8.911  0.2527  0.0774 -0.1049
 2165SOL    HW110411   7.410   5.580   8.962  0.4066  0.4725  0.0352
 2165SOL    HW210412   7.508   5.653   8.873  1.2901  0.2954  0.8480
 2166SOL     OW10413   3.925   5.320   8.258  0.0446  0.4314 -0.0906
 2166SOL    HW110414   3.926   5.416   8.261  0.3984  0.3984  1.5699
 2166SOL    HW210415   3.984   5.298   8.186 -0.3278  1.4607 -0.7286
 2167SOL     OW10416   5.792   9.279   2.835  0.0130 -0.3680  0.3517
 2167SOL    HW110417   5.804   9.275   2.740 -1.8994 -0.9657  0.0970
 2167SOL    HW210418   5.860   9.340   2.865  1.6029 -1.3019 -1.1926
 2168SOL     OW10419   8.620   0.023   2.598  0.0617  0.2479  0.3962
 2168SOL    HW110420   8.681   0.062   2.536  0.6540 -1.1192  0.0729
 2168SOL    HW210421   8.554   0.091   2.614 -0.8003  0.2638 -2.6556
 2169SOL     OW10422   4.219   5.978   0.880 -0.5849 -0.1377  0.3800
 2169SOL    HW110423   4.143   5.946   0.831 -0.3111  0.0145 -0.1603
 2169SOL    HW210424   4.294   5.940   0.834 -0.3064  0.3297  0.4446
 2170SOL     OW10425   6.923   4.336   1.086 -0.1935  0.2635  0.3937
 2170SOL    HW110426   7.018   4.322   1.093 -0.2577  0.0757  0.9663
 2170SOL    HW210427   6.898   4.371   1.172 -0.6579  0.2322  0.2745
 2171SOL     OW10428   8.868   6.447   1.607  0.4353  0.4170  0.0582
 2171SOL    HW110429   8.917   6.415   1.531  0.3903  0.1629  0.1340
 2171SOL    HW210430   8.897   6.537   1.619 -1.0575  1.1572 -1.5197
 2172SOL     OW10431   4.119   2.562   8.464  0.4924 -0.5693 -0.1844
 2172SOL    HW110432   4.029   2.564   8.430  0.0709 -1.8511  0.7413
 2172SOL    HW210433   4.174   2.557   8.386 -0.1487  1.3629 -0.8169
 2173SOL     OW10434   5.234   0.346   0.844  0.1241  0.3007 -0.4617
 2173SOL    HW110435   5.189   0.356   0.928 -3.0187  1.2610 -2.1066
 2173SOL    HW210436   5.306   0.410   0.848 -0.4248  0.8549  1.2003
 2174SOL     OW10437   2.151   4.941   3.931  0.0816 -0.1371 -0.0718
 2174SOL    HW110438   2.241   4.912   3.917  0.0442  0.5039 -1.9115
 2174SOL    HW210439   2.136   5.007   3.863 -1.6515  0.0423  0.4377
 2175SOL     OW10440   2.624   9.248   6.530 -0.2130 -0.2761  0.0561
 2175SOL    HW110441   2.608   9.157   6.556 -0.7470  0.0229  0.7963
 2175SOL    HW210442   2.539   9.290   6.534 -0.1313  0.0564 -1.1713
 2176SOL     OW10443   0.544   4.763   4.705 -0.0102 -0.7371 -0.2363
 2176SOL    HW110444   0.579   4.821   4.772  0.1600 -1.2459  0.1170
 2176SOL    HW210445   0.454   4.795   4.690  0.1985 -0.1684 -0.3001
 2177SOL     OW10446   4.060   7.940   8.751 -0.3509  0.1299 -0.6259
 2177SOL    HW110447   4.103   7.991   8.820 -1.5551 -2.4454  2.3006
 2177SOL    HW210448   4.107   7.963   8.671  0.8730  3.6458  0.9126
 2178SOL     OW10449   5.617   4.524   8.775  0.0475  0.0799  0.1365
 2178SOL    HW110450   5.553   4.566   8.833 -0.5442  1.3159 -1.3285
 2178SOL    HW210451   5.700   4.564   8.798 -0.2150  0.7162  0.0004
 2179SOL     OW10452   5.088   9.489   0.590 -0.1873 -0.0675  0.4037
 2179SOL    HW110453   5.157   9.538   0.636  0.5888 -0.9617  0.2155
 2179SOL    HW210454   5.006   9.520   0.629  0.2408  1.7439 -0.0495
 2180SOL     OW10455   0.960  10.060   4.859 -0.4391  0.0403 -0.0007
 2180SOL    HW110456   1.006  10.141   4.837 -0.5745 -0.2683 -1.5844
 2180SOL    HW210457   0.916  10.035   4.777 -1.3195 -1.0270  0.7724
 2181SOL     OW10458   5.490   0.521   3.098 -0.2246 -0.1109 -0.1798
 2181SOL    HW110459   5.580   0.543   3.075 -0.4093  1.2365  0.2769
 2181SOL    HW210460   5.475   0.434   3.061  0.9516  0.0601 -1.0749
 2182SOL     OW10461   3.740   6.092   8.037  0.2862  0.5103 -0.7837
 2182SOL    HW110462   3.725   6.011   8.086 -0.2811  1.1378  0.1086
 2182SOL    HW210463   3.719   6.070   7.947  0.6609 -0.4795 -0.6364
 2183SOL     OW10464   2.171   2.617   8.045  0.6246 -0.1365 -0.0696
 2183SOL    HW110465   2.155   2.524   8.030  1.7067 -0.0748 -1.9170
 2183SOL    HW210466   2.199   2.650   7.960  0.6246  1.8142  0.6456
 2184SOL     OW10467   2.912   3.458   1.280 -0.2070  0.1052  0.1892
 2184SOL    HW110468   2.910   3.372   1.239  1.9866  0.8064 -1.6106
 2184SOL    HW210469   2.978   3.450   1.349  0.1445  0.3452 -0.1079
 2185SOL     OW10470  10.190   0.688   1.725  0.4160 -0.5434  0.3104
 2185SOL    HW110471  10.160   0.615   1.671 -1.7624  1.0712 -0.8276
 2185SOL    HW210472  10.176   0.658   1.815  0.4445 -1.8428 -0.0960
 2186SOL     OW10473   7.619   6.338   5.767 -0.2156 -0.7249 -0.2657
 2186SOL    HW110474   7.630   6.244   5.758  0.5256 -0.5179 -1.6591
 2186SOL    HW210475   7.702   6.376   5.740 -0.9862  0.3973 -1.1757
 2187SOL     OW10476   0.254   7.817   4.133  0.1995 -0.1239 -0.3863
 2187SOL    HW110477   0.349   7.828   4.145 -0.0878  1.7160  0.5104
 2187SOL    HW210478   0.221   7.801   4.221 -0.3230 -0.9555 -0.7245
 2188SOL     OW10479   0.463   7.381   1.591  0.2379  0.3977 -0.1587
 2188SOL    HW110480   0.500   7.433   1.519  2.2945  1.6418  1.6540
 2188SOL    HW210481   0.398   7.325   1.549  3.1069 -0.8675 -3.4332
 2189SOL     OW10482   1.103   7.302   4.365  0.1788  0.1184  0.0453
 2189SOL    HW110483   1.184   7.350   4.383  0.1308  0.5416 -0.7956
 2189SOL    HW210484   1.044   7.327   4.435 -0.4565  2.7802 -1.3107
 2190SOL     OW10485   0.845   8.051   5.118 -0.3705 -0.1026 -0.0357
 2190SOL    HW110486   0.776   8.055   5.051 -0.6058 -0.8137  0.1514
 2190SOL    HW210487   0.876   8.141   5.127 -2.6144  0.6240  1.2518
 2191SOL     OW10488   0.330   1.063   5.255  0.0629 -0.4862  0.4196
 2191SOL    HW110489   0.347   1.146   5.300  0.4677  1.4281 -2.9254
 2191SOL    HW210490   0.412   1.042   5.211 -1.0666 -0.5531 -1.8057
 2192SOL     OW10491   4.918   4.845   6.973 -0.2291 -0.1638  0.1814
 2192SOL    HW110492   4.831   4.814   6.950 -0.5462  0.7759  0.0863
 2192SOL    HW210493   4.903   4.913   7.039  0.3661  0.5540 -0.4034
 2193SOL     OW10494   8.451   6.442   5.275 -0.2470  0.1768 -0.0214
 2193SOL    HW110495   8.415   6.427   5.362  2.7884 -2.2922  0.9581
 2193SOL    HW210496   8.439   6.359   5.229 -2.8565  1.7607 -2.5296
 2194SOL     OW10497   8.793   2.612   1.589  0.9907  0.3876 -0.0396
 2194SOL    HW110498   8.762   2.612   1.680  3.0565  0.2782  0.7295
 2194SOL    HW210499   8.861   2.679   1.587  0.4328  0.9525 -1.7440
 2195SOL     OW10500   8.888   5.683   1.099 -0.3214  0.0168  0.1378
 2195SOL    HW110501   8.794   5.684   1.117 -0.1055  1.3645  1.3051
 2195SOL    HW210502   8.894   5.713   1.008 -0.9951  0.3014  0.1776
 2196SOL     OW10503   3.641   0.981   1.527  0.2215 -0.4001  0.4826
 2196SOL    HW110504   3.549   0.952   1.533  0.2716 -0.3902  1.5553
 2196SOL    HW210505   3.665   0.966   1.436 -0.7940 -0.5777  0.2290
 2197SOL     OW10506   8.947   8.531   1.476 -0.3752  0.6914  0.1532
 2197SOL    HW110507   8.915   8.458   1.424  1.4495 -0.5789  0.7567
 2197SOL    HW210508   8.993   8.491   1.549 -0.5384  2.4516  1.2916
 2198SOL     OW10509   6.078   2.703   7.640  0.0883  0.7204 -0.8824
 2198SOL    HW110510   6.022   2.731   7.712 -1.9334 -0.6376 -1.8417
 2198SOL    HW210511   6.147   2.769   7.636  0.6963  0.4797  2.6852
 2199SOL     OW10512   6.412   3.515   3.715 -0.5725  0.4561  0.4913
 2199SOL    HW110513   6.463   3.504   3.634  0.1781 -2.8776  1.2544
 2199SOL    HW210514   6.477   3.542   3.780 -0.0702 -1.7437  0.9930
 2200SOL     OW10515   2.746   2.529   1.902 -0.3162  0.3475  0.1503
 2200SOL    HW110516   2.704   2.443   1.889  1.5754 -0.4267 -1.2931
 2200SOL    HW210517   2.718   2.581   1.827  1.2454 -0.1801 -0.8318
 2201SOL     OW10518   2.853   4.209   5.474  0.3824 -0.3093 -0.9093
 2201SOL    HW110519   2.773   4.189   5.425  0.3915  1.9895 -2.0295
 2201SOL    HW210520   2.823   4.262   5.548  0.8089  0.3847 -1.2151
 2202SOL     OW10521   7.394   2.684   8.917 -0.2973 -0.5409  0.0986
 2202SOL    HW110522   7.338   2.662   8.842 -0.7829  2.1184 -0.4243
 2202SOL    HW210523   7.334   2.718   8.983  0.4495 -0.0201  0.5245
 2203SOL     OW10524   0.443   6.875   5.548 -0.0070 -0.1410 -0.1652
 2203SOL    HW110525   0.351   6.870   5.572  0.4350 -1.7601  1.3672
 2203SOL    HW210526   0.447   6.946   5.484 -2.3758 -0.3576 -0.6433
 2204SOL     OW10527   6.624   9.796   2.040 -0.7827  0.4242  0.0989
 2204SOL    HW110528   6.571   9.807   1.961 -0.8180  0.6932  0.1619
 2204SOL    HW210529   6.686   9.868   2.038  0.3380 -0.5123 -0.5630
 2205SOL     OW10530   5.772   1.953   5.741 -0.1563 -0.4863 -0.2995
 2205SOL    HW110531   5.757   2.027   5.800 -0.4145  0.0104 -0.9801
 2205SOL    HW210532   5.867   1.942   5.741 -0.0817  0.1113 -0.5144
 2206SOL     OW10533   9.962   5.393  10.099 -0.2449  0.3596 -0.1294
 2206SOL    HW110534  10.042   5.444  10.102 -0.6635  1.0093  0.2146
 2206SOL    HW210535   9.915   5.425  10.022  0.2803 -0.7394 -0.9383
 2207SOL     OW10536   3.585   1.815   1.835 -0.1199  0.5855  0.0503
 2207SOL    HW110537   3.574   1.829   1.741 -1.5637  2.8487  0.4735
 2207SOL    HW210538   3.606   1.722   1.844  1.9323  0.6720 -2.6258
 2208SOL     OW10539   0.694   7.151   1.505  0.1309  0.1406 -0.1486
 2208SOL    HW110540   0.605   7.131   1.475  0.0404  0.8287 -0.3673
 2208SOL    HW210541   0.731   7.203   1.434  0.2282  1.0381  0.5406
 2209SOL     OW10542   4.559   1.856   2.276 -0.1859  0.4124 -0.0589
 2209SOL    HW110543   4.507   1.923   2.231 -0.1720  0.9790  0.7417
 2209SOL    HW210544   4.645   1.861   2.235 -0.9632 -1.1637 -2.0291
 2210SOL     OW10545   6.060   8.907   9.665  0.1575  0.4352 -0.1180
 2210SOL    HW110546   6.087   8.993   9.699  0.1143  0.4272 -0.0635
 2210SOL    HW210547   6.140   8.855   9.667  0.5710  0.9561 -1.7153
 2211SOL     OW10548   3.016   0.350   6.251 -0.1644  0.5083  0.2509
 2211SOL    HW110549   2.941   0.317   6.301 -0.9451  1.1841 -0.4546
 2211SOL    HW210550   3.091   0.302   6.287 -1.1690 -1.6571 -0.3550
 2212SOL     OW10551   2.623   5.933   1.982 -0.4077  0.2040  1.0056
 2212SOL    HW110552   2.695   5.995   1.994 -0.3699  0.6056 -0.9395
 2212SOL    HW210553   2.544   5.988   1.985 -0.4598  0.1496  0.7189
 2213SOL     OW10554   5.072   9.734   3.677 -0.2311 -0.2287  0.4500
 2213SOL    HW110555   5.130   9.701   3.608  1.6560  0.1699  1.7604
 2213SOL    HW210556   5.011   9.792   3.631  1.1641  0.2760 -0.8555
 2214SOL     OW10557   1.598   1.959   6.107 -0.2943  0.2451  0.2027
 2214SOL    HW110558   1.561   1.878   6.142 -1.2464 -0.0782 -1.4206
 2214SOL    HW210559   1.537   1.985   6.037  0.3129  2.0314  0.2766
 2215SOL     OW10560   2.639   2.349   0.875 -0.1701 -0.4607  0.7010
 2215SOL    HW110561   2.642   2.253   0.873  0.8071 -0.4318  0.4070
 2215SOL    HW210562   2.730   2.376   0.876 -0.3217  0.5552 -2.5915
 2216SOL     OW10563   8.313   2.554   3.016 -0.2119  0.2110 -0.0413
 2216SOL    HW110564   8.405   2.580   3.022  0.2488 -1.5147  1.6330
 2216SOL    HW210565   8.264   2.636   3.027  1.0700  1.3059 -1.9241
 2217SOL     OW10566   9.366   2.420   9.993 -0.5645  0.0996 -0.4041
 2217SOL    HW110567   9.357   2.368   9.913 -0.0975 -0.0497 -0.3583
 2217SOL    HW210568   9.294   2.483   9.988 -1.2041 -0.6117 -0.4151
 2218SOL     OW10569   5.179   1.403   9.992  0.4094  0.5966 -0.0012
 2218SOL    HW110570   5.168   1.446   9.907  0.3056  1.1958  0.3105
 2218SOL    HW210571   5.090   1.396  10.027  0.4478  0.3148  0.0437
 2219SOL     OW10572   0.498   0.212   1.341 -0.1924 -0.0966  0.5122
 2219SOL    HW110573   0.456   0.191   1.258 -1.5651 -0.3371  1.2430
 2219SOL    HW210574   0.493   0.131   1.392  1.3086 -0.1737  0.5802
 2220SOL     OW10575   7.518   4.427   3.376 -0.3362 -0.3340  0.0926
 2220SOL    HW110576   7.596   4.470   3.343 -0.4526  0.4479  0.7866
 2220SOL    HW210577   7.525   4.434   3.471 -1.4648  0.1773  0.1622
 2221SOL     OW10578   2.015   8.489   9.367  0.8153 -0.0275 -0.3007
 2221SOL    HW110579   1.955   8.545   9.318 -1.4013 -0.3920  1.8015
 2221SOL    HW210580   2.007   8.403   9.325  0.6718  0.1731 -0.6868
 2222SOL     OW10581   9.559   8.608   3.223 -0.8466  0.9327  0.7845
 2222SOL    HW110582   9.509   8.671   3.275  1.2862  0.1103  4.1202
 2222SOL    HW210583   9.643   8.600   3.268  0.2887 -1.7471 -1.4701
 2223SOL     OW10584   7.188   4.398   6.571 -0.1990  0.3194 -0.4895
 2223SOL    HW110585   7.240   4.336   6.520 -0.0929 -2.9212  3.1516
 2223SOL    HW210586   7.097   4.374   6.553 -0.3197  1.6198 -1.8082
 2224SOL     OW10587   0.570   7.790   2.055  0.4319 -0.4115  0.3242
 2224SOL    HW110588   0.517   7.770   2.133  1.0145 -0.1062  0.8030
 2224SOL    HW210589   0.660   7.796   2.088  0.5516  0.8443 -0.1668
 2225SOL     OW10590  10.007   0.097   8.935 -0.1212 -0.2681  0.4288
 2225SOL    HW110591  10.046   0.066   8.854  0.4873 -0.4288  0.7772
 2225SOL    HW210592   9.938   0.033   8.955  1.1449 -1.4595  1.1594
 2226SOL     OW10593   7.228   5.898   0.538 -0.0626  0.0698 -0.1833
 2226SOL    HW110594   7.231   5.904   0.633 -0.8666 -0.0764 -0.1361
 2226SOL    HW210595   7.222   5.804   0.520  0.1484  0.0942 -0.3769
 2227SOL     OW10596   6.490   9.597  10.144 -0.0179 -0.5092  0.0727
 2227SOL    HW110597   6.542   9.532  10.096 -1.0739 -1.6611  0.4479
 2227SOL    HW210598   6.551   9.632  10.209  0.5454 -1.1960 -0.0737
 2228SOL     OW10599  10.047   8.314   5.578 -0.5379  0.2896  0.2415
 2228SOL    HW110600  10.129   8.341   5.618  0.9266 -1.4765 -1.3524
 2228SOL    HW210601   9.980   8.365   5.622  1.2849  0.9296  2.4340
 2229SOL     OW10602   9.506   9.960   1.179  0.4169 -0.5259 -0.1429
 2229SOL    HW110603   9.584   9.914   1.147  0.1916 -0.2975 -1.0472
 2229SOL    HW210604   9.509  10.045   1.135 -0.8706 -0.8982 -1.0110
 2230SOL     OW10605   9.130   4.855   3.081  0.0866 -0.4925  0.4716
 2230SOL    HW110606   9.074   4.923   3.045 -0.3631 -0.7043  0.7539
 2230SOL    HW210607   9.174   4.816   3.006  1.3013  0.9354  0.4153
 2231SOL     OW10608   2.812   9.298   7.799  0.4833 -0.6866 -0.2054
 2231SOL    HW110609   2.876   9.328   7.863 -0.1613 -2.7686  1.5106
 2231SOL    HW210610   2.766   9.379   7.772  1.7208  0.4098  0.8548
 2232SOL     OW10611   4.049   6.913   7.526  0.1756  0.0611  0.5250
 2232SOL    HW110612   3.982   6.980   7.514  0.1864 -0.0818 -0.3768
 2232SOL    HW210613   4.072   6.886   7.437  1.0708 -0.2466  0.8448
 2233SOL     OW10614   0.132   8.269   6.275  0.1684 -0.8645  0.6325
 2233SOL    HW110615   0.125   8.296   6.183  1.1378 -1.6479  0.3097
 2233SOL    HW210616   0.053   8.304   6.316 -0.6379 -1.0774 -0.6529
 2234SOL     OW10617   4.009   6.672   2.391 -0.5927  0.6548 -0.5541
 2234SOL    HW110618   4.100   6.682   2.417 -0.6662  0.5894 -0.2656
 2234SOL    HW210619   3.972   6.759   2.399 -0.8387  0.4748  0.4403
 2235SOL     OW10620   5.612   1.003   3.274  0.9029 -0.1706 -0.2129
 2235SOL    HW110621   5.598   0.928   3.216  0.3816 -0.5516  0.3953
 2235SOL    HW210622   5.662   1.065   3.221 -2.0675  0.7825 -2.1429
 2236SOL     OW10623   0.099   5.253   9.473  0.4676  0.6647 -0.3522
 2236SOL    HW110624   0.182   5.240   9.518 -0.5209 -1.3598  1.0451
 2236SOL    HW210625   0.046   5.304   9.535 -0.1356 -0.1735 -0.1606
 2237SOL     OW10626   7.086   3.253   0.865 -0.3842 -0.2722 -0.3658
 2237SOL    HW110627   7.037   3.216   0.939 -0.6225 -0.9157 -0.8415
 2237SOL    HW210628   7.032   3.327   0.837  0.7102  1.3022  1.3843
 2238SOL     OW10629   4.320   2.189   2.514 -0.7009  0.0044  0.4985
 2238SOL    HW110630   4.360   2.235   2.441 -0.5129 -1.4072 -0.3160
 2238SOL    HW210631   4.234   2.162   2.482 -0.9639  0.1199  1.0932
 2239SOL     OW10632   9.024   9.360   6.712 -0.2685  0.0128 -0.3516
 2239SOL    HW110633   9.024   9.281   6.657 -2.4801 -0.4087  0.1734
 2239SOL    HW210634   8.988   9.429   6.656 -0.3219  0.1448 -0.1572
 2240SOL     OW10635   2.223   9.150   6.329  0.3933  0.0161  0.1747
 2240SOL    HW110636   2.311   9.140   6.292  0.6542 -0.3370  0.8851
 2240SOL    HW210637   2.177   9.071   6.299  1.0132 -0.9680  1.7182
 2241SOL     OW10638   1.031   1.462   9.630  0.2299  0.2726 -0.3504
 2241SOL    HW110639   1.119   1.477   9.597  0.3685  1.4642  0.5176
 2241SOL    HW210640   1.027   1.509   9.713 -1.1733  0.0948 -0.2811
 2242SOL     OW10641   0.284   2.424   8.115 -0.3800 -0.1430 -0.2561
 2242SOL    HW110642   0.367   2.400   8.075 -0.7849 -2.1836 -0.0020
 2242SOL    HW210643   0.299   2.417   8.209 -0.9780 -1.2293 -0.2179
 2243SOL     OW10644   3.682   7.936   4.956 -0.2185 -0.3184 -0.0472
 2243SOL    HW110645   3.607   7.996   4.958  0.3528  0.4039  0.7805
 2243SOL    HW210646   3.644   7.849   4.945 -0.9588  0.3213 -4.4265
 2244SOL     OW10647   6.757   9.013   9.789  0.2695 -0.3091 -0.6788
 2244SOL    HW110648   6.766   8.945   9.723  0.4463 -1.1888  0.2329
 2244SOL    HW210649   6.791   8.974   9.870 -0.9876  0.3292  0.2054
 2245SOL     OW10650   0.524   2.253   2.940  0.3188 -0.5253  0.1484
 2245SOL    HW110651   0.545   2.253   2.847  0.8721  0.8637  0.2601
 2245SOL    HW210652   0.441   2.205   2.946 -0.7452  1.0523 -1.2991
 2246SOL     OW10653   2.846   6.540   4.470 -0.3398 -0.3563 -0.2275
 2246SOL    HW110654   2.891   6.574   4.393  2.4855 -2.8803  0.1456
 2246SOL    HW210655   2.861   6.607   4.538 -1.0450  0.8877 -1.2507
 2247SOL     OW10656   9.690   7.337   9.735  0.0193 -0.4419 -0.4028
 2247SOL    HW110657   9.671   7.334   9.641 -0.5184 -0.9519 -0.2800
 2247SOL    HW210658   9.628   7.276   9.774 -0.9817  1.1019  0.5049
 2248SOL     OW10659   6.767   1.923   4.899 -0.1350 -0.0752  0.4040
 2248SOL    HW110660   6.820   1.915   4.820 -1.0110  0.1464 -0.2196
 2248SOL    HW210661   6.677   1.932   4.867 -0.7355 -1.7133  1.4481
 2249SOL     OW10662   9.508   2.108   4.553 -0.2396  0.0488 -0.3022
 2249SOL    HW110663   9.476   2.194   4.579 -0.1788  0.5153 -1.6974
 2249SOL    HW210664   9.502   2.107   4.458 -1.2894 -1.9034 -0.2880
 2250SOL     OW10665   6.700   4.263   8.397  0.1353  0.1937  0.7051
 2250SOL    HW110666   6.707   4.168   8.393 -1.5181  0.1041 -1.1688
 2250SOL    HW210667   6.771   4.289   8.457  1.2887 -2.0988  0.4532
 2251SOL     OW10668   8.976   2.026   6.451  0.1542  0.0640  0.0069
 2251SOL    HW110669   8.939   2.049   6.536  1.1375 -0.2678  0.5467
 2251SOL    HW210670   8.957   1.933   6.441  1.5018 -0.3204  0.6774
 2252SOL     OW10671   5.581   5.602   9.528  0.4804 -0.4930  0.4114
 2252SOL    HW110672   5.517   5.531   9.518  1.1069 -1.0853  0.5341
 2252SOL    HW210673   5.656   5.574   9.476 -0.4244  1.5596 -2.2587
 2253SOL     OW10674   0.017   9.252   6.044  0.1198  0.3669 -0.8801
 2253SOL    HW110675  -0.072   9.230   6.018  0.0676 -0.0084 -0.3980
 2253SOL    HW210676   0.007   9.322   6.109  0.0277 -1.1988  0.8701
 2254SOL     OW10677   4.195   7.142   6.168  0.3323 -0.3192 -0.3759
 2254SOL    HW110678   4.252   7.092   6.226 -0.3049 -0.3048  0.2797
 2254SOL    HW210679   4.146   7.076   6.119 -1.3612 -0.4208  1.3195
 2255SOL     OW10680   7.839   1.335   3.975  0.4028 -0.0965 -0.4186
 2255SOL    HW110681   7.891   1.364   3.901 -1.1389 -1.4788 -2.1250
 2255SOL    HW210682   7.828   1.241   3.962  0.7990 -0.5776  2.0630
 2256SOL     OW10683   5.091   2.402   0.702 -0.1896  0.3607 -0.1696
 2256SOL    HW110684   5.178   2.393   0.662  0.6865 -0.1932  1.7170
 2256SOL    HW210685   5.068   2.313   0.728 -1.4212  0.4806 -0.8244
 2257SOL     OW10686   9.662   6.459   7.110 -0.2700  0.0254  0.4079
 2257SOL    HW110687   9.570   6.443   7.090 -0.5133  0.3969  1.1765
 2257SOL    HW210688   9.680   6.545   7.073 -0.5087  0.3776  1.0897
 2258SOL     OW10689   4.419   0.594   0.434 -0.1272 -0.7187  0.2220
 2258SOL    HW110690   4.452   0.601   0.523 -0.6221 -0.8954  0.4226
 2258SOL    HW210691   4.416   0.684   0.402  0.8075 -0.7241  0.1017
 2259SOL     OW10692   2.767   9.247   3.264 -0.2225  0.2987  0.4915
 2259SOL    HW110693   2.855   9.250   3.227  0.1697  0.5071  1.3917
 2259SOL    HW210694   2.710   9.280   3.195  0.3734 -0.0922 -0.1965
 2260SOL     OW10695   9.724   0.738   2.710 -0.6351 -0.3071 -0.0257
 2260SOL    HW110696   9.697   0.827   2.688  0.4270 -0.0622 -0.3844
 2260SOL    HW210697   9.648   0.684   2.688 -0.8479  0.3590 -0.9959
 2261SOL     OW10698   6.397   8.938   1.459  0.0055 -0.2620 -0.1086
 2261SOL    HW110699   6.371   9.021   1.419  0.0605 -0.2384 -0.0940
 2261SOL    HW210700   6.409   8.958   1.551  1.1685 -0.0170 -0.3009
 2262SOL     OW10701   8.476   7.745   1.336 -0.3655 -0.4251  0.5492
 2262SOL    HW110702   8.426   7.826   1.332 -1.7027 -1.2461 -0.5369
 2262SOL    HW210703   8.537   7.749   1.263  1.4778  0.7038  2.0424
 2263SOL     OW10704   3.554   4.898   8.260 -0.5086 -0.4468  0.1372
 2263SOL    HW110705   3.625   4.960   8.277 -0.0193 -1.1332  0.6489
 2263SOL    HW210706   3.588   4.841   8.191 -0.0017 -1.6258  1.3084
 2264SOL     OW10707   5.527   4.891   0.960 -0.3216 -0.2795  0.0908
 2264SOL    HW110708   5.620   4.867   0.965 -0.5015 -1.0166  0.0651
 2264SOL    HW210709   5.507   4.885   0.867 -0.7922 -1.7530  0.2583
 2265SOL     OW10710   5.600   6.024   4.156  0.8471 -0.4089  0.1289
 2265SOL    HW110711   5.599   6.107   4.108 -0.0597 -1.2826 -1.4353
 2265SOL    HW210712   5.639   5.961   4.095  3.2059 -0.8347  1.9208
 2266SOL     OW10713   6.491   1.886   3.397 -0.3782 -0.4702  0.1513
 2266SOL    HW110714   6.471   1.806   3.349  1.2224  0.2523 -1.8852
 2266SOL    HW210715   6.553   1.859   3.464 -0.2146 -1.0206 -0.2109
 2267SOL     OW10716   2.665   1.361   9.320 -0.2585  0.6324 -0.3817
 2267SOL    HW110717   2.745   1.324   9.359 -0.5792  0.4414  0.1088
 2267SOL    HW210718   2.626   1.412   9.391 -1.6713 -0.9962  0.0806
 2268SOL     OW10719   9.190   5.722   9.238 -0.2474 -0.5971 -0.1798
 2268SOL    HW110720   9.122   5.746   9.301 -0.4078  1.1314 -0.9618
 2268SOL    HW210721   9.245   5.660   9.285 -1.3679 -0.6995  1.0577
 2269SOL     OW10722   5.183  10.081   6.700  0.2038 -0.2913 -0.4100
 2269SOL    HW110723   5.118  10.113   6.638  0.5104  1.3968  0.0899
 2269SOL    HW210724   5.139  10.009   6.746 -1.5436  1.1389  0.2826
 2270SOL     OW10725   7.446   3.182   0.411 -0.1368  0.0870 -0.8349
 2270SOL    HW110726   7.357   3.148   0.421 -0.0428 -0.6783 -2.3224
 2270SOL    HW210727   7.465   3.171   0.318  0.8732  1.8814 -0.8720
 2271SOL     OW10728   4.591   3.512   7.248  0.2503 -0.6986  0.2996
 2271SOL    HW110729   4.517   3.483   7.302 -0.7896 -0.8875 -1.1826
 2271SOL    HW210730   4.560   3.591   7.205  1.3833 -0.0641  0.6154
 2272SOL     OW10731   6.792   0.268   3.252  0.1230  0.6403 -0.1009
 2272SOL    HW110732   6.857   0.232   3.192 -0.0761 -0.8008  0.5215
 2272SOL    HW210733   6.709   0.263   3.203  0.0287 -0.1487  0.1288
 2273SOL     OW10734   1.956   1.176   2.709  0.2708  0.4044  0.2141
 2273SOL    HW110735   1.906   1.106   2.751  0.4740 -0.5500 -1.0796
 2273SOL    HW210736   2.044   1.140   2.699  0.0892  0.3578 -1.5242
 2274SOL     OW10737   0.055   4.884   1.190  0.1219  0.2038  0.9915
 2274SOL    HW110738  -0.026   4.914   1.232 -0.0931 -0.3478  0.9845
 2274SOL    HW210739   0.107   4.963   1.177 -1.5050  0.9882 -1.4002
 2275SOL     OW10740   0.414   0.246   7.934 -0.5685 -0.3091 -0.1402
 2275SOL    HW110741   0.375   0.329   7.962 -0.4096 -0.2323 -0.1453
 2275SOL    HW210742   0.509   0.261   7.940 -0.5269 -0.9150  1.1478
 2276SOL     OW10743   3.361   8.783   2.761 -0.1224  0.3256 -0.4201
 2276SOL    HW110744   3.368   8.717   2.830 -1.0916  0.5813 -0.0485
 2276SOL    HW210745   3.395   8.863   2.801 -3.2394  1.2035  0.8646
 2277SOL     OW10746   5.681   7.521   5.331 -0.0868  0.1585 -0.1404
 2277SOL    HW110747   5.629   7.490   5.405  1.4493  1.4551  1.5434
 2277SOL    HW210748   5.770   7.491   5.350  0.6319  1.8782 -0.6274
 2278SOL     OW10749   5.803   8.840   8.127  0.2753 -0.3288  0.0396
 2278SOL    HW110750   5.768   8.867   8.043 -1.0807 -1.6715  0.1199
 2278SOL    HW210751   5.770   8.750   8.139  0.6893 -0.2832  1.8441
 2279SOL     OW10752   4.089   6.712   8.169  0.6666 -0.1709 -0.0975
 2279SOL    HW110753   4.145   6.647   8.210  1.0241 -0.3927 -0.9306
 2279SOL    HW210754   4.004   6.668   8.160  1.1088 -0.8014 -1.3522
 2280SOL     OW10755   3.617   8.950   3.948 -0.3133 -0.0806 -0.4548
 2280SOL    HW110756   3.551   8.969   3.881 -0.6433  0.4955  0.0291
 2280SOL    HW210757   3.599   8.860   3.974 -1.1564  0.1938 -0.0563
 2281SOL     OW10758   1.377   9.697   9.069  0.4412 -0.7843  0.7575
 2281SOL    HW110759   1.470   9.721   9.064 -0.1493  1.6220 -0.4807
 2281SOL    HW210760   1.355   9.670   8.980 -0.6231  1.4072  0.2847
 2282SOL     OW10761   7.480   3.922   8.665 -0.2762  0.1046 -0.0644
 2282SOL    HW110762   7.404   3.904   8.721 -0.3719 -2.2534 -0.8368
 2282SOL    HW210763   7.539   3.848   8.681  1.8242  1.7983  0.3959
 2283SOL     OW10764   5.667   5.177   5.405 -0.2709 -0.4605  0.3256
 2283SOL    HW110765   5.717   5.143   5.331 -0.9778  1.1300 -0.9424
 2283SOL    HW210766   5.700   5.129   5.480  0.9382 -1.6694 -0.9200
 2284SOL     OW10767   5.922   6.415   9.312 -0.1833 -0.2390 -0.0037
 2284SOL    HW110768   5.936   6.379   9.400  2.0462 -0.9921 -0.6208
 2284SOL    HW210769   5.828   6.432   9.309 -0.3426 -0.2563  2.4972
 2285SOL     OW10770   7.153   9.110   1.703 -0.2140 -0.3629 -0.3421
 2285SOL    HW110771   7.065   9.125   1.738 -0.5225 -0.6637 -0.9642
 2285SOL    HW210772   7.140   9.045   1.633  0.5048 -0.4236 -0.4252
 2286SOL     OW10773   5.014   1.517   1.882 -0.2452  0.0035  0.4382
 2286SOL    HW110774   5.068   1.572   1.825  1.1660  0.9989  2.6140
 2286SOL    HW210775   4.924   1.543   1.862 -0.0494 -1.3829 -2.9669
 2287SOL     OW10776   5.075   1.761   8.371 -0.0617 -0.3871  0.6273
 2287SOL    HW110777   5.137   1.820   8.413  1.1665 -0.9615 -0.3282
 2287SOL    HW210778   5.026   1.816   8.310 -0.2615 -0.0030  1.1270
 2288SOL     OW10779   9.174   3.730   0.340  0.3783  0.1480 -0.1532
 2288SOL    HW110780   9.153   3.639   0.316  1.0209 -0.2172  0.5982
 2288SOL    HW210781   9.104   3.756   0.399  1.6245 -0.8683  1.8913
 2289SOL     OW10782   6.100   0.189   6.691  0.0331 -0.0395 -0.2510
 2289SOL    HW110783   6.151   0.144   6.623 -1.5113  0.7431 -2.0423
 2289SOL    HW210784   6.058   0.119   6.740  3.6142 -0.7848  2.1107
 2290SOL     OW10785   9.604   1.186   9.880  0.1902  0.3619 -0.0643
 2290SOL    HW110786   9.564   1.191   9.967 -1.8229  1.3509 -0.9951
 2290SOL    HW210787   9.616   1.092   9.865 -1.4274  0.0371  0.4563
 2291SOL     OW10788   5.150   6.501   6.424 -0.2426 -0.4101  0.7361
 2291SOL    HW110789   5.145   6.460   6.511  0.9398 -0.7786  0.6584
 2291SOL    HW210790   5.116   6.435   6.364 -2.1831  0.2865  1.0131
 2292SOL     OW10791   5.031   5.575   9.837  0.1318 -0.2158  0.0827
 2292SOL    HW110792   5.002   5.602   9.924 -0.5105 -0.5943 -0.0105
 2292SOL    HW210793   4.971   5.618   9.777 -0.3596 -1.1474 -0.1051
 2293SOL     OW10794   7.238   0.705   7.867  0.3112 -0.3357 -0.1675
 2293SOL    HW110795   7.322   0.734   7.904 -0.2824  0.4392  0.6166
 2293SOL    HW210796   7.242   0.732   7.776  0.3642  0.9720  0.2011
 2294SOL     OW10797   0.935   2.369   6.150 -0.1440 -0.0983  0.5365
 2294SOL    HW110798   0.974   2.393   6.066  1.9118  1.0175  1.7227
 2294SOL    HW210799   0.863   2.431   6.162  1.4606  1.8317  0.8893
 2295SOL     OW10800   2.250   7.073   7.682 -0.0280 -0.0025  0.2843
 2295SOL    HW110801   2.173   7.087   7.738  0.9525  1.0988  1.4255
 2295SOL    HW210802   2.285   6.989   7.711 -1.4144 -1.0815 -1.0361
 2296SOL     OW10803   6.924   0.197   7.180 -0.0781 -0.4926  0.2634
 2296SOL    HW110804   6.872   0.231   7.107 -1.1679 -1.9270  0.3369
 2296SOL    HW210805   6.902   0.104   7.184  0.0615 -0.4743  2.3407
 2297SOL     OW10806   4.402   3.970   3.441  0.1310 -0.0615 -0.4350
 2297SOL    HW110807   4.316   3.947   3.476  1.2260 -1.9700  1.1657
 2297SOL    HW210808   4.405   4.066   3.447 -1.8089  0.0306 -0.3833
 2298SOL     OW10809   4.273   5.580   5.714  0.1238  0.0853 -0.0591
 2298SOL    HW110810   4.225   5.595   5.634 -1.6397 -2.4444  0.4171
 2298SOL    HW210811   4.365   5.597   5.691 -0.7037  3.6126 -1.3599
 2299SOL     OW10812   2.872   3.239   5.224 -0.3945 -0.1010 -0.3973
 2299SOL    HW110813   2.863   3.277   5.312  0.1002  1.7953 -1.1194
 2299SOL    HW210814   2.783   3.239   5.189 -0.2380  1.7411 -0.8838
 2300SOL     OW10815   9.033   3.172   4.488 -0.0714 -0.6857  0.1844
 2300SOL    HW110816   8.955   3.214   4.525  1.0394  0.8586  0.8575
 2300SOL    HW210817   9.037   3.204   4.398  0.5163  0.3376  0.5589
 2301SOL     OW10818   5.538   6.726   9.113  0.5859 -0.3184  0.5697
 2301SOL    HW110819   5.634   6.727   9.112  0.6318  1.5527  1.5221
 2301SOL    HW210820   5.514   6.755   9.025  0.8778 -0.8027  0.3216
 2302SOL     OW10821   4.936   1.820   2.810  0.0549  0.1518 -0.4431
 2302SOL    HW110822   4.917   1.839   2.718 -0.9954 -1.6351 -0.6288
 2302SOL    HW210823   4.874   1.751   2.834 -1.6421  2.4016  2.4158
 2303SOL     OW10824   8.838   4.146   9.437 -0.2064 -0.2031  0.3698
 2303SOL    HW110825   8.841   4.075   9.502 -3.5486 -1.9264 -1.1194
 2303SOL    HW210826   8.766   4.202   9.465 -0.3763  0.1788 -0.7756
 2304SOL     OW10827   8.731   3.476   5.776 -0.4817 -0.2466  0.5838
 2304SOL    HW110828   8.741   3.569   5.753 -1.7187  0.0579  1.2020
 2304SOL    HW210829   8.696   3.436   5.696 -1.6856  0.1909  0.8652
 2305SOL     OW10830   9.641   9.048   1.669 -0.0751  0.5502  0.7133
 2305SOL    HW110831   9.693   9.010   1.598  1.2493  0.0232  1.9135
 2305SOL    HW210832   9.560   8.996   1.670 -0.1446  0.6119 -0.4316
 2306SOL     OW10833   3.477   2.962   3.109  0.2218  0.0471 -0.1922
 2306SOL    HW110834   3.450   3.004   3.027 -0.5826  0.4752  0.2769
 2306SOL    HW210835   3.561   2.920   3.088 -0.1889 -0.2368 -1.3546
 2307SOL     OW10836   8.322   2.705   4.583  0.3054 -0.1654  0.0867
 2307SOL    HW110837   8.341   2.613   4.604 -1.3161 -0.8210 -1.0596
 2307SOL    HW210838   8.355   2.754   4.659  0.7207 -1.7437  0.9781
 2308SOL     OW10839   3.453   5.498   6.128  0.0921  0.8529 -0.0110
 2308SOL    HW110840   3.464   5.513   6.222  1.5250  2.3362 -0.3733
 2308SOL    HW210841   3.501   5.417   6.111  0.7279  1.1394  0.3763
 2309SOL     OW10842   8.557   1.443   3.894 -0.5560 -0.4151 -0.2374
 2309SOL    HW110843   8.514   1.463   3.977  1.4776 -1.3696  1.1282
 2309SOL    HW210844   8.638   1.397   3.919  0.9257  0.6683 -2.6801
 2310SOL     OW10845   8.024   2.306   2.155 -1.1285 -0.0318 -0.3464
 2310SOL    HW110846   8.070   2.362   2.092 -1.8092 -0.2025 -1.0087
 2310SOL    HW210847   8.090   2.287   2.222 -0.2702 -0.1652 -1.1960
 2311SOL     OW10848   9.202   6.714   9.994  0.5447  0.7540 -0.4285
 2311SOL    HW110849   9.140   6.648   9.963  1.1650 -0.7184  1.3290
 2311SOL    HW210850   9.241   6.749   9.914 -1.7014  0.9334 -1.5400
 2312SOL     OW10851   2.315   3.522   4.197  0.5282 -0.2583 -0.5046
 2312SOL    HW110852   2.342   3.594   4.140  1.8357  0.5545  1.0849
 2312SOL    HW210853   2.397   3.484   4.229 -0.1173 -2.4679 -1.2393
 2313SOL     OW10854   7.815   1.166   4.253  0.6805  0.2050  0.2622
 2313SOL    HW110855   7.802   1.222   4.329 -0.3818  0.8293 -0.3586
 2313SOL    HW210856   7.852   1.224   4.186 -0.0319  0.0811 -0.2480
 2314SOL     OW10857   8.967  10.055   3.003 -0.2576 -0.0835  0.6096
 2314SOL    HW110858   8.902  10.087   2.940  0.7682  1.5600  0.3435
 2314SOL    HW210859   8.995   9.970   2.968 -1.2971 -0.2077  0.0410
 2315SOL     OW10860   0.639   5.549   1.854 -0.1797  0.1716  0.2480
 2315SOL    HW110861   0.661   5.601   1.931 -2.1597 -0.0469  1.0102
 2315SOL    HW210862   0.724   5.520   1.820  0.7870  1.0231  1.8017
 2316SOL     OW10863   0.404   2.227   5.071  0.4669 -0.2344 -0.3256
 2316SOL    HW110864   0.375   2.192   4.987 -1.1193 -2.3285  0.9794
 2316SOL    HW210865   0.328   2.276   5.104  1.3532  1.2683 -0.4141
 2317SOL     OW10866   2.512   8.143   3.061 -0.1521  0.1827  0.9269
 2317SOL    HW110867   2.537   8.070   3.117  0.1940 -1.5125 -1.3199
 2317SOL    HW210868   2.553   8.220   3.101  1.2132 -1.1710  2.2211
 2318SOL     OW10869   5.252   4.285   3.757 -0.3073  0.3280 -0.2562
 2318SOL    HW110870   5.219   4.329   3.679 -0.4420  0.7209  0.0220
 2318SOL    HW210871   5.254   4.353   3.824  2.2243  0.6778 -0.5714
 2319SOL     OW10872   5.472   6.766   6.016 -0.0116  0.1874 -0.2481
 2319SOL    HW110873   5.525   6.751   6.094  0.2499  0.5568 -0.3527
 2319SOL    HW210874   5.418   6.842   6.038 -0.7666 -0.4052 -0.0078
 2320SOL     OW10875   8.760   7.709   8.135  0.0548 -0.0431 -0.0237
 2320SOL    HW110876   8.684   7.766   8.140  0.6586  0.8177 -0.4183
 2320SOL    HW210877   8.801   7.731   8.051  0.4304 -0.8966 -0.0808
 2321SOL     OW10878   1.158   9.493   9.164  0.4764  0.6640 -0.3070
 2321SOL    HW110879   1.109   9.442   9.099 -0.4923  1.2616 -0.0527
 2321SOL    HW210880   1.187   9.571   9.116  2.7805 -0.4859 -0.9712
 2322SOL     OW10881   8.684   5.755   3.812  0.3504 -0.5230 -0.0657
 2322SOL    HW110882   8.690   5.697   3.736 -1.0800  0.6642 -1.1426
 2322SOL    HW210883   8.742   5.828   3.791  2.9464 -1.9281  1.7343
 2323SOL     OW10884   2.425   6.127   1.963 -0.3841 -0.1843 -0.0855
 2323SOL    HW110885   2.417   6.209   2.011  0.0279  0.2844 -0.8026
 2323SOL    HW210886   2.385   6.144   1.878  0.7237 -0.3527 -0.6632
 2324SOL     OW10887   2.184   6.704   6.026 -0.0499  0.5279 -0.6588
 2324SOL    HW110888   2.225   6.743   5.949 -0.0054  1.2513 -0.2737
 2324SOL    HW210889   2.208   6.762   6.098 -1.3859  0.7257 -0.3552
 2325SOL     OW10890   7.304   1.196   0.923 -0.1447  0.5926  0.0693
 2325SOL    HW110891   7.377   1.174   0.865 -1.0074  0.0082 -0.8403
 2325SOL    HW210892   7.299   1.124   0.985  1.0605  1.4331  1.1978
 2326SOL     OW10893   5.561   3.034  10.070  0.2581 -0.1671  0.1116
 2326SOL    HW110894   5.656   3.035  10.077  0.3855  0.7831 -1.3804
 2326SOL    HW210895   5.531   3.092  10.141  0.8150  0.0683  0.1559
 2327SOL     OW10896   1.375   9.928   3.027  0.4222  0.0482  0.0600
 2327SOL    HW110897   1.336   9.872   2.960  0.0030  1.5832 -1.0265
 2327SOL    HW210898   1.301   9.976   3.064  0.6598 -0.6882  1.5973
 2328SOL     OW10899   2.192   5.874   5.396 -0.3757 -0.2919  0.2110
 2328SOL    HW110900   2.239   5.900   5.317  1.1952  2.3395  1.8400
 2328SOL    HW210901   2.244   5.802   5.432 -1.2805 -1.7342 -1.2095
 2329SOL     OW10902   5.084   2.733   5.272 -0.8311 -0.1818  0.0209
 2329SOL    HW110903   5.009   2.748   5.214 -0.4056 -1.6485 -0.9969
 2329SOL    HW210904   5.158   2.771   5.225 -0.6244 -0.5909  0.0094
 2330SOL     OW10905   0.953   4.588   6.036 -0.6190 -0.1524  0.3188
 2330SOL    HW110906   0.914   4.570   6.121 -0.7083  0.0268  0.3164
 2330SOL    HW210907   1.026   4.526   6.029  0.9755  1.4851  1.6145
 2331SOL     OW10908   5.502   6.357   1.949  0.3356 -0.4263  0.3231
 2331SOL    HW110909   5.436   6.304   1.905  1.3002 -1.0443 -0.3886
 2331SOL    HW210910   5.464   6.374   2.036 -0.9525 -0.3751 -0.2237
 2332SOL     OW10911   7.550   3.223   6.940  0.3271 -0.6451  0.2497
 2332SOL    HW110912   7.478   3.175   6.981  1.3264 -3.0555 -0.6254
 2332SOL    HW210913   7.515   3.251   6.855 -0.6290  1.3527  1.2087
 2333SOL     OW10914   8.692   9.750   3.532 -0.0438  0.0071  0.7282
 2333SOL    HW110915   8.676   9.790   3.617 -0.5052  1.6829 -0.0955
 2333SOL    HW210916   8.635   9.798   3.472  0.0490 -1.3233 -0.4908
 2334SOL     OW10917   8.399   3.783   5.339  0.2846 -0.6046 -0.2716
 2334SOL    HW110918   8.326   3.778   5.277  0.6155 -0.1662 -0.7107
 2334SOL    HW210919   8.369   3.841   5.408 -0.9329 -2.8295  1.1834
 2335SOL     OW10920   1.194   6.294   6.221 -0.4684 -0.2787  0.1487
 2335SOL    HW110921   1.254   6.358   6.260 -0.9557  1.7276 -2.1514
 2335SOL    HW210922   1.242   6.211   6.224  2.1971  1.0923 -0.9752
 2336SOL     OW10923   4.717   4.554   0.130 -0.3719 -0.2866 -0.3693
 2336SOL    HW110924   4.727   4.643   0.163 -0.4479 -0.7736  1.0642
 2336SOL    HW210925   4.676   4.506   0.202  0.2519 -1.6231 -0.8569
 2337SOL     OW10926   0.026   1.393   5.749 -0.1489 -0.2971 -0.4203
 2337SOL    HW110927   0.004   1.407   5.657  1.8660 -2.9604 -1.4548
 2337SOL    HW210928  -0.043   1.334   5.781 -0.6047  0.2743 -0.3304
 2338SOL     OW10929   5.304   8.729   3.806 -0.1238 -0.9045  0.1172
 2338SOL    HW110930   5.245   8.679   3.862  0.4487 -0.6199  0.9980
 2338SOL    HW210931   5.349   8.788   3.866  0.1212 -0.2178 -0.7280
 2339SOL     OW10932   5.179   7.067   3.634  0.7181 -0.1629 -0.2117
 2339SOL    HW110933   5.247   7.050   3.569 -1.9843  1.1258 -3.7155
 2339SOL    HW210934   5.116   6.996   3.624  0.8309 -0.6881  2.0977
 2340SOL     OW10935   4.489   4.715   7.181 -0.4639 -0.1018  0.2500
 2340SOL    HW110936   4.565   4.748   7.228 -0.7993  0.6113  0.3096
 2340SOL    HW210937   4.497   4.619   7.186  1.5167 -0.1098 -1.4956
 2341SOL     OW10938   5.021   7.902   0.121  0.1715 -0.3105  0.2734
 2341SOL    HW110939   5.097   7.896   0.062 -0.7967  0.2321 -1.0857
 2341SOL    HW210940   5.003   7.811   0.146  0.3767 -0.5987 -0.5842
 2342SOL     OW10941   4.574   6.539   9.515 -0.4174 -0.2151  0.0729
 2342SOL    HW110942   4.572   6.490   9.597  2.9297 -0.7552 -0.0389
 2342SOL    HW210943   4.586   6.472   9.448 -1.3321  0.3699 -0.6897
 2343SOL     OW10944   5.935   5.406   2.264 -0.5432 -0.1731  0.0619
 2343SOL    HW110945   6.011   5.377   2.212 -0.3119  1.1810 -0.3866
 2343SOL    HW210946   5.863   5.350   2.235  0.1005 -0.9404 -0.0820
 2344SOL     OW10947   3.560   6.625   1.530 -0.4664  0.1381  0.1746
 2344SOL    HW110948   3.547   6.713   1.564 -1.4335 -0.1970  0.7067
 2344SOL    HW210949   3.650   6.625   1.496 -0.5117  1.3643  0.0209
 2345SOL     OW10950   1.822   0.044   2.426 -0.6476 -0.2408 -0.7569
 2345SOL    HW110951   1.905   0.039   2.378 -0.2370 -0.1193 -0.0613
 2345SOL    HW210952   1.756   0.049   2.357 -0.0512  0.1525 -1.3197
 2346SOL     OW10953   5.358  10.128   4.353  0.1342 -0.0461  0.3951
 2346SOL    HW110954   5.341  10.125   4.447 -1.0758 -1.1183  0.1706
 2346SOL    HW210955   5.324  10.213   4.325 -1.2281 -0.4651  0.6614
 2347SOL     OW10956   3.106   1.166   3.112  0.1700 -0.2742 -0.0751
 2347SOL    HW110957   3.180   1.223   3.135  0.3620  0.2498 -1.8349
 2347SOL    HW210958   3.045   1.224   3.066  0.0528 -1.3394 -1.3078
 2348SOL     OW10959   9.332   9.862   7.694 -0.0943 -0.4469  0.7146
 2348SOL    HW110960   9.353   9.875   7.787  1.8163 -0.0723  0.2640
 2348SOL    HW210961   9.353   9.946   7.653 -1.1040 -0.5524 -0.0519
 2349SOL     OW10962   1.781   5.041   2.286  0.2508 -0.3092  0.2331
 2349SOL    HW110963   1.832   5.122   2.288 -0.3427  0.0608  1.2497
 2349SOL    HW210964   1.750   5.030   2.376 -2.4764  0.1610 -0.5439
 2350SOL     OW10965   3.137   6.901   4.473 -0.1806 -0.0584 -0.2568
 2350SOL    HW110966   3.135   6.996   4.483 -1.0914 -0.0810 -0.1406
 2350SOL    HW210967   3.208   6.872   4.531  0.7658  0.6280 -1.0486
 2351SOL     OW10968   7.013   5.824   1.377 -0.1544  0.2683  0.3272
 2351SOL    HW110969   6.954   5.880   1.427 -1.2639  0.5316 -1.2172
 2351SOL    HW210970   6.977   5.823   1.289  2.5525  1.0175 -0.9007
 2352SOL     OW10971   8.486   8.906   1.107 -0.2090 -0.1493 -0.9973
 2352SOL    HW110972   8.490   8.953   1.191 -2.5633 -1.5996  0.0590
 2352SOL    HW210973   8.415   8.949   1.059  1.5250  1.0696 -2.6058
 2353SOL     OW10974   9.991   1.337   3.008 -0.0226  0.5946 -0.1669
 2353SOL    HW110975   9.935   1.317   3.083 -1.8735  0.5390 -1.5006
 2353SOL    HW210976   9.936   1.319   2.931  2.5535 -1.8972 -1.6684
 2354SOL     OW10977   7.466   0.173   3.403 -0.0662 -0.8424 -0.0041
 2354SOL    HW110978   7.458   0.256   3.450 -0.1491 -1.5245  1.2400
 2354SOL    HW210979   7.550   0.137   3.433 -0.3075 -1.4711 -0.0693
 2355SOL     OW10980   8.231   8.381   3.427 -0.0592 -0.0985  0.2270
 2355SOL    HW110981   8.211   8.452   3.366 -0.6694  1.7043  2.3991
 2355SOL    HW210982   8.315   8.406   3.465  0.6535 -1.5561 -0.3133
 2356SOL     OW10983   7.504   4.831   8.068 -0.0237  0.3456  0.2660
 2356SOL    HW110984   7.413   4.860   8.076  0.2711  1.4437 -0.0728
 2356SOL    HW210985   7.502   4.767   7.997 -0.4939  0.5517  0.0833
 2357SOL     OW10986   7.534   6.552   3.325  0.2327 -0.3482 -0.3783
 2357SOL    HW110987   7.453   6.570   3.276  0.3718  1.4904  0.0067
 2357SOL    HW210988   7.512   6.573   3.416  0.3484 -2.5630  0.2398
 2358SOL     OW10989   3.486   4.535   5.398 -0.3754 -0.2639 -0.0158
 2358SOL    HW110990   3.395   4.505   5.400 -0.0230 -1.3590  0.9095
 2358SOL    HW210991   3.511   4.543   5.490  0.8583 -1.2857 -0.2350
 2359SOL     OW10992   9.690   4.348   6.955 -0.8002 -0.0540  0.3578
 2359SOL    HW110993   9.639   4.266   6.961  0.4720 -1.0023 -1.2260
 2359SOL    HW210994   9.667   4.384   6.870  0.0029  0.3248  0.3022
 2360SOL     OW10995   7.355   8.643   6.072 -0.2031  0.0974 -0.2667
 2360SOL    HW110996   7.432   8.696   6.095 -0.3547  0.4429 -0.5558
 2360SOL    HW210997   7.370   8.616   5.982 -0.2572 -0.1244 -0.2092
 2361SOL     OW10998   0.502   7.873   3.845 -0.2976 -0.5201  1.0272
 2361SOL    HW110999   0.512   7.898   3.937 -0.5605  0.2444  0.8579
 2361SOL    HW211000   0.464   7.785   3.848 -0.7015 -0.3346  1.6543
 2362SOL     OW11001   7.325   3.090   0.931 -0.4481 -0.1822  0.1415
 2362SOL    HW111002   7.394   3.147   0.897 -0.2431  0.7631  2.0085
 2362SOL    HW211003   7.244   3.124   0.893 -0.1738  0.4909  0.1574
 2363SOL     OW11004   1.113   2.217   9.675 -0.2154 -0.4065 -0.3013
 2363SOL    HW111005   1.058   2.244   9.602 -0.4286 -0.0791 -0.0214
 2363SOL    HW211006   1.182   2.165   9.635 -0.5263 -0.5191 -0.6959
 2364SOL     OW11007   7.045   4.291   7.930  0.6046  0.1161  0.0152
 2364SOL    HW111008   7.079   4.372   7.893 -0.2824 -0.0781 -1.2825
 2364SOL    HW211009   6.974   4.318   7.988  1.4349  0.3595  0.9533
 2365SOL     OW11010   1.715   8.941   7.272  0.2545  0.4207 -0.1414
 2365SOL    HW111011   1.743   8.950   7.363 -1.3129  0.8540  0.3270
 2365SOL    HW211012   1.661   9.018   7.256 -0.5198 -0.2924 -1.0514
 2366SOL     OW11013   7.418   2.887   6.237  0.1079 -0.6961 -0.1531
 2366SOL    HW111014   7.510   2.914   6.227 -0.4476  1.2470 -0.3852
 2366SOL    HW211015   7.415   2.845   6.323  1.1922 -0.7038 -0.1027
 2367SOL     OW11016   4.684   1.360   1.229 -0.2189 -0.1276  0.4864
 2367SOL    HW111017   4.689   1.266   1.213 -1.4659  0.1686 -2.0454
 2367SOL    HW211018   4.768   1.394   1.197 -0.8717 -0.0958 -1.2832
 2368SOL     OW11019   4.046   0.961   9.145  0.1832 -0.4017  0.2789
 2368SOL    HW111020   4.089   1.037   9.184 -1.0915  0.1613  0.6451
 2368SOL    HW211021   4.058   0.891   9.211  2.1666 -0.8426 -0.4609
 2369SOL     OW11022   1.118   7.069   1.297  0.1708 -0.1316  0.1486
 2369SOL    HW111023   1.089   7.138   1.357 -0.0712 -0.5752  0.5411
 2369SOL    HW211024   1.096   7.103   1.210  0.5673  0.5343  0.3001
 2370SOL     OW11025   8.246   6.919   4.792 -0.2782  0.2033  0.7644
 2370SOL    HW111026   8.301   6.986   4.752 -0.8834  0.8965  1.0576
 2370SOL    HW211027   8.298   6.885   4.865  0.8760 -1.1450 -0.6181
 2371SOL     OW11028   5.265   6.233   9.653  0.2872  0.5997  0.7792
 2371SOL    HW111029   5.221   6.149   9.636 -1.0451  0.9324  2.2278
 2371SOL    HW211030   5.193   6.293   9.673  1.3129  1.6819  1.3309
 2372SOL     OW11031   2.989   7.129   9.626 -0.1261 -0.5836 -0.3442
 2372SOL    HW111032   3.063   7.176   9.586 -0.4768  0.5087  0.2581
 2372SOL    HW211033   3.000   7.039   9.597  0.8312 -0.2253 -1.1588
 2373SOL     OW11034   1.328   4.533  10.048 -0.2857 -0.1465  0.6316
 2373SOL    HW111035   1.255   4.565   9.996  0.2392 -1.7803 -1.2586
 2373SOL    HW211036   1.287   4.479  10.116 -0.8999 -1.6482 -0.8439
 2374SOL     OW11037   1.505   5.387   6.574 -0.6632  0.0114 -0.0651
 2374SOL    HW111038   1.504   5.299   6.610  1.3750 -0.1401 -0.2530
 2374SOL    HW211039   1.541   5.377   6.486 -0.9785  0.9722 -0.3224
 2375SOL     OW11040   7.985   2.469   4.609  0.1635 -0.4906  0.3964
 2375SOL    HW111041   7.963   2.553   4.569 -0.8071 -0.4205  1.0511
 2375SOL    HW211042   8.052   2.432   4.551  0.4493  0.6322 -0.0108
 2376SOL     OW11043   3.657   1.307   6.349 -0.0816 -0.4904  0.1135
 2376SOL    HW111044   3.720   1.286   6.418 -1.2086  0.3171  1.4274
 2376SOL    HW211045   3.577   1.262   6.374 -0.7743  0.5392 -0.1734
 2377SOL     OW11046   3.124   6.895   9.830 -0.3911  0.2793 -0.2128
 2377SOL    HW111047   3.173   6.813   9.843 -0.0653  0.6518  1.1076
 2377SOL    HW211048   3.150   6.925   9.743  1.2205  0.1167  0.1730
 2378SOL     OW11049   3.091   5.337   8.401  0.1939  0.3997 -0.1559
 2378SOL    HW111050   3.083   5.254   8.448  1.5789  0.5805  0.4614
 2378SOL    HW211051   3.075   5.314   8.310  3.6348 -1.2453 -0.5048
 2379SOL     OW11052   9.775   4.896   4.845  0.6239 -0.9453 -0.0909
 2379SOL    HW111053   9.756   4.982   4.883  0.0877 -1.3020  0.4760
 2379SOL    HW211054   9.720   4.835   4.895 -1.4565 -1.2461 -2.5235
 2380SOL     OW11055   1.086  10.044   9.763  0.2229 -0.3959 -0.1829
 2380SOL    HW111056   1.000  10.074   9.792  0.8649  0.4247  0.9750
 2380SOL    HW211057   1.085   9.950   9.779 -0.3420 -0.3367  0.1676
 2381SOL     OW11058   9.148   3.583   1.149 -0.8018  0.2641 -0.4439
 2381SOL    HW111059   9.128   3.548   1.236 -0.5395 -0.0601 -0.5111
 2381SOL    HW211060   9.070   3.565   1.097 -0.6231 -0.3219 -0.5078
 2382SOL     OW11061   9.883   8.240   9.756 -0.3878 -0.7444  0.7508
 2382SOL    HW111062   9.947   8.239   9.827  0.0093 -0.6743  0.3996
 2382SOL    HW211063   9.936   8.233   9.676 -0.8721 -1.5416  0.4879
 2383SOL     OW11064   5.822  10.077   2.274 -0.1768 -0.8354  0.0308
 2383SOL    HW111065   5.792  10.061   2.363 -2.9514 -2.7151 -1.0896
 2383SOL    HW211066   5.917  10.068   2.278 -0.3332 -2.0247  2.5817
 2384SOL     OW11067   8.399   9.122   0.415  0.4215  0.2412  0.3499
 2384SOL    HW111068   8.401   9.043   0.468  0.1539 -0.9271 -1.3328
 2384SOL    HW211069   8.492   9.143   0.399  0.5250 -1.3983 -1.5377
 2385SOL     OW11070   2.436   4.602   0.155  0.2519 -0.1256  0.4817
 2385SOL    HW111071   2.435   4.692   0.121 -0.1305  0.4145  1.8705
 2385SOL    HW211072   2.351   4.565   0.130  0.2253  0.0527  0.3081
 2386SOL     OW11073   3.442   4.269   2.030 -0.8067  0.5896 -0.4070
 2386SOL    HW111074   3.505   4.323   2.078 -0.1356 -0.8421  0.4043
 2386SOL    HW211075   3.411   4.206   2.095 -0.4705 -0.9057 -1.6277
 2387SOL     OW11076   7.797   4.503   4.680  0.3628  0.4499 -0.8435
 2387SOL    HW111077   7.743   4.528   4.605  1.6102  2.8475 -1.0418
 2387SOL    HW211078   7.854   4.433   4.647 -0.2596  0.3043 -1.6233
 2388SOL     OW11079   6.247   2.551   2.942 -0.1096  0.1518  0.1699
 2388SOL    HW111080   6.159   2.585   2.925  0.1735  0.5002 -0.6709
 2388SOL    HW211081   6.278   2.523   2.856  1.5865  2.3701 -0.0283
 2389SOL     OW11082   2.382   9.397   1.189  0.3238  0.2846 -0.3586
 2389SOL    HW111083   2.300   9.439   1.214 -0.1971  0.1661 -1.7778
 2389SOL    HW211084   2.424   9.374   1.272 -0.7294  1.0099  0.3923
 2390SOL     OW11085   0.854  10.023   0.379 -0.0038 -0.5056  0.1912
 2390SOL    HW111086   0.817  10.108   0.405  0.7368 -0.1082 -0.0317
 2390SOL    HW211087   0.852  10.025   0.283  0.5568 -0.4957  0.1785
 2391SOL     OW11088   1.699   6.902   8.551  0.0133 -0.2593  0.2973
 2391SOL    HW111089   1.736   6.814   8.542  0.4016 -0.2092  1.2590
 2391SOL    HW211090   1.722   6.928   8.640  0.6374  1.1474 -0.2403
 2392SOL     OW11091   0.134   0.674   1.243 -0.2758 -0.3202  0.1054
 2392SOL    HW111092   0.205   0.696   1.183 -1.7465 -0.1816 -1.6900
 2392SOL    HW211093   0.134   0.578   1.247  0.6676 -0.2990  0.9952
 2393SOL     OW11094   3.555   0.833   3.519 -0.1026 -0.5300  0.0141
 2393SOL    HW111095   3.562   0.825   3.614 -1.4096  1.5839  0.3408
 2393SOL    HW211096   3.641   0.806   3.487  0.4034 -1.1817  1.7846
 2394SOL     OW11097   7.799   4.282   2.207  0.3331  0.3011 -0.6333
 2394SOL    HW111098   7.770   4.359   2.158 -0.1556  0.4411 -0.1368
 2394SOL    HW211099   7.719   4.231   2.221  0.2334  0.8277  0.9908
 2395SOL     OW11100   9.249   4.848   5.357  0.8339  0.7469 -0.4519
 2395SOL    HW111101   9.330   4.898   5.358  1.4418 -0.1302 -1.8965
 2395SOL    HW211102   9.246   4.809   5.269 -1.1682  0.7806 -0.4542
 2396SOL     OW11103  10.163   1.658   3.625  0.1597 -0.3702  0.5465
 2396SOL    HW111104  10.125   1.649   3.713  0.4278  1.5840  0.9056
 2396SOL    HW211105  10.208   1.742   3.627  0.1690 -0.2847 -1.4871
 2397SOL     OW11106   7.090   4.347  10.180  0.2951 -0.0094  0.4661
 2397SOL    HW111107   7.118   4.279  10.118  0.7126 -0.2279  0.8850
 2397SOL    HW211108   7.067   4.298  10.259  0.0976  0.2963  0.5956
 2398SOL     OW11109   1.550   8.657   3.263  0.2197 -0.3770 -0.1875
 2398SOL    HW111110   1.464   8.615   3.255 -0.2996  0.1099  2.1017
 2398SOL    HW211111   1.551   8.723   3.193 -2.0308  0.7809  0.7479
 2399SOL     OW11112   2.838   6.496   5.039  0.6465  0.0146  0.0417
 2399SOL    HW111113   2.816   6.416   5.087 -1.4018  0.5655  0.1518
 2399SOL    HW211114   2.917   6.475   4.990  0.3518 -1.9588  0.3543
 2400SOL     OW11115   8.155   3.753   7.557  0.0754  0.2629 -0.0951
 2400SOL    HW111116   8.233   3.720   7.600  0.9320  1.0507 -1.0058
 2400SOL    HW211117   8.151   3.845   7.581 -0.2242  0.3719 -0.5501
 2401SOL     OW11118   2.167   8.460   8.159  0.1699  0.0873 -0.6599
 2401SOL    HW111119   2.152   8.502   8.243 -0.5076 -1.1822 -0.1106
 2401SOL    HW211120   2.111   8.508   8.098  0.3257  0.7296 -0.3018
 2402SOL     OW11121   8.229   1.457   7.086  0.5864 -0.4265 -0.0498
 2402SOL    HW111122   8.308   1.442   7.034 -0.2372  0.2502 -1.5853
 2402SOL    HW211123   8.179   1.375   7.078  0.7146 -0.5260  0.1596
 2403SOL     OW11124   6.963   3.137   8.615  0.0804  0.4589  0.7070
 2403SOL    HW111125   7.008   3.121   8.532 -1.1015 -0.7563  0.2538
 2403SOL    HW211126   6.991   3.065   8.672 -0.0311  0.6064  0.9509
 2404SOL     OW11127  10.074   5.791   3.107  0.1681  0.1251  0.2128
 2404SOL    HW111128  10.136   5.822   3.173  0.0943 -0.1179  0.4000
 2404SOL    HW211129  10.051   5.702   3.135  0.1898 -0.0094 -0.1773
 2405SOL     OW11130   8.288   1.259   8.863 -0.0242 -0.3431  0.5478
 2405SOL    HW111131   8.377   1.261   8.826 -0.3091 -0.9593 -0.1927
 2405SOL    HW211132   8.279   1.343   8.907  0.3545  0.4016 -0.7509
 2406SOL     OW11133   3.111   4.243   1.239 -0.0947  0.1668  0.3449
 2406SOL    HW111134   3.103   4.250   1.334 -1.0257  0.2642  0.2761
 2406SOL    HW211135   3.151   4.325   1.211 -1.9135  1.1507  0.4633
 2407SOL     OW11136   7.720   8.780   3.887  0.5113  0.1665 -0.1753
 2407SOL    HW111137   7.789   8.734   3.935  1.8731  0.5662 -1.6877
 2407SOL    HW211138   7.706   8.860   3.937  1.0191  0.0031  0.2402
 2408SOL     OW11139   6.669   2.447   2.738 -0.2171 -0.2651 -0.3031
 2408SOL    HW111140   6.758   2.472   2.714 -0.8808  0.6267 -1.9631
 2408SOL    HW211141   6.638   2.517   2.795 -0.7287  0.8012 -1.8372
 2409SOL     OW11142   0.356   0.206   3.946  0.4595  0.4316 -0.1043
 2409SOL    HW111143   0.422   0.255   3.996 -1.3806  0.5406  2.4418
 2409SOL    HW211144   0.390   0.117   3.941  1.7862  0.9515 -0.8266
 2410SOL     OW11145   7.444   8.821   5.597  0.0610 -0.1793  0.2947
 2410SOL    HW111146   7.530   8.850   5.566  0.1146  1.2281  1.6675
 2410SOL    HW211147   7.422   8.749   5.538  0.8564  1.3031 -1.9860
 2411SOL     OW11148   3.427   3.658   3.105  0.0059 -0.1005  0.0532
 2411SOL    HW111149   3.414   3.741   3.060 -0.5459  0.4370  1.1652
 2411SOL    HW211150   3.396   3.674   3.194  1.6518 -0.9445  0.8224
 2412SOL     OW11151  10.015   5.339   3.901  0.2402 -0.2146 -0.1477
 2412SOL    HW111152   9.963   5.277   3.849 -0.4330  0.4855 -0.3233
 2412SOL    HW211153  10.035   5.291   3.982 -0.1701 -0.7065 -0.3330
 2413SOL     OW11154   2.362   0.745   8.643  0.3386  0.1808 -0.0558
 2413SOL    HW111155   2.362   0.808   8.714 -1.3803 -0.0268  0.1790
 2413SOL    HW211156   2.414   0.671   8.675 -0.9979 -0.2092  1.2957
 2414SOL     OW11157   2.479   8.534   1.806  0.5273 -0.4716  0.5197
 2414SOL    HW111158   2.510   8.620   1.779 -0.5578 -0.0416  0.5785
 2414SOL    HW211159   2.409   8.513   1.745  0.0626 -0.8219  1.1545
 2415SOL     OW11160   9.864   3.883   7.325 -0.4649  0.8404  0.7326
 2415SOL    HW111161   9.772   3.857   7.320 -0.9221  2.4927  0.2240
 2415SOL    HW211162   9.874   3.919   7.413 -0.4162  1.0728  0.6323
 2416SOL     OW11163   4.001   1.361   0.678 -0.4083  0.1709 -0.5217
 2416SOL    HW111164   3.927   1.379   0.737  0.1100 -0.0961  0.2257
 2416SOL    HW211165   4.075   1.348   0.737  0.1249 -0.0841 -1.2448
 2417SOL     OW11166   6.787   7.311   9.305 -0.1654 -0.1081  0.4260
 2417SOL    HW111167   6.759   7.234   9.354 -0.5551 -0.3782 -0.2160
 2417SOL    HW211168   6.881   7.317   9.323 -0.2974 -0.2105  1.1880
 2418SOL     OW11169   8.486  10.079   6.734  0.3992 -0.5235  0.1867
 2418SOL    HW111170   8.495  10.010   6.799  2.0044 -0.7620 -0.2532
 2418SOL    HW211171   8.484  10.033   6.650  1.4034 -0.0555 -0.1060
 2419SOL     OW11172   2.176   6.507   0.452 -0.7079 -0.0166  0.1041
 2419SOL    HW111173   2.197   6.589   0.407 -0.0260 -0.3868 -0.2654
 2419SOL    HW211174   2.081   6.498   0.443 -0.8996  1.0749  0.7476
 2420SOL     OW11175   6.151   7.542   4.689 -0.4176 -0.2013 -0.0249
 2420SOL    HW111176   6.245   7.558   4.690 -0.2294 -1.2884  0.3468
 2420SOL    HW211177   6.140   7.458   4.733 -1.3664 -1.0555 -1.7778
 2421SOL     OW11178   6.415   3.919   1.959 -0.2933 -0.5809  0.5917
 2421SOL    HW111179   6.472   3.906   1.884 -1.1339 -2.0572  0.1704
 2421SOL    HW211180   6.471   3.961   2.025  0.0999  1.9957 -1.2697
 2422SOL     OW11181   1.422   1.581   8.813 -0.2151  0.2513  0.7278
 2422SOL    HW111182   1.444   1.594   8.905  1.0978 -3.6971  1.1345
 2422SOL    HW211183   1.374   1.498   8.811 -0.1250  0.1578 -2.1663
 2423SOL     OW11184   5.843   5.116   8.481 -0.1834 -0.4670 -0.1573
 2423SOL    HW111185   5.888   5.140   8.562  0.4158  0.4493 -0.7448
 2423SOL    HW211186   5.770   5.061   8.510  0.7726 -1.2418  0.8894
 2424SOL     OW11187   9.111   0.104   2.189 -0.1440  0.6992  0.0144
 2424SOL    HW111188   9.188   0.082   2.242 -0.6256 -1.7625 -0.2299
 2424SOL    HW211189   9.146   0.158   2.117  0.7607  2.6480  1.8095
 2425SOL     OW11190   3.939   1.320   9.899 -0.4991 -0.1604  0.1371
 2425SOL    HW111191   4.000   1.370   9.954 -1.8304  0.3572  1.2065
 2425SOL    HW211192   3.892   1.264   9.961 -0.4888 -1.2453 -0.7925
 2426SOL     OW11193   8.159   8.247   1.723 -0.3765  0.3410  0.0986
 2426SOL    HW111194   8.217   8.183   1.681 -2.2808 -0.8439 -0.8769
 2426SOL    HW211195   8.201   8.266   1.807  2.2665  0.8895 -1.2567
 2427SOL     OW11196   9.053   1.249   8.397 -0.2221  0.1605  0.4184
 2427SOL    HW111197   9.030   1.333   8.358 -0.6015 -2.1739 -5.3748
 2427SOL    HW211198   9.146   1.239   8.380 -0.2964 -0.7969  0.5202
 2428SOL     OW11199   3.301   0.937   8.635 -0.1394  0.4180 -0.2230
 2428SOL    HW111200   3.376   0.919   8.693  0.0988 -0.5292 -0.8013
 2428SOL    HW211201   3.283   0.853   8.593 -2.8082  0.1059  1.3419
 2429SOL     OW11202   7.490   0.722   8.233 -0.4844 -0.0265  0.1325
 2429SOL    HW111203   7.583   0.747   8.237 -0.5148  0.3512 -1.1341
 2429SOL    HW211204   7.454   0.750   8.317  1.1774 -2.8909  1.9984
 2430SOL     OW11205   9.715   2.855   0.172  0.3276  1.0074 -0.2618
 2430SOL    HW111206   9.733   2.907   0.094  0.2168 -1.4911 -2.0660
 2430SOL    HW211207   9.622   2.831   0.164  0.0770  1.3912  1.1155
 2431SOL     OW11208   9.384   4.008   4.381  0.4357  0.4402 -0.0186
 2431SOL    HW111209   9.342   4.030   4.298 -0.6704 -0.4526  0.2734
 2431SOL    HW211210   9.369   4.083   4.437 -0.0014  0.4876 -0.2022
 2432SOL     OW11211   3.078   7.805   8.761 -0.3824  0.1458 -0.5057
 2432SOL    HW111212   3.069   7.895   8.791 -1.0841  0.2380 -0.9490
 2432SOL    HW211213   3.172   7.793   8.745 -0.2564  0.7133 -0.1915
 2433SOL     OW11214   3.780   0.988   8.131  0.3843  0.8197 -0.1662
 2433SOL    HW111215   3.814   1.033   8.054 -1.1428  0.6544 -0.9657
 2433SOL    HW211216   3.853   0.990   8.193  1.8478  0.4909 -1.7862
 2434SOL     OW11217   7.545   1.623   5.037  0.3537 -0.2651  0.2333
 2434SOL    HW111218   7.459   1.650   5.003  0.0836 -2.5405 -1.0609
 2434SOL    HW211219   7.531   1.534   5.070  1.5346  0.4497  2.9891
 2435SOL     OW11220   3.611   1.119   7.147 -0.1095 -0.2088 -0.2814
 2435SOL    HW111221   3.671   1.105   7.220  1.1266 -0.5718 -1.3193
 2435SOL    HW211222   3.565   1.035   7.137  1.5815 -1.0619 -1.4934
 2436SOL     OW11223   3.746   4.252   6.510 -0.0976  0.7277 -0.1831
 2436SOL    HW111224   3.666   4.259   6.563 -0.7238 -0.7590 -0.8705
 2436SOL    HW211225   3.817   4.273   6.571 -0.8427 -0.3411  1.1093
 2437SOL     OW11226   5.515   9.720   9.584 -0.4353 -0.0259 -0.1530
 2437SOL    HW111227   5.517   9.782   9.657  1.2388 -1.8677  1.4564
 2437SOL    HW211228   5.482   9.772   9.511  0.6459  2.7248  1.1513
 2438SOL     OW11229   0.991   4.485   4.749 -0.2604 -0.2485 -0.1634
 2438SOL    HW111230   0.958   4.572   4.771 -1.1146 -0.7906  0.7874
 2438SOL    HW211231   0.946   4.426   4.809  1.3029 -1.2105  0.1279
 2439SOL     OW11232   3.698   8.886   0.556 -0.2938  0.4965  0.0247
 2439SOL    HW111233   3.765   8.948   0.526  1.6616 -2.2018 -1.6657
 2439SOL    HW211234   3.625   8.899   0.496  0.2037  0.9731 -0.4881
 2440SOL     OW11235   7.655   0.009   4.656 -0.1748 -0.1744  0.0922
 2440SOL    HW111236   7.687  -0.069   4.611 -0.3961  0.7243 -1.6809
 2440SOL    HW211237   7.560   0.005   4.647 -0.2496 -0.1340  0.7797
 2441SOL     OW11238   1.474   0.446   5.460  0.6540 -0.0882  0.2032
 2441SOL    HW111239   1.422   0.484   5.530  3.1235  0.2317  1.9934
 2441SOL    HW211240   1.496   0.358   5.491 -0.3498 -0.9520 -1.3869
 2442SOL     OW11241   3.531   8.422   4.814 -0.3786  0.0851 -0.1605
 2442SOL    HW111242   3.516   8.360   4.742 -0.6837 -1.1731  0.9496
 2442SOL    HW211243   3.533   8.367   4.893  1.3704  1.2490  0.6739
 2443SOL     OW11244   4.243   7.685   3.475 -0.2882  0.3485 -0.1032
 2443SOL    HW111245   4.191   7.694   3.555 -0.6336  3.2183 -0.5394
 2443SOL    HW211246   4.325   7.729   3.494  0.1567 -0.1015 -0.9049
 2444SOL     OW11247   5.291   0.587   0.601 -0.2268  0.0687 -0.1060
 2444SOL    HW111248   5.208   0.555   0.636  0.0298 -1.6521 -0.9900
 2444SOL    HW211249   5.283   0.683   0.607 -1.7483 -0.0754  0.9736
 2445SOL     OW11250   9.832   5.987   2.188  0.4496 -0.4306 -0.0118
 2445SOL    HW111251   9.871   6.071   2.164  0.9449 -0.4495  0.7068
 2445SOL    HW211252   9.900   5.922   2.168  0.6560 -0.5028  0.8765
 2446SOL     OW11253   2.665   1.732   6.711 -0.1801  0.3284  0.0454
 2446SOL    HW111254   2.642   1.697   6.625  2.5924  1.0840 -1.0991
 2446SOL    HW211255   2.581   1.746   6.754 -1.7148  0.4759 -2.7517
 2447SOL     OW11256   2.366   4.966   0.600 -0.6717 -0.2495 -0.1000
 2447SOL    HW111257   2.417   4.960   0.519 -2.3909 -0.6062 -1.2324
 2447SOL    HW211258   2.401   4.898   0.656  0.1462 -0.4274 -0.8074
 2448SOL     OW11259   0.095   1.756   8.494  0.2853  0.0298 -0.2399
 2448SOL    HW111260   0.188   1.782   8.497  0.0258  0.9348  2.5263
 2448SOL    HW211261   0.054   1.823   8.438  0.8127  1.5691  1.1409
 2449SOL     OW11262   8.365   4.530   3.113  0.0411  0.2100  0.4303
 2449SOL    HW111263   8.299   4.461   3.125 -0.7318  0.8196 -0.1870
 2449SOL    HW211264   8.444   4.484   3.084 -0.6064 -0.3786 -0.4517
 2450SOL     OW11265   8.130   9.209   6.683 -0.3477 -0.7692 -0.2630
 2450SOL    HW111266   8.071   9.148   6.729 -1.7860 -0.5998 -1.7807
 2450SOL    HW211267   8.098   9.208   6.593  1.1879  0.3595 -0.8452
 2451SOL     OW11268   7.047   0.014   5.732 -0.2663 -0.1526 -0.4746
 2451SOL    HW111269   7.115   0.069   5.771  0.7322 -0.8577 -1.1662
 2451SOL    HW211270   6.965   0.047   5.769  0.4437  0.7368  0.3582
 2452SOL     OW11271   6.030   1.657  10.013 -0.4908  0.5525 -0.3769
 2452SOL    HW111272   5.974   1.615   9.948 -1.3063 -0.2682  0.8182
 2452SOL    HW211273   6.050   1.588  10.076  0.6081  1.2295  0.0355
 2453SOL     OW11274   1.653   7.012   9.849  0.5253 -0.2497 -0.3702
 2453SOL    HW111275   1.727   7.042   9.901  0.4504  0.7495 -0.8257
 2453SOL    HW211276   1.618   7.091   9.808 -0.2478 -0.8312 -0.8631
 2454SOL     OW11277   5.425   5.485   6.475 -0.6740  0.2667  0.1000
 2454SOL    HW111278   5.447   5.562   6.423  0.6246 -0.8117 -1.0303
 2454SOL    HW211279   5.429   5.515   6.566  2.2555  1.0301 -0.1691
 2455SOL     OW11280   3.946   2.323   7.388  0.8448 -0.1685 -0.1134
 2455SOL    HW111281   3.969   2.306   7.296  2.5109 -0.2346  0.2714
 2455SOL    HW211282   3.919   2.415   7.390 -0.7987 -0.6081 -0.9251
 2456SOL     OW11283  10.163   9.804   7.054 -0.0600 -0.1050  0.5668
 2456SOL    HW111284  10.147   9.730   6.995 -0.2984 -1.6966  2.5432
 2456SOL    HW211285  10.120   9.879   7.011  1.7823 -0.6030 -2.4253
 2457SOL     OW11286   3.640   4.898   8.657  0.2061  0.5184  0.1687
 2457SOL    HW111287   3.582   4.915   8.731 -0.7937  0.3475 -0.5495
 2457SOL    HW211288   3.662   4.986   8.625 -0.7260  0.5850 -0.3419
 2458SOL     OW11289   8.685   3.257   9.465  0.2187  0.0027 -0.3394
 2458SOL    HW111290   8.708   3.338   9.512 -2.1051  0.3487  0.3578
 2458SOL    HW211291   8.729   3.188   9.513 -0.0554  0.6010  0.8050
 2459SOL     OW11292   3.821   3.900   7.934  0.0452 -0.8058 -0.2112
 2459SOL    HW111293   3.850   3.972   7.877  1.4793 -0.4112  0.9811
 2459SOL    HW211294   3.867   3.823   7.901  0.4561 -0.6823  0.0696
 2460SOL     OW11295   8.566   9.181   9.917  0.6387  0.0414  0.5710
 2460SOL    HW111296   8.492   9.220   9.963  0.2134 -0.6000  0.4400
 2460SOL    HW211297   8.640   9.190   9.978  0.4616  0.7008  0.6929
 2461SOL     OW11298   1.639   0.165   7.120 -0.0032  0.3022  0.0674
 2461SOL    HW111299   1.701   0.234   7.098 -1.0451  1.2752  0.0445
 2461SOL    HW211300   1.690   0.084   7.118  1.7642  1.2589  2.1480
 2462SOL     OW11301   4.971   4.039   6.117  0.0455 -0.1565  0.1473
 2462SOL    HW111302   4.895   4.097   6.123 -0.0988 -0.4410  1.5094
 2462SOL    HW211303   4.985   4.010   6.207  1.1580 -0.8992 -0.2509
 2463SOL     OW11304   3.281   7.626   5.599 -0.5848 -0.0960  0.3342
 2463SOL    HW111305   3.353   7.685   5.576 -0.0510 -1.0511 -0.5507
 2463SOL    HW211306   3.252   7.655   5.685 -0.2209  1.3359  0.0070
 2464SOL     OW11307   6.087   2.113   0.862  0.1263  0.3569 -0.5491
 2464SOL    HW111308   6.107   2.177   0.794  2.6025  0.2224 -0.0394
 2464SOL    HW211309   6.129   2.147   0.941  0.4470 -1.2448  0.0255
 2465SOL     OW11310   0.979   3.092   4.986  0.4141 -0.3979  0.8078
 2465SOL    HW111311   1.019   3.174   4.959  2.8945 -0.8139  2.8182
 2465SOL    HW211312   1.046   3.026   4.970 -1.0668 -1.8911  0.3779
 2466SOL     OW11313   6.463   9.012   9.894 -0.5192 -0.2041  0.5914
 2466SOL    HW111314   6.522   9.026   9.820 -1.6013  0.1773 -0.2211
 2466SOL    HW211315   6.411   9.092   9.899 -3.4087 -1.8209 -1.0008
 2467SOL     OW11316   2.399   2.501   0.966  0.0270 -0.6432 -0.0259
 2467SOL    HW111317   2.413   2.585   1.011 -2.2124  0.7263 -1.6626
 2467SOL    HW211318   2.487   2.473   0.939  0.8335  1.1747  0.5629
 2468SOL     OW11319   3.183   2.339   0.967 -0.0790  0.1965 -0.3116
 2468SOL    HW111320   3.175   2.378   1.054 -3.9533 -1.1740  0.1565
 2468SOL    HW211321   3.207   2.248   0.984 -0.5705 -0.0038 -0.6741
 2469SOL     OW11322   2.760   9.710   4.349  0.2200 -0.6380 -0.6866
 2469SOL    HW111323   2.673   9.699   4.312 -0.1335  1.0554 -0.4633
 2469SOL    HW211324   2.775   9.631   4.401 -2.0573 -0.0862  0.9453
 2470SOL     OW11325   7.290   0.288   1.568 -0.3900 -0.3038 -0.5053
 2470SOL    HW111326   7.248   0.337   1.639 -0.0705 -1.2962  0.3957
 2470SOL    HW211327   7.220   0.231   1.535  0.1323 -1.7797  0.8320
 2471SOL     OW11328   9.220   0.121   3.767 -0.5113  0.5183  0.1778
 2471SOL    HW111329   9.189   0.035   3.738 -0.0722  0.8184 -1.2730
 2471SOL    HW211330   9.279   0.102   3.839  0.8216 -0.5461 -1.1441
 2472SOL     OW11331   6.098   6.414  10.071 -0.1679  0.1062 -0.0321
 2472SOL    HW111332   6.062   6.453   9.992 -2.0136 -0.6454  0.3742
 2472SOL    HW211333   6.150   6.483  10.111  2.6735 -0.1360 -2.9484
 2473SOL     OW11334   2.405   1.462   7.294 -0.0783 -0.1474 -0.1174
 2473SOL    HW111335   2.410   1.508   7.378 -1.4544 -1.7503  0.9148
 2473SOL    HW211336   2.495   1.432   7.278  0.3662  0.9018  0.3383
 2474SOL     OW11337   3.830   6.075   7.408  0.3824  0.6593  0.0584
 2474SOL    HW111338   3.914   6.068   7.364  0.4144  0.1498  0.2003
 2474SOL    HW211339   3.850   6.064   7.501  0.2531  1.2610  0.1641
 2475SOL     OW11340   7.445   8.803   9.208 -0.0929 -0.4123 -0.7513
 2475SOL    HW111341   7.387   8.879   9.219 -0.2154 -0.2239 -2.4101
 2475SOL    HW211342   7.459   8.770   9.296 -3.1885 -0.8201 -0.3195
 2476SOL     OW11343   1.677   4.238   6.532  0.4750 -0.3736  0.5613
 2476SOL    HW111344   1.680   4.329   6.503 -2.2241  0.1840  1.7185
 2476SOL    HW211345   1.592   4.206   6.503 -0.3407 -1.2476  3.5209
 2477SOL     OW11346   1.275   0.952   5.385 -0.1115  0.1957 -0.3690
 2477SOL    HW111347   1.261   1.032   5.436  0.2106  1.3048 -1.9327
 2477SOL    HW211348   1.271   0.981   5.294  0.0784 -1.5771 -0.9777
 2478SOL     OW11349   8.761   4.405   5.868  0.3525  0.1713  0.7341
 2478SOL    HW111350   8.834   4.464   5.850  1.4593 -0.9975  1.2117
 2478SOL    HW211351   8.763   4.393   5.963  0.4194 -0.9593  0.6045
 2479SOL     OW11352   9.950   3.155   0.409  0.0716 -0.4763  0.6066
 2479SOL    HW111353   9.880   3.102   0.447  0.1451 -0.1878  1.1639
 2479SOL    HW211354  10.029   3.128   0.457  0.7690 -2.3264 -1.4453
 2480SOL     OW11355   4.064   8.236   1.569  0.0593  0.0240 -0.3128
 2480SOL    HW111356   4.126   8.183   1.620  2.4304 -0.2386 -3.1829
 2480SOL    HW211357   4.003   8.173   1.532  0.1135 -0.1492 -0.1079
 2481SOL     OW11358   4.413   4.457  10.180  0.2696 -0.0315  0.0006
 2481SOL    HW111359   4.389   4.454  10.273  1.0896  2.5148  0.3440
 2481SOL    HW211360   4.508   4.469  10.180  0.0590  1.9557 -1.0882
 2482SOL     OW11361   4.829   8.926   9.885 -0.5553 -0.4268 -0.6938
 2482SOL    HW111362   4.766   8.915   9.956 -0.6511 -2.0062 -0.9788
 2482SOL    HW211363   4.842   9.020   9.878 -1.8338 -0.1553  0.2916
 2483SOL     OW11364   2.947   0.973   7.058  0.2524  0.3830  0.0622
 2483SOL    HW111365   3.033   0.964   7.019  1.1076 -2.4730  2.2571
 2483SOL    HW211366   2.963   0.990   7.151 -1.4417 -1.0599  0.7026
 2484SOL     OW11367   5.229   6.410   7.348 -0.1407  0.0301  0.4074
 2484SOL    HW111368   5.219   6.439   7.438  0.2988  1.4735  0.0137
 2484SOL    HW211369   5.142   6.418   7.310 -0.1610  0.1600  0.4839
 2485SOL     OW11370   8.274   5.130   2.364 -0.1048 -0.0125  0.4548
 2485SOL    HW111371   8.314   5.195   2.422 -0.6791  1.3997 -0.6501
 2485SOL    HW211372   8.183   5.126   2.393 -0.5868  1.2675 -0.7550
 2486SOL     OW11373   3.153   1.950   4.015 -0.5138 -0.7070 -0.0517
 2486SOL    HW111374   3.242   1.975   4.039 -0.3159 -0.7724 -0.7090
 2486SOL    HW211375   3.127   1.886   4.082 -0.8271  0.7950  1.3341
 2487SOL     OW11376   5.446  10.194   3.571 -0.6565  0.2004  0.7893
 2487SOL    HW111377   5.500  10.209   3.649 -0.6340 -0.3663  0.8865
 2487SOL    HW211378   5.418  10.281   3.544  0.4895  0.5268  0.6099
 2488SOL     OW11379   6.591   5.738   6.210  0.8999  0.5845  0.2609
 2488SOL    HW111380   6.574   5.675   6.139 -0.5725  1.2172  0.0202
 2488SOL    HW211381   6.687   5.740   6.218  0.9977 -1.3107 -0.0470
 2489SOL     OW11382   4.275   2.632   6.852 -0.1437  0.0695  0.0211
 2489SOL    HW111383   4.212   2.694   6.889  1.5697  2.9771 -1.5824
 2489SOL    HW211384   4.360   2.663   6.882  0.9159 -0.3615 -2.2769
 2490SOL     OW11385   6.606   8.961   7.881  0.1542 -0.0676  0.0037
 2490SOL    HW111386   6.532   8.930   7.829 -0.4333  1.8425 -0.3688
 2490SOL    HW211387   6.566   8.998   7.960  0.8270 -0.1589  0.3995
 2491SOL     OW11388   2.793   6.422   0.448  0.1158  0.0879  0.3575
 2491SOL    HW111389   2.885   6.405   0.466  0.6770  1.3803 -1.0108
 2491SOL    HW211390   2.756   6.446   0.533  0.8972 -1.0023  1.0211
 2492SOL     OW11391   2.581   2.362   9.184 -0.3776  0.0790 -0.1451
 2492SOL    HW111392   2.574   2.380   9.278  0.9099 -1.8543  0.3899
 2492SOL    HW211393   2.645   2.426   9.152  0.4939 -0.3588  0.6723
 2493SOL     OW11394   8.586   1.197   4.401  0.0737  0.1401  0.0429
 2493SOL    HW111395   8.574   1.292   4.409 -1.0022 -0.0242  0.4839
 2493SOL    HW211396   8.579   1.180   4.307 -2.1275  0.2159  0.1544
 2494SOL     OW11397   4.812   0.572   1.737 -0.3858  0.0786 -0.0394
 2494SOL    HW111398   4.900   0.582   1.774  0.0018  0.0537 -0.9244
 2494SOL    HW211399   4.824   0.512   1.663 -0.9456  0.9004 -0.8233
 2495SOL     OW11400   6.296   4.045   7.771  0.0163  0.1711  0.9176
 2495SOL    HW111401   6.286   3.965   7.822 -0.5182  0.9735  2.1157
 2495SOL    HW211402   6.321   4.111   7.835  3.8865  0.3160 -0.4963
 2496SOL     OW11403   1.062   9.502   1.195  0.8819 -0.2154 -0.4251
 2496SOL    HW111404   1.090   9.503   1.287 -1.9727 -1.1120  0.5485
 2496SOL    HW211405   1.030   9.412   1.181 -0.8068  0.5227 -1.5916
 2497SOL     OW11406   8.722   6.798   3.311 -0.0252 -0.2238  0.4048
 2497SOL    HW111407   8.767   6.796   3.227  0.3459 -0.4370  0.6059
 2497SOL    HW211408   8.628   6.797   3.289  0.0486  1.4235 -0.0488
 2498SOL     OW11409   0.230   9.525   5.431 -0.0574 -0.0260  0.7750
 2498SOL    HW111410   0.229   9.506   5.337 -0.1196 -0.3174  0.8312
 2498SOL    HW211411   0.233   9.438   5.472 -0.9673  0.0715  1.0553
 2499SOL     OW11412   6.801   9.487   3.952  0.4359 -0.2391  0.2331
 2499SOL    HW111413   6.840   9.443   4.028 -0.9950 -0.5497  0.8113
 2499SOL    HW211414   6.815   9.426   3.880  0.8753 -0.4139  0.4610
 2500SOL     OW11415   2.342   0.894   3.489 -0.8341 -0.4427 -0.0165
 2500SOL    HW111416   2.377   0.899   3.578 -2.3756  0.3518  0.5691
 2500SOL    HW211417   2.296   0.810   3.487  0.9581 -1.4836 -0.7862
 2501SOL     OW11418   1.210   5.453   8.631  0.2293 -0.1812  0.2162
 2501SOL    HW111419   1.168   5.367   8.632 -0.2206  0.0372  0.6774
 2501SOL    HW211420   1.299   5.436   8.601 -0.4545 -0.5205 -1.7886
 2502SOL     OW11421   0.568   9.253   0.686 -0.2778 -0.7482  0.2431
 2502SOL    HW111422   0.657   9.258   0.719 -0.5487 -0.3946  0.9440
 2502SOL    HW211423   0.563   9.169   0.641 -0.1503 -1.6652  1.8616
 2503SOL     OW11424   8.004   9.545   7.727  0.7845 -0.5510  0.0775
 2503SOL    HW111425   7.936   9.512   7.667 -0.0833  0.1360  0.6601
 2503SOL    HW211426   8.077   9.485   7.715  0.0716 -1.3181 -0.5718
 2504SOL     OW11427   2.839   7.645   6.889  0.1895 -0.1765 -0.5613
 2504SOL    HW111428   2.795   7.632   6.973  2.4538  1.1091  0.9408
 2504SOL    HW211429   2.821   7.735   6.866 -1.3929 -0.8507 -2.1276
 2505SOL     OW11430  10.202   9.977   5.570  0.1017  0.0605  0.2838
 2505SOL    HW111431  10.188  10.039   5.498 -3.3449 -2.2353 -1.2877
 2505SOL    HW211432  10.262   9.912   5.534  0.8474  0.5373  0.6432
 2506SOL     OW11433   8.505   7.211   8.347 -0.1961 -0.1568 -0.1811
 2506SOL    HW111434   8.599   7.206   8.364 -0.1482  1.0608 -0.0087
 2506SOL    HW211435   8.465   7.159   8.416  0.2323  1.2311  1.1614
 2507SOL     OW11436   4.740   1.092   2.450 -0.3024 -0.2816 -0.7803
 2507SOL    HW111437   4.729   1.101   2.355 -1.5359  1.2909 -0.5309
 2507SOL    HW211438   4.653   1.069   2.482 -0.5565  1.8043  0.1985
 2508SOL     OW11439   6.874   0.642   3.153  0.2516  0.2776 -0.2231
 2508SOL    HW111440   6.948   0.619   3.209 -0.9903  0.4917  1.6067
 2508SOL    HW211441   6.887   0.734   3.133  2.0131 -0.3532 -2.4849
 2509SOL     OW11442   3.626   1.191   8.222 -0.0067 -0.5500 -0.2255
 2509SOL    HW111443   3.534   1.166   8.235 -0.3540 -0.0975 -1.6936
 2509SOL    HW211444   3.672   1.107   8.215 -0.5282 -0.7894 -0.9139
 2510SOL     OW11445   8.632   6.622   2.933 -0.1958  0.1198 -0.0061
 2510SOL    HW111446   8.606   6.537   2.899  0.8944  0.3334 -1.5031
 2510SOL    HW211447   8.727   6.624   2.921  0.0167  0.8703  1.6297
 2511SOL     OW11448   9.413   5.604   2.047  0.0945  0.4217  0.1372
 2511SOL    HW111449   9.508   5.593   2.047 -0.0026 -0.6528 -1.1747
 2511SOL    HW211450   9.397   5.679   1.990  0.2609  2.3643  2.4863
 2512SOL     OW11451   8.547   3.048   0.871  0.1358  0.1331 -0.4218
 2512SOL    HW111452   8.475   3.057   0.808 -0.6391  1.2202  0.5704
 2512SOL    HW211453   8.564   2.954   0.873 -0.1940  0.0099 -1.8252
 2513SOL     OW11454   4.499   3.791   8.706  0.3098  0.4768  0.1943
 2513SOL    HW111455   4.434   3.833   8.649  1.2259  2.1085  0.2854
 2513SOL    HW211456   4.509   3.703   8.672  0.9148  1.4279 -2.2632
 2514SOL     OW11457   1.343   9.163   1.804  0.0574  0.0378  1.0581
 2514SOL    HW111458   1.293   9.238   1.771 -0.8495  0.9301  4.1259
 2514SOL    HW211459   1.344   9.101   1.731  0.0538  2.5933 -1.3131
 2515SOL     OW11460   6.794   2.168   7.228  0.6710  0.5949 -0.6602
 2515SOL    HW111461   6.793   2.243   7.168 -0.1341  1.5885  0.5360
 2515SOL    HW211462   6.875   2.121   7.206  1.6293  2.2654 -0.9035
 2516SOL     OW11463   9.214   9.076   5.026 -0.2832  0.3821 -0.2947
 2516SOL    HW111464   9.278   9.146   5.039 -0.4780  0.5414 -0.1613
 2516SOL    HW211465   9.204   9.070   4.931 -0.2611  0.5344 -0.3071
 2517SOL     OW11466   4.310   3.955   6.442  0.1223 -0.6374 -0.3583
 2517SOL    HW111467   4.274   3.946   6.530 -1.9767 -0.8826 -1.1855
 2517SOL    HW211468   4.366   3.878   6.431 -0.8086 -1.4270  0.2428
 2518SOL     OW11469   4.844   5.297   3.561 -0.5469  0.0349  0.2159
 2518SOL    HW111470   4.770   5.327   3.508 -0.4329 -1.3852 -0.7951
 2518SOL    HW211471   4.900   5.249   3.500 -1.1648 -2.9794  1.8177
 2519SOL     OW11472   0.823   4.042   5.619 -0.1828  1.1466 -0.2771
 2519SOL    HW111473   0.893   4.107   5.635  0.5208 -0.1362  2.4704
 2519SOL    HW211474   0.855   3.962   5.661 -2.9979  0.2928  0.4373
 2520SOL     OW11475   6.827   3.975   7.567  0.4424  0.8406 -0.0195
 2520SOL    HW111476   6.736   3.974   7.537 -0.3339 -0.1248  2.1202
 2520SOL    HW211477   6.835   4.054   7.620  0.5567  0.4721  0.5307
 2521SOL     OW11478   9.277   0.999   9.393  0.5337  0.6120  0.2598
 2521SOL    HW111479   9.337   1.061   9.352  0.9702  1.6173  2.3024
 2521SOL    HW211480   9.237   0.953   9.319  2.1960  1.4227 -1.2314
 2522SOL     OW11481   6.207   7.310   3.858  0.8313  0.0146 -0.2207
 2522SOL    HW111482   6.243   7.381   3.804  1.0404 -0.5062 -0.7645
 2522SOL    HW211483   6.233   7.334   3.948 -1.1483  1.9011 -0.0660
 2523SOL     OW11484   9.272   4.211   4.537 -0.4079  0.0272 -0.4145
 2523SOL    HW111485   9.357   4.253   4.527 -0.4375  0.2365  0.1956
 2523SOL    HW211486   9.221   4.272   4.590 -0.5067 -0.6866  0.3285
 2524SOL     OW11487   9.771   7.539   8.943  0.6231 -0.8531 -0.4718
 2524SOL    HW111488   9.721   7.534   8.862 -0.5848 -1.8135  0.2862
 2524SOL    HW211489   9.708   7.515   9.011  1.5277  0.2298  0.7903
 2525SOL     OW11490   8.306   0.695   6.019  0.2961 -0.1023 -0.3666
 2525SOL    HW111491   8.387   0.740   5.994 -1.1338  1.7513 -1.9862
 2525SOL    HW211492   8.297   0.712   6.113  0.6063  1.6917 -0.6343
 2526SOL     OW11493   7.211   8.512   2.718 -0.2488  0.4127  0.4657
 2526SOL    HW111494   7.288   8.466   2.752 -0.2256 -0.4271 -0.6571
 2526SOL    HW211495   7.242   8.552   2.636 -0.9286  0.2528  0.1257
 2527SOL     OW11496   7.172   2.790   8.017 -0.0456 -0.7770  0.2964
 2527SOL    HW111497   7.193   2.864   7.959 -3.0173 -0.2865 -0.3279
 2527SOL    HW211498   7.180   2.713   7.962 -0.1469 -0.5905  0.0188
 2528SOL     OW11499   0.134   6.248   9.528 -0.4264 -0.0469  0.1667
 2528SOL    HW111500   0.052   6.298   9.531 -0.5589 -0.2580  0.1236
 2528SOL    HW211501   0.128   6.198   9.447  1.1087  2.2240 -1.4688
 2529SOL     OW11502   7.335   1.380   0.039  0.1606  0.7633  0.4003
 2529SOL    HW111503   7.268   1.425  -0.012  1.0804  0.5650 -1.0398
 2529SOL    HW211504   7.414   1.432   0.028  1.2487 -1.1218 -1.3048
 2530SOL     OW11505   5.512   1.334   7.022  0.2625  0.3442 -0.3137
 2530SOL    HW111506   5.559   1.316   6.940  1.1105  1.2083 -0.0328
 2530SOL    HW211507   5.570   1.302   7.090 -0.0783  0.3780 -0.0063
 2531SOL     OW11508   6.608   8.287   1.233 -1.0013  0.0553  0.6850
 2531SOL    HW111509   6.537   8.251   1.287  0.2919 -1.6588  1.3082
 2531SOL    HW211510   6.683   8.231   1.251  0.2148  1.1033 -0.8689
 2532SOL     OW11511   5.980   1.190   5.202 -0.1474  0.2708 -0.5114
 2532SOL    HW111512   6.074   1.187   5.187  0.0380  2.1730 -0.0169
 2532SOL    HW211513   5.965   1.130   5.275  0.8484  0.6858  0.0497
 2533SOL     OW11514   1.420   4.858   0.282 -0.1099  0.1347 -0.1555
 2533SOL    HW111515   1.483   4.866   0.354  0.1078  0.6308 -0.3951
 2533SOL    HW211516   1.336   4.883   0.320  0.3125  2.3826 -0.5238
 2534SOL     OW11517   5.230   6.447   8.998 -0.1362  0.0725  0.3303
 2534SOL    HW111518   5.304   6.440   9.057  0.2200  0.1094 -0.1039
 2534SOL    HW211519   5.264   6.418   8.913  0.0716  2.3904 -0.4572
 2535SOL     OW11520   5.991   2.706   6.310 -0.3372  0.3867  0.3986
 2535SOL    HW111521   5.904   2.711   6.269 -0.8971  0.1839  1.5184
 2535SOL    HW211522   6.013   2.797   6.328 -0.2474  0.4495 -0.0047
 2536SOL     OW11523   9.021   9.845   5.219 -0.0745  0.0770  0.0030
 2536SOL    HW111524   8.990   9.903   5.150 -1.2665  0.2380  0.6534
 2536SOL    HW211525   9.104   9.811   5.186  0.2927  1.5828 -0.6993
 2537SOL     OW11526   0.918   9.605   4.867  0.0998  0.0114 -0.4414
 2537SOL    HW111527   0.872   9.633   4.946 -1.3403 -0.1122 -1.2121
 2537SOL    HW211528   1.011   9.605   4.892 -0.0107  2.9169  0.3991
 2538SOL     OW11529   3.489   1.218   9.358  0.0455  0.1548  0.1314
 2538SOL    HW111530   3.450   1.130   9.356 -0.7960  0.5212  0.1032
 2538SOL    HW211531   3.569   1.209   9.306  0.0214 -0.6182  0.2057
 2539SOL     OW11532   3.679   7.887   6.575  0.1658 -0.4814  0.3888
 2539SOL    HW111533   3.722   7.855   6.495 -0.2451 -0.7604  0.2759
 2539SOL    HW211534   3.713   7.976   6.586  0.4630 -0.5514  0.0758
 2540SOL     OW11535   2.465   7.141   8.006  0.0583  0.6256  0.0790
 2540SOL    HW111536   2.559   7.125   8.007 -0.2918 -1.7277  0.6558
 2540SOL    HW211537   2.449   7.198   8.082  0.9276  0.4708  0.3851
 2541SOL     OW11538   6.267   4.419   6.949 -0.2019  0.2616 -0.0577
 2541SOL    HW111539   6.187   4.438   6.901 -0.1026 -2.4424 -1.4698
 2541SOL    HW211540   6.244   4.348   7.009  0.6466  0.9037  1.0762
 2542SOL     OW11541   8.948   4.118   4.711  0.4027 -0.2717 -0.2400
 2542SOL    HW111542   8.988   4.202   4.731 -2.0844  0.9931 -0.1804
 2542SOL    HW211543   9.011   4.074   4.653  2.9143  0.4727  1.7345
 2543SOL     OW11544   5.610   7.476   4.252 -0.1091  0.0120  0.1643
 2543SOL    HW111545   5.528   7.429   4.243 -1.9493  2.8517  0.9475
 2543SOL    HW211546   5.632   7.504   4.163 -1.8974  2.1430  0.3338
 2544SOL     OW11547   5.379   4.806   3.038  0.3795 -0.6517 -0.2329
 2544SOL    HW111548   5.463   4.787   3.080  0.9030  1.3044 -0.3218
 2544SOL    HW211549   5.315   4.797   3.109  0.5054 -2.8848 -0.3266
 2545SOL     OW11550   9.652   7.593   6.568 -0.3292 -0.1105 -0.0152
 2545SOL    HW111551   9.708   7.593   6.490  0.4215 -1.8741  0.4686
 2545SOL    HW211552   9.708   7.623   6.639  0.3836 -2.7737  0.6538
 2546SOL     OW11553   9.101   0.554   7.459  0.1803  0.3838  0.1134
 2546SOL    HW111554   9.010   0.580   7.466  0.1145  0.1596  0.1066
 2546SOL    HW211555   9.146   0.632   7.426 -0.1916  0.1571 -0.9768
 2547SOL     OW11556   2.613   5.427   6.363  0.1095 -0.0864  0.3223
 2547SOL    HW111557   2.590   5.412   6.271 -1.8384  0.6647  0.6478
 2547SOL    HW211558   2.624   5.339   6.399  2.4209 -0.3853 -0.9366
 2548SOL     OW11559   4.058   0.343   1.291  0.2655  0.0352 -0.1113
 2548SOL    HW111560   4.102   0.260   1.272  0.5053  0.0474  0.3852
 2548SOL    HW211561   3.976   0.338   1.242  0.2835 -0.4907 -0.0971
 2549SOL     OW11562   6.925   4.052   3.554 -0.0152  0.2584 -0.1404
 2549SOL    HW111563   6.874   4.044   3.473  0.3991  1.9395 -0.6030
 2549SOL    HW211564   6.888   4.128   3.599  0.9053  0.4145  0.3874
 2550SOL     OW11565   8.842   5.263   6.485  0.1611  0.0059 -0.2542
 2550SOL    HW111566   8.858   5.247   6.392  0.1037 -2.7701  0.1420
 2550SOL    HW211567   8.906   5.209   6.531 -2.4598 -2.0379  1.2754
 2551SOL     OW11568   4.149   9.156   0.540  0.1359  0.2755  1.0185
 2551SOL    HW111569   4.148   9.251   0.551 -0.8748  0.3740  0.2087
 2551SOL    HW211570   4.069   9.136   0.492  2.1751 -0.5402 -2.3270
 2552SOL     OW11571   8.678   6.096   4.561 -0.2128 -0.2316  0.3712
 2552SOL    HW111572   8.723   6.050   4.490  3.4744  0.0873  2.2545
 2552SOL    HW211573   8.656   6.182   4.524  0.6158 -0.4589 -0.7082
 2553SOL     OW11574   5.295   6.953   0.958 -0.3568 -0.5435  0.1284
 2553SOL    HW111575   5.281   6.951   0.863 -0.1471  3.1190 -0.1436
 2553SOL    HW211576   5.381   6.913   0.971 -0.2500 -0.8276 -1.2653
 2554SOL     OW11577   5.539   1.691   5.643 -0.2186  0.4691  0.1111
 2554SOL    HW111578   5.595   1.648   5.707  0.3215 -0.0598 -0.6928
 2554SOL    HW211579   5.585   1.772   5.622 -0.5464  0.7895  0.6011
 2555SOL     OW11580   3.572   0.888   9.129 -0.2542 -0.2513  0.3649
 2555SOL    HW111581   3.657   0.855   9.155 -0.7284 -1.1469  0.8261
 2555SOL    HW211582   3.509   0.837   9.181 -1.1033 -0.1665 -0.5428
 2556SOL     OW11583   6.209   3.536   0.313  0.8650 -0.2768 -0.0571
 2556SOL    HW111584   6.156   3.613   0.336 -1.6573 -2.0904  0.6339
 2556SOL    HW211585   6.227   3.546   0.220 -1.3041  0.1700 -0.4991
 2557SOL     OW11586   1.029   6.229   4.222 -0.3061  0.2181 -0.1251
 2557SOL    HW111587   0.971   6.208   4.149 -0.7366  0.3527  0.1757
 2557SOL    HW211588   0.979   6.289   4.277 -0.7271 -1.3475  1.2843
 2558SOL     OW11589   7.997   3.710   2.533  0.3662  0.5900  0.3645
 2558SOL    HW111590   7.969   3.794   2.569  0.3679  0.3803  0.8613
 2558SOL    HW211591   8.038   3.664   2.607  0.4084  0.1745  0.0876
 2559SOL     OW11592   4.207   2.493   1.372  0.0294  0.0118  0.4711
 2559SOL    HW111593   4.220   2.523   1.462 -0.8473 -1.3818  1.0947
 2559SOL    HW211594   4.127   2.440   1.375 -0.5984  0.7736 -1.3433
 2560SOL     OW11595   8.714   6.297   8.743 -0.1433 -0.1940 -0.6305
 2560SOL    HW111596   8.767   6.274   8.819 -0.1972  0.4272 -0.3962
 2560SOL    HW211597   8.746   6.383   8.716  0.7732 -0.9522 -2.1297
 2561SOL     OW11598   7.172   3.524   0.219  0.1143  0.0162 -0.2857
 2561SOL    HW111599   7.128   3.443   0.196 -0.7435  0.1984  0.6124
 2561SOL    HW211600   7.117   3.562   0.288 -0.2798  2.0393 -1.6165
 2562SOL     OW11601   0.808   0.905   0.237  0.0892  0.0703  0.0773
 2562SOL    HW111602   0.891   0.859   0.231  0.0194  0.1270 -1.6479
 2562SOL    HW211603   0.792   0.938   0.149 -1.7703  0.0559  0.3746
 2563SOL     OW11604   4.986   1.030   6.249 -0.3702  0.5252  0.7420
 2563SOL    HW111605   4.968   0.951   6.198 -0.8477  0.1860  1.4283
 2563SOL    HW211606   5.069   1.063   6.212  0.6539 -1.1364  1.4374
 2564SOL     OW11607   9.313   3.037   8.248  0.3509  0.0838  0.4128
 2564SOL    HW111608   9.239   3.009   8.301 -1.1494 -0.2886 -1.7425
 2564SOL    HW211609   9.390   3.010   8.298 -0.9737 -1.5902  1.6812
 2565SOL     OW11610   7.480   7.192   6.436  0.1290  0.3318 -0.4281
 2565SOL    HW111611   7.469   7.128   6.506  0.7647  1.8495  1.1339
 2565SOL    HW211612   7.404   7.248   6.442  0.3104  0.6231 -0.8039
 2566SOL     OW11613   4.964   6.310   4.062 -0.0606 -0.3198 -0.0530
 2566SOL    HW111614   4.990   6.349   4.145 -0.4238 -0.0174 -0.0824
 2566SOL    HW211615   4.869   6.316   4.060 -0.0313  0.0931 -0.6936
 2567SOL     OW11616   1.284   0.287  10.193 -0.3870  0.0229 -0.3493
 2567SOL    HW111617   1.212   0.297  10.130  1.5274  1.9746 -2.4213
 2567SOL    HW211618   1.268   0.355  10.259 -1.2035 -0.5511  0.0652
 2568SOL     OW11619   4.266   1.707   1.530  0.0167 -0.2015  0.5185
 2568SOL    HW111620   4.237   1.647   1.461  0.6740 -0.3868  0.3910
 2568SOL    HW211621   4.239   1.794   1.499 -0.3203 -0.3605  0.3683
 2569SOL     OW11622   5.931   9.759   2.368 -0.6670  0.4047  0.1223
 2569SOL    HW111623   6.019   9.737   2.399  0.3512  2.1881 -1.2878
 2569SOL    HW211624   5.935   9.744   2.273 -2.2876 -0.6420  0.1790
 2570SOL     OW11625   8.711   3.208   3.663 -0.3366 -0.4277 -0.0157
 2570SOL    HW111626   8.760   3.151   3.602 -0.9782 -0.2181 -0.7467
 2570SOL    HW211627   8.704   3.156   3.743 -2.5699 -2.2634 -1.2597
 2571SOL     OW11628   0.336   4.413   2.506 -0.0534 -0.1066  0.0909
 2571SOL    HW111629   0.420   4.378   2.534  0.0558  0.4110  0.4271
 2571SOL    HW211630   0.296   4.343   2.454  0.4980 -0.4229  0.0944
 2572SOL     OW11631   6.690   7.865   7.668 -0.0554  0.0482  0.3392
 2572SOL    HW111632   6.680   7.896   7.758  1.3632  1.6118  0.0094
 2572SOL    HW211633   6.615   7.807   7.653 -0.9880  0.7555  2.1079
 2573SOL     OW11634   3.824   3.846  10.031  0.7811  0.2492 -0.2300
 2573SOL    HW111635   3.871   3.814   9.955  0.4642 -2.5265  0.6320
 2573SOL    HW211636   3.834   3.777  10.097 -0.5139  1.6957  1.6120
 2574SOL     OW11637   3.880   7.323   2.814  0.0848 -0.5122  0.6031
 2574SOL    HW111638   3.784   7.316   2.816 -0.1633  1.2432 -1.3141
 2574SOL    HW211639   3.900   7.353   2.725  2.1569  2.0289  1.7851
 2575SOL     OW11640  10.201   7.200   2.268  0.0556 -0.1097  0.3999
 2575SOL    HW111641  10.212   7.186   2.362  0.6479  1.4929  0.6059
 2575SOL    HW211642  10.267   7.265   2.245 -0.5779  0.0970 -0.9793
 2576SOL     OW11643   2.232   2.605   1.904  0.2572  0.0946  0.0043
 2576SOL    HW111644   2.178   2.591   1.981 -1.8193 -1.1890 -1.5655
 2576SOL    HW211645   2.293   2.532   1.903 -0.3687 -0.4374 -0.0680
 2577SOL     OW11646   0.764   0.852   8.868 -0.1172 -0.0735  0.1031
 2577SOL    HW111647   0.692   0.903   8.907  0.1499 -1.4495  2.6176
 2577SOL    HW211648   0.720   0.784   8.817 -0.5006  0.8849 -0.8942
 2578SOL     OW11649   1.205   2.693  10.192 -0.2015 -0.1698  0.1534
 2578SOL    HW111650   1.204   2.666  10.284  0.2749 -0.8145 -0.0245
 2578SOL    HW211651   1.156   2.625  10.146  0.4993 -0.4283 -0.2185
 2579SOL     OW11652   8.832   9.396   7.212 -0.1141  0.3324  0.1474
 2579SOL    HW111653   8.832   9.391   7.116 -1.2133 -0.3775  0.1683
 2579SOL    HW211654   8.924   9.388   7.237  0.1956  0.6543 -0.8516
 2580SOL     OW11655   2.405   0.207   3.365 -0.1261 -0.2104  0.5041
 2580SOL    HW111656   2.482   0.259   3.343 -0.3273 -0.1475 -0.0650
 2580SOL    HW211657   2.342   0.270   3.399 -0.2861 -0.1159  0.0322
 2581SOL     OW11658   4.853   2.898   1.855  0.0380  0.1889 -0.3907
 2581SOL    HW111659   4.786   2.907   1.787 -1.5158 -0.7731  0.9471
 2581SOL    HW211660   4.845   2.979   1.907 -2.2518 -1.1519  1.5465
 2582SOL     OW11661   8.137   0.666   7.009  0.0659  0.4573 -0.0539
 2582SOL    HW111662   8.162   0.581   7.045 -0.6883  0.3247  0.1799
 2582SOL    HW211663   8.055   0.688   7.055  0.8860  1.8810  0.7907
 2583SOL     OW11664   7.886   7.599   3.627  0.2285  0.5517 -0.1469
 2583SOL    HW111665   7.829   7.561   3.693  0.3234  0.1564 -0.2925
 2583SOL    HW211666   7.836   7.673   3.591  0.5751  1.4231  1.0792
 2584SOL     OW11667   0.378   4.707   6.262 -0.1293 -0.3696  0.0946
 2584SOL    HW111668   0.376   4.746   6.350  0.5945  0.5826 -0.3029
 2584SOL    HW211669   0.336   4.621   6.274 -0.6097 -0.0018  1.2410
 2585SOL     OW11670   1.336   1.161   7.021  0.0271 -0.2238 -0.2851
 2585SOL    HW111671   1.260   1.115   6.987 -0.4216  0.5074 -0.2822
 2585SOL    HW211672   1.383   1.095   7.072 -1.3910 -0.3246  0.9510
 2586SOL     OW11673   6.335   6.724   0.516 -0.1394  0.8996 -0.0045
 2586SOL    HW111674   6.278   6.801   0.516 -2.1718 -0.5179 -0.6324
 2586SOL    HW211675   6.315   6.679   0.434  0.3724 -0.7384  0.7277
 2587SOL     OW11676   3.458   7.199   2.139  0.1480  0.3838 -0.3466
 2587SOL    HW111677   3.516   7.175   2.067  0.7274 -0.3298  0.3412
 2587SOL    HW211678   3.381   7.144   2.127  0.0008  0.6689 -0.7357
 2588SOL     OW11679   3.585   5.571   3.299 -0.4227 -0.1080 -0.4075
 2588SOL    HW111680   3.679   5.572   3.280 -0.1989  0.1391  0.6316
 2588SOL    HW211681   3.561   5.663   3.308 -0.3309 -0.2164  1.2465
 2589SOL     OW11682   3.300   2.787   0.170  0.2660  0.4006  0.3344
 2589SOL    HW111683   3.388   2.802   0.204  0.3129  0.0718  0.3530
 2589SOL    HW211684   3.287   2.693   0.176  0.5176  0.2478 -1.1771
 2590SOL     OW11685   5.175   5.745   2.970  0.6039  0.2330  0.5608
 2590SOL    HW111686   5.086   5.721   2.995  0.5450 -0.1287  0.0289
 2590SOL    HW211687   5.186   5.834   3.005 -0.1089  0.4420  0.2896
 2591SOL     OW11688   7.787   0.030   3.230  0.3224  0.7721  0.2596
 2591SOL    HW111689   7.806   0.116   3.194  0.1516  0.7953  0.2277
 2591SOL    HW211690   7.816  -0.031   3.162  1.6349  0.7615  0.8026
 2592SOL     OW11691   0.617   8.332   2.920 -0.7198  0.1402 -0.2330
 2592SOL    HW111692   0.658   8.415   2.946  0.4642  0.1816 -2.0558
 2592SOL    HW211693   0.546   8.320   2.983  1.4905  0.5317  2.5663
 2593SOL     OW11694   2.210   0.464   7.668 -0.2631 -0.2708  0.3185
 2593SOL    HW111695   2.149   0.475   7.740  0.5911  1.7601  0.8008
 2593SOL    HW211696   2.155   0.469   7.589 -0.9465 -0.4409  0.7744
 2594SOL     OW11697   8.548   4.737   1.140  0.5603 -0.3708  0.1418
 2594SOL    HW111698   8.529   4.644   1.146  3.8228 -1.0710  1.9558
 2594SOL    HW211699   8.518   4.774   1.223 -0.2977  0.1433 -0.3799
 2595SOL     OW11700   9.731   9.352   2.694 -0.1530 -0.2680  0.2808
 2595SOL    HW111701   9.697   9.440   2.713 -0.7964 -0.6101  0.7649
 2595SOL    HW211702   9.770   9.323   2.777  1.1981  0.0469 -0.2169
 2596SOL     OW11703   0.581   8.226   5.005  0.5384 -0.4294  0.0438
 2596SOL    HW111704   0.597   8.207   4.913  1.4142 -3.0010  0.6243
 2596SOL    HW211705   0.544   8.144   5.039  1.8419 -0.1556  2.3163
 2597SOL     OW11706   4.717   0.295   4.125  0.0752  0.7897  0.3263
 2597SOL    HW111707   4.762   0.226   4.077  2.0394  1.3608  1.2623
 2597SOL    HW211708   4.676   0.250   4.198 -0.0363  0.3978  0.0249
 2598SOL     OW11709   6.606   2.682   5.661 -0.2939 -0.2398 -0.3165
 2598SOL    HW111710   6.644   2.659   5.746  1.1599  0.7686 -0.6525
 2598SOL    HW211711   6.653   2.628   5.598  0.6449  1.0166 -0.7381
 2599SOL     OW11712   1.850  10.086   9.057 -0.0070  0.1348 -0.2892
 2599SOL    HW111713   1.874  10.022   9.124 -0.3514 -4.1656 -3.7780
 2599SOL    HW211714   1.929  10.096   9.004 -1.3464 -2.1910 -3.0478
 2600SOL     OW11715   6.771   4.255   2.224  0.2632  0.0376  0.0005
 2600SOL    HW111716   6.822   4.256   2.143 -0.1828  0.8816 -0.2807
 2600SOL    HW211717   6.828   4.295   2.289  1.3818 -2.3735  0.6134
 2601SOL     OW11718   1.866   0.375   1.860  0.0708  0.6863 -0.4424
 2601SOL    HW111719   1.922   0.441   1.901 -0.1962 -0.1607  1.3948
 2601SOL    HW211720   1.777   0.403   1.882 -0.0353 -0.5010  0.8208
 2602SOL     OW11721   9.025   6.717   6.966 -0.4695  0.0941  0.0593
 2602SOL    HW111722   9.053   6.666   6.890 -0.4916 -0.7277  0.5930
 2602SOL    HW211723   8.944   6.759   6.938 -0.3080  0.0583 -0.4773
 2603SOL     OW11724   3.606   0.131   0.864 -0.3681 -0.0161  0.5570
 2603SOL    HW111725   3.536   0.193   0.842 -0.6484 -0.4645  0.1623
 2603SOL    HW211726   3.578   0.092   0.948 -0.3248  0.1957  0.6693
 2604SOL     OW11727   2.696   5.734   8.636  0.4509 -0.0563  0.0255
 2604SOL    HW111728   2.779   5.782   8.645  0.5091 -0.0011 -0.7671
 2604SOL    HW211729   2.716   5.647   8.670  0.4307  0.3700  1.1921
 2605SOL     OW11730   4.823   5.087   8.085 -0.3649  0.2723  0.1964
 2605SOL    HW111731   4.892   5.021   8.076  0.5884  0.8963  2.3030
 2605SOL    HW211732   4.851   5.159   8.028 -0.1519 -0.1463 -0.2349
 2606SOL     OW11733   9.570   0.253  10.034  0.2657  0.2633  0.0301
 2606SOL    HW111734   9.521   0.236   9.953  1.6110 -0.5478 -0.6412
 2606SOL    HW211735   9.593   0.167  10.067 -0.5390  0.5746  1.4879
 2607SOL     OW11736   8.442   8.781   0.307 -0.8255 -0.1023  0.5593
 2607SOL    HW111737   8.498   8.823   0.373 -1.0537 -0.1441  0.7812
 2607SOL    HW211738   8.383   8.850   0.278 -0.5290 -0.0040  0.1740
 2608SOL     OW11739   6.677   4.385   0.511  0.5896  0.0774  0.1062
 2608SOL    HW111740   6.596   4.341   0.537 -0.4419  1.8979  0.1691
 2608SOL    HW211741   6.744   4.317   0.514 -0.9713 -1.5259 -0.1373
 2609SOL     OW11742   7.177   8.082   3.842 -0.2352  0.3772 -0.1280
 2609SOL    HW111743   7.213   8.136   3.772 -2.1410  0.1872 -1.3406
 2609SOL    HW211744   7.115   8.141   3.886 -1.2148 -0.3495 -0.5037
 2610SOL     OW11745   2.905   6.712   4.688  0.0444 -0.6479  0.2514
 2610SOL    HW111746   2.882   6.803   4.674 -0.9630 -0.9269  0.0308
 2610SOL    HW211747   3.001   6.711   4.684  0.0347  0.2233 -0.8190
 2611SOL     OW11748   9.310   3.374   9.224  0.5125  0.5133  0.0126
 2611SOL    HW111749   9.402   3.357   9.205  0.4742  0.6237 -0.2874
 2611SOL    HW211750   9.262   3.327   9.156  0.3101 -0.3138  0.7205
 2612SOL     OW11751   5.975   6.527   7.798 -0.2019  0.1494  0.5180
 2612SOL    HW111752   6.045   6.549   7.737 -1.2929  1.4654 -0.3249
 2612SOL    HW211753   6.017   6.472   7.865  1.2553 -0.4206 -0.8115
 2613SOL     OW11754   2.292   2.417   9.909  0.1191  0.2876 -0.3762
 2613SOL    HW111755   2.236   2.478   9.958 -0.9996 -0.7673 -0.2801
 2613SOL    HW211756   2.324   2.356   9.976 -1.0980 -0.9265 -0.8548
 2614SOL     OW11757   3.874   8.361   5.746  0.2081  0.2984  0.5363
 2614SOL    HW111758   3.798   8.378   5.801 -0.0489 -0.6845  0.5177
 2614SOL    HW211759   3.840   8.368   5.656  0.0149 -0.5467  0.5268
 2615SOL     OW11760   8.168   4.584   9.002 -0.3844  0.0827 -0.4420
 2615SOL    HW111761   8.165   4.671   8.962 -1.9381 -0.2147 -1.0554
 2615SOL    HW211762   8.134   4.526   8.934  0.5907 -1.0149 -0.0285
 2616SOL     OW11763   9.022   5.460   9.534  0.7803 -0.0703 -0.3157
 2616SOL    HW111764   9.094   5.458   9.471 -1.1080  1.8467 -2.7963
 2616SOL    HW211765   9.003   5.554   9.545 -0.7336 -0.4856  0.9924
 2617SOL     OW11766   5.197   2.644   9.835 -0.2891  0.1662 -0.2049
 2617SOL    HW111767   5.218   2.611   9.748 -0.2987  0.8838 -0.4847
 2617SOL    HW211768   5.281   2.675   9.870  0.3151 -2.6824  1.2023
 2618SOL     OW11769   2.588   9.327   9.197 -0.0118 -0.4662 -0.1731
 2618SOL    HW111770   2.566   9.270   9.123 -1.1528 -2.6635  1.7206
 2618SOL    HW211771   2.506   9.335   9.246  0.7987  0.6405  1.0696
 2619SOL     OW11772   0.653   3.356   0.377 -0.2520 -0.1182  0.0137
 2619SOL    HW111773   0.623   3.370   0.466  0.4065  0.0497  0.2109
 2619SOL    HW211774   0.737   3.311   0.386 -1.0710 -1.8747 -0.5474
 2620SOL     OW11775   0.153   2.521   4.512 -0.1127  0.0766  0.0818
 2620SOL    HW111776   0.076   2.557   4.470 -0.2469  0.8445  0.9547
 2620SOL    HW211777   0.220   2.519   4.444 -1.0743 -1.2191 -0.8579
 2621SOL     OW11778   7.755   2.600   3.115 -0.3182  0.0393 -0.5197
 2621SOL    HW111779   7.754   2.526   3.176  0.1362 -1.2120 -1.9656
 2621SOL    HW211780   7.801   2.567   3.038 -0.4698  1.7151 -1.3749
 2622SOL     OW11781   7.699   9.712   0.155 -0.8960 -0.3310  0.3701
 2622SOL    HW111782   7.684   9.623   0.123 -1.2172 -0.5021  0.9819
 2622SOL    HW211783   7.644   9.768   0.100  2.9547  0.1819 -3.4747
 2623SOL     OW11784   9.673   3.125   1.627  0.0868 -0.2044  0.1243
 2623SOL    HW111785   9.721   3.068   1.568 -0.0376  0.8939 -1.0799
 2623SOL    HW211786   9.618   3.179   1.570  1.8250  2.6628  0.9275
 2624SOL     OW11787   1.760   7.447   1.968 -0.4294 -0.1795  0.1901
 2624SOL    HW111788   1.835   7.455   2.027  0.0360  0.4225 -0.4542
 2624SOL    HW211789   1.687   7.485   2.016  0.4822  2.7961 -0.5174
 2625SOL     OW11790   7.184   8.402   7.235 -0.3784 -0.2277 -0.0990
 2625SOL    HW111791   7.109   8.367   7.284  0.1026  1.1969  1.7902
 2625SOL    HW211792   7.259   8.383   7.290  0.3398  0.4374 -0.8230
 2626SOL     OW11793   3.825   8.544   5.281  0.3606  0.5253  0.2517
 2626SOL    HW111794   3.804   8.521   5.371  0.5577  1.0423  0.4368
 2626SOL    HW211795   3.918   8.568   5.283  0.2743  0.8992 -0.0126
 2627SOL     OW11796   1.106   4.676   2.704 -0.1095  0.4636  0.1794
 2627SOL    HW111797   1.065   4.645   2.785  1.3824  0.8262  1.1079
 2627SOL    HW211798   1.180   4.616   2.690 -0.0339  0.7295 -0.6287
 2628SOL     OW11799   7.971   7.261   3.173  0.5447 -0.5735 -0.3735
 2628SOL    HW111800   8.057   7.250   3.133  0.5416 -0.9683 -0.2731
 2628SOL    HW211801   7.977   7.216   3.257  0.4360 -0.0666 -0.0844
 2629SOL     OW11802   7.304   0.396   0.141 -0.1043 -0.3958 -0.6855
 2629SOL    HW111803   7.261   0.338   0.077  0.5886 -1.4203 -0.2560
 2629SOL    HW211804   7.372   0.341   0.181 -0.7129  0.1312  1.1489
 2630SOL     OW11805   3.320   0.494   9.571  0.1418  0.2965  0.0537
 2630SOL    HW111806   3.384   0.563   9.589 -0.0279  0.5157 -0.1655
 2630SOL    HW211807   3.237   0.541   9.560 -0.4237 -0.1406  2.1361
 2631SOL     OW11808   2.838   8.181   2.447 -0.4005 -0.1486 -0.0626
 2631SOL    HW111809   2.853   8.262   2.398  0.1324  1.1970  2.1761
 2631SOL    HW211810   2.770   8.136   2.398  0.3535  0.9111 -2.2199
 2632SOL     OW11811   1.451   0.018   5.788 -0.0147 -0.0689  1.2302
 2632SOL    HW111812   1.519   0.030   5.854  0.3699 -0.2857  0.8728
 2632SOL    HW211813   1.470  -0.067   5.748  0.8295  0.8377 -0.3925
 2633SOL     OW11814   5.805   1.784   1.124 -0.3354 -0.0096  0.1822
 2633SOL    HW111815   5.876   1.847   1.120 -1.1381  0.8616 -1.3668
 2633SOL    HW211816   5.848   1.698   1.119  0.6681  0.4426  0.7953
 2634SOL     OW11817   0.728   2.638   3.308  0.2896  0.2219  0.2143
 2634SOL    HW111818   0.714   2.694   3.231  0.3719 -0.8541 -0.6181
 2634SOL    HW211819   0.647   2.645   3.358  0.6133  1.7241  0.5817
 2635SOL     OW11820   4.574   4.433   0.569  0.1461 -0.5089 -0.2022
 2635SOL    HW111821   4.603   4.517   0.531  1.0587 -1.1442 -0.9595
 2635SOL    HW211822   4.551   4.455   0.659 -0.1297  0.6562 -0.5303
 2636SOL     OW11823   8.100   2.099   4.915  0.2542 -0.1297 -0.4865
 2636SOL    HW111824   8.100   2.189   4.884  1.2539 -0.3894 -1.3020
 2636SOL    HW211825   8.169   2.096   4.981  0.8272 -0.4827 -1.0846
 2637SOL     OW11826   4.704   6.977   7.764  0.3121 -0.2746 -0.8717
 2637SOL    HW111827   4.777   7.033   7.790  0.2014 -0.5866  0.1910
 2637SOL    HW211828   4.729   6.942   7.679 -0.3138  2.5546 -2.3028
 2638SOL     OW11829   0.574   5.542   7.198  0.1335  0.1465 -0.2566
 2638SOL    HW111830   0.657   5.538   7.246 -0.1416  4.9830  1.2147
 2638SOL    HW211831   0.598   5.574   7.111 -0.0360 -0.8104 -0.6660
 2639SOL     OW11832   3.614   7.371   6.847  0.0081 -0.3294 -0.0908
 2639SOL    HW111833   3.573   7.458   6.850 -1.3797 -0.9791  2.0262
 2639SOL    HW211834   3.658   7.362   6.931  1.9544 -0.9125 -1.1012
 2640SOL     OW11835   3.183   9.960   3.950  0.3479  0.0206 -0.2130
 2640SOL    HW111836   3.162   9.983   4.040  0.1464 -1.4563  0.1417
 2640SOL    HW211837   3.098   9.947   3.907  0.4439  0.5707 -0.5746
 2641SOL     OW11838   5.028   5.233   4.757  0.2349  0.2324  0.2899
 2641SOL    HW111839   5.085   5.294   4.803 -0.2838  1.3661 -0.5318
 2641SOL    HW211840   5.004   5.168   4.823  2.4307 -0.2639  0.6592
 2642SOL     OW11841   4.541   5.419   4.854  0.1229  0.6763  0.2162
 2642SOL    HW111842   4.593   5.438   4.776  0.3874 -0.3325  0.1348
 2642SOL    HW211843   4.605   5.385   4.917 -0.7792 -3.6537 -0.9338
 2643SOL     OW11844   4.937   0.695   9.129 -0.5720 -0.3528 -0.5437
 2643SOL    HW111845   5.023   0.656   9.111  0.5581  1.0166  1.4624
 2643SOL    HW211846   4.903   0.719   9.042  0.5889 -1.8353 -1.4602
 2644SOL     OW11847   9.722   2.960   8.150  0.0305 -0.1594  0.0648
 2644SOL    HW111848   9.659   2.971   8.221 -1.3749  1.1219 -1.3252
 2644SOL    HW211849   9.743   2.866   8.151 -0.1599 -0.2232  1.9464
 2645SOL     OW11850   1.259   6.336   6.703  0.2141 -0.4624 -0.3557
 2645SOL    HW111851   1.343   6.354   6.745  0.1028 -1.4581  0.3299
 2645SOL    HW211852   1.232   6.420   6.666  0.2461  0.5113  1.7044
 2646SOL     OW11853   8.452   1.365   1.771  0.8731 -0.1653 -0.2737
 2646SOL    HW111854   8.461   1.418   1.692  1.0791 -0.4308 -0.4315
 2646SOL    HW211855   8.362   1.332   1.768  0.4522  0.8779  0.2775
 2647SOL     OW11856   5.001   6.368   6.201  0.1172 -0.3499  0.1509
 2647SOL    HW111857   4.921   6.333   6.160  0.1021 -0.7240  0.4977
 2647SOL    HW211858   5.072   6.324   6.154  0.1635  0.9322 -1.0310
 2648SOL     OW11859   5.233   5.947   8.271 -0.5041  0.5749  0.4002
 2648SOL    HW111860   5.184   5.886   8.216 -1.2279  0.5561  1.0479
 2648SOL    HW211861   5.318   5.905   8.284 -0.8359 -0.0891  0.4687
 2649SOL     OW11862   6.647   5.507   0.450  0.3447  0.2158 -0.1831
 2649SOL    HW111863   6.632   5.568   0.378 -1.2428  1.9440  1.5111
 2649SOL    HW211864   6.657   5.422   0.407 -0.5876  1.1590 -2.4366
 2650SOL     OW11865   9.696   4.703   5.033 -0.1115 -0.0214  0.2530
 2650SOL    HW111866   9.709   4.757   5.112 -0.9681  2.7027 -1.3207
 2650SOL    HW211867   9.749   4.626   5.048  0.4718  0.7984  3.1117
 2651SOL     OW11868   3.982   8.836   1.861 -0.4515  0.0023 -0.2420
 2651SOL    HW111869   4.016   8.810   1.946  0.1044  0.5669 -0.2899
 2651SOL    HW211870   3.900   8.881   1.880 -0.2914  0.1927  0.0000
 2652SOL     OW11871   4.504   7.161   1.023  0.7064 -0.3711 -0.0440
 2652SOL    HW111872   4.465   7.243   0.994 -0.4235 -0.5600  0.8586
 2652SOL    HW211873   4.589   7.158   0.979 -0.2976  0.0231 -2.1638
 2653SOL     OW11874   2.288   0.197  10.067  0.3596  0.5335 -0.2449
 2653SOL    HW111875   2.372   0.235  10.090  0.1457  1.7195 -1.3024
 2653SOL    HW211876   2.294   0.179   9.973  0.0370 -1.0236 -0.0012
 2654SOL     OW11877   1.987   7.474   6.015 -0.4217 -0.2202  0.0363
 2654SOL    HW111878   1.993   7.464   6.110  0.6739 -1.2649 -0.1231
 2654SOL    HW211879   1.924   7.407   5.988  1.7817 -2.2533 -0.2988
 2655SOL     OW11880   2.340   4.431   3.800 -0.0479  0.3703  0.3930
 2655SOL    HW111881   2.267   4.488   3.776  0.7166  1.0507 -0.3326
 2655SOL    HW211882   2.327   4.352   3.748  0.8255  1.2854 -1.2875
 2656SOL     OW11883   2.483   6.705   6.979 -0.1008 -0.0500 -0.4405
 2656SOL    HW111884   2.516   6.623   6.943 -0.6558 -0.5209  0.1090
 2656SOL    HW211885   2.388   6.700   6.967 -0.2645 -0.0580  0.7396
 2657SOL     OW11886   8.473   0.203   4.371  0.0985  0.2185  0.5113
 2657SOL    HW111887   8.463   0.118   4.414 -0.4218  0.0799  0.1127
 2657SOL    HW211888   8.547   0.191   4.312  1.4149  0.6648  1.9859
 2658SOL     OW11889   3.990   7.229   4.746 -0.6296 -0.0702  0.3071
 2658SOL    HW111890   4.074   7.273   4.758 -0.6927 -0.5030  2.9621
 2658SOL    HW211891   4.008   7.160   4.683  0.8763  0.2076  0.3912
 2659SOL     OW11892   0.469   6.780   7.884  1.3460 -0.5314 -0.0367
 2659SOL    HW111893   0.398   6.752   7.827  1.3241  0.4208 -0.4988
 2659SOL    HW211894   0.459   6.875   7.890  2.5204 -0.3914 -0.0318
 2660SOL     OW11895   8.936   1.481   7.234  0.7363  0.5766  0.3620
 2660SOL    HW111896   8.874   1.503   7.165 -1.0758  1.9751  2.3064
 2660SOL    HW211897   8.952   1.387   7.224 -2.3542 -0.0204  0.2284
 2661SOL     OW11898   6.906   7.459   3.421  0.1115 -0.6135 -0.1637
 2661SOL    HW111899   6.853   7.382   3.442  1.3956 -1.4029  0.2661
 2661SOL    HW211900   6.996   7.427   3.418  0.7574  1.0091  0.7371
 2662SOL     OW11901   2.277   7.225   0.360  0.6679  0.3501  0.9985
 2662SOL    HW111902   2.224   7.259   0.289  0.5218 -0.3445  0.7682
 2662SOL    HW211903   2.366   7.251   0.339  0.4202  1.6230  1.4480
 2663SOL     OW11904   8.035   9.729   7.151  0.2844  0.2015  0.4483
 2663SOL    HW111905   7.958   9.782   7.173  0.2265  0.3233 -0.0466
 2663SOL    HW211906   8.109   9.780   7.185  0.3260  1.1659 -1.0111
 2664SOL     OW11907   4.383   1.307   1.904  0.3892 -0.3545  0.1488
 2664SOL    HW111908   4.367   1.244   1.833 -0.7143  0.3622 -0.2559
 2664SOL    HW211909   4.388   1.392   1.861  1.1081 -0.0642  0.7817
 2665SOL     OW11910   6.555   8.641   3.492 -0.4231  0.3502  0.1740
 2665SOL    HW111911   6.565   8.560   3.542 -0.3274  0.4334  0.2862
 2665SOL    HW211912   6.498   8.616   3.419  0.7982 -0.1848 -0.6294
 2666SOL     OW11913   1.075   9.132   5.589 -0.2498 -0.3946 -0.0123
 2666SOL    HW111914   0.996   9.079   5.591 -0.5460  0.0313 -0.2391
 2666SOL    HW211915   1.146   9.071   5.610 -0.8937 -0.2294  3.0071
 2667SOL     OW11916   1.582   8.814   3.021 -0.7253  0.9135  0.4138
 2667SOL    HW111917   1.642   8.888   3.019 -0.1046  0.4121 -1.1792
 2667SOL    HW211918   1.510   8.841   2.963 -1.8875  1.3573  2.0037
 2668SOL     OW11919   1.137   6.188   0.156 -0.5129 -0.2646  0.4944
 2668SOL    HW111920   1.209   6.198   0.219  1.5181  2.0592 -1.9356
 2668SOL    HW211921   1.089   6.271   0.162 -1.3675 -0.7251  0.1722
 2669SOL     OW11922   1.656   3.390   9.531 -0.3308 -0.3883 -0.3238
 2669SOL    HW111923   1.612   3.475   9.537  0.0657 -0.1924 -0.1652
 2669SOL    HW211924   1.748   3.410   9.545  0.2510 -0.3813 -3.4534
 2670SOL     OW11925   7.380   2.416   7.981  0.7359 -0.1091 -0.1465
 2670SOL    HW111926   7.290   2.406   7.948  0.9540 -1.1130 -0.4624
 2670SOL    HW211927   7.432   2.355   7.929  1.2591 -1.0366  1.3838
 2671SOL     OW11928   6.749   4.350   7.255 -0.2169  0.2761 -0.1941
 2671SOL    HW111929   6.819   4.415   7.253 -0.1551  0.3210  1.5231
 2671SOL    HW211930   6.768   4.296   7.332 -2.0503  0.2985  0.3369
 2672SOL     OW11931   9.706   8.876   8.307  0.3428 -0.3490  0.0467
 2672SOL    HW111932   9.731   8.880   8.400  0.9993 -0.7298 -0.1115
 2672SOL    HW211933   9.611   8.871   8.309  0.0421  3.0812  0.6202
 2673SOL     OW11934   7.372   5.067   3.870 -0.3566 -0.5869  0.1162
 2673SOL    HW111935   7.467   5.080   3.869 -0.4198  0.5746  2.4191
 2673SOL    HW211936   7.361   4.973   3.887  0.3576 -0.7993 -0.5354
 2674SOL     OW11937   0.967   7.664   7.118  0.1811  0.4515  0.1201
 2674SOL    HW111938   0.990   7.615   7.197  1.4152  0.3751 -0.2605
 2674SOL    HW211939   0.966   7.756   7.146 -0.2574  0.3592  0.4130
 2675SOL     OW11940   7.833   8.786   0.131 -0.0369 -0.0036 -0.2182
 2675SOL    HW111941   7.754   8.834   0.157 -0.2917  0.0498 -1.0681
 2675SOL    HW211942   7.855   8.734   0.208 -0.1372  0.9726  0.4873
 2676SOL     OW11943   9.832   6.978   7.711 -0.2055  0.6274 -0.2758
 2676SOL    HW111944   9.868   6.906   7.763 -1.1365 -1.7060 -2.6604
 2676SOL    HW211945   9.905   7.039   7.702  1.4284 -1.2095 -0.2347
 2677SOL     OW11946   4.070   8.532   4.552 -0.0403 -0.7359  0.0812
 2677SOL    HW111947   3.992   8.487   4.519 -0.6922  1.1399 -1.0735
 2677SOL    HW211948   4.093   8.594   4.482  0.9595  0.5405  1.4940
 2678SOL     OW11949   9.120   8.880   3.975 -0.3076  0.0780  0.0805
 2678SOL    HW111950   9.127   8.786   3.992  0.6587 -0.2241 -1.6625
 2678SOL    HW211951   9.049   8.887   3.910 -0.2052  0.5087  0.0118
 2679SOL     OW11952   6.660   6.460   2.409 -0.3302  0.0023  0.1909
 2679SOL    HW111953   6.727   6.449   2.477 -0.5581 -0.1522  0.3942
 2679SOL    HW211954   6.679   6.391   2.345 -0.7906 -0.5731  0.6633
 2680SOL     OW11955   5.430   6.445   5.680  0.5745 -0.0605  0.1462
 2680SOL    HW111956   5.429   6.491   5.764  1.7218  1.2409 -0.4952
 2680SOL    HW211957   5.370   6.496   5.625 -0.7386 -1.3351  0.3678
 2681SOL     OW11958   5.376   3.748   2.692 -0.0453 -0.1228 -0.1361
 2681SOL    HW111959   5.424   3.704   2.763 -1.7126 -2.0015 -0.0853
 2681SOL    HW211960   5.417   3.716   2.612  0.0548 -0.1659 -0.0690
 2682SOL     OW11961   4.418   3.276   0.210 -0.0092 -0.0757 -0.0742
 2682SOL    HW111962   4.413   3.353   0.267 -1.0467 -2.0010  2.6525
 2682SOL    HW211963   4.330   3.240   0.210  0.7072 -1.9510 -0.2236
 2683SOL     OW11964   6.345   7.008   2.155  0.0573  0.4705 -0.1014
 2683SOL    HW111965   6.360   7.059   2.235  0.4141 -1.8827  1.4522
 2683SOL    HW211966   6.251   6.989   2.156 -0.0052  0.7508 -0.4647
 2684SOL     OW11967   5.013   4.126   9.715  0.2791  0.1449  0.4819
 2684SOL    HW111968   4.923   4.113   9.744 -0.5115  3.4930 -0.0126
 2684SOL    HW211969   5.056   4.170   9.788 -0.1802  3.5747 -1.0843
 2685SOL     OW11970   9.116   1.710   9.405 -0.5827 -0.0277 -0.0631
 2685SOL    HW111971   9.148   1.761   9.479 -0.8742 -0.1720  0.1666
 2685SOL    HW211972   9.195   1.689   9.355 -0.3171 -0.3546  0.4769
 2686SOL     OW11973   9.144   5.689   8.385  0.2418  0.1141 -0.0083
 2686SOL    HW111974   9.077   5.622   8.379  0.6895 -0.3842  0.4395
 2686SOL    HW211975   9.097   5.770   8.404 -0.2331 -0.2193  0.2386
 2687SOL     OW11976   6.433   8.568   4.918 -0.1066  0.1159  0.2328
 2687SOL    HW111977   6.351   8.524   4.939 -1.6563  2.3242 -0.7493
 2687SOL    HW211978   6.450   8.545   4.826  1.3276 -1.6628  0.8988
 2688SOL     OW11979   6.772   6.900   5.909  0.4771 -0.2053  0.9236
 2688SOL    HW111980   6.695   6.953   5.893 -0.2572 -1.3798  0.4318
 2688SOL    HW211981   6.833   6.959   5.954 -0.6242  0.7882  1.1598
 2689SOL     OW11982   3.234   2.326   1.414 -0.2909 -0.0612  0.0212
 2689SOL    HW111983   3.253   2.414   1.445 -0.1681 -0.4581  1.1171
 2689SOL    HW211984   3.139   2.317   1.425 -0.3977  0.1479 -0.6865
 2690SOL     OW11985   0.313   9.713   1.601 -0.1564  0.0673  0.4517
 2690SOL    HW111986   0.351   9.781   1.657  0.6630  0.2176 -0.2507
 2690SOL    HW211987   0.235   9.754   1.563 -0.2476  0.2530  0.8319
 2691SOL     OW11988   3.303   5.675   9.068  0.4062 -0.0194 -0.5775
 2691SOL    HW111989   3.265   5.592   9.039 -1.3421 -0.3407  2.2308
 2691SOL    HW211990   3.235   5.740   9.048  0.7654  0.3557 -0.5982
 2692SOL     OW11991   8.682   8.068   4.163 -0.5576 -0.3756  0.0080
 2692SOL    HW111992   8.664   8.100   4.252  0.2472  0.5657 -0.1517
 2692SOL    HW211993   8.758   8.010   4.174 -0.6556 -0.5081 -0.0160
 2693SOL     OW11994   4.281   6.313   9.294 -0.6084 -0.0711  0.3245
 2693SOL    HW111995   4.373   6.320   9.267 -0.8844  0.6291 -0.4749
 2693SOL    HW211996   4.254   6.226   9.263 -0.6704  0.3786 -0.9149
 2694SOL     OW11997   3.420   0.943   0.089 -0.0991  0.4770 -0.3737
 2694SOL    HW111998   3.362   1.001   0.138 -0.7097 -0.4592  0.0198
 2694SOL    HW211999   3.463   0.890   0.155 -0.6899 -0.5769 -0.8110
 2695SOL     OW12000   8.362   6.312   2.333 -0.3451  0.3078  0.3576
 2695SOL    HW112001   8.394   6.265   2.256  0.1513 -0.9539  1.2999
 2695SOL    HW212002   8.442   6.344   2.376 -0.6061  0.8687  0.4245
 2696SOL     OW12003   6.286   0.349   4.669  0.3530  0.2786 -0.0829
 2696SOL    HW112004   6.267   0.297   4.748  0.2759 -1.1197 -0.9962
 2696SOL    HW212005   6.380   0.340   4.657  0.3702  0.5280 -0.1358
 2697SOL     OW12006   4.197   1.885   3.057  0.1432  0.1899 -0.1786
 2697SOL    HW112007   4.106   1.883   3.030  0.4075 -1.2294 -1.0596
 2697SOL    HW212008   4.216   1.978   3.071 -1.2841  0.5448 -0.4288
 2698SOL     OW12009   3.454   6.117   2.458  0.1904  0.0802 -0.0113
 2698SOL    HW112010   3.477   6.194   2.511 -0.7705  1.0967 -1.0231
 2698SOL    HW212011   3.468   6.043   2.517  1.5478  0.9748  0.8675
 2699SOL     OW12012   1.790   5.466   3.306  0.3385  0.0757  0.5658
 2699SOL    HW112013   1.784   5.387   3.360  1.7178 -1.2011 -1.0263
 2699SOL    HW212014   1.870   5.454   3.255  0.7830  2.6897  0.5000
 2700SOL     OW12015   0.574   3.542   2.253 -0.2604  0.0492  0.3019
 2700SOL    HW112016   0.506   3.530   2.320  0.5899  0.6953  1.2990
 2700SOL    HW212017   0.630   3.465   2.262  1.4515  1.4465  2.2679
 2701SOL     OW12018   7.016   7.429   4.742 -0.0198 -0.8870  0.5996
 2701SOL    HW112019   6.973   7.492   4.685 -1.2571 -3.7325 -1.8776
 2701SOL    HW212020   7.014   7.470   4.829  0.0566  2.7568 -0.9258
 2702SOL     OW12021  10.173   0.519   2.510  0.1407  0.0391 -0.6022
 2702SOL    HW112022  10.140   0.458   2.577  0.0762  1.2455  0.5084
 2702SOL    HW212023  10.258   0.483   2.486  1.2767  0.8170  1.9153
 2703SOL     OW12024   2.285   7.554   8.436  0.6320 -0.4910  0.2210
 2703SOL    HW112025   2.251   7.523   8.352  0.6427 -1.6464  0.6395
 2703SOL    HW212026   2.377   7.529   8.435  0.7967  0.0836  0.3150
 2704SOL     OW12027   0.293   2.772   6.590  0.0775 -0.8049  0.0975
 2704SOL    HW112028   0.206   2.791   6.624 -0.1741  1.2158 -1.4379
 2704SOL    HW212029   0.353   2.810   6.655 -0.2068 -1.3675  0.6951
 2705SOL     OW12030   5.038   6.794   2.599  0.1562  0.7373 -0.2033
 2705SOL    HW112031   5.041   6.886   2.574  1.8010  0.9902  0.7957
 2705SOL    HW212032   5.112   6.754   2.555 -0.4020 -0.0760 -0.4323
 2706SOL     OW12033   0.826   3.319   1.227 -0.1590  0.3960 -0.3346
 2706SOL    HW112034   0.815   3.226   1.251 -0.8326  0.1572 -1.4942
 2706SOL    HW212035   0.866   3.359   1.305  2.5707 -1.3587 -0.6650
 2707SOL     OW12036   0.684   2.233   5.073  0.0033 -0.1553 -0.0717
 2707SOL    HW112037   0.591   2.234   5.053 -0.0500  0.0918  0.1801
 2707SOL    HW212038   0.708   2.325   5.080 -0.2324 -0.2180  2.1375
 2708SOL     OW12039   2.718   8.542   4.992  0.6275 -0.3718  0.5396
 2708SOL    HW112040   2.801   8.581   5.019  0.1525  0.2040  1.1744
 2708SOL    HW212041   2.651   8.598   5.029 -0.0658 -0.0574 -1.0909
 2709SOL     OW12042   0.104   3.588   4.186  0.2351 -0.2223 -0.0570
 2709SOL    HW112043   0.142   3.503   4.165 -0.3495 -0.3804 -0.4955
 2709SOL    HW212044   0.086   3.585   4.280 -0.0016 -0.6662 -0.1176
 2710SOL     OW12045   0.104   1.263   9.579 -0.7951  0.2256  0.4262
 2710SOL    HW112046   0.157   1.342   9.580 -0.3765 -0.0583  1.4476
 2710SOL    HW212047   0.029   1.283   9.634 -0.6521 -0.1116  0.7446
 2711SOL     OW12048   4.704   9.974   4.814  0.6702  0.6447 -0.4338
 2711SOL    HW112049   4.709  10.049   4.755  1.0408 -0.5968 -2.0559
 2711SOL    HW212050   4.763   9.909   4.776  2.4616  0.4382  2.3839
 2712SOL     OW12051   2.929   1.283   0.236 -0.4105  0.0526  0.5039
 2712SOL    HW112052   2.959   1.223   0.168 -0.9704 -0.6707  0.8738
 2712SOL    HW212053   2.842   1.311   0.207 -1.1293 -1.1242  1.4240
 2713SOL     OW12054   5.125   5.243   7.754 -0.3016 -0.8427 -0.1901
 2713SOL    HW112055   5.082   5.312   7.803 -0.5049 -0.6425 -0.6436
 2713SOL    HW212056   5.210   5.232   7.796 -0.6999 -1.0874  0.5768
 2714SOL     OW12057   1.071   0.637   1.807  0.2911 -0.2228 -0.0790
 2714SOL    HW112058   0.989   0.670   1.844  0.4465 -1.3358  1.3576
 2714SOL    HW212059   1.044   0.572   1.742  0.0312  0.6812 -0.8929
 2715SOL     OW12060   1.607   2.430   3.790 -0.4467  0.5164 -0.1668
 2715SOL    HW112061   1.700   2.422   3.813 -0.4566  0.8324 -0.0098
 2715SOL    HW212062   1.562   2.436   3.874 -0.7611 -1.0957 -0.1886
 2716SOL     OW12063   4.870   8.793   9.631  0.1649  0.5687 -1.0629
 2716SOL    HW112064   4.818   8.858   9.583 -0.4939  0.5632 -0.3707
 2716SOL    HW212065   4.879   8.830   9.719  0.6277  0.1756 -0.9402
 2717SOL     OW12066   2.819   4.683   2.011 -0.2501 -0.0728 -0.0904
 2717SOL    HW112067   2.844   4.698   2.102  2.9438  0.9996 -0.9935
 2717SOL    HW212068   2.824   4.769   1.970 -1.3377 -0.5753 -1.3550
 2718SOL     OW12069   0.602   2.657   7.241  0.5657 -0.4563 -0.0834
 2718SOL    HW112070   0.556   2.590   7.191 -0.6619 -0.2442  0.7222
 2718SOL    HW212071   0.555   2.739   7.220 -0.2793 -0.4363  1.7336
 2719SOL     OW12072   9.115   1.663   7.621  0.5632 -0.5272  0.2166
 2719SOL    HW112073   9.150   1.714   7.548  2.5107 -1.0106  0.7469
 2719SOL    HW212074   9.052   1.604   7.580  1.2931 -0.4852 -1.0313
 2720SOL     OW12075   7.513   8.551   0.822 -0.5054  0.2941  0.1614
 2720SOL    HW112076   7.576   8.619   0.847 -0.3602 -0.2355  1.2931
 2720SOL    HW212077   7.428   8.588   0.845 -0.5851  0.7983 -0.8826
 2721SOL     OW12078   9.434   5.231   5.549  0.4273  0.1456  0.2814
 2721SOL    HW112079   9.356   5.225   5.604 -0.7076 -1.2563 -1.3548
 2721SOL    HW212080   9.409   5.292   5.479 -0.3326 -2.3084 -1.7676
 2722SOL     OW12081   4.837   4.762   0.262  0.1798  0.5172  0.9284
 2722SOL    HW112082   4.803   4.852   0.258  1.8212  1.1434 -1.9468
 2722SOL    HW212083   4.906   4.765   0.328 -0.0343  1.2502  1.1291
 2723SOL     OW12084   0.861   9.713   7.499  0.3388 -0.5529 -0.4196
 2723SOL    HW112085   0.852   9.660   7.420 -2.6929  0.1156 -0.6433
 2723SOL    HW212086   0.931   9.775   7.478 -0.3955 -0.3784 -2.6275
 2724SOL     OW12087   6.814   9.989   1.669 -0.0027 -0.3142 -0.4854
 2724SOL    HW112088   6.737  10.023   1.624 -0.2020  0.0798  0.1474
 2724SOL    HW212089   6.822  10.042   1.748  0.7330 -0.5607 -0.3819
 2725SOL     OW12090   2.252   1.619   8.439  0.6489  0.6140 -0.4015
 2725SOL    HW112091   2.275   1.668   8.518 -0.3420  0.0096  0.2885
 2725SOL    HW212092   2.278   1.529   8.459  1.1496  0.6019 -1.0919
 2726SOL     OW12093   4.464   4.415   8.293 -0.2796 -0.1470 -0.4768
 2726SOL    HW112094   4.369   4.406   8.300 -0.2579 -0.4969 -0.6537
 2726SOL    HW212095   4.481   4.420   8.199  0.0007 -1.4408 -0.5135
 2727SOL     OW12096   5.918   8.640   9.136  0.1548 -0.3042  0.2670
 2727SOL    HW112097   5.965   8.695   9.074  0.6199 -0.8742  0.1024
 2727SOL    HW212098   5.946   8.671   9.222  0.5393 -0.3860  0.1735
 2728SOL     OW12099   4.487   8.663   1.496  0.2509  0.3459  0.7484
 2728SOL    HW112100   4.494   8.576   1.534  0.8943  0.2000  0.3282
 2728SOL    HW212101   4.576   8.683   1.467  0.5752  1.9858  2.6440
 2729SOL     OW12102   8.361   2.015   1.587 -0.6617  0.2183  0.3911
 2729SOL    HW112103   8.377   2.009   1.492 -1.9073  0.9083  0.1246
 2729SOL    HW212104   8.387   1.929   1.620  0.0151  0.0419 -0.5373
 2730SOL     OW12105   3.144   9.935   7.509  0.0783  0.7071  0.1936
 2730SOL    HW112106   3.176   9.943   7.419  0.0134  0.3231  0.1341
 2730SOL    HW212107   3.049   9.927   7.500  0.1731 -0.6783  0.2015
 2731SOL     OW12108   6.269   6.141   0.106  0.4495  0.0746 -0.0288
 2731SOL    HW112109   6.297   6.179   0.022  0.1096  0.8504  0.1956
 2731SOL    HW212110   6.174   6.151   0.106  0.3557 -0.7688  0.0564
 2732SOL     OW12111   7.045   8.202   1.500  0.2444 -0.0377 -0.5316
 2732SOL    HW112112   7.064   8.290   1.533 -0.5651 -0.2282  0.4942
 2732SOL    HW212113   7.092   8.143   1.558 -1.6964 -0.4088  0.7806
 2733SOL     OW12114   0.841   0.772   5.968 -0.2911 -0.0872 -0.6489
 2733SOL    HW112115   0.792   0.787   6.049 -1.4337  1.5019 -1.5901
 2733SOL    HW212116   0.816   0.683   5.942 -1.6587  0.2130 -0.4208
 2734SOL     OW12117   9.129   2.960   3.933 -0.0561  0.0284 -0.1818
 2734SOL    HW112118   9.173   2.876   3.922 -0.5119 -0.4834  1.5106
 2734SOL    HW212119   9.131   2.975   4.028 -1.2602  1.2143 -0.3210
 2735SOL     OW12120   9.005   9.068   9.188 -0.0069 -0.3045  0.5473
 2735SOL    HW112121   9.049   9.098   9.267 -1.3436  0.2462  1.1166
 2735SOL    HW212122   8.919   9.038   9.218 -0.2155 -0.8863 -0.5777
 2736SOL     OW12123   1.598   6.040   1.617 -0.1384 -0.0920 -0.5446
 2736SOL    HW112124   1.554   6.067   1.537 -0.6947  0.5459 -0.0388
 2736SOL    HW212125   1.605   6.121   1.668  1.3858 -0.2226 -0.4928
 2737SOL     OW12126   3.925   7.777   0.415  0.0688 -0.1151 -0.3542
 2737SOL    HW112127   3.939   7.863   0.454  0.9858  0.4940 -1.9245
 2737SOL    HW212128   3.878   7.727   0.482  0.3571  1.2981  0.9461
 2738SOL     OW12129   3.677   4.886   1.886  0.2305 -0.7823 -0.1375
 2738SOL    HW112130   3.772   4.895   1.899 -0.1492  0.1854  2.7648
 2738SOL    HW212131   3.653   4.963   1.835  0.5569  1.3980  2.7237
 2739SOL     OW12132   4.943   6.326   4.519  0.1863 -0.3814  0.1121
 2739SOL    HW112133   4.882   6.306   4.449  0.0018 -0.3503  0.2626
 2739SOL    HW212134   4.955   6.243   4.565  0.5332 -0.4666 -0.1333
 2740SOL     OW12135   2.007   6.849   8.314 -0.5357  0.6154 -0.0620
 2740SOL    HW112136   2.089   6.839   8.266 -1.1204  1.7425 -1.3834
 2740SOL    HW212137   2.032   6.856   8.406  0.6173 -1.7824 -0.1192
 2741SOL     OW12138   3.901   1.911   3.043  0.7292  0.0684  0.8725
 2741SOL    HW112139   3.860   1.826   3.030  1.0797 -0.3552  2.3130
 2741SOL    HW212140   3.838   1.974   3.008  0.7511 -0.7981 -0.7889
 2742SOL     OW12141   5.439   5.448   4.697  0.0056 -0.1912 -0.2201
 2742SOL    HW112142   5.416   5.478   4.785  0.6589 -0.1688 -0.0573
 2742SOL    HW212143   5.389   5.506   4.639 -0.5989 -0.3500  0.1334
 2743SOL     OW12144   0.526   0.615   6.144  0.5395 -0.2156 -0.2690
 2743SOL    HW112145   0.435   0.642   6.157 -0.2992 -1.4213 -2.7917
 2743SOL    HW212146   0.566   0.621   6.230 -2.7986 -2.8047  1.6800
 2744SOL     OW12147   4.752   9.032   1.790 -0.0538 -0.6478 -0.6404
 2744SOL    HW112148   4.832   9.030   1.736  1.4435  0.2340  1.3909
 2744SOL    HW212149   4.728   8.940   1.801 -0.6540 -0.8559 -3.0385
 2745SOL     OW12150   6.033   0.152   5.047  0.0193 -0.1360  0.8351
 2745SOL    HW112151   6.007   0.134   5.138 -1.8866 -0.1956  0.3133
 2745SOL    HW212152   6.023   0.246   5.037  2.4107  0.2410  1.2785
 2746SOL     OW12153   3.348   3.659   2.661 -0.2684 -0.1306  0.5168
 2746SOL    HW112154   3.267   3.708   2.674 -0.4017  0.4700 -2.0095
 2746SOL    HW212155   3.323   3.567   2.677 -1.4618  0.0493 -0.1968
 2747SOL     OW12156   0.214   9.352   2.427 -0.3105 -0.1652 -0.1699
 2747SOL    HW112157   0.183   9.318   2.343 -1.6403  2.2093 -0.7348
 2747SOL    HW212158   0.193   9.283   2.490 -1.6471 -0.9547 -1.4221
 2748SOL     OW12159   6.745   0.704   5.926 -0.5684 -0.1733 -0.1959
 2748SOL    HW112160   6.703   0.762   5.989 -1.7547 -1.1155 -0.0853
 2748SOL    HW212161   6.718   0.616   5.953  1.0844 -0.7923 -0.4276
 2749SOL     OW12162   6.514   9.716   2.432  0.0070 -0.3265  0.3144
 2749SOL    HW112163   6.568   9.794   2.444 -1.9293  1.1824 -0.1471
 2749SOL    HW212164   6.528   9.664   2.512  1.6190  0.2952  0.4666
 2750SOL     OW12165   8.509   2.662   5.406  0.3220  0.1602  0.0083
 2750SOL    HW112166   8.446   2.602   5.366  0.0557 -1.8548  3.1077
 2750SOL    HW212167   8.594   2.635   5.373  0.0105 -0.6292 -0.1460
 2751SOL     OW12168   9.448   1.572   8.519  0.1150 -0.7334  0.4342
 2751SOL    HW112169   9.407   1.491   8.489 -0.7094 -0.7406  1.5197
 2751SOL    HW212170   9.444   1.567   8.614  1.0862  0.0707  0.5316
 2752SOL     OW12171   0.248   2.103   4.451  0.5926  0.1173  0.2832
 2752SOL    HW112172   0.335   2.144   4.451  0.7639 -0.2408  0.0161
 2752SOL    HW212173   0.204   2.141   4.375  0.6876 -0.0612  0.1389
 2753SOL     OW12174   0.814   2.212   3.723 -0.0593 -0.8924 -0.1660
 2753SOL    HW112175   0.727   2.181   3.695 -0.2310 -1.2310  0.6785
 2753SOL    HW212176   0.860   2.132   3.749  0.9279 -0.8463 -1.6493
 2754SOL     OW12177   6.629   6.098   4.890 -0.2209 -0.3583  0.4397
 2754SOL    HW112178   6.641   6.134   4.802 -0.1169  0.2604  0.7001
 2754SOL    HW212179   6.628   6.175   4.947  0.8629 -0.8125  1.1076
 2755SOL     OW12180   6.904   9.333   5.602 -0.2541 -0.1421 -0.2107
 2755SOL    HW112181   6.946   9.400   5.549  3.6068 -0.6993  1.7983
 2755SOL    HW212182   6.936   9.250   5.567 -0.1339 -0.6337  1.0062
 2756SOL     OW12183   4.162   7.139   3.107 -0.3830 -0.1842 -0.1415
 2756SOL    HW112184   4.107   7.063   3.090 -2.8340  0.9900  1.8926
 2756SOL    HW212185   4.111   7.214   3.076  1.2034  0.8120 -0.4944
 2757SOL     OW12186   5.425   0.633   6.230  0.2086 -0.3073 -0.5321
 2757SOL    HW112187   5.467   0.700   6.285 -0.5862  0.8230 -1.2538
 2757SOL    HW212188   5.391   0.570   6.293  1.0657 -0.1017  0.1679
 2758SOL     OW12189   5.932   6.332   9.582 -0.4308 -0.3569  0.1094
 2758SOL    HW112190   5.847   6.288   9.593  0.1425 -0.9982  2.4303
 2758SOL    HW212191   5.926   6.410   9.637  1.0401 -1.2982  1.6801
 2759SOL     OW12192   0.821   7.519   3.097 -0.2167  0.8689 -0.2367
 2759SOL    HW112193   0.848   7.602   3.136  0.0931 -0.1515  1.8054
 2759SOL    HW212194   0.886   7.456   3.126 -1.4373 -0.4472 -0.2731
 2760SOL     OW12195   7.284   9.286   5.263  0.9946 -0.0314 -0.5573
 2760SOL    HW112196   7.334   9.204   5.265  2.5124  0.8262 -1.4968
 2760SOL    HW212197   7.313   9.333   5.341  0.2207 -0.3033 -0.0902
 2761SOL     OW12198   9.061   7.345   6.405  0.0646  0.3803 -0.0897
 2761SOL    HW112199   8.969   7.370   6.409 -0.1448 -0.5544  1.6647
 2761SOL    HW212200   9.063   7.254   6.435  1.4603  0.0489 -1.0555
 2762SOL     OW12201   4.950   8.135   6.011  0.4323 -0.1648  0.6222
 2762SOL    HW112202   5.008   8.115   6.085  1.0231 -0.2446  0.1452
 2762SOL    HW212203   4.973   8.224   5.985 -1.3398  0.7339  1.9509
 2763SOL     OW12204  10.196   7.304   1.580 -0.3171  0.4769 -0.2020
 2763SOL    HW112205  10.159   7.219   1.555  0.4228 -0.0491  0.4190
 2763SOL    HW212206  10.191   7.305   1.675  1.4030  0.2862 -0.0698
 2764SOL     OW12207   1.407   9.510   2.390 -0.0345  0.3995  0.3374
 2764SOL    HW112208   1.336   9.535   2.330 -0.3862 -0.9653  0.1348
 2764SOL    HW212209   1.396   9.415   2.401  0.6350  0.4711  1.7894
 2765SOL     OW12210   5.179   4.816   6.977 -0.2180  0.2079 -0.4093
 2765SOL    HW112211   5.205   4.836   6.887 -0.1294 -0.6901 -0.5926
 2765SOL    HW212212   5.084   4.825   6.978  0.0232  4.0191  0.3919
 2766SOL     OW12213   7.230   3.098   9.810 -0.2014 -0.3332 -0.8881
 2766SOL    HW112214   7.283   3.167   9.770 -1.0357  0.5564 -0.5024
 2766SOL    HW212215   7.151   3.093   9.755 -0.3741 -0.6282 -0.6201
 2767SOL     OW12216   9.318   8.529   0.153  0.3256  0.2374 -0.3623
 2767SOL    HW112217   9.367   8.513   0.234  1.9193 -0.9651 -1.4981
 2767SOL    HW212218   9.297   8.442   0.120  1.2731  0.6109 -2.1187
 2768SOL     OW12219   2.012   5.012   1.871 -0.2753 -0.5112  0.0941
 2768SOL    HW112220   2.073   5.081   1.847  0.2262 -0.2305  2.0270
 2768SOL    HW212221   2.062   4.954   1.928 -1.0136 -1.8656 -0.5836
 2769SOL     OW12222   8.268   8.767   5.312 -0.3839 -0.7565 -0.6087
 2769SOL    HW112223   8.273   8.718   5.394 -4.3842  0.9133  0.8744
 2769SOL    HW212224   8.218   8.710   5.253 -1.5362 -0.1683 -0.2374
 2770SOL     OW12225   4.837   8.949   2.929 -0.6403 -0.4808 -0.4384
 2770SOL    HW112226   4.867   8.924   3.017 -0.1321 -1.4825 -0.8868
 2770SOL    HW212227   4.745   8.975   2.942  0.4335  3.1674  1.0421
 2771SOL     OW12228   6.254   8.609   9.348 -0.0857  0.0953 -0.5710
 2771SOL    HW112229   6.255   8.595   9.253  0.2744 -0.1576 -0.5323
 2771SOL    HW212230   6.176   8.662   9.363 -0.1953  0.0641 -1.0003
 2772SOL     OW12231   0.386   0.259   5.323 -0.2275  0.5738  0.2115
 2772SOL    HW112232   0.434   0.212   5.391 -0.2001 -2.2670 -1.6215
 2772SOL    HW212233   0.447   0.326   5.293  1.2525 -0.6757  0.3358
 2773SOL     OW12234   2.487   6.733   9.877 -0.1336 -0.4970  0.4538
 2773SOL    HW112235   2.502   6.700   9.788  1.3161 -2.1238  1.2511
 2773SOL    HW212236   2.525   6.666   9.934 -1.8585  0.0526  2.3487
 2774SOL     OW12237   5.425   6.636   3.592 -0.1591 -0.4625  0.5605
 2774SOL    HW112238   5.399   6.580   3.519 -0.3256 -0.0424  0.3017
 2774SOL    HW212239   5.520   6.624   3.598 -0.2103 -0.8686  0.5849
 2775SOL     OW12240   4.359   9.628   3.588 -0.3606 -0.0206 -0.1860
 2775SOL    HW112241   4.369   9.708   3.537 -0.5428 -0.3052 -0.6826
 2775SOL    HW212242   4.299   9.652   3.659  0.3582  0.5323  0.2504
 2776SOL     OW12243   4.434   9.458   2.995 -0.6362  0.3540  0.3641
 2776SOL    HW112244   4.414   9.551   2.991 -2.0915  0.0234 -0.5992
 2776SOL    HW212245   4.371   9.423   3.058 -1.3344 -0.2585 -0.6452
 2777SOL     OW12246   8.540   4.143   3.175  0.0499 -0.3336 -0.3060
 2777SOL    HW112247   8.625   4.114   3.208  0.8892 -0.1617 -2.2028
 2777SOL    HW212248   8.559   4.223   3.127 -1.3264  0.1443 -0.0781
 2778SOL     OW12249   4.747   9.301   9.707 -0.0840 -0.0663  0.3500
 2778SOL    HW112250   4.786   9.279   9.622 -0.3496  1.1411 -0.1080
 2778SOL    HW212251   4.719   9.392   9.697  1.8266  0.8361  2.4263
 2779SOL     OW12252   7.464   4.742   7.815  0.1907 -0.0738 -0.0865
 2779SOL    HW112253   7.448   4.777   7.727 -1.3510 -0.6381 -0.0646
 2779SOL    HW212254   7.465   4.647   7.803 -0.0408 -0.1528  0.5135
 2780SOL     OW12255   6.677   5.139   7.375 -0.4163  0.4586 -0.6522
 2780SOL    HW112256   6.765   5.124   7.340  0.0663 -0.3841  0.8322
 2780SOL    HW212257   6.624   5.070   7.336  0.3557 -1.1633  1.0024
 2781SOL     OW12258   5.348   1.008   4.168  0.3351 -0.0000  0.5162
 2781SOL    HW112259   5.300   1.071   4.115  1.3520  0.6998  0.4015
 2781SOL    HW212260   5.409   1.061   4.219  0.7394 -0.8391  0.9321
 2782SOL     OW12261   8.652   5.623   4.071  0.8055 -0.1684 -0.4058
 2782SOL    HW112262   8.726   5.576   4.033  0.6573 -1.2642  0.5988
 2782SOL    HW212263   8.672   5.627   4.165 -0.0768  0.1463 -0.2206
 2783SOL     OW12264   7.231   3.221   1.457 -0.0791 -0.5002 -0.0216
 2783SOL    HW112265   7.268   3.302   1.421  2.1278 -0.7347  1.4755
 2783SOL    HW212266   7.237   3.158   1.385  1.0485 -0.1040 -0.2986
 2784SOL     OW12267   1.775   2.148   8.173  0.7724  0.4130  0.5926
 2784SOL    HW112268   1.715   2.078   8.148  1.2781  0.7466 -1.7846
 2784SOL    HW212269   1.717   2.221   8.196  0.2593 -0.4535  2.2146
 2785SOL     OW12270   2.091   9.172   2.762  0.1398  0.5841  0.0665
 2785SOL    HW112271   2.070   9.132   2.846  0.0620 -1.8772 -1.0217
 2785SOL    HW212272   2.183   9.198   2.770 -0.0435  0.9404  1.0975
 2786SOL     OW12273   2.074   7.572   7.739 -0.0226 -0.6213  0.2494
 2786SOL    HW112274   2.097   7.543   7.651 -0.3840 -1.2312  0.3542
 2786SOL    HW212275   1.979   7.560   7.745 -0.1427  0.2932  0.4024
 2787SOL     OW12276   1.907   0.602   0.895 -0.3092  0.0728 -0.1777
 2787SOL    HW112277   1.890   0.511   0.918 -0.0045  0.1633  0.4181
 2787SOL    HW212278   1.945   0.640   0.974  1.7680  0.1210 -1.1215
 2788SOL     OW12279   8.231   0.608   4.571  0.4143  0.7786 -0.1620
 2788SOL    HW112280   8.324   0.586   4.583  0.6029  1.6194  0.0040
 2788SOL    HW212281   8.204   0.645   4.655 -0.5921 -1.1475  0.3971
 2789SOL     OW12282   4.524   3.088   1.295  0.1286 -0.1893  0.6283
 2789SOL    HW112283   4.477   3.104   1.214 -1.9767  0.4635  1.8915
 2789SOL    HW212284   4.606   3.048   1.268  0.4654  2.0044 -1.9301
 2790SOL     OW12285   0.321   0.246   9.802 -0.0474  0.1192  0.1480
 2790SOL    HW112286   0.368   0.187   9.743  1.5705  0.4936  0.9948
 2790SOL    HW212287   0.292   0.191   9.874 -1.2659 -0.1786 -0.5457
 2791SOL     OW12288   7.157   5.379   8.050 -0.8660  0.4283  0.0497
 2791SOL    HW112289   7.131   5.421   8.132 -0.3817  2.8666 -0.9469
 2791SOL    HW212290   7.094   5.309   8.037 -0.0629 -1.0385  3.2152
 2792SOL     OW12291   3.828   9.701   5.151  0.3422  0.0356 -0.1579
 2792SOL    HW112292   3.818   9.768   5.219 -1.0478 -1.2315  0.9417
 2792SOL    HW212293   3.890   9.639   5.188 -0.0490 -0.4110 -0.2459
 2793SOL     OW12294   6.037   9.658   0.573  0.2764  0.0062 -0.7592
 2793SOL    HW112295   6.123   9.666   0.531  0.6632  2.3885  0.3246
 2793SOL    HW212296   6.053   9.605   0.651  0.4979 -0.5424 -1.1694
 2794SOL     OW12297   3.914   2.008   4.248  0.2078  0.3272  0.2222
 2794SOL    HW112298   3.881   2.056   4.324 -1.1375  0.8292 -0.6545
 2794SOL    HW212299   3.861   1.928   4.244  0.9362 -0.1788  0.3647
 2795SOL     OW12300   6.358   5.644   2.950  0.0122 -0.1499  0.3633
 2795SOL    HW112301   6.274   5.686   2.967 -0.3090 -0.1401 -1.1337
 2795SOL    HW212302   6.339   5.550   2.958 -0.6255 -0.2574 -1.7343
 2796SOL     OW12303   7.992   3.461   8.150  0.0031  0.0790 -0.0589
 2796SOL    HW112304   7.961   3.388   8.097 -0.7161  2.5953 -3.3981
 2796SOL    HW212305   7.979   3.431   8.241 -0.7381 -3.6462 -1.2184
 2797SOL     OW12306   0.136   6.928   4.271 -0.7772 -0.3325 -0.4553
 2797SOL    HW112307   0.052   6.971   4.290 -0.1505  0.0881  1.6880
 2797SOL    HW212308   0.173   6.909   4.357  1.6993  0.2312 -1.2943
 2798SOL     OW12309   8.319   7.299   8.108  0.3518 -0.6327 -0.5088
 2798SOL    HW112310   8.287   7.333   8.024 -2.0941 -1.4795  0.0036
 2798SOL    HW212311   8.269   7.219   8.122  0.7841 -0.5637  1.7241
 2799SOL     OW12312   1.629   5.314   7.472  0.2800  0.1214  0.0933
 2799SOL    HW112313   1.663   5.224   7.472  0.4777  0.1826 -1.3905
 2799SOL    HW212314   1.537   5.304   7.495 -0.0914 -0.6529 -1.5638
 2800SOL     OW12315   4.421   0.641   1.273 -0.0292 -0.1063  0.0682
 2800SOL    HW112316   4.515   0.652   1.287 -0.2487  2.0946  0.1660
 2800SOL    HW212317   4.397   0.712   1.213 -1.5504 -0.9287 -0.3498
 2801SOL     OW12318   8.787   0.720   5.664 -0.3724 -0.5715 -0.3452
 2801SOL    HW112319   8.728   0.652   5.633  0.0203 -0.2256 -1.8960
 2801SOL    HW212320   8.828   0.755   5.585  1.7826 -0.6706  0.6566
 2802SOL     OW12321   7.718   9.586   3.215 -0.5279 -0.1910  0.2418
 2802SOL    HW112322   7.682   9.613   3.300 -0.2501  0.2324  0.2249
 2802SOL    HW212323   7.811   9.609   3.220 -0.3464 -0.8921  0.1215
 2803SOL     OW12324   4.023   4.186   6.928 -0.2741 -0.2707  0.1710
 2803SOL    HW112325   4.111   4.222   6.926  0.2124 -1.4055  0.2949
 2803SOL    HW212326   3.983   4.223   7.006  0.3328 -0.2937  0.4926
 2804SOL     OW12327   8.772   2.655   5.304 -0.4502 -0.7482 -0.4311
 2804SOL    HW112328   8.854   2.700   5.284 -0.9576  0.3193 -0.2185
 2804SOL    HW212329   8.758   2.597   5.230  1.0333 -1.7677  0.0395
 2805SOL     OW12330   8.177   1.060   6.109  0.1289  0.1336 -0.0661
 2805SOL    HW112331   8.251   1.074   6.169  0.1006  0.2486 -0.0595
 2805SOL    HW212332   8.214   1.075   6.022 -0.0032  0.6552 -0.0318
 2806SOL     OW12333   4.826   7.849   4.549  0.1017 -0.8713  0.0286
 2806SOL    HW112334   4.874   7.861   4.631 -2.0099 -1.3136  1.4166
 2806SOL    HW212335   4.780   7.766   4.560 -0.3358 -0.8774 -1.5804
 2807SOL     OW12336   5.329   2.352   0.891  0.0630 -0.0576  0.7689
 2807SOL    HW112337   5.290   2.432   0.926  1.3810  0.1725  1.7980
 2807SOL    HW212338   5.409   2.340   0.942  0.5558 -1.3314 -0.2453
 2808SOL     OW12339   5.939   9.380   6.801  0.1930  0.2890 -0.2995
 2808SOL    HW112340   6.020   9.328   6.795  0.5549  0.8399 -0.2254
 2808SOL    HW212341   5.903   9.378   6.712  0.2368 -0.0291 -0.3139
 2809SOL     OW12342   7.843   9.440   6.860 -0.0395  0.1938  0.5868
 2809SOL    HW112343   7.807   9.409   6.777 -0.2933  2.3889 -0.1898
 2809SOL    HW212344   7.937   9.451   6.843 -0.0542  0.4217  0.6483
 2810SOL     OW12345   8.167   4.114   5.908 -0.1959 -0.3831 -0.1966
 2810SOL    HW112346   8.245   4.070   5.875  0.2649  0.2047  0.0875
 2810SOL    HW212347   8.143   4.065   5.987  1.2066  0.7542  0.9823
 2811SOL     OW12348   6.930   9.211   8.787 -0.0152 -0.6821 -0.1541
 2811SOL    HW112349   6.909   9.146   8.720  0.2738 -1.1675  0.2252
 2811SOL    HW212350   6.958   9.160   8.863 -0.3837 -0.1420  0.3601
 2812SOL     OW12351   5.917   8.521   7.300  0.3968  0.4504  0.4072
 2812SOL    HW112352   5.898   8.611   7.274  3.9747  0.8812 -1.2852
 2812SOL    HW212353   6.012   8.516   7.301  0.3378 -3.0191  1.6834
 2813SOL     OW12354   1.049   5.906   5.386 -0.1550 -0.6076 -0.4556
 2813SOL    HW112355   1.020   5.969   5.453 -0.0718 -0.7454 -0.2883
 2813SOL    HW212356   1.057   5.958   5.306  0.1927 -0.3484 -0.2529
 2814SOL     OW12357   0.061   9.106   8.153  0.5700  0.3317 -0.0358
 2814SOL    HW112358   0.136   9.070   8.104 -0.0854  1.2485 -1.8190
 2814SOL    HW212359  -0.014   9.092   8.094 -0.4368  0.6557  1.1327
 2815SOL     OW12360   8.923   0.397   2.104  0.1696  0.3155  0.1410
 2815SOL    HW112361   9.011   0.411   2.137 -0.6006 -0.3025  2.6941
 2815SOL    HW212362   8.895   0.482   2.070  1.5644  0.6209 -0.2698
 2816SOL     OW12363   6.340   6.032   2.144  0.1282  0.4615 -0.7181
 2816SOL    HW112364   6.373   6.121   2.133  0.1653  0.3718 -1.3896
 2816SOL    HW212365   6.357   6.011   2.236 -1.0211  1.6056 -0.2176
 2817SOL     OW12366   6.522   6.234   1.695  0.6166 -0.6101 -0.6522
 2817SOL    HW112367   6.589   6.171   1.720 -0.4578 -1.9512 -1.0162
 2817SOL    HW212368   6.449   6.180   1.663 -1.2161  0.7016  1.0641
 2818SOL     OW12369   7.608   7.144   8.386 -0.5709  0.1719  0.0892
 2818SOL    HW112370   7.531   7.183   8.429 -0.0906  0.9048  0.3164
 2818SOL    HW212371   7.623   7.200   8.310  0.9609  1.3269  1.1708
 2819SOL     OW12372   6.869   3.062   1.345 -0.1783 -0.1610 -0.7942
 2819SOL    HW112373   6.854   2.993   1.410 -0.1619 -1.6556 -2.3163
 2819SOL    HW212374   6.900   3.137   1.397  0.6290 -1.5462  0.8448
 2820SOL     OW12375   0.234   2.376   6.331 -0.4284 -0.3015 -0.2835
 2820SOL    HW112376   0.254   2.294   6.376  1.8476 -2.3631 -4.4829
 2820SOL    HW212377   0.155   2.358   6.281  0.5787 -0.3440 -1.9282
 2821SOL     OW12378   2.521   8.203   2.007 -0.0686 -0.3930  0.5875
 2821SOL    HW112379   2.561   8.133   2.060  1.5851  1.0938  1.3938
 2821SOL    HW212380   2.446   8.232   2.059  0.4476 -0.1985  1.2349
 2822SOL     OW12381   1.100   3.205   7.045 -0.4932 -0.1033 -0.4914
 2822SOL    HW112382   1.157   3.274   7.079 -1.2880  1.1239 -1.5777
 2822SOL    HW212383   1.158   3.147   6.997 -0.1363  1.1648 -1.6373
 2823SOL     OW12384   9.934   0.610   6.691  0.2595  0.7142 -0.5568
 2823SOL    HW112385   9.989   0.686   6.712 -1.0857  1.3850  0.7479
 2823SOL    HW212386   9.917   0.619   6.597 -0.7226  2.6518 -0.2445
 2824SOL     OW12387   3.609   2.566   6.352 -0.2609 -0.2455 -0.2273
 2824SOL    HW112388   3.671   2.493   6.355 -0.5210 -0.4661 -0.2255
 2824SOL    HW212389   3.558   2.558   6.432  0.4380  0.5852  0.3211
 2825SOL     OW12390   8.628   7.611   3.124  0.5047  0.0042  0.8729
 2825SOL    HW112391   8.710   7.659   3.130  1.4789 -1.5860  0.7661
 2825SOL    HW212392   8.573   7.647   3.194  2.3312 -0.8249  2.8239
 2826SOL     OW12393   0.669   8.638   4.072 -0.3910 -0.0274  0.1528
 2826SOL    HW112394   0.625   8.681   3.999 -0.1246  0.8850  0.5097
 2826SOL    HW212395   0.753   8.683   4.079 -0.8345  0.6350  1.6883
 2827SOL     OW12396   5.030   0.197   5.992  0.5987  0.0392 -0.6079
 2827SOL    HW112397   5.114   0.211   5.948 -0.2256  1.6714 -1.7867
 2827SOL    HW212398   5.045   0.123   6.051  3.2785  1.2179  0.3437
 2828SOL     OW12399   7.630   5.304   8.901  0.0722 -0.7856  0.6941
 2828SOL    HW112400   7.577   5.377   8.934 -0.2820 -0.3841 -0.7090
 2828SOL    HW212401   7.687   5.281   8.974 -0.5091  0.2391  1.4941
 2829SOL     OW12402   3.276   8.505   2.895  0.8121  0.3679  0.2350
 2829SOL    HW112403   3.193   8.552   2.895  0.8174  0.3771  0.2532
 2829SOL    HW212404   3.316   8.527   2.979 -0.2179 -1.4941  1.2687
 2830SOL     OW12405   8.071   1.509  10.026 -0.0094  0.6418 -0.2987
 2830SOL    HW112406   8.086   1.573   9.957  0.5152  0.1351 -0.6570
 2830SOL    HW212407   8.141   1.446  10.017 -0.5753 -0.0454 -0.0072
 2831SOL     OW12408   5.822   2.192   0.723  0.6901 -0.3478 -0.0246
 2831SOL    HW112409   5.885   2.139   0.772  1.4689 -0.6499 -1.3130
 2831SOL    HW212410   5.871   2.225   0.648  0.0131  1.5723  0.3048
 2832SOL     OW12411   2.472   6.500   7.359 -0.1678 -0.0028  0.4395
 2832SOL    HW112412   2.522   6.476   7.281  0.3661  0.2890  0.6859
 2832SOL    HW212413   2.462   6.595   7.352 -1.5190 -0.1708 -0.0896
 2833SOL     OW12414   2.363   2.670   0.628  0.1947 -0.0505  0.0206
 2833SOL    HW112415   2.414   2.591   0.613  1.2761  0.6915 -0.3326
 2833SOL    HW212416   2.293   2.643   0.687 -1.0454 -1.8777 -2.1265
 2834SOL     OW12417   6.559   7.688   5.101  0.1176  0.4593 -0.0967
 2834SOL    HW112418   6.550   7.782   5.087 -1.5324  0.1963 -1.0301
 2834SOL    HW212419   6.632   7.663   5.044  1.4595  1.3424  1.1578
 2835SOL     OW12420   1.776   8.710   6.107  0.7882 -0.1090  0.5123
 2835SOL    HW112421   1.844   8.777   6.095  0.6023 -0.1428 -0.9093
 2835SOL    HW212422   1.723   8.743   6.180  1.4221  0.6750  0.6374
 2836SOL     OW12423   7.296   4.391   5.507  0.2446  0.2224  0.1965
 2836SOL    HW112424   7.330   4.476   5.478 -0.7115 -0.2983 -2.7938
 2836SOL    HW212425   7.201   4.404   5.513  0.0532 -0.7070 -0.6578
 2837SOL     OW12426   6.030   8.452   3.741 -0.4195  0.0945  0.4214
 2837SOL    HW112427   6.082   8.386   3.788  1.6452  1.7388  0.6129
 2837SOL    HW212428   6.004   8.514   3.810 -0.5340  0.5847 -0.0621
 2838SOL     OW12429   6.923   1.494   4.608 -0.2293  0.6731 -0.4657
 2838SOL    HW112430   7.012   1.511   4.576  0.0437 -1.3260 -0.9176
 2838SOL    HW212431   6.869   1.560   4.564  0.8301  1.0408 -1.2707
 2839SOL     OW12432   5.528   2.304   3.332  0.2178 -0.1268  0.1788
 2839SOL    HW112433   5.439   2.273   3.316  1.1530 -2.0279 -1.9726
 2839SOL    HW212434   5.549   2.274   3.420 -0.3367 -2.1771 -0.3477
 2840SOL     OW12435   1.545   7.594   7.721 -0.3461 -0.4519 -0.1595
 2840SOL    HW112436   1.513   7.505   7.704 -0.1689 -0.7059  0.7406
 2840SOL    HW212437   1.497   7.622   7.799  0.3170 -0.1413  0.1411
 2841SOL     OW12438   3.897   2.406   2.706 -0.0131 -0.1199 -0.3309
 2841SOL    HW112439   3.886   2.499   2.724 -0.2356  0.1302 -1.6500
 2841SOL    HW212440   3.810   2.376   2.679 -0.2523 -1.0209  1.2770
 2842SOL     OW12441   8.138   9.165   2.775  0.0631 -0.5562 -0.4182
 2842SOL    HW112442   8.196   9.141   2.703  1.3688 -2.7216  1.2359
 2842SOL    HW212443   8.100   9.082   2.804 -0.6124  0.2849  1.2188
 2843SOL     OW12444   4.801   9.005   0.379 -0.0327 -0.3118 -0.2582
 2843SOL    HW112445   4.754   8.968   0.305 -0.1206  2.4385 -1.7024
 2843SOL    HW212446   4.891   9.014   0.349 -0.0588  0.7881 -0.0556
 2844SOL     OW12447   1.498   1.242   0.040  0.0403  0.2922  0.5056
 2844SOL    HW112448   1.556   1.182  -0.007  0.1294  1.0349 -0.3398
 2844SOL    HW212449   1.411   1.220   0.009 -0.1222 -0.5563  1.4861
 2845SOL     OW12450   0.334   9.547   7.540 -0.0102  0.2722  0.3023
 2845SOL    HW112451   0.369   9.626   7.500 -1.4798  1.3374  1.0338
 2845SOL    HW212452   0.404   9.482   7.531  2.0596  2.2173  1.5653
 2846SOL     OW12453   0.594   7.038   3.345  0.2439  0.1383  0.2803
 2846SOL    HW112454   0.542   6.958   3.334  2.6366 -1.3407 -0.9284
 2846SOL    HW212455   0.659   7.016   3.412 -0.6673  2.0155  1.9075
 2847SOL     OW12456   8.372   0.087   9.521  0.0222 -0.1200 -0.2980
 2847SOL    HW112457   8.318   0.125   9.590 -0.8554 -0.0088 -1.0276
 2847SOL    HW212458   8.367  -0.007   9.536  2.5400 -0.0432  1.7675
 2848SOL     OW12459   7.497   5.445   2.417  0.5653 -0.1199 -0.2365
 2848SOL    HW112460   7.563   5.473   2.480  0.5864  0.5273 -0.5319
 2848SOL    HW212461   7.530   5.363   2.381  1.1707  0.1498 -0.3129
 2849SOL     OW12462   2.441   5.163   1.829 -0.1085  0.1142 -0.3826
 2849SOL    HW112463   2.442   5.139   1.736  1.8620  0.9171 -0.6225
 2849SOL    HW212464   2.520   5.216   1.840 -1.6777  2.2987  1.1776
 2850SOL     OW12465   1.621   8.984   9.775  0.5887  0.6246  0.2594
 2850SOL    HW112466   1.687   8.918   9.752 -0.4382 -1.1257  2.0034
 2850SOL    HW212467   1.540   8.950   9.737  0.6669  3.0037 -2.2964
 2851SOL     OW12468   6.335   4.721   4.340  0.2149  0.5333  0.0470
 2851SOL    HW112469   6.251   4.684   4.313  0.8508  0.3446 -1.7962
 2851SOL    HW212470   6.342   4.804   4.294  0.8350  0.7755  0.5522
 2852SOL     OW12471   0.870   6.569   3.259 -0.3181 -0.2254  0.2824
 2852SOL    HW112472   0.836   6.594   3.345 -0.4186 -0.0896  0.2042
 2852SOL    HW212473   0.963   6.552   3.274  0.3681  2.6200 -0.1021
 2853SOL     OW12474   3.690   8.186   3.222  0.0377 -0.3079 -0.6475
 2853SOL    HW112475   3.768   8.211   3.174  0.4567 -1.3269 -0.5295
 2853SOL    HW212476   3.640   8.267   3.232  1.1592  0.3822 -0.5629
 2854SOL     OW12477   9.018   0.279   1.728 -0.0586  0.1646 -0.3203
 2854SOL    HW112478   9.034   0.264   1.635 -0.2704 -2.2601 -0.0218
 2854SOL    HW212479   8.928   0.250   1.742  0.4313 -0.8253  0.8843
 2855SOL     OW12480   9.473   6.347   1.835 -0.5102 -0.2518 -0.2422
 2855SOL    HW112481   9.386   6.384   1.825 -0.4991 -0.9019 -4.0981
 2855SOL    HW212482   9.531   6.405   1.787  1.0341 -0.5576  1.1153
 2856SOL     OW12483   9.084   6.380   1.436 -0.1500 -0.1689  0.0989
 2856SOL    HW112484   9.150   6.419   1.492  1.3466 -0.5975 -1.2938
 2856SOL    HW212485   9.085   6.435   1.357 -2.5505  0.7261  0.6047
 2857SOL     OW12486   6.265   7.875   3.284 -0.4273  0.2532 -0.0774
 2857SOL    HW112487   6.335   7.928   3.322 -0.2157  1.4480 -2.0051
 2857SOL    HW212488   6.185   7.925   3.302 -0.4881  0.1126  0.0369
 2858SOL     OW12489   7.465  10.108   2.484  0.8111  0.2520  0.6081
 2858SOL    HW112490   7.386  10.064   2.515  1.0437 -1.9361 -1.5496
 2858SOL    HW212491   7.434  10.192   2.450 -1.0769 -1.4012 -2.1508
 2859SOL     OW12492   1.579   5.747   0.468 -0.6444 -0.2365 -0.2567
 2859SOL    HW112493   1.619   5.796   0.396  1.4235  0.5842  1.3466
 2859SOL    HW212494   1.590   5.804   0.545 -0.0483 -2.3280  1.2861
 2860SOL     OW12495   8.447   4.432   4.375  0.0621  0.1461 -0.3990
 2860SOL    HW112496   8.364   4.390   4.394  0.9198 -0.8675  1.3255
 2860SOL    HW212497   8.468   4.481   4.454  0.3098  1.8501 -1.4506
 2861SOL     OW12498   0.775   4.041   6.572  0.2204  0.6984  0.0878
 2861SOL    HW112499   0.852   3.997   6.536  1.2614  1.2511  1.5486
 2861SOL    HW212500   0.811   4.118   6.617 -1.5384  3.3638 -2.7132
 2862SOL     OW12501   5.414   7.399   8.942 -0.4035  0.0177 -0.5325
 2862SOL    HW112502   5.364   7.400   9.024 -0.0669 -0.4142 -0.3197
 2862SOL    HW212503   5.347   7.393   8.874 -0.7569  1.6025 -0.3650
 2863SOL     OW12504   7.482   5.300   5.208 -0.1397 -0.1815  0.1876
 2863SOL    HW112505   7.449   5.216   5.177 -1.2275  0.2116  0.2285
 2863SOL    HW212506   7.569   5.308   5.169 -1.0840 -0.1173 -2.0241
 2864SOL     OW12507   3.725   4.052   6.089 -0.5081  0.1379  0.3072
 2864SOL    HW112508   3.807   4.014   6.058  0.2918  0.4583  1.9105
 2864SOL    HW212509   3.674   3.976   6.118  0.2192  0.0829  1.5181
 2865SOL     OW12510   1.628   1.030  10.118  0.0381  0.1358  0.2084
 2865SOL    HW112511   1.573   1.039  10.041  1.5692  3.4259 -0.6721
 2865SOL    HW212512   1.679   0.950  10.102 -0.2411  0.3089 -1.8274
 2866SOL     OW12513   7.806   5.128   3.954 -0.0590 -0.0381 -0.2947
 2866SOL    HW112514   7.748   5.092   3.888 -2.5909  1.1127  1.1290
 2866SOL    HW212515   7.763   5.209   3.982  1.6283  0.2623  1.7109
 2867SOL     OW12516   6.005   8.956   5.037  0.4126 -0.8030  0.3203
 2867SOL    HW112517   5.942   8.885   5.053 -0.8279  0.4629  1.2111
 2867SOL    HW212518   6.090   8.912   5.036 -0.3025 -2.2729  1.1296
 2868SOL     OW12519   2.173   7.489   0.398 -0.0242  0.1980  0.0719
 2868SOL    HW112520   2.192   7.574   0.437  0.9854  0.3613 -0.7263
 2868SOL    HW212521   2.216   7.492   0.312 -1.7716 -0.3164 -0.8658
 2869SOL     OW12522   4.065   8.848   5.927  0.1374 -0.6057  0.1800
 2869SOL    HW112523   4.031   8.901   5.856  0.3571 -0.0887  0.4503
 2869SOL    HW212524   4.055   8.903   6.005  1.7213 -0.3565  0.2394
 2870SOL     OW12525   9.527   3.646   5.762 -0.0223  0.1635 -0.1674
 2870SOL    HW112526   9.604   3.682   5.717  0.0655 -1.2175 -1.1549
 2870SOL    HW212527   9.476   3.724   5.787  0.9598  1.0383 -0.7972
 2871SOL     OW12528   8.399   8.040   1.807 -0.0654 -0.1031  0.6810
 2871SOL    HW112529   8.423   7.955   1.844  1.0492  0.2604  0.8040
 2871SOL    HW212530   8.462   8.055   1.737  0.5889  1.2064  1.5135
 2872SOL     OW12531   8.621   1.884   0.264 -0.0323  0.2956  0.2905
 2872SOL    HW112532   8.647   1.971   0.297 -0.1582  0.6194 -0.4324
 2872SOL    HW212533   8.632   1.891   0.169  2.6526 -1.3514  0.3602
 2873SOL     OW12534   7.094   2.328   5.749 -0.6988  0.1045 -0.1371
 2873SOL    HW112535   7.091   2.381   5.828  1.2563 -0.0165  0.0715
 2873SOL    HW212536   7.138   2.247   5.776 -0.3374 -0.0898 -1.2491
 2874SOL     OW12537   2.456   9.639   3.465 -0.1232 -0.5627  0.5934
 2874SOL    HW112538   2.503   9.578   3.407  0.5782 -2.2079  2.7498
 2874SOL    HW212539   2.364   9.610   3.460  0.2197 -1.9709  1.6925
 2875SOL     OW12540   2.696   8.317   6.594 -0.3749  0.4087  0.2040
 2875SOL    HW112541   2.705   8.224   6.576  0.1201  0.4194  0.3640
 2875SOL    HW212542   2.764   8.335   6.659  0.0695  1.0425 -0.4178
 2876SOL     OW12543   1.371   5.265   2.785 -0.7334 -0.1129  0.4302
 2876SOL    HW112544   1.300   5.201   2.795  0.5572 -1.6272  0.2236
 2876SOL    HW212545   1.440   5.234   2.843 -0.2632  1.4238  0.7442
 2877SOL     OW12546   2.914   5.915   6.368  0.1041 -0.1534  0.2274
 2877SOL    HW112547   2.862   5.995   6.367 -0.9870 -0.8466 -0.3432
 2877SOL    HW212548   2.871   5.857   6.305  1.3489 -0.8989  0.0220
 2878SOL     OW12549   3.210   6.980   8.944  0.3309  0.6941  0.1392
 2878SOL    HW112550   3.220   7.073   8.963  0.8665  0.9102 -1.1073
 2878SOL    HW212551   3.269   6.964   8.870 -1.4948 -0.1077 -1.2134
 2879SOL     OW12552   9.662   5.907   5.890  0.0130 -0.0003  0.2725
 2879SOL    HW112553   9.688   5.985   5.938  0.0462  0.7409 -0.9199
 2879SOL    HW212554   9.571   5.922   5.868 -0.1430 -0.5608  0.5160
 2880SOL     OW12555   9.075   2.557   4.807 -0.4721 -0.1052 -0.3386
 2880SOL    HW112556   9.113   2.644   4.793  0.7460 -0.7968 -1.6728
 2880SOL    HW212557   9.151   2.498   4.811 -1.2540 -1.0893  0.8244
 2881SOL     OW12558   7.472   0.799   3.116  0.7304 -0.2116  0.5156
 2881SOL    HW112559   7.389   0.833   3.082  0.7666 -0.3241  0.3083
 2881SOL    HW212560   7.537   0.828   3.052  1.1060  1.3032  1.5328
 2882SOL     OW12561   3.686   1.487   7.580  0.2794 -0.0006 -0.0596
 2882SOL    HW112562   3.611   1.501   7.522 -0.8103  0.9789  1.5102
 2882SOL    HW212563   3.759   1.531   7.536 -0.3913  0.2218 -0.9676
 2883SOL     OW12564   3.494   7.948   8.973 -0.4878  0.1819  0.5945
 2883SOL    HW112565   3.457   8.021   9.023 -0.8275 -1.2000  2.4434
 2883SOL    HW212566   3.582   7.977   8.950 -1.0327  1.6483  0.2064
 2884SOL     OW12567   2.912   6.272   4.294 -0.0950 -0.7316  0.3930
 2884SOL    HW112568   2.939   6.342   4.353 -1.9506  0.1152  0.2848
 2884SOL    HW212569   2.826   6.246   4.325 -1.3356  0.0308 -2.1425
 2885SOL     OW12570   3.812   7.043   5.043  0.8404  0.3100 -0.1582
 2885SOL    HW112571   3.760   7.100   4.985  1.1237  0.4086 -0.3168
 2885SOL    HW212572   3.865   6.991   4.983 -0.7356 -1.4532 -0.1251
 2886SOL     OW12573   3.971   1.640   9.173  0.1134 -0.0870  0.2067
 2886SOL    HW112574   3.905   1.694   9.128  1.5561  0.5190 -1.2741
 2886SOL    HW212575   4.053   1.661   9.129  1.5044 -0.0561  2.6630
 2887SOL     OW12576   2.858   9.629   7.881 -0.5767  0.8157 -0.5279
 2887SOL    HW112577   2.901   9.710   7.855 -1.4100  0.5142 -3.1630
 2887SOL    HW212578   2.928   9.564   7.887 -0.2072  1.1847 -0.8593
 2888SOL     OW12579   6.204   2.415   0.084  0.0673 -0.6120 -0.1879
 2888SOL    HW112580   6.241   2.380   0.165  0.4322 -1.8722 -0.8715
 2888SOL    HW212581   6.112   2.431   0.104  0.8463  2.4166  1.5050
 2889SOL     OW12582   7.307   4.583   1.742 -0.5107 -0.1924 -0.2550
 2889SOL    HW112583   7.310   4.607   1.835 -0.6602 -0.9438 -0.0468
 2889SOL    HW212584   7.398   4.562   1.720 -0.2130  1.3687 -0.6810
 2890SOL     OW12585   7.977   3.550   9.920  0.2530  0.0140  0.7297
 2890SOL    HW112586   7.998   3.461   9.949  0.0627  0.2670  1.6717
 2890SOL    HW212587   8.035   3.606   9.971 -1.4559  0.6024  2.1129
 2891SOL     OW12588   6.973   4.018   5.622  0.8273 -0.5499 -0.0300
 2891SOL    HW112589   6.935   4.098   5.587  0.1478 -0.7790  0.1624
 2891SOL    HW212590   7.022   3.980   5.549  2.8797  1.0584  0.4278
 2892SOL     OW12591   6.874   3.643   0.043  0.0952 -0.1535 -0.5462
 2892SOL    HW112592   6.795   3.654  -0.010 -0.8816 -2.7220  0.2433
 2892SOL    HW212593   6.946   3.645  -0.020 -0.7491  0.2231 -1.5246
 2893SOL     OW12594   2.299   1.369   7.671 -0.2919 -0.1950 -0.2774
 2893SOL    HW112595   2.345   1.292   7.705 -0.5252 -0.1231  0.2079
 2893SOL    HW212596   2.271   1.343   7.583 -0.0269 -0.5234 -0.2677
 2894SOL     OW12597   0.371   8.406   1.891  0.0850  0.0706 -0.2863
 2894SOL    HW112598   0.376   8.500   1.876 -0.9193  0.3497  0.9248
 2894SOL    HW212599   0.282   8.382   1.867  0.4025 -0.6329 -0.8182
 2895SOL     OW12600   1.932   1.898   2.486 -0.2085  0.0817  0.3821
 2895SOL    HW112601   1.911   1.959   2.557  1.0821  1.0257 -0.0212
 2895SOL    HW212602   1.874   1.924   2.414 -1.1647 -0.5559  0.9069
 2896SOL     OW12603   4.962   4.240   1.927 -0.0820 -0.5088 -0.3180
 2896SOL    HW112604   4.941   4.299   2.000  1.2279  0.7207 -0.8813
 2896SOL    HW212605   5.034   4.186   1.961  1.1681  0.6979 -0.9588
 2897SOL     OW12606   6.613   6.765   4.226  0.1342 -0.4860  0.5580
 2897SOL    HW112607   6.532   6.779   4.274  0.5020 -0.1049  1.0726
 2897SOL    HW212608   6.585   6.740   4.138 -0.5720  1.9106  0.0471
 2898SOL     OW12609   8.842   7.446   5.944 -0.2314  0.2233 -0.0398
 2898SOL    HW112610   8.775   7.451   6.012 -0.4333 -0.3610 -0.1932
 2898SOL    HW212611   8.793   7.443   5.862 -0.1154 -1.9881 -0.0886
 2899SOL     OW12612   0.632   3.214   2.763 -0.6951 -0.0640  0.0232
 2899SOL    HW112613   0.705   3.154   2.749 -2.1068 -1.9227  0.2157
 2899SOL    HW212614   0.673   3.299   2.780  1.3590 -0.8188 -0.9294
 2900SOL     OW12615   3.249   5.804   2.255 -0.0383 -0.3625  0.6293
 2900SOL    HW112616   3.300   5.724   2.251 -0.4087 -0.5463 -1.8081
 2900SOL    HW212617   3.198   5.805   2.174 -1.1535  1.6131  1.2686
 2901SOL     OW12618   8.507   0.907   3.399 -0.3342  0.0972  0.0753
 2901SOL    HW112619   8.551   0.822   3.395  1.0079  0.7249  0.8225
 2901SOL    HW212620   8.561   0.959   3.458 -1.0195  1.5404 -0.5202
 2902SOL     OW12621   7.206   7.912   6.132 -0.0065 -0.5276 -0.4558
 2902SOL    HW112622   7.175   7.909   6.222  1.1508  0.1323 -0.0159
 2902SOL    HW212623   7.176   7.997   6.099  0.2817 -0.4098 -0.4191
 2903SOL     OW12624   7.834   3.456   3.684  0.4633 -0.2047 -0.4398
 2903SOL    HW112625   7.858   3.482   3.773 -1.7905 -0.3134  0.2484
 2903SOL    HW212626   7.794   3.534   3.646 -2.5557 -1.2950  0.2199
 2904SOL     OW12627   3.683   5.842   8.167 -0.1937 -0.0733 -0.1241
 2904SOL    HW112628   3.653   5.787   8.095  2.4458 -0.0615 -1.3438
 2904SOL    HW212629   3.606   5.854   8.222 -1.5956 -2.4308 -1.4388
 2905SOL     OW12630   4.959   4.067   1.364 -0.2245 -0.4907 -0.0314
 2905SOL    HW112631   5.035   4.125   1.368  1.4795 -2.5931 -0.1825
 2905SOL    HW212632   4.948   4.049   1.270  0.5882 -2.0246  0.1513
 2906SOL     OW12633   7.026   8.415   9.179 -0.0455  0.1653 -0.3682
 2906SOL    HW112634   7.082   8.441   9.106 -2.2550  2.3313 -1.4362
 2906SOL    HW212635   7.051   8.474   9.250  0.9482 -0.8343  0.1588
 2907SOL     OW12636   9.167   5.940   9.482  0.3914 -0.2913  0.4252
 2907SOL    HW112637   9.196   6.022   9.444 -0.1328  0.2053  1.0702
 2907SOL    HW212638   9.109   5.966   9.554  1.9998 -1.1748  2.1130
 2908SOL     OW12639   3.944   2.250   6.889 -0.1964  0.7705 -0.1990
 2908SOL    HW112640   3.863   2.203   6.866 -0.1707  1.0831 -0.9508
 2908SOL    HW212641   4.005   2.227   6.819  0.3372  0.6269  0.3061
 2909SOL     OW12642   3.426   4.193   4.033  0.4526 -0.1285 -0.0859
 2909SOL    HW112643   3.410   4.199   3.939  0.7222 -1.2865 -0.2286
 2909SOL    HW212644   3.347   4.150   4.068  0.3385  0.3267  0.2301
 2910SOL     OW12645   5.541   7.723   6.847 -0.3578 -0.2055  0.4234
 2910SOL    HW112646   5.514   7.780   6.775  0.3590  1.1589  1.1737
 2910SOL    HW212647   5.477   7.652   6.848 -1.0366  0.3590 -0.8282
 2911SOL     OW12648   1.883   8.263   2.455  0.3437 -0.1296 -0.4315
 2911SOL    HW112649   1.811   8.200   2.444 -2.0725  2.3948 -0.2195
 2911SOL    HW212650   1.903   8.291   2.366 -0.4618  0.7145 -0.3592
 2912SOL     OW12651   7.533   6.677   1.475  0.1506  0.1842  0.0466
 2912SOL    HW112652   7.565   6.605   1.528  1.2391 -0.6979 -1.7322
 2912SOL    HW212653   7.453   6.644   1.435  0.0565  0.3611  0.0870
 2913SOL     OW12654   6.236   3.294   0.450 -0.1776  0.0091  0.1581
 2913SOL    HW112655   6.142   3.292   0.465 -0.5083  0.7121 -1.6708
 2913SOL    HW212656   6.251   3.369   0.393  1.3163 -0.8746 -0.6871
 2914SOL     OW12657   6.226   7.800   9.379 -0.2383  0.1543 -0.0750
 2914SOL    HW112658   6.141   7.766   9.353 -0.6630  2.1718 -1.5579
 2914SOL    HW212659   6.284   7.778   9.307  0.1723  0.0259  0.2886
 2915SOL     OW12660   7.341   4.684   5.557  0.4477  0.3868 -0.3392
 2915SOL    HW112661   7.435   4.701   5.552  0.0163  3.0641 -0.6705
 2915SOL    HW212662   7.326   4.667   5.650  1.2454 -0.1292 -0.2882
 2916SOL     OW12663   7.717   4.778   9.355  0.4409 -0.2621 -0.2704
 2916SOL    HW112664   7.726   4.806   9.446 -0.4335  0.2898 -0.3387
 2916SOL    HW212665   7.625   4.750   9.348  1.0119 -2.1750 -0.4838
 2917SOL     OW12666   8.962   2.425   1.958 -0.2643 -0.4168 -0.6572
 2917SOL    HW112667   8.898   2.355   1.968 -2.8676  1.6373 -2.0119
 2917SOL    HW212668   9.007   2.405   1.876  1.1906 -2.0093  0.4356
 2918SOL     OW12669   4.570   0.185   8.806  0.6985  0.0180 -0.0921
 2918SOL    HW112670   4.515   0.181   8.728  0.4179  2.0299 -0.0308
 2918SOL    HW212671   4.599   0.094   8.819 -1.9604 -1.0033 -0.5656
 2919SOL     OW12672   2.726   8.221   9.182  0.1948  0.2572 -0.2517
 2919SOL    HW112673   2.723   8.267   9.099  0.9451 -0.3799 -0.6446
 2919SOL    HW212674   2.708   8.288   9.248 -0.8446  0.6787 -0.9503
 2920SOL     OW12675   2.346   7.142   6.441  0.1427  0.1461  0.0538
 2920SOL    HW112676   2.415   7.076   6.435  0.0680  0.0480  0.2626
 2920SOL    HW212677   2.265   7.092   6.440  0.0991  0.1915  0.7392
 2921SOL     OW12678   2.670   3.983   7.432  0.3856  0.1343  0.1201
 2921SOL    HW112679   2.713   4.034   7.501 -0.3410 -0.4486  1.0249
 2921SOL    HW212680   2.577   4.006   7.439  0.1803 -0.6074 -0.0637
 2922SOL     OW12681   6.197   2.745   6.959  0.1133 -0.1391  0.1838
 2922SOL    HW112682   6.278   2.793   6.942  0.2461 -0.7818 -1.1295
 2922SOL    HW212683   6.148   2.752   6.878 -1.2484  0.3944  1.0302
 2923SOL     OW12684   0.084   0.913   0.865  0.1946 -0.7736 -0.3677
 2923SOL    HW112685   0.015   0.886   0.926  1.7458 -1.1050  1.3365
 2923SOL    HW212686   0.095   1.007   0.882  1.1212 -1.0143  0.3998
 2924SOL     OW12687   3.774   6.854   7.142 -0.3459  0.0544  0.0945
 2924SOL    HW112688   3.681   6.831   7.141 -0.1909 -0.5831 -0.4151
 2924SOL    HW212689   3.788   6.901   7.060 -0.5671  1.6513  0.9369
 2925SOL     OW12690   8.374   0.106   7.984 -0.4871  0.1583  0.6779
 2925SOL    HW112691   8.359   0.031   8.041 -0.0071  0.1849  0.8352
 2925SOL    HW212692   8.453   0.084   7.934 -1.5340 -0.3880 -0.8388
 2926SOL     OW12693   4.974   2.126   7.539  0.8661 -0.4232 -0.2417
 2926SOL    HW112694   5.005   2.079   7.617 -0.0899  1.1993  1.1693
 2926SOL    HW212695   4.909   2.068   7.501  2.1065 -1.7134 -0.4826
 2927SOL     OW12696   0.745   0.299   7.411 -0.1583 -0.2607 -0.1268
 2927SOL    HW112697   0.793   0.304   7.494 -1.5010 -0.7856  0.7155
 2927SOL    HW212698   0.691   0.378   7.410 -0.1083 -0.2318 -0.5308
 2928SOL     OW12699   1.254   7.482   6.371 -0.0856  0.8753  0.3466
 2928SOL    HW112700   1.322   7.504   6.436 -0.3574  1.0510  0.5768
 2928SOL    HW212701   1.253   7.557   6.311 -0.5992  1.2322  0.7861
 2929SOL     OW12702   1.635   1.398   9.627  0.2664  0.4463 -0.3889
 2929SOL    HW112703   1.562   1.392   9.566 -0.1072 -0.1927  0.1077
 2929SOL    HW212704   1.618   1.478   9.677 -0.0350  0.3609 -0.3506
 2930SOL     OW12705   4.034   9.092   8.087 -0.0293 -0.5194 -0.2464
 2930SOL    HW112706   3.951   9.113   8.045 -0.2241 -1.9217 -0.6384
 2930SOL    HW212707   4.010   9.071   8.178 -0.2815 -1.9157 -0.6109
 2931SOL     OW12708   2.968   8.478   2.367  0.2443 -0.1512  0.0971
 2931SOL    HW112709   3.001   8.548   2.423  0.2449 -0.0946  0.0263
 2931SOL    HW212710   2.946   8.522   2.285  1.7956 -0.4782 -0.5463
 2932SOL     OW12711   9.167   0.982   0.462  0.2458  0.4550  0.3890
 2932SOL    HW112712   9.230   0.940   0.520 -1.1993 -1.3847  0.7031
 2932SOL    HW212713   9.082   0.954   0.494 -0.6412 -0.0205 -2.1210
 2933SOL     OW12714   6.092   6.337   3.143 -0.1676 -0.1966 -0.2479
 2933SOL    HW112715   6.063   6.290   3.221 -1.7279 -0.2572 -0.8399
 2933SOL    HW212716   6.147   6.408   3.177 -0.9098 -0.1564  0.9145
 2934SOL     OW12717   0.435   5.930   1.501  0.1219 -0.4025 -0.4296
 2934SOL    HW112718   0.458   5.840   1.524 -0.9646 -1.0220 -1.6428
 2934SOL    HW212719   0.417   5.973   1.585 -2.1464 -2.1224  0.0376
 2935SOL     OW12720   5.684   5.257   4.781 -0.2329  0.1634 -0.3517
 2935SOL    HW112721   5.609   5.315   4.769 -0.8081 -0.2884  0.9068
 2935SOL    HW212722   5.675   5.225   4.870  0.5999 -1.1245 -0.7116
 2936SOL     OW12723   7.088   2.318   6.614 -0.0526 -0.0658 -0.0590
 2936SOL    HW112724   7.120   2.244   6.665 -1.9230 -0.6926  0.2872
 2936SOL    HW212725   7.003   2.288   6.580 -0.2484  1.4558 -0.9787
 2937SOL     OW12726   5.188   8.070   8.960  0.2669  0.0105  0.0183
 2937SOL    HW112727   5.146   8.127   8.895  0.8619  0.4673  0.0209
 2937SOL    HW212728   5.235   8.131   9.018 -0.0630 -0.4107  0.7349
 2938SOL     OW12729   5.817   8.980   2.899  0.2810  0.2159 -0.0295
 2938SOL    HW112730   5.906   9.012   2.888 -0.2595  2.6864  1.8801
 2938SOL    HW212731   5.766   9.028   2.833 -0.1082  1.3410  1.0529
 2939SOL     OW12732   0.854   9.646   5.159 -0.5450  0.4204 -0.6861
 2939SOL    HW112733   0.892   9.572   5.206 -2.9874 -0.7349 -0.3671
 2939SOL    HW212734   0.923   9.712   5.157  1.6543 -1.7424 -0.7558
 2940SOL     OW12735   3.450   5.354   4.685 -0.3171 -0.0825 -0.0372
 2940SOL    HW112736   3.485   5.302   4.613 -1.6257  2.1016 -2.4086
 2940SOL    HW212737   3.524   5.408   4.713 -0.2308  0.2847 -0.9438
 2941SOL     OW12738   2.494   0.532   3.752 -0.0755  0.0837  0.1287
 2941SOL    HW112739   2.586   0.509   3.759 -0.5420 -1.5193  1.5222
 2941SOL    HW212740   2.472   0.517   3.660  1.4803  2.4264 -0.7252
 2942SOL     OW12741   0.900   5.861   6.180 -0.2490  0.1315 -0.4106
 2942SOL    HW112742   0.926   5.893   6.093  0.1497 -1.2126 -0.8148
 2942SOL    HW212743   0.982   5.844   6.225 -0.2843  4.1494  1.6601
 2943SOL     OW12744   2.845   3.785   6.065  0.2823 -0.3565  0.1259
 2943SOL    HW112745   2.856   3.805   5.972  1.4206  0.3106  0.3767
 2943SOL    HW212746   2.814   3.695   6.067 -0.9783  0.0253 -0.9311
 2944SOL     OW12747   6.452   8.983   8.766 -0.1206 -0.1809  0.3395
 2944SOL    HW112748   6.370   8.964   8.720 -0.3837  0.7192  0.4068
 2944SOL    HW212749   6.504   8.903   8.758  0.5321  0.4592 -2.9096
 2945SOL     OW12750   8.200   9.774   6.790  0.9219  0.1208 -0.3930
 2945SOL    HW112751   8.241   9.735   6.713 -1.1312 -0.2162 -1.3626
 2945SOL    HW212752   8.112   9.798   6.762 -0.1283 -0.5858  2.0282
 2946SOL     OW12753   5.880   5.230   0.169  0.2477  0.0396  0.4946
 2946SOL    HW112754   5.836   5.266   0.247  0.8893 -2.2612  2.0168
 2946SOL    HW212755   5.871   5.299   0.103 -1.2858  1.6523  2.2499
 2947SOL     OW12756   9.739   9.751   9.092 -0.6716  0.0373  0.0321
 2947SOL    HW112757   9.661   9.787   9.134 -0.6508 -0.2991  0.3575
 2947SOL    HW212758   9.778   9.694   9.157  1.4519  2.3720  0.9703
 2948SOL     OW12759   1.585   3.643   3.151 -0.2043 -0.0187  0.2581
 2948SOL    HW112760   1.643   3.714   3.122 -1.6501  1.7072  1.4399
 2948SOL    HW212761   1.621   3.616   3.236 -0.5305  0.3412  0.5109
 2949SOL     OW12762   3.105   3.671   2.863  0.4289 -0.0064  1.1160
 2949SOL    HW112763   3.078   3.650   2.952 -0.2147  0.6676  1.0871
 2949SOL    HW212764   3.104   3.767   2.859 -0.3361 -0.0350  0.1645
 2950SOL     OW12765   9.395   1.607   7.592  0.2124 -0.1701  0.2657
 2950SOL    HW112766   9.372   1.568   7.507  1.2468 -0.4332  0.1020
 2950SOL    HW212767   9.312   1.641   7.625 -0.4755 -1.3326 -0.1959
 2951SOL     OW12768   0.430   1.163   2.076 -0.0945  0.5625 -0.0386
 2951SOL    HW112769   0.500   1.221   2.103  0.1639  0.2039  0.0649
 2951SOL    HW212770   0.353   1.219   2.071  0.1134  0.8753  0.2421
 2952SOL     OW12771   9.395   0.751   9.292  0.4455 -0.7677 -0.1759
 2952SOL    HW112772   9.319   0.716   9.337 -1.0860  2.3594 -0.0526
 2952SOL    HW212773   9.462   0.761   9.360 -0.8183  1.0871  0.8759
 2953SOL     OW12774   0.870   3.920   7.561  0.1998  0.3098 -0.2525
 2953SOL    HW112775   0.843   3.984   7.494  1.0423 -0.3695 -1.2741
 2953SOL    HW212776   0.941   3.870   7.519  1.0353  0.1331  1.3033
 2954SOL     OW12777   2.549   7.651   0.634  0.0962 -0.0222  0.3774
 2954SOL    HW112778   2.585   7.583   0.578 -1.1328 -0.2877 -0.1245
 2954SOL    HW212779   2.537   7.608   0.719 -0.4155 -0.3683  0.1376
 2955SOL     OW12780   1.604   1.380   9.991 -0.4550 -0.1452  0.0174
 2955SOL    HW112781   1.638   1.400  10.079 -0.5307  1.0965 -0.2138
 2955SOL    HW212782   1.509   1.379  10.002 -0.4336 -1.5522  0.2464
 2956SOL     OW12783   3.580   5.790   5.539 -0.0875  0.0397 -0.2576
 2956SOL    HW112784   3.627   5.766   5.460 -0.6547 -2.1172 -0.0010
 2956SOL    HW212785   3.498   5.740   5.534 -1.7502  2.5679 -0.0013
 2957SOL     OW12786  10.137   1.982   5.825 -0.5568  0.0697 -0.0082
 2957SOL    HW112787  10.045   2.004   5.813 -0.3113  0.8591 -0.5118
 2957SOL    HW212788  10.179   2.008   5.743 -0.2907 -2.6763 -0.8419
 2958SOL     OW12789   2.131   9.812   1.464  0.0576 -0.0651  0.0735
 2958SOL    HW112790   2.069   9.842   1.531  0.9715  0.2048  0.8057
 2958SOL    HW212791   2.175   9.891   1.434 -0.6660 -0.1193 -1.2084
 2959SOL     OW12792   8.387   4.148   5.023 -0.0066  0.1480 -0.1059
 2959SOL    HW112793   8.333   4.082   5.067 -1.6235  0.4003 -1.6088
 2959SOL    HW212794   8.343   4.231   5.041  0.1358  0.4173 -0.9441
 2960SOL     OW12795   3.049   8.002   6.567  0.1868  0.2633 -0.8686
 2960SOL    HW112796   3.076   8.093   6.581  0.6891 -0.1553  1.1868
 2960SOL    HW212797   3.024   7.999   6.474  1.8557  2.0465 -1.4469
 2961SOL     OW12798   9.934   5.603   4.718 -0.3280  0.3258 -0.2526
 2961SOL    HW112799  10.019   5.590   4.762 -0.6059  2.2902  0.9754
 2961SOL    HW212800   9.922   5.698   4.716 -2.8102  0.0901  0.2212
 2962SOL     OW12801   7.922   4.625   4.353  0.0287 -0.4494  0.1274
 2962SOL    HW112802   7.993   4.688   4.364 -0.2155 -0.1030 -0.3105
 2962SOL    HW212803   7.963   4.540   4.373  0.5064 -0.2255  0.1079
 2963SOL     OW12804   8.647   8.212   9.003 -0.0789 -0.7981 -0.4392
 2963SOL    HW112805   8.585   8.168   8.945  1.0330  0.1411 -2.4308
 2963SOL    HW212806   8.615   8.302   9.009  0.2572 -0.6929 -0.2161
 2964SOL     OW12807   0.381   0.726   1.530 -0.2972  0.0460  0.4272
 2964SOL    HW112808   0.403   0.634   1.514  1.2235  0.5371 -0.4989
 2964SOL    HW212809   0.286   0.730   1.515 -0.5892 -1.5463  1.5149
 2965SOL     OW12810   7.415  10.168   7.701 -0.2645  0.6285  0.3858
 2965SOL    HW112811   7.508  10.156   7.684 -0.1813  0.2394  1.0869
 2965SOL    HW212812   7.386  10.230   7.634  0.6168  1.2038  0.5279
 2966SOL     OW12813   3.156   2.422   4.252 -0.3049 -0.0825  0.1053
 2966SOL    HW112814   3.073   2.393   4.213  0.3479 -1.8560 -0.0464
 2966SOL    HW212815   3.179   2.500   4.202 -1.8436  0.4213  0.1152
 2967SOL     OW12816   7.050   9.195   7.559  0.7993 -0.0350 -0.7062
 2967SOL    HW112817   6.981   9.235   7.611  1.2870  1.4201 -1.1388
 2967SOL    HW212818   7.041   9.234   7.472  2.4235  0.5466 -0.6562
 2968SOL     OW12819   6.890   7.644   8.076 -0.3335 -0.2114 -0.6034
 2968SOL    HW112820   6.836   7.590   8.135 -0.4735 -0.4649 -0.9581
 2968SOL    HW212821   6.849   7.730   8.079 -1.1370 -0.5530 -1.3393
 2969SOL     OW12822   7.146   1.601   7.985  0.3878  0.4280  0.6926
 2969SOL    HW112823   7.095   1.652   7.922 -1.6535 -2.0470  0.1860
 2969SOL    HW212824   7.164   1.662   8.056 -3.0036  1.6313  0.7133
 2970SOL     OW12825   2.022   5.828   3.394 -0.1262  0.2804  0.5336
 2970SOL    HW112826   2.027   5.788   3.308 -0.5116  1.3384 -0.0056
 2970SOL    HW212827   2.066   5.913   3.384  1.0634 -0.1626  1.7441
 2971SOL     OW12828   4.276   2.190   9.531 -0.5313  0.2585  0.5697
 2971SOL    HW112829   4.214   2.168   9.600 -1.3521  0.8234  0.0169
 2971SOL    HW212830   4.226   2.239   9.467 -0.0204 -1.0359 -0.9062
 2972SOL     OW12831   0.618   9.261   4.762 -0.1491  0.3136  0.4608
 2972SOL    HW112832   0.630   9.176   4.806  1.2200  1.2738  2.0610
 2972SOL    HW212833   0.636   9.326   4.830  0.6172  1.8961 -1.1772
 2973SOL     OW12834   1.327  10.069   6.739  0.2253  0.1355 -0.1720
 2973SOL    HW112835   1.418  10.098   6.743 -0.0116  0.9207 -0.4355
 2973SOL    HW212836   1.332   9.974   6.753  1.2614 -0.1449 -2.1640
 2974SOL     OW12837   2.554   2.731   2.372 -0.0464  0.0521  0.1362
 2974SOL    HW112838   2.565   2.689   2.287 -0.8156 -2.4855  1.2207
 2974SOL    HW212839   2.640   2.725   2.414  0.1857  0.8028 -0.2088
 2975SOL     OW12840   7.709   7.767   3.500 -0.2394  0.2945  0.7596
 2975SOL    HW112841   7.627   7.773   3.550 -2.6628  0.2323 -2.8283
 2975SOL    HW212842   7.739   7.857   3.491 -0.3719  0.4058  1.4098
 2976SOL     OW12843   8.676  10.050   8.814 -0.4347  0.4490 -0.4435
 2976SOL    HW112844   8.663   9.969   8.764  0.5699  0.1860 -0.2969
 2976SOL    HW212845   8.759  10.037   8.859 -1.3025  0.6822  1.3012
 2977SOL     OW12846   3.711   5.131   9.488 -0.2787  0.2265  0.3458
 2977SOL    HW112847   3.734   5.206   9.543  0.8782 -0.8306  1.3820
 2977SOL    HW212848   3.706   5.167   9.399  1.6784  1.2796  0.6063
 2978SOL     OW12849   5.676   3.135   3.030 -0.1172 -0.3363 -0.0279
 2978SOL    HW112850   5.635   3.205   3.082  0.6341  0.0749  0.0202
 2978SOL    HW212851   5.602   3.089   2.990 -0.6249  0.3972  0.0496
 2979SOL     OW12852   7.578   6.910   5.893  0.1412  0.1279  0.1509
 2979SOL    HW112853   7.620   6.928   5.977 -1.4251  0.7526  0.8242
 2979SOL    HW212854   7.573   6.815   5.889  0.9255  0.0681  0.4000
 2980SOL     OW12855   1.578   5.965   2.520 -0.0043 -0.6854  0.3404
 2980SOL    HW112856   1.559   6.040   2.462 -2.8200 -1.9996 -0.5914
 2980SOL    HW212857   1.543   5.991   2.605 -1.9974 -1.2890 -0.2490
 2981SOL     OW12858   8.406  10.073   4.357 -0.0642 -0.4525 -0.1658
 2981SOL    HW112859   8.337  10.129   4.393  0.8800  0.3991  0.3666
 2981SOL    HW212860   8.406   9.995   4.412 -1.4254 -1.0288 -0.9438
 2982SOL     OW12861   0.125   8.576   2.357 -0.3694 -0.0871  0.3334
 2982SOL    HW112862   0.075   8.647   2.396  0.7424  1.6476 -1.2002
 2982SOL    HW212863   0.185   8.620   2.297  0.4441 -2.3401 -0.6047
 2983SOL     OW12864   3.514   8.027   3.376  0.2531 -0.1730  0.3639
 2983SOL    HW112865   3.459   7.968   3.323 -1.4406  2.2504 -0.7459
 2983SOL    HW212866   3.587   8.048   3.319  0.4122 -0.5226  0.4371
 2984SOL     OW12867  10.138   9.314   0.581 -0.1247  0.5678 -0.2872
 2984SOL    HW112868  10.098   9.228   0.593 -1.2238  0.8786 -1.5595
 2984SOL    HW212869  10.213   9.313   0.640 -0.3508 -1.1056  0.0341
 2985SOL     OW12870   3.174   6.886   1.018  0.2321  0.1861 -0.7321
 2985SOL    HW112871   3.229   6.836   0.958 -0.0343 -0.4885 -0.4163
 2985SOL    HW212872   3.154   6.966   0.970  1.1254  0.2504 -1.0242
 2986SOL     OW12873   3.127   4.076   5.905 -0.3331 -0.0915 -0.3264
 2986SOL    HW112874   3.206   4.091   5.957 -0.5088 -0.9797  0.2050
 2986SOL    HW212875   3.156   4.018   5.834 -1.0940 -3.0847  1.6269
 2987SOL     OW12876   3.220   3.169   2.842  0.8936 -0.5779 -0.3863
 2987SOL    HW112877   3.145   3.182   2.784  1.7667  1.4426 -1.1681
 2987SOL    HW212878   3.187   3.192   2.929 -0.0845 -2.3800 -0.2448
 2988SOL     OW12879   2.224   3.346   6.504 -0.1050 -0.5015  0.0456
 2988SOL    HW112880   2.181   3.431   6.504 -0.6008 -0.7496  0.9001
 2988SOL    HW212881   2.263   3.339   6.416 -0.0108  0.6188 -0.0116
 2989SOL     OW12882   7.458   1.115   4.135  0.0166 -0.7943 -0.2477
 2989SOL    HW112883   7.413   1.034   4.110 -0.9578 -0.7912  1.3605
 2989SOL    HW212884   7.491   1.098   4.222 -0.3500  0.5876  0.1864
 2990SOL     OW12885   0.618   2.197   6.096  0.2736  0.0057  0.5011
 2990SOL    HW112886   0.673   2.130   6.136  0.6348 -0.4849 -0.7654
 2990SOL    HW212887   0.672   2.234   6.027 -0.5118  0.4532  0.1110
 2991SOL     OW12888   5.054   6.973   2.000 -0.3996  0.5703  0.0310
 2991SOL    HW112889   5.006   7.046   2.038 -1.6710  0.5415 -1.4348
 2991SOL    HW212890   5.077   7.003   1.912 -0.7685 -0.7042 -0.5193
 2992SOL     OW12891   8.792   7.865   6.434 -0.2620 -0.5864  0.1219
 2992SOL    HW112892   8.729   7.798   6.462  0.4505 -1.5922 -0.5832
 2992SOL    HW212893   8.779   7.872   6.340  0.7489 -0.8963 -0.0537
 2993SOL     OW12894   1.649   1.495   5.368  0.1551  0.1966 -0.5733
 2993SOL    HW112895   1.700   1.438   5.309 -0.5976  1.1493 -2.2232
 2993SOL    HW212896   1.711   1.561   5.397  0.1119  0.8356 -1.8639
 2994SOL     OW12897   4.068   8.275   6.595  0.0179  1.0450  0.1771
 2994SOL    HW112898   4.110   8.274   6.510 -0.8848 -0.4729 -0.2891
 2994SOL    HW212899   4.136   8.244   6.656 -0.0894 -0.4427 -0.4163
 2995SOL     OW12900   1.608   0.716   7.387  0.4306  0.5060  0.2107
 2995SOL    HW112901   1.694   0.734   7.348  0.7418  0.2902  0.7857
 2995SOL    HW212902   1.618   0.740   7.479 -0.1089  0.4185  0.2923
 2996SOL     OW12903   6.619   2.861   8.724 -0.1465  0.0685  0.0314
 2996SOL    HW112904   6.633   2.955   8.733 -1.6577  0.3051  0.2407
 2996SOL    HW212905   6.583   2.851   8.635 -0.5988 -0.2235  0.2441
 2997SOL     OW12906   2.069   7.814   5.449 -0.3661  0.2300  0.2113
 2997SOL    HW112907   2.103   7.847   5.532  1.5797 -0.8339 -0.1099
 2997SOL    HW212908   2.147   7.801   5.394 -1.6242  1.3599 -1.9776
 2998SOL     OW12909   8.041   1.641   9.361 -0.1522  0.2012  0.0997
 2998SOL    HW112910   8.069   1.595   9.440 -2.2543  0.3822  1.0249
 2998SOL    HW212911   7.988   1.578   9.313 -0.3855  0.6445 -0.2390
 2999SOL     OW12912   7.283   6.914   8.769  0.5105  0.7453  0.0315
 2999SOL    HW112913   7.207   6.918   8.828  0.5288 -0.6228  0.1941
 2999SOL    HW212914   7.352   6.958   8.817  0.4398 -0.0823  0.9423
 3000SOL     OW12915   7.481   2.007   8.169 -0.1651 -0.2634  0.2574
 3000SOL    HW112916   7.576   2.020   8.167 -0.2657  0.4590 -0.1090
 3000SOL    HW212917   7.466   1.950   8.244  0.6389 -1.1163 -0.2161
 3001SOL     OW12918   8.015   3.974   6.099 -0.1948  0.0761 -0.5857
 3001SOL    HW112919   7.997   3.883   6.121 -1.0520  0.1756 -0.8414
 3001SOL    HW212920   7.934   4.006   6.060 -0.2410  1.2464  0.4182
 3002SOL     OW12921   5.100   8.658   7.767 -0.4303  0.2122  0.1594
 3002SOL    HW112922   5.067   8.703   7.844  0.2483  0.6255  0.2196
 3002SOL    HW212923   5.192   8.684   7.762 -0.7242  1.1251 -1.4261
 3003SOL     OW12924  10.067   9.603   6.903 -0.1798 -0.5291 -0.0682
 3003SOL    HW112925  10.097   9.514   6.918 -0.3786 -0.2384  2.3729
 3003SOL    HW212926  10.000   9.595   6.835 -1.1120 -2.4354  1.0036
 3004SOL     OW12927   3.639   5.357   3.764  0.2575  0.8007  0.1046
 3004SOL    HW112928   3.553   5.390   3.740 -0.4978  0.0435  1.6680
 3004SOL    HW212929   3.700   5.426   3.735 -0.8478  1.3442 -0.9984
 3005SOL     OW12930   9.540   1.032   8.437  0.3904  0.5263 -0.1239
 3005SOL    HW112931   9.525   1.011   8.344 -0.8768  1.3961 -0.1425
 3005SOL    HW212932   9.634   1.049   8.443  0.9151 -1.7194 -0.7712
 3006SOL     OW12933   9.215   3.546   4.437 -0.0224 -0.0973 -0.7216
 3006SOL    HW112934   9.243   3.638   4.443  2.2587 -0.7954  0.9030
 3006SOL    HW212935   9.152   3.536   4.509  0.1683  0.0695 -0.5272
 3007SOL     OW12936   4.231   2.661   4.895  0.0193 -0.2694 -0.3597
 3007SOL    HW112937   4.157   2.713   4.926  0.1423 -0.3878  0.1388
 3007SOL    HW212938   4.195   2.574   4.881  0.5811 -1.0584  2.4272
 3008SOL     OW12939   4.291   7.794   0.435  0.4348  0.0661  0.0915
 3008SOL    HW112940   4.211   7.837   0.464 -0.4106 -0.7826 -0.9108
 3008SOL    HW212941   4.362   7.848   0.471 -0.5743  1.3039  0.2894
 3009SOL     OW12942   1.716   7.926   5.791 -0.1231 -0.2268  0.5940
 3009SOL    HW112943   1.765   7.962   5.717  0.4842  0.5973  1.3675
 3009SOL    HW212944   1.683   8.003   5.838 -0.5688 -0.7340  1.1379
 3010SOL     OW12945   3.271   6.723   5.781  0.2951  0.2116 -0.4035
 3010SOL    HW112946   3.316   6.671   5.714  2.1751  0.8712  0.2982
 3010SOL    HW212947   3.281   6.814   5.752  1.6013  0.5520  1.0148
 3011SOL     OW12948   0.035   3.405   0.595 -0.1190 -0.2519  0.4609
 3011SOL    HW112949  -0.043   3.351   0.601  0.5446 -1.0578  2.6997
 3011SOL    HW212950   0.105   3.344   0.571  0.6963 -0.5900  3.3107
 3012SOL     OW12951   3.893   0.125   0.465 -0.5382  0.1175 -0.3035
 3012SOL    HW112952   3.806   0.140   0.428 -0.7968 -0.0006  0.2440
 3012SOL    HW212953   3.883   0.048   0.521 -0.1173  0.1890 -0.1238
 3013SOL     OW12954   7.599   8.431   0.066  0.1689  0.0061  0.0990
 3013SOL    HW112955   7.640   8.351   0.100 -1.1818 -0.6092  0.3408
 3013SOL    HW212956   7.661   8.464   0.001  0.2791 -1.8191 -0.7823
 3014SOL     OW12957   7.231   3.917   6.996 -0.0219 -0.0286 -0.5463
 3014SOL    HW112958   7.156   3.975   7.006  0.8390  1.0636 -0.2182
 3014SOL    HW212959   7.193   3.829   6.996 -1.3022  0.4974 -0.4641
 3015SOL     OW12960   8.171   8.237   9.580  0.0509  0.3104 -0.5483
 3015SOL    HW112961   8.134   8.315   9.538 -0.3179  0.2097 -0.4101
 3015SOL    HW212962   8.265   8.257   9.587 -0.0670  0.8343 -0.3299
 3016SOL     OW12963   1.971   2.953   5.218 -0.2226 -0.7646  0.1673
 3016SOL    HW112964   1.911   3.023   5.245  2.0083  1.2479  0.2407
 3016SOL    HW212965   1.914   2.886   5.181 -2.5017  1.2704 -0.2902
 3017SOL     OW12966   4.532   4.875   9.988 -0.3947  0.3141  0.4324
 3017SOL    HW112967   4.460   4.881  10.051 -0.5777 -2.1234  0.5465
 3017SOL    HW212968   4.594   4.814  10.027  0.3748  0.1873 -0.9249
 3018SOL     OW12969   4.824   3.057   8.995  0.2139  0.0122  0.7547
 3018SOL    HW112970   4.897   3.096   9.044  0.2637  0.8776  0.0280
 3018SOL    HW212971   4.863   2.985   8.946  0.8212  1.1032 -0.4234
 3019SOL     OW12972   2.018   9.335   6.362  0.2788  0.7131  0.7208
 3019SOL    HW112973   2.102   9.293   6.341 -0.9495 -1.5009 -0.0514
 3019SOL    HW212974   1.955   9.293   6.303 -1.5698  1.5816  1.9950
 3020SOL     OW12975   5.106   1.872   4.163 -0.5638 -0.2346  0.3693
 3020SOL    HW112976   5.149   1.956   4.146 -1.5692  0.1273 -0.5317
 3020SOL    HW212977   5.037   1.893   4.226 -0.5021 -0.4740  0.5153
 3021SOL     OW12978   5.057   9.093   4.043 -0.2598  0.3537 -0.8167
 3021SOL    HW112979   5.132   9.113   4.099 -0.6499 -1.5610  0.4708
 3021SOL    HW212980   5.042   9.174   3.994  0.7975  1.7605  1.0410
 3022SOL     OW12981   4.282   5.077   0.944  0.2427 -0.2464 -0.3422
 3022SOL    HW112982   4.308   5.152   0.890 -2.1765 -0.6995 -2.2915
 3022SOL    HW212983   4.232   5.116   1.016 -0.1435  0.0932 -0.7889
 3023SOL     OW12984   2.655   6.237   9.033 -0.1429  0.2612  0.7005
 3023SOL    HW112985   2.664   6.243   9.128 -0.2032  0.4554  0.6946
 3023SOL    HW212986   2.579   6.292   9.013  0.2536  0.7379  0.4739
 3024SOL     OW12987   5.936   0.989   4.754  0.2501 -0.0379  0.1860
 3024SOL    HW112988   5.885   0.910   4.735 -2.2560  1.6628 -0.5752
 3024SOL    HW212989   5.969   0.976   4.843 -2.6885 -0.6833  1.2732
 3025SOL     OW12990   6.931   8.081   4.586 -0.5812 -0.5530 -0.1584
 3025SOL    HW112991   6.877   8.094   4.663 -1.5243 -1.5593 -0.6337
 3025SOL    HW212992   6.884   8.127   4.516  0.2124  0.2621 -0.1791
 3026SOL     OW12993   2.381   6.542   5.001  0.6794 -0.3106 -0.0376
 3026SOL    HW112994   2.310   6.600   5.028  0.1048 -0.4996 -1.0487
 3026SOL    HW212995   2.393   6.562   4.908  0.5890 -1.6592 -0.3609
 3027SOL     OW12996   7.549   5.908   1.078 -0.2410  0.3433  0.0667
 3027SOL    HW112997   7.510   5.828   1.043 -0.7945  0.8657 -0.5600
 3027SOL    HW212998   7.512   5.917   1.165 -0.6715  0.2503 -0.1055
 3028SOL     OW12999   0.398   2.673   6.200 -0.1128  0.1332 -0.2563
 3028SOL    HW113000   0.397   2.590   6.153  2.0282 -0.0063 -0.1726
 3028SOL    HW213001   0.425   2.650   6.289  0.6326  0.8996 -0.2597
 3029SOL     OW13002   0.090   7.077   3.896 -0.0566 -0.1494  0.0407
 3029SOL    HW113003   0.161   7.061   3.958 -0.1364  1.8312  0.7188
 3029SOL    HW213004   0.127   7.056   3.811  0.5225 -1.5124  0.5963
 3030SOL     OW13005   1.238   2.556   2.308 -0.6358  0.0732  0.5794
 3030SOL    HW113006   1.255   2.631   2.365 -1.0146  0.1466  0.5989
 3030SOL    HW213007   1.181   2.591   2.239  1.8867  0.6649 -1.3733
 3031SOL     OW13008   1.827   7.671   5.723  0.0683 -0.2044  0.6873
 3031SOL    HW113009   1.787   7.654   5.638  2.1587 -0.8904 -0.2195
 3031SOL    HW213010   1.764   7.728   5.768 -0.7651  0.7802 -1.5822
 3032SOL     OW13011   4.559   3.450   2.793 -0.0936 -0.0915 -0.4409
 3032SOL    HW113012   4.556   3.527   2.851  1.6842 -0.1030 -0.2656
 3032SOL    HW213013   4.470   3.415   2.795 -0.9723  1.9757 -0.5548
 3033SOL     OW13014   4.100  10.145   7.624 -0.3751 -0.7911 -0.0469
 3033SOL    HW113015   4.161  10.098   7.568  1.4171  0.0566  1.1011
 3033SOL    HW213016   4.146  10.225   7.648 -1.5454 -0.5690  1.6771
 3034SOL     OW13017   5.087   8.793   1.556  0.2801 -0.0039 -0.3752
 3034SOL    HW113018   5.059   8.877   1.592 -2.6023 -1.5656  1.4471
 3034SOL    HW213019   5.050   8.791   1.468  0.4130  0.6381 -0.4508
 3035SOL     OW13020   6.108   5.643   8.618 -0.2917  0.0781 -0.4862
 3035SOL    HW113021   6.080   5.570   8.673  0.5034 -0.5201 -0.8433
 3035SOL    HW213022   6.032   5.700   8.611 -0.0903  0.8000  2.2022
 3036SOL     OW13023   2.200   9.287  10.023  0.0442 -0.4870 -0.0775
 3036SOL    HW113024   2.218   9.351   9.954  0.0702 -0.1425  0.2416
 3036SOL    HW213025   2.287   9.260  10.054  0.0435  0.5126  0.8615
 3037SOL     OW13026   1.531   7.531   3.731  0.2225 -0.0207 -0.5342
 3037SOL    HW113027   1.589   7.460   3.704  1.6937  0.1236  1.9385
 3037SOL    HW213028   1.580   7.611   3.713 -0.4360  0.2687 -1.0865
 3038SOL     OW13029   0.335   8.188   2.231  0.1636  0.1272 -0.2776
 3038SOL    HW113030   0.392   8.265   2.229  0.1933  0.3227  2.8547
 3038SOL    HW213031   0.266   8.212   2.293  0.3203 -2.4435  1.0072
 3039SOL     OW13032   4.585   7.502   4.321  0.4120 -0.3235 -0.1860
 3039SOL    HW113033   4.592   7.424   4.375  1.1281  0.0438  0.2577
 3039SOL    HW213034   4.493   7.505   4.295  0.5255 -1.7406 -0.8628
 3040SOL     OW13035   7.685   8.910   5.871 -0.0252 -0.1848  0.5514
 3040SOL    HW113036   7.637   8.968   5.812  0.8125 -0.5233 -0.5013
 3040SOL    HW213037   7.731   8.969   5.931  2.0805  0.4141 -1.4698
 3041SOL     OW13038   6.711   7.269   9.798 -0.6424  0.2116 -0.6633
 3041SOL    HW113039   6.622   7.245   9.771 -0.7313 -0.9207  0.5430
 3041SOL    HW213040   6.767   7.206   9.752 -0.5932  0.0048 -0.3283
 3042SOL     OW13041   1.933   1.795   5.130  0.0280  0.8650  0.3331
 3042SOL    HW113042   2.028   1.789   5.129  0.1006  1.2450 -2.2155
 3042SOL    HW213043   1.903   1.705   5.140  0.7287  0.3709 -1.6067
 3043SOL     OW13044   5.725   6.065   0.548  0.0761  0.4235  0.1038
 3043SOL    HW113045   5.723   6.076   0.453 -0.2756 -1.8300 -0.2222
 3043SOL    HW213046   5.642   6.022   0.568  1.2355 -1.5629  0.9937
 3044SOL     OW13047   9.743   7.550   2.461  0.4218 -0.3324 -0.3628
 3044SOL    HW113048   9.781   7.526   2.546 -0.8773 -0.5560  0.1783
 3044SOL    HW213049   9.801   7.619   2.428  0.5901  0.2240  1.0116
 3045SOL     OW13050   9.221   7.941   4.706 -0.5814 -0.1896  0.0880
 3045SOL    HW113051   9.188   7.929   4.617 -0.4902 -0.7274  0.1258
 3045SOL    HW213052   9.203   8.033   4.725 -1.2727 -0.2549 -0.2086
 3046SOL     OW13053   9.728   4.596   3.722 -0.1851  0.3269  0.1618
 3046SOL    HW113054   9.728   4.539   3.799  1.1469  0.3574  0.1949
 3046SOL    HW213055   9.636   4.622   3.712 -0.6951 -1.1869  0.6066
 3047SOL     OW13056   7.614   1.536   3.475 -0.2766 -0.0325  0.0418
 3047SOL    HW113057   7.528   1.499   3.456 -0.7437 -0.3180  2.4250
 3047SOL    HW213058   7.650   1.480   3.544  1.2761  0.8465 -0.0016
 3048SOL     OW13059   6.802   8.083   4.859 -0.0445 -0.3301 -0.0649
 3048SOL    HW113060   6.716   8.051   4.886 -0.0939 -1.8556 -1.8249
 3048SOL    HW213061   6.864   8.026   4.904  0.0511  0.3325  0.6676
 3049SOL     OW13062   1.577   1.416   2.006  0.0825  0.1739 -0.0216
 3049SOL    HW113063   1.528   1.338   2.033  1.0399 -0.5675 -0.3516
 3049SOL    HW213064   1.606   1.456   2.087  1.6148 -1.1714  0.1618
 3050SOL     OW13065   6.523   4.655   9.806 -0.1336  0.3118 -0.3811
 3050SOL    HW113066   6.616   4.656   9.830 -0.4707  0.7156  1.0244
 3050SOL    HW213067   6.506   4.564   9.782  0.8899  0.4778 -1.8525
 3051SOL     OW13068   8.236   7.077   1.053  0.1572 -0.1758  0.6855
 3051SOL    HW113069   8.158   7.095   1.105 -0.0442 -1.2740  0.7870
 3051SOL    HW213070   8.203   7.057   0.965  0.2500 -1.2689  0.8807
 3052SOL     OW13071   8.695   1.327   9.996  0.3106  0.0235  0.2359
 3052SOL    HW113072   8.616   1.353  10.042 -0.2517 -0.3046 -0.5020
 3052SOL    HW213073   8.663   1.290   9.913  1.1952 -0.7087  0.1969
 3053SOL     OW13074   6.099   6.807   1.624  0.5249 -0.1660  0.6267
 3053SOL    HW113075   6.189   6.789   1.653  0.9092 -1.1594 -0.9935
 3053SOL    HW213076   6.044   6.765   1.689  1.3695 -4.2802 -0.9981
 3054SOL     OW13077   1.871   3.282   8.965 -0.7713  0.1910 -0.3809
 3054SOL    HW113078   1.910   3.362   8.929  0.1438 -1.1982 -2.6540
 3054SOL    HW213079   1.920   3.266   9.046  0.5188  0.7523 -1.0297
 3055SOL     OW13080   6.095   4.804   8.263  0.2073 -0.1028 -0.5190
 3055SOL    HW113081   6.012   4.773   8.298 -0.0455  0.9739 -0.1179
 3055SOL    HW213082   6.094   4.898   8.279  1.2208  0.0247 -1.1043
 3056SOL     OW13083  10.151   7.350   8.812  0.1787 -0.4038 -0.4970
 3056SOL    HW113084  10.175   7.287   8.743  1.9358  0.8814 -1.1553
 3056SOL    HW213085  10.104   7.419   8.765  0.4359 -0.0409 -0.2233
 3057SOL     OW13086   7.618   1.981   3.382 -0.1513  0.1026  0.1981
 3057SOL    HW113087   7.651   1.900   3.344  0.6243  0.1864  0.6738
 3057SOL    HW213088   7.676   1.999   3.456 -0.4946  0.9344  0.2829
 3058SOL     OW13089   6.512   8.316   7.035 -0.6954  0.1043 -0.0181
 3058SOL    HW113090   6.575   8.353   7.097 -1.3462  1.5010 -0.1569
 3058SOL    HW213091   6.532   8.223   7.033 -1.4384 -0.2347  3.2631
 3059SOL     OW13092   4.391   5.410   7.512  0.9989 -0.3027  0.8140
 3059SOL    HW113093   4.345   5.475   7.563  0.1996 -0.0939 -0.1467
 3059SOL    HW213094   4.323   5.368   7.459  1.6434 -1.2419  0.7013
 3060SOL     OW13095   1.584   0.235   1.370 -0.3906 -0.2851  0.3742
 3060SOL    HW113096   1.556   0.150   1.404  0.8985 -0.7813  0.2827
 3060SOL    HW213097   1.649   0.265   1.434 -1.3393  0.9731  0.7795
 3061SOL     OW13098   2.818   9.236   9.338  0.5593 -0.1475 -0.1278
 3061SOL    HW113099   2.777   9.298   9.278  0.9372  0.4188  0.1811
 3061SOL    HW213100   2.874   9.181   9.283  1.4505  0.8252 -0.2224
 3062SOL     OW13101   1.499   1.487   0.671 -0.1816 -0.3285 -0.1534
 3062SOL    HW113102   1.584   1.511   0.633 -0.3168  0.1882 -0.1417
 3062SOL    HW213103   1.479   1.558   0.732 -1.6304  0.7122 -1.7477
 3063SOL     OW13104   9.374   3.000   1.026 -0.1155 -0.6446 -0.1636
 3063SOL    HW113105   9.351   3.049   0.947  1.6928 -0.0750 -0.3864
 3063SOL    HW213106   9.419   2.922   0.993 -0.4434 -1.0295  0.2881
 3064SOL     OW13107   9.565   5.790   4.289 -0.2404 -0.4970 -0.1139
 3064SOL    HW113108   9.656   5.765   4.277  0.3013  1.7496 -1.0649
 3064SOL    HW213109   9.539   5.830   4.206 -0.5247  3.3116  1.5847
 3065SOL     OW13110   6.953   7.491   7.145 -0.7508 -0.3580 -0.1557
 3065SOL    HW113111   6.948   7.441   7.227 -0.4436  0.9617  0.7065
 3065SOL    HW213112   6.886   7.558   7.154  0.9604  1.3925  0.1690
 3066SOL     OW13113   6.222   3.916   0.217 -0.1990  0.1094 -0.3481
 3066SOL    HW113114   6.150   3.883   0.270 -1.2764  2.4195 -0.2799
 3066SOL    HW213115   6.204   3.884   0.129 -1.3619  0.7118 -0.3415
 3067SOL     OW13116   7.477   3.422   2.406 -0.2317 -0.5777  0.0844
 3067SOL    HW113117   7.438   3.507   2.385 -0.2838 -0.7765 -0.6644
 3067SOL    HW213118   7.572   3.436   2.399 -0.2129 -0.4098  0.6511
 3068SOL     OW13119   3.190  10.080   1.807 -0.2054 -0.1770  0.6045
 3068SOL    HW113120   3.118  10.133   1.774 -0.4509 -1.2898 -0.6775
 3068SOL    HW213121   3.248  10.144   1.849  0.1542  1.3264 -1.9980
 3069SOL     OW13122   6.759   3.108   1.777 -0.0578 -0.1845 -0.7628
 3069SOL    HW113123   6.671   3.124   1.809  0.4815 -0.2761  0.8278
 3069SOL    HW213124   6.812   3.179   1.814  0.9629 -1.4526  0.3034
 3070SOL     OW13125   3.903   4.674   8.114 -0.2463 -0.1602 -0.0253
 3070SOL    HW113126   3.976   4.620   8.145 -0.2485  0.2139  0.6368
 3070SOL    HW213127   3.926   4.763   8.142 -0.6521  0.0544 -0.3731
 3071SOL     OW13128   9.098   0.173   9.340 -0.2783 -0.4722  0.1358
 3071SOL    HW113129   9.140   0.211   9.262 -2.5471 -0.1784 -1.0308
 3071SOL    HW213130   9.023   0.230   9.357  0.4059 -0.2718  2.8856
 3072SOL     OW13131   1.491   6.842   2.361  0.0226  0.0020  0.0414
 3072SOL    HW113132   1.461   6.873   2.275  0.3272 -0.0773 -0.0918
 3072SOL    HW213133   1.568   6.895   2.380 -1.5333  1.9150  1.4653
 3073SOL     OW13134   9.645   2.455   5.717 -0.1885  0.1116 -0.3479
 3073SOL    HW113135   9.598   2.375   5.736 -0.2300  0.3780  0.7041
 3073SOL    HW213136   9.733   2.441   5.752 -0.1032  0.4123 -0.4346
 3074SOL     OW13137   2.382   7.887   6.906  0.4421  0.3639  0.5963
 3074SOL    HW113138   2.443   7.958   6.885  1.0478  0.1549  1.5363
 3074SOL    HW213139   2.309   7.930   6.950  0.5195  0.4811  0.6123
 3075SOL     OW13140   8.909   9.572   5.020 -0.1416  0.5325 -0.1836
 3075SOL    HW113141   8.879   9.597   5.108  0.6314  0.0360  0.2309
 3075SOL    HW213142   8.838   9.600   4.962 -1.0817  0.0635  0.6927
 3076SOL     OW13143   1.148   7.606   0.622 -0.6478  0.3114 -0.2879
 3076SOL    HW113144   1.164   7.680   0.564 -1.0464  0.3506 -0.3545
 3076SOL    HW213145   1.182   7.530   0.574 -1.2822  0.2975 -0.7279
 3077SOL     OW13146   0.309   9.546   1.191 -0.1547  0.2706 -0.0922
 3077SOL    HW113147   0.241   9.569   1.253 -1.7480  0.7467 -1.9234
 3077SOL    HW213148   0.391   9.568   1.236 -1.1390 -0.5082  2.2386
 3078SOL     OW13149   6.325   5.964   5.061 -0.3920  0.4722 -0.3656
 3078SOL    HW113150   6.300   5.989   4.972 -0.0964  0.0748 -0.5617
 3078SOL    HW213151   6.397   5.901   5.050  1.3748  2.2833  0.2015
 3079SOL     OW13152   7.065   0.919   3.196 -0.0449 -0.0012 -0.1159
 3079SOL    HW113153   7.123   0.879   3.131  1.7552 -1.8708  2.4827
 3079SOL    HW213154   7.094   1.010   3.201 -0.1223  0.1533 -1.7264
 3080SOL     OW13155   8.193   6.797   8.271  0.1062  0.3262 -0.3409
 3080SOL    HW113156   8.207   6.724   8.331  0.0559  0.6065  0.0191
 3080SOL    HW213157   8.128   6.765   8.209  1.6980 -0.7078 -1.5418
 3081SOL     OW13158   7.708   8.898   5.540  0.2292  0.5207 -0.2257
 3081SOL    HW113159   7.786   8.916   5.591  0.6325 -0.3524 -0.5153
 3081SOL    HW213160   7.703   8.968   5.475  1.4834 -0.0914 -1.0177
 3082SOL     OW13161   3.149   5.835   6.615  0.1138  0.0776 -0.2370
 3082SOL    HW113162   3.148   5.757   6.560 -0.1528  0.6352 -1.0354
 3082SOL    HW213163   3.145   5.908   6.553 -3.3929  0.7326  0.5704
 3083SOL     OW13164   4.525   4.118   0.106  0.5365  0.0341  0.6061
 3083SOL    HW113165   4.493   4.070   0.030  0.8200  0.5110  0.1778
 3083SOL    HW213166   4.598   4.170   0.073  1.4967 -0.7200  1.4898
 3084SOL     OW13167   7.509   3.785   8.022  0.3958 -0.2547  0.4896
 3084SOL    HW113168   7.452   3.774   8.098 -0.1080 -0.0296  0.1504
 3084SOL    HW213169   7.569   3.856   8.046 -2.2968  2.7240 -0.7370
 3085SOL     OW13170   8.179   1.792   8.802 -0.8897  0.0956  0.5799
 3085SOL    HW113171   8.135   1.803   8.718  1.6070 -0.9375 -0.9666
 3085SOL    HW213172   8.219   1.705   8.797  0.0930  0.3906  2.4593
 3086SOL     OW13173   9.700   0.534   8.345  0.2034 -0.1500  0.7952
 3086SOL    HW113174   9.747   0.460   8.383  1.7442 -0.6704 -1.8679
 3086SOL    HW213175   9.768   0.586   8.302 -1.2688  0.7944 -0.4987
 3087SOL     OW13176   3.511   3.826   6.842  0.4350  0.2857  0.2615
 3087SOL    HW113177   3.459   3.751   6.870  0.2160 -0.1695 -1.2672
 3087SOL    HW213178   3.581   3.789   6.790  3.7622  0.6518  3.9970
 3088SOL     OW13179   3.660   2.749   3.128 -0.6455  0.4821  0.5847
 3088SOL    HW113180   3.718   2.775   3.056 -2.1332 -0.6122 -1.1033
 3088SOL    HW213181   3.692   2.662   3.154  0.6730  1.3935  2.1787
 3089SOL     OW13182   5.841   6.973   9.799  0.7938  0.0608 -0.5721
 3089SOL    HW113183   5.800   7.056   9.772 -1.4787 -0.2866  1.4497
 3089SOL    HW213184   5.806   6.908   9.738 -0.2974  0.0750  0.0006
 3090SOL     OW13185   1.273   3.517   0.625  0.1115  0.3615  0.2386
 3090SOL    HW113186   1.206   3.581   0.648  0.5299  0.7506  0.3928
 3090SOL    HW213187   1.343   3.532   0.689  0.3737  0.0058  0.0363
 3091SOL     OW13188   7.036   6.177   8.188  0.2042 -0.1966 -0.0100
 3091SOL    HW113189   6.981   6.180   8.266  0.4609  0.7911  0.1438
 3091SOL    HW213190   7.068   6.087   8.185 -0.0356 -0.3193  0.8641
 3092SOL     OW13191   1.552   5.956   0.276  0.0198  0.7001 -0.1274
 3092SOL    HW113192   1.537   6.034   0.330  1.1760  0.3370  0.7567
 3092SOL    HW213193   1.574   5.990   0.190  0.4957  1.3524  0.2439
 3093SOL     OW13194   3.452   3.694   6.562  0.2309  0.0473 -0.0140
 3093SOL    HW113195   3.413   3.637   6.628  0.4431 -0.3238 -0.2049
 3093SOL    HW213196   3.541   3.711   6.595  0.1215  0.3865  0.1127
 3094SOL     OW13197   5.109   1.544   3.156  0.2909 -0.0194  0.1292
 3094SOL    HW113198   5.177   1.546   3.223  0.9844 -1.7826 -0.4685
 3094SOL    HW213199   5.154   1.518   3.076 -1.0186 -0.9683 -0.3413
 3095SOL     OW13200   1.530  10.148   0.966 -0.4674 -0.1922 -0.1147
 3095SOL    HW113201   1.511  10.157   0.873 -1.3845 -1.1976 -0.0463
 3095SOL    HW213202   1.510  10.235   1.003  1.4915  0.7273 -1.0696
 3096SOL     OW13203   7.436   8.681   9.678 -0.2599  0.5783  0.2256
 3096SOL    HW113204   7.496   8.663   9.751  1.8295  1.3831 -1.2015
 3096SOL    HW213205   7.391   8.761   9.704  0.8957  1.1900  0.4090
 3097SOL     OW13206   3.535   8.442   6.991 -0.6723 -0.0788  0.5960
 3097SOL    HW113207   3.610   8.417   7.046 -0.0823 -1.2327 -0.6745
 3097SOL    HW213208   3.567   8.516   6.939 -1.3183  1.1906  1.9512
 3098SOL     OW13209   7.325   5.950   4.379  0.1137 -0.5888  0.5213
 3098SOL    HW113210   7.256   5.909   4.432 -0.5621  0.0834  0.1764
 3098SOL    HW213211   7.373   6.005   4.441  0.9776 -1.8153  0.9721
 3099SOL     OW13212   3.379   4.898   3.122  0.4819  1.2584  0.3127
 3099SOL    HW113213   3.430   4.876   3.044 -1.1450  0.3958 -0.5503
 3099SOL    HW213214   3.296   4.933   3.088 -1.5751 -2.0551  1.4983
 3100SOL     OW13215   7.844   1.017   7.247 -0.2201 -0.3449 -0.1596
 3100SOL    HW113216   7.837   0.962   7.170 -2.0646  2.3313 -2.0956
 3100SOL    HW213217   7.822   1.105   7.216  0.0447  1.0743  3.2116
 3101SOL     OW13218   7.890   8.822   2.230 -0.1531  0.1159  0.2471
 3101SOL    HW113219   7.828   8.749   2.235 -0.5245  0.4480  0.4609
 3101SOL    HW213220   7.893   8.858   2.318  0.1365  0.2746  0.1742
 3102SOL     OW13221   5.614   7.200   5.367  0.2765  0.4983 -0.3480
 3102SOL    HW113222   5.591   7.272   5.426 -1.4846 -0.1106 -0.2530
 3102SOL    HW213223   5.560   7.127   5.396  2.7058 -1.2191  0.1750
 3103SOL     OW13224   0.506   3.878   1.369 -0.1589  0.2847 -0.1782
 3103SOL    HW113225   0.461   3.943   1.423  1.7339 -0.0920  1.9883
 3103SOL    HW213226   0.555   3.929   1.305  0.3488  0.9629  0.7335
 3104SOL     OW13227   5.220   5.936   5.829 -0.3344  0.7359 -0.0023
 3104SOL    HW113228   5.227   5.853   5.781 -2.3526  1.0366 -0.9235
 3104SOL    HW213229   5.127   5.943   5.852  0.3436  1.1840  3.0029
 3105SOL     OW13230   9.000   0.358   8.633 -0.2592  0.2199 -0.4499
 3105SOL    HW113231   8.933   0.323   8.692  0.4010 -1.1051 -0.4591
 3105SOL    HW213232   9.000   0.452   8.651 -2.2250  0.2805 -0.5716
 3106SOL     OW13233   8.768   2.959   9.023 -0.1581 -0.0506 -0.3203
 3106SOL    HW113234   8.716   2.908   9.085 -0.9651 -0.8556 -1.6038
 3106SOL    HW213235   8.718   2.955   8.941  1.2836  0.2655 -1.2489
 3107SOL     OW13236   7.667   2.725   0.461 -0.1711  0.1478 -0.4290
 3107SOL    HW113237   7.746   2.779   0.455  0.6699 -0.6252  2.1227
 3107SOL    HW213238   7.700   2.635   0.456 -1.0975 -0.1834 -0.8423
 3108SOL     OW13239   1.883   3.955   8.930  0.0991 -0.1534  0.3209
 3108SOL    HW113240   1.792   3.962   8.901 -0.0591  0.0492  0.8482
 3108SOL    HW213241   1.880   3.976   9.024  0.4087 -2.0335  0.7991
 3109SOL     OW13242   3.445   7.804   5.502 -0.0351  0.3421  0.3530
 3109SOL    HW113243   3.431   7.768   5.414  1.1252 -2.2177  1.1118
 3109SOL    HW213244   3.520   7.863   5.492  0.8016 -0.7655 -0.2367
 3110SOL     OW13245   2.575   3.620   3.576  0.4446 -0.2443 -0.6840
 3110SOL    HW113246   2.495   3.671   3.563 -0.2767 -0.9137  0.9443
 3110SOL    HW213247   2.623   3.667   3.644 -0.5697 -2.0031  1.3875
 3111SOL     OW13248   6.897   4.793   8.466  0.6829  0.3680  0.1884
 3111SOL    HW113249   6.827   4.825   8.523  0.6968 -1.6937  1.4852
 3111SOL    HW213250   6.940   4.871   8.434 -1.1254  1.6602  0.7396
 3112SOL     OW13251   6.391   9.207   2.876  0.1850  0.1427 -0.1470
 3112SOL    HW113252   6.391   9.191   2.970  1.0512  1.2050  0.0587
 3112SOL    HW213253   6.310   9.257   2.860  0.8962  1.5157  0.3567
 3113SOL     OW13254   1.363   3.572   0.093 -0.2461 -0.0399 -0.6910
 3113SOL    HW113255   1.378   3.614   0.177 -0.1606  0.6224 -1.0337
 3113SOL    HW213256   1.451   3.564   0.054 -0.2621 -0.5242 -0.6322
 3114SOL     OW13257   7.233   3.343   8.205 -0.5632 -0.4805  0.2347
 3114SOL    HW113258   7.231   3.339   8.300 -0.1253 -0.5407  0.2409
 3114SOL    HW213259   7.317   3.305   8.180 -0.8305 -0.7970 -0.1923
 3115SOL     OW13260   6.982   1.930   2.648 -0.2933  0.1582  0.2000
 3115SOL    HW113261   7.037   1.898   2.720 -0.3463 -3.0030 -1.0196
 3115SOL    HW213262   6.893   1.921   2.680 -0.3262 -1.4477 -0.2694
 3116SOL     OW13263   1.138   7.956   3.804  0.6263  0.3317 -0.0675
 3116SOL    HW113264   1.130   7.876   3.857 -0.5370  0.4506 -0.0553
 3116SOL    HW213265   1.111   8.026   3.862  0.8913  0.6538 -0.3292
 3117SOL     OW13266  10.053   6.764   4.209  0.3557 -0.0488 -0.7325
 3117SOL    HW113267  10.079   6.823   4.138  0.5712  1.5968  0.6513
 3117SOL    HW213268  10.090   6.679   4.185  0.8503  0.5944 -2.3279
 3118SOL     OW13269   8.575   1.567   0.521  0.3637 -0.2005 -0.3719
 3118SOL    HW113270   8.494   1.589   0.566 -0.0102 -1.0349 -0.6022
 3118SOL    HW213271   8.623   1.649   0.515 -0.1516  0.1639  0.3938
 3119SOL     OW13272   9.711   1.674   4.662  0.3444 -1.3806 -0.3175
 3119SOL    HW113273   9.754   1.660   4.577  0.2549 -0.2965 -0.5538
 3119SOL    HW213274   9.718   1.589   4.706 -0.3374 -2.2192 -1.7364
 3120SOL     OW13275   6.657   6.656   5.887  0.3284 -0.0352 -0.2474
 3120SOL    HW113276   6.575   6.679   5.931  1.5504 -2.7390  4.0460
 3120SOL    HW213277   6.706   6.739   5.884 -1.3766  1.0323 -0.2587
 3121SOL     OW13278   1.893   4.653   3.747 -0.0393 -0.2740 -0.8136
 3121SOL    HW113279   1.951   4.593   3.701  0.6404 -0.6430  0.4843
 3121SOL    HW213280   1.926   4.654   3.837 -1.0702  0.7492 -0.4269
 3122SOL     OW13281   6.766   4.736   0.919  0.8732  0.4151 -0.1283
 3122SOL    HW113282   6.795   4.723   1.010  1.3180  1.5461 -0.0895
 3122SOL    HW213283   6.679   4.776   0.928 -0.3331 -1.9672 -0.2430
 3123SOL     OW13284   2.290   8.695   2.934 -0.7271  0.4968 -0.4686
 3123SOL    HW113285   2.206   8.708   2.888 -1.2870 -1.0290  0.0637
 3123SOL    HW213286   2.267   8.696   3.027  0.1190  1.6863 -0.2459
 3124SOL     OW13287   4.993   1.829   3.512 -0.6214  0.4472 -0.0640
 3124SOL    HW113288   5.052   1.887   3.463  0.8859  1.3732  2.6408
 3124SOL    HW213289   5.044   1.801   3.588 -2.4392 -1.8540  0.4152
 3125SOL     OW13290   1.141   6.083   5.592  0.5915  0.3143 -0.6214
 3125SOL    HW113291   1.232   6.075   5.563  0.9956  0.5751  0.5189
 3125SOL    HW213292   1.122   6.000   5.636  0.1709  0.1428 -1.1087
 3126SOL     OW13293   2.616   8.036   2.286  1.0580 -0.0846  0.0222
 3126SOL    HW113294   2.527   8.031   2.320  1.4314  0.9542  1.2670
 3126SOL    HW213295   2.663   7.965   2.331  0.8917 -0.5849 -0.5781
 3127SOL     OW13296   7.941   3.993   6.909  0.5045 -0.4426 -0.1912
 3127SOL    HW113297   7.934   3.958   6.998 -0.7925 -4.1310 -1.5483
 3127SOL    HW213298   7.850   4.004   6.880  0.7759 -2.1435 -1.9446
 3128SOL     OW13299   6.296   0.431   8.422  0.7072  0.1811 -0.6311
 3128SOL    HW113300   6.371   0.489   8.411  0.7125  0.7749  1.8902
 3128SOL    HW213301   6.230   0.485   8.464  0.3086 -1.3187  0.7737
 3129SOL     OW13302   0.228   2.184   2.394 -0.7721  0.5922 -0.4710
 3129SOL    HW113303   0.205   2.163   2.304 -0.9619  0.6658 -0.4406
 3129SOL    HW213304   0.163   2.139   2.447  0.5849 -1.2082 -0.2617
 3130SOL     OW13305   7.188   7.206   7.420 -0.1260  0.0112 -0.1146
 3130SOL    HW113306   7.143   7.289   7.430 -0.2558 -0.0008 -0.5668
 3130SOL    HW213307   7.281   7.227   7.431 -0.2120  0.0862  0.5091
 3131SOL     OW13308   8.886   5.243   6.831 -0.2235 -0.3358  0.0404
 3131SOL    HW113309   8.930   5.287   6.903 -1.8851 -0.6086  1.2737
 3131SOL    HW213310   8.955   5.193   6.787  1.1996  1.4091  0.1752
 3132SOL     OW13311   7.491   9.628   0.978 -0.1709  0.2370 -0.4790
 3132SOL    HW113312   7.557   9.641   1.046  0.1184 -0.7577 -0.5614
 3132SOL    HW213313   7.522   9.679   0.904 -0.0720  0.6672 -0.1469
 3133SOL     OW13314   9.723   7.191   1.210 -0.0158  0.2905  0.4672
 3133SOL    HW113315   9.767   7.260   1.261 -0.0337  0.8617 -0.2742
 3133SOL    HW213316   9.644   7.234   1.176  0.0107 -0.0727 -0.0604
 3134SOL     OW13317   6.314   6.104   0.893  0.3637  0.2612  0.0327
 3134SOL    HW113318   6.249   6.163   0.930 -1.0068 -0.8856 -0.4322
 3134SOL    HW213319   6.263   6.030   0.859  2.0258 -1.4144  0.9807
 3135SOL     OW13320   4.864   1.494   7.936 -0.9053 -0.1766 -0.2256
 3135SOL    HW113321   4.860   1.536   8.021  0.3050  1.0132 -0.7356
 3135SOL    HW213322   4.928   1.544   7.886 -1.8760 -0.5821 -1.9927
 3136SOL     OW13323   3.866   9.042   6.490 -0.4086 -0.1039  0.7284
 3136SOL    HW113324   3.905   8.957   6.468 -0.4382  0.3344 -1.1875
 3136SOL    HW213325   3.938   9.093   6.526  0.1082 -0.2613 -0.0664
 3137SOL     OW13326   2.915   2.266   3.833  0.6819 -0.0988  0.1112
 3137SOL    HW113327   2.923   2.360   3.851  2.2980 -0.1345 -0.2217
 3137SOL    HW213328   2.856   2.260   3.758  2.1687  0.8284 -1.1916
 3138SOL     OW13329   6.811   7.847   6.626 -0.9865 -0.0558  0.0908
 3138SOL    HW113330   6.811   7.783   6.555  0.0525 -2.0558  1.7904
 3138SOL    HW213331   6.884   7.820   6.682 -1.7422  1.4740  1.8849
 3139SOL     OW13332  10.173   5.555   4.886  0.0324 -0.2560 -0.3209
 3139SOL    HW113333  10.208   5.467   4.889  0.1965 -0.1845 -0.1576
 3139SOL    HW213334  10.148   5.575   4.976  0.2434 -0.0354 -0.3086
 3140SOL     OW13335   8.694   8.052   6.913  0.8056  0.0929  0.4321
 3140SOL    HW113336   8.781   8.017   6.934  0.6890  0.0340  0.8209
 3140SOL    HW213337   8.668   8.101   6.991  1.4027  1.9263 -0.4608
 3141SOL     OW13338   9.770   8.408   5.582 -0.1299  0.5697  0.4375
 3141SOL    HW113339   9.776   8.448   5.668 -0.9243  1.7732 -0.0331
 3141SOL    HW213340   9.760   8.482   5.522 -0.7439 -0.2946 -0.5593
 3142SOL     OW13341   4.524   8.133   1.467 -0.1932  0.2348  0.2173
 3142SOL    HW113342   4.509   8.090   1.551  1.2116 -1.3918 -0.3050
 3142SOL    HW213343   4.614   8.165   1.472 -0.0598  0.0304 -0.7001
 3143SOL     OW13344  10.065   4.008   2.394 -0.2004  0.0970 -0.0227
 3143SOL    HW113345   9.998   3.955   2.438 -1.0401  1.0693 -0.0867
 3143SOL    HW213346  10.121   3.944   2.349 -1.5922 -0.6959 -0.6868
 3144SOL     OW13347   5.211   6.833   9.181  0.0143 -0.1458 -0.5798
 3144SOL    HW113348   5.239   6.784   9.258  0.8863  0.8613 -0.2337
 3144SOL    HW213349   5.122   6.863   9.202  0.0839 -0.2467 -0.1524
 3145SOL     OW13350   0.605   2.942   7.502 -0.2489  0.3482  0.0419
 3145SOL    HW113351   0.687   2.895   7.518 -0.2940  0.7001  1.3575
 3145SOL    HW213352   0.632   3.033   7.487 -0.2409  0.1091 -1.6297
 3146SOL     OW13353   5.329   2.795   3.410  0.2789 -0.2720  0.1641
 3146SOL    HW113354   5.246   2.833   3.441  1.1362  1.4628  0.4484
 3146SOL    HW213355   5.327   2.809   3.316  0.4521  0.2467  0.2302
 3147SOL     OW13356   3.511   3.483   2.070  0.0753 -0.8304  0.5369
 3147SOL    HW113357   3.442   3.419   2.053 -1.1052  0.4989  0.1612
 3147SOL    HW213358   3.466   3.567   2.073  1.7931  0.2002 -0.6621
 3148SOL     OW13359   4.504   2.096   8.745 -0.7093 -0.1917  0.1293
 3148SOL    HW113360   4.518   2.129   8.834  0.1429 -3.4267  1.3489
 3148SOL    HW213361   4.591   2.099   8.705 -0.6586 -0.7086  0.1929
 3149SOL     OW13362   3.897   0.547   5.239  0.3010  0.2272 -0.0514
 3149SOL    HW113363   3.812   0.560   5.197  0.5573  0.4998 -0.4975
 3149SOL    HW213364   3.952   0.507   5.171  0.4909 -0.0756  0.2754
 3150SOL     OW13365   3.062   0.446   3.797 -0.2251  0.0494  0.1627
 3150SOL    HW113366   3.032   0.453   3.888 -0.2307  2.1616  0.0413
 3150SOL    HW213367   3.021   0.366   3.765 -0.1061 -0.8306  2.0473
 3151SOL     OW13368   4.710   8.660   9.932 -0.4509  0.3503 -0.2008
 3151SOL    HW113369   4.702   8.676  10.026 -2.0060 -1.5023  0.0519
 3151SOL    HW213370   4.744   8.742   9.896  0.8922  0.8651  2.0439
 3152SOL     OW13371   6.873   1.380   2.627 -0.3531 -0.4076  0.1493
 3152SOL    HW113372   6.847   1.288   2.620 -0.8389 -0.3868  1.3292
 3152SOL    HW213373   6.914   1.400   2.543 -2.8540 -0.8668 -1.3061
 3153SOL     OW13374   2.618   4.294   7.710 -0.4373 -0.2537 -0.2171
 3153SOL    HW113375   2.620   4.389   7.717  0.1314 -0.3255  0.7241
 3153SOL    HW213376   2.525   4.272   7.702 -0.6231  0.3330  0.3108
 3154SOL     OW13377   6.922   8.731   6.696  0.0688 -0.1567 -0.3961
 3154SOL    HW113378   6.945   8.797   6.630  1.5982  0.2006  0.4471
 3154SOL    HW213379   6.975   8.754   6.773 -0.4622 -1.5114  0.4155
 3155SOL     OW13380   7.350   3.545   1.512  0.6183  0.1429 -0.0546
 3155SOL    HW113381   7.394   3.628   1.533 -0.5875  0.8120 -0.0833
 3155SOL    HW213382   7.311   3.560   1.426 -0.8950  0.0989  0.5982
 3156SOL     OW13383   8.050   4.058   1.565 -0.8039  0.7069  0.1542
 3156SOL    HW113384   8.129   4.081   1.516 -0.8801  1.1201  0.2172
 3156SOL    HW213385   8.017   4.142   1.596  0.2942  0.3555  2.5391
 3157SOL     OW13386   2.371   7.570   8.707 -0.0782  0.5957  0.1659
 3157SOL    HW113387   2.453   7.553   8.661 -0.3750  0.0492 -0.1657
 3157SOL    HW213388   2.397   7.577   8.799  0.4450  1.1872 -0.0190
 3158SOL     OW13389   5.226   5.328   1.693  0.6632  0.0789  0.0756
 3158SOL    HW113390   5.285   5.395   1.728  0.0707  1.8382 -2.0672
 3158SOL    HW213391   5.141   5.348   1.731  1.0001 -1.2682  1.6442
 3159SOL     OW13392   0.796   6.672   9.366 -0.0759  0.7181  0.0641
 3159SOL    HW113393   0.884   6.684   9.402  0.1475  1.6444 -0.7429
 3159SOL    HW213394   0.810   6.663   9.272 -0.9682  2.5698 -0.2779
 3160SOL     OW13395  10.029   2.657   4.915 -0.5073  0.5452 -0.1259
 3160SOL    HW113396   9.948   2.681   4.959 -0.8101 -1.4061  0.4769
 3160SOL    HW213397  10.010   2.571   4.877  0.9842  0.4888 -0.7910
 3161SOL     OW13398   3.772   3.438   3.435  0.1858  0.1065  0.6539
 3161SOL    HW113399   3.828   3.461   3.361 -1.8926 -0.7610 -1.2879
 3161SOL    HW213400   3.707   3.508   3.438 -1.3973 -1.2618 -0.1832
 3162SOL     OW13401   5.571   0.434   3.879 -0.1452  0.1455  0.2303
 3162SOL    HW113402   5.539   0.503   3.821  1.1163 -0.0265 -0.7172
 3162SOL    HW213403   5.658   0.464   3.906 -0.0844 -0.5090  0.7721
 3163SOL     OW13404   8.131   3.091   6.504 -0.1508 -0.1869 -0.4357
 3163SOL    HW113405   8.187   3.164   6.478 -0.8618  0.6163  0.2248
 3163SOL    HW213406   8.100   3.054   6.420 -0.6032  0.9259 -0.7727
 3164SOL     OW13407   5.830   9.334   9.239  0.0831 -0.3254  0.2599
 3164SOL    HW113408   5.920   9.317   9.266  0.5417  1.3309 -0.0975
 3164SOL    HW213409   5.831   9.424   9.206 -1.6788 -0.3055  0.1361
 3165SOL     OW13410   8.330   3.309   3.141 -0.0114  0.3177  0.4214
 3165SOL    HW113411   8.387   3.266   3.205  1.4417  0.8720 -0.4515
 3165SOL    HW213412   8.332   3.402   3.164 -0.7785  0.3160  0.5321
 3166SOL     OW13413   0.139   7.340   2.682 -0.0786 -0.5319  0.1503
 3166SOL    HW113414   0.108   7.427   2.654 -0.9315 -1.2772 -1.3342
 3166SOL    HW213415   0.206   7.359   2.748 -1.8375  1.2001  1.5711
 3167SOL     OW13416   1.467   5.661   2.581 -0.0093  0.0593 -0.2824
 3167SOL    HW113417   1.502   5.737   2.628 -0.4055  0.0115  0.0997
 3167SOL    HW213418   1.395   5.631   2.636  0.6591 -1.0922 -0.0085
 3168SOL     OW13419   2.101   4.091   5.323  0.0968  0.2492  0.5452
 3168SOL    HW113420   2.079   4.176   5.285  0.5924 -0.1427 -0.6706
 3168SOL    HW213421   2.185   4.068   5.283 -1.1207 -1.8750 -0.9492
 3169SOL     OW13422   3.746   9.950   0.427 -0.1351 -0.0416  0.0001
 3169SOL    HW113423   3.661   9.973   0.466 -1.0685 -0.6950 -1.5361
 3169SOL    HW213424   3.753  10.007   0.351  1.5430  1.0456  0.9108
 3170SOL     OW13425   8.142   2.352   4.442  0.0882  0.3080  0.0623
 3170SOL    HW113426   8.212   2.310   4.492 -1.9440 -2.7236  0.6435
 3170SOL    HW213427   8.136   2.300   4.362 -1.3677  0.6283 -0.0568
 3171SOL     OW13428   0.304   3.390   1.864  0.3909  0.4311  0.2981
 3171SOL    HW113429   0.252   3.468   1.883 -0.3296  0.2476 -0.8105
 3171SOL    HW213430   0.258   3.319   1.908  0.1757  0.4079  0.0434
 3172SOL     OW13431   6.849   2.128   3.154  0.0066  0.2976  0.1470
 3172SOL    HW113432   6.902   2.158   3.228  0.0407  0.7658 -0.0598
 3172SOL    HW213433   6.884   2.176   3.079  1.6049 -1.9435 -0.6577
 3173SOL     OW13434   2.832   2.821   7.079  0.3605  0.0737 -0.2379
 3173SOL    HW113435   2.892   2.858   7.144  1.0311  0.6063 -1.1405
 3173SOL    HW213436   2.814   2.733   7.111  1.5826 -0.0812  0.0944
 3174SOL     OW13437   3.873   1.139   5.491 -0.5690  0.2554 -0.0309
 3174SOL    HW113438   3.853   1.058   5.538 -1.6327  0.8715  0.6213
 3174SOL    HW213439   3.952   1.119   5.441  0.5646 -0.4763  1.9181
 3175SOL     OW13440   1.595   7.859   2.834 -0.4617  0.3427  0.6183
 3175SOL    HW113441   1.547   7.942   2.839 -0.1083  0.5283  0.9190
 3175SOL    HW213442   1.669   7.877   2.776  0.8831  0.8770  2.4154
 3176SOL     OW13443   3.653   0.084   1.343  0.0975  0.0700  0.1277
 3176SOL    HW113444   3.624   0.010   1.290  1.4582 -0.8980  0.6816
 3176SOL    HW213445   3.575   0.139   1.352 -1.4099 -2.1011  1.0849
 3177SOL     OW13446   4.747   6.213   4.351 -0.1749 -0.3062  0.4134
 3177SOL    HW113447   4.666   6.165   4.367 -0.2200 -0.5812 -0.5782
 3177SOL    HW213448   4.723   6.282   4.289  0.4125 -0.6084 -0.1639
 3178SOL     OW13449   6.237   2.460   1.207  0.0040  0.2655 -0.2261
 3178SOL    HW113450   6.322   2.494   1.236 -0.5163  0.4253  1.1875
 3178SOL    HW213451   6.242   2.462   1.112  1.4925  0.5137 -0.1693
 3179SOL     OW13452   6.663   3.797   1.718 -0.4123 -0.3952 -0.3220
 3179SOL    HW113453   6.645   3.713   1.677  0.8210 -0.7619 -0.1423
 3179SOL    HW213454   6.691   3.854   1.646  1.0664 -0.8366 -0.1189
 3180SOL     OW13455   1.645   2.770   6.183  0.0244 -0.1493 -0.8007
 3180SOL    HW113456   1.714   2.705   6.164  0.2878  0.1884 -1.0057
 3180SOL    HW213457   1.606   2.787   6.097 -0.3970 -0.4337 -0.6639
 3181SOL     OW13458   7.768   3.705   1.578 -0.0672  0.3813  0.1891
 3181SOL    HW113459   7.840   3.763   1.604 -0.6247  0.4657  1.6403
 3181SOL    HW213460   7.809   3.642   1.517  1.2682  0.3709  1.0455
 3182SOL     OW13461   2.018   6.250   5.821 -0.3331  0.7662  0.0709
 3182SOL    HW113462   2.064   6.331   5.845  0.5928  0.7477 -1.5420
 3182SOL    HW213463   2.032   6.241   5.727 -1.0688 -0.8800  0.0894
 3183SOL     OW13464   3.558   0.127   7.510  0.3340 -0.3067  0.2401
 3183SOL    HW113465   3.641   0.081   7.521 -0.0011 -1.0407 -0.1745
 3183SOL    HW213466   3.512   0.076   7.443  0.2583  1.0804 -0.7848
 3184SOL     OW13467   8.467   6.435   3.797 -0.6588 -0.1780  0.3134
 3184SOL    HW113468   8.500   6.524   3.787 -0.9902 -0.1987 -1.1269
 3184SOL    HW213469   8.379   6.437   3.760  0.3770 -1.7322 -2.5551
 3185SOL     OW13470   0.331   1.271   0.445  0.6288 -0.3061 -0.5209
 3185SOL    HW113471   0.422   1.274   0.415  1.0002  1.8971  0.6123
 3185SOL    HW213472   0.321   1.351   0.497 -2.0496 -0.3598 -0.8447
 3186SOL     OW13473   7.120   5.567   9.675  0.5630  0.0704 -0.8682
 3186SOL    HW113474   7.167   5.635   9.722  1.2107 -0.5665 -0.5726
 3186SOL    HW213475   7.041   5.553   9.727  2.1443 -1.9713  1.2182
 3187SOL     OW13476   0.561   7.531   1.405  0.0108  0.8640  0.5133
 3187SOL    HW113477   0.568   7.619   1.441  0.2164  0.5467  1.2835
 3187SOL    HW213478   0.643   7.518   1.357 -0.6463  1.6169 -0.8582
 3188SOL     OW13479   6.226   4.013   9.745  0.4787  0.1075  0.4045
 3188SOL    HW113480   6.295   4.030   9.809 -0.5962 -2.0192  2.2487
 3188SOL    HW213481   6.270   4.022   9.660  2.6620  0.2517  1.4770
 3189SOL     OW13482   9.547   9.098   6.094 -0.2825 -0.1771 -0.2853
 3189SOL    HW113483   9.527   9.183   6.133  1.1839 -0.5256  1.3757
 3189SOL    HW213484   9.623   9.115   6.038  1.6084 -0.7332  1.9492
 3190SOL     OW13485   7.751   9.704   7.781  0.1952 -0.0037  0.1014
 3190SOL    HW113486   7.726   9.613   7.797 -0.2002  0.0077 -0.4477
 3190SOL    HW213487   7.793   9.731   7.863  0.6885 -0.8024  0.1270
 3191SOL     OW13488   6.632   7.324   1.063  0.2445  0.2838 -0.1151
 3191SOL    HW113489   6.665   7.403   1.020  0.4477  0.1903 -0.1331
 3191SOL    HW213490   6.539   7.342   1.078  0.7869  1.5454  2.1483
 3192SOL     OW13491   8.861   4.531   4.539 -0.0777 -0.0899  0.0919
 3192SOL    HW113492   8.919   4.466   4.499  0.8122 -0.6892  2.2214
 3192SOL    HW213493   8.784   4.533   4.481  1.8580  0.5062 -2.6535
 3193SOL     OW13494   5.810   4.046  10.127 -0.1012 -0.0067 -0.1066
 3193SOL    HW113495   5.890   4.098  10.122 -0.0923  0.1293  1.0244
 3193SOL    HW213496   5.739   4.110  10.124 -0.0690  0.2833  2.6664
 3194SOL     OW13497   9.123   4.732   1.582 -0.3463 -0.0691 -0.0733
 3194SOL    HW113498   9.050   4.772   1.535 -1.1718  0.9321  1.9011
 3194SOL    HW213499   9.186   4.707   1.515 -0.6199  2.8968 -1.5642
 3195SOL     OW13500   0.583   5.178   5.771 -0.4104 -0.1882  0.0452
 3195SOL    HW113501   0.620   5.189   5.683 -0.5902  0.1910  0.0119
 3195SOL    HW213502   0.649   5.214   5.830 -0.2607 -0.5046  0.0708
 3196SOL     OW13503   8.915   2.341   6.063  0.2582 -0.0194 -0.4928
 3196SOL    HW113504   8.961   2.278   6.007  1.8689  0.9583 -0.3341
 3196SOL    HW213505   8.970   2.419   6.061 -2.8215  2.3703 -2.6709
 3197SOL     OW13506   0.069   1.412   3.571  0.3397  0.3926  0.8204
 3197SOL    HW113507   0.046   1.505   3.567 -0.0389  0.3753  2.1459
 3197SOL    HW213508   0.121   1.404   3.651 -1.4130 -0.8990  1.8938
 3198SOL     OW13509   3.657   8.204   6.193 -0.1147 -0.0988 -0.2465
 3198SOL    HW113510   3.741   8.182   6.233  0.8144  2.4318 -0.5991
 3198SOL    HW213511   3.619   8.269   6.252 -1.3508 -0.4287 -0.6523
 3199SOL     OW13512   5.809   6.854   7.097 -0.2145  0.4989  0.2088
 3199SOL    HW113513   5.863   6.792   7.145  0.4864 -0.1679 -1.3622
 3199SOL    HW213514   5.756   6.800   7.039  0.4852  1.3333 -1.2730
 3200SOL     OW13515  10.138   8.185   0.807  0.9196  0.0297  0.2130
 3200SOL    HW113516  10.132   8.132   0.728 -1.3203  1.2652 -0.5339
 3200SOL    HW213517  10.088   8.135   0.873  1.3856 -0.2179  0.3809
 3201SOL     OW13518   1.622   2.887   7.109 -0.1448  0.3512 -0.6832
 3201SOL    HW113519   1.629   2.942   7.187 -0.3401  0.2324 -0.5815
 3201SOL    HW213520   1.684   2.926   7.047 -0.9906  1.2925 -0.9672
 3202SOL     OW13521   6.997   4.279   6.072 -0.2000  0.0229 -0.2838
 3202SOL    HW113522   7.076   4.304   6.024  0.1269 -1.3417 -0.4929
 3202SOL    HW213523   7.022   4.200   6.120 -1.0746  0.2939  0.6600
 3203SOL     OW13524   0.281   9.146   8.763 -0.1191  0.4965 -0.2236
 3203SOL    HW113525   0.246   9.137   8.852  0.4271 -2.3315 -0.1925
 3203SOL    HW213526   0.364   9.193   8.775 -0.8473  1.6709  0.4903
 3204SOL     OW13527   8.907   6.865   1.419  0.3556  0.5323  0.6368
 3204SOL    HW113528   8.842   6.923   1.459 -0.1004 -0.1034  0.8451
 3204SOL    HW213529   8.965   6.923   1.370  0.6256  1.2733  1.8067
 3205SOL     OW13530   8.926   1.743   6.335  0.4926 -0.8226 -0.6858
 3205SOL    HW113531   8.849   1.686   6.335  1.3178 -1.9900 -1.7811
 3205SOL    HW213532   8.984   1.705   6.400  0.2621 -0.0658 -0.0153
 3206SOL     OW13533   3.537   5.507   8.867  0.7946 -0.1426  0.0122
 3206SOL    HW113534   3.555   5.413   8.861 -1.3583 -0.5671 -0.9780
 3206SOL    HW213535   3.503   5.519   8.955  1.9390 -0.1055  0.4569
 3207SOL     OW13536   5.805   8.463   6.430 -0.3400  0.0389  0.2949
 3207SOL    HW113537   5.830   8.429   6.515 -1.3922 -1.0350  0.2042
 3207SOL    HW213538   5.883   8.509   6.398  0.4483 -0.5503  1.3172
 3208SOL     OW13539   5.225   1.062   6.904  0.4592 -0.4801  0.2887
 3208SOL    HW113540   5.135   1.082   6.880  0.6994  0.6839  0.2784
 3208SOL    HW213541   5.257   1.004   6.836 -0.1609 -0.5690  0.0740
 3209SOL     OW13542   8.519   8.845   3.791 -0.1308  0.3212  0.1478
 3209SOL    HW113543   8.480   8.920   3.836 -0.0058  0.8034 -0.5366
 3209SOL    HW213544   8.585   8.812   3.852 -0.7860  0.2255  0.8187
 3210SOL     OW13545   7.160   0.452   8.274  0.5131 -0.1861  0.6780
 3210SOL    HW113546   7.228   0.385   8.267  1.2317  0.5584  0.3546
 3210SOL    HW213547   7.134   0.470   8.184  1.8896  1.5139  0.5743
 3211SOL     OW13548   9.287   2.241   1.023 -0.4535 -0.2365 -0.5028
 3211SOL    HW113549   9.223   2.307   1.049 -0.5479  0.2507 -1.8775
 3211SOL    HW213550   9.372   2.285   1.033 -0.5207  0.1429 -1.4910
 3212SOL     OW13551   3.201   9.581   7.472 -0.1299 -0.2396  0.1125
 3212SOL    HW113552   3.275   9.629   7.509  0.0715 -0.2511 -0.2609
 3212SOL    HW213553   3.209   9.596   7.377 -1.6468  1.2391  0.1837
 3213SOL     OW13554   8.162   5.424   9.261 -0.5344  0.2311  0.0130
 3213SOL    HW113555   8.243   5.372   9.257 -0.7900 -0.1053 -1.8506
 3213SOL    HW213556   8.187   5.505   9.305  0.9298  0.2823 -0.8438
 3214SOL     OW13557   9.057   8.608   0.790  0.6290  0.1719 -0.3347
 3214SOL    HW113558   8.993   8.671   0.823  1.6457  1.1296 -0.1348
 3214SOL    HW213559   9.070   8.633   0.699 -1.8920 -2.2356 -1.4886
 3215SOL     OW13560   7.351   6.869   2.541  0.5137 -0.0449 -0.2172
 3215SOL    HW113561   7.387   6.942   2.591  2.4903  0.8583 -2.7649
 3215SOL    HW213562   7.392   6.791   2.580  1.2467  0.5337  0.1848
 3216SOL     OW13563   1.992   4.541   0.642 -0.0324 -0.4173 -0.2463
 3216SOL    HW113564   2.070   4.591   0.663 -0.8482  0.8846 -0.1774
 3216SOL    HW213565   1.967   4.499   0.724  1.1492 -1.6987 -0.5054
 3217SOL     OW13566   4.373   8.366   9.109 -0.1899 -0.1807  0.1552
 3217SOL    HW113567   4.359   8.275   9.135 -0.3301 -0.1041  0.3554
 3217SOL    HW213568   4.341   8.417   9.184 -2.7959  0.1292 -1.0347
 3218SOL     OW13569   9.427   1.840   1.047  0.0563  0.0156  0.0280
 3218SOL    HW113570   9.358   1.856   1.111 -0.3234 -0.2813 -0.3008
 3218SOL    HW213571   9.381   1.818   0.966  0.4140 -3.8844  0.6625
 3219SOL     OW13572   2.843   4.141   9.804 -0.6763  0.2736 -0.0582
 3219SOL    HW113573   2.922   4.099   9.769 -1.0920 -0.1660 -0.4862
 3219SOL    HW213574   2.813   4.082   9.872 -1.0185  0.0911 -0.3644
 3220SOL     OW13575   1.298   0.457   4.140 -0.4540  0.0963  0.3583
 3220SOL    HW113576   1.280   0.439   4.047 -0.2652  0.2843  0.2839
 3220SOL    HW213577   1.220   0.426   4.186 -0.4704 -0.1674  0.1545
 3221SOL     OW13578   6.574   8.071   4.295  0.4493 -0.3025  0.0325
 3221SOL    HW113579   6.491   8.057   4.340  0.1714  0.0453 -0.3621
 3221SOL    HW213580   6.617   7.986   4.296  0.3361 -0.3546  0.7365
 3222SOL     OW13581   9.913   4.370   1.409  0.4045  0.2436  0.1695
 3222SOL    HW113582   9.917   4.419   1.491 -2.3873  2.0581 -0.6189
 3222SOL    HW213583   9.947   4.431   1.343 -1.4127  0.5391 -0.5618
 3223SOL     OW13584   6.410   2.156   7.172  0.3649 -0.3743 -0.2699
 3223SOL    HW113585   6.408   2.066   7.203  0.1284  0.2017  1.5414
 3223SOL    HW213586   6.470   2.155   7.098  0.8263 -1.9017  0.0914
 3224SOL     OW13587   2.016   3.383   5.895  0.2999 -0.4122  0.4994
 3224SOL    HW113588   1.977   3.381   5.983  0.6131 -0.5883  0.6383
 3224SOL    HW213589   2.067   3.464   5.893  0.2837 -0.4025  0.4751
 3225SOL     OW13590   6.065   6.546   4.375 -0.3309 -0.0655 -0.0025
 3225SOL    HW113591   6.029   6.465   4.411  0.1399 -0.6210 -0.7645
 3225SOL    HW213592   6.138   6.568   4.432  0.5919 -1.0978 -0.7318
 3226SOL     OW13593   3.644   0.283   2.924 -0.5040 -0.3832 -0.1513
 3226SOL    HW113594   3.665   0.340   2.850  0.7847 -0.6357  0.0009
 3226SOL    HW213595   3.562   0.241   2.900 -1.2040  1.1190 -0.5020
 3227SOL     OW13596   9.417   8.772   0.098  0.1700 -0.2298 -0.5578
 3227SOL    HW113597   9.383   8.683   0.098  1.0440 -0.6486  1.9042
 3227SOL    HW213598   9.498   8.767   0.048  0.7055 -1.0721  0.3561
 3228SOL     OW13599   9.938   4.088   0.699  0.3517 -0.5909  0.2759
 3228SOL    HW113600   9.896   4.136   0.770 -0.6543 -0.3373 -0.4694
 3228SOL    HW213601   9.870   4.079   0.632  1.0176 -1.5757 -0.3068
 3229SOL     OW13602   9.177   7.787   2.425  0.1088 -0.6728 -0.2839
 3229SOL    HW113603   9.114   7.798   2.353  1.6618 -0.2027 -1.6595
 3229SOL    HW213604   9.144   7.844   2.495 -0.9968 -0.4605 -0.9530
 3230SOL     OW13605   8.418   8.499   8.750 -0.1195 -0.2481 -0.0986
 3230SOL    HW113606   8.355   8.429   8.736  0.4047 -0.6281 -0.6266
 3230SOL    HW213607   8.463   8.507   8.666  0.5458 -0.0076  0.2758
 3231SOL     OW13608   1.204   1.633   5.915  0.2247 -0.0898 -0.1138
 3231SOL    HW113609   1.268   1.563   5.925  0.7011  0.4994  1.1973
 3231SOL    HW213610   1.159   1.638   5.999  0.4919  1.4414 -0.0245
 3232SOL     OW13611   5.527   6.983   9.428 -0.0892 -0.1965 -0.0944
 3232SOL    HW113612   5.614   6.968   9.464  0.2276 -1.3743 -1.2904
 3232SOL    HW213613   5.505   6.901   9.383 -1.8584  0.0471  0.2734
 3233SOL     OW13614   4.841   9.563   1.266  0.2863  0.3005  0.1113
 3233SOL    HW113615   4.804   9.480   1.238  0.9406 -0.1575  0.5660
 3233SOL    HW213616   4.880   9.600   1.187  0.1103  0.1148 -0.0640
 3234SOL     OW13617   7.215   0.139   7.617  0.5850  0.6990 -0.3422
 3234SOL    HW113618   7.160   0.208   7.578 -1.6628 -0.0287  1.3004
 3234SOL    HW213619   7.284   0.186   7.662  0.2908  1.7786 -0.9757
 3235SOL     OW13620   3.230   5.944   4.017 -0.6160  0.1949  0.4068
 3235SOL    HW113621   3.306   5.993   3.988 -0.5852  0.5987  1.1406
 3235SOL    HW213622   3.189   5.912   3.937  0.4051 -0.1535  0.0140
 3236SOL     OW13623   7.601   0.649   4.342 -0.1602 -0.0572  0.1218
 3236SOL    HW113624   7.576   0.639   4.433  0.5284  1.1227  0.4700
 3236SOL    HW213625   7.682   0.701   4.345 -0.4539  0.5214 -1.1790
 3237SOL     OW13626   9.975   7.023   5.164 -0.2295 -0.7317 -0.1330
 3237SOL    HW113627  10.066   7.004   5.187  0.3886 -1.5918 -2.8495
 3237SOL    HW213628   9.974   7.118   5.148  0.2111 -0.7169 -0.0769
 3238SOL     OW13629   0.575   6.826   2.662 -0.1612 -0.1573 -0.3862
 3238SOL    HW113630   0.611   6.740   2.684  0.1960 -0.2263 -1.2380
 3238SOL    HW213631   0.652   6.884   2.658 -0.5772  0.9678  3.2936
 3239SOL     OW13632   1.625   2.370   8.219 -0.1349 -0.0646 -0.2837
 3239SOL    HW113633   1.610   2.412   8.134  0.1564  0.2283 -0.1908
 3239SOL    HW213634   1.650   2.442   8.278 -0.9547 -0.1710  0.2110
 3240SOL     OW13635   7.863   3.929  10.142  0.1746  0.3262  0.3945
 3240SOL    HW113636   7.827   3.923  10.054 -0.0663  1.0022  0.4412
 3240SOL    HW213637   7.915   3.849  10.152 -2.3605 -1.3917  0.8211
 3241SOL     OW13638   4.352   8.087   9.108  0.4734 -0.9855 -0.1594
 3241SOL    HW113639   4.412   8.021   9.072 -0.0509 -0.8018 -1.4182
 3241SOL    HW213640   4.351   8.070   9.202  0.3954 -2.7462 -0.4509
 3242SOL     OW13641   9.649   7.281   4.320 -0.1029  0.4075 -0.7229
 3242SOL    HW113642   9.670   7.328   4.239  0.1633 -0.6203 -1.2698
 3242SOL    HW213643   9.570   7.231   4.298  1.0199 -1.3305 -0.9604
 3243SOL     OW13644   2.910   3.220   3.742  0.3457  0.2360  0.2541
 3243SOL    HW113645   2.970   3.240   3.670  0.4027  0.9123  0.4790
 3243SOL    HW213646   2.920   3.294   3.802  1.6892 -1.2112  1.9051
 3244SOL     OW13647   8.863   0.492   5.844  0.4468  0.4433 -0.5133
 3244SOL    HW113648   8.783   0.443   5.861 -0.1540  1.8402  0.8587
 3244SOL    HW213649   8.834   0.577   5.811  1.2614  1.4178  1.1441
 3245SOL     OW13650   0.384   2.847   4.864  0.0988  0.1335  0.4614
 3245SOL    HW113651   0.371   2.841   4.769  1.0705  0.6011  0.2867
 3245SOL    HW213652   0.306   2.893   4.896 -0.7360 -0.9571  0.0434
 3246SOL     OW13653   5.952   8.594   3.949 -0.0202 -0.2893 -0.4529
 3246SOL    HW113654   5.995   8.551   4.023  0.0380 -0.5233 -0.6211
 3246SOL    HW213655   6.008   8.668   3.928 -0.4287  0.2089  0.2133
 3247SOL     OW13656   5.782   0.531   6.147 -0.1782  0.3690 -0.0943
 3247SOL    HW113657   5.747   0.499   6.229 -1.0998 -0.1743 -0.6865
 3247SOL    HW213658   5.790   0.454   6.091  2.0203  0.4463  0.0063
 3248SOL     OW13659   4.603   1.634   9.687 -0.0784  0.4189 -0.4224
 3248SOL    HW113660   4.608   1.634   9.591  0.6643 -0.3324 -0.3961
 3248SOL    HW213661   4.595   1.541   9.710  0.9778  0.4969  0.2892
 3249SOL     OW13662   5.132   0.433   8.210  0.5110 -0.6949  0.4565
 3249SOL    HW113663   5.158   0.525   8.208 -0.4901 -0.2983  2.5437
 3249SOL    HW213664   5.210   0.386   8.238  1.0270 -0.5037 -0.6187
 3250SOL     OW13665   6.469   6.526   3.915 -0.2454  0.0653 -0.0832
 3250SOL    HW113666   6.557   6.489   3.910  1.0971  2.8119  1.0707
 3250SOL    HW213667   6.483   6.619   3.931 -3.3833  0.8659 -1.2378
 3251SOL     OW13668   6.940   3.258   4.283 -0.0065  0.1164 -0.4171
 3251SOL    HW113669   6.878   3.323   4.315 -0.8668 -1.1457  0.5656
 3251SOL    HW213670   6.928   3.258   4.188 -1.5916 -0.1565 -0.2468
 3252SOL     OW13671   3.196   0.816   5.971  0.0472 -0.0312  0.6083
 3252SOL    HW113672   3.139   0.843   6.043  0.4335 -1.8262  1.6739
 3252SOL    HW213673   3.159   0.733   5.942 -1.0365  1.3787 -2.4149
 3253SOL     OW13674   5.958   9.723   4.759  0.1909  0.2887  0.7156
 3253SOL    HW113675   5.874   9.678   4.745  0.4459  0.4661 -1.7839
 3253SOL    HW213676   5.965   9.784   4.686  2.4337  0.3966  0.9567
 3254SOL     OW13677   7.204   5.039   5.189  0.1831  0.2777 -0.1100
 3254SOL    HW113678   7.224   5.056   5.097 -0.2222 -1.2661 -0.5024
 3254SOL    HW213679   7.124   5.088   5.206  1.0028  1.7023 -0.1599
 3255SOL     OW13680   5.020   3.880   8.673  0.1505  0.2826  0.2954
 3255SOL    HW113681   4.967   3.958   8.687 -0.1053 -0.2398  2.7735
 3255SOL    HW213682   4.971   3.810   8.717  0.7954 -1.1045 -1.1184
 3256SOL     OW13683   7.634   3.863   5.564  0.3733  0.0821  0.2258
 3256SOL    HW113684   7.578   3.940   5.573  3.0348  2.0431  1.6708
 3256SOL    HW213685   7.647   3.855   5.470 -0.3708  1.0966  0.0120
 3257SOL     OW13686   4.227   3.148   8.779  0.1350 -0.1551 -0.1206
 3257SOL    HW113687   4.243   3.241   8.760 -0.1269 -0.0378  0.2042
 3257SOL    HW213688   4.141   3.131   8.743 -1.1716  0.5435  2.3850
 3258SOL     OW13689  10.133   2.666   0.886 -0.0377  0.4997  0.3318
 3258SOL    HW113690  10.162   2.705   0.804 -1.3325  1.3439  0.2433
 3258SOL    HW213691  10.068   2.728   0.921 -1.2601 -0.9686  0.8031
 3259SOL     OW13692   5.901   4.402   2.748 -1.0199  0.5203 -0.0001
 3259SOL    HW113693   5.809   4.382   2.729 -0.8618 -0.2033  0.0038
 3259SOL    HW213694   5.925   4.343   2.818  0.4910 -1.9073 -2.3815
 3260SOL     OW13695   7.685   8.348   1.335  0.0856  0.1062 -0.1415
 3260SOL    HW113696   7.734   8.269   1.360 -0.6327 -0.0530  0.8463
 3260SOL    HW213697   7.683   8.401   1.415 -0.4067  0.6076 -0.4782
 3261SOL     OW13698   7.471   6.363   0.605  0.0816  0.1435  0.4192
 3261SOL    HW113699   7.524   6.295   0.564  0.7378  0.1356  1.2314
 3261SOL    HW213700   7.402   6.316   0.651  0.6463 -0.0022  1.1373
 3262SOL     OW13701   3.985   9.855   8.035 -0.6138  0.2353 -0.1159
 3262SOL    HW113702   4.023   9.860   7.947  1.1724  0.2461  0.6139
 3262SOL    HW213703   4.005   9.940   8.074  1.5857 -0.9047  1.4200
 3263SOL     OW13704   5.480   5.799   9.702 -0.2009 -1.0228  0.3874
 3263SOL    HW113705   5.539   5.746   9.649 -0.8297 -0.2961 -1.0888
 3263SOL    HW213706   5.394   5.759   9.689 -0.3910 -0.7368  0.7408
 3264SOL     OW13707   0.119   6.769   0.366 -0.1478 -0.6277  0.0265
 3264SOL    HW113708   0.065   6.827   0.420  0.4013 -0.7804  0.7388
 3264SOL    HW213709   0.131   6.818   0.284  0.8778  0.5877  0.8721
 3265SOL     OW13710   8.489   0.749   5.177 -0.5376 -0.0484 -0.1404
 3265SOL    HW113711   8.497   0.844   5.177 -0.9775  0.0003  0.8270
 3265SOL    HW213712   8.579   0.716   5.173 -0.4216  0.3839 -1.8449
 3266SOL     OW13713   4.155   9.161   3.541 -0.1142 -0.1525 -0.1716
 3266SOL    HW113714   4.157   9.170   3.637  1.1496 -1.8941  0.0290
 3266SOL    HW213715   4.200   9.238   3.509  0.7448 -0.2470  0.7411
 3267SOL     OW13716   7.959   1.404   3.715 -0.0091  0.0593  0.5432
 3267SOL    HW113717   7.871   1.395   3.679 -0.1171  1.6178  0.3304
 3267SOL    HW213718   8.000   1.319   3.700 -1.7302 -0.9825  1.4212
 3268SOL     OW13719   7.358  10.192   6.171 -0.6076  0.4974 -0.5049
 3268SOL    HW113720   7.407  10.267   6.139 -0.1131 -0.3807 -1.8648
 3268SOL    HW213721   7.286  10.230   6.222  0.0491  1.8556 -0.5650
 3269SOL     OW13722   1.305   6.444   0.858 -0.1640 -0.2835 -0.1784
 3269SOL    HW113723   1.271   6.474   0.774  0.2145  0.3177 -0.1265
 3269SOL    HW213724   1.378   6.504   0.877 -0.6834  0.0344  0.9016
 3270SOL     OW13725   9.520   3.387   8.676  0.0304 -0.2828  0.0865
 3270SOL    HW113726   9.437   3.407   8.632  0.8869  0.5585 -1.2121
 3270SOL    HW213727   9.573   3.343   8.610  2.2943  3.2253 -0.7012
 3271SOL     OW13728   0.918   0.516   5.414 -0.1680  0.2941  0.4504
 3271SOL    HW113729   0.980   0.588   5.410  0.3117 -0.1700 -0.5969
 3271SOL    HW213730   0.958   0.446   5.364 -2.2812  0.5713 -1.8320
 3272SOL     OW13731   4.802   1.946   9.952  0.3188 -0.0308 -0.4329
 3272SOL    HW113732   4.774   1.867   9.906 -1.1883  0.5601 -0.5937
 3272SOL    HW213733   4.753   2.017   9.910  3.0197  1.3067 -1.5638
 3273SOL     OW13734   2.905   5.014   7.727 -0.4076 -0.8779 -0.3685
 3273SOL    HW113735   2.922   5.101   7.691  0.8075 -0.9876 -0.1205
 3273SOL    HW213736   2.908   4.956   7.651 -1.7539 -0.6528 -0.6100
 3274SOL     OW13737   0.759   6.752   4.764 -0.1880 -0.3240  0.0584
 3274SOL    HW113738   0.835   6.720   4.813  0.0289 -0.2276 -0.2107
 3274SOL    HW213739   0.770   6.847   4.762  0.4928 -0.4005 -1.2670
 3275SOL     OW13740   0.512   5.484   6.717  0.2496 -0.0932 -0.3827
 3275SOL    HW113741   0.520   5.437   6.800  1.0139  2.4806  1.1088
 3275SOL    HW213742   0.587   5.455   6.666  0.1132 -1.2532  0.0365
 3276SOL     OW13743   2.991   1.635   5.574  0.0403 -0.8721  0.2358
 3276SOL    HW113744   2.970   1.560   5.629  1.2233 -1.2256  0.2115
 3276SOL    HW213745   3.086   1.643   5.577 -0.1006  1.1169  0.8642
 3277SOL     OW13746   7.265   6.806   7.611 -0.1303 -0.1822 -0.2930
 3277SOL    HW113747   7.224   6.763   7.536  0.6143  0.0507 -0.8430
 3277SOL    HW213748   7.342   6.849   7.574 -0.0104  0.3171  0.5282
 3278SOL     OW13749   7.826   6.743   3.962  0.0249  0.5637 -0.0211
 3278SOL    HW113750   7.862   6.782   4.042  0.1860 -0.0550  0.2222
 3278SOL    HW213751   7.742   6.786   3.950  0.3415  1.2193  0.0424
 3279SOL     OW13752   8.776   4.207   8.421  0.0741 -0.2345 -0.4494
 3279SOL    HW113753   8.725   4.249   8.353 -0.1222  0.9071  0.3706
 3279SOL    HW213754   8.756   4.113   8.413 -0.5685 -0.0178 -1.4202
 3280SOL     OW13755   8.261   1.438   4.118  0.1549 -0.5366  0.3020
 3280SOL    HW113756   8.237   1.451   4.026  1.1356 -1.8824 -0.1785
 3280SOL    HW213757   8.309   1.518   4.141 -2.3067  0.9857  0.4784
 3281SOL     OW13758   6.090   8.497   6.352  0.0295 -0.7365 -0.6794
 3281SOL    HW113759   6.139   8.439   6.411  0.0428  0.2370  0.2884
 3281SOL    HW213760   6.121   8.474   6.264  1.9883 -0.3924 -0.1196
 3282SOL     OW13761   0.688   3.633   9.852 -0.6777  0.1716 -0.1440
 3282SOL    HW113762   0.605   3.604   9.813 -1.0955 -0.2787  1.0493
 3282SOL    HW213763   0.663   3.682   9.930  0.1156  2.0118 -0.9931
 3283SOL     OW13764   0.144   7.080   1.368 -0.1649  0.5152 -0.9264
 3283SOL    HW113765   0.148   7.176   1.367 -1.2296  0.5924 -2.8759
 3283SOL    HW213766   0.057   7.060   1.334 -0.4718 -1.1699  0.6880
 3284SOL     OW13767   6.944   4.031  10.108 -0.1901  0.5748 -0.0253
 3284SOL    HW113768   6.993   4.090  10.050  0.6625  0.6212  0.7135
 3284SOL    HW213769   6.934   3.950  10.057  0.9346  0.4601 -0.0909
 3285SOL     OW13770   4.508   0.075   2.909 -0.4777  0.3132 -0.3763
 3285SOL    HW113771   4.503  -0.021   2.906 -3.3518  0.3503  0.2346
 3285SOL    HW213772   4.418   0.103   2.927  0.4623  3.0985  0.4905
 3286SOL     OW13773   3.344   1.260   6.074 -0.2021 -0.3305  0.0026
 3286SOL    HW113774   3.300   1.330   6.026 -0.7610 -0.3919  0.4040
 3286SOL    HW213775   3.332   1.182   6.020 -4.4382 -1.3606  1.9418
 3287SOL     OW13776   9.257   3.406   2.487  0.4192  0.6542 -0.4754
 3287SOL    HW113777   9.227   3.393   2.398  1.2677 -0.1706 -0.6593
 3287SOL    HW213778   9.222   3.331   2.535  0.8781  0.5135 -0.3578
 3288SOL     OW13779   7.923   8.332   1.965  0.5035  0.8310  0.4109
 3288SOL    HW113780   7.961   8.401   2.018  1.9594 -0.1716  0.7287
 3288SOL    HW213781   7.967   8.252   1.995 -0.3046 -0.0680 -0.7315
 3289SOL     OW13782   7.169   4.904   6.442  0.1137 -0.2144  0.1041
 3289SOL    HW113783   7.178   4.815   6.475  0.3229  0.3085  1.5533
 3289SOL    HW213784   7.126   4.894   6.357  0.9118 -1.7333 -0.1516
 3290SOL     OW13785   3.292   6.076   2.778 -0.1908 -0.3017  0.4671
 3290SOL    HW113786   3.265   6.138   2.710 -0.9328  0.9496  1.8699
 3290SOL    HW213787   3.222   6.077   2.842 -0.1206 -2.4707  0.6536
 3291SOL     OW13788   2.035   2.814   3.870 -0.1616  0.3348 -0.7873
 3291SOL    HW113789   2.111   2.770   3.832  0.2617 -0.4042  0.8382
 3291SOL    HW213790   2.071   2.893   3.911 -0.3752  0.3331 -0.5981
 3292SOL     OW13791   6.581   3.138   3.251  0.3707  0.0643  0.2912
 3292SOL    HW113792   6.589   3.043   3.247  0.0285  0.0737 -0.8842
 3292SOL    HW213793   6.532   3.162   3.172  0.3527  1.2074  0.6260
 3293SOL     OW13794   0.762   0.857   4.769 -0.2896  0.3898  0.3963
 3293SOL    HW113795   0.765   0.808   4.687 -1.3801  0.7408  0.1364
 3293SOL    HW213796   0.776   0.949   4.743 -1.5661  0.6178  0.4817
 3294SOL     OW13797   8.507   5.374   2.243 -0.4393  0.1053 -0.3866
 3294SOL    HW113798   8.496   5.460   2.202 -0.8771  0.6761  0.8762
 3294SOL    HW213799   8.513   5.393   2.337  1.0281 -1.1063 -0.1905
 3295SOL     OW13800   5.817   8.061   2.620  0.3875  0.0242  0.4982
 3295SOL    HW113801   5.776   8.021   2.697  0.0668  0.5800  0.6273
 3295SOL    HW213802   5.800   7.999   2.549 -0.0725 -0.0921  0.7000
 3296SOL     OW13803   4.930   8.095   9.641 -0.3335  0.1100 -0.5649
 3296SOL    HW113804   4.837   8.098   9.666 -0.4580 -1.3606 -0.7570
 3296SOL    HW213805   4.966   8.176   9.676 -1.7665  0.9043 -0.8184
 3297SOL     OW13806   9.835   4.397   9.210  0.6934  0.7475  0.0932
 3297SOL    HW113807   9.863   4.417   9.121 -2.1317  0.6712 -0.9384
 3297SOL    HW213808   9.854   4.476   9.261  3.1915  0.4513 -0.2966
 3298SOL     OW13809   9.003   8.900   4.329  0.5664  0.2901 -0.4239
 3298SOL    HW113810   9.079   8.958   4.328  0.5252  0.3738  0.5703
 3298SOL    HW213811   9.039   8.815   4.355  0.4816  0.0774 -0.9887
 3299SOL     OW13812   3.243   0.051   2.211  0.8082 -0.1777 -0.1604
 3299SOL    HW113813   3.237   0.108   2.134  0.4223 -0.2965 -0.2197
 3299SOL    HW213814   3.308  -0.016   2.186  3.3272  1.7109  0.8710
 3300SOL     OW13815   8.508   7.831   5.360 -0.2876  0.4738  0.1212
 3300SOL    HW113816   8.576   7.797   5.303  1.2848 -0.6446  2.4841
 3300SOL    HW213817   8.471   7.754   5.403 -1.9475  1.1991  0.0773
 3301SOL     OW13818   7.743   2.274   0.390  0.6664 -0.2678  0.1350
 3301SOL    HW113819   7.700   2.350   0.430 -0.3838  0.2399 -1.8360
 3301SOL    HW213820   7.737   2.205   0.457  0.6008  1.0355  1.5105
 3302SOL     OW13821   2.133   0.738   1.024  0.4797 -0.4580 -0.1047
 3302SOL    HW113822   2.060   0.747   1.085  0.4889 -1.8457  0.1326
 3302SOL    HW213823   2.211   0.734   1.079  0.7745  1.0408 -0.3593
 3303SOL     OW13824   6.880   0.803   2.254  0.0727 -0.0740  0.1478
 3303SOL    HW113825   6.800   0.783   2.205 -0.5537 -1.4337  1.6710
 3303SOL    HW213826   6.947   0.814   2.186 -1.2858  0.6615 -1.1346
 3304SOL     OW13827   8.545   6.086   8.782  0.1025 -0.1847 -0.5688
 3304SOL    HW113828   8.618   6.147   8.789 -0.3162  0.3782 -1.0151
 3304SOL    HW213829   8.512   6.077   8.871  0.4475 -0.1090 -0.4339
 3305SOL     OW13830   0.968   8.975   8.815  0.0921  0.3783 -0.4460
 3305SOL    HW113831   0.926   8.961   8.729 -2.6400 -0.6533  0.9374
 3305SOL    HW213832   0.913   9.040   8.858  1.6070  1.1122  0.4691
 3306SOL     OW13833   3.244   4.768   2.767  0.1947 -0.3952 -0.3578
 3306SOL    HW113834   3.268   4.702   2.702 -0.1366 -0.5506 -0.3289
 3306SOL    HW213835   3.326   4.789   2.812 -0.0845 -2.8244  1.5039
 3307SOL     OW13836   3.580   6.269   4.189 -0.0163 -0.2011 -0.1280
 3307SOL    HW113837   3.606   6.269   4.097 -2.2939  0.8403 -0.8388
 3307SOL    HW213838   3.605   6.356   4.221  0.7495 -0.5515  0.2678
 3308SOL     OW13839   8.614   3.688   3.871  0.4184  0.3158 -0.0834
 3308SOL    HW113840   8.651   3.631   3.804 -0.5443  1.7747 -1.9572
 3308SOL    HW213841   8.684   3.698   3.936  1.1870 -1.5785 -0.5509
 3309SOL     OW13842   6.050   6.781   8.696 -0.3845 -0.0743 -0.2480
 3309SOL    HW113843   6.048   6.837   8.618  0.2765  0.5188  0.1495
 3309SOL    HW213844   5.964   6.740   8.698 -0.5472  0.2042 -1.0741
 3310SOL     OW13845   1.532   8.547   9.949  1.1166 -0.2149 -0.3662
 3310SOL    HW113846   1.520   8.542  10.044  0.3546  2.6408 -0.2312
 3310SOL    HW213847   1.454   8.503   9.913  0.5074  0.2493  0.3593
 3311SOL     OW13848   4.372   3.124   3.978  0.2794  0.0152 -0.2331
 3311SOL    HW113849   4.368   3.116   3.883 -2.6303  0.1383 -0.1998
 3311SOL    HW213850   4.288   3.163   4.002  0.2414 -1.5269  2.5236
 3312SOL     OW13851   9.600   4.099   7.352  0.3472  0.1790 -0.0520
 3312SOL    HW113852   9.680   4.147   7.370 -0.0942  0.8751  0.1094
 3312SOL    HW213853   9.530   4.164   7.361 -0.4308 -0.8521  1.9136
 3313SOL     OW13854   7.254   7.667   1.761 -0.1050 -0.2797  0.0260
 3313SOL    HW113855   7.289   7.703   1.842 -0.4303  0.5207 -0.1750
 3313SOL    HW213856   7.242   7.574   1.779 -0.3407 -0.0809  0.9613
 3314SOL     OW13857   9.711   8.705   4.775  0.4022  0.3330 -0.0362
 3314SOL    HW113858   9.738   8.739   4.690 -0.3416 -1.8233 -1.2097
 3314SOL    HW213859   9.616   8.694   4.767  0.3915 -0.3594  0.8917
 3315SOL     OW13860   9.811   3.306   2.039  0.0413 -0.0833  0.0686
 3315SOL    HW113861   9.774   3.287   2.125  0.9760  1.4144  0.8622
 3315SOL    HW213862   9.782   3.396   2.021 -1.0502 -0.7584 -1.7038
 3316SOL     OW13863   7.446   7.195   2.470  0.3134  0.1572  0.0490
 3316SOL    HW113864   7.536   7.201   2.440  0.0002 -0.2564 -1.0105
 3316SOL    HW213865   7.451   7.139   2.548  0.7628 -1.4729 -1.0845
 3317SOL     OW13866   5.641   9.382   5.628  0.1758  0.3617  0.6737
 3317SOL    HW113867   5.666   9.425   5.710  0.7277 -0.5554  1.0046
 3317SOL    HW213868   5.674   9.293   5.637 -1.6469 -0.3940  0.3522
 3318SOL     OW13869   1.115   5.403   5.131  0.2957  0.0538  0.2689
 3318SOL    HW113870   1.192   5.395   5.187 -0.4751  0.7437  1.4825
 3318SOL    HW213871   1.150   5.423   5.044  1.5312 -1.4035  0.4019
 3319SOL     OW13872   5.912   1.300   8.238 -0.3600  0.3610 -0.2084
 3319SOL    HW113873   5.882   1.228   8.294  0.3530 -0.8817 -1.3444
 3319SOL    HW213874   5.832   1.349   8.218 -0.6689  0.6382  1.5964
 3320SOL     OW13875   2.027   1.537   8.943 -0.0426  0.1356 -0.3905
 3320SOL    HW113876   2.080   1.482   8.885  0.1571  0.6533 -0.7063
 3320SOL    HW213877   2.078   1.544   9.023  0.5690  0.9527 -0.8317
 3321SOL     OW13878   2.119   7.649   8.810 -0.4572  0.5764 -0.0353
 3321SOL    HW113879   2.083   7.601   8.884  2.0084 -0.0974  0.8156
 3321SOL    HW213880   2.097   7.741   8.828 -2.5116  0.1490 -0.0968
 3322SOL     OW13881   6.289  10.192   2.691  0.2866  0.7473  0.3056
 3322SOL    HW113882   6.311  10.230   2.606  0.2537 -1.0278 -0.5297
 3322SOL    HW213883   6.359  10.129   2.708 -0.6551 -0.2124  0.7142
 3323SOL     OW13884   8.558   8.090   4.424  0.3812  0.2202  0.2334
 3323SOL    HW113885   8.625   8.150   4.458 -0.1730  1.1495 -0.2693
 3323SOL    HW213886   8.479   8.112   4.474  0.7069 -1.7531  1.7512
 3324SOL     OW13887   3.436   9.614   3.351 -0.1838  0.1598 -1.1031
 3324SOL    HW113888   3.503   9.682   3.359 -0.0502  0.0535 -1.3052
 3324SOL    HW213889   3.365   9.643   3.408  1.1545 -1.1067  1.3710
 3325SOL     OW13890   4.387   4.067   7.537  0.0010  0.2565  0.1111
 3325SOL    HW113891   4.322   4.124   7.578 -1.3464 -2.1347  1.5475
 3325SOL    HW213892   4.338   4.016   7.473  1.0967  0.4120 -0.8905
 3326SOL     OW13893   3.907   1.699   1.145  0.2912  0.3759  0.1692
 3326SOL    HW113894   3.910   1.671   1.054 -0.3608 -0.9329  0.5261
 3326SOL    HW213895   3.964   1.638   1.191  0.6569  1.0557  0.6346
 3327SOL     OW13896   6.611   5.948   0.976  0.0568  0.2189 -0.3605
 3327SOL    HW113897   6.570   5.869   1.013 -0.1126  0.6595  0.4020
 3327SOL    HW213898   6.541   6.012   0.970  0.1633  0.2837 -1.1189
 3328SOL     OW13899   7.217   4.340   2.752  0.5297 -0.0417  0.4175
 3328SOL    HW113900   7.286   4.299   2.700 -0.1520 -0.2246 -0.3450
 3328SOL    HW213901   7.194   4.420   2.704  0.6553  0.3655  1.0127
 3329SOL     OW13902   0.229   3.986   4.681 -0.0677  0.1625  0.0674
 3329SOL    HW113903   0.263   4.043   4.612 -1.2339 -1.1190 -1.6610
 3329SOL    HW213904   0.148   4.028   4.709 -0.6679 -0.3406 -0.8536
 3330SOL     OW13905   5.234   3.545   8.083 -0.0822 -0.4450  0.4459
 3330SOL    HW113906   5.322   3.539   8.044 -0.3374  1.1125 -0.4501
 3330SOL    HW213907   5.195   3.622   8.041 -0.7289  0.7857  3.1295
 3331SOL     OW13908   4.190   0.733   7.647 -0.1167 -0.0801 -0.1966
 3331SOL    HW113909   4.106   0.778   7.647 -0.6343 -0.8181  2.5142
 3331SOL    HW213910   4.179   0.661   7.585 -2.1587 -1.1695  1.3078
 3332SOL     OW13911   9.641   6.585   8.509  0.1619  0.6835  0.2338
 3332SOL    HW113912   9.664   6.678   8.504  0.3261  0.5665 -2.6078
 3332SOL    HW213913   9.725   6.540   8.509  0.0576  0.4885  0.1514
 3333SOL     OW13914   6.141   9.074   6.194  0.1718 -0.0566  0.1392
 3333SOL    HW113915   6.160   8.985   6.224  1.6490  0.4459  0.8028
 3333SOL    HW213916   6.051   9.090   6.223  1.0697 -0.0664  3.2995
 3334SOL     OW13917   8.045   9.799   4.235 -0.3470  0.0053 -0.2772
 3334SOL    HW113918   7.985   9.749   4.289 -0.1746  0.0814 -0.0124
 3334SOL    HW213919   8.130   9.756   4.247 -0.5254 -0.6979 -1.4111
 3335SOL     OW13920   8.138   1.744   8.513  0.0852  0.2117 -0.3928
 3335SOL    HW113921   8.138   1.835   8.482 -1.2338 -0.0054 -1.0898
 3335SOL    HW213922   8.122   1.692   8.435  1.6997 -0.7201 -0.1544
 3336SOL     OW13923   7.110   3.147   2.149  0.4210  0.3174 -0.0032
 3336SOL    HW113924   7.096   3.055   2.130 -0.8815  0.3256  0.7310
 3336SOL    HW213925   7.200   3.165   2.124  0.7062 -1.1695 -0.0810
 3337SOL     OW13926   4.893   7.868   7.616 -0.2640 -0.1413 -0.2808
 3337SOL    HW113927   4.812   7.919   7.617 -0.0572  0.1820  0.1345
 3337SOL    HW213928   4.955   7.920   7.666  0.1278 -0.5130 -0.3742
 3338SOL     OW13929   2.097   8.889   6.352  0.7696 -0.0093  0.2756
 3338SOL    HW113930   2.028   8.901   6.417  0.6641 -1.2952  0.4276
 3338SOL    HW213931   2.158   8.828   6.394  0.8539 -0.6143 -0.7119
 3339SOL     OW13932   8.904   1.446   6.284 -0.5444 -0.1919 -0.3278
 3339SOL    HW113933   8.965   1.447   6.211  0.5587 -3.3617  0.4133
 3339SOL    HW213934   8.951   1.401   6.355 -2.6552  0.0060  1.3145
 3340SOL     OW13935   9.211   4.564   3.738 -0.1251  0.2085  0.0983
 3340SOL    HW113936   9.267   4.492   3.709  0.0618  0.0824  0.7642
 3340SOL    HW213937   9.180   4.604   3.657 -0.5471 -0.8641 -0.2922
 3341SOL     OW13938   8.839   7.285   3.030 -0.2951  0.5034 -0.2379
 3341SOL    HW113939   8.767   7.313   3.087 -1.1032  1.1610 -1.5275
 3341SOL    HW213940   8.808   7.306   2.942  0.2114 -2.0050 -1.0764
 3342SOL     OW13941   8.152   2.730   5.726 -0.2876 -0.1525 -0.0839
 3342SOL    HW113942   8.177   2.653   5.675 -1.9524 -0.8526  0.1010
 3342SOL    HW213943   8.074   2.764   5.682 -0.6132  0.3750  0.8726
 3343SOL     OW13944   9.231   0.517   7.047  0.0893  0.0886 -0.5566
 3343SOL    HW113945   9.277   0.599   7.064 -0.3585 -0.1623  2.4258
 3343SOL    HW213946   9.222   0.477   7.133 -1.3378 -2.2321 -1.6981
 3344SOL     OW13947   7.045   8.018   1.795 -0.0466  0.2464 -0.3168
 3344SOL    HW113948   7.032   7.923   1.805  0.4827 -0.0008 -1.6562
 3344SOL    HW213949   6.965   8.057   1.828 -0.8078 -0.7613 -0.8946
 3345SOL     OW13950   7.154  10.066   4.833  0.3043  0.8238  0.2804
 3345SOL    HW113951   7.145  10.158   4.858 -1.2034  0.7876 -0.0669
 3345SOL    HW213952   7.109  10.018   4.902  0.3522  0.3977  0.0188
 3346SOL     OW13953   8.373   9.304   3.277 -0.7186 -0.0610  0.2172
 3346SOL    HW113954   8.451   9.346   3.313  0.3624 -0.5325 -1.4836
 3346SOL    HW213955   8.304   9.326   3.340  0.6863  0.6427  1.5973
 3347SOL     OW13956   5.115   3.002   7.736 -0.6112  0.2280  0.1647
 3347SOL    HW113957   5.186   3.031   7.794 -0.4819 -1.5617  0.9588
 3347SOL    HW213958   5.153   3.006   7.648  0.3869 -0.4247  0.5532
 3348SOL     OW13959   8.292   0.046   4.522  0.2876  0.5699 -0.0859
 3348SOL    HW113960   8.310   0.016   4.611  1.4280 -0.5621 -0.6622
 3348SOL    HW213961   8.203   0.081   4.526  0.2362  0.3418  1.4448
 3349SOL     OW13962   4.195   6.696   9.538 -0.2565  0.1115  0.8328
 3349SOL    HW113963   4.148   6.628   9.489  1.6414 -1.8429  1.5720
 3349SOL    HW213964   4.262   6.727   9.478  1.4551 -1.6044  1.7569
 3350SOL     OW13965   9.798   5.662   4.230 -0.1061  0.0467 -0.0778
 3350SOL    HW113966   9.747   5.582   4.218  1.0686 -0.8928  1.0054
 3350SOL    HW213967   9.863   5.660   4.161  0.0635 -0.0418  0.0851
 3351SOL     OW13968   4.916   0.280   4.879  0.2157 -0.0973  0.0275
 3351SOL    HW113969   4.849   0.335   4.840  0.4159  0.4137  0.3896
 3351SOL    HW213970   4.868   0.209   4.920 -0.0135 -0.5131 -0.9248
 3352SOL     OW13971   5.616   9.200   4.282  0.5790 -0.1706 -0.3049
 3352SOL    HW113972   5.612   9.113   4.321  0.1111 -0.2651 -0.5493
 3352SOL    HW213973   5.570   9.256   4.345  0.4463 -0.1950 -0.3773
 3353SOL     OW13974   2.022   0.903   1.227 -0.6783 -0.0316 -0.5537
 3353SOL    HW113975   2.028   0.878   1.320  1.3148 -0.5752 -0.7721
 3353SOL    HW213976   2.081   0.977   1.219  0.9365 -1.3636 -1.7613
 3354SOL     OW13977   7.135   8.911   0.746 -0.9020 -0.4222 -0.0809
 3354SOL    HW113978   7.092   8.969   0.809 -0.1059 -0.4279  0.4836
 3354SOL    HW213979   7.193   8.969   0.696 -1.0178 -0.5337 -0.3489
 3355SOL     OW13980   0.667   1.600   2.033  0.1225  0.3966 -0.4109
 3355SOL    HW113981   0.620   1.646   2.102  0.0879 -1.0764  0.5856
 3355SOL    HW213982   0.701   1.521   2.075  1.7146  0.3831 -1.6188
 3356SOL     OW13983   4.835  10.049   9.281  0.3040  0.6364  0.2911
 3356SOL    HW113984   4.856   9.959   9.307  0.8602  0.7074  0.0891
 3356SOL    HW213985   4.920  10.089   9.263 -0.0300  0.7797 -1.0076
 3357SOL     OW13986   6.269   8.890   5.073  0.9372  0.2904  0.1667
 3357SOL    HW113987   6.314   8.805   5.074  2.2911  0.9724  2.0405
 3357SOL    HW213988   6.276   8.919   4.983  0.7576 -1.4148 -0.4439
 3358SOL     OW13989   0.694   3.614   6.694  0.7411  0.2311  0.3750
 3358SOL    HW113990   0.725   3.538   6.744  0.6797  0.7618  1.2360
 3358SOL    HW213991   0.773   3.650   6.654  0.7742 -0.2664 -0.0112
 3359SOL     OW13992   7.417   2.973   9.930  0.4839  0.2531  0.0264
 3359SOL    HW113993   7.389   2.978  10.021  0.0386  2.0589 -0.1638
 3359SOL    HW213994   7.345   3.011   9.880 -0.0691 -2.3083 -1.3202
 3360SOL     OW13995   5.523   6.805   0.290 -0.4616  0.4405 -0.2831
 3360SOL    HW113996   5.557   6.741   0.226 -0.7016  0.2866 -0.2571
 3360SOL    HW213997   5.500   6.752   0.366  0.4188  0.6973  0.1813
 3361SOL     OW13998   4.252   0.779   9.641 -0.1428  0.1293 -0.3756
 3361SOL    HW113999   4.198   0.850   9.675 -0.5463 -0.1046 -0.5199
 3361SOL    HW214000   4.339   0.818   9.629 -0.3971  0.6361 -0.5955
 3362SOL     OW14001   0.615   0.105   0.107  0.5259 -0.9956 -0.0931
 3362SOL    HW114002   0.557   0.181   0.098 -0.0335 -1.1422  1.8353
 3362SOL    HW214003   0.581   0.042   0.044 -0.7138 -0.6369  0.1878
 3363SOL     OW14004   8.435   2.224   6.648  0.5530  0.3104  0.2401
 3363SOL    HW114005   8.346   2.259   6.644  0.8898  1.0410 -1.7210
 3363SOL    HW214006   8.424   2.129   6.645 -0.1440  0.4169 -1.2641
 3364SOL     OW14007   7.646   8.794   4.887 -0.4525 -0.5809 -0.0371
 3364SOL    HW114008   7.552   8.786   4.868 -0.6377 -0.3443  0.7108
 3364SOL    HW214009   7.662   8.729   4.956  0.1271 -1.2274 -0.7760
 3365SOL     OW14010   5.598   0.847   6.335 -0.2208 -0.0222 -0.0795
 3365SOL    HW114011   5.653   0.828   6.411  0.5138  2.2427  0.0341
 3365SOL    HW214012   5.661   0.866   6.265 -0.8922 -1.1989 -1.0382
 3366SOL     OW14013   6.888   6.837   9.279 -0.4793 -0.6395  0.2877
 3366SOL    HW114014   6.801   6.798   9.268 -0.6917 -0.1489  0.1794
 3366SOL    HW214015   6.889   6.911   9.217 -0.3364 -0.0667  0.9635
 3367SOL     OW14016   6.330   5.776   7.168 -0.7461  0.1078 -0.1818
 3367SOL    HW114017   6.292   5.763   7.081 -0.0035  1.6404 -0.7752
 3367SOL    HW214018   6.422   5.753   7.157 -0.5750  0.6503  0.0897
 3368SOL     OW14019   7.530   2.756   3.577 -0.1449  0.6955 -0.1547
 3368SOL    HW114020   7.492   2.823   3.633  0.6327  0.4165  0.7478
 3368SOL    HW214021   7.566   2.692   3.639  1.7295  0.9265 -0.9508
 3369SOL     OW14022   0.803   8.884   8.622  0.0514 -0.1066 -0.5049
 3369SOL    HW114023   0.780   8.810   8.566  0.9777 -1.0814  0.3625
 3369SOL    HW214024   0.734   8.888   8.688 -0.2642  0.1297 -0.8452
 3370SOL     OW14025   2.981   9.468   2.059  0.7469 -0.3749  0.2342
 3370SOL    HW114026   2.985   9.552   2.013 -1.1500 -1.0963 -1.4414
 3370SOL    HW214027   3.013   9.487   2.147  0.0327  2.1996  0.0355
 3371SOL     OW14028   6.357   4.634  10.081 -0.4115 -0.3934  0.1281
 3371SOL    HW114029   6.453   4.633  10.086 -0.3224  1.7470 -0.2392
 3371SOL    HW214030   6.328   4.614  10.170  0.3950 -0.6049  0.3538
 3372SOL     OW14031   6.752   2.535   5.505 -0.0472 -0.0728  0.2004
 3372SOL    HW114032   6.703   2.512   5.426 -1.5326  2.4816  0.2656
 3372SOL    HW214033   6.804   2.457   5.524 -2.1326 -2.0125 -1.3901
 3373SOL     OW14034   8.623   9.209   1.260 -0.0818  0.1805  0.2425
 3373SOL    HW114035   8.575   9.288   1.234 -0.5882  0.2398  1.2764
 3373SOL    HW214036   8.560   9.159   1.312  0.2328 -0.9148 -0.3896
 3374SOL     OW14037   5.456   4.418   2.587 -0.0763 -0.2819  0.0960
 3374SOL    HW114038   5.429   4.510   2.582  0.0051  0.0277  3.2731
 3374SOL    HW214039   5.375   4.368   2.577 -0.5724  0.2888  1.0892
 3375SOL     OW14040   4.264   2.525   1.951  0.1379  0.8727  0.3316
 3375SOL    HW114041   4.353   2.531   1.985  0.0409 -1.7188  1.2737
 3375SOL    HW214042   4.208   2.517   2.029 -0.5286 -0.9305 -0.2830
 3376SOL     OW14043   1.651   2.141   7.823  0.1162  0.1709  0.2239
 3376SOL    HW114044   1.646   2.175   7.733 -1.0492  0.2455  0.3088
 3376SOL    HW214045   1.744   2.124   7.836  0.3902  0.7945 -0.7674
 3377SOL     OW14046   0.025   7.366   6.754  0.3631  0.8194 -0.7489
 3377SOL    HW114047   0.039   7.461   6.757 -0.6625  1.0787 -2.3962
 3377SOL    HW214048   0.097   7.333   6.700 -0.1975  0.9273 -1.5977
 3378SOL     OW14049   4.783   7.984   3.429  0.0550 -0.1028 -0.0901
 3378SOL    HW114050   4.731   8.052   3.471  1.7278  0.5100  1.1206
 3378SOL    HW214051   4.724   7.909   3.421 -0.7631  0.2284  2.1361
 3379SOL     OW14052   1.604   3.201   4.216 -0.2902  0.0542  0.3938
 3379SOL    HW114053   1.596   3.269   4.149  1.3299 -0.1289 -0.0322
 3379SOL    HW214054   1.645   3.244   4.291 -0.5910 -0.1243  0.6665
 3380SOL     OW14055   0.802   7.090   8.776 -0.6181 -0.3552 -0.4278
 3380SOL    HW114056   0.849   7.163   8.817 -1.1762  1.1818 -2.4013
 3380SOL    HW214057   0.869   7.024   8.762 -0.0987 -0.2843  1.4193
 3381SOL     OW14058   4.669   1.264   0.525  0.4290 -0.2420 -0.1701
 3381SOL    HW114059   4.759   1.276   0.556  1.2268 -3.4201 -0.8818
 3381SOL    HW214060   4.622   1.232   0.601 -0.6177  2.8520  0.6236
 3382SOL     OW14061   3.739   3.602   8.380  0.3893 -0.4113  0.6691
 3382SOL    HW114062   3.690   3.680   8.406  0.2977  0.1388 -1.0649
 3382SOL    HW214063   3.698   3.573   8.299  2.5247 -0.2575 -0.5485
 3383SOL     OW14064   9.857   9.189   6.831 -0.0854 -0.2253 -0.3686
 3383SOL    HW114065   9.849   9.181   6.926  1.6295 -3.0139 -0.3434
 3383SOL    HW214066   9.779   9.237   6.804 -0.6768  0.5471  2.4095
 3384SOL     OW14067   0.166   8.230   0.917  0.0829 -0.2444 -0.4884
 3384SOL    HW114068   0.079   8.198   0.893  0.6008 -0.8736 -1.6779
 3384SOL    HW214069   0.161   8.325   0.908 -1.2041  0.0176  2.0986
 3385SOL     OW14070   5.182   2.365   5.183  0.1348  0.3697 -0.7474
 3385SOL    HW114071   5.259   2.419   5.168  0.6235 -0.1447 -0.1664
 3385SOL    HW214072   5.214   2.275   5.176 -0.5243  0.1521 -1.0197
 3386SOL     OW14073   2.221   4.449   2.680 -0.2196 -0.1128  0.0496
 3386SOL    HW114074   2.260   4.409   2.602 -1.9766  1.7747 -1.9047
 3386SOL    HW214075   2.294   4.495   2.721  0.0389  2.5446 -2.9870
 3387SOL     OW14076   1.592   7.883   4.515  1.0055  0.5562  0.8610
 3387SOL    HW114077   1.552   7.911   4.433 -1.7944 -0.6527  1.7114
 3387SOL    HW214078   1.539   7.924   4.583  0.7529 -1.6159  2.0592
 3388SOL     OW14079   4.031   1.889   6.966  0.1471 -0.2902 -0.1064
 3388SOL    HW114080   3.960   1.843   6.921 -0.6425  0.1176  0.6808
 3388SOL    HW214081   4.070   1.945   6.899 -1.9437  1.4007 -0.0191
 3389SOL     OW14082   9.757   0.879   6.122  0.4913  0.1887  0.2182
 3389SOL    HW114083   9.830   0.881   6.183  1.5328 -0.9612 -0.9137
 3389SOL    HW214084   9.713   0.796   6.141 -0.2429  0.6466  0.5623
 3390SOL     OW14085   5.447   6.300   1.070  0.0944 -0.3690  0.1193
 3390SOL    HW114086   5.436   6.250   1.151  4.0036 -0.3413  0.8465
 3390SOL    HW214087   5.443   6.392   1.097 -3.2796 -0.1496 -0.6301
 3391SOL     OW14088   4.235   2.934   4.848  0.1626 -0.2548  0.0440
 3391SOL    HW114089   4.180   2.947   4.925 -0.2588 -0.4401 -0.2184
 3391SOL    HW214090   4.252   2.840   4.846  0.4164 -0.2090  0.0778
 3392SOL     OW14091   2.641   9.927   7.742 -0.0422 -0.0286 -0.5926
 3392SOL    HW114092   2.698   9.929   7.665  0.7958  1.6500  0.0264
 3392SOL    HW214093   2.553   9.913   7.707  0.4706 -0.5007 -1.7397
 3393SOL     OW14094   0.185   7.525   8.879 -0.7489  0.6281 -0.7435
 3393SOL    HW114095   0.218   7.518   8.789 -1.0437  1.9120 -0.9812
 3393SOL    HW214096   0.114   7.461   8.883  0.3940 -0.7067 -0.8533
 3394SOL     OW14097   9.172   8.430   1.586 -0.2422 -0.4932 -0.3124
 3394SOL    HW114098   9.164   8.354   1.529 -0.3329 -1.4039  0.8737
 3394SOL    HW214099   9.258   8.467   1.564 -0.5171 -0.4713 -1.4224
 3395SOL     OW14100   9.348   0.278   1.019 -0.1217  0.2116 -0.0158
 3395SOL    HW114101   9.425   0.334   1.030 -1.1188  1.5206  0.6429
 3395SOL    HW214102   9.280   0.321   1.071 -1.7243 -0.0350 -1.8080
 3396SOL     OW14103   0.872   8.298   3.696  0.2362  0.0852  0.4388
 3396SOL    HW114104   0.816   8.242   3.749 -0.3768 -0.3118 -0.6039
 3396SOL    HW214105   0.842   8.387   3.714 -1.4963 -0.1799 -0.9291
 3397SOL     OW14106   5.897   1.716   5.978 -0.4097 -0.3318  0.2218
 3397SOL    HW114107   5.981   1.675   5.954  0.3623  0.9718  0.6016
 3397SOL    HW214108   5.892   1.795   5.924 -0.4427  0.6310  1.5805
 3398SOL     OW14109   5.160   6.996   7.587  0.0609 -0.0718  0.1691
 3398SOL    HW114110   5.161   7.061   7.657  0.5478  0.0825  0.0182
 3398SOL    HW214111   5.180   6.913   7.631 -1.0859 -0.2231  0.4513
 3399SOL     OW14112   8.646   3.002   4.738  0.0522  0.0954  0.2300
 3399SOL    HW114113   8.703   2.926   4.747 -0.1360 -0.1418 -0.5425
 3399SOL    HW214114   8.630   3.031   4.828  0.9071 -0.1908  0.4767
 3400SOL     OW14115   1.601   6.169   9.466  0.6401 -0.2444  0.0835
 3400SOL    HW114116   1.617   6.081   9.500  1.3793 -0.0579  0.2289
 3400SOL    HW214117   1.645   6.170   9.381  1.5946  0.3235  0.5616
 3401SOL     OW14118   6.429   7.072   0.607  0.3018 -0.1069  0.5059
 3401SOL    HW114119   6.516   7.033   0.595  0.4532 -0.2959  2.0270
 3401SOL    HW214120   6.419   7.131   0.532  0.1754 -2.7995 -1.7948
 3402SOL     OW14121   0.465   5.261   8.992 -0.2974 -0.9174 -0.2216
 3402SOL    HW114122   0.376   5.245   9.023 -0.0922 -2.3864 -0.3167
 3402SOL    HW214123   0.520   5.252   9.070 -0.1038 -1.3662 -0.4055
 3403SOL     OW14124   5.808   4.886   1.681 -0.4560  0.3943  0.2329
 3403SOL    HW114125   5.717   4.911   1.697 -0.8909 -0.4353 -0.8439
 3403SOL    HW214126   5.804   4.823   1.609  0.9544  0.1788  0.3069
 3404SOL     OW14127   1.422   0.400   6.955 -0.1691 -0.5796 -0.5359
 3404SOL    HW114128   1.383   0.331   7.009  0.1596  0.2261  0.7969
 3404SOL    HW214129   1.415   0.368   6.865  0.8063 -2.7494  0.1124
 3405SOL     OW14130   3.683   4.642   8.779  0.7820 -0.4582  0.0102
 3405SOL    HW114131   3.691   4.681   8.867 -1.8529 -1.3278  0.7215
 3405SOL    HW214132   3.681   4.717   8.720 -1.6584  0.4651  1.1264
 3406SOL     OW14133   1.970   9.889   7.253 -0.1686 -0.3756  0.2564
 3406SOL    HW114134   1.994   9.893   7.160 -1.6028 -0.8155 -0.1603
 3406SOL    HW214135   1.888   9.840   7.254 -0.1913 -0.3432  1.7644
 3407SOL     OW14136   8.061   1.829   3.491 -0.3946 -0.6266 -0.4781
 3407SOL    HW114137   8.016   1.768   3.432 -0.4790 -1.1955  0.1546
 3407SOL    HW214138   7.991   1.885   3.526 -0.5713 -1.2363  0.1807
 3408SOL     OW14139   1.476   7.334   2.513 -0.2210  0.0484  0.6991
 3408SOL    HW114140   1.472   7.263   2.450  1.9092  0.4056  0.0724
 3408SOL    HW214141   1.388   7.371   2.514 -1.2234 -2.2100  0.6286
 3409SOL     OW14142   6.898   0.095   3.443 -0.4170  0.1531  0.6862
 3409SOL    HW114143   6.865   0.132   3.525 -0.1838  1.9022  0.0160
 3409SOL    HW214144   6.839   0.128   3.376 -0.0410 -0.4912  0.0254
 3410SOL     OW14145   7.954   6.519   6.747  0.1798 -0.1664  0.4294
 3410SOL    HW114146   7.938   6.563   6.831  2.2027  0.7370  0.4043
 3410SOL    HW214147   8.040   6.478   6.758  1.3031  1.4206 -1.7484
 3411SOL     OW14148   8.396   9.285   7.883  0.3027 -0.0880  0.1351
 3411SOL    HW114149   8.390   9.267   7.789  0.1095  3.1117 -0.6008
 3411SOL    HW214150   8.305   9.292   7.912  0.3637 -0.6981  0.4868
 3412SOL     OW14151   0.178   9.566   2.198 -0.2443 -0.4223  0.0187
 3412SOL    HW114152   0.191   9.485   2.149 -0.2255 -0.5319  0.2053
 3412SOL    HW214153   0.084   9.583   2.191  0.0761  0.9246 -2.2271
 3413SOL     OW14154   4.165   3.779   0.518  0.2602 -0.3892  0.1538
 3413SOL    HW114155   4.118   3.758   0.437  0.3971  1.9217 -0.5907
 3413SOL    HW214156   4.200   3.695   0.547  0.4994 -1.2650 -2.3817
 3414SOL     OW14157   0.135   1.874   4.097 -0.0469  0.3092 -0.0810
 3414SOL    HW114158   0.129   1.941   4.029 -1.0798 -0.4436 -0.7474
 3414SOL    HW214159   0.052   1.882   4.145  0.0349 -0.1750  0.1411
 3415SOL     OW14160   5.939   3.118   9.167  0.6527 -0.6256 -0.1987
 3415SOL    HW114161   5.925   3.026   9.143  1.2910 -0.5232 -0.9985
 3415SOL    HW214162   5.882   3.167   9.109  0.9391 -0.4717 -0.3520
 3416SOL     OW14163   2.122   3.406   7.742  0.5075 -0.1963 -0.3004
 3416SOL    HW114164   2.057   3.336   7.732  0.7637 -0.1708 -2.6854
 3416SOL    HW214165   2.203   3.360   7.762  0.4965 -0.5386 -0.9965
 3417SOL     OW14166   7.796   1.930   2.438 -1.1022  0.0930  0.1677
 3417SOL    HW114167   7.834   1.979   2.365  0.6798 -1.2691  0.1021
 3417SOL    HW214168   7.800   1.990   2.512  0.5374  0.2652 -0.0306
 3418SOL     OW14169   8.675   2.045   9.388 -0.1162 -0.1408  0.4658
 3418SOL    HW114170   8.646   2.133   9.416  0.8043  0.5652 -0.7131
 3418SOL    HW214171   8.628   2.029   9.307 -0.8554 -1.0871  1.0696
 3419SOL     OW14172   2.938   1.477   1.759  0.6003 -0.6753 -0.1655
 3419SOL    HW114173   3.009   1.470   1.821  0.6691  0.8154 -0.0316
 3419SOL    HW214174   2.859   1.454   1.809  0.9717 -2.4501 -0.3505
 3420SOL     OW14175   1.780   0.186   5.748 -0.3225  0.4994 -0.1548
 3420SOL    HW114176   1.737   0.254   5.799 -2.0037 -0.3245 -0.4159
 3420SOL    HW214177   1.740   0.191   5.662 -0.4789 -0.8179 -0.1816
 3421SOL     OW14178   0.419   9.391   2.971  0.4346 -0.3106 -0.6944
 3421SOL    HW114179   0.372   9.358   3.047  0.9887  0.9412  0.2204
 3421SOL    HW214180   0.511   9.393   2.998  0.6724 -0.0988 -1.4858
 3422SOL     OW14181   5.554   5.783   0.201 -0.5191 -0.0449  0.3159
 3422SOL    HW114182   5.623   5.750   0.143 -2.0522  0.6949 -2.0258
 3422SOL    HW214183   5.496   5.708   0.213 -0.0704 -0.2707  1.1542
 3423SOL     OW14184   0.598   7.540   2.921 -0.2297 -0.0483  0.1627
 3423SOL    HW114185   0.688   7.550   2.950 -0.3600  0.3320  0.4429
 3423SOL    HW214186   0.585   7.613   2.859  0.1914 -1.1081 -1.2322
 3424SOL     OW14187   5.867   6.304   0.288 -0.0046  0.3663  0.0178
 3424SOL    HW114188   5.913   6.285   0.370  1.3770  1.2121 -0.5170
 3424SOL    HW214189   5.801   6.368   0.313  0.9949  1.3092  0.3539
 3425SOL     OW14190   1.072   7.153   2.808  0.3819  0.1717  0.7099
 3425SOL    HW114191   1.078   7.112   2.721  1.4502  2.3341 -0.3236
 3425SOL    HW214192   0.979   7.145   2.832 -0.1658  0.4386 -1.1405
 3426SOL     OW14193   3.460   5.056   4.269 -0.5067  0.3100  0.2948
 3426SOL    HW114194   3.457   4.963   4.293  3.0481  0.0717  0.3311
 3426SOL    HW214195   3.488   5.056   4.178 -0.9514  1.3965  0.1428
 3427SOL     OW14196   3.341   4.290   9.357 -0.0557 -0.4867 -0.6504
 3427SOL    HW114197   3.388   4.284   9.274  1.0152 -1.1311 -0.0153
 3427SOL    HW214198   3.401   4.333   9.417 -0.4073 -0.9719  0.0754
 3428SOL     OW14199   3.399   8.856   7.223  0.2921  0.4433  0.2146
 3428SOL    HW114200   3.470   8.918   7.237  1.3829 -0.9017  0.9968
 3428SOL    HW214201   3.366   8.875   7.135  1.6439  1.0855 -0.1723
 3429SOL     OW14202   6.351   0.663   7.616  0.1023  0.1342 -0.1042
 3429SOL    HW114203   6.309   0.596   7.563 -2.7721  1.5243  0.2786
 3429SOL    HW214204   6.338   0.633   7.706 -0.3429  0.7338  0.0319
 3430SOL     OW14205   5.431   9.053   1.801 -0.3327 -0.5503  0.1755
 3430SOL    HW114206   5.405   8.965   1.774 -0.5057 -1.1546  2.1774
 3430SOL    HW214207   5.524   9.044   1.824 -0.3798 -0.2463  0.4962
 3431SOL     OW14208   3.842   1.267   6.569  0.9624  0.1501  0.4760
 3431SOL    HW114209   3.901   1.194   6.547  0.8764  0.2219  0.0027
 3431SOL    HW214210   3.807   1.244   6.655  0.8066 -0.4528  0.2564
 3432SOL     OW14211   4.311   4.246   9.257 -0.6365  0.0659  0.4856
 3432SOL    HW114212   4.317   4.295   9.339  0.2330 -1.5526  1.4326
 3432SOL    HW214213   4.285   4.158   9.284 -2.2253 -0.0305 -1.1751
 3433SOL     OW14214   7.389   5.967   0.789  0.4907  0.0664 -0.3054
 3433SOL    HW114215   7.438   5.933   0.715  0.0487 -1.0076 -0.1249
 3433SOL    HW214216   7.373   5.891   0.845 -0.4951  0.5734  0.1429
 3434SOL     OW14217   0.974   6.697   2.298  0.3077  0.3931  0.1784
 3434SOL    HW114218   1.054   6.715   2.248  0.2756  1.1594  0.3803
 3434SOL    HW214219   1.003   6.646   2.373  0.5497  0.3189  0.0351
 3435SOL     OW14220   6.091   1.352   1.946 -0.2213  0.2960 -0.5181
 3435SOL    HW114221   6.118   1.340   2.037  1.5503 -0.5218 -1.1107
 3435SOL    HW214222   5.998   1.330   1.946  0.2458 -2.0893  0.7050
 3436SOL     OW14223   2.763   5.938   6.622 -0.1980  0.0095 -0.8129
 3436SOL    HW114224   2.797   5.921   6.534  1.7556 -0.9899  0.0571
 3436SOL    HW214225   2.710   5.861   6.643 -0.0169 -0.1227 -0.8346
 3437SOL     OW14226   6.541   8.493   9.158 -0.3577 -0.1202 -0.3531
 3437SOL    HW114227   6.480   8.435   9.204  0.7865 -0.8151  0.3383
 3437SOL    HW214228   6.603   8.433   9.115  1.7962  0.5388  1.6781
 3438SOL     OW14229   9.365   9.428   8.619 -0.5410 -0.1209  0.3105
 3438SOL    HW114230   9.342   9.386   8.703 -0.8503 -0.1503  0.2104
 3438SOL    HW214231   9.380   9.519   8.642 -1.1613 -0.0127  0.3108
 3439SOL     OW14232   1.044   0.369   5.996 -0.0535  0.0236 -0.4007
 3439SOL    HW114233   0.976   0.426   6.031 -0.9027 -1.4916  0.5134
 3439SOL    HW214234   1.121   0.425   5.988 -0.2296  0.8318  2.5240
 3440SOL     OW14235   8.418   7.000   0.413 -0.3795 -0.2062  0.2568
 3440SOL    HW114236   8.455   7.011   0.325 -0.7579  1.7676  0.3036
 3440SOL    HW214237   8.346   6.938   0.401  0.6282 -1.3101 -0.4727
 3441SOL     OW14238   9.899   5.981   1.434  0.1284  0.7515  0.3067
 3441SOL    HW114239   9.911   5.974   1.529  0.2127 -1.0543  0.2016
 3441SOL    HW214240   9.977   5.942   1.396 -0.7398 -0.3318 -0.4636
 3442SOL     OW14241   5.328   4.830   8.512  0.5944 -0.3640 -0.6983
 3442SOL    HW114242   5.251   4.793   8.468  0.0763 -0.7578  0.4845
 3442SOL    HW214243   5.395   4.762   8.504 -0.3478 -1.6683  1.4479
 3443SOL     OW14244   4.385   6.854   2.044  0.5446 -0.0409 -0.4781
 3443SOL    HW114245   4.403   6.848   2.138 -0.9922  0.6220 -0.1216
 3443SOL    HW214246   4.403   6.945   2.021  0.6013 -0.1222 -0.7671
 3444SOL     OW14247   2.458   8.266   7.085 -0.0800  0.6453  0.8115
 3444SOL    HW114248   2.376   8.302   7.051 -0.4325 -1.3837 -0.7435
 3444SOL    HW214249   2.431   8.197   7.146  0.4388  0.0958  0.4411
 3445SOL     OW14250   0.868   4.850   7.578  0.6937 -0.2229  0.2322
 3445SOL    HW114251   0.890   4.942   7.587  1.9524 -0.4190 -0.6584
 3445SOL    HW214252   0.951   4.806   7.562  0.2503 -1.6473  1.4918
 3446SOL     OW14253   1.279   9.020   3.126  0.4374 -0.2032 -0.4068
 3446SOL    HW114254   1.215   8.960   3.166  0.2205  1.0739  1.2287
 3446SOL    HW214255   1.246   9.032   3.036 -0.2165 -1.5065 -0.3738
 3447SOL     OW14256   9.626   0.677   7.369  0.4364 -0.2998  0.4715
 3447SOL    HW114257   9.652   0.753   7.317  2.1307 -0.7812  0.5852
 3447SOL    HW214258   9.564   0.713   7.433 -2.0558  0.2519 -2.0131
 3448SOL     OW14259   4.415   7.677   4.580 -0.0194  0.7139  0.2682
 3448SOL    HW114260   4.407   7.582   4.583 -1.8529  0.8305  0.5690
 3448SOL    HW214261   4.509   7.694   4.579  0.3512 -1.0646  1.1728
 3449SOL     OW14262   0.743   3.260   4.824 -0.0159  0.0263 -0.2399
 3449SOL    HW114263   0.814   3.292   4.880 -0.9264  0.9771  0.4104
 3449SOL    HW214264   0.777   3.268   4.735  1.1486 -0.7111  0.1157
 3450SOL     OW14265   9.680   7.398   5.409 -0.5474  0.0793 -0.2645
 3450SOL    HW114266   9.603   7.343   5.399  1.0252 -2.3226  0.1160
 3450SOL    HW214267   9.743   7.343   5.454  1.4627  1.8984 -0.6994
 3451SOL     OW14268   3.738   4.760   6.599  0.3802 -0.0215 -0.2747
 3451SOL    HW114269   3.743   4.855   6.598 -0.0515  0.0370  0.8807
 3451SOL    HW214270   3.657   4.739   6.553 -0.8750  0.3431  1.6329
 3452SOL     OW14271   6.047   0.746   3.800 -0.5599  0.2650 -0.8828
 3452SOL    HW114272   6.012   0.833   3.785  2.4193  1.7768  0.0530
 3452SOL    HW214273   6.106   0.730   3.726  2.3860  1.1342  1.1100
 3453SOL     OW14274   0.877   6.931   7.750  0.0793  0.0210 -0.0211
 3453SOL    HW114275   0.963   6.962   7.723  0.8633 -2.8363 -1.2393
 3453SOL    HW214276   0.834   6.903   7.669 -2.0094  1.2671  0.5693
 3454SOL     OW14277   7.086   2.542   5.561 -0.0065 -0.3378  0.0178
 3454SOL    HW114278   7.098   2.481   5.634  3.0261  0.9906  0.8250
 3454SOL    HW214279   7.153   2.516   5.497  0.6049  1.3770 -0.0987
 3455SOL     OW14280   0.851   5.446   2.506 -0.2347 -0.0492  0.2042
 3455SOL    HW114281   0.820   5.395   2.432  0.4748 -0.5771  0.2609
 3455SOL    HW214282   0.780   5.441   2.570  0.1162 -1.6130  0.5134
 3456SOL     OW14283   8.056   5.290   8.675  0.1990 -0.3131 -0.0236
 3456SOL    HW114284   7.962   5.292   8.694  0.3830 -0.3375  0.9215
 3456SOL    HW214285   8.083   5.382   8.677  0.1902 -0.3047 -0.3126
 3457SOL     OW14286   2.400   8.802   3.831 -0.1105 -0.0935 -0.1622
 3457SOL    HW114287   2.359   8.867   3.888 -0.8525 -0.6634 -0.0406
 3457SOL    HW214288   2.475   8.848   3.793  1.7933 -0.3447  2.9751
 3458SOL     OW14289   3.281   4.403   1.817  0.3733 -0.1677 -0.2570
 3458SOL    HW114290   3.342   4.464   1.776  0.2669  0.0732 -0.0632
 3458SOL    HW214291   3.328   4.371   1.894  0.8155 -1.0963 -0.8941
 3459SOL     OW14292   2.694   3.722   7.539  0.1786 -0.3254 -0.0842
 3459SOL    HW114293   2.726   3.655   7.479  0.4418  0.0958 -0.4186
 3459SOL    HW214294   2.704   3.804   7.491 -1.2009 -0.1542 -0.1200
 3460SOL     OW14295   9.261   6.766   6.333  0.4782 -0.3768 -0.8079
 3460SOL    HW114296   9.271   6.840   6.273 -0.8028  0.7282  0.2842
 3460SOL    HW214297   9.345   6.763   6.380 -0.3390  2.2888  1.1245
 3461SOL     OW14298   1.112   3.483   0.109  0.1671 -0.4376  0.0367
 3461SOL    HW114299   1.117   3.431   0.029  1.4268  0.8353 -0.7548
 3461SOL    HW214300   1.199   3.524   0.117 -0.6199  1.1683  0.8697
 3462SOL     OW14301   5.503   9.502   0.020  0.2876 -0.2142  0.0976
 3462SOL    HW114302   5.554   9.433   0.062 -0.8316 -0.3123  1.4018
 3462SOL    HW214303   5.494   9.474  -0.071  0.1465 -1.6338  0.5234
 3463SOL     OW14304   2.241  10.118   5.786  0.3503 -0.0714 -0.0019
 3463SOL    HW114305   2.301  10.193   5.790  2.8745 -1.7397 -2.8369
 3463SOL    HW214306   2.230  10.101   5.693 -1.9035 -1.9539  0.5198
 3464SOL     OW14307   0.398   8.654   4.760 -0.4286  0.3129 -0.2122
 3464SOL    HW114308   0.480   8.611   4.784  0.0515  0.0186 -2.2113
 3464SOL    HW214309   0.348   8.657   4.841  0.9267 -0.9159  0.7173
 3465SOL     OW14310   5.469   3.507   7.954  0.4202 -0.0219  0.2590
 3465SOL    HW114311   5.529   3.578   7.977  1.7509 -1.2549  0.6863
 3465SOL    HW214312   5.476   3.499   7.859  1.3296 -0.4973  0.3621
 3466SOL     OW14313   3.933   9.659   0.036 -0.2944  0.1701 -0.4308
 3466SOL    HW114314   3.904   9.749   0.018 -2.1274 -0.1936  0.5053
 3466SOL    HW214315   3.919   9.647   0.130  1.0688 -0.7323 -0.3103
 3467SOL     OW14316   8.276   7.204   3.538 -0.1133  0.0994  0.0535
 3467SOL    HW114317   8.355   7.153   3.558  0.0596  0.4901  0.3837
 3467SOL    HW214318   8.269   7.267   3.610 -0.4753  0.3635 -0.2078
 3468SOL     OW14319   5.858   1.390   4.495 -0.2238 -0.6250 -0.0893
 3468SOL    HW114320   5.829   1.392   4.404  0.5061  1.8776 -0.3546
 3468SOL    HW214321   5.950   1.365   4.490 -0.0499  0.0040 -0.1013
 3469SOL     OW14322   1.087   8.417   5.300 -0.3499 -0.3898  0.0628
 3469SOL    HW114323   1.009   8.420   5.245 -0.2408  0.1600 -0.0647
 3469SOL    HW214324   1.113   8.324   5.299 -0.6867 -0.4835 -0.3293
 3470SOL     OW14325   8.963   7.678   1.032 -0.3873 -0.1927 -0.2275
 3470SOL    HW114326   9.027   7.621   1.074 -0.8805 -0.2757  0.4314
 3470SOL    HW214327   9.012   7.757   1.009 -0.2367  0.1149  1.0777
 3471SOL     OW14328   0.485   9.407   2.376  0.2424  0.1569 -0.0546
 3471SOL    HW114329   0.397   9.397   2.412  0.6144 -0.7416  0.6489
 3471SOL    HW214330   0.484   9.492   2.333 -0.9357  0.2051  0.0331
 3472SOL     OW14331   7.433   7.702   4.884 -0.4103 -0.6511  0.2964
 3472SOL    HW114332   7.454   7.795   4.874 -3.0566 -0.1751 -2.9588
 3472SOL    HW214333   7.413   7.692   4.977  1.2689  1.6562  1.0093
 3473SOL     OW14334   9.857   1.601   0.929  0.0128  0.1924  0.2123
 3473SOL    HW114335   9.819   1.687   0.909  1.9898  0.8332 -1.0359
 3473SOL    HW214336   9.782   1.541   0.925 -1.0112  1.4875 -1.4273
 3474SOL     OW14337   3.130   9.319   0.405 -0.1591 -0.5205 -0.6844
 3474SOL    HW114338   3.190   9.320   0.479 -1.1955  2.5431  0.2686
 3474SOL    HW214339   3.187   9.332   0.328  0.6181  0.0892 -0.0230
 3475SOL     OW14340   0.270   8.824   2.519  0.2487 -0.1636 -0.0607
 3475SOL    HW114341   0.179   8.801   2.536 -0.0788 -0.6644 -2.1209
 3475SOL    HW214342   0.266   8.880   2.441  1.6752  0.1074  0.0322
 3476SOL     OW14343   9.412   0.927   7.770  0.2107  0.1824 -0.0382
 3476SOL    HW114344   9.407   0.977   7.689  1.1271  0.3579 -0.0035
 3476SOL    HW214345   9.323   0.928   7.805 -0.6865 -1.6440 -2.0545
 3477SOL     OW14346   7.278   3.763   9.559  0.7610 -0.3782  0.2058
 3477SOL    HW114347   7.229   3.830   9.512 -0.8751 -1.4256  0.3267
 3477SOL    HW214348   7.369   3.790   9.552  0.3876  0.5453 -1.8442
 3478SOL     OW14349   7.681   1.688   3.694 -0.2893 -0.8920 -1.0880
 3478SOL    HW114350   7.678   1.660   3.602 -1.8740 -1.1267 -0.9971
 3478SOL    HW214351   7.674   1.607   3.744 -0.1519 -0.7033 -0.7634
 3479SOL     OW14352   8.774   2.251   8.156  0.0654 -0.1194 -0.1489
 3479SOL    HW114353   8.755   2.161   8.182 -0.6974 -0.6530 -2.3278
 3479SOL    HW214354   8.701   2.302   8.193 -0.0520 -0.5482  0.2260
 3480SOL     OW14355   7.820   4.172   2.491  0.1399  0.1045  0.1734
 3480SOL    HW114356   7.905   4.178   2.448 -0.4804  0.1359 -1.0950
 3480SOL    HW214357   7.761   4.136   2.424 -1.4249  2.5162  0.1425
 3481SOL     OW14358   6.235   1.233   5.116  0.5511  0.1875 -0.0715
 3481SOL    HW114359   6.228   1.319   5.074  2.5985  0.5447  0.2149
 3481SOL    HW214360   6.305   1.189   5.069  2.5014  0.3555  2.4857
 3482SOL     OW14361   4.170   9.833   6.349 -0.2329 -0.2573 -0.3017
 3482SOL    HW114362   4.142   9.920   6.320  1.5091  0.1147 -1.0205
 3482SOL    HW214363   4.179   9.782   6.269 -2.2775 -1.4747  0.1929
 3483SOL     OW14364   6.571   1.690   8.954  0.2307  0.2437  0.0883
 3483SOL    HW114365   6.632   1.730   9.016 -0.6344 -0.6205  1.5389
 3483SOL    HW214366   6.500   1.754   8.945  0.8667  0.8438 -0.8902
 3484SOL     OW14367  10.189   6.425   6.878  0.4838 -0.0837  0.1457
 3484SOL    HW114368  10.211   6.439   6.786 -0.3227 -0.1610 -0.0707
 3484SOL    HW214369  10.107   6.374   6.875  1.4651 -1.8016  0.8978
 3485SOL     OW14370   9.479   3.799   4.267 -0.1222  0.1505  0.1932
 3485SOL    HW114371   9.408   3.800   4.203  0.2497  0.3517 -0.2206
 3485SOL    HW214372   9.473   3.884   4.311 -0.1999  0.1270  0.2274
 3486SOL     OW14373   9.262   1.403   7.767 -0.1525 -0.3690  0.0482
 3486SOL    HW114374   9.308   1.487   7.757 -1.5686  0.2951 -1.4300
 3486SOL    HW214375   9.170   1.427   7.775 -0.6425 -1.7919 -0.9599
 3487SOL     OW14376   6.635   3.912   6.844 -0.1852 -0.2064 -0.4020
 3487SOL    HW114377   6.648   3.881   6.934  0.9783  0.7904 -0.1992
 3487SOL    HW214378   6.724   3.924   6.810 -0.5968  1.1239 -1.0647
 3488SOL     OW14379   3.301   2.525   9.636  0.2076  0.0407  0.0848
 3488SOL    HW114380   3.245   2.450   9.653  0.3237  0.0609  0.5605
 3488SOL    HW214381   3.310   2.527   9.541 -0.2048 -0.2482  0.0378
 3489SOL     OW14382   0.074   8.623   6.421  0.4487  0.2553  0.5927
 3489SOL    HW114383   0.161   8.606   6.384  1.2428  0.3809  2.3075
 3489SOL    HW214384   0.021   8.549   6.391  1.3104 -0.1539  0.0230
 3490SOL     OW14385   8.186   2.825   4.353 -0.1920 -0.0578 -0.5113
 3490SOL    HW114386   8.185   2.772   4.433 -1.1552 -0.2433 -0.6353
 3490SOL    HW214387   8.099   2.814   4.316  0.0396  0.5405 -1.2564
 3491SOL     OW14388   6.427   7.268   1.761 -0.2764 -0.1097 -0.2646
 3491SOL    HW114389   6.464   7.228   1.839  0.8825 -0.9991 -1.2243
 3491SOL    HW214390   6.452   7.361   1.767  1.1324 -0.4696 -0.3022
 3492SOL     OW14391   8.000   1.911   4.693 -0.2015 -0.3464  0.2764
 3492SOL    HW114392   8.046   1.946   4.769 -0.8491 -1.7405  1.3679
 3492SOL    HW214393   7.911   1.947   4.701  0.0478  0.5035 -0.5491
 3493SOL     OW14394   6.130   3.939   1.819  0.0882 -0.3188  0.2215
 3493SOL    HW114395   6.162   3.912   1.905 -0.0959 -4.1210 -0.6952
 3493SOL    HW214396   6.208   3.938   1.763 -0.0669  0.3532 -0.0118
 3494SOL     OW14397   4.710   2.302   8.275  0.6904 -0.1581 -0.1749
 3494SOL    HW114398   4.803   2.315   8.254  1.1213 -0.4302  1.4285
 3494SOL    HW214399   4.697   2.208   8.269  1.0108 -0.3271  1.3852
 3495SOL     OW14400   7.436   9.536   1.830 -0.1963  0.1648 -0.0111
 3495SOL    HW114401   7.408   9.449   1.803  0.4269 -0.5201  1.4160
 3495SOL    HW214402   7.417   9.592   1.755 -1.0200 -1.1110 -0.7922
 3496SOL     OW14403   6.164   3.241   7.885  0.1088  0.1716 -0.0030
 3496SOL    HW114404   6.098   3.265   7.950  1.2505 -1.3253  1.7920
 3496SOL    HW214405   6.204   3.324   7.861 -0.9448  0.8615  0.5054
 3497SOL     OW14406   3.149   1.726   1.116  0.5001 -0.0009  0.5643
 3497SOL    HW114407   3.180   1.681   1.194  1.3984 -0.3838  0.0088
 3497SOL    HW214408   3.215   1.707   1.049  0.7716  1.9310  0.2258
 3498SOL     OW14409   6.564   7.245   3.279  0.3793  0.7268 -0.3111
 3498SOL    HW114410   6.528   7.334   3.285  1.4000  1.1912 -0.7661
 3498SOL    HW214411   6.489   7.188   3.295 -0.4414  1.6616 -0.6929
 3499SOL     OW14412   9.279   6.010   2.084  0.3045 -0.1381 -0.3285
 3499SOL    HW114413   9.353   6.066   2.060 -1.6002  2.8987  0.3137
 3499SOL    HW214414   9.266   6.026   2.178 -1.1574 -0.5823 -0.4297
 3500SOL     OW14415   4.956   5.944   8.417 -0.1907  0.0582 -0.4194
 3500SOL    HW114416   5.044   5.975   8.396  0.2082 -1.2899 -0.8417
 3500SOL    HW214417   4.970   5.858   8.458 -1.2009  0.7368  1.4807
 3501SOL     OW14418  10.130   3.108   2.122 -0.6702  0.5293  1.0126
 3501SOL    HW114419  10.184   3.085   2.198  0.2531 -0.0476  0.2067
 3501SOL    HW214420  10.041   3.089   2.149 -0.2672 -0.5064  1.6640
 3502SOL     OW14421   6.138   2.084   7.934 -0.4768 -0.4534 -0.6250
 3502SOL    HW114422   6.198   2.010   7.932 -0.9525 -0.8352 -1.1389
 3502SOL    HW214423   6.147   2.124   7.848 -0.2325  0.0799 -0.3540
 3503SOL     OW14424   5.627   2.251   6.053 -0.8081  0.3840  0.2040
 3503SOL    HW114425   5.578   2.320   6.099 -2.4734 -1.0022  0.6162
 3503SOL    HW214426   5.578   2.171   6.071  1.2893 -1.0055  0.0830
 3504SOL     OW14427   0.888   1.500   7.323 -0.2487 -0.7705 -0.3544
 3504SOL    HW114428   0.911   1.585   7.285  1.7382 -1.4311 -0.7227
 3504SOL    HW214429   0.821   1.522   7.389 -1.0913  0.8271 -1.6408
 3505SOL     OW14430   7.629   8.496   5.321  0.4893  0.1814  0.3247
 3505SOL    HW114431   7.554   8.543   5.286  0.7278  0.1825 -0.1999
 3505SOL    HW214432   7.700   8.561   5.321  1.8782 -0.9571 -3.8894
 3506SOL     OW14433   6.253   5.388   2.972 -0.4044  0.3264 -0.1414
 3506SOL    HW114434   6.185   5.378   3.039 -1.3764 -1.5053 -1.3066
 3506SOL    HW214435   6.210   5.361   2.891  1.1149  1.2326 -1.2824
 3507SOL     OW14436   6.664   8.979   0.538  0.5988  0.1246 -0.7104
 3507SOL    HW114437   6.683   8.886   0.527  0.9004  0.2738 -1.5233
 3507SOL    HW214438   6.643   8.988   0.631  1.9935 -0.5015 -0.3060
 3508SOL     OW14439   9.775  10.198   7.599 -0.0468  0.4361 -0.1756
 3508SOL    HW114440   9.732  10.272   7.643  1.7599  1.6140 -0.2582
 3508SOL    HW214441   9.829  10.158   7.668  0.6909  0.6001 -0.6451
 3509SOL     OW14442   7.193   8.972   2.905  0.3611 -0.4639  0.3016
 3509SOL    HW114443   7.189   9.029   2.982 -1.3224 -0.7448  0.4518
 3509SOL    HW214444   7.275   8.924   2.916 -0.2803 -1.1948  2.4472
 3510SOL     OW14445   2.879   4.592   6.988 -0.1060  0.6846  0.4559
 3510SOL    HW114446   2.935   4.517   6.968  0.3193  1.4356 -1.4722
 3510SOL    HW214447   2.835   4.612   6.905 -2.0245  1.1337  1.5033
 3511SOL     OW14448   9.686  10.040   2.353  0.1079 -0.3332  0.4696
 3511SOL    HW114449   9.770  10.082   2.371  0.6196 -1.7596  1.5539
 3511SOL    HW214450   9.643  10.034   2.439 -0.0782 -1.7297  0.2929
 3512SOL     OW14451   7.974   5.963   5.613  0.5753 -0.6848 -0.6229
 3512SOL    HW114452   7.975   6.011   5.695 -1.4015 -0.5740 -0.6118
 3512SOL    HW214453   8.057   5.985   5.571  0.2311  1.8693 -0.1335
 3513SOL     OW14454   3.384   4.463   7.748  0.0979 -0.3594  0.1030
 3513SOL    HW114455   3.337   4.454   7.830 -1.3017 -0.8541 -0.7197
 3513SOL    HW214456   3.317   4.484   7.683  0.6033 -3.1750 -1.5109
 3514SOL     OW14457   4.295   2.365   3.824 -0.5020  0.1950 -0.2149
 3514SOL    HW114458   4.312   2.312   3.746 -2.2763 -0.4612 -0.2089
 3514SOL    HW214459   4.200   2.372   3.828 -0.5121 -0.4473  2.3272
 3515SOL     OW14460   8.178   6.607   8.724 -0.1283 -0.5591  0.1479
 3515SOL    HW114461   8.267   6.574   8.730  0.4731  0.8914 -0.4036
 3515SOL    HW214462   8.135   6.549   8.661  1.0809  0.0426 -1.2968
 3516SOL     OW14463   6.167   5.767   3.297  0.0029  0.6258  0.5555
 3516SOL    HW114464   6.169   5.777   3.202  0.9751 -0.1739  0.4795
 3516SOL    HW214465   6.097   5.826   3.325  0.4080  1.6792 -0.5406
 3517SOL     OW14466   7.447   5.226   0.265  0.2024  0.9479  0.1753
 3517SOL    HW114467   7.468   5.146   0.313  2.3252  1.6374  0.4916
 3517SOL    HW214468   7.405   5.195   0.185  1.7146 -0.5663 -0.0874
 3518SOL     OW14469   6.650   1.066   6.796 -0.3675  0.3466  0.4563
 3518SOL    HW114470   6.555   1.080   6.803 -0.0741  1.7537  2.8317
 3518SOL    HW214471   6.661   0.972   6.809 -1.4435  0.1471  0.0587
 3519SOL     OW14472   2.397   3.833   9.982 -0.0347 -0.2801  0.7354
 3519SOL    HW114473   2.384   3.741  10.005  1.6431 -1.3536 -2.0663
 3519SOL    HW214474   2.491   3.842   9.967 -0.1254  1.9691  1.0792
 3520SOL     OW14475   0.792   6.021   8.709 -0.3482  0.0422  0.0204
 3520SOL    HW114476   0.766   5.929   8.703  1.2581 -0.5449  1.3179
 3520SOL    HW214477   0.791   6.052   8.618 -0.0530 -1.5218 -0.5492
 3521SOL     OW14478   6.287   8.939   1.149 -0.1441 -0.5756  0.2343
 3521SOL    HW114479   6.333   8.907   1.071 -0.0175 -0.6558  0.3406
 3521SOL    HW214480   6.340   9.012   1.179 -0.5083 -0.1695 -0.0887
 3522SOL     OW14481   3.355   9.124   5.798  0.1932 -0.1821 -0.0502
 3522SOL    HW114482   3.284   9.156   5.854 -0.6871  0.5161 -1.5151
 3522SOL    HW214483   3.395   9.053   5.849 -0.2823  0.6969  1.6341
 3523SOL     OW14484   9.212   5.521   9.040  0.0719 -0.3084 -0.8644
 3523SOL    HW114485   9.233   5.587   9.107  3.6339 -0.9160 -1.1818
 3523SOL    HW214486   9.126   5.487   9.066  1.2167 -0.4785  3.4310
 3524SOL     OW14487   5.935   1.824   4.074 -0.2092  0.0697 -0.0939
 3524SOL    HW114488   5.954   1.826   3.980 -0.8849 -1.6954 -0.3105
 3524SOL    HW214489   6.019   1.806   4.116 -0.2196 -1.1027 -0.5370
 3525SOL     OW14490   3.185   1.197   6.290  0.2576 -0.2947 -0.6670
 3525SOL    HW114491   3.233   1.261   6.238  2.9955 -0.6149  1.2712
 3525SOL    HW214492   3.248   1.128   6.308 -1.1410 -1.1267  1.4394
 3526SOL     OW14493   2.935   8.260   6.470  0.2429 -0.1109 -0.1630
 3526SOL    HW114494   3.010   8.319   6.480 -0.3870  0.9153 -1.1463
 3526SOL    HW214495   2.865   8.302   6.522 -0.1094 -0.1558 -0.5904
 3527SOL     OW14496   1.050   6.127   7.000  0.6377  0.0250 -0.7158
 3527SOL    HW114497   1.021   6.163   6.917 -1.3718  1.1664  0.3875
 3527SOL    HW214498   1.107   6.194   7.038  1.7290 -0.5877 -1.2406
 3528SOL     OW14499   2.466   8.832   8.778  0.0535 -0.1005 -0.3749
 3528SOL    HW114500   2.557   8.836   8.805 -0.0573 -1.1624  0.2208
 3528SOL    HW214501   2.417   8.867   8.852  0.0213  1.6608 -1.1790
 3529SOL     OW14502   0.125   0.192   5.193  0.1080 -0.1205  0.0284
 3529SOL    HW114503   0.203   0.192   5.248  0.2221  1.5379 -0.0824
 3529SOL    HW214504   0.147   0.250   5.120 -1.6002  1.3489  0.6114
 3530SOL     OW14505   2.339   3.724   5.301  0.5701  0.0555  0.5590
 3530SOL    HW114506   2.355   3.667   5.376 -0.2293 -0.4376  0.3709
 3530SOL    HW214507   2.421   3.725   5.253  0.8202 -0.3392  0.9713
 3531SOL     OW14508   6.957   2.611   0.843  0.0492  0.3193  0.2464
 3531SOL    HW114509   6.868   2.615   0.879 -1.1654  2.8177 -2.5449
 3531SOL    HW214510   7.002   2.686   0.882  0.6961 -0.4489  1.0085
 3532SOL     OW14511   5.153   1.115  10.113 -0.3842 -0.7217 -0.1947
 3532SOL    HW114512   5.214   1.041  10.104  0.6223  0.1960 -1.1641
 3532SOL    HW214513   5.176   1.154  10.197 -0.0911 -0.7905 -0.2390
 3533SOL     OW14514   2.356   1.478   5.903 -0.4949 -0.7377  0.3076
 3533SOL    HW114515   2.370   1.413   5.835 -3.0139  0.2157 -1.2504
 3533SOL    HW214516   2.316   1.429   5.975  0.8419 -1.4854  0.5768
 3534SOL     OW14517   3.025   2.735   3.137 -0.5780 -0.0655 -0.1591
 3534SOL    HW114518   3.092   2.778   3.188 -0.1360 -0.8124 -0.0989
 3534SOL    HW214519   3.030   2.777   3.051  0.3642 -0.5118 -0.3326
 3535SOL     OW14520   2.250   2.118   6.746  0.2179  0.3222  0.3176
 3535SOL    HW114521   2.200   2.067   6.683  1.8117 -1.0663  0.1019
 3535SOL    HW214522   2.185   2.154   6.806 -1.0213 -1.8483  0.3710
 3536SOL     OW14523   5.323   0.198   7.908 -0.2427 -0.3960  0.3331
 3536SOL    HW114524   5.319   0.127   7.972 -4.5518 -0.2852  0.4523
 3536SOL    HW214525   5.311   0.155   7.823  0.0521 -0.0496  0.1115
 3537SOL     OW14526   8.722   5.595   9.649  0.3925 -0.6170  0.0868
 3537SOL    HW114527   8.731   5.532   9.578 -0.3376 -0.5355 -0.0860
 3537SOL    HW214528   8.812   5.615   9.675  0.6443 -1.2439 -0.2797
 3538SOL     OW14529   9.892   7.401   9.933 -0.5163 -0.7158  0.2338
 3538SOL    HW114530   9.971   7.392   9.880 -1.1785  0.8048 -1.0648
 3538SOL    HW214531   9.820   7.374   9.876 -1.0801 -0.7863  0.9532
 3539SOL     OW14532   0.898   0.860   0.865 -0.0652  0.4058  0.4744
 3539SOL    HW114533   0.848   0.805   0.805  1.2167 -0.9906  0.6235
 3539SOL    HW214534   0.880   0.949   0.837 -2.5158 -0.0446  0.4639
 3540SOL     OW14535   8.385   8.614  10.135  0.0744  0.1039 -0.3930
 3540SOL    HW114536   8.387   8.706  10.165  0.0706  0.1126 -0.4194
 3540SOL    HW214537   8.414   8.618  10.044  0.0421  0.0825 -0.4047
 3541SOL     OW14538   5.121   1.700   7.016  0.4597  0.4879  0.1881
 3541SOL    HW114539   5.179   1.648   6.961  0.0251 -0.6501  0.7745
 3541SOL    HW214540   5.120   1.786   6.974  1.5626  0.1728 -0.5400
 3542SOL     OW14541   4.180   5.708   8.122  0.1177  0.2714 -0.2943
 3542SOL    HW114542   4.132   5.670   8.196  1.6188  0.7727  0.9964
 3542SOL    HW214543   4.143   5.796   8.112  1.2119  0.9394  1.1933
 3543SOL     OW14544   5.902   1.895   9.818  0.5582 -0.1963 -0.1480
 3543SOL    HW114545   5.988   1.893   9.859 -0.3772  1.1199  2.0493
 3543SOL    HW214546   5.842   1.868   9.887 -0.9523  0.5140 -1.1269
 3544SOL     OW14547   9.898   4.734   5.702  0.0194 -0.0245  0.2373
 3544SOL    HW114548   9.827   4.780   5.747 -1.3007 -0.7805 -1.0067
 3544SOL    HW214549   9.925   4.794   5.633 -0.2171 -0.2202 -0.0258
 3545SOL     OW14550   0.416   2.562   6.458 -0.1904 -0.0045 -0.1279
 3545SOL    HW114551   0.374   2.644   6.482  1.4136  0.4172  1.4592
 3545SOL    HW214552   0.345   2.507   6.426 -1.3289  1.9339 -1.1092
 3546SOL     OW14553  10.066   4.925   5.964 -0.2158  0.0258 -0.3127
 3546SOL    HW114554  10.152   4.907   5.925 -0.0642  0.8208 -0.3601
 3546SOL    HW214555  10.031   4.998   5.912  0.0960  1.2798  1.1717
 3547SOL     OW14556   0.003   0.621   4.944  0.0533 -0.2191  0.3049
 3547SOL    HW114557   0.054   0.649   5.020  0.4512  2.1974 -0.7351
 3547SOL    HW214558   0.002   0.698   4.886 -2.5564 -1.0317 -0.9149
 3548SOL     OW14559   4.441   0.285   3.546  0.0188  0.3914 -0.1457
 3548SOL    HW114560   4.490   0.338   3.484  0.4091 -0.3988 -0.5170
 3548SOL    HW214561   4.372   0.344   3.579  1.2930  1.5634  0.5153
 3549SOL     OW14562   3.609   8.474   9.397 -0.2317  0.2220 -0.0543
 3549SOL    HW114563   3.691   8.451   9.441  0.7128  0.0799 -1.7846
 3549SOL    HW214564   3.579   8.391   9.359 -0.9531  0.3645  0.1957
 3550SOL     OW14565   0.326   1.820   5.082 -0.0088  0.2913  0.7071
 3550SOL    HW114566   0.409   1.855   5.049  0.3446 -0.4820  0.7609
 3550SOL    HW214567   0.350   1.739   5.128 -0.9213 -0.5328 -0.2200
 3551SOL     OW14568   6.554   4.946   1.066  0.3924  0.9993  0.8302
 3551SOL    HW114569   6.574   4.907   1.151 -0.7569  2.5350  1.8594
 3551SOL    HW214570   6.465   4.979   1.075  0.1049  0.8500 -1.1212
 3552SOL     OW14571   4.948   4.855   9.341 -0.1823 -0.7163  0.4474
 3552SOL    HW114572   4.984   4.828   9.426 -0.6978  0.3830  1.0370
 3552SOL    HW214573   4.871   4.800   9.329 -0.6818 -0.2030  1.1847
 3553SOL     OW14574   0.986   3.417   7.664 -0.0449 -0.2607  0.7394
 3553SOL    HW114575   1.010   3.406   7.572 -0.6819 -1.6107  0.7022
 3553SOL    HW214576   0.986   3.512   7.678  1.2508 -0.0800 -0.3120
 3554SOL     OW14577   0.944   1.933   6.963  0.0829  0.0698  0.2740
 3554SOL    HW114578   0.983   1.945   7.049 -0.8963  1.8903  0.5310
 3554SOL    HW214579   0.917   1.842   6.961  0.5224 -0.1223  1.7210
 3555SOL     OW14580   6.516   6.617   0.171 -0.3776 -0.2896  0.1624
 3555SOL    HW114581   6.576   6.592   0.242  0.0167  0.9847  0.2950
 3555SOL    HW214582   6.520   6.544   0.110 -0.7458 -1.4348  1.4497
 3556SOL     OW14583   3.552   3.304   8.168 -0.0562  0.2750 -0.0570
 3556SOL    HW114584   3.645   3.311   8.188 -0.3582  1.7805  1.0637
 3556SOL    HW214585   3.543   3.221   8.121  1.9733  0.5587 -1.0565
 3557SOL     OW14586   7.115   4.890   8.890  0.2078 -0.0951  0.7746
 3557SOL    HW114587   7.147   4.913   8.977 -0.1982 -0.0445  0.9108
 3557SOL    HW214588   7.024   4.918   8.890 -0.0711 -0.9751  0.6648
 3558SOL     OW14589   4.241   1.940   5.384  0.1907 -0.6559 -0.1907
 3558SOL    HW114590   4.279   1.974   5.303  0.7279  0.0111  0.3397
 3558SOL    HW214591   4.263   1.846   5.383  2.3058 -0.2113  0.3397
 3559SOL     OW14592   9.091   0.799   5.581 -0.3743  0.3280 -0.9282
 3559SOL    HW114593   9.184   0.823   5.583 -0.9021  2.6539 -1.4192
 3559SOL    HW214594   9.061   0.813   5.671 -0.1262 -1.0735 -0.6121
 3560SOL     OW14595   3.869   9.109   3.935 -0.2516 -0.1621 -0.0273
 3560SOL    HW114596   3.922   9.186   3.913  0.6180 -0.8048 -0.2532
 3560SOL    HW214597   3.804   9.142   3.997  0.9865  0.4950  0.9742
 3561SOL     OW14598   0.750   4.384   5.840  0.1357  0.3587  0.0603
 3561SOL    HW114599   0.704   4.408   5.759  1.0509  1.2903 -0.2131
 3561SOL    HW214600   0.718   4.446   5.905 -1.1533 -0.8584  0.6370
 3562SOL     OW14601   1.798   0.458   0.656 -0.3523  0.7292  0.0728
 3562SOL    HW114602   1.706   0.462   0.632 -0.3135 -0.4588 -0.3100
 3562SOL    HW214603   1.798   0.421   0.745 -0.1677 -1.6989 -0.8530
 3563SOL     OW14604   5.192   4.087   2.047  0.5121  0.0850 -0.4178
 3563SOL    HW114605   5.285   4.076   2.028  0.5051  0.1324 -0.4790
 3563SOL    HW214606   5.161   3.998   2.066  1.0378  0.3119  1.7670
 3564SOL     OW14607   1.946   7.102   6.412 -0.1535 -0.0041 -0.0042
 3564SOL    HW114608   1.897   7.021   6.427  2.2935 -1.5075  0.4709
 3564SOL    HW214609   1.931   7.123   6.320 -0.7935 -1.0277 -0.1497
 3565SOL     OW14610   8.354   3.127   0.696  0.4293 -0.0956  0.5574
 3565SOL    HW114611   8.363   3.136   0.601  1.4285  2.0748  0.8132
 3565SOL    HW214612   8.259   3.125   0.710  0.2665 -0.4877 -0.4804
 3566SOL     OW14613   3.350   0.190   2.620  0.2674  0.2108  0.7011
 3566SOL    HW114614   3.383   0.121   2.676  0.8831  0.3811  0.5571
 3566SOL    HW214615   3.317   0.257   2.680 -0.5586 -0.3173  0.8354
 3567SOL     OW14616   2.140   1.561   6.445  0.3261  0.5558 -0.3441
 3567SOL    HW114617   2.167   1.637   6.497  0.9773 -1.5031  2.6144
 3567SOL    HW214618   2.201   1.559   6.372  2.7031  0.8764  1.5046
 3568SOL     OW14619   6.872   3.301   3.565 -0.6128 -0.0681  0.5613
 3568SOL    HW114620   6.872   3.384   3.613 -0.5029 -1.6595  3.5165
 3568SOL    HW214621   6.964   3.283   3.548 -0.5574 -0.0907  0.8765
 3569SOL     OW14622   0.034   7.677   1.743 -0.6003  0.0598 -0.0085
 3569SOL    HW114623   0.113   7.641   1.703 -1.4761 -0.9722 -0.8315
 3569SOL    HW214624   0.038   7.771   1.722 -0.1997 -0.1816 -1.0583
 3570SOL     OW14625   0.296   8.085   5.864  0.2191 -0.1997 -0.1600
 3570SOL    HW114626   0.314   8.007   5.812 -1.4111  1.0506 -2.8524
 3570SOL    HW214627   0.357   8.151   5.831 -0.3559  0.4358  0.0169
 3571SOL     OW14628   7.239   5.350   3.378  0.0416  0.3141 -0.0863
 3571SOL    HW114629   7.184   5.428   3.383  1.6064  1.4048  3.0641
 3571SOL    HW214630   7.328   5.382   3.392  0.9404 -1.8539 -0.4552
 3572SOL     OW14631   4.345   9.562   1.142  0.7023 -0.0540 -0.1962
 3572SOL    HW114632   4.416   9.602   1.192  0.1774 -0.0909  0.5917
 3572SOL    HW214633   4.360   9.591   1.052  0.5362  1.6511  0.2848
 3573SOL     OW14634   3.249   3.849   4.964 -0.7824  0.0036 -0.0595
 3573SOL    HW114635   3.224   3.910   5.033  0.9755  0.0070  0.6408
 3573SOL    HW214636   3.170   3.836   4.912 -1.5042  1.9098  0.5062
 3574SOL     OW14637   2.382   2.947   9.858 -0.3521  0.0429  0.1268
 3574SOL    HW114638   2.427   2.944   9.943 -1.7779  1.1131  0.9832
 3574SOL    HW214639   2.368   3.040   9.842  0.6643 -0.0787 -1.7656
 3575SOL     OW14640   2.218   6.247   9.833  0.4091  0.2513 -0.0337
 3575SOL    HW114641   2.126   6.258   9.855  0.1126  1.7437 -1.8031
 3575SOL    HW214642   2.229   6.152   9.823 -0.9165  0.0483  0.2143
 3576SOL     OW14643   6.465   6.488   1.909  0.3988  0.5193 -0.3101
 3576SOL    HW114644   6.556   6.467   1.889  0.0434 -0.9289 -0.5119
 3576SOL    HW214645   6.469   6.575   1.950  2.1165 -0.4537  1.7747
 3577SOL     OW14646   6.307   9.696   8.011 -0.1757  0.4904 -0.2003
 3577SOL    HW114647   6.352   9.613   7.998 -1.7723 -0.5024  0.2700
 3577SOL    HW214648   6.370   9.763   7.985  1.3347 -0.8431 -0.0591
 3578SOL     OW14649   7.329   7.690   6.099  0.1898  0.5211 -0.0140
 3578SOL    HW114650   7.286   7.774   6.117 -0.6960  0.0878 -0.0938
 3578SOL    HW214651   7.330   7.645   6.183 -0.1013  0.2577 -0.1521
 3579SOL     OW14652   0.957   8.972   4.018  0.3660 -0.0977  0.0483
 3579SOL    HW114653   0.933   9.004   4.106 -0.5572  0.0348 -0.2367
 3579SOL    HW214654   1.035   9.022   3.995  0.4676  0.0563  0.6877
 3580SOL     OW14655   9.619   8.894   4.453 -0.2942  0.1186 -0.2036
 3580SOL    HW114656   9.706   8.888   4.413 -0.1769  0.9383 -0.0900
 3580SOL    HW214657   9.599   8.987   4.454 -0.1789  0.1581  1.9210
 3581SOL     OW14658   1.972   9.444   9.729  0.3991 -0.9308  0.7762
 3581SOL    HW114659   1.924   9.366   9.755 -0.7506 -0.2807  0.6929
 3581SOL    HW214660   2.057   9.437   9.774  0.3693 -2.2771  0.6438
 3582SOL     OW14661   3.668   2.971   3.373  0.2888  0.1925 -0.5026
 3582SOL    HW114662   3.727   2.908   3.332  0.5818  0.9038 -1.1912
 3582SOL    HW214663   3.603   2.990   3.306  0.4017  0.8917 -0.4165
 3583SOL     OW14664   1.816   4.815   1.460  0.2449 -0.5208  0.9419
 3583SOL    HW114665   1.875   4.764   1.517  2.6591  1.6372  0.5890
 3583SOL    HW214666   1.819   4.769   1.376  0.8452 -0.8639  1.1373
 3584SOL     OW14667   7.395   3.858   0.193  0.2088  0.7272  0.1655
 3584SOL    HW114668   7.398   3.908   0.275  0.4022 -0.4120  0.8774
 3584SOL    HW214669   7.302   3.857   0.169  0.1855  1.3016  0.2099
 3585SOL     OW14670   4.695   9.906   3.308 -0.0721 -0.1424 -0.3230
 3585SOL    HW114671   4.741   9.875   3.230  0.3444 -0.7568  0.1576
 3585SOL    HW214672   4.749   9.878   3.381 -1.3538 -1.1836  0.2746
 3586SOL     OW14673   6.757   8.198   8.744  0.1242  0.0115 -0.6169
 3586SOL    HW114674   6.841   8.154   8.761  0.3242  0.0321 -1.5008
 3586SOL    HW214675   6.756   8.211   8.649 -0.8112  0.1639 -0.5907
 3587SOL     OW14676   2.588   0.637   5.201  0.0337 -0.2253 -0.6776
 3587SOL    HW114677   2.640   0.717   5.201 -0.0666 -0.1553 -1.3152
 3587SOL    HW214678   2.648   0.568   5.173  0.1307 -0.3866 -0.0895
 3588SOL     OW14679   0.191   8.424   8.280  0.5436 -0.0907  0.2507
 3588SOL    HW114680   0.133   8.500   8.289  2.1547  1.1055  0.9009
 3588SOL    HW214681   0.185   8.401   8.187 -0.3492  0.5002  0.1431
 3589SOL     OW14682   9.586   3.734   4.721  0.2995 -0.1322  0.1741
 3589SOL    HW114683   9.535   3.809   4.693  0.3878 -0.0110  0.3381
 3589SOL    HW214684   9.554   3.662   4.667  0.9456  0.2415 -0.7142
 3590SOL     OW14685   5.037   8.599   2.328  0.4586  0.0056 -0.0995
 3590SOL    HW114686   5.127   8.581   2.354  0.6675 -0.4067 -1.0783
 3590SOL    HW214687   5.044   8.669   2.263  0.0687 -0.0302 -0.1835
 3591SOL     OW14688   0.167   4.432   3.153 -0.2071 -0.5638 -0.0338
 3591SOL    HW114689   0.110   4.465   3.083  1.8783  0.5777 -1.3007
 3591SOL    HW214690   0.128   4.468   3.233 -0.9479  0.6738 -0.8978
 3592SOL     OW14691   7.651   7.972  10.098  0.4078  0.4216  0.5765
 3592SOL    HW114692   7.639   7.885  10.136 -1.0774  0.3681  0.0473
 3592SOL    HW214693   7.564   7.997  10.068  0.9409  1.8241  0.1337
 3593SOL     OW14694   9.510   6.762   6.442 -0.5999 -0.1824  0.3396
 3593SOL    HW114695   9.557   6.814   6.507  0.1076  0.5305 -0.7022
 3593SOL    HW214696   9.549   6.788   6.359 -2.5253  0.0664 -0.5337
 3594SOL     OW14697   3.277   2.500   3.990 -0.4476 -0.3676  0.1073
 3594SOL    HW114698   3.323   2.467   3.912 -2.1371  0.5497 -1.3390
 3594SOL    HW214699   3.300   2.592   3.995 -0.8250 -0.2816  0.3238
 3595SOL     OW14700   5.324   7.783   9.628  0.0000 -0.3301  0.4855
 3595SOL    HW114701   5.289   7.694   9.629  0.5968 -0.5645  0.8899
 3595SOL    HW214702   5.379   7.786   9.550 -1.2366  0.1761 -0.4032
 3596SOL     OW14703   2.236   9.155   5.945  0.0151  0.1228  0.2918
 3596SOL    HW114704   2.277   9.125   6.027  0.3717 -0.1658  0.0103
 3596SOL    HW214705   2.264   9.091   5.880  1.7628  1.6732 -0.5760
 3597SOL     OW14706   7.176   8.547   8.993  0.5080  0.3254 -0.0936
 3597SOL    HW114707   7.261   8.591   8.990  1.1007 -0.8208 -0.7037
 3597SOL    HW214708   7.113   8.618   8.983  1.3995  1.1364 -0.2060
 3598SOL     OW14709   9.966   7.985  10.044 -0.7240  0.0995  0.5846
 3598SOL    HW114710   9.953   7.914   9.981  0.6786 -1.0891  1.5770
 3598SOL    HW214711  10.006   8.056   9.992 -1.7571  0.0349 -0.3255
 3599SOL     OW14712   1.666   3.526   5.457  0.1225 -0.0209 -0.1705
 3599SOL    HW114713   1.633   3.616   5.460 -2.1806 -0.8430  1.4800
 3599SOL    HW214714   1.709   3.514   5.542 -0.7348 -0.8688  0.1518
 3600SOL     OW14715   9.983   5.990   5.957 -0.1559 -0.3802 -0.3035
 3600SOL    HW114716  10.049   6.041   5.911  2.1220 -2.3809  0.5781
 3600SOL    HW214717   9.930   5.951   5.887 -0.9354  1.7657 -1.0053
 3601SOL     OW14718   9.567   1.440   7.965 -0.5679  0.1798  0.0207
 3601SOL    HW114719   9.575   1.419   8.058 -0.7275  0.9772  0.2263
 3601SOL    HW214720   9.558   1.355   7.921  0.2487 -0.2406  0.6492
 3602SOL     OW14721   9.225   0.481   5.033 -0.1456  0.6319 -0.3450
 3602SOL    HW114722   9.214   0.485   5.128  0.6077  2.4796 -0.2953
 3602SOL    HW214723   9.167   0.409   5.005 -2.2207  1.5710  1.2477
 3603SOL     OW14724   2.774   6.264   1.659  0.4951  0.2222 -0.0306
 3603SOL    HW114725   2.766   6.359   1.670  1.5346  0.4478 -1.0669
 3603SOL    HW214726   2.866   6.250   1.639 -0.2610 -0.5607 -3.6657
 3604SOL     OW14727   1.393   2.071   9.874  0.7328 -0.2907 -0.0291
 3604SOL    HW114728   1.471   2.046   9.923  0.7128 -2.6665 -1.0868
 3604SOL    HW214729   1.423   2.141   9.816  2.0643 -1.0667 -0.3102
 3605SOL     OW14730   9.095   8.261   8.820  0.1327  0.0686 -0.2913
 3605SOL    HW114731   9.038   8.310   8.880  2.0590  0.7183  1.1212
 3605SOL    HW214732   9.062   8.171   8.824 -0.0366  0.1756  1.5035
 3606SOL     OW14733   0.271   0.538   3.431 -0.2650  0.0653  0.0527
 3606SOL    HW114734   0.314   0.537   3.517  1.5898 -1.7859 -0.7990
 3606SOL    HW214735   0.314   0.608   3.383 -0.3798  0.2398  0.2045
 3607SOL     OW14736   6.535   8.039   4.993  0.3780 -0.1204  0.7944
 3607SOL    HW114737   6.514   8.129   4.968  3.4220  0.6345  0.5757
 3607SOL    HW214738   6.455   8.006   5.034 -1.0864  2.3940  0.1627
 3608SOL     OW14739   3.570   0.293   5.541  0.3521  0.1978  0.1465
 3608SOL    HW114740   3.491   0.270   5.492  2.1567 -0.7340 -2.6267
 3608SOL    HW214741   3.580   0.223   5.605 -0.4845 -0.2816 -0.2258
 3609SOL     OW14742   5.710   1.737   5.342 -0.1196 -0.6370 -0.4613
 3609SOL    HW114743   5.766   1.728   5.265 -1.7785  0.1225 -1.7913
 3609SOL    HW214744   5.640   1.674   5.329 -1.6175  1.0219 -0.6949
 3610SOL     OW14745   6.757   9.265   2.444 -0.2079 -0.3524 -0.7583
 3610SOL    HW114746   6.707   9.263   2.525 -1.9490 -2.4122 -1.7800
 3610SOL    HW214747   6.810   9.186   2.446  2.0246  1.0728 -0.3612
 3611SOL     OW14748   2.149   5.613   4.356  0.5178  0.5647 -0.0579
 3611SOL    HW114749   2.163   5.668   4.434  1.0971 -0.0412  0.2775
 3611SOL    HW214750   2.143   5.524   4.391  1.7311  0.1735 -0.7903
 3612SOL     OW14751   6.477   4.605   7.056  0.4485 -0.2311 -0.1064
 3612SOL    HW114752   6.410   4.622   7.122 -0.2556  0.1791 -0.9125
 3612SOL    HW214753   6.445   4.528   7.010  0.6745 -0.1970 -0.3200
 3613SOL     OW14754   3.226   5.256   4.384 -0.4482 -0.2236  0.2867
 3613SOL    HW114755   3.314   5.220   4.397 -0.4100  0.1014  0.9925
 3613SOL    HW214756   3.242   5.348   4.361 -0.5378 -0.6410 -1.6166
 3614SOL     OW14757   6.127   6.700   5.766  0.4266 -0.2452  0.1411
 3614SOL    HW114758   6.214   6.740   5.764  0.6419 -0.6718 -2.1069
 3614SOL    HW214759   6.144   6.606   5.778  0.4263 -0.5147 -1.6492
 3615SOL     OW14760   1.301   3.277   5.974 -0.2167  0.1246 -0.8743
 3615SOL    HW114761   1.379   3.222   5.971  0.7602  1.5089 -2.0203
 3615SOL    HW214762   1.318   3.338   6.046  0.2742  1.1169 -1.8053
 3616SOL     OW14763   6.167   6.678   2.378  0.5372 -0.1155  0.3025
 3616SOL    HW114764   6.151   6.726   2.297  2.2567 -1.7308 -1.0846
 3616SOL    HW214765   6.132   6.591   2.361  1.4047 -0.6315  1.0937
 3617SOL     OW14766   4.827   3.295   4.037 -0.2638 -0.1687  0.6297
 3617SOL    HW114767   4.905   3.333   3.996  0.3201  0.1512  1.9968
 3617SOL    HW214768   4.849   3.203   4.049 -0.8687 -0.5170 -0.7567
 3618SOL     OW14769   4.960   1.026   8.390 -0.7259  0.2078 -0.0866
 3618SOL    HW114770   5.056   1.022   8.388 -0.7290 -0.6754  0.6344
 3618SOL    HW214771   4.935   1.055   8.303  0.1601 -0.6130 -0.6287
 3619SOL     OW14772   7.472   0.879   5.330  0.3039 -0.1818 -1.0554
 3619SOL    HW114773   7.551   0.829   5.306  0.1645  0.3151 -2.6823
 3619SOL    HW214774   7.460   0.941   5.258 -0.9968  0.4586 -0.3253
 3620SOL     OW14775   8.680   4.468   7.421 -0.3433 -0.4014 -0.8847
 3620SOL    HW114776   8.596   4.514   7.414  0.3717  0.9789 -0.6875
 3620SOL    HW214777   8.727   4.492   7.341  0.6876  0.5996 -0.0099
 3621SOL     OW14778   5.481   3.807   8.130 -0.1718 -0.7716 -0.1341
 3621SOL    HW114779   5.471   3.871   8.059  0.0030 -0.9517 -0.3232
 3621SOL    HW214780   5.414   3.831   8.193  0.5652  0.2581  0.2960
 3622SOL     OW14781   3.172   6.004   0.086 -0.0778  0.0175  0.0189
 3622SOL    HW114782   3.081   5.975   0.090 -0.0048 -0.7147 -2.0110
 3622SOL    HW214783   3.223   5.928   0.112 -0.0161  0.3418  0.8818
 3623SOL     OW14784   7.795   0.574   6.999  0.4456 -0.0885 -0.1162
 3623SOL    HW114785   7.732   0.510   7.031 -0.9280 -0.1214 -2.6334
 3623SOL    HW214786   7.797   0.560   6.904  2.8906  1.1609 -0.3362
 3624SOL     OW14787   2.947   3.920   2.229  0.4186  0.4991 -0.6098
 3624SOL    HW114788   2.963   3.828   2.209  0.2276  0.7648 -2.0963
 3624SOL    HW214789   2.852   3.925   2.241  0.3120  0.6549 -1.4575
 3625SOL     OW14790   2.888   7.311   0.842  0.1631  0.3178 -0.6042
 3625SOL    HW114791   2.808   7.321   0.893 -0.5263 -0.5235 -1.5010
 3625SOL    HW214792   2.890   7.388   0.784  0.5733  0.8937  0.1533
 3626SOL     OW14793   4.966   8.528   5.578  0.1652 -0.3962 -0.1266
 3626SOL    HW114794   4.974   8.484   5.493 -1.4807  0.5203 -0.7996
 3626SOL    HW214795   4.876   8.512   5.605  0.7628 -0.9847  1.6721
 3627SOL     OW14796   7.443   7.577   8.657  0.4980 -0.3062 -0.0281
 3627SOL    HW114797   7.387   7.611   8.727  1.6496  0.7346  0.4276
 3627SOL    HW214798   7.503   7.650   8.638  0.8844 -0.9559 -1.3567
 3628SOL     OW14799   4.883   3.070   0.061 -0.7347  0.0198 -0.3570
 3628SOL    HW114800   4.891   2.977   0.041  0.8878 -0.5977  2.7117
 3628SOL    HW214801   4.788   3.086   0.064 -1.1302 -0.6370 -4.0693
 3629SOL     OW14802   2.350   4.833   7.265 -0.1831 -0.6323  0.7355
 3629SOL    HW114803   2.268   4.880   7.247 -0.1904 -0.7156  0.5550
 3629SOL    HW214804   2.418   4.899   7.257 -0.0537 -0.9323 -0.8687
 3630SOL     OW14805   3.150   4.924   8.102 -0.2733  0.1289  0.1451
 3630SOL    HW114806   3.104   4.872   8.167 -2.2123 -0.1933 -1.3875
 3630SOL    HW214807   3.090   4.930   8.029  1.4917  1.1722 -1.3229
 3631SOL     OW14808   5.947   3.722   2.400  0.0038  0.2270  0.3377
 3631SOL    HW114809   5.991   3.807   2.405 -3.3756  2.0790  2.6938
 3631SOL    HW214810   5.903   3.722   2.316  1.2494  0.0491 -0.3428
 3632SOL     OW14811   4.413   3.992  10.081 -0.4205 -0.2859  0.3272
 3632SOL    HW114812   4.373   4.075  10.057  1.4604  0.4998 -0.3392
 3632SOL    HW214813   4.350   3.926  10.055 -1.8069  0.9027  0.5339
 3633SOL     OW14814   6.044   4.660   0.202  0.2871  0.2928  0.3184
 3633SOL    HW114815   6.028   4.568   0.181 -0.7746  0.8877 -1.7022
 3633SOL    HW214816   5.958   4.701   0.197  0.8549  1.5360  0.4842
 3634SOL     OW14817   1.308   5.718   4.307 -0.2542 -0.5682 -0.1893
 3634SOL    HW114818   1.398   5.713   4.276 -0.1354 -4.4728  0.2526
 3634SOL    HW214819   1.260   5.657   4.250 -1.8259 -1.2858  1.7865
 3635SOL     OW14820   2.139   7.186   8.384  0.0792  0.5795 -0.4662
 3635SOL    HW114821   2.103   7.137   8.458  1.2560 -0.3096 -0.4477
 3635SOL    HW214822   2.063   7.225   8.341 -0.6581  0.8287  1.0097
 3636SOL     OW14823   6.174   8.258   5.613  0.7015 -0.4034 -0.6220
 3636SOL    HW114824   6.121   8.188   5.652  0.5513  0.1613  0.2188
 3636SOL    HW214825   6.247   8.269   5.674  1.9493 -1.3360 -1.8891
 3637SOL     OW14826   8.395   7.895  10.076 -0.2351 -0.0170  0.0082
 3637SOL    HW114827   8.467   7.833  10.068 -0.0336  0.1784  0.3242
 3637SOL    HW214828   8.414   7.962  10.010  0.2321  0.3935  0.5543
 3638SOL     OW14829   0.105   2.957   6.310  0.3060 -0.0967  0.0917
 3638SOL    HW114830   0.084   2.876   6.357 -1.3723 -0.5199 -1.2981
 3638SOL    HW214831   0.069   3.026   6.365 -0.0041 -0.4406  0.3276
 3639SOL     OW14832   1.678   7.644   5.215 -0.1382 -0.0131 -0.0838
 3639SOL    HW114833   1.596   7.601   5.192 -0.0650 -0.6845  0.8682
 3639SOL    HW214834   1.702   7.693   5.136 -0.9873 -0.5249 -0.6769
 3640SOL     OW14835   2.431   6.814   4.518  0.6917  1.0879 -0.0965
 3640SOL    HW114836   2.449   6.801   4.611  0.6405 -0.4301 -0.2720
 3640SOL    HW214837   2.401   6.905   4.512  1.8110  1.5780  1.1824
 3641SOL     OW14838   4.987   2.964   5.005  0.3024 -0.2256  0.6061
 3641SOL    HW114839   4.988   2.874   5.040  1.0534 -0.2749  0.4927
 3641SOL    HW214840   4.987   2.952   4.910 -1.2490 -0.0920  0.5676
 3642SOL     OW14841   8.122   7.679   1.530  0.7289 -0.1012 -0.5111
 3642SOL    HW114842   8.118   7.607   1.593  0.8300  1.0848  0.9010
 3642SOL    HW214843   8.116   7.636   1.445 -2.5570 -1.5740  0.3050
 3643SOL     OW14844   5.028   9.741   5.038 -0.1067  0.2571 -0.1817
 3643SOL    HW114845   5.084   9.707   5.107  0.2455 -2.3504 -1.6206
 3643SOL    HW214846   4.980   9.813   5.079  0.8250 -0.5075  2.4430
 3644SOL     OW14847   5.391   8.160   5.983 -0.3187 -0.5855 -0.0941
 3644SOL    HW114848   5.391   8.166   5.887 -0.1269  0.6372 -0.0271
 3644SOL    HW214849   5.358   8.072   6.001  0.2950 -1.0988 -1.2998
 3645SOL     OW14850   7.206   6.823   1.268 -0.5125  0.2869  0.1833
 3645SOL    HW114851   7.256   6.896   1.305  0.7155 -0.5774  0.3065
 3645SOL    HW214852   7.246   6.745   1.307 -1.3948 -0.4878 -0.4204
 3646SOL     OW14853   5.816   3.930   5.552 -0.0235 -0.8610 -1.1911
 3646SOL    HW114854   5.779   3.999   5.497  0.3156 -0.4231 -0.8791
 3646SOL    HW214855   5.798   3.958   5.642  2.8454  0.4721 -0.9058
 3647SOL     OW14856   0.168   4.920   7.642 -0.0443  0.4093  0.2437
 3647SOL    HW114857   0.079   4.954   7.643 -0.6202 -0.9833 -0.2357
 3647SOL    HW214858   0.218   4.985   7.593 -0.3942  2.0472  1.9598
 3648SOL     OW14859   6.204   1.904   8.364 -0.1257 -0.0789 -0.6947
 3648SOL    HW114860   6.136   1.937   8.305 -0.4707  1.1470  0.3520
 3648SOL    HW214861   6.270   1.973   8.365 -0.8178  0.6344  1.4706
 3649SOL     OW14862   6.173   3.321   4.936  0.3810 -0.8034  0.1819
 3649SOL    HW114863   6.234   3.346   5.005 -0.7787  1.2657  0.5431
 3649SOL    HW214864   6.110   3.393   4.933 -2.4956 -3.0998  0.3788
 3650SOL     OW14865   2.242   0.152   1.211  0.1660 -0.2238 -0.7962
 3650SOL    HW114866   2.175   0.201   1.163 -0.4116 -1.8749 -1.7651
 3650SOL    HW214867   2.325   0.182   1.175  0.0359  2.0905  0.6476
 3651SOL     OW14868   4.736   7.308   4.887 -0.4367  0.0299 -0.1049
 3651SOL    HW114869   4.704   7.287   4.975  0.5197 -0.7517  0.0777
 3651SOL    HW214870   4.691   7.389   4.863  0.1244  0.8860  1.5677
 3652SOL     OW14871   5.730   1.515   2.207  0.7528  0.5316 -0.3477
 3652SOL    HW114872   5.809   1.524   2.154  0.3525  0.7040 -0.9256
 3652SOL    HW214873   5.722   1.421   2.224  1.3849  0.5704  0.1877
 3653SOL     OW14874   0.322   4.995   5.587  0.3015 -0.3566 -0.0510
 3653SOL    HW114875   0.387   5.040   5.534 -1.7632  1.3890 -1.2618
 3653SOL    HW214876   0.294   5.061   5.652 -1.4129 -0.4485 -0.6400
 3654SOL     OW14877   6.638   5.988   1.799 -0.0943 -0.1640  0.0920
 3654SOL    HW114878   6.722   5.946   1.819 -0.0239 -1.2647 -2.1790
 3654SOL    HW214879   6.575   5.916   1.797 -0.7054  0.3723 -0.1754
 3655SOL     OW14880   9.241   7.160   0.988 -0.0786 -0.4769  0.5089
 3655SOL    HW114881   9.217   7.093   1.053  0.2545 -1.3141 -0.2076
 3655SOL    HW214882   9.158   7.198   0.960 -0.2705 -0.5513  0.9612
 3656SOL     OW14883   5.244   1.639   4.184 -0.0066  0.2486 -0.1328
 3656SOL    HW114884   5.206   1.597   4.107  0.3478  1.7362 -1.1678
 3656SOL    HW214885   5.208   1.727   4.184  1.8861  1.0759 -0.0328
 3657SOL     OW14886  10.125   3.284   0.878 -0.8140 -0.5307  0.3074
 3657SOL    HW114887  10.060   3.243   0.935 -0.1120 -2.9166 -0.4495
 3657SOL    HW214888  10.140   3.219   0.809 -0.4325  1.5714 -1.6881
 3658SOL     OW14889   1.840   0.997   6.468 -0.6281  0.0783 -0.0284
 3658SOL    HW114890   1.766   1.034   6.517 -0.9393  0.5605 -0.8293
 3658SOL    HW214891   1.833   1.037   6.381  0.4923  0.0077 -0.1659
 3659SOL     OW14892   6.588   7.552   4.139  0.0937  0.2648  0.2361
 3659SOL    HW114893   6.599   7.547   4.044  1.2295  0.2294  0.3542
 3659SOL    HW214894   6.534   7.630   4.153 -0.0195  0.3105 -0.4333
 3660SOL     OW14895   4.697   4.805   8.010 -0.1758  0.1917  0.0041
 3660SOL    HW114896   4.730   4.876   8.065  1.0242  0.2665 -0.7752
 3660SOL    HW214897   4.671   4.847   7.929 -0.1163 -0.1718 -0.2053
 3661SOL     OW14898   5.435   9.028   9.799  0.5266 -0.3537 -0.0444
 3661SOL    HW114899   5.520   9.017   9.840  0.7878 -0.5320 -0.6156
 3661SOL    HW214900   5.426   8.951   9.743  0.0202 -0.3006 -0.0381
 3662SOL     OW14901   6.732   3.438   2.076  0.6848  0.2194  0.1844
 3662SOL    HW114902   6.650   3.485   2.088  1.0058  0.6767  0.6249
 3662SOL    HW214903   6.736   3.377   2.150  0.0788 -0.8026 -0.5994
 3663SOL     OW14904   6.211   4.867   1.274 -0.4810 -0.4703  0.3152
 3663SOL    HW114905   6.156   4.906   1.341 -0.8483  0.9679 -0.7649
 3663SOL    HW214906   6.301   4.884   1.303 -0.5617 -2.0880  1.6585
 3664SOL     OW14907   0.416   9.150   3.343 -0.0184 -0.2188  0.5333
 3664SOL    HW114908   0.415   9.070   3.290  0.8058  1.3103 -1.9237
 3664SOL    HW214909   0.412   9.118   3.433 -2.6594 -2.9374 -0.3649
 3665SOL     OW14910   2.077   7.607   4.293 -0.1756  0.0571  0.6002
 3665SOL    HW114911   1.989   7.621   4.257  0.3902 -2.9675 -2.5421
 3665SOL    HW214912   2.136   7.644   4.227  0.9009 -1.1930  0.8124
 3666SOL     OW14913   9.841   9.466   9.963 -0.1465 -0.4291 -0.1899
 3666SOL    HW114914   9.901   9.447   9.890  2.0393 -0.9415  1.6287
 3666SOL    HW214915   9.821   9.381  10.000 -0.6042 -0.1111  0.3022
 3667SOL     OW14916   1.711   1.588   3.093 -0.4095  0.1677 -0.4572
 3667SOL    HW114917   1.656   1.666   3.084 -1.6465 -0.7299 -1.0232
 3667SOL    HW214918   1.773   1.594   3.020 -0.5167  0.6056 -0.5163
 3668SOL     OW14919  10.181   9.082   9.935 -0.5657  0.0244  0.0069
 3668SOL    HW114920  10.098   9.081   9.886 -1.0636 -0.3503  0.8404
 3668SOL    HW214921  10.190   8.993   9.969  0.9030 -0.3418 -1.2347
 3669SOL     OW14922   8.824   5.497   3.889  0.0893 -0.1418  0.2632
 3669SOL    HW114923   8.792   5.477   3.802  1.4204 -1.9990  0.1575
 3669SOL    HW214924   8.908   5.541   3.875 -1.1052  2.4504  0.5960
 3670SOL     OW14925   2.451   9.698   9.014  0.1673 -0.0023  0.1600
 3670SOL    HW114926   2.503   9.764   9.060 -0.8599  1.1735 -0.2836
 3670SOL    HW214927   2.432   9.738   8.929 -0.2634 -0.9920 -0.2221
 3671SOL     OW14928   0.529   9.528   5.314 -0.6358  0.1935  0.4320
 3671SOL    HW114929   0.459   9.564   5.369  0.1017  2.0165  0.2648
 3671SOL    HW214930   0.610   9.553   5.360 -0.0469  0.4067 -0.6940
 3672SOL     OW14931   5.679   3.908   9.510  0.4746  0.6717  0.2073
 3672SOL    HW114932   5.675   3.910   9.414 -0.2007  0.2181  0.2200
 3672SOL    HW214933   5.764   3.947   9.531  1.2107 -0.4226 -0.6287
 3673SOL     OW14934   3.666   5.594   0.870 -0.5734 -0.5264 -0.6376
 3673SOL    HW114935   3.698   5.633   0.789 -0.2254 -0.7744 -0.6228
 3673SOL    HW214936   3.586   5.642   0.890 -1.1526 -1.0362 -1.6072
 3674SOL     OW14937   8.143   3.971   2.738  0.2154  0.0713 -0.4647
 3674SOL    HW114938   8.191   4.038   2.690 -0.3112  1.3294  0.7071
 3674SOL    HW214939   8.203   3.943   2.808 -0.7360  1.8257  1.1587
 3675SOL     OW14940   7.247   6.317   1.172  0.4850  0.3936 -0.1847
 3675SOL    HW114941   7.272   6.267   1.095  1.4096  0.0183  0.3491
 3675SOL    HW214942   7.214   6.400   1.137 -2.8308 -1.1588 -1.2205
 3676SOL     OW14943   5.990   9.566   5.311 -0.4262  0.5304 -0.0351
 3676SOL    HW114944   5.925   9.497   5.321  0.4076 -0.0932  1.4233
 3676SOL    HW214945   5.981   9.619   5.390  0.1056  1.0690 -0.3284
 3677SOL     OW14946   9.627   9.575   4.943 -0.3363 -0.4580 -0.1433
 3677SOL    HW114947   9.558   9.510   4.933 -0.5684 -0.3129  0.4718
 3677SOL    HW214948   9.707   9.524   4.954 -0.2294 -0.6286 -1.5261
 3678SOL     OW14949   2.527   2.697   3.290 -0.2015  0.5031  0.2407
 3678SOL    HW114950   2.616   2.730   3.294  0.0583 -0.1488 -0.0930
 3678SOL    HW214951   2.536   2.604   3.269 -0.9273  0.2526  0.9640
 3679SOL     OW14952   4.229   2.808   6.183  0.8256  0.5455 -0.4515
 3679SOL    HW114953   4.256   2.736   6.126 -1.6748 -0.7336 -0.1663
 3679SOL    HW214954   4.153   2.846   6.139 -0.7475 -0.0232  1.5918
 3680SOL     OW14955   2.785   0.242   5.586  0.6031  0.1847 -0.6258
 3680SOL    HW114956   2.841   0.224   5.510  1.1671  1.1417 -0.4639
 3680SOL    HW214957   2.704   0.196   5.568  0.6576  0.5459 -1.9156
 3681SOL     OW14958   6.869   2.092   6.790  0.4093 -0.4363 -0.2374
 3681SOL    HW114959   6.814   2.045   6.728 -0.9583 -1.9708  2.0204
 3681SOL    HW214960   6.955   2.051   6.781 -0.0746 -1.4748 -0.2791
 3682SOL     OW14961   7.544   2.404   8.208  0.2136  0.2317 -0.0980
 3682SOL    HW114962   7.490   2.415   8.129 -0.1767  0.5377  0.2065
 3682SOL    HW214963   7.527   2.483   8.260  0.4314  0.0089  0.3139
 3683SOL     OW14964   7.293   4.959   0.862 -0.0299  0.7176 -0.2371
 3683SOL    HW114965   7.249   5.041   0.887 -0.7689  0.1158  0.4775
 3683SOL    HW214966   7.374   4.988   0.821  1.3629  1.8307  2.9810
 3684SOL     OW14967   3.873   7.407  10.206 -0.5644 -0.3304 -0.0986
 3684SOL    HW114968   3.920   7.409  10.123  0.2612  0.7248  0.3747
 3684SOL    HW214969   3.926   7.460  10.266 -1.9617  0.2728  0.6654
 3685SOL     OW14970   6.508   3.597   3.464  0.2307  0.1305  0.1066
 3685SOL    HW114971   6.462   3.628   3.386  0.6946 -0.1620 -0.2858
 3685SOL    HW214972   6.557   3.521   3.434  0.5516  0.1248  0.6452
 3686SOL     OW14973   6.693   9.077   8.311  0.0032 -0.2592 -0.3953
 3686SOL    HW114974   6.748   9.139   8.263 -0.9672  0.4287 -0.6464
 3686SOL    HW214975   6.665   9.124   8.389  1.3322 -1.2760  0.7591
 3687SOL     OW14976   3.469   2.720   0.614 -0.0525 -0.1764  0.1964
 3687SOL    HW114977   3.552   2.735   0.660 -0.8970 -0.8957  2.0188
 3687SOL    HW214978   3.403   2.762   0.667 -0.7491  1.9801 -2.1753
 3688SOL     OW14979   8.315   3.624   1.919 -0.1525  0.1590  0.3786
 3688SOL    HW114980   8.317   3.711   1.959  0.5099  1.0255 -1.3911
 3688SOL    HW214981   8.223   3.608   1.901 -0.3012  0.4127  0.8951
 3689SOL     OW14982   1.043   8.282   0.452 -0.1973 -0.0057  0.2592
 3689SOL    HW114983   0.959   8.266   0.409 -0.4480  2.2072 -0.2049
 3689SOL    HW214984   1.022   8.344   0.522  1.1159  0.9961 -0.2085
 3690SOL     OW14985   8.497   4.944   8.997 -0.3686 -0.4399 -0.3817
 3690SOL    HW114986   8.491   4.966   8.904 -1.4321 -0.9978 -0.4600
 3690SOL    HW214987   8.439   4.869   9.007 -0.9876  0.1921  0.9218
 3691SOL     OW14988   4.675   7.478   2.668  0.0425 -0.1858  0.2942
 3691SOL    HW114989   4.591   7.502   2.708  1.7445  1.9513  2.9375
 3691SOL    HW214990   4.697   7.552   2.612 -0.4276 -1.3946 -1.5807
 3692SOL     OW14991   5.174   9.256   0.912  0.2112  0.2012  0.6758
 3692SOL    HW114992   5.221   9.196   0.970 -1.9472 -0.6164  1.7276
 3692SOL    HW214993   5.193   9.224   0.824  1.8460  0.1349  1.0222
 3693SOL     OW14994   3.463   5.172   1.635  0.0928 -0.1822 -0.1787
 3693SOL    HW114995   3.543   5.148   1.682 -0.6387 -1.9791  0.2275
 3693SOL    HW214996   3.393   5.126   1.682 -1.2147  1.4116 -0.4776
 3694SOL     OW14997   4.027   8.062   9.493  0.2760 -0.8534 -0.1995
 3694SOL    HW114998   4.001   8.129   9.429 -0.8023 -1.5339 -0.5023
 3694SOL    HW214999   4.081   8.109   9.557  0.0616  0.1651 -0.7487
 3695SOL     OW15000   7.152   0.133   4.550 -0.1457 -0.8042 -0.1853
 3695SOL    HW115001   7.131   0.041   4.567  0.3695 -0.6095  1.8710
 3695SOL    HW215002   7.076   0.181   4.584 -1.2844 -0.4683 -2.9545
 3696SOL     OW15003   1.555   3.052   1.924 -0.2572  0.1025 -0.5029
 3696SOL    HW115004   1.566   3.107   1.846 -0.9510  0.5198 -0.3196
 3696SOL    HW215005   1.509   2.974   1.893 -1.5048  0.7488 -0.3413
 3697SOL     OW15006   3.629   6.256   9.972 -0.5831  0.2009 -0.3186
 3697SOL    HW115007   3.538   6.226   9.973 -0.6233  0.0933 -2.6107
 3697SOL    HW215008   3.623   6.351   9.981 -0.8966  0.1593 -0.0706
 3698SOL     OW15009   7.022   1.349   7.328 -0.0321  0.0529 -0.2375
 3698SOL    HW115010   6.956   1.363   7.396  1.1121  0.6242  0.7989
 3698SOL    HW215011   7.077   1.278   7.362 -0.2539 -0.6118 -1.2173
 3699SOL     OW15012   8.711   7.596   6.513  0.1822  0.0618 -0.1116
 3699SOL    HW115013   8.633   7.542   6.497 -0.3378  0.9523 -0.6244
 3699SOL    HW215014   8.702   7.626   6.603 -0.6563  1.0949 -0.5305
 3700SOL     OW15015   7.353   1.932   7.939  0.2042  0.0203  0.0254
 3700SOL    HW115016   7.386   1.957   8.026  0.1016  2.5146 -0.5916
 3700SOL    HW215017   7.272   1.982   7.929  0.8785  0.7793 -1.9908
 3701SOL     OW15018   2.289   2.904   0.483 -0.1563 -0.8356  0.0726
 3701SOL    HW115019   2.365   2.927   0.430 -1.6797  0.1898 -1.8044
 3701SOL    HW215020   2.314   2.822   0.526  1.9406 -0.5958 -0.5471
 3702SOL     OW15021   7.136   5.281   5.025  0.1831 -0.0059  0.8507
 3702SOL    HW115022   7.143   5.261   4.932  1.5411 -2.4168  1.3548
 3702SOL    HW215023   7.051   5.322   5.035 -0.8251 -1.3950 -1.2209
 3703SOL     OW15024   6.355   1.931   1.041  0.5727 -0.2082  0.0658
 3703SOL    HW115025   6.337   1.892   1.126  2.5606 -0.2917  0.4992
 3703SOL    HW215026   6.318   1.869   0.978 -1.1767  0.0006  0.8442
 3704SOL     OW15027   6.280   6.158   4.503 -0.3864  0.0847 -0.3454
 3704SOL    HW115028   6.262   6.072   4.465  0.9785  0.0469 -0.9850
 3704SOL    HW215029   6.330   6.204   4.436  0.2454  0.7980  0.5817
 3705SOL     OW15030   6.267   3.524   2.686 -0.1241  0.6227  0.0169
 3705SOL    HW115031   6.187   3.565   2.655  0.4224  0.6853 -1.4234
 3705SOL    HW215032   6.244   3.432   2.698 -1.0709  1.1023  2.2023
 3706SOL     OW15033   2.626   2.351   0.362  0.0541 -0.4448  0.2237
 3706SOL    HW115034   2.608   2.342   0.456 -1.1563 -0.3610  0.0201
 3706SOL    HW215035   2.703   2.407   0.357  0.2056 -0.5597  1.1707
 3707SOL     OW15036   5.967   2.765   7.121  0.2992  0.3377 -0.3427
 3707SOL    HW115037   5.950   2.731   7.209 -0.1861  1.4572  0.0109
 3707SOL    HW215038   6.062   2.757   7.110  0.0998 -2.2553 -0.7673
 3708SOL     OW15039   7.123   3.729   9.090 -0.3294 -0.0648 -0.2811
 3708SOL    HW115040   7.112   3.688   9.176 -2.0721 -0.1849 -0.5120
 3708SOL    HW215041   7.194   3.680   9.049 -0.4332 -0.9451  0.5497
 3709SOL     OW15042   0.017   8.788   8.513  0.2635 -0.0610  0.1118
 3709SOL    HW115043  -0.049   8.855   8.493  0.2661 -0.2340 -0.4956
 3709SOL    HW215044   0.098   8.838   8.525  0.3079  0.0433 -0.5342
 3710SOL     OW15045   4.026   0.016   2.587 -0.6943 -0.2356  0.1592
 3710SOL    HW115046   4.096  -0.050   2.589 -1.1286 -0.6888  1.5724
 3710SOL    HW215047   4.058   0.083   2.526 -0.0343 -1.5107 -0.9581
 3711SOL     OW15048   6.550   2.316   6.280 -0.4883  0.6616  0.4140
 3711SOL    HW115049   6.526   2.399   6.323  0.6828  0.7673  0.8966
 3711SOL    HW215050   6.605   2.271   6.344 -0.4833 -0.1559 -0.1508
 3712SOL     OW15051   5.731   3.715   5.109 -0.5228 -0.0200 -0.2365
 3712SOL    HW115052   5.656   3.656   5.104  1.8342 -3.3626  0.3657
 3712SOL    HW215053   5.761   3.722   5.018 -0.9826  0.5681 -0.3507
 3713SOL     OW15054   7.526   2.240   6.230 -0.0201  0.7045 -0.4092
 3713SOL    HW115055   7.441   2.279   6.208 -0.1510  2.0013  2.0985
 3713SOL    HW215056   7.582   2.314   6.251  1.3006 -0.2269 -0.5142
 3714SOL     OW15057   3.492   7.676   6.528  0.0216  0.4132  0.1492
 3714SOL    HW115058   3.543   7.756   6.520 -0.0875  0.5110  0.4158
 3714SOL    HW215059   3.407   7.697   6.491  0.3986  0.0281 -0.9830
 3715SOL     OW15060   2.904   9.122   4.170 -0.1762 -0.3292  0.1189
 3715SOL    HW115061   2.871   9.044   4.216 -0.7501 -0.5434 -0.6359
 3715SOL    HW215062   2.998   9.108   4.164  0.1473  0.3747  2.4855
 3716SOL     OW15063   5.660   9.370   7.000 -0.1145 -0.3988  0.3054
 3716SOL    HW115064   5.633   9.395   6.911 -2.1197 -0.3396  0.8809
 3716SOL    HW215065   5.745   9.328   6.988  0.5448  1.2680 -1.4129
 3717SOL     OW15066   8.905   9.698   0.678 -0.4730 -0.2933 -0.5012
 3717SOL    HW115067   8.970   9.718   0.611  0.4446 -1.6347 -0.0471
 3717SOL    HW215068   8.822   9.692   0.630  0.3323 -2.3729 -1.7650
 3718SOL     OW15069   4.724   7.230   2.714 -0.5353 -0.1216 -0.2263
 3718SOL    HW115070   4.656   7.198   2.773 -0.4835 -0.6085 -0.4257
 3718SOL    HW215071   4.699   7.320   2.695 -0.0599  0.3481  1.2679
 3719SOL     OW15072   0.193   0.134   7.844  0.1260 -0.2298 -0.8811
 3719SOL    HW115073   0.281   0.160   7.871  0.4837 -2.0281 -0.1631
 3719SOL    HW215074   0.161   0.207   7.792 -0.2629  3.1427  3.5211
 3720SOL     OW15075   3.645   5.539   5.809 -0.1331 -0.3583  0.1618
 3720SOL    HW115076   3.592   5.574   5.738  0.9717  1.1866  0.0476
 3720SOL    HW215077   3.644   5.445   5.795  0.6819 -0.0706 -2.3808
 3721SOL     OW15078   2.601   8.929   4.996 -0.0632 -0.4005  0.3185
 3721SOL    HW115079   2.614   8.876   5.075 -1.9954  2.8456  3.0692
 3721SOL    HW215080   2.507   8.930   4.982 -0.0330  1.6370 -0.0701
 3722SOL     OW15081   6.584   3.871   6.542 -0.1380  0.0327  0.0948
 3722SOL    HW115082   6.630   3.921   6.473 -0.1437  1.7259  1.2650
 3722SOL    HW215083   6.622   3.903   6.624 -0.1017 -1.9788  0.9221
 3723SOL     OW15084   0.903   8.526   1.282 -0.5108  0.0508  0.5589
 3723SOL    HW115085   0.813   8.554   1.268 -1.3898 -2.3172  1.1522
 3723SOL    HW215086   0.904   8.486   1.369  0.3238 -2.6711 -0.5879
 3724SOL     OW15087   0.243   8.439   9.499 -0.3429  0.2885  0.0175
 3724SOL    HW115088   0.165   8.393   9.469 -0.9252  1.6981 -0.7401
 3724SOL    HW215089   0.310   8.418   9.434 -0.4267  0.0250  0.0139
 3725SOL     OW15090   5.798   0.466   5.540  0.0550 -0.1606  0.1698
 3725SOL    HW115091   5.807   0.497   5.450  0.2950  0.8256  0.5179
 3725SOL    HW215092   5.721   0.511   5.573  0.9267  0.8206  0.9645
 3726SOL     OW15093   7.024   8.680   4.083  0.4075 -0.1605 -0.9088
 3726SOL    HW115094   7.049   8.609   4.024 -1.6338 -0.2273 -1.7859
 3726SOL    HW215095   6.983   8.636   4.157  2.2338 -0.0280  0.2551
 3727SOL     OW15096   3.617   8.304   9.156  0.3832  0.2600  0.7546
 3727SOL    HW115097   3.687   8.329   9.095  0.2886  1.1528  0.9912
 3727SOL    HW215098   3.619   8.208   9.158  0.2658  0.2053 -0.7878
 3728SOL     OW15099   4.486   9.700   8.952  0.2668  0.2990 -0.1222
 3728SOL    HW115100   4.416   9.634   8.952  0.4622  0.0904 -0.0865
 3728SOL    HW215101   4.560   9.655   8.912 -0.5287  1.4660 -3.2412
 3729SOL     OW15102   6.487   2.324   7.709  0.6805  0.3181 -0.4242
 3729SOL    HW115103   6.534   2.356   7.631  2.9445 -1.3918  0.1397
 3729SOL    HW215104   6.496   2.229   7.705 -1.3518  0.0242  0.6544
 3730SOL     OW15105   7.949   5.880   6.491 -0.2446  0.2827 -0.8289
 3730SOL    HW115106   8.031   5.846   6.456 -0.6250 -0.3458 -1.1364
 3730SOL    HW215107   7.897   5.900   6.413 -0.2625  0.9867 -0.6416
 3731SOL     OW15108   2.038   4.117   1.059  0.1885  0.6259 -0.2155
 3731SOL    HW115109   2.048   4.126   0.965 -1.6834 -0.2141 -0.5529
 3731SOL    HW215110   2.091   4.187   1.097 -0.1638  1.8857 -1.9512
 3732SOL     OW15111   3.991   8.575   5.949  0.0323 -0.1380  0.2418
 3732SOL    HW115112   3.904   8.572   5.910 -0.7514 -0.2645  1.8916
 3732SOL    HW215113   4.020   8.665   5.935  0.4554 -0.5650 -1.9202
 3733SOL     OW15114   3.003  10.104   4.912  0.1279  0.0884 -0.0184
 3733SOL    HW115115   3.096  10.092   4.892  0.0029 -0.3057 -0.3778
 3733SOL    HW215116   2.998  10.191   4.952  0.8687 -0.5336  1.4691
 3734SOL     OW15117   4.648   5.106   8.540  0.0078  0.2413 -0.2601
 3734SOL    HW115118   4.585   5.036   8.555 -0.6471  1.0194  0.7610
 3734SOL    HW215119   4.682   5.127   8.627  1.3097  0.1947 -0.7279
 3735SOL     OW15120   8.412   3.519   5.721  0.4156 -0.3724 -0.0700
 3735SOL    HW115121   8.423   3.600   5.671  0.6894 -0.5037 -0.2279
 3735SOL    HW215122   8.488   3.517   5.780  0.1699 -0.2905  0.2482
 3736SOL     OW15123   5.450   7.371   3.849  0.2822 -0.3637  0.0640
 3736SOL    HW115124   5.480   7.297   3.795 -0.3340  0.0242 -0.8311
 3736SOL    HW215125   5.358   7.353   3.865  0.3708 -0.2790  0.6761
 3737SOL     OW15126   0.553   1.912   2.431 -0.4194 -0.2367  0.2713
 3737SOL    HW115127   0.555   1.978   2.362 -1.0933 -1.5499 -1.0770
 3737SOL    HW215128   0.553   1.962   2.513 -1.4991  1.4495 -0.6915
 3738SOL     OW15129   3.921   0.048   6.348 -0.0087  0.2652  0.1026
 3738SOL    HW115130   3.854   0.071   6.412  1.1681  1.3380  0.9927
 3738SOL    HW215131   3.896   0.096   6.269 -0.0594  1.0401  0.5769
 3739SOL     OW15132   5.872   6.121   0.822 -0.4243  0.8519  0.0697
 3739SOL    HW115133   5.781   6.151   0.830 -0.4916  0.9847 -1.0477
 3739SOL    HW215134   5.881   6.095   0.730  0.3470 -0.2307  0.4264
 3740SOL     OW15135   7.873   1.771   8.178 -0.5840 -0.4977  0.0425
 3740SOL    HW115136   7.799   1.711   8.172  0.1833 -1.4518 -0.1595
 3740SOL    HW215137   7.902   1.783   8.088 -0.5982  0.0014  0.1051
 3741SOL     OW15138   1.142   4.253   4.148  0.1126 -0.3105  0.2417
 3741SOL    HW115139   1.223   4.304   4.138 -0.6669  0.8449 -0.4027
 3741SOL    HW215140   1.101   4.257   4.062 -0.6228 -0.9099  0.5600
 3742SOL     OW15141   0.606   9.991   7.780  0.6404 -0.0306 -0.1450
 3742SOL    HW115142   0.692   9.977   7.742  0.6075  0.0157 -0.2363
 3742SOL    HW215143   0.594   9.917   7.839  0.1763 -0.7619 -1.1328
 3743SOL     OW15144   8.146   7.840   0.302 -0.0681 -0.0532 -0.6980
 3743SOL    HW115145   8.174   7.893   0.376 -0.4664  2.1200 -2.0098
 3743SOL    HW215146   8.181   7.886   0.225 -1.6175 -0.9053 -1.9690
 3744SOL     OW15147   3.990   7.277   9.549  0.2454  0.2191 -0.5094
 3744SOL    HW115148   3.934   7.200   9.537  1.3303 -0.7526  0.4504
 3744SOL    HW215149   3.944   7.330   9.615 -0.9302  0.8617 -1.7872
 3745SOL     OW15150   9.223   1.223   9.917  0.7020  0.3175  0.2879
 3745SOL    HW115151   9.238   1.167   9.993  0.3039 -1.8864 -1.1469
 3745SOL    HW215152   9.132   1.204   9.891  0.7803  1.1308 -0.6377
 3746SOL     OW15153   7.520   4.657   6.024  0.0432 -0.2135 -0.3950
 3746SOL    HW115154   7.600   4.706   6.042 -0.3476  0.5890 -0.7663
 3746SOL    HW215155   7.455   4.695   6.083 -0.7849  1.1893 -2.1081
 3747SOL     OW15156   2.058   6.786   9.531  0.0250  0.5973 -0.7960
 3747SOL    HW115157   2.017   6.870   9.550  0.9501  0.4581  2.4538
 3747SOL    HW215158   2.152   6.803   9.535  0.2379 -0.6737  0.7023
 3748SOL     OW15159   8.252   3.840   5.790  0.2958  0.5154  0.5605
 3748SOL    HW115160   8.180   3.790   5.830  0.9176 -2.2545 -1.5017
 3748SOL    HW215161   8.328   3.822   5.846  0.8743 -2.3026 -0.9768
 3749SOL     OW15162   6.494   7.337   1.458 -0.1683  0.1476 -0.3063
 3749SOL    HW115163   6.494   7.428   1.429 -0.3897 -0.3483 -1.9585
 3749SOL    HW215164   6.430   7.334   1.529 -0.9429  1.0914 -0.9409
 3750SOL     OW15165   6.535   0.056   1.663 -0.8735 -0.5047  0.1288
 3750SOL    HW115166   6.567   0.096   1.582  1.4455  0.1035  1.2590
 3750SOL    HW215167   6.580   0.104   1.733 -1.9970 -1.7095  1.7513
 3751SOL     OW15168   2.937   0.392   5.992 -0.1664 -0.5112  0.1472
 3751SOL    HW115169   2.969   0.320   5.937  1.1618 -0.7521  1.1773
 3751SOL    HW215170   2.993   0.389   6.070 -0.0236  1.6989  0.1911
 3752SOL     OW15171   6.641   0.516   0.772  0.0381 -0.5971 -0.0279
 3752SOL    HW115172   6.685   0.571   0.708  0.4232 -1.9760 -1.0052
 3752SOL    HW215173   6.637   0.429   0.731  0.4445 -1.5761  1.8634
 3753SOL     OW15174   4.224   4.618   0.576  0.5331  0.2508  0.2298
 3753SOL    HW115175   4.198   4.654   0.661  0.2419 -0.2476  0.3556
 3753SOL    HW215176   4.318   4.636   0.570  0.3297  1.3984  0.1056
 3754SOL     OW15177   1.322   4.469   4.135  0.2903 -0.4255  0.7545
 3754SOL    HW115178   1.336   4.488   4.042  0.3558  0.3713  0.9252
 3754SOL    HW215179   1.407   4.486   4.176  0.6679 -2.1320  0.7613
 3755SOL     OW15180   5.074   3.101   8.076  0.0770 -0.1155  0.7354
 3755SOL    HW115181   5.144   3.130   8.017 -0.1293 -0.1743  0.4619
 3755SOL    HW215182   4.995   3.139   8.040  0.0056  0.1859  1.2111
 3756SOL     OW15183   8.669   0.972   5.844 -0.1317  0.3658  0.2796
 3756SOL    HW115184   8.688   1.057   5.803 -1.4113  0.3924 -0.3076
 3756SOL    HW215185   8.592   0.940   5.797  0.7457 -1.4519  0.0310
 3757SOL     OW15186   7.179   2.704   6.542 -0.7627  0.1270 -0.2679
 3757SOL    HW115187   7.188   2.644   6.617  1.6199  1.1892  0.4040
 3757SOL    HW215188   7.245   2.675   6.480 -0.9156  0.8622 -0.7873
 3758SOL     OW15189   2.821   0.150   3.236  0.0891  0.1598  0.1478
 3758SOL    HW115190   2.916   0.141   3.240 -0.1298 -3.5904  2.0347
 3758SOL    HW215191   2.800   0.145   3.143  1.7002 -0.2663 -0.2347
 3759SOL     OW15192   7.813   1.168  10.107 -0.3506 -0.4036 -0.0600
 3759SOL    HW115193   7.850   1.131  10.187 -0.5366 -0.9522 -0.2249
 3759SOL    HW215194   7.865   1.129  10.037  0.9732  1.3828 -0.1561
 3760SOL     OW15195  10.167   8.328   6.867 -0.0130 -0.7432 -0.0759
 3760SOL    HW115196  10.083   8.374   6.872 -0.6316 -1.9177  1.1149
 3760SOL    HW215197  10.208   8.343   6.952  1.0823 -0.0305 -0.7143
 3761SOL     OW15198   4.070   4.390   5.206  0.6247  0.1225  0.3203
 3761SOL    HW115199   4.069   4.337   5.286 -0.9803 -1.5087 -0.7016
 3761SOL    HW215200   4.052   4.479   5.236 -1.8762 -0.7362  1.6502
 3762SOL     OW15201   7.864   9.486   6.403  0.5902  0.5401 -0.0088
 3762SOL    HW115202   7.953   9.521   6.392  0.7966 -0.0682 -0.3844
 3762SOL    HW215203   7.832   9.525   6.484  0.7066  1.7757 -0.5357
 3763SOL     OW15204   2.555   7.522   5.514  0.2472 -0.2910  0.2653
 3763SOL    HW115205   2.473   7.543   5.557  0.9675  3.7194 -0.0031
 3763SOL    HW215206   2.536   7.530   5.420  0.9701  1.0996  0.2114
 3764SOL     OW15207   3.646   6.209   8.284  0.1549  0.1240 -0.5514
 3764SOL    HW115208   3.551   6.223   8.280 -0.1842 -1.8003  0.0058
 3764SOL    HW215209   3.671   6.188   8.194 -0.3954 -1.8070 -0.2848
 3765SOL     OW15210   6.605   7.783   3.759  0.6028  0.9012  0.0330
 3765SOL    HW115211   6.668   7.714   3.737  0.8650  1.6274 -1.6220
 3765SOL    HW215212   6.536   7.774   3.694 -0.0991  1.2976  0.7020
 3766SOL     OW15213   4.834   6.194   2.580 -0.0002  0.0820 -0.0595
 3766SOL    HW115214   4.852   6.264   2.642 -2.6051  0.1475  0.7431
 3766SOL    HW215215   4.800   6.238   2.502 -0.3195 -0.2101 -0.0887
 3767SOL     OW15216   6.955   9.608   0.813 -0.0710  0.1502 -0.0274
 3767SOL    HW115217   6.972   9.678   0.877 -0.4832  0.9600 -0.7774
 3767SOL    HW215218   7.039   9.566   0.800  0.2880  0.8219  0.0862
 3768SOL     OW15219   8.442   9.530   1.506 -0.3554  0.4110 -0.0121
 3768SOL    HW115220   8.478   9.444   1.528 -1.0267  0.4535  1.3814
 3768SOL    HW215221   8.495   9.592   1.555  0.7537  0.9182 -1.7732
 3769SOL     OW15222   4.707   8.761   0.884  0.9191  0.0628  0.0156
 3769SOL    HW115223   4.787   8.716   0.858  2.1431  1.5308  1.0391
 3769SOL    HW215224   4.657   8.770   0.803  1.9004 -0.6533 -0.6946
 3770SOL     OW15225   8.171   8.569   3.245 -0.4661 -0.3849  0.0097
 3770SOL    HW115226   8.161   8.621   3.324 -0.6476 -2.0715  1.1574
 3770SOL    HW215227   8.083   8.563   3.208 -1.1496 -2.6344  1.7686
 3771SOL     OW15228   0.247   0.386   4.526  0.0051  0.0267  0.1811
 3771SOL    HW115229   0.162   0.342   4.516 -0.2457 -0.0103  2.0940
 3771SOL    HW215230   0.302   0.322   4.571  0.5789  0.6038  0.3181
 3772SOL     OW15231   8.988   7.504   3.122 -0.1568 -0.2970 -0.1178
 3772SOL    HW115232   9.073   7.463   3.136 -0.1328  0.0692  0.8436
 3772SOL    HW215233   8.940   7.440   3.068 -0.4265 -2.0400  2.0224
 3773SOL     OW15234   4.598   6.808   9.118  0.0195 -0.5085  0.2365
 3773SOL    HW115235   4.661   6.783   9.051  2.5460  1.3920  1.7195
 3773SOL    HW215236   4.558   6.889   9.086  0.7260  0.0293  0.6918
 3774SOL     OW15237   3.856   2.154   5.565 -0.0007  0.2793 -0.9094
 3774SOL    HW115238   3.919   2.082   5.555  1.1256  1.4177 -2.6230
 3774SOL    HW215239   3.771   2.112   5.559  0.5826 -1.1492  0.1555
 3775SOL     OW15240   1.458   5.511   0.511  0.3210 -0.1091 -0.4485
 3775SOL    HW115241   1.492   5.601   0.507  0.1064  0.0387  0.5852
 3775SOL    HW215242   1.492   5.477   0.594 -0.0350 -0.8021 -0.5801
 3776SOL     OW15243   6.269   0.395   8.130 -0.0556  0.0775  0.7014
 3776SOL    HW115244   6.334   0.326   8.120 -0.1026  0.2010 -0.5673
 3776SOL    HW215245   6.278   0.423   8.221  1.9464  0.3814  0.4452
 3777SOL     OW15246   8.696   4.945   4.651  0.4477  0.5445 -0.0728
 3777SOL    HW115247   8.627   4.892   4.691 -0.2221  0.7966 -0.8648
 3777SOL    HW215248   8.651   4.998   4.586  1.4186  0.6183 -0.7088
 3778SOL     OW15249   7.964   2.663   3.754 -0.0165  0.1904  0.1396
 3778SOL    HW115250   7.972   2.744   3.704 -0.5479 -0.2761 -0.7275
 3778SOL    HW215251   7.877   2.629   3.732  1.1158 -1.9059 -1.5427
 3779SOL     OW15252   2.855   6.367   1.353 -0.0539  0.6336 -0.1525
 3779SOL    HW115253   2.839   6.457   1.382  2.5345  1.0042  0.3515
 3779SOL    HW215254   2.897   6.377   1.267 -0.7218 -0.1709 -0.5845
 3780SOL     OW15255   0.743   7.226   1.242  0.3380  0.4646 -0.6906
 3780SOL    HW115256   0.687   7.253   1.169 -1.0380  0.3403  0.2799
 3780SOL    HW215257   0.830   7.256   1.218 -0.4970  2.5892 -1.2985
 3781SOL     OW15258   4.046   2.679   3.457  0.5436 -0.3206  0.5181
 3781SOL    HW115259   4.088   2.630   3.386  0.1463 -1.7654  1.2405
 3781SOL    HW215260   4.027   2.612   3.523 -2.1140  0.4281  0.5908
 3782SOL     OW15261   8.121   6.562   1.712  0.3498  0.3262  0.5200
 3782SOL    HW115262   8.074   6.617   1.775 -0.8589 -0.3839  0.2691
 3782SOL    HW215263   8.180   6.509   1.766 -0.2487  0.1455  1.0043
 3783SOL     OW15264   4.933   3.233   2.662 -0.0289  0.2871  0.1423
 3783SOL    HW115265   4.913   3.301   2.726 -0.1402 -0.9281  1.4594
 3783SOL    HW215266   4.851   3.184   2.652  0.7950 -1.5001  1.5673
 3784SOL     OW15267   3.571   5.126   4.915 -0.1874  0.4803  0.0048
 3784SOL    HW115268   3.598   5.216   4.934  1.3737  0.3509 -1.3847
 3784SOL    HW215269   3.522   5.132   4.832  0.0081  0.0384 -0.1450
 3785SOL     OW15270   2.168   5.440   6.537 -0.4128 -0.0704 -0.4036
 3785SOL    HW115271   2.168   5.533   6.517 -0.0184  0.0979  0.3358
 3785SOL    HW215272   2.085   5.424   6.581  0.5559  0.4742  1.7594
 3786SOL     OW15273   4.403   9.812   2.686 -0.0937  0.3635  0.7030
 3786SOL    HW115274   4.362   9.727   2.701 -1.6863  1.3264  2.0406
 3786SOL    HW215275   4.485   9.807   2.735  0.0052 -0.5011  0.4796
 3787SOL     OW15276   7.615   7.908   9.761 -0.1079  0.4268  0.0987
 3787SOL    HW115277   7.618   7.814   9.779 -0.2488  0.1827 -1.1118
 3787SOL    HW215278   7.565   7.945   9.834  0.9752 -0.2650  1.2278
 3788SOL     OW15279   5.161   5.437   0.302 -0.4916 -0.2879  0.3705
 3788SOL    HW115280   5.206   5.384   0.368  0.3450 -1.4643 -1.0969
 3788SOL    HW215281   5.085   5.385   0.277 -0.0015 -0.5372 -0.6343
 3789SOL     OW15282   2.581   6.440   7.618 -0.3424  0.3556  0.0700
 3789SOL    HW115283   2.674   6.463   7.613 -0.2803 -0.0916 -1.2124
 3789SOL    HW215284   2.551   6.442   7.528 -1.2874 -0.7046  0.3362
 3790SOL     OW15285   5.549   3.410   2.617  0.2678  0.2799  0.1283
 3790SOL    HW115286   5.642   3.403   2.636  0.1966 -1.3266 -0.0022
 3790SOL    HW215287   5.505   3.377   2.695 -0.1380 -0.8811 -0.5759
 3791SOL     OW15288   0.073   2.237   3.139  0.4746 -0.3886 -0.4647
 3791SOL    HW115289  -0.014   2.200   3.121 -0.6610  2.3503 -1.1394
 3791SOL    HW215290   0.132   2.186   3.084 -1.0497 -0.8692 -1.7466
 3792SOL     OW15291   3.111   9.810   2.368 -0.7049  0.1544  0.4483
 3792SOL    HW115292   3.202   9.789   2.350 -1.2380 -1.1586 -0.8578
 3792SOL    HW215293   3.109   9.830   2.462  0.8511 -0.0687  0.5525
 3793SOL     OW15294   3.878   8.455   6.191  0.2867  0.0534 -0.8342
 3793SOL    HW115295   3.887   8.368   6.229 -0.5760  0.8370  1.2664
 3793SOL    HW215296   3.950   8.461   6.128  1.3011 -1.6030  0.1083
 3794SOL     OW15297   1.079   0.742   5.375  0.3149  0.0817  0.2420
 3794SOL    HW115298   1.121   0.818   5.335  0.1404  0.4779  0.8053
 3794SOL    HW215299   1.140   0.670   5.358  0.9612  0.5430  0.5765
 3795SOL     OW15300   2.312   7.592   5.686 -0.1169  0.6040 -0.6174
 3795SOL    HW115301   2.220   7.599   5.710  0.2391  0.7779  0.8314
 3795SOL    HW215302   2.333   7.499   5.696  0.7350  1.0245  2.8407
 3796SOL     OW15303   8.691   4.431   2.602 -0.5344  0.0384  0.1222
 3796SOL    HW115304   8.662   4.340   2.609 -1.2363  0.3562  2.4432
 3796SOL    HW215305   8.614   4.482   2.626 -0.0329  1.2471 -0.7558
 3797SOL     OW15306   8.062   1.033   1.390  0.0310  0.1809 -0.4761
 3797SOL    HW115307   8.107   0.949   1.379  2.0241  0.9290  1.3838
 3797SOL    HW215308   8.104   1.073   1.466 -1.9363  2.2016 -0.3680
 3798SOL     OW15309   7.305   3.950   9.911  0.1765 -0.7072  0.1892
 3798SOL    HW115310   7.388   3.902   9.917 -0.2170 -1.5162 -0.5276
 3798SOL    HW215311   7.239   3.882   9.924 -0.3824 -0.1960  0.0075
 3799SOL     OW15312   4.020   1.393   8.609  0.5759  0.1872  0.0947
 3799SOL    HW115313   3.993   1.454   8.678  0.3980 -0.9111  1.0497
 3799SOL    HW215314   4.035   1.310   8.656 -0.6597 -0.9018 -1.3244
 3800SOL     OW15315   7.259   4.568   6.157  0.3779  0.7588 -0.4175
 3800SOL    HW115316   7.188   4.621   6.193 -1.2220 -1.5596  0.0448
 3800SOL    HW215317   7.218   4.515   6.089  2.1401  0.8659 -1.6254
 3801SOL     OW15318   8.033   6.367   6.198 -0.0363  0.2991  0.2049
 3801SOL    HW115319   8.076   6.367   6.283  0.8605 -0.8866 -0.2224
 3801SOL    HW215320   8.104   6.377   6.135 -0.4570 -0.7350 -0.4664
 3802SOL     OW15321   8.499   9.982   2.601 -0.3472  0.4115  0.1706
 3802SOL    HW115322   8.519   9.946   2.688  0.0896 -0.9463 -0.4569
 3802SOL    HW215323   8.563  10.051   2.589  2.4186 -2.1100 -0.7040
 3803SOL     OW15324   8.791   9.663   5.292 -0.1932  0.8211 -0.1954
 3803SOL    HW115325   8.756   9.613   5.365 -1.2026  1.6084 -0.1252
 3803SOL    HW215326   8.798   9.753   5.325  1.7597  0.7370 -0.2527
 3804SOL     OW15327   3.071   6.018   1.843 -0.1842  0.7104  0.6259
 3804SOL    HW115328   3.137   6.082   1.816 -0.3797  1.7973  2.5790
 3804SOL    HW215329   3.102   5.985   1.927 -0.9063 -0.5946  0.3954
 3805SOL     OW15330   5.381   5.773   7.226  0.0852 -0.0660  0.3615
 3805SOL    HW115331   5.448   5.719   7.185  0.0322  0.5503 -0.5585
 3805SOL    HW215332   5.416   5.862   7.223 -0.9001  0.3175 -0.4386
 3806SOL     OW15333   3.441   2.365   5.145  0.5998 -0.5047  0.4240
 3806SOL    HW115334   3.439   2.437   5.207 -2.9167 -1.2633  1.4129
 3806SOL    HW215335   3.383   2.392   5.074 -1.0324 -2.3389  0.9559
 3807SOL     OW15336   7.232   6.575   0.177  0.3744 -0.3368  0.2627
 3807SOL    HW115337   7.254   6.634   0.105 -0.5735 -0.9249 -0.5225
 3807SOL    HW215338   7.314   6.530   0.197  0.5220 -0.6010 -0.8659
 3808SOL     OW15339   5.117   0.132   9.012 -0.0501  0.4379 -0.2564
 3808SOL    HW115340   5.137   0.057   8.956  1.1273  1.2900 -1.0131
 3808SOL    HW215341   5.112   0.096   9.100 -2.2864 -0.9928 -0.8885
 3809SOL     OW15342   1.127   1.476   7.882  0.2424 -0.5219 -0.1320
 3809SOL    HW115343   1.203   1.434   7.922 -1.2039 -0.2121  3.2543
 3809SOL    HW215344   1.072   1.404   7.852  0.9396 -0.7756 -0.8548
 3810SOL     OW15345   3.527   4.187   5.437  0.4197 -0.0452  0.0622
 3810SOL    HW115346   3.517   4.192   5.342  0.6267 -1.5634 -0.0757
 3810SOL    HW215347   3.619   4.207   5.452  0.5960 -0.6559 -0.1599
 3811SOL     OW15348   7.676   9.864   4.222 -0.5480 -0.0262  0.0515
 3811SOL    HW115349   7.604   9.841   4.164  0.6622 -2.1177 -0.7225
 3811SOL    HW215350   7.706   9.950   4.190 -0.5858 -0.6458 -1.7697
 3812SOL     OW15351   1.099   5.884   7.360  0.2815 -0.5131  0.3063
 3812SOL    HW115352   1.077   5.947   7.428 -0.3204 -0.0884 -0.2614
 3812SOL    HW215353   1.096   5.799   7.403  1.4748 -0.1431  1.1684
 3813SOL     OW15354   1.033   6.293   5.978 -0.0071 -0.0360 -0.4678
 3813SOL    HW115355   1.090   6.317   5.905 -0.8775 -0.1034 -1.1831
 3813SOL    HW215356   1.089   6.298   6.055  0.5933  1.3817 -0.9653
 3814SOL     OW15357   3.290   1.646   0.137 -0.1186  0.4860 -0.0301
 3814SOL    HW115358   3.302   1.730   0.094 -0.0150  1.0850  1.1272
 3814SOL    HW215359   3.218   1.604   0.089  1.4220  0.1573 -2.1626
 3815SOL     OW15360   0.629   8.758   6.314  0.5553  0.4135 -0.1659
 3815SOL    HW115361   0.541   8.781   6.344  1.3074  1.5009  1.3865
 3815SOL    HW215362   0.616   8.682   6.258 -1.5046  1.3844 -1.1368
 3816SOL     OW15363   8.868   4.282   0.156  0.2290  0.2705  0.6850
 3816SOL    HW115364   8.855   4.358   0.214  1.8735  0.4993  0.7955
 3816SOL    HW215365   8.922   4.315   0.084  0.3316 -0.6124  0.3422
 3817SOL     OW15366   1.416   0.648   2.573 -0.0858 -0.3653 -0.3964
 3817SOL    HW115367   1.500   0.662   2.529  0.3311 -1.0461  0.1679
 3817SOL    HW215368   1.439   0.610   2.658 -0.9997 -1.7422 -0.7218
 3818SOL     OW15369   0.123   2.371   3.829  0.2441  0.3750  0.1160
 3818SOL    HW115370   0.187   2.436   3.857  0.4355  1.4260 -2.4229
 3818SOL    HW215371   0.173   2.311   3.773 -0.3602 -0.7578  0.7502
 3819SOL     OW15372   0.000   3.391   4.667 -0.5708 -0.7735 -0.1314
 3819SOL    HW115373   0.094   3.383   4.682 -0.3444  0.0329 -1.0200
 3819SOL    HW215374  -0.036   3.306   4.691  0.3962 -1.1287  0.0995
 3820SOL     OW15375   2.863   8.299   6.164 -0.4071  0.2688  0.1451
 3820SOL    HW115376   2.804   8.246   6.216  0.8740 -0.2702  1.1079
 3820SOL    HW215377   2.873   8.380   6.214  2.0701 -0.8659  1.6623
 3821SOL     OW15378   2.558   1.472   0.441  0.0123  0.6140  0.2524
 3821SOL    HW115379   2.499   1.446   0.370 -0.5158 -2.6566  1.6858
 3821SOL    HW215380   2.631   1.515   0.397 -1.3606  0.7792 -2.0200
 3822SOL     OW15381   1.110   0.258   2.928  0.0908  0.5989 -0.5222
 3822SOL    HW115382   1.180   0.214   2.879  0.4664  0.8340 -0.2054
 3822SOL    HW215383   1.137   0.350   2.930  0.3442  0.5157  0.5661
 3823SOL     OW15384   2.355   9.233   0.518 -0.0246 -0.0948 -0.2942
 3823SOL    HW115385   2.273   9.186   0.531  0.3804 -0.5868  0.4900
 3823SOL    HW215386   2.328   9.325   0.509 -0.7570 -0.3781 -1.2251
 3824SOL     OW15387   0.988   6.576   4.149 -0.7184 -0.2365  0.1142
 3824SOL    HW115388   1.039   6.643   4.105 -0.0693 -1.4902 -1.1145
 3824SOL    HW215389   1.045   6.544   4.219 -0.9131  0.2634  0.5078
 3825SOL     OW15390   7.651   4.055   5.271 -0.0101 -0.0267 -0.7621
 3825SOL    HW115391   7.583   4.121   5.254 -1.5379 -1.6245 -1.1303
 3825SOL    HW215392   7.635   3.987   5.205 -0.4401 -2.2065  1.4506
 3826SOL     OW15393   1.418   7.381   0.676  0.1259 -0.0096 -0.7390
 3826SOL    HW115394   1.459   7.305   0.717 -1.3719  0.1134  1.1192
 3826SOL    HW215395   1.452   7.456   0.724 -0.8539  0.2185 -0.3646
 3827SOL     OW15396   8.387   6.646   9.068 -0.1372  0.1183 -0.3627
 3827SOL    HW115397   8.326   6.651   9.141 -0.1486  0.3519 -0.3851
 3827SOL    HW215398   8.352   6.708   9.003 -0.0703 -0.0091 -0.5209
 3828SOL     OW15399   1.218   0.317   8.874  0.0785 -0.3008 -0.2338
 3828SOL    HW115400   1.266   0.393   8.842  0.6879 -1.5538 -2.5606
 3828SOL    HW215401   1.233   0.316   8.968 -0.3459  2.6786 -0.0474
 3829SOL     OW15402   0.097   6.641   7.494  0.0400  0.1831  0.7579
 3829SOL    HW115403   0.145   6.714   7.454 -0.5062 -0.0983 -0.4491
 3829SOL    HW215404   0.005   6.663   7.481 -0.1653  0.2596  2.2229
 3830SOL     OW15405   6.649   5.519   5.084  0.1656 -0.0152 -0.1461
 3830SOL    HW115406   6.658   5.614   5.077  0.8247  0.1528  2.2726
 3830SOL    HW215407   6.575   5.507   5.144  0.6212 -1.0199  0.2228
 3831SOL     OW15408   6.018   1.513   2.373 -0.0184 -0.1772 -0.2247
 3831SOL    HW115409   5.971   1.579   2.424  1.5614  0.7513  0.1111
 3831SOL    HW215410   6.082   1.563   2.322 -0.7124 -1.2082 -2.2159
 3832SOL     OW15411   3.718   4.688   6.297  0.2911 -0.0146  0.0745
 3832SOL    HW115412   3.779   4.629   6.254 -1.3343 -1.4157 -0.4251
 3832SOL    HW215413   3.675   4.634   6.364  0.0633  1.1137  0.8750
 3833SOL     OW15414   9.457   2.171   5.389 -0.3797  0.0662  0.2128
 3833SOL    HW115415   9.547   2.140   5.392 -0.1840  0.6632  0.6074
 3833SOL    HW215416   9.436   2.191   5.480 -0.2584  1.8012 -0.1150
 3834SOL     OW15417   3.515   1.345   7.069 -0.3944  0.0606 -0.2262
 3834SOL    HW115418   3.545   1.269   7.118  0.8048  0.3895 -0.4253
 3834SOL    HW215419   3.573   1.416   7.097 -0.5964  0.5733 -1.0818
 3835SOL     OW15420   2.641   4.065   3.294  0.1930 -0.0992  0.3479
 3835SOL    HW115421   2.601   3.985   3.259 -0.5163  0.0286  0.8448
 3835SOL    HW215422   2.619   4.064   3.387 -1.3097  1.5201  0.0599
 3836SOL     OW15423   8.573   1.317   0.504  1.0398 -0.6086  0.2962
 3836SOL    HW115424   8.573   1.413   0.504  0.8913 -0.5875  1.4572
 3836SOL    HW215425   8.487   1.293   0.539  0.7391 -1.1906 -0.8016
 3837SOL     OW15426   4.124   3.156   9.521 -0.0805  0.2797  0.0319
 3837SOL    HW115427   4.164   3.101   9.454 -0.9111 -0.6867  0.2995
 3837SOL    HW215428   4.068   3.216   9.471 -0.9563 -0.6575 -0.1392
 3838SOL     OW15429   3.320   9.540   6.324  0.2512  0.2865  0.6246
 3838SOL    HW115430   3.287   9.630   6.326  0.2295  0.3718 -1.4536
 3838SOL    HW215431   3.399   9.545   6.272 -0.1927 -1.0251 -0.2200
 3839SOL     OW15432   9.520   9.997   3.332 -0.2293  0.0215 -0.2372
 3839SOL    HW115433   9.576  10.060   3.287  1.7498 -0.4260  1.4778
 3839SOL    HW215434   9.541   9.913   3.291  1.7012 -0.4133  1.5226
 3840SOL     OW15435   3.065   5.749   7.694 -0.5197  0.0464 -0.3743
 3840SOL    HW115436   2.970   5.737   7.686 -0.7199  1.7741 -1.0343
 3840SOL    HW215437   3.100   5.707   7.616 -0.7140 -0.7952 -0.0169
 3841SOL     OW15438   6.662   6.592   8.793 -0.0056  0.4995  0.7245
 3841SOL    HW115439   6.590   6.542   8.756  0.7566 -0.0514 -0.0569
 3841SOL    HW215440   6.717   6.614   8.717  0.0153  1.9582  1.1370
 3842SOL     OW15441   6.961   2.874   7.711 -0.5228 -0.0249 -0.1270
 3842SOL    HW115442   7.048   2.837   7.720  0.2226  1.7645  0.5165
 3842SOL    HW215443   6.970   2.940   7.642 -1.4105  0.0851 -0.1555
 3843SOL     OW15444   2.656   1.830   1.227  0.1785  0.0570  0.4823
 3843SOL    HW115445   2.729   1.804   1.171  1.5225  1.2208  1.6220
 3843SOL    HW215446   2.688   1.820   1.316 -1.2738  0.0127  1.0318
 3844SOL     OW15447   3.613   0.995   7.415 -0.1661  0.3864 -0.2263
 3844SOL    HW115448   3.657   1.072   7.449  1.2614 -0.8979  0.9576
 3844SOL    HW215449   3.656   0.921   7.457 -1.7108 -1.0719 -1.0479
 3845SOL     OW15450  10.128   2.187   4.345 -0.2599  0.4209 -0.0697
 3845SOL    HW115451  10.092   2.111   4.392  2.0186 -1.3452 -0.9740
 3845SOL    HW215452  10.070   2.198   4.270 -0.5701 -0.5483  0.0080
 3846SOL     OW15453   2.088   8.626   9.011 -0.0720  0.6035 -0.1457
 3846SOL    HW115454   2.113   8.715   8.987 -3.1356  1.8368  0.7591
 3846SOL    HW215455   2.048   8.590   8.931  1.3402 -0.1111 -0.5725
 3847SOL     OW15456   6.287   0.863   6.805 -0.1295 -0.1265 -0.3038
 3847SOL    HW115457   6.308   0.819   6.887 -0.5047 -0.1989 -0.2435
 3847SOL    HW215458   6.314   0.954   6.819  0.4722 -0.2928 -0.3612
 3848SOL     OW15459   1.911   9.900   7.545  0.3217 -0.5358 -0.0989
 3848SOL    HW115460   2.005   9.911   7.533  0.3979 -2.3226 -1.5477
 3848SOL    HW215461   1.899   9.805   7.555 -1.4909 -0.5309 -1.7771
 3849SOL     OW15462   9.809   0.763   0.126  0.4325 -0.2266  0.4383
 3849SOL    HW115463   9.812   0.822   0.201  1.6840 -1.2422  1.2430
 3849SOL    HW215464   9.824   0.819   0.050 -1.2810  0.8853  0.8783
 3850SOL     OW15465   3.124   5.502   3.140  0.1985 -0.0096  0.0664
 3850SOL    HW115466   3.165   5.496   3.226  1.2634 -0.8750 -0.4810
 3850SOL    HW215467   3.108   5.596   3.128 -0.6803  0.0571  1.5089
 3851SOL     OW15468   9.975   3.096   7.537 -0.2648  0.2645 -0.4118
 3851SOL    HW115469   9.899   3.058   7.492  0.7884 -3.9658  0.8543
 3851SOL    HW215470  10.043   3.098   7.471  0.0388 -1.6369 -0.2237
 3852SOL     OW15471   4.200   5.268   0.045  0.1323 -0.2202  0.5756
 3852SOL    HW115472   4.201   5.184  -0.000 -3.3780  0.0168 -0.2231
 3852SOL    HW215473   4.286   5.306   0.026  0.2965 -1.8314 -2.6558
 3853SOL     OW15474   2.036   7.779   1.231  0.0135  0.5326 -0.3689
 3853SOL    HW115475   1.984   7.732   1.166 -0.5918  0.8264 -0.1011
 3853SOL    HW215476   2.051   7.715   1.301 -0.6883  0.6827 -0.0711
 3854SOL     OW15477   3.104   4.318   4.639 -0.0874 -0.0874  0.1489
 3854SOL    HW115478   3.120   4.317   4.544 -2.1180 -2.9386 -0.2983
 3854SOL    HW215479   3.090   4.410   4.660  2.8827  0.9737 -1.7710
 3855SOL     OW15480   1.623   1.443   6.090 -0.4161 -0.3504 -0.4457
 3855SOL    HW115481   1.713   1.475   6.098 -0.5714 -0.1545  0.7417
 3855SOL    HW215482   1.601   1.411   6.178 -1.2204 -1.1749 -0.9287
 3856SOL     OW15483   8.086   2.027   8.512 -0.1410  0.5919 -0.3316
 3856SOL    HW115484   8.078   2.048   8.605  0.6012  0.2568 -0.1844
 3856SOL    HW215485   8.090   2.112   8.468  1.8879  0.8025  0.1670
 3857SOL     OW15486   5.005   3.443   1.012  0.2087 -0.3139  0.8930
 3857SOL    HW115487   4.942   3.430   1.083  1.2176  0.7166  2.0216
 3857SOL    HW215488   5.040   3.531   1.027 -0.9853  0.7734 -2.0641
 3858SOL     OW15489   0.144  10.166   1.115 -0.2925  0.1364 -0.5884
 3858SOL    HW115490   0.149  10.182   1.020 -1.0998 -1.2579 -0.8965
 3858SOL    HW215491   0.062  10.207   1.142  0.6045  1.7324 -0.2098
 3859SOL     OW15492   5.325   5.757   2.402 -0.0889  0.0713 -0.1716
 3859SOL    HW115493   5.277   5.766   2.319 -0.5535  0.5142  0.1407
 3859SOL    HW215494   5.320   5.843   2.443  1.2932  0.2310 -0.2860
 3860SOL     OW15495   9.784   8.221   6.321  0.1097  0.1308 -0.0457
 3860SOL    HW115496   9.775   8.184   6.409 -1.3403 -0.9471 -0.5964
 3860SOL    HW215497   9.804   8.145   6.265 -0.4689  0.5442 -0.8468
 3861SOL     OW15498   3.595   3.350   3.944 -0.3399 -0.0713  0.4218
 3861SOL    HW115499   3.670   3.290   3.949 -1.2761 -1.3305 -0.0149
 3861SOL    HW215500   3.632   3.433   3.915  0.6088 -1.3037 -2.2423
 3862SOL     OW15501   6.455   3.241   0.611  0.7198 -0.3517 -0.4507
 3862SOL    HW115502   6.525   3.287   0.565 -0.6822  3.1780  0.5722
 3862SOL    HW215503   6.379   3.250   0.553  0.4699 -1.7732 -0.3706
 3863SOL     OW15504   2.073   8.283   4.678  0.0183  0.3236 -0.5420
 3863SOL    HW115505   2.094   8.231   4.601  0.4850  0.1259 -0.2812
 3863SOL    HW215506   2.137   8.257   4.744 -0.0214  0.9050 -0.2668
 3864SOL     OW15507   3.086   9.677   1.503  0.1375  0.2761 -0.1712
 3864SOL    HW115508   3.001   9.673   1.547 -0.0503  2.2698 -0.2358
 3864SOL    HW215509   3.116   9.586   1.498 -1.9355 -0.4491 -0.0592
 3865SOL     OW15510   1.318   4.334   1.811  0.0529  0.2601  0.2196
 3865SOL    HW115511   1.328   4.428   1.826 -0.3417  0.7211 -2.0427
 3865SOL    HW215512   1.406   4.303   1.788 -0.3678  0.9326 -2.8251
 3866SOL     OW15513   4.318   3.853   1.976  0.2727  0.5495 -0.2758
 3866SOL    HW115514   4.353   3.942   1.974  0.5036  0.5160  1.0373
 3866SOL    HW215515   4.247   3.853   1.911 -0.0495  1.8261  0.0479
 3867SOL     OW15516   6.432   4.474   5.053  0.6784 -0.3195 -0.6337
 3867SOL    HW115517   6.415   4.387   5.017 -0.2474  0.4131 -2.0951
 3867SOL    HW215518   6.404   4.534   4.984  3.7367  1.1483 -0.7636
 3868SOL     OW15519   3.861   6.629   8.534  0.0279 -0.3658  0.1934
 3868SOL    HW115520   3.918   6.634   8.610 -0.1254  1.1408  0.2476
 3868SOL    HW215521   3.896   6.558   8.482  1.2571 -0.2203  0.7885
 3869SOL     OW15522   8.887   4.056   9.153 -0.4377 -0.3642 -0.0993
 3869SOL    HW115523   8.961   4.093   9.104  1.2059 -0.4718  2.1669
 3869SOL    HW215524   8.872   4.117   9.225 -1.4267 -1.2492  0.4784
 3870SOL     OW15525   5.791   7.049   4.781  0.2121 -0.1478 -0.3599
 3870SOL    HW115526   5.810   7.137   4.749 -1.0246 -0.3037 -1.5813
 3870SOL    HW215527   5.731   7.064   4.855 -1.2928 -0.0012 -1.5684
 3871SOL     OW15528   4.592   0.252   9.747  0.0456  0.1623  0.0535
 3871SOL    HW115529   4.549   0.168   9.762 -1.3836  0.8061 -0.2869
 3871SOL    HW215530   4.595   0.260   9.651 -0.7977  0.9517  0.0748
 3872SOL     OW15531   0.577   0.788   8.065  0.5891 -0.3868 -0.3063
 3872SOL    HW115532   0.608   0.698   8.052  0.5539 -0.1648 -2.1571
 3872SOL    HW215533   0.654   0.837   8.092  0.5671 -0.9992  0.9248
 3873SOL     OW15534   3.207   0.511   9.201 -0.0049 -0.2426  0.3009
 3873SOL    HW115535   3.202   0.467   9.117  0.3153 -0.6824  0.5112
 3873SOL    HW215536   3.132   0.477   9.250  0.2930 -0.6190  0.4952
 3874SOL     OW15537   4.191   9.643  10.204 -0.2700  0.7134 -0.1781
 3874SOL    HW115538   4.196   9.712  10.138  0.1702  0.2506 -0.6312
 3874SOL    HW215539   4.103   9.653  10.243  0.2757  2.3935  0.7258
 3875SOL     OW15540   7.333   5.520   3.720  0.4108  0.1505  0.2832
 3875SOL    HW115541   7.383   5.553   3.795  0.6385  0.0270  0.1872
 3875SOL    HW215542   7.372   5.562   3.644  0.4954 -0.0970  0.1897
 3876SOL     OW15543   5.285   3.317   9.714  0.1135 -0.7508  0.5997
 3876SOL    HW115544   5.276   3.394   9.659  1.3897 -1.9155 -1.3430
 3876SOL    HW215545   5.355   3.339   9.775 -0.2575 -0.0171  0.7764
 3877SOL     OW15546   1.716   9.388   8.542  0.0383 -0.0516 -0.1475
 3877SOL    HW115547   1.690   9.303   8.577  0.6687 -0.2020 -0.0385
 3877SOL    HW215548   1.642   9.414   8.486 -1.6301  0.8295  2.3051
 3878SOL     OW15549  10.039   1.117   6.158 -0.0642 -0.2913 -0.1210
 3878SOL    HW115550  10.013   1.163   6.237  1.2669 -0.6682  0.5619
 3878SOL    HW215551  10.021   1.025   6.177 -0.7000 -0.2960 -0.6697
 3879SOL     OW15552   5.418   1.916   7.825  0.5758 -0.3536 -0.0224
 3879SOL    HW115553   5.347   1.853   7.836  0.2602  0.1636  1.0677
 3879SOL    HW215554   5.462   1.888   7.745 -0.5306 -0.9924 -0.4399
 3880SOL     OW15555   7.315   4.703   0.232 -0.1788  0.3117  0.6776
 3880SOL    HW115556   7.324   4.617   0.192 -0.0497  0.6780 -0.0896
 3880SOL    HW215557   7.298   4.684   0.325  2.8113 -0.5209  1.1578
 3881SOL     OW15558   5.916   4.221   6.987 -0.2984 -0.1672 -0.2484
 3881SOL    HW115559   5.866   4.156   7.037 -0.1231  0.0974  0.2800
 3881SOL    HW215560   5.860   4.298   6.986 -0.2161 -0.1080 -0.2853
 3882SOL     OW15561   9.102   8.808   2.485 -0.6232  0.1446 -0.2545
 3882SOL    HW115562   9.188   8.849   2.496  0.9817 -3.3142  1.7821
 3882SOL    HW215563   9.099   8.784   2.392  0.6265  0.4083 -0.3887
 3883SOL     OW15564   9.720   2.729   1.680 -0.4712  0.5850 -0.5339
 3883SOL    HW115565   9.653   2.700   1.618 -1.4779 -1.2287  1.2804
 3883SOL    HW215566   9.671   2.756   1.758  0.7828  2.3239 -0.2785
 3884SOL     OW15567   8.419   1.806   6.018 -0.0464  0.2241 -0.3336
 3884SOL    HW115568   8.395   1.805   5.925 -0.1335 -0.1078 -0.3078
 3884SOL    HW215569   8.358   1.745   6.060 -0.0383  0.4071 -0.0489
 3885SOL     OW15570   3.714   9.293   4.932  0.3321 -0.0317  0.3053
 3885SOL    HW115571   3.772   9.217   4.935  0.5486 -0.0244 -1.9554
 3885SOL    HW215572   3.629   9.258   4.905 -0.1237  0.2681  1.3157
 3886SOL     OW15573   2.662   3.717   2.551 -0.5059 -0.5114 -0.3532
 3886SOL    HW115574   2.669   3.812   2.561  1.4458 -0.5162 -1.0819
 3886SOL    HW215575   2.612   3.705   2.470 -1.9921 -0.1697  0.4793
 3887SOL     OW15576   4.235   7.630   2.975 -0.4650  0.0208 -0.1837
 3887SOL    HW115577   4.219   7.715   2.934  0.1596  0.1480 -0.1791
 3887SOL    HW215578   4.329   7.614   2.961 -0.4306 -0.3416  0.4226
 3888SOL     OW15579   2.269   7.296   5.112  0.2008 -0.0616 -0.6866
 3888SOL    HW115580   2.283   7.230   5.044 -0.8655 -0.0800 -0.9075
 3888SOL    HW215581   2.222   7.251   5.181  1.2893 -0.0405  0.0890
 3889SOL     OW15582   1.364   3.338   7.994 -0.4181 -0.1505  0.3188
 3889SOL    HW115583   1.449   3.333   8.038 -0.5181  0.2306  0.5597
 3889SOL    HW215584   1.300   3.321   8.063 -0.4972 -1.5659 -0.0889
 3890SOL     OW15585   0.852   4.022   2.999 -0.7877 -0.5887  0.2384
 3890SOL    HW115586   0.843   4.001   2.906  0.9474 -1.7777  0.2809
 3890SOL    HW215587   0.776   3.981   3.041 -2.8428  1.8790 -0.8497
 3891SOL     OW15588   5.146   1.270   1.935 -0.3738  0.4141 -0.0013
 3891SOL    HW115589   5.223   1.239   1.981  0.2245  1.0555 -0.5352
 3891SOL    HW215590   5.178   1.292   1.847 -1.2648  0.2155 -0.3833
 3892SOL     OW15591   3.569   2.692   9.475 -0.1812 -0.4796  0.6025
 3892SOL    HW115592   3.616   2.633   9.534 -0.7866  0.0926  1.7020
 3892SOL    HW215593   3.599   2.779   9.500  0.3467 -0.2775 -0.6783
 3893SOL     OW15594   4.993   6.320   6.935  0.1451 -0.2252  0.0466
 3893SOL    HW115595   4.905   6.305   6.969  0.5119 -0.3440  0.9767
 3893SOL    HW215596   5.037   6.235   6.944  0.7906  0.1831  0.9656
 3894SOL     OW15597   6.927   0.780   3.426 -0.2091  0.1004  0.3418
 3894SOL    HW115598   6.976   0.847   3.379  0.8759 -0.4204  0.7021
 3894SOL    HW215599   6.846   0.823   3.453 -0.6287  0.5650 -1.5251
 3895SOL     OW15600   4.568   5.645   0.645  0.5267  0.8093  0.2950
 3895SOL    HW115601   4.525   5.565   0.614  0.8451  1.0298 -0.7480
 3895SOL    HW215602   4.575   5.700   0.568  2.8404  0.7275  0.3793
 3896SOL     OW15603   3.056   1.975   1.995  0.6479  0.0202  0.1372
 3896SOL    HW115604   3.042   2.045   2.058  1.3137 -0.9567  1.4202
 3896SOL    HW215605   3.015   2.007   1.914  0.7014  1.7451  0.7506
 3897SOL     OW15606  10.154   8.162   8.171  0.9063 -0.1342 -0.0745
 3897SOL    HW115607  10.222   8.104   8.206  0.6918  0.1577  0.8676
 3897SOL    HW215608  10.176   8.249   8.205  1.3115  0.3931 -1.5938
 3898SOL     OW15609   0.210   6.474   6.131  0.3581  0.7141 -0.4884
 3898SOL    HW115610   0.289   6.434   6.096  0.2072 -0.0888  0.0518
 3898SOL    HW215611   0.195   6.429   6.214 -0.9178  0.5151 -0.7980
 3899SOL     OW15612   2.993   3.430   5.089 -0.2952 -0.1928 -0.4983
 3899SOL    HW115613   3.039   3.479   5.157  0.7506 -2.0894  0.2018
 3899SOL    HW215614   2.954   3.356   5.134 -0.4566 -0.9371 -1.8097
 3900SOL     OW15615   6.142   2.669   8.423  0.2213 -0.7250 -0.2848
 3900SOL    HW115616   6.191   2.751   8.428  0.6831 -1.0108 -0.0169
 3900SOL    HW215617   6.117   2.661   8.331 -0.0211 -0.1684 -0.2651
 3901SOL     OW15618   1.076   0.328   0.358 -0.0230  0.3096 -0.2183
 3901SOL    HW115619   1.148   0.329   0.422 -0.9845  1.2874  0.9167
 3901SOL    HW215620   1.089   0.248   0.308  1.8698  0.4852 -0.0719
 3902SOL     OW15621   0.023   6.346   3.697 -0.2541  0.2587 -0.0101
 3902SOL    HW115622  -0.003   6.254   3.694 -0.0306  0.1813  0.3368
 3902SOL    HW215623  -0.054   6.394   3.668 -0.0034 -0.0953 -1.3778
 3903SOL     OW15624   4.706   4.752  10.125  0.5217  0.3244  0.4297
 3903SOL    HW115625   4.707   4.666  10.167  0.7399 -0.0041 -0.2264
 3903SOL    HW215626   4.765   4.742  10.050 -1.8063  0.1173 -1.4839
 3904SOL     OW15627   3.861   9.175   1.688  0.0386  0.1253 -0.3562
 3904SOL    HW115628   3.931   9.238   1.706 -0.0953 -0.0532  0.9360
 3904SOL    HW215629   3.907   9.095   1.663  0.2080  0.7103 -2.0385
 3905SOL     OW15630   6.259   5.866   4.083  0.0093  0.2386 -0.1740
 3905SOL    HW115631   6.238   5.943   4.030 -2.0404  1.0924  1.7186
 3905SOL    HW215632   6.339   5.890   4.129 -0.5402  1.2360  0.3063
 3906SOL     OW15633   5.500   1.544  10.185  1.0076  0.2320 -0.5816
 3906SOL    HW115634   5.580   1.561  10.234  0.7063  1.4193 -0.4657
 3906SOL    HW215635   5.452   1.627  10.187 -1.1676 -0.9466  1.0139
 3907SOL     OW15636   0.911   7.359  10.063 -0.1144  0.2354 -0.7544
 3907SOL    HW115637   0.901   7.276  10.016  2.5553 -0.4495 -0.2600
 3907SOL    HW215638   0.930   7.423   9.995  0.9136 -0.1971 -0.8901
 3908SOL     OW15639   7.430   5.971   3.379 -0.3534  0.0272 -0.1632
 3908SOL    HW115640   7.453   6.058   3.411 -0.0592  0.2220 -0.8777
 3908SOL    HW215641   7.356   5.945   3.433 -0.0710  0.4690  0.4564
 3909SOL     OW15642   4.012   0.538   4.812 -0.3146 -0.3019  0.4331
 3909SOL    HW115643   4.005   0.607   4.878  0.1043 -2.4176  2.7986
 3909SOL    HW215644   4.105   0.534   4.791 -0.3205 -0.2543  0.3955
 3910SOL     OW15645   0.922   2.161   8.045 -0.4111  0.4906  0.1000
 3910SOL    HW115646   1.017   2.163   8.055 -0.3989  1.6931 -0.0820
 3910SOL    HW215647   0.906   2.089   7.984  0.4975  1.1208 -0.9230
 3911SOL     OW15648   3.945   8.522   3.712 -0.9325 -0.4831  0.3380
 3911SOL    HW115649   3.874   8.517   3.648 -0.0697  0.3394 -0.7373
 3911SOL    HW215650   3.902   8.517   3.797 -2.3666  0.6667 -0.2766
 3912SOL     OW15651   5.029   6.193   2.379 -0.3332 -0.4193  0.3452
 3912SOL    HW115652   4.999   6.249   2.307 -0.1019  0.4589  0.9046
 3912SOL    HW215653   4.949   6.165   2.422 -0.4664  2.2634  2.0915
 3913SOL     OW15654   5.404   7.271   5.216 -0.2099 -0.3851 -0.4353
 3913SOL    HW115655   5.468   7.227   5.271 -0.2984  1.2103  1.0100
 3913SOL    HW215656   5.454   7.336   5.167 -0.7540  1.5907  1.4640
 3914SOL     OW15657   8.226   0.571   2.955  0.0882  0.1963 -0.2468
 3914SOL    HW115658   8.294   0.579   2.887  1.5151  3.8506  1.3487
 3914SOL    HW215659   8.273   0.541   3.032 -0.6550  0.2425  0.2295
 3915SOL     OW15660   1.896   5.860   3.784 -0.0464  0.3104  0.1241
 3915SOL    HW115661   1.851   5.916   3.720 -0.9677 -0.1524  0.3421
 3915SOL    HW215662   1.920   5.781   3.734 -0.0183  0.3038  0.1480
 3916SOL     OW15663   7.751   4.910   6.108  0.3447 -0.0558  0.1346
 3916SOL    HW115664   7.796   4.898   6.191 -0.0936 -1.2675  0.2090
 3916SOL    HW215665   7.801   4.856   6.046 -0.7701 -1.1207  0.1412
 3917SOL     OW15666   9.397   9.531   2.316 -0.8450 -0.7838 -0.7484
 3917SOL    HW115667   9.460   9.584   2.365 -0.8193 -0.3337 -1.2533
 3917SOL    HW215668   9.345   9.487   2.383 -1.1163  0.1815 -0.3061
 3918SOL     OW15669   5.328   9.364   3.648 -0.2042 -0.0918 -0.0168
 3918SOL    HW115670   5.423   9.352   3.654 -0.1457  0.2394 -0.2962
 3918SOL    HW215671   5.294   9.275   3.635  0.2127 -0.0273 -1.8153
 3919SOL     OW15672   1.126   9.392   4.196  0.3549  0.1323  0.2121
 3919SOL    HW115673   1.053   9.332   4.207  0.0490 -0.0085 -2.0591
 3919SOL    HW215674   1.086   9.476   4.174  0.8599  0.1684 -0.5999
 3920SOL     OW15675   4.313   9.187   9.536  0.3935  0.6407  0.1027
 3920SOL    HW115676   4.252   9.250   9.575 -1.5866 -0.3209 -1.2298
 3920SOL    HW215677   4.341   9.228   9.454 -1.0407 -0.1805 -0.8569
 3921SOL     OW15678   2.452   7.411   3.384 -0.0978  0.0210  0.0622
 3921SOL    HW115679   2.387   7.479   3.366  0.7864  0.6366 -0.9300
 3921SOL    HW215680   2.536   7.455   3.371  0.4881 -1.3085 -0.7802
 3922SOL     OW15681   3.973   1.828   0.374  0.4573  0.4141 -0.0221
 3922SOL    HW115682   3.951   1.750   0.424 -0.2641 -0.1560 -1.1889
 3922SOL    HW215683   4.065   1.845   0.396  0.1891  0.1494  1.4026
 3923SOL     OW15684   5.594   1.980   6.749 -0.2676 -0.6405 -0.5216
 3923SOL    HW115685   5.583   1.913   6.680 -1.0325 -0.8653 -0.1946
 3923SOL    HW215686   5.619   1.930   6.827 -2.2140 -0.7478  0.0918
 3924SOL     OW15687   0.137   1.458   5.984 -0.6194  0.1393  0.4688
 3924SOL    HW115688   0.230   1.436   5.993 -0.5774 -0.1860 -0.5772
 3924SOL    HW215689   0.114   1.425   5.897 -2.3101 -1.9374  1.6200
 3925SOL     OW15690   2.966   1.380   5.683 -0.0304  0.2004  0.3773
 3925SOL    HW115691   3.039   1.321   5.664 -1.3825 -1.6529  0.7197
 3925SOL    HW215692   2.948   1.366   5.776  0.8414  2.6437  0.9979
 3926SOL     OW15693   9.355   7.634   4.584 -0.3551 -0.4182 -0.4202
 3926SOL    HW115694   9.430   7.625   4.525 -0.1991 -1.2240 -0.1028
 3926SOL    HW215695   9.343   7.729   4.592  0.6515 -0.2754 -0.4431
 3927SOL     OW15696   4.226   1.228   0.550  0.1888 -0.1847 -0.1255
 3927SOL    HW115697   4.238   1.274   0.633  3.3812 -0.6615 -0.2009
 3927SOL    HW215698   4.206   1.138   0.574  0.4888 -0.1865  0.1138
 3928SOL     OW15699   0.461   3.697   4.994 -0.5162 -0.2614 -0.0324
 3928SOL    HW115700   0.369   3.691   5.017 -0.3995 -0.8997  0.2849
 3928SOL    HW215701   0.462   3.735   4.906 -1.1148 -0.9697 -0.3458
 3929SOL     OW15702   7.979   2.038   3.134  0.2412  0.1830  0.2123
 3929SOL    HW115703   7.984   2.076   3.222  2.0424 -0.2876  0.3532
 3929SOL    HW215704   8.005   2.109   3.076  1.1817 -0.1213  0.2572
 3930SOL     OW15705   1.159   8.108   6.504 -0.5023  0.1791  0.0151
 3930SOL    HW115706   1.211   8.109   6.424 -1.3901  1.4136 -0.5689
 3930SOL    HW215707   1.156   8.015   6.529  0.2175 -0.1600 -1.0844
 3931SOL     OW15708   0.777   6.673   7.269  0.6545  0.1868 -0.4804
 3931SOL    HW115709   0.717   6.629   7.208  0.4477  0.0485 -0.1752
 3931SOL    HW215710   0.859   6.681   7.220  0.8184 -0.9067 -0.3949
 3932SOL     OW15711   2.767   6.141   6.382 -0.3684  0.5596 -0.1875
 3932SOL    HW115712   2.803   6.229   6.367 -2.6466  2.3691  3.4127
 3932SOL    HW215713   2.672   6.155   6.384 -1.0940 -2.7272 -2.6999
 3933SOL     OW15714   0.924   2.121   6.279 -0.2777  0.1052  0.2839
 3933SOL    HW115715   0.997   2.118   6.342 -0.1002 -1.5327  0.0602
 3933SOL    HW215716   0.936   2.203   6.232  1.2950 -0.0105  0.4282
 3934SOL     OW15717   0.232   6.765   8.536 -0.0121  0.0832  0.2736
 3934SOL    HW115718   0.162   6.806   8.587  0.8639  1.7791  0.1725
 3934SOL    HW215719   0.192   6.686   8.501 -1.3016  0.0154  1.7663
 3935SOL     OW15720   4.292   7.122   4.874  0.2936 -0.2018 -0.0365
 3935SOL    HW115721   4.308   7.086   4.787 -1.8177 -0.2340 -0.4751
 3935SOL    HW215722   4.254   7.050   4.924 -0.4415  0.3622  0.2476
 3936SOL     OW15723   3.131   4.853   5.896  0.0848  0.3511 -0.0167
 3936SOL    HW115724   3.089   4.848   5.982  0.0263 -1.4770 -0.1125
 3936SOL    HW215725   3.066   4.897   5.841 -0.9217 -0.7131  0.2894
 3937SOL     OW15726   0.798   8.684   5.739 -0.1757  0.3596  0.4156
 3937SOL    HW115727   0.781   8.696   5.645 -0.9569  1.3787  0.6684
 3937SOL    HW215728   0.887   8.649   5.742 -0.0253  0.5831 -0.6960
 3938SOL     OW15729   5.822   2.758   9.443  0.7935 -0.3232 -0.0831
 3938SOL    HW115730   5.758   2.784   9.377 -0.2630 -0.9230  0.6856
 3938SOL    HW215731   5.842   2.666   9.421  2.4107  0.2124 -1.1022
 3939SOL     OW15732   7.198   6.846   4.819 -0.2760 -0.3013 -0.3242
 3939SOL    HW115733   7.134   6.861   4.888 -1.4095  0.5633 -1.5056
 3939SOL    HW215734   7.205   6.931   4.775  1.0952 -0.6005 -0.7121
 3940SOL     OW15735   9.320   9.544   3.231 -0.6691 -0.1409  0.2836
 3940SOL    HW115736   9.257   9.475   3.210 -0.7407  0.2291 -0.8191
 3940SOL    HW215737   9.269   9.609   3.278 -0.6916 -0.6558  0.9874
 3941SOL     OW15738   5.368   3.200   2.493  0.0516  0.5489  0.6425
 3941SOL    HW115739   5.365   3.141   2.569  1.3080  1.3148  1.3029
 3941SOL    HW215740   5.428   3.269   2.519  2.1084 -0.2020 -1.7994
 3942SOL     OW15741   6.302   4.599   8.309  0.2510 -0.3892  0.2699
 3942SOL    HW115742   6.391   4.607   8.342 -0.5332  0.6984  2.3063
 3942SOL    HW215743   6.280   4.507   8.321  1.1901 -0.7413 -0.5743
 3943SOL     OW15744   2.848   2.898   9.870  0.6556  0.2756  0.2633
 3943SOL    HW115745   2.940   2.873   9.875  0.8673  1.2924  1.9695
 3943SOL    HW215746   2.807   2.855   9.945 -0.7467 -1.8703 -1.6025
 3944SOL     OW15747   9.652   9.338   6.771 -0.1636 -0.2022 -0.4494
 3944SOL    HW115748   9.619   9.401   6.835  0.4146 -0.3218 -0.0298
 3944SOL    HW215749   9.575   9.288   6.744 -0.6021  0.5661 -0.6623
 3945SOL     OW15750   3.229   4.959   6.922 -0.4038 -0.3099 -0.2055
 3945SOL    HW115751   3.272   4.984   7.004  0.0656  1.8887 -1.0498
 3945SOL    HW215752   3.157   5.022   6.913 -2.4294 -2.4635  0.0148
 3946SOL     OW15753   2.811   2.984   1.842 -0.1718 -0.0067 -0.2469
 3946SOL    HW115754   2.906   2.979   1.831 -0.0686  1.7299 -0.4971
 3946SOL    HW215755   2.791   2.922   1.913  1.7224  2.3038  2.5685
 3947SOL     OW15756   6.052   9.681   5.555 -0.0076 -0.2914  0.3157
 3947SOL    HW115757   6.118   9.704   5.620 -1.0862 -0.5144  1.5260
 3947SOL    HW215758   6.072   9.737   5.480  0.8956  0.4201  1.0634
 3948SOL     OW15759   5.190   3.002   6.876 -0.1343  0.0877 -0.2281
 3948SOL    HW115760   5.127   2.946   6.923  0.6575  0.7453  1.7367
 3948SOL    HW215761   5.222   2.947   6.804 -3.1549 -0.1450 -1.5361
 3949SOL     OW15762   0.766   5.919   1.253 -0.0774  0.0197 -0.1558
 3949SOL    HW115763   0.808   5.925   1.338 -0.2185  1.0082 -0.1478
 3949SOL    HW215764   0.834   5.942   1.190 -0.4168  1.0043 -0.1835
 3950SOL     OW15765   6.622   3.530   8.585  0.1240  0.1770  0.4679
 3950SOL    HW115766   6.570   3.596   8.540 -0.3609  0.8533  1.9671
 3950SOL    HW215767   6.558   3.469   8.621  0.5190 -0.5280 -0.0165
 3951SOL     OW15768   9.789   2.779   8.517 -0.8629  0.1853  0.4285
 3951SOL    HW115769   9.728   2.841   8.478  1.1192  1.3331 -1.0187
 3951SOL    HW215770   9.794   2.707   8.455 -0.3311  0.3666  0.2544
 3952SOL     OW15771   4.174   1.563   4.800 -0.0064  0.0622  0.2572
 3952SOL    HW115772   4.130   1.498   4.745  0.2137  0.6502 -0.6492
 3952SOL    HW215773   4.187   1.638   4.742 -0.3911  0.9815  1.3171
 3953SOL     OW15774   7.998   2.112   8.759  0.1730 -0.2632  0.0094
 3953SOL    HW115775   7.942   2.163   8.700  1.3038  0.5639 -0.3877
 3953SOL    HW215776   7.965   2.132   8.847  0.3244  0.8341 -0.1696
 3954SOL     OW15777   4.026   1.439   9.333  0.1897 -0.0739 -0.6913
 3954SOL    HW115778   3.938   1.418   9.365  0.5874 -0.6933  0.0033
 3954SOL    HW215779   4.011   1.506   9.265 -0.8536 -0.5391 -0.9392
 3955SOL     OW15780   7.196   4.305   1.151  0.2110 -0.5721  0.5743
 3955SOL    HW115781   7.233   4.332   1.235  3.6453 -1.1754 -0.5772
 3955SOL    HW215782   7.200   4.210   1.153 -1.4199 -0.6695  0.3737
 3956SOL     OW15783   5.623   4.957   7.609 -0.6005 -0.3023  0.2554
 3956SOL    HW115784   5.667   4.992   7.532 -0.6288  0.2332  0.4830
 3956SOL    HW215785   5.693   4.942   7.673 -0.7245  0.4691  0.5869
 3957SOL     OW15786   5.342   6.254   3.642 -0.5841  0.3851 -0.1202
 3957SOL    HW115787   5.287   6.291   3.712 -2.2787 -0.2501 -1.0534
 3957SOL    HW215788   5.332   6.314   3.569  0.0454  0.2991 -0.2829
 3958SOL     OW15789   6.110   2.932   8.482 -0.5921 -0.1221  0.5594
 3958SOL    HW115790   6.127   3.009   8.427 -0.5437  0.6089  1.5628
 3958SOL    HW215791   6.034   2.890   8.441 -2.3882  1.9817  1.4698
 3959SOL     OW15792  10.003   2.956   3.555  0.1812  0.3679 -0.3430
 3959SOL    HW115793   9.908   2.957   3.548  0.1971  1.6976 -0.4980
 3959SOL    HW215794  10.022   3.004   3.636  0.6721 -1.3786  0.6413
 3960SOL     OW15795   7.519   9.910   0.821 -0.4256  0.0585 -0.5002
 3960SOL    HW115796   7.452   9.859   0.777  0.3968  0.2168 -2.0157
 3960SOL    HW215797   7.482   9.997   0.831 -1.4595 -0.5208  1.2115
 3961SOL     OW15798   2.214   5.879   2.670 -0.2388  0.1934 -0.2902
 3961SOL    HW115799   2.268   5.839   2.738 -0.7324  1.4539  0.8677
 3961SOL    HW215800   2.133   5.827   2.671  0.1599 -0.4605 -0.6852
 3962SOL     OW15801   8.159   0.398   5.717  0.4786  0.0991 -0.0192
 3962SOL    HW115802   8.190   0.324   5.769  1.7300  1.0010  0.5682
 3962SOL    HW215803   8.147   0.468   5.781  0.2864  0.6964 -0.7089
 3963SOL     OW15804   3.246   1.496   2.274  0.1895 -0.4345  0.4866
 3963SOL    HW115805   3.256   1.575   2.220  0.0202 -0.6931  0.0680
 3963SOL    HW215806   3.286   1.427   2.222  0.1425 -0.6632  0.7564
 3964SOL     OW15807   3.316   6.579   6.518 -0.2280 -0.2175  0.3767
 3964SOL    HW115808   3.390   6.622   6.474 -0.5282 -1.0504 -0.9909
 3964SOL    HW215809   3.291   6.641   6.587  1.4936  0.2515  0.6351
 3965SOL     OW15810   9.443   5.047   2.908 -0.2059  0.9517 -0.1206
 3965SOL    HW115811   9.454   5.063   3.001 -2.0966  1.6252  0.0295
 3965SOL    HW215812   9.387   4.969   2.903 -0.5637  1.2358 -0.6731
 3966SOL     OW15813   4.970   6.748   7.369 -0.4582 -0.1347  0.3027
 3966SOL    HW115814   4.947   6.663   7.330  0.1120 -0.6746  1.0960
 3966SOL    HW215815   5.061   6.762   7.343 -0.6980  0.4687 -0.2193
 3967SOL     OW15816   9.797   9.480   2.043 -0.1840  0.1594 -0.1579
 3967SOL    HW115817   9.761   9.534   2.114  0.5202 -0.1455  0.4480
 3967SOL    HW215818   9.804   9.540   1.969  1.9224  1.3479  0.8874
 3968SOL     OW15819   5.137   2.460   2.610  0.1226  0.1884  0.3117
 3968SOL    HW115820   5.049   2.437   2.638  0.5677 -3.2913 -0.7247
 3968SOL    HW215821   5.132   2.554   2.589 -3.5774 -0.0790 -0.6167
 3969SOL     OW15822   8.841   4.317   8.668  0.2540  0.5614 -0.6132
 3969SOL    HW115823   8.936   4.331   8.668  0.4625 -0.5664  1.0651
 3969SOL    HW215824   8.821   4.287   8.579  1.9350 -1.8643 -0.2835
 3970SOL     OW15825   8.322   5.411   2.858 -0.4414 -0.4739 -0.9319
 3970SOL    HW115826   8.380   5.336   2.866  1.0389  0.7592  0.9058
 3970SOL    HW215827   8.248   5.391   2.915  0.3207 -0.2545  0.1616
 3971SOL     OW15828   1.448   9.342   5.208  0.4983 -0.1586 -0.4613
 3971SOL    HW115829   1.512   9.397   5.163  0.6673  1.8972  2.0788
 3971SOL    HW215830   1.366   9.357   5.161  1.0896  0.1597 -1.4095
 3972SOL     OW15831   5.393   4.890   7.715 -0.2085 -0.1930 -0.8450
 3972SOL    HW115832   5.329   4.883   7.644  1.1434 -2.2260 -1.9507
 3972SOL    HW215833   5.471   4.925   7.673  0.2001 -0.1526 -0.0668
 3973SOL     OW15834   7.073   2.909   8.770  0.0588 -0.5620 -0.2857
 3973SOL    HW115835   7.016   2.898   8.846 -0.7016 -0.2423 -0.7902
 3973SOL    HW215836   7.037   2.849   8.705  1.5790 -1.9026  0.0637
 3974SOL     OW15837   3.271   5.642   7.488  0.0018 -0.4206  0.2007
 3974SOL    HW115838   3.289   5.613   7.399 -1.4324  1.0457 -0.6173
 3974SOL    HW215839   3.346   5.697   7.511 -0.6984  1.1434 -1.0506
 3975SOL     OW15840   4.130   5.212   1.132  0.5026  0.6484 -0.1848
 3975SOL    HW115841   4.117   5.162   1.213  0.6855  1.2327  0.2203
 3975SOL    HW215842   4.050   5.199   1.082  0.2858  0.4694  0.2009
 3976SOL     OW15843   5.394   6.910   3.568  0.5298 -0.0351 -0.5522
 3976SOL    HW115844   5.455   6.937   3.499  0.2808  1.0292 -0.3659
 3976SOL    HW215845   5.415   6.818   3.583 -1.2357 -1.1927 -4.0438
 3977SOL     OW15846   3.953  10.206   8.984  0.1673 -0.2366  0.0018
 3977SOL    HW115847   3.986  10.244   8.903  0.1593 -0.9788 -0.3572
 3977SOL    HW215848   3.861  10.186   8.966 -0.1688  0.7288  0.6053
 3978SOL     OW15849   0.299   9.375   2.729 -0.1138  0.2383 -0.1112
 3978SOL    HW115850   0.326   9.436   2.660 -0.4258  0.7045  0.1749
 3978SOL    HW215851   0.359   9.393   2.801  1.1913 -1.2844 -0.7694
 3979SOL     OW15852   9.728   4.372   6.292 -0.4173 -0.8339 -0.1376
 3979SOL    HW115853   9.700   4.310   6.225  1.0187 -0.9590 -0.6426
 3979SOL    HW215854   9.690   4.337   6.373 -2.0979 -0.7302 -0.8288
 3980SOL     OW15855   7.399   2.617   6.364 -0.3273  0.5247 -0.0630
 3980SOL    HW115856   7.449   2.568   6.429 -0.8899  2.2460  1.7530
 3980SOL    HW215857   7.443   2.599   6.281  0.5726 -1.5327  0.7935
 3981SOL     OW15858   0.630   8.348   1.494  0.1394 -0.0267  0.3228
 3981SOL    HW115859   0.633   8.323   1.586 -1.1630  0.4436  0.5140
 3981SOL    HW215860   0.537   8.365   1.477  0.5650  1.4674 -0.6524
 3982SOL     OW15861   3.466   9.160   2.341  0.5582  0.7513 -0.3083
 3982SOL    HW115862   3.535   9.217   2.376  1.8625 -0.4345 -0.8388
 3982SOL    HW215863   3.499   9.131   2.256  1.5506 -3.3449  1.2255
 3983SOL     OW15864   2.474   3.900   4.923 -0.0079 -0.7925  0.2953
 3983SOL    HW115865   2.564   3.868   4.913  0.4708  0.1376  1.3930
 3983SOL    HW215866   2.444   3.916   4.833  2.1538  2.0985 -0.0419
 3984SOL     OW15867   2.363   9.735   0.558 -0.0221 -0.9001 -0.5087
 3984SOL    HW115868   2.280   9.751   0.512 -0.2033  1.0020  0.3854
 3984SOL    HW215869   2.344   9.758   0.649  1.1008 -1.8863 -0.0052
 3985SOL     OW15870   8.099   6.256   0.851  0.4610 -0.2098 -0.1929
 3985SOL    HW115871   8.014   6.247   0.809 -0.1697  1.3116  0.6683
 3985SOL    HW215872   8.163   6.250   0.780 -0.4658  0.2914 -1.0824
 3986SOL     OW15873   3.349   5.270   6.516 -0.1093  0.6419  0.4952
 3986SOL    HW115874   3.365   5.176   6.507 -2.2620  0.2383  0.3047
 3986SOL    HW215875   3.314   5.297   6.431  0.4610  1.6234  0.5535
 3987SOL     OW15876   1.860   4.308   4.042  0.2505  0.2740 -0.0832
 3987SOL    HW115877   1.821   4.347   4.121 -0.3334 -0.0793 -0.1817
 3987SOL    HW215878   1.951   4.335   4.044  0.3088  0.0647  0.8590
 3988SOL     OW15879   3.423   4.871   1.384  0.1814 -0.2070 -0.1660
 3988SOL    HW115880   3.443   4.808   1.314  2.1762  1.0329 -0.7980
 3988SOL    HW215881   3.328   4.874   1.386  0.0250 -2.3682 -0.8935
 3989SOL     OW15882   3.765   6.776   6.169  0.5161 -0.0427  0.5223
 3989SOL    HW115883   3.673   6.752   6.179  0.3673 -0.6599 -1.7439
 3989SOL    HW215884   3.790   6.811   6.254 -1.4365 -1.0802  1.6016
 3990SOL     OW15885   6.030   7.982   3.333  0.2138 -0.1508  0.2126
 3990SOL    HW115886   5.952   7.969   3.387 -0.0990 -0.0560 -0.2140
 3990SOL    HW215887   5.997   7.984   3.243  0.6691  0.1809  0.0478
 3991SOL     OW15888   0.419   9.424   0.053 -0.0275 -0.0700  0.1427
 3991SOL    HW115889   0.332   9.395   0.082  0.4315 -0.5123  1.1267
 3991SOL    HW215890   0.434   9.376  -0.028 -0.2231 -0.8916  0.5775
 3992SOL     OW15891   0.380   5.365  10.056 -0.1350  0.2450 -0.2582
 3992SOL    HW115892   0.409   5.455  10.070  0.7995  0.0869 -1.0634
 3992SOL    HW215893   0.390   5.323  10.142 -0.6735  0.9200  0.1460
 3993SOL     OW15894   4.393   5.414   1.671 -0.3631 -0.2017  0.9574
 3993SOL    HW115895   4.474   5.370   1.695  0.6495  1.6250  1.0693
 3993SOL    HW215896   4.396   5.497   1.719 -1.4289  0.6789 -0.4317
 3994SOL     OW15897   6.477   3.121   8.148 -0.0834 -0.0260  0.1962
 3994SOL    HW115898   6.559   3.089   8.186 -0.0287 -1.5168 -1.0707
 3994SOL    HW215899   6.502   3.200   8.100  0.7751 -0.8974 -0.8142
 3995SOL     OW15900   1.068   5.283   4.264 -0.3281 -0.1906 -0.8716
 3995SOL    HW115901   0.974   5.297   4.256 -0.1880  0.8563 -0.8115
 3995SOL    HW215902   1.087   5.213   4.202 -0.8403  0.9473 -2.3679
 3996SOL     OW15903   8.225   8.153   3.582 -0.2411 -0.1947  1.0205
 3996SOL    HW115904   8.164   8.167   3.510 -0.4243  1.6953  1.4770
 3996SOL    HW215905   8.312   8.164   3.543 -0.2739 -0.7493  0.7876
 3997SOL     OW15906   9.827   7.215   5.545  0.7083  0.1006  0.3181
 3997SOL    HW115907   9.797   7.138   5.497  0.9720 -0.8000  1.5362
 3997SOL    HW215908   9.845   7.182   5.633  1.8221  1.3530  0.5854
 3998SOL     OW15909   9.454   3.155   7.625 -0.0529  0.4135 -0.0241
 3998SOL    HW115910   9.482   3.106   7.548 -1.6861 -0.8780  0.1346
 3998SOL    HW215911   9.375   3.109   7.655 -0.6033  2.0788  1.2340
 3999SOL     OW15912   3.357   9.194   1.561 -0.6148 -0.1878  0.5409
 3999SOL    HW115913   3.279   9.219   1.512  0.0808  3.2019  0.9182
 3999SOL    HW215914   3.324   9.160   1.644 -1.6829 -1.5949 -0.4087
 4000SOL     OW15915   6.737   6.517   4.324  0.3790 -0.3508  0.4345
 4000SOL    HW115916   6.658   6.478   4.361 -0.5168  0.1280 -0.8968
 4000SOL    HW215917   6.707   6.597   4.281  1.5766 -0.1751 -0.1374
 4001SOL     OW15918   7.474   3.417   7.379  0.5961  0.3343  0.5784
 4001SOL    HW115919   7.507   3.505   7.363  0.3340  0.5213  1.0574
 4001SOL    HW215920   7.383   3.429   7.406 -0.1480 -0.2335 -1.5012
 4002SOL     OW15921   0.624   4.190   1.009  0.8163 -0.2895 -0.0780
 4002SOL    HW115922   0.531   4.198   1.030  0.7301  2.8098 -1.0475
 4002SOL    HW215923   0.666   4.167   1.092 -0.6888 -0.4011  0.6717
 4003SOL     OW15924   8.560   1.941   4.212 -0.1467 -0.3116 -0.8195
 4003SOL    HW115925   8.495   1.999   4.173 -0.7860 -1.0498 -0.8857
 4003SOL    HW215926   8.624   1.926   4.142  0.1742  0.5160 -0.7156
 4004SOL     OW15927   3.724   7.783   5.250 -0.0729  0.1060 -0.1738
 4004SOL    HW115928   3.773   7.720   5.197 -0.2796  1.0164 -1.4624
 4004SOL    HW215929   3.780   7.861   5.253 -1.2695  1.0517 -1.4170
 4005SOL     OW15930   4.289   0.445   3.718 -0.8140  0.3936  0.5243
 4005SOL    HW115931   4.212   0.395   3.690 -0.7015  0.9788 -0.9291
 4005SOL    HW215932   4.271   0.468   3.809 -1.9167 -0.3101  0.4970
 4006SOL     OW15933   1.125   7.318   9.459 -0.0679 -0.3938  0.3890
 4006SOL    HW115934   1.203   7.269   9.483 -0.4995 -1.8264 -0.9669
 4006SOL    HW215935   1.145   7.409   9.481  2.8109 -0.3737 -1.7955
 4007SOL     OW15936   3.529   5.267   8.000 -0.5378  0.2768  0.1288
 4007SOL    HW115937   3.469   5.235   8.067  0.0706 -0.9186  0.1326
 4007SOL    HW215938   3.603   5.206   8.003 -0.1889  0.6036 -1.1649
 4008SOL     OW15939   7.682   7.506   3.841  0.1847  0.0426 -0.4548
 4008SOL    HW115940   7.689   7.428   3.895 -2.5593 -0.4366 -0.6690
 4008SOL    HW215941   7.737   7.571   3.885 -0.2545 -0.9871  1.7119
 4009SOL     OW15942   6.036  10.083   2.695 -0.1730  0.7256 -0.7222
 4009SOL    HW115943   6.052  10.004   2.643 -1.2245 -1.4709  2.0487
 4009SOL    HW215944   6.122  10.121   2.708  0.6688 -1.1721 -0.4116
 4010SOL     OW15945   8.214   9.675   0.845 -0.2922 -0.3905  0.0429
 4010SOL    HW115946   8.296   9.657   0.799 -0.9715 -0.3712 -1.2297
 4010SOL    HW215947   8.241   9.713   0.929  0.9982  0.8869 -0.8912
 4011SOL     OW15948   3.714   5.308   2.741 -0.5211 -0.1394  0.3222
 4011SOL    HW115949   3.683   5.269   2.822 -0.9629 -1.0928 -0.2848
 4011SOL    HW215950   3.696   5.242   2.674  0.2485  0.4351 -0.4838
 4012SOL     OW15951   7.177   1.565   9.588  0.3425  0.1252  0.0412
 4012SOL    HW115952   7.257   1.592   9.633  0.0803 -0.0495  0.6318
 4012SOL    HW215953   7.125   1.645   9.582 -0.4198 -0.1815  1.7637
 4013SOL     OW15954   7.335   9.710   1.639  0.3283 -0.5126  0.3867
 4013SOL    HW115955   7.239   9.714   1.649 -0.2287  1.5512 -3.5390
 4013SOL    HW215956   7.362   9.802   1.636  2.2462 -1.0632  0.1278
 4014SOL     OW15957   9.987   5.489   7.674  0.6471  0.3732 -0.7636
 4014SOL    HW115958   9.985   5.569   7.620  2.1217 -0.0441 -1.4838
 4014SOL    HW215959   9.994   5.418   7.611  1.3739 -0.1941 -0.0618
 4015SOL     OW15960   6.111   9.379   2.517 -0.3696  0.1843  0.6950
 4015SOL    HW115961   6.071   9.409   2.436 -0.4974 -1.0413  0.2745
 4015SOL    HW215962   6.205   9.387   2.503 -0.3593 -0.7963  0.0803
 4016SOL     OW15963   8.249   8.536   2.320  0.8884 -0.0420 -0.1074
 4016SOL    HW115964   8.211   8.586   2.392 -1.6826  0.9052 -1.9670
 4016SOL    HW215965   8.320   8.592   2.287  0.6973  0.4915  0.3702
 4017SOL     OW15966   6.210   2.938   2.022 -0.0718 -0.2237  0.2977
 4017SOL    HW115967   6.248   2.937   1.934  0.1363 -1.9384  0.3747
 4017SOL    HW215968   6.169   2.852   2.032  1.1612 -0.6501  2.4023
 4018SOL     OW15969   2.370   2.567   7.173 -0.5228 -0.0718 -0.0643
 4018SOL    HW115970   2.441   2.502   7.178  1.7843  2.1927 -1.3511
 4018SOL    HW215971   2.343   2.566   7.082  0.2944  1.4697 -0.3492
 4019SOL     OW15972   5.152   2.818   8.029 -0.1623 -0.3395  0.3197
 4019SOL    HW115973   5.109   2.902   8.015 -0.1493 -0.5767 -1.3539
 4019SOL    HW215974   5.082   2.753   8.013  0.0476 -0.6652  0.7040
 4020SOL     OW15975   6.693   1.896   3.061  0.0072 -0.1677 -0.3516
 4020SOL    HW115976   6.757   1.958   3.096  0.1932 -1.2789  1.4309
 4020SOL    HW215977   6.740   1.850   2.991  0.4778  0.4289 -0.4351
 4021SOL     OW15978   1.369   8.617   0.013 -0.2046  0.0527 -0.5638
 4021SOL    HW115979   1.418   8.548   0.057 -0.4787 -0.0340 -0.3918
 4021SOL    HW215980   1.278   8.598   0.034 -0.4030 -0.4366 -1.8177
 4022SOL     OW15981   1.297   2.658   5.448 -0.0956 -0.0133  0.5635
 4022SOL    HW115982   1.303   2.745   5.410 -0.6518  0.0457  0.5926
 4022SOL    HW215983   1.360   2.605   5.400 -0.3258  0.2165  0.0071
 4023SOL     OW15984   5.466   9.871   4.319  0.2286 -0.4234  0.6151
 4023SOL    HW115985   5.466   9.830   4.233 -0.4055 -1.1763  0.9636
 4023SOL    HW215986   5.477   9.965   4.301  0.9038 -0.6511 -0.2303
 4024SOL     OW15987   1.925   5.236   6.393 -0.4953  0.1062 -0.4323
 4024SOL    HW115988   1.840   5.195   6.377 -0.4231  0.0312 -0.6132
 4024SOL    HW215989   1.989   5.168   6.375 -0.4202 -0.0591  0.4005
 4025SOL     OW15990   5.553   8.593   1.682 -0.2137  0.0953  0.5120
 4025SOL    HW115991   5.599   8.673   1.655 -1.6333  0.1119 -2.2600
 4025SOL    HW215992   5.622   8.535   1.713  1.3059  1.1762 -0.6689
 4026SOL     OW15993   1.213   8.243  10.156 -0.3643  0.0830 -0.0983
 4026SOL    HW115994   1.308   8.238  10.160 -0.4548 -0.9697  1.8003
 4026SOL    HW215995   1.191   8.324  10.202 -0.4324 -0.6881  1.2880
 4027SOL     OW15996   9.559   3.656   6.176 -0.4111  0.3534 -0.3189
 4027SOL    HW115997   9.604   3.581   6.217 -0.3940  0.2181 -0.5837
 4027SOL    HW215998   9.628   3.722   6.166  0.8596 -1.2643 -4.4920
 4028SOL     OW15999  10.074   7.655   1.166  0.0576 -0.1364 -0.6351
 4028SOL    HW116000  10.075   7.592   1.238 -0.6346 -0.1224 -0.6076
 4028SOL    HW216001  10.120   7.611   1.095 -0.0917 -0.5254 -0.4911
 4029SOL     OW16002   9.277   2.248   7.556 -0.0932  0.1545 -0.0436
 4029SOL    HW116003   9.267   2.196   7.635  1.7997  2.2081  1.6682
 4029SOL    HW216004   9.369   2.237   7.531 -0.4013  0.3648 -1.3611
 4030SOL     OW16005   6.957   6.789   3.166  0.2057 -0.3271  0.3371
 4030SOL    HW116006   6.889   6.759   3.226 -0.8569  1.6149  0.2082
 4030SOL    HW216007   7.039   6.775   3.214 -0.3231 -2.0096  0.8090
 4031SOL     OW16008   2.192   7.659   6.658  0.3700 -0.2239 -0.1899
 4031SOL    HW116009   2.098   7.643   6.655 -0.3226  3.1798 -0.4017
 4031SOL    HW216010   2.222   7.615   6.737 -1.2116 -1.9745 -0.5033
 4032SOL     OW16011   7.304   3.411   1.759 -0.3960  0.0675 -0.5575
 4032SOL    HW116012   7.341   3.453   1.682 -0.3496 -0.4136 -0.8052
 4032SOL    HW216013   7.272   3.326   1.727 -0.5545 -0.0544 -0.0908
 4033SOL     OW16014   5.548   9.344   3.847 -0.0735 -0.5672 -0.0851
 4033SOL    HW116015   5.515   9.300   3.926 -1.5176  1.0177  0.2532
 4033SOL    HW216016   5.638   9.312   3.838 -0.4156 -2.0671  1.2303
 4034SOL     OW16017   0.092   0.485   2.124 -0.0455 -0.9485  0.3297
 4034SOL    HW116018   0.073   0.577   2.145  0.9561 -0.0551 -2.3040
 4034SOL    HW216019   0.110   0.444   2.209 -3.0219  0.6125  1.8671
 4035SOL     OW16020   0.561   6.147   8.528  0.1537  0.4024 -0.8189
 4035SOL    HW116021   0.593   6.130   8.439 -0.6103  3.4821 -1.8061
 4035SOL    HW216022   0.619   6.215   8.562 -0.0118 -0.2267  0.7937
 4036SOL     OW16023   0.212   7.954   2.454 -0.4664  0.1091 -0.8653
 4036SOL    HW116024   0.138   7.917   2.502 -0.5682 -1.2946 -2.0522
 4036SOL    HW216025   0.211   8.047   2.477  0.0367 -0.5864  2.5648
 4037SOL     OW16026   3.873   6.344   5.424  0.1856  0.0200 -0.4701
 4037SOL    HW116027   3.824   6.275   5.379 -0.2064 -0.4118  0.5839
 4037SOL    HW216028   3.918   6.299   5.496 -0.6526  0.9480  0.6738
 4038SOL     OW16029   9.761   5.791   5.663  0.4040  0.6178  0.3551
 4038SOL    HW116030   9.781   5.878   5.629 -3.4193  1.1371 -1.1365
 4038SOL    HW216031   9.717   5.808   5.747  0.8862  0.0035  0.7411
 4039SOL     OW16032   6.321   1.896   6.744 -0.0152 -0.4564  0.4140
 4039SOL    HW116033   6.299   1.829   6.807  0.0223 -2.2920 -1.4168
 4039SOL    HW216034   6.242   1.908   6.692  0.6492 -0.7854 -0.7156
 4040SOL     OW16035   8.798   8.145   1.339 -0.3776 -0.0717 -0.4118
 4040SOL    HW116036   8.792   8.140   1.434 -2.9610 -0.1262 -0.5140
 4040SOL    HW216037   8.726   8.091   1.307  1.3037 -1.2923 -2.4816
 4041SOL     OW16038   9.837   6.879   3.313 -0.4557  0.2144 -0.4414
 4041SOL    HW116039   9.912   6.852   3.261 -0.7769 -0.1590 -0.7209
 4041SOL    HW216040   9.782   6.928   3.253 -0.1834  0.9634 -0.0974
 4042SOL     OW16041   9.437   7.371   8.946 -0.1010  0.0966 -0.2862
 4042SOL    HW116042   9.363   7.384   9.004 -0.9583  0.6149 -1.4528
 4042SOL    HW216043   9.400   7.374   8.858  1.2562  0.0445 -0.8961
 4043SOL     OW16044   5.199   6.647   6.769  0.7140  0.2303  0.2555
 4043SOL    HW116045   5.270   6.590   6.799  1.5505  0.7857 -0.6309
 4043SOL    HW216046   5.128   6.587   6.745  0.9429 -0.3355  0.9506
 4044SOL     OW16047   7.993   2.848   2.092 -0.6668  0.2507 -0.0787
 4044SOL    HW116048   7.906   2.853   2.053 -0.4158 -0.4656 -0.7596
 4044SOL    HW216049   8.026   2.937   2.089 -1.0834  0.3955 -0.4922
 4045SOL     OW16050   9.349   6.986   5.424 -0.2788 -0.1479  0.0681
 4045SOL    HW116051   9.304   6.940   5.494  0.2093  0.8151  1.0453
 4045SOL    HW216052   9.304   7.070   5.418 -0.0316 -0.0491 -0.4786
 4046SOL     OW16053   7.061   9.206   0.151  0.3620  0.2447  0.2606
 4046SOL    HW116054   7.114   9.271   0.197 -2.3067  1.9886  1.1242
 4046SOL    HW216055   7.027   9.150   0.221  0.9512 -0.7915 -0.2641
 4047SOL     OW16056   9.968   9.517   6.357  0.1676  0.7052  1.1109
 4047SOL    HW116057  10.034   9.480   6.415  0.7064  2.1769  1.4768
 4047SOL    HW216058   9.885   9.507   6.404  0.5911  1.8215  2.1375
 4048SOL     OW16059   2.704   4.069   2.264  0.5153 -0.0165  0.5240
 4048SOL    HW116060   2.615   4.043   2.286  0.9259 -1.1135  0.9924
 4048SOL    HW216061   2.710   4.058   2.169  0.1536  0.0464  0.4931
 4049SOL     OW16062   7.700   4.076   8.428  0.4532  0.4900 -0.2551
 4049SOL    HW116063   7.708   4.169   8.447 -0.7325  0.3259  1.3054
 4049SOL    HW216064   7.790   4.046   8.413  0.9051  1.7649 -0.1701
 4050SOL     OW16065   9.179   1.345   3.715 -0.1891  0.8612  0.2826
 4050SOL    HW116066   9.104   1.287   3.703  0.0900  0.6978 -0.8512
 4050SOL    HW216067   9.229   1.336   3.634  0.4116  1.8965  0.5178
 4051SOL     OW16068   9.229   4.824   0.648 -0.8471 -0.2729 -0.2002
 4051SOL    HW116069   9.183   4.869   0.719 -2.0351 -1.9298  0.1493
 4051SOL    HW216070   9.272   4.750   0.692  0.8911  0.3550 -0.7791
 4052SOL     OW16071   7.727   2.400   9.187 -0.2536  0.3462  0.7347
 4052SOL    HW116072   7.730   2.496   9.186  2.2515  0.3447 -0.4867
 4052SOL    HW216073   7.732   2.377   9.280 -1.1483  1.3884  1.0585
 4053SOL     OW16074   4.114   0.450   3.153 -0.1659  0.0185  0.0111
 4053SOL    HW116075   4.081   0.436   3.064 -0.7077  0.0215  0.2126
 4053SOL    HW216076   4.084   0.538   3.175 -0.8615 -0.3532  0.5655
 4054SOL     OW16077   6.005   2.830   9.050 -0.4896 -0.4303  0.0170
 4054SOL    HW116078   6.090   2.787   9.037 -0.2707 -0.0802  0.2839
 4054SOL    HW216079   5.976   2.851   8.961 -2.2020 -4.1328 -0.4987
 4055SOL     OW16080   5.297   7.814   7.706 -0.4682 -0.3290 -0.1911
 4055SOL    HW116081   5.393   7.812   7.706 -0.4730 -0.5813  0.3847
 4055SOL    HW216082   5.275   7.867   7.630  0.1375  0.0479 -0.1114
 4056SOL     OW16083   1.024   7.565   6.475 -0.5833 -0.4554 -0.4300
 4056SOL    HW116084   1.005   7.536   6.564  1.6984  1.6564  0.8437
 4056SOL    HW216085   1.098   7.511   6.447  0.3983  0.6286  0.0056
 4057SOL     OW16086   1.675   5.111   4.129 -0.4748  0.4073  0.2968
 4057SOL    HW116087   1.739   5.143   4.192 -1.7551  1.0197  1.3172
 4057SOL    HW216088   1.690   5.164   4.050 -1.6274  2.6455  1.4865
 4058SOL     OW16089   4.477   2.757   4.665  0.5859  0.2913  0.3139
 4058SOL    HW116090   4.454   2.782   4.754 -0.8468 -1.5314  0.5299
 4058SOL    HW216091   4.505   2.666   4.673  0.1778  0.0180 -1.1146
 4059SOL     OW16092   1.520   8.517   9.312 -0.2756 -0.0136  0.1200
 4059SOL    HW116093   1.433   8.553   9.328  0.1198  0.8035  0.4755
 4059SOL    HW216094   1.515   8.478   9.225 -1.1667 -0.5200  0.3864
 4060SOL     OW16095   9.650   4.458   9.518  0.0798  0.1188 -0.2595
 4060SOL    HW116096   9.720   4.522   9.536  1.5743 -1.2056 -1.0827
 4060SOL    HW216097   9.597   4.500   9.451 -0.2506  1.3629  0.7336
 4061SOL     OW16098   1.985   0.362   2.869  0.0149 -0.3777  0.6092
 4061SOL    HW116099   1.969   0.309   2.792  1.0897  0.4384 -0.2095
 4061SOL    HW216100   2.034   0.305   2.928  0.2752 -0.6286  0.1585
 4062SOL     OW16101   7.395   8.111   7.833 -0.2224  0.1505  0.1900
 4062SOL    HW116102   7.314   8.063   7.849  0.8566 -1.4437  1.2786
 4062SOL    HW216103   7.397   8.178   7.901 -0.1268 -0.5168  0.8567
 4063SOL     OW16104   5.975   6.620   5.551  0.3233  0.2197 -0.0890
 4063SOL    HW116105   5.890   6.588   5.580  1.1707 -0.2574  2.0184
 4063SOL    HW216106   6.020   6.647   5.631  1.6053  1.8809 -1.2977
 4064SOL     OW16107   0.025   2.774   0.649 -0.0085  0.3151  0.0064
 4064SOL    HW116108  -0.004   2.863   0.631  2.1847  0.6843 -2.2735
 4064SOL    HW216109  -0.008   2.723   0.575 -0.2541 -0.5437  0.6912
 4065SOL     OW16110   7.151   0.860   0.468 -0.0754 -0.3214 -0.2163
 4065SOL    HW116111   7.171   0.879   0.377  0.4650 -0.4993 -0.1359
 4065SOL    HW216112   7.205   0.922   0.518 -0.9959  0.3516 -0.0295
 4066SOL     OW16113   9.034   5.901   6.307  0.0231 -0.1457  0.1297
 4066SOL    HW116114   9.106   5.839   6.293  1.2290  0.9295  1.2609
 4066SOL    HW216115   8.997   5.876   6.392 -1.4137 -1.0963 -0.7358
 4067SOL     OW16116   7.476   6.579   2.134 -0.3896  0.6308 -0.0051
 4067SOL    HW116117   7.498   6.569   2.227  0.4226  0.0882 -0.2461
 4067SOL    HW216118   7.551   6.623   2.095 -0.3795  0.1585 -0.5445
 4068SOL     OW16119   6.289   2.301  10.047  0.4782  0.5096  0.3631
 4068SOL    HW116120   6.324   2.220  10.083  1.6087  1.0796  0.5920
 4068SOL    HW216121   6.277   2.358  10.123 -0.2966  0.5656  0.2047
 4069SOL     OW16122   6.148   8.438   1.493 -0.1143 -0.8862  0.1787
 4069SOL    HW116123   6.113   8.484   1.570 -1.0393  0.5012 -1.0266
 4069SOL    HW216124   6.212   8.376   1.529  1.2453  1.3754  1.8771
 4070SOL     OW16125   0.327   5.750   4.183 -0.4455  0.0625  0.1710
 4070SOL    HW116126   0.297   5.669   4.142  0.9459 -0.4787  0.1671
 4070SOL    HW216127   0.388   5.788   4.120  1.0778 -0.3623  1.3167
 4071SOL     OW16128   6.447   7.546  10.168  0.2752  0.2399  0.2765
 4071SOL    HW116129   6.381   7.601  10.125 -0.7113 -0.6023  0.6578
 4071SOL    HW216130   6.431   7.458  10.133  2.5322  0.3243 -1.1680
 4072SOL     OW16131   9.102   9.000   5.493 -0.1351 -0.9510  0.0897
 4072SOL    HW116132   9.042   9.011   5.566 -0.3766 -0.7273 -0.1415
 4072SOL    HW216133   9.143   8.915   5.508  0.0665 -0.7534  0.6659
 4073SOL     OW16134   1.029   8.590   1.970 -0.4032  0.4791  0.2184
 4073SOL    HW116135   0.979   8.656   1.921 -0.8979  1.0138  1.3938
 4073SOL    HW216136   1.119   8.620   1.964 -0.2186 -0.3293 -1.6713
 4074SOL     OW16137   9.605   7.485   4.904 -0.1437  0.2945 -0.1685
 4074SOL    HW116138   9.596   7.578   4.922  1.0455  0.2441  0.8223
 4074SOL    HW216139   9.641   7.448   4.985 -0.2838 -0.9647 -0.6593
 4075SOL     OW16140   5.668   3.310   2.262  0.1026  0.6904  0.0141
 4075SOL    HW116141   5.734   3.362   2.307 -0.0460 -0.5309  1.7388
 4075SOL    HW216142   5.596   3.372   2.246  1.4624  1.9389 -1.5689
 4076SOL     OW16143   4.730   2.960   1.158 -0.0623 -0.4694  0.0117
 4076SOL    HW116144   4.730   2.992   1.068  1.2942  0.6816  0.3953
 4076SOL    HW216145   4.820   2.973   1.189 -0.4167 -1.1532  1.4238
 4077SOL     OW16146   2.205   3.731   2.102  0.2769  0.5188 -0.5804
 4077SOL    HW116147   2.221   3.643   2.068  1.1444  0.5373 -0.2454
 4077SOL    HW216148   2.204   3.787   2.025  0.6209  0.3308 -0.7256
 4078SOL     OW16149   6.679   9.652   8.908  0.0145  0.5120  0.2994
 4078SOL    HW116150   6.717   9.638   8.821  0.3617  1.8653  0.2093
 4078SOL    HW216151   6.686   9.747   8.923 -1.1764  0.4817  1.2807
 4079SOL     OW16152   8.392   6.927   8.741 -0.2065  0.2481 -0.0458
 4079SOL    HW116153   8.467   6.914   8.799  0.9259  0.7674 -1.3432
 4079SOL    HW216154   8.318   6.937   8.800  0.4360 -1.9825  1.2662
 4080SOL     OW16155   9.161   0.881   3.057 -0.7647 -0.1633  0.2176
 4080SOL    HW116156   9.107   0.926   3.123 -0.7000  2.0593 -1.1294
 4080SOL    HW216157   9.142   0.788   3.070 -1.2212  0.2204  2.9277
 4081SOL     OW16158   2.522   6.931   8.733  0.9784  0.0436 -0.9930
 4081SOL    HW116159   2.484   6.856   8.688 -1.5028  0.9398 -0.5786
 4081SOL    HW216160   2.506   6.914   8.826  0.1500  1.1714 -0.9136
 4082SOL     OW16161   3.408   9.545   0.189  0.0390 -0.2717 -0.1978
 4082SOL    HW116162   3.458   9.548   0.108  0.4278  0.3687  0.0619
 4082SOL    HW216163   3.395   9.636   0.213  0.3937 -0.4621  0.7514
 4083SOL     OW16164   4.595   8.954   1.214 -0.3770 -0.2114 -0.4455
 4083SOL    HW116165   4.656   8.890   1.178 -1.5774 -1.5131 -0.2565
 4083SOL    HW216166   4.633   8.978   1.298  2.0948  2.3305 -2.1126
 4084SOL     OW16167   1.473   8.920   4.640  0.0382 -0.2205 -0.4956
 4084SOL    HW116168   1.415   8.905   4.566 -2.1467  0.7341  0.9224
 4084SOL    HW216169   1.505   9.009   4.629 -0.3973 -0.0307 -0.2180
 4085SOL     OW16170   5.424   7.178   0.146  0.4339 -0.2834 -0.3748
 4085SOL    HW116171   5.336   7.144   0.133 -0.1802  0.7475  0.7747
 4085SOL    HW216172   5.450   7.213   0.061 -0.9411  0.8520 -0.3628
 4086SOL     OW16173   2.585   4.258   5.337  0.2151 -0.0322 -0.1535
 4086SOL    HW116174   2.536   4.220   5.263 -1.0186  1.1517  0.0091
 4086SOL    HW216175   2.588   4.351   5.317  0.8701  0.1406  0.7396
 4087SOL     OW16176   2.171   4.256   9.414  0.3199  0.3492 -0.3009
 4087SOL    HW116177   2.191   4.230   9.324  0.0662  0.6737 -0.4539
 4087SOL    HW216178   2.129   4.342   9.406  1.0149  0.7423  0.1868
 4088SOL     OW16179   7.052   1.929   9.901 -0.1624  0.1311 -0.0328
 4088SOL    HW116180   6.988   1.971   9.959 -1.0379 -0.2793 -0.6801
 4088SOL    HW216181   7.036   1.967   9.815 -0.4421 -0.9529 -0.4725
 4089SOL     OW16182   6.062   6.756   3.523  0.1403  0.5377 -0.0965
 4089SOL    HW116183   6.157   6.747   3.519 -0.0205 -1.1587 -1.1665
 4089SOL    HW216184   6.031   6.723   3.439 -1.4641  0.1191  0.6135
 4090SOL     OW16185   0.955   5.225   2.722 -0.1379 -0.1231  0.1997
 4090SOL    HW116186   0.955   5.262   2.634 -0.0858 -0.1493  0.1892
 4090SOL    HW216187   0.937   5.300   2.779  0.3273 -0.0191  0.2084
 4091SOL     OW16188   8.541   6.634   5.762 -0.3016  0.4411  0.0401
 4091SOL    HW116189   8.561   6.574   5.834 -1.3107 -0.0979 -0.1025
 4091SOL    HW216190   8.627   6.662   5.729  0.2122 -0.9958  0.0687
 4092SOL     OW16191   5.680   2.214   5.354  0.0976 -0.3960  0.2316
 4092SOL    HW116192   5.683   2.303   5.318 -1.4895 -0.3234  0.2014
 4092SOL    HW216193   5.740   2.164   5.299  1.8084  0.8563  0.8861
 4093SOL     OW16194   1.053   5.362   1.674 -0.7095  0.1229  0.5186
 4093SOL    HW116195   1.138   5.339   1.712 -0.2102 -0.8772 -1.1120
 4093SOL    HW216196   0.994   5.294   1.705 -0.2555 -0.8160 -0.5843
 4094SOL     OW16197   0.713   6.641   7.816  0.1302  0.3004 -0.7357
 4094SOL    HW116198   0.636   6.687   7.849  2.4803  2.8160  1.7917
 4094SOL    HW216199   0.743   6.694   7.742  1.0800  1.1835  0.2339
 4095SOL     OW16200   0.509   2.530   3.594 -0.2625 -0.5863  0.4400
 4095SOL    HW116201   0.480   2.561   3.508  1.4091 -1.3334 -0.4311
 4095SOL    HW216202   0.596   2.568   3.605 -0.0300 -1.3485  1.3348
 4096SOL     OW16203   9.874   8.620   4.520  0.2704  0.2297  0.2722
 4096SOL    HW116204   9.843   8.530   4.505  2.2056 -0.6249  1.0987
 4096SOL    HW216205   9.929   8.614   4.599  0.7326  2.0849  0.1416
 4097SOL     OW16206   9.278   5.768   6.292 -0.2980  0.4488  0.2053
 4097SOL    HW116207   9.352   5.716   6.262 -2.0195 -1.0111 -1.7758
 4097SOL    HW216208   9.299   5.857   6.264  1.5706  0.5051  1.5188
 4098SOL     OW16209   3.367   2.542   7.672  0.0295 -0.5554 -0.6010
 4098SOL    HW116210   3.353   2.589   7.590  1.9765  0.6144 -0.3366
 4098SOL    HW216211   3.370   2.450   7.646  1.2788 -0.1678 -2.0014
 4099SOL     OW16212   1.433   9.494   0.119 -0.1078 -0.1580  0.3403
 4099SOL    HW116213   1.369   9.559   0.089 -0.4967  0.0899  1.6406
 4099SOL    HW216214   1.518   9.531   0.098 -0.3624 -0.4059 -1.2455
 4100SOL     OW16215   2.742   6.601   1.182 -0.5506  0.4666  0.7595
 4100SOL    HW116216   2.688   6.657   1.237 -0.0103  2.2559 -0.4594
 4100SOL    HW216217   2.828   6.643   1.181  0.3764 -1.3238  1.1743
 4101SOL     OW16218   9.082   2.438   1.184  0.1354  0.4147 -0.7859
 4101SOL    HW116219   8.990   2.422   1.204  0.0334 -1.3758 -2.3951
 4101SOL    HW216220   9.081   2.512   1.124 -0.2065  0.7709 -0.3450
 4102SOL     OW16221   1.494   1.082   4.987  1.3240  0.2507  0.7977
 4102SOL    HW116222   1.542   1.120   4.913  2.0975 -0.1072  1.0978
 4102SOL    HW216223   1.491   1.152   5.053 -1.3317  1.3530 -0.3678
 4103SOL     OW16224   3.582   2.715   1.230  0.1408  0.4418  0.0571
 4103SOL    HW116225   3.619   2.803   1.245  0.5886  0.4432 -0.9677
 4103SOL    HW216226   3.642   2.656   1.275  0.3018  0.6019  0.0559
 4104SOL     OW16227   6.539   0.280   8.111 -0.1390 -0.4100 -0.5048
 4104SOL    HW116228   6.577   0.366   8.126 -0.5571 -0.4574  1.0567
 4104SOL    HW216229   6.559   0.260   8.020  1.6193  0.5144 -0.3683
 4105SOL     OW16230   9.915   7.634   2.985 -0.2422 -0.4434 -0.0844
 4105SOL    HW116231   9.958   7.697   3.043 -0.9074 -1.0860  1.1210
 4105SOL    HW216232   9.973   7.558   2.985 -0.2264 -0.4319 -0.2906
 4106SOL     OW16233   1.006   0.697   3.515 -0.4944 -0.2519  0.2611
 4106SOL    HW116234   1.099   0.674   3.518 -0.3666  0.2538  0.2092
 4106SOL    HW216235   0.990   0.719   3.423 -0.5382  0.1726  0.3668
 4107SOL     OW16236   7.308   9.866   6.413 -0.2439 -0.6495 -0.2854
 4107SOL    HW116237   7.224   9.910   6.396 -0.1064 -0.5224 -0.6404
 4107SOL    HW216238   7.358   9.880   6.333  1.4455  2.2629  1.1156
 4108SOL     OW16239   9.985   7.004   4.863  0.1367  0.2834 -0.4174
 4108SOL    HW116240   9.995   6.926   4.809  3.2308  1.0733 -1.2090
 4108SOL    HW216241   9.988   6.972   4.953 -0.2266 -0.6152 -0.7096
 4109SOL     OW16242   7.527   0.770   2.552  0.7604 -0.5863 -0.2503
 4109SOL    HW116243   7.588   0.812   2.612 -0.9211  0.1984  0.9649
 4109SOL    HW216244   7.489   0.842   2.502  0.1116 -0.9708 -0.3201
 4110SOL     OW16245  10.169   3.349   3.760 -0.2897  0.1702 -0.0018
 4110SOL    HW116246  10.262   3.356   3.782 -0.6857  0.3239  1.8243
 4110SOL    HW216247  10.140   3.439   3.751 -0.9489  0.3382  2.8804
 4111SOL     OW16248   7.237   2.810   9.151  0.1846  0.2045  0.0271
 4111SOL    HW116249   7.290   2.817   9.230 -0.0913  1.2618  0.1398
 4111SOL    HW216250   7.153   2.775   9.181  0.2714  0.0678  0.1099
 4112SOL     OW16251   7.305   7.312   0.923 -0.0279 -0.5345  0.6320
 4112SOL    HW116252   7.254   7.246   0.970 -0.6254  1.7508  3.4277
 4112SOL    HW216253   7.254   7.392   0.930  0.8142  0.4094 -2.3771
 4113SOL     OW16254   5.308   7.669   1.469  0.5422 -0.3039 -0.1783
 4113SOL    HW116255   5.224   7.637   1.503  0.0004 -1.5784 -2.5049
 4113SOL    HW216256   5.304   7.763   1.482 -0.2170 -0.5493  1.8558
 4114SOL     OW16257   0.424   7.978   0.996  0.2717 -0.5109  0.3139
 4114SOL    HW116258   0.465   8.055   1.036 -0.5638  0.5168 -0.7460
 4114SOL    HW216259   0.346   8.012   0.953  0.0696 -1.9024 -0.4734
 4115SOL     OW16260   5.855   5.640   5.558 -0.3658 -0.1775  0.0010
 4115SOL    HW116261   5.807   5.634   5.640  0.1861 -1.8277  0.2364
 4115SOL    HW216262   5.905   5.559   5.553  0.6430  0.4740 -1.3317
 4116SOL     OW16263   4.913   0.040   3.050 -0.1523 -0.1513  0.1228
 4116SOL    HW116264   4.951   0.119   3.012  0.7808  0.5233  2.3237
 4116SOL    HW216265   4.962  -0.032   3.010  2.3269  0.6269  1.5430
 4117SOL     OW16266   4.494   3.032   8.719 -0.1911  0.4116  0.7077
 4117SOL    HW116267   4.459   3.050   8.807 -2.0802 -0.6867  0.2391
 4117SOL    HW216268   4.418   3.043   8.661  1.0106  1.0596 -0.7988
 4118SOL     OW16269   7.120   8.707   5.990 -0.8476 -0.3522  0.0455
 4118SOL    HW116270   7.163   8.744   5.913  1.4872 -0.9967  0.9534
 4118SOL    HW216271   7.192   8.678   6.046 -2.5091 -2.1821  1.3705
 4119SOL     OW16272   7.414   9.703   3.530  0.1738 -0.0564 -0.1512
 4119SOL    HW116273   7.473   9.711   3.455  1.1409 -0.1502  0.5826
 4119SOL    HW216274   7.352   9.774   3.519  2.4635  2.2523  0.8153
 4120SOL     OW16275   5.697   4.764   5.632  0.2216  0.0688  0.0559
 4120SOL    HW116276   5.768   4.814   5.592  1.6777 -0.6645  1.6072
 4120SOL    HW216277   5.717   4.673   5.610  0.8468 -0.3195  1.9983
 4121SOL     OW16278   6.422   3.359   4.520  0.2652 -0.0066 -0.0350
 4121SOL    HW116279   6.421   3.439   4.572 -2.2247 -0.9281  1.4852
 4121SOL    HW216280   6.405   3.289   4.582 -1.7084 -1.2801 -1.8729
 4122SOL     OW16281   8.269   9.912   7.872  0.0029  0.0997  0.4082
 4122SOL    HW116282   8.354   9.922   7.915  0.8378 -0.0784 -1.1295
 4122SOL    HW216283   8.243   9.822   7.890 -0.1280  0.3150  1.3324
 4123SOL     OW16284   3.245   0.147  10.046 -0.2726 -0.1831  0.2311
 4123SOL    HW116285   3.202   0.221  10.004  2.8270  0.8114 -1.5366
 4123SOL    HW216286   3.243   0.077   9.980 -0.6336 -0.6948  0.7738
 4124SOL     OW16287   9.209   0.142   6.628 -0.4282  0.3269  0.2248
 4124SOL    HW116288   9.227   0.103   6.713 -0.1215 -2.0929 -0.8611
 4124SOL    HW216289   9.128   0.102   6.599 -0.8157  1.5188 -0.4239
 4125SOL     OW16290   8.116   4.244   5.448 -0.4030  0.1747 -0.2498
 4125SOL    HW116291   8.053   4.208   5.386  0.6333  1.7332 -2.3182
 4125SOL    HW216292   8.097   4.199   5.530 -1.2889 -2.6249 -1.8525
 4126SOL     OW16293   8.079   1.632   1.731  1.1124  0.0852 -0.5832
 4126SOL    HW116294   8.144   1.668   1.791 -0.4313  1.4851  0.3100
 4126SOL    HW216295   8.076   1.695   1.658  0.7906 -0.0089 -0.6518
 4127SOL     OW16296   4.887   2.838   5.977 -0.1530 -0.6667  0.1298
 4127SOL    HW116297   4.793   2.854   5.980 -0.0435 -0.1550  1.0428
 4127SOL    HW216298   4.927   2.924   5.986  0.4204 -0.6187 -2.1583
 4128SOL     OW16299   0.404   0.706   2.746 -0.8911  0.1210  0.1955
 4128SOL    HW116300   0.377   0.669   2.830  0.4062 -1.2777  0.0385
 4128SOL    HW216301   0.486   0.661   2.725 -1.4125  0.1117 -2.0383
 4129SOL     OW16302   2.181   3.114   9.433  0.3328  0.0742 -0.5195
 4129SOL    HW116303   2.110   3.140   9.493  0.4579 -2.6579  0.9992
 4129SOL    HW216304   2.155   3.150   9.348 -3.9068 -2.2021 -0.4715
 4130SOL     OW16305   0.774   0.526   5.877  0.5803  0.1389 -0.6884
 4130SOL    HW116306   0.785   0.516   5.972 -0.8568 -0.7906 -0.5860
 4130SOL    HW216307   0.767   0.437   5.844  0.6507  0.4690 -1.6115
 4131SOL     OW16308   7.994  10.015   4.089  0.2058 -0.4885 -0.4314
 4131SOL    HW116309   8.011   9.937   4.141  0.3143 -0.3915 -0.3188
 4131SOL    HW216310   7.923  10.060   4.135  0.5304 -0.2320 -0.1819
 4132SOL     OW16311   7.693   7.484   2.598 -0.1107 -0.6509  0.1967
 4132SOL    HW116312   7.750   7.513   2.526 -0.7263 -0.4206 -0.2006
 4132SOL    HW216313   7.706   7.389   2.602 -0.5011 -0.7424 -0.5964
 4133SOL     OW16314   5.316   3.043   1.198  0.1863 -0.4172 -0.1159
 4133SOL    HW116315   5.378   3.083   1.259 -0.9467 -0.6353  1.2301
 4133SOL    HW216316   5.264   3.116   1.165 -0.8673 -0.5518  1.1632
 4134SOL     OW16317   2.879   8.288   6.789  0.0454  0.5557 -0.5018
 4134SOL    HW116318   2.966   8.302   6.826  0.7469 -0.8809 -1.5056
 4134SOL    HW216319   2.820   8.290   6.864  1.1669 -0.1815  0.4393
 4135SOL     OW16320   8.874  10.145   9.648  0.2635 -0.3623  0.0830
 4135SOL    HW116321   8.798  10.193   9.681  1.4806  0.7875  1.3484
 4135SOL    HW216322   8.947  10.177   9.701  2.0406  0.2238 -2.5619
 4136SOL     OW16323   9.939   1.263   3.934 -0.5279  0.0465 -0.2942
 4136SOL    HW116324  10.009   1.199   3.948  1.3948  1.9135 -0.9602
 4136SOL    HW216325   9.951   1.327   4.004 -0.3808  1.3637 -1.4973
 4137SOL     OW16326   0.954   9.512   0.404 -0.0612  0.2080 -0.3874
 4137SOL    HW116327   1.034   9.564   0.413  0.1492 -0.2856  0.7719
 4137SOL    HW216328   0.887   9.575   0.377  0.9817  0.3891 -2.8488
 4138SOL     OW16329   9.657   8.630   5.451 -0.8469 -0.3726  0.5546
 4138SOL    HW116330   9.644   8.725   5.446 -0.0402 -0.2194  1.1542
 4138SOL    HW216331   9.596   8.601   5.518 -1.6705 -0.4054 -0.1896
 4139SOL     OW16332   4.875   0.959   5.270 -0.0431 -0.4511 -0.4466
 4139SOL    HW116333   4.926   0.895   5.320  0.8123 -0.2693 -1.0757
 4139SOL    HW216334   4.786   0.923   5.268 -0.1447 -0.3819  1.3405
 4140SOL     OW16335   7.026   0.057   7.810  0.0549 -0.8253 -0.3534
 4140SOL    HW116336   7.009   0.144   7.846 -0.7346 -0.9750 -0.3264
 4140SOL    HW216337   7.099   0.069   7.749  0.6528 -0.3542  0.4491
 4141SOL     OW16338   9.714   7.422   4.601 -0.6746  1.0921 -0.3076
 4141SOL    HW116339   9.675   7.468   4.676  0.7156  0.6056  0.7423
 4141SOL    HW216340   9.683   7.471   4.525 -0.3880  2.9383  0.7000
 4142SOL     OW16341   2.305   8.908   7.850 -0.3246  0.1216 -0.0215
 4142SOL    HW116342   2.341   8.921   7.763 -0.7758 -0.1286 -0.2495
 4142SOL    HW216343   2.366   8.954   7.908 -0.3496  0.8189 -0.5249
 4143SOL     OW16344   5.441   7.095   0.516  1.0598  0.3915 -0.2928
 4143SOL    HW116345   5.510   7.111   0.580 -0.6148 -0.4277  1.8425
 4143SOL    HW216346   5.456   7.006   0.484  0.4137 -0.1944  0.9837
 4144SOL     OW16347   6.323   9.541   4.077  0.0438  0.0062 -0.2886
 4144SOL    HW116348   6.359   9.493   4.002 -1.2660  0.7707 -1.4412
 4144SOL    HW216349   6.323   9.476   4.148  2.7379 -0.3098 -0.4476
 4145SOL     OW16350   5.274   7.827   4.751 -0.4718 -0.7875 -0.0481
 4145SOL    HW116351   5.343   7.893   4.763 -1.0194 -0.0417 -0.8714
 4145SOL    HW216352   5.321   7.748   4.726  0.0745 -0.1414 -1.1479
 4146SOL     OW16353   3.401   1.256   2.881  0.2949 -0.4756  0.3277
 4146SOL    HW116354   3.408   1.200   2.804 -0.5294 -1.4686  0.9481
 4146SOL    HW216355   3.492   1.278   2.902  0.4805  1.0855 -1.7912
 4147SOL     OW16356   2.329   8.450   3.148 -0.3257  0.1835 -0.0105
 4147SOL    HW116357   2.248   8.424   3.103 -0.7376 -0.5734  1.1318
 4147SOL    HW216358   2.311   8.539   3.178 -1.1286 -0.3137  1.0634
 4148SOL     OW16359   9.613   2.550   6.508 -0.5774  0.0680 -1.0527
 4148SOL    HW116360   9.671   2.582   6.577 -0.7996  0.3052 -0.9760
 4148SOL    HW216361   9.639   2.598   6.429  0.5704 -1.1539 -1.4501
 4149SOL     OW16362   8.630   1.058   1.289  0.2796 -0.1931 -0.1535
 4149SOL    HW116363   8.562   1.124   1.301 -0.1935 -0.7261  0.2025
 4149SOL    HW216364   8.608   0.990   1.353  1.2476 -0.3012  0.0694
 4150SOL     OW16365   8.060   6.432   4.691  0.0600 -0.1884 -0.2685
 4150SOL    HW116366   7.998   6.439   4.764 -1.5399 -2.3975 -1.3016
 4150SOL    HW216367   8.083   6.523   4.671 -0.0625  0.5309  2.4235
 4151SOL     OW16368   1.307   5.736   2.000 -0.3518 -0.2059 -0.3930
 4151SOL    HW116369   1.358   5.817   2.001  1.5148 -1.3230  0.1766
 4151SOL    HW216370   1.340   5.688   1.924 -0.6799 -0.8822 -0.1111
 4152SOL     OW16371   1.283   3.329   4.413  0.5702  0.5037  0.2034
 4152SOL    HW116372   1.328   3.245   4.408  1.3316  0.7746  1.8678
 4152SOL    HW216373   1.347   3.389   4.451 -0.7549  1.2196  1.4188
 4153SOL     OW16374   8.591   9.208   8.031 -0.3871  0.3797  0.3574
 4153SOL    HW116375   8.506   9.252   8.024 -1.0140 -0.5702  1.5759
 4153SOL    HW216376   8.578   9.142   8.099  0.9302 -0.7557 -0.4425
 4154SOL     OW16377   5.365   4.579   5.876 -0.0993 -0.0906 -0.4044
 4154SOL    HW116378   5.392   4.640   5.945 -1.1584 -0.0033 -0.0584
 4154SOL    HW216379   5.273   4.600   5.859 -0.1131 -0.7333 -1.1965
 4155SOL     OW16380   4.103   8.518   2.534  0.3832 -0.6295  0.2639
 4155SOL    HW116381   4.063   8.543   2.617 -0.7618 -1.1499 -0.1055
 4155SOL    HW216382   4.038   8.462   2.492  0.9530 -0.4037 -0.9724
 4156SOL     OW16383   4.796   2.301   6.022 -0.4489  0.9311  0.1435
 4156SOL    HW116384   4.778   2.214   6.058 -0.8398  1.1166  0.4107
 4156SOL    HW216385   4.788   2.360   6.097 -0.5516  1.2383 -0.1071
 4157SOL     OW16386  10.182   1.954   6.241  0.1636 -0.6018  0.0379
 4157SOL    HW116387  10.254   1.963   6.179 -0.2634  0.5900 -0.3091
 4157SOL    HW216388  10.113   1.910   6.191  0.2848 -0.8398  0.0755
 4158SOL     OW16389   2.996   0.407   3.130 -0.5849  0.5339 -0.8407
 4158SOL    HW116390   3.037   0.492   3.139  0.2322 -0.0997  2.9956
 4158SOL    HW216391   2.924   0.408   3.193  0.1946 -1.9456  0.2106
 4159SOL     OW16392   0.813   6.370   2.321  0.2147  0.5236 -0.8255
 4159SOL    HW116393   0.766   6.348   2.241  0.1581  0.8211 -0.8757
 4159SOL    HW216394   0.847   6.458   2.306  0.1072  0.6268 -0.4788
 4160SOL     OW16395   9.254   3.998   0.265 -0.3562  0.1895 -0.0268
 4160SOL    HW116396   9.259   3.905   0.287 -1.8078  0.4249  1.5217
 4160SOL    HW216397   9.160   4.018   0.267 -0.4248  0.9624 -3.7514
 4161SOL     OW16398   9.285   8.219   0.877  0.1957 -0.5912  0.0175
 4161SOL    HW116399   9.358   8.214   0.938 -0.1903  1.4582  0.7259
 4161SOL    HW216400   9.224   8.281   0.917 -2.5715 -3.1051  0.0530
 4162SOL     OW16401   7.692   6.018   5.575 -0.4412 -0.0978 -0.1747
 4162SOL    HW116402   7.726   5.933   5.547  1.1806  0.8533 -1.2416
 4162SOL    HW216403   7.719   6.026   5.666  1.8208  0.3612 -0.8136
 4163SOL     OW16404   2.344   7.834   2.207  0.6025  0.3393 -0.2166
 4163SOL    HW116405   2.324   7.927   2.204 -0.2145  0.1571 -1.7326
 4163SOL    HW216406   2.280   7.797   2.268 -1.6563  0.2665 -2.4615
 4164SOL     OW16407   0.371   7.018   8.094 -0.0027 -0.1130 -0.1023
 4164SOL    HW116408   0.458   7.017   8.135 -0.7180 -3.4097  1.6612
 4164SOL    HW216409   0.389   7.024   8.001  2.1320 -0.4748  0.2273
 4165SOL     OW16410   1.874   9.582   0.474 -0.0813 -0.0983  0.2742
 4165SOL    HW116411   1.794   9.626   0.445 -0.4017  0.6203  2.1033
 4165SOL    HW216412   1.845   9.523   0.543  0.8462 -0.5707  0.2697
 4166SOL     OW16413   8.176   6.857   0.336 -0.2007 -0.7076  0.1763
 4166SOL    HW116414   8.143   6.920   0.271  1.3510  0.2881  0.2927
 4166SOL    HW216415   8.104   6.847   0.398 -0.8056  0.2992 -0.3223
 4167SOL     OW16416   5.142   5.324   1.311 -0.9627  0.2470 -0.6897
 4167SOL    HW116417   5.081   5.284   1.249 -0.5449 -0.1104 -0.8762
 4167SOL    HW216418   5.184   5.250   1.355 -1.3051  0.5004  0.0735
 4168SOL     OW16419   7.337   1.659   9.778 -0.4934 -0.0913  0.1532
 4168SOL    HW116420   7.350   1.657   9.873 -0.4531  0.6871  0.1661
 4168SOL    HW216421   7.336   1.752   9.755  0.6697 -0.2873 -0.7696
 4169SOL     OW16422   4.161   1.357   6.735 -0.2841 -0.3871  0.0330
 4169SOL    HW116423   4.075   1.385   6.767 -0.7286 -0.6044 -0.9430
 4169SOL    HW216424   4.142   1.306   6.657  0.7895  0.3516 -0.7356
 4170SOL     OW16425   2.811   5.709   7.649 -0.2786 -0.5171  0.0425
 4170SOL    HW116426   2.740   5.725   7.711  0.3093  2.0309  0.1498
 4170SOL    HW216427   2.778   5.744   7.566  0.6243  0.1342 -0.0457
 4171SOL     OW16428   5.677   3.949   2.911 -0.2392  0.1569  0.2269
 4171SOL    HW116429   5.722   3.995   2.982 -1.6279  0.6421  0.8115
 4171SOL    HW216430   5.748   3.910   2.860  0.7976 -1.1830  2.5034
 4172SOL     OW16431   6.193   0.331   0.114 -0.2255  0.0820  0.5200
 4172SOL    HW116432   6.266   0.326   0.052  0.1933 -1.2635  1.0921
 4172SOL    HW216433   6.221   0.395   0.179  0.1519  0.0747  0.3699
 4173SOL     OW16434   7.196   4.282   9.402  0.1530  0.4223  0.5395
 4173SOL    HW116435   7.110   4.240   9.407  1.2706 -1.9867  1.0894
 4173SOL    HW216436   7.214   4.310   9.491  0.1751  0.4290  0.5327
 4174SOL     OW16437   8.234   2.047   5.802 -0.1059  0.0652 -0.3348
 4174SOL    HW116438   8.186   2.080   5.878 -1.3939 -0.1972 -1.0024
 4174SOL    HW216439   8.244   1.954   5.817 -0.6933 -0.0536 -0.6442
 4175SOL     OW16440   5.415   7.017   5.396 -0.6539 -0.0996  0.2438
 4175SOL    HW116441   5.381   6.989   5.311 -1.6493  2.1787 -0.1893
 4175SOL    HW216442   5.345   6.997   5.458 -0.3277 -0.8611  0.3721
 4176SOL     OW16443   1.154   6.897   8.138 -0.0593 -0.5005 -0.2179
 4176SOL    HW116444   1.200   6.864   8.060 -1.2218  0.9929 -1.5813
 4176SOL    HW216445   1.061   6.884   8.118 -0.4585  1.6974  0.0513
 4177SOL     OW16446   4.365   5.364   1.940 -0.1178 -0.0224  0.3907
 4177SOL    HW116447   4.347   5.348   1.848 -0.0037 -1.3933  0.5759
 4177SOL    HW216448   4.413   5.446   1.942 -3.2853  2.0277 -0.4123
 4178SOL     OW16449   2.498   7.057   5.176  0.1859  0.0752 -0.4026
 4178SOL    HW116450   2.544   7.096   5.251 -0.1598  0.9001 -0.6121
 4178SOL    HW216451   2.449   7.130   5.137 -1.8248 -0.8872  0.1930
 4179SOL     OW16452   6.792   1.965   8.081  0.3563 -0.1330  0.4016
 4179SOL    HW116453   6.763   2.055   8.095 -1.7347 -0.9071  1.4489
 4179SOL    HW216454   6.843   1.943   8.160 -0.1249 -0.2231  0.6918
 4180SOL     OW16455   6.985   0.450   4.691  0.1993 -0.0177 -0.0872
 4180SOL    HW116456   6.918   0.414   4.632 -0.3385  1.1895 -0.2478
 4180SOL    HW216457   7.041   0.504   4.635 -0.5031  1.3990  0.4999
 4181SOL     OW16458   8.048   1.582   7.558 -0.1900 -0.5476  0.0415
 4181SOL    HW116459   8.118   1.608   7.498 -0.3884 -0.2852 -0.0820
 4181SOL    HW216460   8.029   1.491   7.535  0.4542 -0.7824  0.4181
 4182SOL     OW16461   0.274   6.523   3.085 -0.3506  0.0097  0.3680
 4182SOL    HW116462   0.303   6.510   2.995 -0.7455 -3.0134  0.5632
 4182SOL    HW216463   0.178   6.526   3.079 -0.3595  0.2645  0.6380
 4183SOL     OW16464   2.646   6.535   5.799 -0.1742 -0.2246  0.2687
 4183SOL    HW116465   2.669   6.455   5.752 -0.9001 -0.5413  0.4387
 4183SOL    HW216466   2.716   6.597   5.778  1.3173 -1.4233  1.4871
 4184SOL     OW16467   7.917   9.283   5.622  0.0535 -0.0811 -0.1086
 4184SOL    HW116468   7.966   9.305   5.701  2.1595 -1.9789 -0.7672
 4184SOL    HW216469   7.967   9.322   5.550  0.8497 -2.2675 -0.8258
 4185SOL     OW16470   9.668   2.274   3.746  0.5306  0.0908 -0.4458
 4185SOL    HW116471   9.585   2.240   3.712  0.0912  1.4330 -0.7424
 4185SOL    HW216472   9.727   2.270   3.671  0.9549 -1.4545 -0.0783
 4186SOL     OW16473   6.723   9.960   3.843  0.2100  0.3344  0.4879
 4186SOL    HW116474   6.743   9.887   3.902 -0.9180 -0.3977 -0.0148
 4186SOL    HW216475   6.785  10.028   3.868  1.6542 -0.9748  0.6159
 4187SOL     OW16476   0.241   2.011   6.856  0.0882  0.0091 -0.4288
 4187SOL    HW116477   0.225   2.106   6.856  0.2256  0.0352  0.1068
 4187SOL    HW216478   0.228   1.985   6.948 -1.0825 -0.6856 -0.7680
 4188SOL     OW16479   1.564   9.651   1.718  0.4517  0.1663  0.0524
 4188SOL    HW116480   1.607   9.647   1.633 -1.3665 -1.1217 -0.8597
 4188SOL    HW216481   1.611   9.720   1.765  3.1868 -0.8208 -1.0188
 4189SOL     OW16482   8.822   2.402   3.740 -0.5978 -0.1593 -0.2221
 4189SOL    HW116483   8.789   2.316   3.717 -0.5481 -1.2644  3.2697
 4189SOL    HW216484   8.908   2.407   3.697 -1.2227 -1.2044 -1.6527
 4190SOL     OW16485   5.549   1.441   3.460 -0.5193  0.1843 -0.5388
 4190SOL    HW116486   5.563   1.515   3.401 -1.5968  0.2707 -0.7002
 4190SOL    HW216487   5.548   1.479   3.548  2.4165 -0.0985 -0.2547
 4191SOL     OW16488   0.405   2.394   6.122 -0.5875  0.5769  0.5467
 4191SOL    HW116489   0.356   2.375   6.202  0.9638 -0.4255  1.3063
 4191SOL    HW216490   0.458   2.316   6.107  0.4701  1.4532 -0.4584
 4192SOL     OW16491   4.289   0.995   8.285  0.5202 -0.6370 -0.2700
 4192SOL    HW116492   4.241   1.010   8.366  1.8188  0.0023  0.4204
 4192SOL    HW216493   4.225   1.011   8.215  0.0165  1.3390  0.5828
 4193SOL     OW16494   0.931   6.294   5.570 -0.6506 -0.1727 -1.0808
 4193SOL    HW116495   0.855   6.237   5.564  0.8876 -2.3884 -0.5774
 4193SOL    HW216496   1.001   6.239   5.604  0.8408  2.1507 -0.1050
 4194SOL     OW16497   9.254  10.162   5.296 -0.1167 -0.0565  0.1059
 4194SOL    HW116498   9.183  10.219   5.328  0.4484  0.7245 -0.0124
 4194SOL    HW216499   9.304  10.217   5.236  1.3422 -0.2065  1.1553
 4195SOL     OW16500   3.766   1.615   8.242  0.1582  0.1771 -0.0731
 4195SOL    HW116501   3.683   1.662   8.239 -2.2219 -3.5986 -1.4499
 4195SOL    HW216502   3.769   1.578   8.331  0.5307  0.6060  0.0896
 4196SOL     OW16503   0.323   2.416   8.386  0.0297 -0.0292  0.1207
 4196SOL    HW116504   0.374   2.373   8.455  0.4049  0.7436  0.3254
 4196SOL    HW216505   0.263   2.474   8.433  0.4194  0.6480 -0.2002
 4197SOL     OW16506   6.275   5.555   4.747 -0.2278  0.0325 -0.0127
 4197SOL    HW116507   6.275   5.495   4.822 -0.8574  0.2347  0.1544
 4197SOL    HW216508   6.351   5.612   4.762  0.1858 -0.5094 -0.0063
 4198SOL     OW16509   2.771   0.493   4.716  0.2277  0.0576 -0.2363
 4198SOL    HW116510   2.696   0.545   4.745 -0.5371 -1.0335 -0.2145
 4198SOL    HW216511   2.777   0.509   4.622  1.1833  1.6569  0.0591
 4199SOL     OW16512   1.755   3.328   3.802  0.0000 -0.3623 -0.3882
 4199SOL    HW116513   1.846   3.354   3.816 -0.4974  0.8382  0.8509
 4199SOL    HW216514   1.746   3.323   3.707  1.1562  0.3019 -0.5545
 4200SOL     OW16515   6.498   9.532   9.801  0.1916  0.3647  0.5570
 4200SOL    HW116516   6.449   9.528   9.719  0.6204  0.1105  0.3141
 4200SOL    HW216517   6.559   9.458   9.797  0.7734  0.8290  0.7534
 4201SOL     OW16518   2.617   7.181   3.273  0.9263  0.1325 -0.1429
 4201SOL    HW116519   2.638   7.274   3.261  1.4847 -0.1398 -1.3972
 4201SOL    HW216520   2.668   7.136   3.206 -0.3961 -0.9490 -0.4747
 4202SOL     OW16521   0.743   3.207   6.042  0.1225  0.3602  0.3357
 4202SOL    HW116522   0.758   3.144   6.113 -0.4965 -0.4490 -0.2288
 4202SOL    HW216523   0.828   3.215   5.999 -0.0508 -1.0370 -0.3248
 4203SOL     OW16524   5.763   2.893   8.472 -0.5714  0.1280 -0.0386
 4203SOL    HW116525   5.769   2.952   8.547  1.7801 -0.8036  0.5981
 4203SOL    HW216526   5.727   2.812   8.508  0.9754 -0.4713  0.2526
 4204SOL     OW16527   6.218   3.818   2.117 -0.3017  0.2985  0.9371
 4204SOL    HW116528   6.200   3.880   2.188 -0.6893  1.2870  0.0031
 4204SOL    HW216529   6.303   3.844   2.082 -0.1048 -0.1940  1.0434
 4205SOL     OW16530   6.505   3.487   2.579 -0.3627 -0.2266  0.4267
 4205SOL    HW116531   6.424   3.519   2.618 -1.5471 -1.6095 -0.7489
 4205SOL    HW216532   6.536   3.420   2.640 -0.8603 -0.6411  0.2343
 4206SOL     OW16533   3.630   2.859   7.413  0.9748  0.7784  0.1923
 4206SOL    HW116534   3.692   2.789   7.392 -1.4231 -1.7996  1.0883
 4206SOL    HW216535   3.599   2.889   7.327 -0.0858 -1.4059 -0.2722
 4207SOL     OW16536   1.902   6.583   4.695  0.0617  0.0657  0.1949
 4207SOL    HW116537   1.905   6.662   4.750 -0.7186 -0.3971  0.9279
 4207SOL    HW216538   1.973   6.595   4.632  2.0536 -0.1035  2.2837
 4208SOL     OW16539   6.530   8.896   5.931 -0.0403  0.3264 -0.4796
 4208SOL    HW116540   6.518   8.894   5.836  1.8017  0.0217 -0.7297
 4208SOL    HW216541   6.475   8.824   5.963  0.7047 -0.7228 -1.4900
 4209SOL     OW16542   1.140   7.308   1.969  0.7619 -0.0325  0.0463
 4209SOL    HW116543   1.181   7.385   1.930 -1.8723  0.3083 -2.4423
 4209SOL    HW216544   1.159   7.237   1.908 -2.0373  0.1392 -1.2101
 4210SOL     OW16545   5.538   7.588   0.153 -0.3662 -0.3731  0.2049
 4210SOL    HW116546   5.488   7.607   0.073 -1.6583 -1.3746  0.7389
 4210SOL    HW216547   5.609   7.532   0.124 -0.8455 -0.7573 -0.2569
 4211SOL     OW16548   3.542   9.776   1.105 -0.0702  0.2064 -0.0327
 4211SOL    HW116549   3.567   9.787   1.197  0.0358  1.3556 -0.1733
 4211SOL    HW216550   3.591   9.700   1.074 -0.0067 -0.1066  0.8253
 4212SOL     OW16551   9.943   7.806   9.844  0.9164 -0.0857  0.4824
 4212SOL    HW116552  10.025   7.785   9.800  0.3170  0.0091 -0.6985
 4212SOL    HW216553   9.878   7.750   9.804 -0.0647  1.5878 -0.3660
 4213SOL     OW16554   1.805   5.762   0.270  0.1351 -0.8317  0.4077
 4213SOL    HW116555   1.858   5.683   0.269  1.6070  0.1012 -0.8802
 4213SOL    HW216556   1.781   5.776   0.178  0.3302  0.4609  0.5347
 4214SOL     OW16557   1.447   0.896   2.795  0.3609 -0.0541 -0.1958
 4214SOL    HW116558   1.460   0.824   2.857 -0.4075  1.0673  1.3206
 4214SOL    HW216559   1.354   0.891   2.772  0.7193 -0.7104 -1.6383
 4215SOL     OW16560   1.964   3.206   4.915 -0.7476 -0.1304 -0.2636
 4215SOL    HW116561   2.041   3.163   4.878 -0.6626 -0.5237  0.3572
 4215SOL    HW216562   1.999   3.269   4.977 -0.9054  0.1795 -0.4880
 4216SOL     OW16563   7.444   2.379   3.098  0.1587 -0.3286 -0.6826
 4216SOL    HW116564   7.489   2.294   3.098  1.7068  0.4479  0.6922
 4216SOL    HW216565   7.458   2.414   3.186  0.0712  1.6426 -1.4056
 4217SOL     OW16566   9.673   1.659   6.600 -0.0292  0.1508 -0.7108
 4217SOL    HW116567   9.673   1.648   6.695  1.5468  3.1956 -0.2488
 4217SOL    HW216568   9.580   1.667   6.577 -0.4492 -0.8027  0.4921
 4218SOL     OW16569   6.956   3.473   2.520 -0.6845 -0.4879  0.4099
 4218SOL    HW116570   6.982   3.447   2.432 -0.3136  1.9061 -0.2749
 4218SOL    HW216571   6.868   3.510   2.508 -0.7893 -0.4934  1.1222
 4219SOL     OW16572   8.100   4.977   4.815 -1.1814 -0.4294 -0.0241
 4219SOL    HW116573   8.146   4.950   4.736 -1.9656 -0.6034 -0.4287
 4219SOL    HW216574   8.165   5.028   4.864  0.2464 -2.6933  0.6097
 4220SOL     OW16575   7.193   4.181   5.907 -0.3359  0.1022 -0.3026
 4220SOL    HW116576   7.269   4.217   5.951  0.5674 -1.7265 -0.2848
 4220SOL    HW216577   7.163   4.251   5.849  0.7104  1.2127  0.4698
 4221SOL     OW16578   1.863   8.742   5.252 -0.1523 -0.6258  0.5224
 4221SOL    HW116579   1.954   8.767   5.235  0.0285 -1.4679  0.1710
 4221SOL    HW216580   1.812   8.797   5.193  0.2773 -1.4781 -0.6796
 4222SOL     OW16581   5.487   8.222   6.233 -0.0714  0.8674  0.6048
 4222SOL    HW116582   5.425   8.254   6.298 -0.4436 -1.8901  1.6988
 4222SOL    HW216583   5.434   8.174   6.170  0.6362  0.9547 -0.0773
 4223SOL     OW16584   8.360   1.043   2.562 -0.0144 -0.7494 -0.3684
 4223SOL    HW116585   8.368   0.992   2.481  0.2138 -0.5442 -0.4800
 4223SOL    HW216586   8.448   1.079   2.576 -0.3447  0.2335 -0.7140
 4224SOL     OW16587   1.156   6.391   1.072 -0.6210  0.2837  0.0715
 4224SOL    HW116588   1.193   6.407   0.985 -1.4510  2.0577  0.0127
 4224SOL    HW216589   1.216   6.328   1.112  0.6153  0.5942 -1.2264
 4225SOL     OW16590   6.014   2.835   7.417  0.6558  0.0516  0.6337
 4225SOL    HW116591   6.010   2.754   7.469  0.0758 -0.7184 -0.5499
 4225SOL    HW216592   5.929   2.877   7.433  1.5684  1.3163  2.5420
 4226SOL     OW16593   7.612   7.099   3.129  0.3684 -0.2600  0.4549
 4226SOL    HW116594   7.621   7.187   3.165  0.7782  0.0071 -0.2783
 4226SOL    HW216595   7.612   7.041   3.206  0.9537  0.3121  0.8931
 4227SOL     OW16596   6.729   1.921   0.721  0.7031  0.3756 -0.7351
 4227SOL    HW116597   6.687   1.988   0.666  0.5385  0.3921 -0.5883
 4227SOL    HW216598   6.777   1.867   0.658 -1.8375 -1.4085 -1.3083
 4228SOL     OW16599   4.224   5.670   1.239  0.4175 -0.2558  0.1097
 4228SOL    HW116600   4.286   5.675   1.166  0.8493  0.4190  0.5166
 4228SOL    HW216601   4.272   5.622   1.307  0.7465  0.8416  0.6667
 4229SOL     OW16602   1.217   0.150   1.999  0.1650  0.1024  0.5376
 4229SOL    HW116603   1.308   0.127   2.017 -0.3176 -1.1376  1.4786
 4229SOL    HW216604   1.201   0.227   2.055  0.5542  0.1840  0.5441
 4230SOL     OW16605   0.865   2.563   5.214  0.5026  0.2391 -0.1045
 4230SOL    HW116606   0.786   2.575   5.162  1.4555  2.7268 -1.1520
 4230SOL    HW216607   0.833   2.539   5.301 -1.4024  0.9595 -0.5478
 4231SOL     OW16608   4.791   4.260   1.241  0.4921  0.9438  0.0908
 4231SOL    HW116609   4.873   4.302   1.213  2.7567 -3.5540 -0.9485
 4231SOL    HW216610   4.813   4.220   1.325 -1.3380  1.2522  0.7615
 4232SOL     OW16611   5.413   9.639   6.405  0.7311 -0.0818  0.3039
 4232SOL    HW116612   5.391   9.589   6.327  0.3886  0.3117  0.1473
 4232SOL    HW216613   5.339   9.625   6.464 -0.2148  1.6372 -0.4094
 4233SOL     OW16614   3.102   5.883  10.065  0.5764  0.2265  0.3870
 4233SOL    HW116615   3.149   5.883   9.982  1.2898 -2.2691  0.7027
 4233SOL    HW216616   3.161   5.927  10.126  1.4411 -0.6615  0.2150
 4234SOL     OW16617   9.774   7.118   0.216  0.1385 -0.3153 -0.3648
 4234SOL    HW116618   9.821   7.111   0.299  0.3246 -0.4834 -0.4831
 4234SOL    HW216619   9.770   7.212   0.198  0.2001 -0.2855 -0.2246
 4235SOL     OW16620   8.548  10.069  10.199  0.6079  0.2745  0.4171
 4235SOL    HW116621   8.529   9.984  10.239 -2.3608  2.1505  3.5842
 4235SOL    HW216622   8.560  10.128  10.273  0.0457  3.0973 -1.5795
 4236SOL     OW16623   6.816   6.082   2.732 -0.7598 -0.0305 -0.2277
 4236SOL    HW116624   6.902   6.056   2.765 -0.5691 -0.3631 -0.9554
 4236SOL    HW216625   6.753   6.036   2.788 -0.4799  0.7406  0.7330
 4237SOL     OW16626   1.843   5.519   7.784 -0.3337 -0.6588 -0.0271
 4237SOL    HW116627   1.903   5.561   7.721 -0.3953 -2.2031 -1.1719
 4237SOL    HW216628   1.820   5.589   7.845  0.7770  0.5691 -0.9497
 4238SOL     OW16629   7.469   2.930   5.076  0.2584 -0.0226 -0.0886
 4238SOL    HW116630   7.415   2.896   5.004 -0.5188  0.1969  0.3778
 4238SOL    HW216631   7.524   2.856   5.102 -1.4039 -0.9661  0.9178
 4239SOL     OW16632   9.267   7.914   6.330 -0.5924  0.2123  0.8222
 4239SOL    HW116633   9.227   7.855   6.394 -0.9649  0.5370  0.8943
 4239SOL    HW216634   9.358   7.884   6.322 -0.0224  1.2228  2.8228
 4240SOL     OW16635   2.327   3.981   7.034 -0.2566  0.2252 -0.1558
 4240SOL    HW116636   2.403   4.025   7.072 -1.0604  0.9692  0.6325
 4240SOL    HW216637   2.299   3.918   7.101 -2.4301  2.3925  1.1573
 4241SOL     OW16638   6.080   7.692   5.529  0.1366  0.0108 -0.7679
 4241SOL    HW116639   6.120   7.779   5.528  0.0271  0.0974 -2.7669
 4241SOL    HW216640   5.988   7.708   5.546  0.3691  0.1299  0.4260
 4242SOL     OW16641  10.198   0.954   4.893 -0.2941 -0.2329 -0.5481
 4242SOL    HW116642  10.104   0.967   4.881 -0.4357 -1.2292 -0.5741
 4242SOL    HW216643  10.221   1.014   4.964 -1.0175 -0.2420 -0.2957
 4243SOL     OW16644   3.070   6.696   5.266  0.5865  0.0388 -0.3395
 4243SOL    HW116645   3.013   6.622   5.288 -1.8578  1.2197 -2.1483
 4243SOL    HW216646   3.069   6.751   5.344 -2.8421  1.1546 -0.9714
 4244SOL     OW16647   6.146   2.070  10.110  0.0213  0.6958 -0.2911
 4244SOL    HW116648   6.104   2.019  10.179 -1.1714 -0.7662 -1.9992
 4244SOL    HW216649   6.122   2.161  10.128 -1.8154  0.1441  0.1664
 4245SOL     OW16650   4.166   4.624   4.010  0.2483  0.1882  0.2583
 4245SOL    HW116651   4.100   4.609   4.078 -0.1436  0.3040 -0.0915
 4245SOL    HW216652   4.243   4.655   4.058 -0.5091  1.7746  0.5026
 4246SOL     OW16653   4.865   4.392   3.159  0.4805  0.1990 -0.2842
 4246SOL    HW116654   4.918   4.349   3.091  1.3769  3.2557 -1.6589
 4246SOL    HW216655   4.777   4.397   3.121  0.4393 -0.1595 -0.2378
 4247SOL     OW16656   5.929   5.560   3.236 -0.2360  0.5113  0.3496
 4247SOL    HW116657   5.935   5.479   3.185  0.6665 -0.8781  2.5096
 4247SOL    HW216658   5.997   5.617   3.200  0.1720 -0.3081 -0.1999
 4248SOL     OW16659   8.614   8.344   3.106  0.3132 -0.0060  0.1114
 4248SOL    HW116660   8.530   8.298   3.111  0.8553 -1.1160 -0.5850
 4248SOL    HW216661   8.656   8.328   3.190  0.3481 -0.5036  0.0008
 4249SOL     OW16662   8.512   8.449   1.426  0.4182  0.0395  0.1181
 4249SOL    HW116663   8.473   8.503   1.357  0.1540 -0.7898 -0.4042
 4249SOL    HW216664   8.582   8.503   1.462  0.8884  0.3186 -1.1484
 4250SOL     OW16665   2.522   9.139   9.006 -0.1901 -0.3328  0.4992
 4250SOL    HW116666   2.479   9.056   9.024 -0.8032  0.0514  0.8756
 4250SOL    HW216667   2.559   9.130   8.918  0.4975 -1.2990  0.8755
 4251SOL     OW16668   1.004   1.146   4.211 -0.0844 -0.5976  0.1477
 4251SOL    HW116669   0.948   1.076   4.180 -0.1115 -0.7483  0.5248
 4251SOL    HW216670   0.954   1.186   4.283  0.5930 -1.2135  0.9875
 4252SOL     OW16671  10.017   3.547   0.877 -0.4122 -0.7587 -0.4276
 4252SOL    HW116672  10.074   3.470   0.878 -1.2041 -1.3582 -0.7479
 4252SOL    HW216673   9.957   3.532   0.804 -1.8043 -0.7489  0.6684
 4253SOL     OW16674   7.604   0.309   7.631  0.4298 -0.1441  0.1762
 4253SOL    HW116675   7.548   0.277   7.560 -0.6586 -0.0875  0.9727
 4253SOL    HW216676   7.644   0.389   7.595  2.0047 -1.5267 -1.2899
 4254SOL     OW16677   1.054   2.307   3.263 -0.0624 -0.5854  0.5589
 4254SOL    HW116678   1.060   2.261   3.179  0.0513  2.4827 -1.2621
 4254SOL    HW216679   1.089   2.244   3.327 -0.2707 -3.1057 -1.6166
 4255SOL     OW16680   8.309   6.038   1.559  0.2274  0.4147 -0.1559
 4255SOL    HW116681   8.385   5.994   1.521  0.1845  0.5986 -0.4527
 4255SOL    HW216682   8.272   5.974   1.620  2.2425  1.2757  2.1427
 4256SOL     OW16683   9.204   3.232   8.024  0.0446  0.6557  0.5361
 4256SOL    HW116684   9.254   3.281   8.090  0.6483 -0.5690  1.0277
 4256SOL    HW216685   9.161   3.163   8.074  1.7039 -1.2391 -0.4975
 4257SOL     OW16686   3.745   9.767   0.840  0.6259 -0.3330 -0.5318
 4257SOL    HW116687   3.740   9.863   0.840 -1.5154 -0.3053  2.1793
 4257SOL    HW216688   3.767   9.745   0.930  0.4905 -2.4067 -0.9672
 4258SOL     OW16689   1.326   8.514   3.164 -0.3200 -0.5321  0.3443
 4258SOL    HW116690   1.309   8.513   3.070 -0.9857 -0.4630  0.4579
 4258SOL    HW216691   1.345   8.423   3.186 -3.7776 -1.2897  0.7477
 4259SOL     OW16692   3.259   9.372   8.266 -0.1642  0.1397  0.1045
 4259SOL    HW116693   3.223   9.297   8.220 -0.4437  0.5148 -0.2900
 4259SOL    HW216694   3.265   9.441   8.200 -0.5621  0.6779  0.6199
 4260SOL     OW16695   7.071   5.715   7.361  0.0384 -0.7279 -0.4029
 4260SOL    HW116696   7.067   5.745   7.452 -0.6756  0.1096 -0.7078
 4260SOL    HW216697   7.163   5.725   7.337  0.1389 -0.4767  0.0665
 4261SOL     OW16698   6.043   0.900   6.665  0.2802 -0.2748 -0.2129
 4261SOL    HW116699   6.092   0.924   6.587 -0.3331 -1.0998 -0.8681
 4261SOL    HW216700   6.110   0.891   6.733  0.5675  3.2588  0.1498
 4262SOL     OW16701   9.375   3.687   2.884  0.4694  0.1709  0.0612
 4262SOL    HW116702   9.381   3.592   2.892  1.6392  0.3005  1.1925
 4262SOL    HW216703   9.443   3.709   2.820  1.5324  0.3661  1.2077
 4263SOL     OW16704   1.217   8.505   1.485 -0.1289  0.3700  0.6944
 4263SOL    HW116705   1.144   8.509   1.547  1.2630  0.0585  2.4245
 4263SOL    HW216706   1.230   8.411   1.470 -0.0209  0.4219  0.4484
 4264SOL     OW16707   5.755   1.726   9.618 -0.0246  0.3268 -0.2517
 4264SOL    HW116708   5.777   1.707   9.526 -0.5434  1.7732 -0.7081
 4264SOL    HW216709   5.781   1.817   9.630 -1.9095  0.8381  0.3876
 4265SOL     OW16710  10.066   5.111   1.492  0.6169 -0.3971  0.4732
 4265SOL    HW116711  10.070   5.206   1.481  0.5799 -0.5145 -0.6680
 4265SOL    HW216712  10.153   5.080   1.468  0.8733 -0.6015  1.5947
 4266SOL     OW16713   9.397   7.231   0.065 -0.0686  0.5630 -0.5071
 4266SOL    HW116714   9.403   7.170   0.139 -0.3468  0.4386 -0.5847
 4266SOL    HW216715   9.428   7.314   0.100 -0.9886  0.7137 -0.0027
 4267SOL     OW16716   6.361   5.518   3.453 -0.2532 -0.3858 -0.5083
 4267SOL    HW116717   6.395   5.597   3.411  2.6853 -1.0911  0.2877
 4267SOL    HW216718   6.341   5.544   3.542 -1.4099 -0.0742 -0.8480
 4268SOL     OW16719   8.809   4.645   1.213  0.0669  0.1420  0.3353
 4268SOL    HW116720   8.760   4.679   1.138  0.1419 -0.8618 -0.1891
 4268SOL    HW216721   8.772   4.558   1.228  0.6056  0.0132  0.9537
 4269SOL     OW16722   8.219   0.000   1.199 -0.2833 -0.6295 -0.1832
 4269SOL    HW116723   8.289  -0.044   1.151  1.0069  1.1257 -0.0211
 4269SOL    HW216724   8.145   0.002   1.138  0.0468 -1.8235 -0.6459
 4270SOL     OW16725   7.624   4.507   4.252 -0.6489 -0.2563  0.2865
 4270SOL    HW116726   7.554   4.449   4.222  0.8677 -2.3250  0.5470
 4270SOL    HW216727   7.703   4.454   4.246  1.1185  2.3196 -0.9991
 4271SOL     OW16728   5.399   2.611   1.826  0.2933  0.0523  0.0654
 4271SOL    HW116729   5.429   2.525   1.853  0.4503  0.0602 -0.0751
 4271SOL    HW216730   5.436   2.671   1.891 -0.2205 -0.0320  0.4419
 4272SOL     OW16731   3.098   6.591   6.866  0.2879 -0.1763  0.7757
 4272SOL    HW116732   3.119   6.499   6.849  0.7679  0.1589 -0.6419
 4272SOL    HW216733   3.007   6.600   6.839  1.2671  0.5451 -3.0346
 4273SOL     OW16734   1.468   6.249   0.954 -0.2653 -0.2577  0.3541
 4273SOL    HW116735   1.548   6.290   0.921 -0.1835 -0.3054  0.4951
 4273SOL    HW216736   1.398   6.294   0.906 -0.0634 -1.6660 -1.3469
 4274SOL     OW16737   4.066   9.429   6.537  0.3308  0.5555 -0.3107
 4274SOL    HW116738   3.993   9.484   6.510 -1.1494 -0.8938  0.5823
 4274SOL    HW216739   4.096   9.469   6.619 -2.4516 -1.3015  1.7904
 4275SOL     OW16740   4.193   8.718   1.425  0.0857  0.3237  0.6813
 4275SOL    HW116741   4.285   8.709   1.450 -0.1355  1.5387  2.1106
 4275SOL    HW216742   4.161   8.628   1.418  0.4813 -0.1857  3.9049
 4276SOL     OW16743   1.975   8.810   3.291  0.6539  0.0275 -0.2175
 4276SOL    HW116744   2.005   8.857   3.369  2.1132  0.9391 -1.2738
 4276SOL    HW216745   1.917   8.872   3.246  2.6824  0.9948 -1.6811
 4277SOL     OW16746   4.805   0.745   1.518  0.7268  0.2310  0.8944
 4277SOL    HW116747   4.825   0.682   1.587  0.1720  0.7041  1.4946
 4277SOL    HW216748   4.716   0.775   1.538  0.7069  0.6514  0.1883
 4278SOL     OW16749   0.102   9.611   8.772 -0.0942  0.0297  0.3857
 4278SOL    HW116750   0.139   9.577   8.854 -0.2546 -3.3179 -0.7682
 4278SOL    HW216751   0.014   9.575   8.769 -0.0358 -0.0407 -1.3076
 4279SOL     OW16752   9.501   8.617   7.110  1.0405  0.4444  0.5615
 4279SOL    HW116753   9.477   8.562   7.036  1.5223  1.3357 -0.2838
 4279SOL    HW216754   9.418   8.651   7.143  0.8951  1.0984 -0.4286
 4280SOL     OW16755   9.198   8.240   2.563 -0.2309 -0.4265  0.3880
 4280SOL    HW116756   9.192   8.242   2.467 -2.0063  1.2494  0.4720
 4280SOL    HW216757   9.278   8.191   2.581  1.4611  1.2144 -2.0086
 4281SOL     OW16758   8.860   1.129   4.551 -0.3180  0.0568  0.5088
 4281SOL    HW116759   8.773   1.119   4.514 -0.2773  0.4728  0.2896
 4281SOL    HW216760   8.881   1.222   4.539  0.1452 -0.0341  0.5776
 4282SOL     OW16761   9.427   7.942   7.041 -0.0862  0.5097  0.2973
 4282SOL    HW116762   9.416   7.940   7.137 -1.9274 -0.0920  0.1242
 4282SOL    HW216763   9.378   7.866   7.010 -0.6094  1.4047 -1.2007
 4283SOL     OW16764   7.248   4.045   1.165 -0.1728  0.1355  0.2780
 4283SOL    HW116765   7.330   4.006   1.194  0.1370 -0.9176 -1.8590
 4283SOL    HW216766   7.216   3.987   1.097 -1.1499  2.1131 -1.0536
 4284SOL     OW16767   4.908   1.955   8.142  0.2885  0.0637 -0.4104
 4284SOL    HW116768   4.828   1.976   8.190 -1.3967  1.1617 -3.4223
 4284SOL    HW216769   4.956   2.038   8.138  0.7566 -0.1855 -0.1140
 4285SOL     OW16770   0.663   8.021   4.724 -0.0674 -0.4200  0.2272
 4285SOL    HW116771   0.568   8.010   4.732 -0.4727  1.6317 -0.9703
 4285SOL    HW216772   0.695   7.935   4.698 -1.5609 -1.1990  0.8211
 4286SOL     OW16773   5.630   8.508   8.293 -0.0842  0.0314  0.1427
 4286SOL    HW116774   5.552   8.466   8.330 -1.1811  0.0155 -2.0587
 4286SOL    HW216775   5.689   8.518   8.368 -1.5089 -1.4873  1.5538
 4287SOL     OW16776   9.427   3.466   9.815  0.1426  0.3835  0.0485
 4287SOL    HW116777   9.421   3.412   9.736  0.5746 -1.0587  0.9553
 4287SOL    HW216778   9.337   3.470   9.847 -0.3290  2.3236 -1.3159
 4288SOL     OW16779   7.460   4.158   5.547 -0.5567 -0.7229 -0.2277
 4288SOL    HW116780   7.388   4.217   5.531 -0.6990 -1.0854 -0.9514
 4288SOL    HW216781   7.538   4.206   5.519 -0.2518  0.3945  2.2485
 4289SOL     OW16782  10.165   8.966   5.931  0.1251 -0.3395  0.0815
 4289SOL    HW116783  10.159   8.871   5.924 -1.6623 -0.3545  1.3745
 4289SOL    HW216784  10.091   8.999   5.879 -1.3697  0.1743  2.4007
 4290SOL     OW16785  10.092   8.574   8.647 -0.6647  0.2500  0.2068
 4290SOL    HW116786  10.055   8.623   8.720 -0.1394 -0.0195  0.6594
 4290SOL    HW216787  10.175   8.619   8.628 -1.5611  1.3718 -1.3481
 4291SOL     OW16788   4.633   6.043   0.484  0.9512  0.1547 -0.1069
 4291SOL    HW116789   4.598   6.097   0.412 -2.2621 -0.5126  0.7725
 4291SOL    HW216790   4.663   6.107   0.549 -0.1938  0.8859 -0.2607
 4292SOL     OW16791   1.941   5.775   2.056  0.4039 -0.0787 -0.1528
 4292SOL    HW116792   2.000   5.811   2.122  1.9416  1.3280 -2.1671
 4292SOL    HW216793   1.872   5.732   2.106  1.3460  1.1375  2.3491
 4293SOL     OW16794   3.773   0.434   1.832  0.2048 -0.3613 -0.1775
 4293SOL    HW116795   3.824   0.503   1.875 -1.1516 -0.8188  2.3300
 4293SOL    HW216796   3.726   0.480   1.762  0.8258  0.8881  0.1956
 4294SOL     OW16797   4.053   3.828   4.959 -0.1702 -0.4156 -0.0063
 4294SOL    HW116798   4.098   3.784   5.031 -0.4158 -0.0004  0.4140
 4294SOL    HW216799   3.992   3.762   4.925  1.1058 -1.1495 -0.9226
 4295SOL     OW16800   8.519   0.060   5.855 -0.8482 -0.0825 -0.5993
 4295SOL    HW116801   8.606   0.025   5.873 -0.9064  0.0788  0.0137
 4295SOL    HW216802   8.465  -0.017   5.842 -0.7579 -0.2043 -0.2777
 4296SOL     OW16803   2.148   8.092   4.493 -0.3147  0.1150 -0.4096
 4296SOL    HW116804   2.099   8.033   4.435  0.9291  0.4082 -1.8092
 4296SOL    HW216805   2.238   8.061   4.488 -0.1335  0.2985  1.2271
 4297SOL     OW16806   2.906   2.669   5.529 -0.0298 -0.6097 -0.2584
 4297SOL    HW116807   3.001   2.677   5.541  0.2082 -1.6307 -1.3184
 4297SOL    HW216808   2.889   2.709   5.444 -1.2275  3.5635  1.7284
 4298SOL     OW16809  10.170   9.600   3.955  0.3231  0.1616 -0.1286
 4298SOL    HW116810  10.242   9.660   3.976 -0.0608 -0.5344  3.8665
 4298SOL    HW216811  10.213   9.522   3.919  1.5070  0.1859  1.1682
 4299SOL     OW16812   2.152   3.326   4.060 -0.2677  0.1204  0.3461
 4299SOL    HW116813   2.183   3.257   4.002 -0.5254  1.7938 -1.9353
 4299SOL    HW216814   2.224   3.389   4.064 -0.0155 -0.2396  2.4136
 4300SOL     OW16815   0.782   7.736   4.791  0.3735 -0.6501  0.3190
 4300SOL    HW116816   0.850   7.693   4.842 -0.7319 -0.4467  2.0239
 4300SOL    HW216817   0.820   7.745   4.703  2.0091 -1.7389  0.8781
 4301SOL     OW16818   1.570   5.128   6.660  0.9281  0.1100  0.6357
 4301SOL    HW116819   1.606   5.099   6.744  1.0765 -0.3712  0.4084
 4301SOL    HW216820   1.506   5.060   6.638 -0.2819  1.0572  1.1402
 4302SOL     OW16821   8.685   3.895   9.391  0.1455 -0.3039  0.3677
 4302SOL    HW116822   8.648   3.975   9.353  0.9292 -0.1666 -0.1330
 4302SOL    HW216823   8.675   3.906   9.485  1.0086  0.7823  0.3481
 4303SOL     OW16824   1.438   5.112   1.773  0.0216 -0.2878 -0.1332
 4303SOL    HW116825   1.388   5.190   1.797 -0.3513 -0.8884  1.1502
 4303SOL    HW216826   1.527   5.131   1.802  0.1175 -0.0041 -0.6090
 4304SOL     OW16827   1.443   4.288   1.439 -0.0800  0.5564  0.0176
 4304SOL    HW116828   1.424   4.370   1.394 -1.1755  0.7646  0.8244
 4304SOL    HW216829   1.415   4.220   1.378  0.7700  0.7615 -0.6270
 4305SOL     OW16830  10.111   5.413   1.531 -0.0021 -0.1721 -0.0261
 4305SOL    HW116831  10.180   5.434   1.468  0.4077 -1.3538  0.0005
 4305SOL    HW216832  10.156   5.412   1.616 -0.3013  0.2235  0.1393
 4306SOL     OW16833   6.922   0.575   7.500  0.7541 -0.2241  0.3046
 4306SOL    HW116834   6.853   0.527   7.545  1.0611 -0.9004  0.0648
 4306SOL    HW216835   7.002   0.527   7.519  0.6274 -1.8282 -2.6826
 4307SOL     OW16836   2.318   0.480   1.879 -0.1785  0.4508  0.6375
 4307SOL    HW116837   2.366   0.530   1.813  1.2672 -2.1174 -0.3851
 4307SOL    HW216838   2.377   0.477   1.955 -0.6985  1.1042  1.0837
 4308SOL     OW16839   0.048   2.050   2.528  0.3194 -0.3236  0.1315
 4308SOL    HW116840  -0.043   2.025   2.548  0.6951 -0.6665  1.5210
 4308SOL    HW216841   0.093   2.045   2.613  2.0911 -2.1187 -0.8281
 4309SOL     OW16842   7.847   2.106   1.575  0.1492  0.2877  0.3566
 4309SOL    HW116843   7.850   2.106   1.671 -1.8984 -0.5949  0.4683
 4309SOL    HW216844   7.934   2.136   1.549  0.9758 -0.0576  2.4727
 4310SOL     OW16845   1.768   0.842   1.116  0.1046  0.1704  0.1922
 4310SOL    HW116846   1.776   0.916   1.055  0.2456  1.8384  2.1219
 4310SOL    HW216847   1.848   0.845   1.168 -1.3251  0.8543  2.5321
 4311SOL     OW16848   0.875  10.196  10.159 -0.1275  1.1163 -0.1621
 4311SOL    HW116849   0.824  10.172  10.236 -0.3400 -0.5248 -0.7772
 4311SOL    HW216850   0.931  10.121  10.142  0.4936  1.7723 -1.1405
 4312SOL     OW16851   8.123   3.787   8.680  0.4542 -0.2165 -0.4203
 4312SOL    HW116852   8.107   3.770   8.773  1.1016 -2.4851 -0.6799
 4312SOL    HW216853   8.043   3.757   8.637  0.9207 -1.0320 -0.7404
 4313SOL     OW16854   0.430   3.413   7.041  0.7141 -0.5869  0.0807
 4313SOL    HW116855   0.443   3.407   7.136  0.2064 -1.5223  0.1006
 4313SOL    HW216856   0.474   3.494   7.016  1.0489 -0.4462  1.0831
 4314SOL     OW16857   7.849   8.619   2.502 -0.3017 -0.0081  0.2879
 4314SOL    HW116858   7.772   8.624   2.559 -0.1667 -2.0986  0.7315
 4314SOL    HW216859   7.813   8.592   2.417 -0.2592  0.9203 -0.0291
 4315SOL     OW16860   0.811   9.244   7.457  0.6771  0.4112 -0.2536
 4315SOL    HW116861   0.791   9.156   7.428  1.3245  0.3822 -0.6190
 4315SOL    HW216862   0.897   9.263   7.421 -0.6690  2.3426 -2.8481
 4316SOL     OW16863   6.293   3.629   6.902 -0.1554 -0.5870  0.6524
 4316SOL    HW116864   6.306   3.693   6.971  0.3247 -0.4416  0.4258
 4316SOL    HW216865   6.225   3.667   6.846 -0.0893 -0.4167  0.6886
 4317SOL     OW16866   8.493   1.009   5.141  0.4110 -0.3246  0.4112
 4317SOL    HW116867   8.501   1.095   5.099 -1.7160 -0.3996 -0.2234
 4317SOL    HW216868   8.461   1.029   5.229 -1.4536 -0.4949 -0.1910
 4318SOL     OW16869   9.596   1.206   3.266 -0.0307  0.3669  0.0604
 4318SOL    HW116870   9.544   1.279   3.300 -0.3946  0.3740 -0.4938
 4318SOL    HW216871   9.577   1.133   3.325 -0.2687  0.5140  0.1666
 4319SOL     OW16872   6.264   4.846   7.027  0.1439 -0.2753  0.2068
 4319SOL    HW116873   6.240   4.798   7.106  0.8599  1.3113  1.4619
 4319SOL    HW216874   6.249   4.938   7.050  0.3082  0.2217 -1.5391
 4320SOL     OW16875   7.485   2.261   4.343 -0.0872  0.3928  0.5646
 4320SOL    HW116876   7.496   2.350   4.377 -1.2711  1.5034 -1.7482
 4320SOL    HW216877   7.554   2.210   4.387  1.3548  2.6829  1.1414
 4321SOL     OW16878   5.878   3.443   2.068  0.1157  0.8372  0.0758
 4321SOL    HW116879   5.944   3.457   2.136  2.3534  1.2516 -2.0328
 4321SOL    HW216880   5.875   3.348   2.057  1.1717  0.8463 -0.4812
 4322SOL     OW16881   8.921   9.835   3.940 -0.0866 -0.3816  0.4191
 4322SOL    HW116882   8.989   9.896   3.969 -0.5206  0.7676 -0.8666
 4322SOL    HW216883   8.968   9.755   3.917  1.0690  0.8011 -1.6506
 4323SOL     OW16884   1.110   0.830   7.192 -0.0728  0.5065 -0.3303
 4323SOL    HW116885   1.071   0.754   7.235 -1.2335  0.9734 -0.5220
 4323SOL    HW216886   1.196   0.839   7.232  0.1012 -0.9167 -0.3176
 4324SOL     OW16887   0.825   1.767   4.946  0.1899  0.3931  0.6701
 4324SOL    HW116888   0.771   1.804   5.015  1.1171  1.3458  0.9317
 4324SOL    HW216889   0.839   1.840   4.885 -0.3579 -0.3442 -0.3768
 4325SOL     OW16890   9.758   7.835   1.721  0.1428 -0.2285 -0.0073
 4325SOL    HW116891   9.834   7.776   1.720 -0.1429 -0.7864  2.9657
 4325SOL    HW216892   9.764   7.881   1.805 -2.7938 -0.3298  0.3634
 4326SOL     OW16893   5.073   6.666   3.098 -0.2121 -0.4379  1.0445
 4326SOL    HW116894   4.992   6.675   3.149  0.0904  1.6768  1.2364
 4326SOL    HW216895   5.143   6.688   3.159  0.1892  1.6708 -0.0903
 4327SOL     OW16896   7.218   4.883   8.087 -0.0301 -0.0856 -0.2381
 4327SOL    HW116897   7.168   4.961   8.062  0.5870  0.7668  1.1406
 4327SOL    HW216898   7.170   4.811   8.045 -1.4199  0.8739 -0.3783
 4328SOL     OW16899   3.874   2.772   5.449 -0.2623  0.4353 -0.4161
 4328SOL    HW116900   3.798   2.829   5.460 -0.3657  0.3858 -0.8520
 4328SOL    HW216901   3.902   2.752   5.539 -0.1178  1.3003 -0.2573
 4329SOL     OW16902   6.574   0.843   0.240 -0.0933  0.2141 -0.0015
 4329SOL    HW116903   6.569   0.934   0.271 -1.0704  0.4564 -0.8141
 4329SOL    HW216904   6.522   0.842   0.160 -0.5898 -1.1997  0.3066
 4330SOL     OW16905   7.905   8.968   0.847  0.3984 -0.3010 -0.6784
 4330SOL    HW116906   7.895   8.944   0.755 -1.1163  0.4428 -0.7459
 4330SOL    HW216907   7.978   9.030   0.848  0.4904 -0.3874 -1.3601
 4331SOL     OW16908   1.843   0.170   4.483  0.1420  0.6635  0.1917
 4331SOL    HW116909   1.809   0.085   4.454  1.1536  0.6406 -1.0280
 4331SOL    HW216910   1.774   0.232   4.462  0.3043  0.4462 -1.0215
 4332SOL     OW16911   6.565   2.909   2.006  0.5571 -0.0185 -0.1520
 4332SOL    HW116912   6.622   2.869   1.941  0.7559  1.3013 -0.8427
 4332SOL    HW216913   6.541   2.994   1.968  0.6982  0.8108  1.5030
 4333SOL     OW16914   3.560   2.656   0.938 -0.2516  0.3826  0.2719
 4333SOL    HW116915   3.550   2.649   1.033 -0.2726 -1.4256  0.1722
 4333SOL    HW216916   3.479   2.696   0.908  0.2260  2.0568  1.0966
 4334SOL     OW16917   5.989   5.057   1.123  0.7854  0.4599  0.1358
 4334SOL    HW116918   6.028   5.145   1.122 -2.1742  1.8886  0.0293
 4334SOL    HW216919   5.939   5.054   1.204 -0.7880 -0.3379 -0.8207
 4335SOL     OW16920   1.476   5.459   8.762 -0.1499 -0.2270 -0.1575
 4335SOL    HW116921   1.567   5.466   8.734 -0.2002 -2.2731 -1.0371
 4335SOL    HW216922   1.480   5.417   8.848 -0.2378 -0.0299 -0.0576
 4336SOL     OW16923   5.032  10.086   6.468  0.3297  0.0434 -0.1802
 4336SOL    HW116924   4.975  10.156   6.435  3.4961  1.8780 -2.4152
 4336SOL    HW216925   4.996  10.006   6.430 -0.2718  1.2319 -2.2965
 4337SOL     OW16926   4.358   4.950   9.680 -0.6621 -0.0059 -0.0671
 4337SOL    HW116927   4.431   4.927   9.623  0.5402  0.5656  1.1959
 4337SOL    HW216928   4.333   4.867   9.722  1.4888  0.2791  1.9810
 4338SOL     OW16929   3.061   9.205   8.147  0.2703  0.1517 -0.0644
 4338SOL    HW116930   3.020   9.247   8.071 -3.0125 -0.8548  0.9851
 4338SOL    HW216931   3.004   9.131   8.168  0.3321  1.0093  4.0469
 4339SOL     OW16932   4.178   0.757   0.531  0.7949  0.5749 -0.1118
 4339SOL    HW116933   4.109   0.712   0.581 -0.4507  0.6365 -1.6802
 4339SOL    HW216934   4.202   0.694   0.462 -0.3890  1.9158 -1.8401
 4340SOL     OW16935   8.838   1.941   5.912 -0.2748 -0.5416  0.4322
 4340SOL    HW116936   8.925   1.907   5.893 -0.1053  0.1977 -0.1841
 4340SOL    HW216937   8.793   1.870   5.957  0.8021 -0.7572  1.1868
 4341SOL     OW16938   8.792   8.204   5.901  0.1403  0.3800  0.1664
 4341SOL    HW116939   8.737   8.209   5.979  0.9241  0.9987  0.6968
 4341SOL    HW216940   8.784   8.291   5.861 -0.2411  0.0724 -0.4368
 4342SOL     OW16941   1.580   7.834   4.100  0.1564  0.0025  0.5034
 4342SOL    HW116942   1.553   7.861   4.013 -1.3633 -0.7953  0.6877
 4342SOL    HW216943   1.570   7.913   4.154 -3.5984 -0.5567  0.9031
 4343SOL     OW16944   7.738   0.398   6.182  0.2151 -0.4045 -0.1129
 4343SOL    HW116945   7.766   0.393   6.091 -2.6095 -2.1320 -1.0221
 4343SOL    HW216946   7.794   0.334   6.228  1.4588  0.2671 -0.6376
 4344SOL     OW16947   1.068   6.308   8.950 -0.1876  0.0851 -0.2983
 4344SOL    HW116948   1.163   6.323   8.956 -0.0528 -1.0022  0.5060
 4344SOL    HW216949   1.061   6.217   8.919 -0.9515 -0.3997  1.2083
 4345SOL     OW16950   3.449   3.244   3.687  0.2904 -0.1060  0.0920
 4345SOL    HW116951   3.384   3.203   3.744  0.4917 -1.3946 -0.5725
 4345SOL    HW216952   3.524   3.260   3.745  0.4449 -1.2784  0.2449
 4346SOL     OW16953   8.674   7.724   5.172 -0.0565 -0.3299 -0.0904
 4346SOL    HW116954   8.734   7.667   5.125 -0.2754  0.7695 -1.7973
 4346SOL    HW216955   8.723   7.751   5.250  1.7411  0.5869 -1.4537
 4347SOL     OW16956   4.207   9.673   9.739 -0.6218 -0.2267 -0.3516
 4347SOL    HW116957   4.184   9.712   9.823 -0.6674 -0.6224 -0.1764
 4347SOL    HW216958   4.123   9.655   9.697 -0.5995 -0.0737 -0.4637
 4348SOL     OW16959   0.128   1.136   6.326 -0.3205 -0.2497 -0.2876
 4348SOL    HW116960   0.205   1.170   6.280  0.6358  0.1768  1.4975
 4348SOL    HW216961   0.058   1.197   6.304  0.6463  1.2127  0.4992
 4349SOL     OW16962   2.905   3.875   6.495 -0.2717 -0.0578  0.7109
 4349SOL    HW116963   2.873   3.872   6.405  2.4652  1.7988 -0.4350
 4349SOL    HW216964   2.876   3.959   6.529 -0.7527 -0.4783  1.3631
 4350SOL     OW16965   7.609   2.486   7.733 -0.2793  0.1851 -0.4248
 4350SOL    HW116966   7.571   2.432   7.803 -1.2505  2.1285  0.6688
 4350SOL    HW216967   7.703   2.472   7.740 -0.2682  0.8864  1.8680
 4351SOL     OW16968   0.445   3.751   3.222  0.1570 -0.0183  0.0227
 4351SOL    HW116969   0.424   3.734   3.314 -1.4439  0.0510 -0.3042
 4351SOL    HW216970   0.442   3.665   3.181 -1.5358  0.2259 -0.4072
 4352SOL     OW16971   9.993   3.672   5.445 -0.0170 -0.0950  0.2064
 4352SOL    HW116972  10.066   3.613   5.460 -0.5790 -0.6738  0.7447
 4352SOL    HW216973   9.961   3.650   5.358 -1.4677 -2.0202  1.1453
 4353SOL     OW16974   3.063   3.028   1.778 -0.6760 -0.0499 -0.1528
 4353SOL    HW116975   3.067   3.121   1.753 -0.2461 -0.2633 -0.8874
 4353SOL    HW216976   3.138   2.988   1.735 -1.1167 -0.8302 -0.2118
 4354SOL     OW16977   6.360   6.310   3.014 -0.5500 -0.1603 -0.1012
 4354SOL    HW116978   6.410   6.349   3.086 -1.3511 -0.1525  0.4714
 4354SOL    HW216979   6.282   6.365   3.007  0.0147  0.4838 -1.7056
 4355SOL     OW16980   1.384   5.769   1.706 -0.3801 -0.4463  0.2400
 4355SOL    HW116981   1.332   5.724   1.639 -0.4746  0.7911 -0.5461
 4355SOL    HW216982   1.475   5.750   1.683 -0.3917  0.4457 -0.6127
 4356SOL     OW16983   2.749   7.998   6.011 -0.1766 -0.4166  0.1920
 4356SOL    HW116984   2.836   8.009   5.974  1.5357 -2.0551  3.3628
 4356SOL    HW216985   2.714   8.088   6.017  2.2368  0.5636  0.8704
 4357SOL     OW16986   0.421   4.380   9.455 -0.6247  0.0449 -0.1138
 4357SOL    HW116987   0.358   4.309   9.444 -1.0103  0.4783 -0.7678
 4357SOL    HW216988   0.439   4.382   9.549 -0.7421 -0.7983 -0.0677
 4358SOL     OW16989   7.542   9.417   8.472  0.2646 -0.3245 -0.2327
 4358SOL    HW116990   7.570   9.508   8.467  0.1348 -0.2413  0.5191
 4358SOL    HW216991   7.606   9.375   8.530 -0.7414 -0.2847  0.9409
 4359SOL     OW16992   0.348   2.010   2.077  0.6070  0.5589 -0.0260
 4359SOL    HW116993   0.341   1.916   2.092 -0.4941  0.4892 -0.8723
 4359SOL    HW216994   0.269   2.047   2.118  1.3233  1.1960  0.8243
 4360SOL     OW16995   3.182   4.651   9.388  0.0324 -0.2367 -0.2698
 4360SOL    HW116996   3.108   4.611   9.436  0.4478 -1.2167 -0.4213
 4360SOL    HW216997   3.211   4.722   9.445  1.9212 -2.7021  2.1276
 4361SOL     OW16998   2.708   1.434   7.178  0.0125  0.6799  0.3936
 4361SOL    HW116999   2.746   1.507   7.226 -0.7182  1.2406  0.1380
 4361SOL    HW217000   2.783   1.389   7.140  0.5141  0.9104  1.0913
 4362SOL     OW17001   0.195   2.312   6.818  0.2637  0.0678 -1.1205
 4362SOL    HW117002   0.246   2.330   6.897 -1.5523  2.4738 -0.3676
 4362SOL    HW217003   0.261   2.305   6.748  1.7353  1.2260  0.0720
 4363SOL     OW17004   9.164   0.674   9.411 -0.0196 -0.0636  0.4693
 4363SOL    HW117005   9.126   0.743   9.466 -1.2369  0.0900 -0.5113
 4363SOL    HW217006   9.125   0.689   9.325 -0.2655 -1.9440  0.2199
 4364SOL     OW17007   5.342   9.051   6.123  0.2852 -0.2262  0.4283
 4364SOL    HW117008   5.401   8.991   6.169  0.1922 -0.4566  0.2516
 4364SOL    HW217009   5.382   9.064   6.037 -0.9514 -2.0414 -0.4932
 4365SOL     OW17010   7.312   0.222   2.183  0.2518  0.1082  0.3890
 4365SOL    HW117011   7.264   0.301   2.205 -0.8139 -0.7170  1.1052
 4365SOL    HW217012   7.261   0.181   2.113  0.0571 -0.6215  0.9445
 4366SOL     OW17013   5.028   7.308   0.224 -0.1384 -0.2845 -0.2807
 4366SOL    HW117014   5.097   7.300   0.290  0.0728 -0.9861 -0.5754
 4366SOL    HW217015   4.999   7.218   0.209  0.5991 -0.2742 -1.9658
 4367SOL     OW17016   0.537   8.420   4.023  0.5863 -0.2290 -0.2683
 4367SOL    HW117017   0.465   8.422   4.085  0.5933 -0.6718 -0.2484
 4367SOL    HW217018   0.582   8.504   4.037 -1.6405  1.4711 -2.3530
 4368SOL     OW17019   8.940   5.067   9.477  0.1071 -0.1982  0.2025
 4368SOL    HW117020   8.973   5.034   9.561  0.7494  0.2989  0.1546
 4368SOL    HW217021   8.891   5.146   9.500 -1.9871 -1.4825  0.3934
 4369SOL     OW17022   1.713   1.171   6.839 -0.0070  0.1467 -0.3894
 4369SOL    HW117023   1.701   1.135   6.751  1.6130  0.4670 -0.7595
 4369SOL    HW217024   1.640   1.233   6.849 -1.9402 -1.9913 -0.3409
 4370SOL     OW17025   2.384   1.140   3.914 -0.3655 -0.1920  0.3698
 4370SOL    HW117026   2.453   1.083   3.946  0.2885  1.2095  1.5380
 4370SOL    HW217027   2.425   1.192   3.845 -0.2375  0.6519  1.0736
 4371SOL     OW17028   5.699   7.207   8.487 -0.1909 -0.4983 -0.7345
 4371SOL    HW117029   5.614   7.163   8.496 -1.7908  2.3383 -1.0376
 4371SOL    HW217030   5.761   7.135   8.477 -2.4046 -2.7414  0.3550
 4372SOL     OW17031   8.585   3.550   2.713 -0.4338 -0.0787 -1.0281
 4372SOL    HW117032   8.574   3.572   2.620 -1.6010 -0.1517 -0.9296
 4372SOL    HW217033   8.520   3.604   2.758  2.3336  2.5226  0.1901
 4373SOL     OW17034   9.668   0.608   6.186 -0.3273 -0.6399  0.0303
 4373SOL    HW117035   9.630   0.562   6.260 -0.2276  0.2140  0.6292
 4373SOL    HW217036   9.674   0.542   6.117 -0.8804 -1.3230  0.6186
 4374SOL     OW17037   3.298   7.815   0.174 -0.3150  0.2168  0.0939
 4374SOL    HW117038   3.239   7.784   0.242  1.0022 -2.3775  0.1539
 4374SOL    HW217039   3.368   7.859   0.221 -0.7655  0.8311  0.2044
 4375SOL     OW17040   6.414   3.828   8.848  0.0636  0.3296 -0.1294
 4375SOL    HW117041   6.352   3.770   8.892  0.7445 -0.0166  0.3850
 4375SOL    HW217042   6.420   3.794   8.759  1.0956 -0.9218  0.3970
 4376SOL     OW17043   0.694   7.003   5.428  0.6252 -0.1644 -0.1472
 4376SOL    HW117044   0.658   7.091   5.445  3.1421  0.5661  2.0072
 4376SOL    HW217045   0.767   6.995   5.489  0.1048 -4.0714  0.2054
 4377SOL     OW17046   1.964   0.337   8.639  0.0745 -0.3561  0.4394
 4377SOL    HW117047   2.023   0.410   8.657 -1.7659  0.6507  2.9376
 4377SOL    HW217048   1.905   0.370   8.571  0.7407 -0.4517 -0.2030
 4378SOL     OW17049   2.967   9.024   2.847 -0.3516  0.0041  0.0411
 4378SOL    HW117050   2.879   9.012   2.813 -1.1252  1.5359  1.3527
 4378SOL    HW217051   3.025   9.003   2.774 -1.8199 -0.0879 -1.1363
 4379SOL     OW17052   5.756   5.453   9.722 -0.4490  0.6277  0.1642
 4379SOL    HW117053   5.682   5.445   9.662  0.4185 -1.2543 -0.7536
 4379SOL    HW217054   5.765   5.366   9.760  0.7327  1.0736  0.9595
 4380SOL     OW17055   2.905   7.108   6.550  0.5397 -0.0435  0.4581
 4380SOL    HW117056   2.843   7.156   6.496 -0.7197 -1.7594  0.3342
 4380SOL    HW217057   2.893   7.144   6.638 -0.7352 -0.4515  0.4602
 4381SOL     OW17058   7.448   7.209   8.048  0.3535  0.4264  0.5929
 4381SOL    HW117059   7.483   7.253   7.970 -2.1034  2.0632  0.3067
 4381SOL    HW217060   7.504   7.240   8.119  1.6818  0.1226 -0.2847
 4382SOL     OW17061   6.316   7.133   6.304  0.3007  0.3264 -0.0018
 4382SOL    HW117062   6.352   7.220   6.321  1.2144  0.2664 -1.4674
 4382SOL    HW217063   6.388   7.073   6.325 -0.0047 -0.0240  0.0617
 4383SOL     OW17064   8.822   3.491   9.902 -0.3956  0.1952  0.3465
 4383SOL    HW117065   8.803   3.570   9.953  1.8692  0.7767  0.4198
 4383SOL    HW217066   8.806   3.517   9.811  1.3973  1.2018  0.2485
 4384SOL     OW17067   5.756   8.881   9.339  0.0058  1.0302  0.2061
 4384SOL    HW117068   5.777   8.873   9.246 -0.2966 -3.3103  0.2992
 4384SOL    HW217069   5.795   8.964   9.366  1.2100  1.8364 -3.4732
 4385SOL     OW17070   8.007   3.432   4.721 -0.4522 -0.5918 -0.3286
 4385SOL    HW117071   7.955   3.502   4.681 -1.0346 -1.8266 -1.8082
 4385SOL    HW217072   8.068   3.478   4.779 -2.5818  0.9770  0.8293
 4386SOL     OW17073   7.378   3.449   9.841  0.0042 -0.4953  0.0491
 4386SOL    HW117074   7.471   3.448   9.865 -0.1872 -0.9363  0.7840
 4386SOL    HW217075   7.378   3.474   9.748  0.9032 -1.1457 -0.1422
 4387SOL     OW17076   4.076   4.225   1.849  0.6688 -0.5663  0.2239
 4387SOL    HW117077   4.167   4.205   1.870  0.7594  0.1274  0.5391
 4387SOL    HW217078   4.027   4.205   1.929  0.3128 -2.3053 -0.3928
 4388SOL     OW17079   7.724   1.083   6.230  0.3365  0.5605  0.3383
 4388SOL    HW117080   7.676   1.115   6.154  0.0470 -0.2726  0.1532
 4388SOL    HW217081   7.773   1.008   6.197  1.3915  1.1001  0.6420
 4389SOL     OW17082   3.783   0.821   2.787  0.1900 -0.4231  0.3149
 4389SOL    HW117083   3.694   0.805   2.817  0.0181 -0.5743 -0.2753
 4389SOL    HW217084   3.821   0.877   2.854  0.0691 -1.4095  1.2390
 4390SOL     OW17085   6.511   7.756   5.989 -0.4671 -0.4130 -0.2531
 4390SOL    HW117086   6.556   7.840   5.989 -1.3635  0.1308  1.3488
 4390SOL    HW217087   6.458   7.758   6.070  1.2100 -3.4167  1.0830
 4391SOL     OW17088   8.046   5.051   1.047 -0.0717  0.3450 -0.9486
 4391SOL    HW117089   8.101   5.129   1.058 -0.2180  0.2772  0.4034
 4391SOL    HW217090   7.971   5.066   1.104 -0.6974 -0.2610 -1.5963
 4392SOL     OW17091   1.212   9.234   3.380  0.0258  0.5130  0.7632
 4392SOL    HW117092   1.238   9.145   3.357 -2.0469  0.1504 -0.4099
 4392SOL    HW217093   1.241   9.245   3.471 -0.4684 -1.6951  1.2263
 4393SOL     OW17094   0.667   1.504   4.830  0.1993 -0.3755 -0.2404
 4393SOL    HW117095   0.596   1.563   4.807  0.1901 -0.4403 -0.3799
 4393SOL    HW217096   0.665   1.499   4.926  0.1245 -0.2451 -0.2359
 4394SOL     OW17097   8.342   0.482   2.171  0.0728  0.4984 -0.0990
 4394SOL    HW117098   8.345   0.438   2.086  0.9699 -2.0972  1.1743
 4394SOL    HW217099   8.259   0.530   2.170 -1.3100 -1.7241 -1.4320
 4395SOL     OW17100   2.153  10.186   4.499 -0.4528 -0.2437  0.0489
 4395SOL    HW117101   2.104  10.226   4.571 -0.9549 -1.2671  0.2899
 4395SOL    HW217102   2.127  10.236   4.422 -2.2653 -1.0355  0.0971
 4396SOL     OW17103   0.699   9.269   9.546  0.0813 -0.7990 -0.5456
 4396SOL    HW117104   0.762   9.204   9.575  1.0287 -0.6023 -2.0642
 4396SOL    HW217105   0.747   9.351   9.543  0.0682 -0.8028 -2.5745
 4397SOL     OW17106   4.966   0.052   4.216  0.5226 -0.4562  0.2365
 4397SOL    HW117107   4.932   0.123   4.270  0.2742 -0.8620  0.6163
 4397SOL    HW217108   5.040   0.091   4.169  1.0219 -0.2195  1.2039
 4398SOL     OW17109   7.480   9.003   1.407  0.3786 -0.3505 -0.1869
 4398SOL    HW117110   7.391   8.993   1.371 -0.2701  2.3453  0.4053
 4398SOL    HW217111   7.472   8.978   1.499  0.4484 -0.9626 -0.3471
 4399SOL     OW17112   8.842   9.955   7.845  0.3877  0.6694 -0.5798
 4399SOL    HW117113   8.936   9.971   7.848  0.8677 -1.3496 -2.4479
 4399SOL    HW217114   8.803  10.039   7.820  1.7148  1.4228 -0.1650
 4400SOL     OW17115  10.116   9.941   8.015  0.1996 -0.3171  0.0032
 4400SOL    HW117116  10.200   9.958   7.972  1.0094 -0.5479  1.4149
 4400SOL    HW217117  10.110   9.846   8.021 -0.5151 -0.3241 -0.7374
 4401SOL     OW17118   3.232   6.052   4.269 -0.6070  0.1147 -0.2181
 4401SOL    HW117119   3.152   6.064   4.320 -1.0497  0.1663 -0.9036
 4401SOL    HW217120   3.201   6.022   4.183  0.1847 -1.1810 -0.0807
 4402SOL     OW17121   9.594   0.296   5.563 -0.6121 -0.4232 -0.2737
 4402SOL    HW117122   9.598   0.202   5.579 -0.8434 -0.2739  0.6983
 4402SOL    HW217123   9.542   0.304   5.483  0.4338 -1.1715 -1.0654
 4403SOL     OW17124   4.376   3.110   9.368 -0.1674 -0.0473 -0.6329
 4403SOL    HW117125   4.468   3.133   9.354 -0.0987 -1.1339 -2.2170
 4403SOL    HW217126   4.336   3.115   9.281 -1.9941  1.8240  0.2322
 4404SOL     OW17127   3.984   3.550   5.605 -0.7518 -0.6493  0.3145
 4404SOL    HW117128   3.990   3.641   5.576 -1.1958 -0.2313  1.5167
 4404SOL    HW217129   4.075   3.521   5.609 -0.5380  0.0545  0.8680
 4405SOL     OW17130   0.459   8.230   5.633 -0.0965  0.2210 -0.0534
 4405SOL    HW117131   0.474   8.298   5.567 -0.3480  0.8312  0.5085
 4405SOL    HW217132   0.543   8.221   5.678  0.4784 -1.1702 -1.3347
 4406SOL     OW17133   1.842   7.447   4.140 -0.3664  0.3602 -0.1842
 4406SOL    HW117134   1.936   7.456   4.158 -0.0283 -0.8717 -1.2213
 4406SOL    HW217135   1.807   7.404   4.218  0.2204 -0.5697 -0.4175
 4407SOL     OW17136   0.499  10.053   7.316 -0.3186 -0.0725  0.3267
 4407SOL    HW117137   0.561  10.100   7.372 -1.3070  0.8657  0.6714
 4407SOL    HW217138   0.420  10.107   7.318 -1.2563 -1.4042  0.1624
 4408SOL     OW17139   6.795   1.034   1.093  0.5286  0.3784  0.7590
 4408SOL    HW117140   6.883   1.000   1.083 -0.5387 -3.5113  2.5784
 4408SOL    HW217141   6.758   1.034   1.005  1.4830 -0.6790  0.3450
 4409SOL     OW17142   9.597   5.830   2.808 -0.2757  0.4970 -0.0783
 4409SOL    HW117143   9.611   5.744   2.769 -1.9768 -0.7300  1.7968
 4409SOL    HW217144   9.546   5.813   2.888  2.0753  2.9027  2.1793
 4410SOL     OW17145   3.649   7.345   3.351  0.1600  0.3521  0.7688
 4410SOL    HW117146   3.607   7.267   3.313 -0.5229  0.9863  0.1748
 4410SOL    HW217147   3.734   7.315   3.381  0.6900 -0.2368 -1.1815
 4411SOL     OW17148   6.143   2.100   4.609  0.1522  0.5514 -0.1940
 4411SOL    HW117149   6.117   2.158   4.681  2.2641 -0.6469  1.6350
 4411SOL    HW217150   6.209   2.149   4.561 -0.4953  0.9333 -0.7158
 4412SOL     OW17151   1.355   6.842   8.728  0.2501  0.1762 -0.1900
 4412SOL    HW117152   1.424   6.777   8.715  1.1026  0.3203  2.9922
 4412SOL    HW217153   1.289   6.797   8.781 -0.9049  0.8342 -1.0186
 4413SOL     OW17154   3.016   6.506   9.054  1.1034 -0.0077  0.2149
 4413SOL    HW117155   2.963   6.568   9.004 -0.1501 -1.1056  0.1460
 4413SOL    HW217156   2.981   6.511   9.143 -0.2551 -1.9005 -0.1618
 4414SOL     OW17157   5.089   9.841   8.016 -1.1049  0.3735 -0.5472
 4414SOL    HW117158   5.068   9.751   8.041  3.3714 -0.2639  1.9564
 4414SOL    HW217159   5.053   9.894   8.087 -1.9284  0.3609 -0.9442
 4415SOL     OW17160   2.906   5.970   9.288 -0.7824 -0.5349 -0.0462
 4415SOL    HW117161   2.900   6.048   9.232 -0.7818 -0.6381 -0.1894
 4415SOL    HW217162   2.848   5.906   9.247 -0.4328 -0.7667 -0.1871
 4416SOL     OW17163   2.091   3.164   3.646  0.0643 -0.4623 -0.3633
 4416SOL    HW117164   2.181   3.134   3.650  0.0290 -0.4377  1.2337
 4416SOL    HW217165   2.078   3.189   3.554  0.6736 -3.4458 -1.3795
 4417SOL     OW17166   6.646   7.643   1.867  0.2803 -0.0149 -0.5500
 4417SOL    HW117167   6.707   7.627   1.939 -1.0341  0.4292  0.7078
 4417SOL    HW217168   6.697   7.691   1.802  0.4641  3.4266  1.9143
 4418SOL     OW17169   5.874   7.408   7.847 -0.2233 -0.6998 -0.3728
 4418SOL    HW117170   5.880   7.482   7.786  0.8192 -0.4837 -0.0347
 4418SOL    HW217171   5.864   7.331   7.790 -0.1716 -0.4146 -0.7735
 4419SOL     OW17172   1.450   8.127   3.671 -0.5242 -0.5478 -0.6818
 4419SOL    HW117173   1.524   8.180   3.640  1.3300 -3.7773 -2.4368
 4419SOL    HW217174   1.387   8.190   3.705  1.3865  2.7100 -2.6457
 4420SOL     OW17175   3.017   8.622   6.793 -0.1602  0.2410  0.3360
 4420SOL    HW117176   2.955   8.567   6.840  0.2635  0.6207  1.3729
 4420SOL    HW217177   3.065   8.561   6.736  0.8511 -0.6425  2.0504
 4421SOL     OW17178   7.705   9.290   6.319 -0.1269 -0.2557  0.2098
 4421SOL    HW117179   7.729   9.225   6.385 -0.4177 -0.3956  0.1810
 4421SOL    HW217180   7.768   9.360   6.330  0.4258 -0.7064 -0.0062
 4422SOL     OW17181   8.046   4.281   2.131  0.0064  0.1372  0.2401
 4422SOL    HW117182   8.046   4.225   2.053  0.3323 -0.6686  0.7953
 4422SOL    HW217183   7.960   4.265   2.171  0.3943 -0.5757  0.8090
 4423SOL     OW17184   9.376   6.268   6.324  0.0674 -0.3900 -0.3896
 4423SOL    HW117185   9.364   6.357   6.289  0.4454 -0.6301 -1.1597
 4423SOL    HW217186   9.424   6.222   6.255 -0.4514 -1.3010 -0.1576
 4424SOL     OW17187   6.703   6.757   1.054 -0.6020  0.0523 -0.4664
 4424SOL    HW117188   6.728   6.805   1.133 -0.2599 -0.2898 -0.3633
 4424SOL    HW217189   6.617   6.720   1.074 -1.1992  1.1959 -0.8026
 4425SOL     OW17190   5.693   1.709   3.403  0.5781  0.3584  0.1234
 4425SOL    HW117191   5.632   1.726   3.330 -1.3047 -2.1208  0.9703
 4425SOL    HW217192   5.663   1.766   3.473 -0.0963 -0.0146  0.1528
 4426SOL     OW17193   3.802   4.924   5.247  0.7456  0.5384  0.2497
 4426SOL    HW117194   3.860   4.847   5.243 -0.1342 -0.0822 -2.0502
 4426SOL    HW217195   3.841   4.979   5.314  2.1062 -1.3635  1.1233
 4427SOL     OW17196   2.009   3.837   7.357 -0.1422  0.5693 -0.4358
 4427SOL    HW117197   1.964   3.863   7.437  0.9947 -1.9035  1.1463
 4427SOL    HW217198   2.055   3.916   7.329 -2.6255  2.1931 -0.1764
 4428SOL     OW17199   3.957   0.780   9.572 -0.1754  0.0379 -0.5150
 4428SOL    HW117200   3.864   0.756   9.579  0.2425 -1.6999 -0.3689
 4428SOL    HW217201   3.980   0.760   9.482  0.7098 -2.2984  0.1593
 4429SOL     OW17202   3.323   4.325   5.042 -0.3379 -0.0577 -0.0297
 4429SOL    HW117203   3.329   4.397   4.979 -1.5111  0.6532  0.6456
 4429SOL    HW217204   3.280   4.254   4.994  1.0339 -0.4325 -0.7715
 4430SOL     OW17205   6.269   1.895   3.759  0.0163  0.4520  0.0271
 4430SOL    HW117206   6.232   1.838   3.692 -0.9658  0.4464  0.5572
 4430SOL    HW217207   6.193   1.933   3.803  0.5472 -1.1473  2.5244
 4431SOL     OW17208   5.711   1.779   0.085 -0.8490  0.1695  0.5047
 4431SOL    HW117209   5.711   1.832   0.165  0.1675  0.5179  0.2886
 4431SOL    HW217210   5.768   1.705   0.105 -1.7083 -0.4997  0.5633
 4432SOL     OW17211   6.009   5.322   1.670 -0.1808 -0.2896 -0.0925
 4432SOL    HW117212   5.933   5.289   1.622 -0.6960 -0.4444  0.8175
 4432SOL    HW217213   5.972   5.368   1.745  0.5598  1.2682 -0.6320
 4433SOL     OW17214   9.189   1.290   7.521 -0.3677  0.6311  0.1905
 4433SOL    HW117215   9.246   1.263   7.593 -0.5555 -1.0305 -0.2410
 4433SOL    HW217216   9.116   1.228   7.524 -0.9400  1.2328 -0.7441
 4434SOL     OW17217   5.800   1.656   2.570  0.4801 -0.2039 -0.1879
 4434SOL    HW117218   5.721   1.626   2.616 -0.0997  2.5636  0.7798
 4434SOL    HW217219   5.871   1.641   2.632  0.2108  0.2946  0.2494
 4435SOL     OW17220   9.685   5.296   2.478  0.1153  0.4584 -0.6804
 4435SOL    HW117221   9.634   5.239   2.420  1.4826 -1.1319 -0.3972
 4435SOL    HW217222   9.713   5.369   2.422  0.0394 -0.2046 -1.5997
 4436SOL     OW17223   2.360   1.060   8.037 -0.2389  0.0948 -0.1590
 4436SOL    HW117224   2.374   1.036   8.128 -0.2673 -0.0146 -0.1835
 4436SOL    HW217225   2.384   0.981   7.987 -0.1310  0.1841 -0.2515
 4437SOL     OW17226   9.301   1.888   6.660  0.6313 -0.1363  0.5568
 4437SOL    HW117227   9.336   1.814   6.609  0.2959 -0.4905  0.8347
 4437SOL    HW217228   9.324   1.965   6.609 -1.4208 -0.5698 -1.1767
 4438SOL     OW17229   9.044   6.351   5.110 -0.0969 -0.2453  0.1161
 4438SOL    HW117230   9.049   6.391   5.023  0.6662  2.6248  1.3515
 4438SOL    HW217231   9.009   6.264   5.094 -0.1288  0.2148 -3.0406
 4439SOL     OW17232   9.620   4.833   0.366  0.4955  0.2046 -0.4534
 4439SOL    HW117233   9.696   4.890   0.355  0.4991  0.2548 -0.1907
 4439SOL    HW217234   9.552   4.873   0.312  0.6135  0.2385 -0.5787
 4440SOL     OW17235   5.314   1.568   6.829 -0.0416  0.2443 -0.3021
 4440SOL    HW117236   5.405   1.568   6.802 -0.0939 -1.0148 -0.5634
 4440SOL    HW217237   5.265   1.557   6.747 -0.2583 -2.3683  0.0852
 4441SOL     OW17238  10.200   5.213   0.155  0.6012 -0.2424  0.5138
 4441SOL    HW117239  10.109   5.223   0.127  1.2067  2.3833 -0.7539
 4441SOL    HW217240  10.239   5.299   0.142  2.6566 -0.5844  3.4563
 4442SOL     OW17241   5.865   0.504   1.248 -0.1497  0.2389 -0.0443
 4442SOL    HW117242   5.923   0.490   1.173 -1.2370 -1.0661 -0.6937
 4442SOL    HW217243   5.790   0.551   1.212 -0.7649 -0.5599  0.1591
 4443SOL     OW17244   0.595   7.721   6.527  0.1673  0.1635 -0.1096
 4443SOL    HW117245   0.510   7.715   6.572 -1.0851 -0.2182 -2.4119
 4443SOL    HW217246   0.591   7.804   6.479  2.3205  1.6057  1.9386
 4444SOL     OW17247   1.866   5.967   5.930  0.1223 -0.1398 -0.0361
 4444SOL    HW117248   1.854   6.052   5.888  0.7524 -0.0834 -0.1179
 4444SOL    HW217249   1.951   5.936   5.898 -0.2178 -0.9192 -0.2079
 4445SOL     OW17250   2.923   7.307   4.828 -0.7214  0.3327 -0.2888
 4445SOL    HW117251   2.974   7.371   4.879 -0.4469  0.1141 -0.2862
 4445SOL    HW217252   2.910   7.349   4.743  0.7150 -0.1828 -0.8009
 4446SOL     OW17253   3.393   2.604   8.896 -0.0062  0.2744  0.3599
 4446SOL    HW117254   3.472   2.615   8.949 -1.1913  2.0427  1.8910
 4446SOL    HW217255   3.338   2.679   8.919 -1.4522  0.0214 -1.9212
 4447SOL     OW17256   9.910   5.338   6.745  0.0485 -0.1267  0.6309
 4447SOL    HW117257   9.980   5.284   6.779  0.9719  0.5060 -0.2038
 4447SOL    HW217258   9.879   5.292   6.667 -0.3803 -0.3361  0.9193
 4448SOL     OW17259   2.836   1.094   5.639 -0.6058  0.0950 -0.0841
 4448SOL    HW117260   2.874   1.006   5.643 -0.5934  0.1275  1.0569
 4448SOL    HW217261   2.867   1.136   5.719 -1.8377  0.6214  0.1379
 4449SOL     OW17262   4.515   0.883   9.015 -0.3652  0.2579  0.4380
 4449SOL    HW117263   4.601   0.894   8.976 -0.3576  0.3589  0.4842
 4449SOL    HW217264   4.460   0.851   8.943 -0.1648 -0.3218  0.5350
 4450SOL     OW17265   7.728   9.679   8.869  0.0538  0.1724 -0.1109
 4450SOL    HW117266   7.737   9.734   8.947  0.5005 -0.7584  0.5067
 4450SOL    HW217267   7.633   9.667   8.860  0.0439 -1.0551  1.2671
 4451SOL     OW17268   3.678   9.757   3.339 -0.3754 -0.3984 -0.1103
 4451SOL    HW117269   3.645   9.728   3.424 -2.8202  0.4758 -0.6782
 4451SOL    HW217270   3.731   9.834   3.360 -2.1777  0.7323  0.5717
 4452SOL     OW17271   3.658   3.533   4.655 -0.0260  0.4387 -0.6375
 4452SOL    HW117272   3.664   3.629   4.647 -1.0738  0.7140  1.2465
 4452SOL    HW217273   3.576   3.510   4.612  0.5933  0.2803 -1.7481
 4453SOL     OW17274   9.715   8.620   7.448  0.3043  0.3541  0.2295
 4453SOL    HW117275   9.638   8.670   7.422  1.0599  0.3175 -2.3277
 4453SOL    HW217276   9.684   8.563   7.519 -1.6367  1.3554  0.2400
 4454SOL     OW17277   6.416   1.040  10.036  0.5904 -0.1308  0.1166
 4454SOL    HW117278   6.381   1.016  10.122 -0.4112 -1.1419 -0.5456
 4454SOL    HW217279   6.410   1.135  10.033 -3.7121 -0.2320 -0.5360
 4455SOL     OW17280   6.700   4.819   7.685 -0.3115 -0.2811  0.2703
 4455SOL    HW117281   6.695   4.724   7.697 -0.8128 -0.4468 -1.1841
 4455SOL    HW217282   6.744   4.830   7.601 -2.9617  0.6869 -1.0892
 4456SOL     OW17283   8.158   9.528   8.309 -0.1445  0.3446 -0.5338
 4456SOL    HW117284   8.156   9.619   8.338 -0.1392  0.1536  0.0680
 4456SOL    HW217285   8.239   9.522   8.258 -0.3075  0.7545 -0.8442
 4457SOL     OW17286   5.147   4.684   2.179  0.2416  0.3331 -0.0522
 4457SOL    HW117287   5.107   4.705   2.263 -0.7189  1.0598 -0.6576
 4457SOL    HW217288   5.133   4.763   2.126  1.7425  0.2812 -0.5774
 4458SOL     OW17289   4.525   1.445   0.913 -0.8360  0.3861  0.0635
 4458SOL    HW117290   4.527   1.403   0.999 -0.7272  1.7203  0.7368
 4458SOL    HW217291   4.483   1.529   0.929 -1.2556  0.4466 -1.2939
 4459SOL     OW17292   3.447   0.331   2.152 -0.0291  0.3981  0.0577
 4459SOL    HW117293   3.506   0.397   2.115 -0.8790  0.5182 -1.1036
 4459SOL    HW217294   3.361   0.373   2.154 -0.2364 -0.0367  1.0604
 4460SOL     OW17295   7.235   3.774   2.258 -0.1473 -0.0183  0.1126
 4460SOL    HW117296   7.250   3.829   2.182  1.2934  0.2516  0.5573
 4460SOL    HW217297   7.192   3.696   2.224 -1.3311  0.9413 -0.6662
 4461SOL     OW17298   6.726   7.565   6.056 -0.3618  0.0628 -0.2593
 4461SOL    HW117299   6.651   7.609   6.016 -0.3942  0.8064  0.5821
 4461SOL    HW217300   6.772   7.634   6.104 -0.4282 -0.8217  1.1254
 4462SOL     OW17301   1.582   0.436  10.138 -0.2472 -0.8552 -0.1816
 4462SOL    HW117302   1.648   0.367  10.134 -0.2197 -0.8707  0.3850
 4462SOL    HW217303   1.518   0.404  10.202 -0.2414 -0.3681  0.0748
 4463SOL     OW17304   9.641   0.986   7.530 -0.4797  0.2023  0.2079
 4463SOL    HW117305   9.545   0.988   7.531 -0.4933  1.0524 -0.6241
 4463SOL    HW217306   9.664   1.029   7.447  0.6129 -0.3414  0.2195
 4464SOL     OW17307   0.236   3.433   6.828  0.4459  0.0663 -0.5298
 4464SOL    HW117308   0.307   3.424   6.891 -0.2093 -0.9328  0.0905
 4464SOL    HW217309   0.235   3.349   6.781 -2.0255 -1.0677  1.3264
 4465SOL     OW17310   6.602   9.618   9.327 -0.3556 -0.2972  0.1829
 4465SOL    HW117311   6.660   9.603   9.402 -0.7873 -0.4498  0.4977
 4465SOL    HW217312   6.515   9.628   9.366 -0.5009  0.2093 -0.2579
 4466SOL     OW17313   7.477   6.290   6.532  0.2100  0.2227 -0.4166
 4466SOL    HW117314   7.393   6.332   6.517 -0.5110 -0.3068  1.7880
 4466SOL    HW217315   7.538   6.363   6.545 -0.1181  0.5933 -0.9013
 4467SOL     OW17316   2.597   7.100   3.791 -0.4937 -0.4463  0.9442
 4467SOL    HW117317   2.508   7.119   3.820  0.0022  0.8076  1.7613
 4467SOL    HW217318   2.599   7.127   3.699 -0.3209  1.9627  1.5911
 4468SOL     OW17319   2.991   0.301   2.895  0.0101  1.3194 -0.4692
 4468SOL    HW117320   2.899   0.310   2.870 -0.4599 -1.4467 -0.0684
 4468SOL    HW217321   2.992   0.318   2.989 -0.8448 -1.8549  0.2681
 4469SOL     OW17322   0.762   8.053   3.852  0.0544  0.2401 -0.5050
 4469SOL    HW117323   0.736   8.006   3.773  0.6177 -0.1447 -0.4658
 4469SOL    HW217324   0.680   8.090   3.886  0.0252  2.0185 -2.2942
 4470SOL     OW17325   7.566   9.783   3.334 -0.5119 -0.1609  0.0670
 4470SOL    HW117326   7.498   9.850   3.342 -0.6313 -0.2341 -0.2821
 4470SOL    HW217327   7.605   9.799   3.248 -0.2212 -0.2451  0.1834
 4471SOL     OW17328   1.006   5.505   3.209 -0.0055  0.2596  0.3528
 4471SOL    HW117329   1.020   5.591   3.168 -1.7076 -0.4726 -2.0019
 4471SOL    HW217330   0.969   5.524   3.295 -0.3149  1.8959 -0.1147
 4472SOL     OW17331   3.310   4.960   9.495 -0.4719  0.0666  0.3311
 4472SOL    HW117332   3.379   4.991   9.553  1.6675 -1.3427 -1.2941
 4472SOL    HW217333   3.229   4.994   9.533  1.0795  1.7031  2.3896
 4473SOL     OW17334   7.246   0.879   0.203 -0.5264 -0.0026 -1.0299
 4473SOL    HW117335   7.191   0.804   0.181 -0.5219  0.2372 -1.8915
 4473SOL    HW217336   7.332   0.857   0.168 -0.7555  0.7992 -2.1450
 4474SOL     OW17337   3.263   5.174   6.062 -0.4870  0.4519 -0.3507
 4474SOL    HW117338   3.331   5.119   6.023 -0.2411  0.8980 -0.5577
 4474SOL    HW217339   3.215   5.210   5.987 -0.6563  0.5127 -0.2146
 4475SOL     OW17340   5.501   4.548   1.885 -0.3094  0.6089  0.2929
 4475SOL    HW117341   5.445   4.472   1.900 -0.9289  0.7638 -1.0928
 4475SOL    HW217342   5.575   4.514   1.835 -1.2277  1.0928 -1.4869
 4476SOL     OW17343   6.839   4.716   6.446 -0.6196 -0.3068 -0.9045
 4476SOL    HW117344   6.774   4.772   6.488 -0.3972  0.3636 -1.4198
 4476SOL    HW217345   6.829   4.631   6.488 -1.2260  0.0211 -0.3648
 4477SOL     OW17346   7.665   3.379   1.576  0.2180 -0.5671  0.2674
 4477SOL    HW117347   7.653   3.324   1.499 -0.0302  0.5963 -0.5593
 4477SOL    HW217348   7.743   3.431   1.556 -0.3206  0.3257  0.4257
 4478SOL     OW17349   5.029   9.511   9.796  0.2739 -0.4962 -0.0299
 4478SOL    HW117350   5.075   9.569   9.856  1.3892 -1.5987  0.2294
 4478SOL    HW217351   5.076   9.521   9.713 -0.2049 -0.2211 -0.2675
 4479SOL     OW17352   7.080   2.645   1.261 -0.0570  0.5508 -0.2839
 4479SOL    HW117353   6.999   2.625   1.214 -0.2407 -0.5256  0.4428
 4479SOL    HW217354   7.143   2.581   1.227 -0.4315 -0.8641  1.5084
 4480SOL     OW17355   1.843   1.430   4.100 -0.6090  0.1199 -0.3256
 4480SOL    HW117356   1.788   1.366   4.145  2.4146 -2.1019  0.5067
 4480SOL    HW217357   1.843   1.506   4.159 -2.3630  0.0199 -0.1519
 4481SOL     OW17358   1.148   8.740   4.995 -0.2633 -0.1619 -0.5850
 4481SOL    HW117359   1.084   8.794   4.950  0.1710  2.3019  1.5197
 4481SOL    HW217360   1.233   8.776   4.969  0.0676 -0.2387  0.3519
 4482SOL     OW17361   3.002   0.608   3.584 -0.2402 -0.2643 -0.3554
 4482SOL    HW117362   3.014   0.554   3.662 -1.3383 -0.2506 -0.1683
 4482SOL    HW217363   3.061   0.682   3.597 -0.6813 -0.0723  0.6407
 4483SOL     OW17364   1.107   0.392   4.323 -0.2028 -0.1948 -0.3552
 4483SOL    HW117365   1.062   0.471   4.352 -1.2347 -1.2629  1.1491
 4483SOL    HW217366   1.041   0.344   4.273 -0.0587 -0.7635 -0.0122
 4484SOL     OW17367   9.769   7.785   4.563 -0.6330 -0.0909  0.2742
 4484SOL    HW117368   9.694   7.746   4.518 -2.0416  0.5023  1.9870
 4484SOL    HW217369   9.736   7.867   4.598  1.2967  0.9759 -0.2426
 4485SOL     OW17370   6.713   7.514   6.955 -0.0903  0.0738 -0.3793
 4485SOL    HW117371   6.769   7.488   6.882  1.3474  1.6526  0.0673
 4485SOL    HW217372   6.757   7.479   7.033 -1.9765 -2.2035 -0.2214
 4486SOL     OW17373   2.698   1.938   4.971  0.6720 -0.4111 -0.0897
 4486SOL    HW117374   2.667   1.943   5.062 -1.3099  1.2240 -0.7693
 4486SOL    HW217375   2.726   1.848   4.960 -0.0980 -0.9335  1.8482
 4487SOL     OW17376   6.868   3.680   3.201  0.0366 -0.7476  0.4553
 4487SOL    HW117377   6.852   3.705   3.292 -0.4582 -1.4945  0.5787
 4487SOL    HW217378   6.915   3.597   3.207 -0.4878 -1.0821  0.0243
 4488SOL     OW17379   2.471   2.171   2.565  0.3905 -0.5211 -0.6505
 4488SOL    HW117380   2.499   2.148   2.654 -0.4108 -1.8264 -0.7053
 4488SOL    HW217381   2.547   2.214   2.526  0.7964 -0.0383  0.6147
 4489SOL     OW17382   7.046   0.731   0.680  0.2938 -0.1382 -0.5881
 4489SOL    HW117383   7.125   0.751   0.730 -0.2579  0.2747  0.1577
 4489SOL    HW217384   7.075   0.724   0.589  1.5840 -2.3778 -0.0677
 4490SOL     OW17385   3.389   5.801   4.347  0.1821 -0.0123  0.1489
 4490SOL    HW117386   3.427   5.882   4.312 -0.0442  0.7269  1.5355
 4490SOL    HW217387   3.311   5.830   4.396 -0.2016 -1.1243  0.2262
 4491SOL     OW17388   0.739   4.378   7.862  0.3829 -0.3574  0.2372
 4491SOL    HW117389   0.674   4.309   7.875 -0.6429  0.1074 -1.9000
 4491SOL    HW217390   0.713   4.447   7.923  1.3994 -1.7895  2.3664
 4492SOL     OW17391   3.993   6.279   4.626  0.2150  0.2582  0.1513
 4492SOL    HW117392   4.057   6.323   4.681  0.2841  1.2341 -0.6825
 4492SOL    HW217393   3.981   6.337   4.551 -0.5012 -0.6383 -0.4587
 4493SOL     OW17394   7.948   0.146   5.233 -0.0938  0.7107 -0.8409
 4493SOL    HW117395   7.896   0.226   5.236  0.3263  1.1127 -2.6816
 4493SOL    HW217396   7.888   0.081   5.195  0.0671  0.6033 -0.9106
 4494SOL     OW17397   4.671   1.983   5.175 -0.1922 -0.3592 -0.1653
 4494SOL    HW117398   4.727   1.964   5.250  0.3398 -0.4134 -0.5734
 4494SOL    HW217399   4.725   2.039   5.119  0.2238 -2.0703 -1.5508
 4495SOL     OW17400   8.750   9.800   6.898 -0.3913  0.1911  0.6814
 4495SOL    HW117401   8.762   9.735   6.967 -0.0820 -0.9640 -0.4146
 4495SOL    HW217402   8.655   9.805   6.886 -0.4854  0.8757  1.6018
 4496SOL     OW17403   0.402   0.240   3.502 -0.3641 -0.3314  0.2555
 4496SOL    HW117404   0.486   0.283   3.519 -1.2252  1.0283  1.4057
 4496SOL    HW217405   0.352   0.305   3.453 -1.4685 -0.2582  1.4322
 4497SOL     OW17406   3.969   5.819   1.104 -0.1605  0.4935 -0.1332
 4497SOL    HW117407   4.050   5.768   1.117 -0.1357  1.0577  2.6980
 4497SOL    HW217408   3.959   5.824   1.009  2.3032 -0.8814 -0.5738
 4498SOL     OW17409   1.457   9.829   0.274  0.4570 -0.4111  0.3714
 4498SOL    HW117410   1.470   9.858   0.184  3.3028  0.3029  0.9148
 4498SOL    HW217411   1.363   9.811   0.280 -0.1736  1.4856 -2.1186
 4499SOL     OW17412   5.620   1.685   1.495  0.3943 -0.6340  0.5299
 4499SOL    HW117413   5.545   1.687   1.436  1.3539  1.2087 -0.7205
 4499SOL    HW217414   5.687   1.636   1.448  1.0480  0.5543  0.1728
 4500SOL     OW17415   1.632   3.493   7.002  0.3358 -0.2127 -0.4241
 4500SOL    HW117416   1.715   3.528   7.034 -0.5888  2.5038 -0.6703
 4500SOL    HW217417   1.629   3.522   6.910 -0.6551 -0.7539 -0.5720
 4501SOL     OW17418   3.114   8.029   3.774  0.3151 -0.6688 -0.1664
 4501SOL    HW117419   3.182   8.088   3.809  0.3842 -0.2561 -0.9517
 4501SOL    HW217420   3.048   8.024   3.843 -0.4340  1.5638 -0.6367
 4502SOL     OW17421   6.404   4.883   4.531  0.0310  0.9924 -0.3456
 4502SOL    HW117422   6.367   4.811   4.482 -0.7077 -0.2544  1.8959
 4502SOL    HW217423   6.498   4.865   4.534  0.4547  2.2669 -3.0271
 4503SOL     OW17424   3.968   9.432   8.079 -0.3437  0.1676  0.2927
 4503SOL    HW117425   3.961   9.343   8.044  0.5200 -0.2941  1.2171
 4503SOL    HW217426   3.966   9.489   8.002 -0.1658 -0.7031 -0.3760
 4504SOL     OW17427   2.030   9.554   2.063  0.2091 -0.6633  0.1063
 4504SOL    HW117428   2.082   9.556   2.144  0.6638 -2.0059 -0.1229
 4504SOL    HW217429   2.093   9.530   1.995  0.1371  1.7903 -0.9365
 4505SOL     OW17430   4.218   3.650   2.145 -0.1676 -0.2980  0.0169
 4505SOL    HW117431   4.257   3.697   2.071  2.4158 -1.0497  0.7870
 4505SOL    HW217432   4.189   3.567   2.109 -1.8240  0.5336 -0.7031
 4506SOL     OW17433   1.927   8.344   6.937  0.4200 -0.1337  0.2588
 4506SOL    HW117434   1.901   8.347   7.029  1.0694 -2.2926  0.5615
 4506SOL    HW217435   1.887   8.264   6.903  0.0207  0.7275 -1.4121
 4507SOL     OW17436   7.083   2.611   9.297  0.0123 -0.1788  0.0830
 4507SOL    HW117437   6.998   2.593   9.257  0.7521 -1.0625 -1.1827
 4507SOL    HW217438   7.131   2.528   9.289  1.5618  0.7291 -0.7472
 4508SOL     OW17439   4.494   3.088   6.050  0.3943 -0.5333 -0.0095
 4508SOL    HW117440   4.571   3.113   6.000  1.7592  0.8303  2.5415
 4508SOL    HW217441   4.519   3.105   6.141 -2.2347 -1.9654  1.0758
 4509SOL     OW17442   2.369   3.385   2.924  0.1019  0.5826 -0.4692
 4509SOL    HW117443   2.406   3.399   2.837  1.4825  0.5064  0.0832
 4509SOL    HW217444   2.277   3.362   2.907  0.7677 -1.1922 -2.0252
 4510SOL     OW17445   3.717   1.626   5.994 -0.0075 -0.0264 -0.7759
 4510SOL    HW117446   3.736   1.606   5.903  0.9707 -1.9066 -0.1962
 4510SOL    HW217447   3.668   1.550   6.027  2.4255 -0.9153  1.0765
 4511SOL     OW17448   2.750   3.665   6.751 -0.1605  0.0393  0.0930
 4511SOL    HW117449   2.717   3.723   6.819  2.0031  1.4335  0.0219
 4511SOL    HW217450   2.845   3.663   6.764  0.0409 -1.8642 -1.1936
 4512SOL     OW17451   7.493   6.547   6.801  0.2016  0.0528  0.8370
 4512SOL    HW117452   7.483   6.514   6.890 -0.8596  0.1823  0.7768
 4512SOL    HW217453   7.582   6.521   6.775 -0.9176 -3.9141  0.3153
 4513SOL     OW17454   4.155   2.398   9.392 -0.1941 -0.1327  0.4251
 4513SOL    HW117455   4.199   2.383   9.309  1.1621 -1.3875  1.3173
 4513SOL    HW217456   4.171   2.491   9.411 -0.4929  0.1555 -0.6793
 4514SOL     OW17457   5.365   8.955  10.060 -1.0026  0.1654 -0.1874
 4514SOL    HW117458   5.397   9.012   9.989  0.2373  0.9007  0.9191
 4514SOL    HW217459   5.271   8.973  10.063 -0.8240  1.3264 -0.6129
 4515SOL     OW17460   0.091   2.359   9.027 -0.1889  0.0605 -0.5287
 4515SOL    HW117461   0.017   2.333   8.973 -0.7087 -3.0937  1.4210
 4515SOL    HW217462   0.052   2.385   9.110  0.7942 -1.1585  0.3553
 4516SOL     OW17463   1.492   4.867   3.088  0.5648 -0.4268 -0.5011
 4516SOL    HW117464   1.452   4.780   3.091 -0.4499 -0.0115 -1.3438
 4516SOL    HW217465   1.570   4.855   3.035  0.4154 -0.8139 -0.6410
 4517SOL     OW17466   8.499   3.191   8.201  0.4322  0.2644 -0.6388
 4517SOL    HW117467   8.510   3.100   8.228  1.0897  0.1734 -1.1806
 4517SOL    HW217468   8.420   3.220   8.246  0.9857 -0.1536  0.6469
 4518SOL     OW17469   8.039   1.786   1.306  0.4485  0.5825 -0.4666
 4518SOL    HW117470   8.040   1.820   1.395 -0.6967  0.7199 -0.4999
 4518SOL    HW217471   8.038   1.864   1.250 -1.5315  0.5470 -0.5494
 4519SOL     OW17472   8.651   0.280   9.566 -0.8732  0.2941 -0.3890
 4519SOL    HW117473   8.642   0.304   9.659  1.2120 -3.3148  0.9236
 4519SOL    HW217474   8.579   0.218   9.550  1.0917 -2.2926  0.1773
 4520SOL     OW17475   3.032   8.197   1.389  0.2257 -0.0044  0.3106
 4520SOL    HW117476   2.974   8.146   1.446 -0.3411  1.4473  1.1004
 4520SOL    HW217477   2.985   8.280   1.376  0.3543 -0.2568 -2.2776
 4521SOL     OW17478   5.686   9.005   9.912  0.0916 -0.0661 -0.1929
 4521SOL    HW117479   5.724   8.999   9.824 -0.4691  1.1793 -0.5438
 4521SOL    HW217480   5.729   8.935   9.962 -1.2578 -2.3679 -2.0520
 4522SOL     OW17481   9.105   3.268   9.998 -0.3100 -0.6480 -0.9368
 4522SOL    HW117482   9.030   3.251   9.942 -0.2147  0.8172 -1.5650
 4522SOL    HW217483   9.169   3.201   9.974  0.3648  0.8709 -3.8513
 4523SOL     OW17484   1.060   8.174   9.545  0.2461 -0.3025 -0.0997
 4523SOL    HW117485   1.147   8.190   9.511  1.9635  0.3782  3.9762
 4523SOL    HW217486   1.015   8.259   9.536  0.5218 -0.2272 -0.8465
 4524SOL     OW17487   8.410   4.457   0.692 -0.2975 -0.5889 -0.5984
 4524SOL    HW117488   8.456   4.374   0.695 -1.5605 -1.3501 -1.4653
 4524SOL    HW217489   8.318   4.435   0.708 -0.6513  0.6355 -0.7708
 4525SOL     OW17490   4.025   1.119   2.924 -0.6446  0.0666  0.5322
 4525SOL    HW117491   3.976   1.147   2.847 -1.7622  0.6421  1.4353
 4525SOL    HW217492   3.960   1.073   2.978  0.4511 -1.6635  0.4785
 4526SOL     OW17493   7.994   4.452   3.795 -1.0178  0.0185 -0.1560
 4526SOL    HW117494   8.071   4.486   3.842 -1.3936  0.8611 -0.1425
 4526SOL    HW217495   7.978   4.515   3.725 -1.9479  0.0780  0.0939
 4527SOL     OW17496   5.271   3.566   1.053  0.2954  0.5093 -0.1101
 4527SOL    HW117497   5.233   3.621   1.121  2.1449  0.9715  0.6029
 4527SOL    HW217498   5.335   3.511   1.099  0.4868 -0.2718 -1.2468
 4528SOL     OW17499   9.605   0.602   0.759  0.4589  0.0012  0.2774
 4528SOL    HW117500   9.630   0.682   0.714  1.1924 -0.4935 -0.2137
 4528SOL    HW217501   9.583   0.630   0.848 -0.7976  0.9512 -0.3218
 4529SOL     OW17502   4.587   7.892   3.178  0.1825  0.3912 -0.1692
 4529SOL    HW117503   4.575   7.829   3.107 -2.0697  0.8783 -0.3027
 4529SOL    HW217504   4.609   7.838   3.254  0.1217 -0.3789 -0.6910
 4530SOL     OW17505   2.709   1.471   6.126  0.1158  0.2564  0.0247
 4530SOL    HW117506   2.754   1.540   6.175 -0.4525  0.7320 -0.1036
 4530SOL    HW217507   2.673   1.413   6.193  1.9973 -0.8801  0.1292
 4531SOL     OW17508   8.832   7.862   2.624  0.4951 -0.4871 -0.2882
 4531SOL    HW117509   8.781   7.941   2.605  1.0794  0.1784  0.8002
 4531SOL    HW217510   8.771   7.790   2.606 -0.8636  0.2806  0.9365
 4532SOL     OW17511   4.933   4.447   5.963 -0.4627  0.1615  0.3335
 4532SOL    HW117512   4.932   4.358   5.999 -3.5577  0.1398  0.4669
 4532SOL    HW217513   4.850   4.485   5.991  0.2026  2.6678 -0.8298
 4533SOL     OW17514   8.424   1.943   6.638 -0.3797 -0.7483  0.8872
 4533SOL    HW117515   8.347   1.910   6.684 -0.1753 -0.6337  1.3135
 4533SOL    HW217516   8.492   1.878   6.656 -0.7544 -1.6418 -0.7118
 4534SOL     OW17517   5.836   9.676   6.023  0.1085  0.1732 -0.3227
 4534SOL    HW117518   5.923   9.644   6.048 -0.4948 -0.0502  1.6842
 4534SOL    HW217519   5.848   9.770   6.012  0.5449  0.2154  0.4139
 4535SOL     OW17520   2.934   5.909   3.865 -0.3772 -0.0347  0.3152
 4535SOL    HW117521   3.017   5.885   3.824 -0.5340 -0.0133 -0.0134
 4535SOL    HW217522   2.933   5.859   3.947  0.5665  0.9886  0.9691
 4536SOL     OW17523   8.520   8.473   5.663  0.0614 -0.2893  0.2756
 4536SOL    HW117524   8.615   8.472   5.672  0.1524  1.4515 -0.1381
 4536SOL    HW217525   8.488   8.418   5.734  1.4319 -3.1543 -1.1643
 4537SOL     OW17526   4.306   3.964   2.270  0.3265 -0.5920  0.6213
 4537SOL    HW117527   4.241   3.930   2.331  0.3631 -1.1089  0.3798
 4537SOL    HW217528   4.309   3.899   2.199 -0.9007  0.7769 -0.7666
 4538SOL     OW17529   3.367   5.069   8.159  0.1756  0.2355  0.2238
 4538SOL    HW117530   3.437   5.010   8.187  1.0499  0.7883 -0.7366
 4538SOL    HW217531   3.286   5.022   8.179  0.8249 -0.6023  0.9374
 4539SOL     OW17532   5.148   8.709   5.450 -0.2076  0.3203  0.4318
 4539SOL    HW117533   5.082   8.656   5.494  0.5110  0.0213  1.1799
 4539SOL    HW217534   5.107   8.735   5.368 -1.8473  1.4733  1.5548
 4540SOL     OW17535   5.244   0.163   2.446 -0.2021 -0.6638 -0.2616
 4540SOL    HW117536   5.337   0.179   2.463  0.4349 -1.3228 -2.6228
 4540SOL    HW217537   5.210   0.126   2.527  0.8710  2.1418  1.6320
 4541SOL     OW17538   9.484   1.643   8.875  0.0023  0.2983 -0.0740
 4541SOL    HW117539   9.536   1.724   8.877 -1.5431  1.3076  1.2519
 4541SOL    HW217540   9.398   1.671   8.842 -0.5021 -0.8291  0.2530
 4542SOL     OW17541   7.765   5.611   1.947  0.1594  0.6165 -0.1465
 4542SOL    HW117542   7.837   5.628   1.886 -1.0069  1.0682 -1.4481
 4542SOL    HW217543   7.808   5.596   2.032  1.7553  1.1287 -0.8328
 4543SOL     OW17544   4.630   2.758   5.259 -0.4970 -0.2252 -0.0901
 4543SOL    HW117545   4.598   2.738   5.172  0.7308 -1.3959 -0.2921
 4543SOL    HW217546   4.638   2.673   5.303  2.4001 -0.0689 -0.1119
 4544SOL     OW17547   5.699   8.304   9.306 -0.1525 -0.0613 -0.0438
 4544SOL    HW117548   5.610   8.339   9.301  0.3226  1.4120  1.1524
 4544SOL    HW217549   5.746   8.347   9.235 -0.4585 -1.1472 -0.9357
 4545SOL     OW17550   2.856   5.509   6.486 -0.2384 -0.0915  0.2831
 4545SOL    HW117551   2.920   5.494   6.417 -0.9111 -0.0055 -0.3775
 4545SOL    HW217552   2.772   5.490   6.445 -0.6770  0.2710  0.9915
 4546SOL     OW17553   0.751   3.446   2.883  0.1809  0.0567 -0.1585
 4546SOL    HW117554   0.786   3.531   2.857  0.0830 -0.2034 -1.1660
 4546SOL    HW217555   0.684   3.467   2.949 -0.6452  0.8439 -1.2231
 4547SOL     OW17556   7.980   2.028   9.268 -1.1481  0.8046  0.4174
 4547SOL    HW117557   8.011   1.981   9.191  0.7531  1.3476  0.8044
 4547SOL    HW217558   7.930   1.962   9.317  0.2017 -0.4217  0.2151
 4548SOL     OW17559   5.537   9.435   8.872  0.3419  0.3572 -0.0148
 4548SOL    HW117560   5.498   9.347   8.875  1.0735  0.0384  0.5154
 4548SOL    HW217561   5.610   9.425   8.811 -0.4738  0.9907 -1.1336
 4549SOL     OW17562   3.397   3.389   0.720  0.4849 -0.1187  0.2683
 4549SOL    HW117563   3.430   3.365   0.806  1.1025  0.1660  0.1167
 4549SOL    HW217564   3.473   3.384   0.663 -0.1830 -1.6869 -0.5588
 4550SOL     OW17565   0.470   9.824   7.503 -0.3768  0.0644  0.4627
 4550SOL    HW117566   0.437   9.912   7.522 -3.0084 -1.1122  2.0560
 4550SOL    HW217567   0.536   9.808   7.571  1.2810  1.3055 -0.7860
 4551SOL     OW17568   6.794   7.502   9.678  0.1637 -0.4983  0.3560
 4551SOL    HW117569   6.769   7.423   9.727  3.6101 -1.3773  0.9728
 4551SOL    HW217570   6.740   7.499   9.599 -1.8780 -1.8215  1.6738
 4552SOL     OW17571   2.386   0.619   5.525  0.2010 -0.0545 -0.2449
 4552SOL    HW117572   2.471   0.581   5.549  0.8108  1.4098  0.0347
 4552SOL    HW217573   2.366   0.581   5.440  1.0207 -0.5963 -0.2129
 4553SOL     OW17574   4.194   7.210   8.023  0.3808  0.8040  0.1747
 4553SOL    HW117575   4.159   7.295   8.049 -0.7527  0.9530 -1.6654
 4553SOL    HW217576   4.175   7.153   8.097  1.3279  2.1517  1.5354
 4554SOL     OW17577   0.303   8.714   8.219  0.7872 -0.1650 -1.3990
 4554SOL    HW117578   0.379   8.695   8.163 -0.0766 -1.3875 -2.2101
 4554SOL    HW217579   0.229   8.711   8.159 -0.4237 -3.3507  0.0101
 4555SOL     OW17580   0.404   7.287   8.468  0.0959 -0.2725 -0.2533
 4555SOL    HW117581   0.347   7.211   8.469  0.3306 -0.5192  2.7761
 4555SOL    HW217582   0.492   7.252   8.485  0.6505  0.4362 -1.5107
 4556SOL     OW17583   0.665   5.381   7.480  0.2693  0.2065 -0.0931
 4556SOL    HW117584   0.631   5.293   7.501 -0.7562  0.5594 -0.2120
 4556SOL    HW217585   0.759   5.374   7.494  0.0357 -0.5135  1.3566
 4557SOL     OW17586   6.885   5.789   1.813  0.1453 -0.1577  0.7583
 4557SOL    HW117587   6.932   5.857   1.861  1.2687  1.7225 -2.6384
 4557SOL    HW217588   6.938   5.710   1.826  1.7349  0.8577  0.7009
 4558SOL     OW17589   6.077   2.804   0.640  0.0643  0.0403  0.4259
 4558SOL    HW117590   6.165   2.836   0.658  0.1088  0.7092 -0.8788
 4558SOL    HW217591   6.020   2.879   0.655 -0.1420 -0.0423  0.0825
 4559SOL     OW17592   5.229   6.276   0.394 -0.2892  0.4027 -0.1751
 4559SOL    HW117593   5.315   6.248   0.363 -1.0866 -1.0967 -1.1506
 4559SOL    HW217594   5.230   6.372   0.384  1.6839  0.5529  1.0102
 4560SOL     OW17595   9.152   5.390   3.043  0.1645 -0.7751  0.2694
 4560SOL    HW117596   9.108   5.471   3.069 -0.4538 -1.2089  0.5922
 4560SOL    HW217597   9.114   5.370   2.957 -0.1634 -1.0729  0.4840
 4561SOL     OW17598   1.343   4.775   1.006  0.1513  0.6296 -0.2626
 4561SOL    HW117599   1.321   4.812   0.920 -0.7275  0.2044 -0.2285
 4561SOL    HW217600   1.410   4.709   0.986 -1.4162 -0.8265 -0.8911
 4562SOL     OW17601   0.138   9.211   8.976  0.2790 -0.4412 -0.4285
 4562SOL    HW117602   0.043   9.225   8.984  0.3465  0.3661 -0.9019
 4562SOL    HW217603   0.177   9.289   9.015  0.7734 -1.0533  0.3242
 4563SOL     OW17604   6.968   1.865   8.537  0.4566  0.0777 -0.1900
 4563SOL    HW117605   6.876   1.881   8.559  0.2482 -0.4682 -0.6200
 4563SOL    HW217606   6.974   1.770   8.530  1.5146 -0.0523  1.7510
 4564SOL     OW17607   9.446   8.477   0.407  0.1816 -0.0695  0.7568
 4564SOL    HW117608   9.472   8.497   0.497  2.3675 -1.2783  0.4596
 4564SOL    HW217609   9.387   8.402   0.416 -1.2467  1.0705  1.2781
 4565SOL     OW17610   1.021   0.593   0.870 -0.4343  0.4070  0.0188
 4565SOL    HW117611   0.987   0.681   0.856 -2.1242 -0.4030 -1.4292
 4565SOL    HW217612   1.064   0.597   0.955 -2.0739  2.1717  0.8393
 4566SOL     OW17613   1.478   7.274   8.124  0.2568  0.0970 -0.7313
 4566SOL    HW117614   1.507   7.220   8.197 -0.0033  0.7107 -0.1654
 4566SOL    HW217615   1.445   7.211   8.059  0.4729 -0.4476 -0.3180
 4567SOL     OW17616   5.069   0.696   0.879  0.5626 -0.1150 -0.1822
 4567SOL    HW117617   5.003   0.692   0.948  1.3465  1.5999  0.7309
 4567SOL    HW217618   5.032   0.644   0.808 -1.4902  0.2568  0.5281
 4568SOL     OW17619   5.798   1.343   5.805 -0.0899  0.1213  0.5986
 4568SOL    HW117620   5.874   1.368   5.857  1.6602 -0.2238 -1.6020
 4568SOL    HW217621   5.833   1.329   5.717 -2.2960 -2.4265 -0.0143
 4569SOL     OW17622   3.482   4.632   5.696  0.0828 -0.1733  0.2740
 4569SOL    HW117623   3.457   4.714   5.654  0.3379 -0.7743 -1.1023
 4569SOL    HW217624   3.408   4.611   5.753 -0.0368  0.9294  0.5521
 4570SOL     OW17625   5.885   3.611   6.000  0.9907 -0.5610  0.3469
 4570SOL    HW117626   5.808   3.561   6.028  0.1746 -0.5957 -1.7998
 4570SOL    HW217627   5.949   3.544   5.977  0.6641 -0.5988 -0.4801
 4571SOL     OW17628   0.920   0.190   3.863 -0.3692  0.5060 -0.1278
 4571SOL    HW117629   0.973   0.138   3.803  0.9770  0.9523  0.6456
 4571SOL    HW217630   0.872   0.125   3.915 -1.0916  0.1116 -1.2403
 4572SOL     OW17631   0.984   9.578   4.085  0.3167 -0.1525  0.6486
 4572SOL    HW117632   0.963   9.669   4.063 -0.8790 -0.2259  1.3820
 4572SOL    HW217633   1.058   9.556   4.028 -0.6958  0.6023 -1.0463
 4573SOL     OW17634   3.467   2.041   3.057 -0.3803 -0.4791 -0.0545
 4573SOL    HW117635   3.438   2.050   3.147 -0.8166 -0.9681 -0.1393
 4573SOL    HW217636   3.408   2.096   3.006  0.1388  0.1398  0.0032
 4574SOL     OW17637   6.685   1.152   7.567  0.2903 -0.0109  0.2570
 4574SOL    HW117638   6.769   1.179   7.531  1.1508 -0.8808  1.5401
 4574SOL    HW217639   6.698   1.061   7.594 -0.5249  0.3676  2.0557
 4575SOL     OW17640   9.590   8.647   8.041  0.5326 -0.4444 -0.2665
 4575SOL    HW117641   9.547   8.732   8.025 -0.3955 -1.2008 -2.1977
 4575SOL    HW217642   9.538   8.606   8.110  1.0919  0.5932  0.8081
 4576SOL     OW17643   3.953   0.151   3.215 -0.0066  0.1875 -0.4020
 4576SOL    HW117644   3.915   0.171   3.301 -1.1552  0.0408 -0.8590
 4576SOL    HW217645   3.957   0.235   3.170  2.5293  0.6534  0.4783
 4577SOL     OW17646   3.550   8.204   3.713  0.6140  0.2161 -0.4245
 4577SOL    HW117647   3.492   8.129   3.728 -0.2601  1.1510  1.1166
 4577SOL    HW217648   3.628   8.184   3.765  0.6283  0.1279 -0.4786
 4578SOL     OW17649   6.345   5.944   0.535 -0.0338  0.2335 -0.2186
 4578SOL    HW117650   6.280   5.987   0.591 -0.3368  0.2378 -0.5707
 4578SOL    HW217651   6.345   5.853   0.565  0.5592  0.4557  0.4819
 4579SOL     OW17652   3.667   9.071   5.645  0.6896  0.1372 -0.1246
 4579SOL    HW117653   3.681   9.164   5.630 -1.1650  0.4940  0.0756
 4579SOL    HW217654   3.663   9.062   5.740  1.7515 -0.3234 -0.1078
 4580SOL     OW17655   7.398   7.801   0.489  0.3027  0.3740  0.1411
 4580SOL    HW117656   7.374   7.841   0.573 -0.1130 -0.5914  0.5019
 4580SOL    HW217657   7.491   7.817   0.480  0.6033 -0.5115  1.3758
 4581SOL     OW17658   2.630   3.472   5.500  0.1259  0.0161  0.1909
 4581SOL    HW117659   2.541   3.504   5.510 -1.0941 -2.7674 -0.8466
 4581SOL    HW217660   2.682   3.526   5.560 -2.2628  1.4983  1.0508
 4582SOL     OW17661   9.480   7.420   1.345 -0.3342  0.2409 -0.1254
 4582SOL    HW117662   9.398   7.469   1.348 -1.0124 -0.8748  0.5243
 4582SOL    HW217663   9.489   7.395   1.253 -0.1217  1.3103 -0.4091
 4583SOL     OW17664   8.971   0.995   1.560  0.1610  0.3099 -0.1383
 4583SOL    HW117665   8.963   0.962   1.470  0.0499  0.0018 -0.0162
 4583SOL    HW217666   8.963   0.917   1.615 -0.8409  0.6368  0.1935
 4584SOL     OW17667   4.766   0.465   2.675  0.1067  0.5824 -0.1042
 4584SOL    HW117668   4.851   0.444   2.638 -0.1174  0.8180 -0.7553
 4584SOL    HW217669   4.702   0.422   2.618 -0.2119  0.1828  0.5277
 4585SOL     OW17670   6.996   5.498   0.397  0.9486 -0.3418 -0.6151
 4585SOL    HW117671   6.932   5.529   0.461  0.1009 -1.4825 -0.8673
 4585SOL    HW217672   7.068   5.464   0.449  0.6590 -0.4523 -0.2795
 4586SOL     OW17673   3.437   1.453   0.316 -0.2326 -0.0463 -0.0117
 4586SOL    HW117674   3.368   1.403   0.358 -0.4465 -0.8967 -1.3018
 4586SOL    HW217675   3.391   1.505   0.249  0.2216  0.3982  0.0125
 4587SOL     OW17676  10.103   9.592   2.180 -0.0183  1.0066 -0.0202
 4587SOL    HW117677  10.077   9.514   2.130  0.8055  0.4957  0.3331
 4587SOL    HW217678  10.022   9.644   2.186  0.2260  2.1725 -3.7201
 4588SOL     OW17679   6.429   1.657   9.246  0.0941 -0.1396 -0.3191
 4588SOL    HW117680   6.502   1.596   9.251 -0.7668 -1.1515  0.4519
 4588SOL    HW217681   6.415   1.669   9.152  2.0765  1.1463 -0.5063
 4589SOL     OW17682   8.599   9.225   2.940 -0.3337 -0.4593 -0.2886
 4589SOL    HW117683   8.538   9.240   2.868  0.0953 -1.5181 -0.8985
 4589SOL    HW217684   8.680   9.197   2.898 -0.3342 -1.9238  0.6078
 4590SOL     OW17685   4.761   5.011   7.165 -0.4198 -0.0825 -0.4749
 4590SOL    HW117686   4.732   4.925   7.195 -1.7740  0.5950  0.2589
 4590SOL    HW217687   4.684   5.068   7.175  0.4061  1.2019 -1.0322
 4591SOL     OW17688   2.284   3.643   6.285  0.1061 -0.3795 -0.1465
 4591SOL    HW117689   2.374   3.675   6.282 -0.2532  0.6337 -1.0507
 4591SOL    HW217690   2.286   3.562   6.234  0.2769  0.2998 -1.2469
 4592SOL     OW17691   6.605   6.544   2.879  0.3891  0.7040 -0.1917
 4592SOL    HW117692   6.641   6.495   2.806  2.6454 -0.0587  1.3376
 4592SOL    HW217693   6.542   6.484   2.920 -0.1085  0.7533 -0.8685
 4593SOL     OW17694   1.909   5.922   7.099 -0.5838  0.2379 -0.1269
 4593SOL    HW117695   1.838   5.859   7.089  0.3335 -1.2516  1.9704
 4593SOL    HW217696   1.987   5.875   7.071  0.1677  0.2149  1.8167
 4594SOL     OW17697   4.807   1.534   0.333 -0.2031  0.7066 -1.0756
 4594SOL    HW117698   4.803   1.595   0.259  1.1086  0.4895 -1.3379
 4594SOL    HW217699   4.723   1.487   0.330 -1.0335  2.1278 -1.1637
 4595SOL     OW17700   0.725   9.589   5.735  0.0946 -0.1040  0.5763
 4595SOL    HW117701   0.741   9.541   5.653  0.4617  1.1421 -0.1095
 4595SOL    HW217702   0.808   9.633   5.753 -0.7857  1.8569  0.0933
 4596SOL     OW17703   1.278   9.819   3.647 -0.1731 -0.2691  0.2508
 4596SOL    HW117704   1.186   9.797   3.661  0.2295 -1.5699  1.0863
 4596SOL    HW217705   1.289   9.812   3.552 -0.3971 -2.6431  0.3271
 4597SOL     OW17706   3.393   8.791   0.894  0.0438  0.2590 -0.3791
 4597SOL    HW117707   3.439   8.712   0.868  0.5986  0.1478  0.8362
 4597SOL    HW217708   3.431   8.813   0.980 -2.9684 -0.5211  1.2991
 4598SOL     OW17709   5.395   7.795   7.227  0.1185  0.1501 -0.4373
 4598SOL    HW117710   5.364   7.789   7.137  0.2599  0.7949 -0.5370
 4598SOL    HW217711   5.409   7.704   7.254  0.0699 -0.0475 -1.0632
 4599SOL     OW17712   6.914   7.180   4.675  0.0857 -0.0065 -0.2640
 4599SOL    HW117713   6.915   7.276   4.682 -0.5421 -0.0202  0.1851
 4599SOL    HW217714   6.990   7.151   4.725 -0.3115  0.2211  0.4856
 4600SOL     OW17715   9.927   1.008   0.631  0.0972 -0.0283  0.1995
 4600SOL    HW117716  10.011   1.055   0.630  0.2702 -0.3392 -0.5254
 4600SOL    HW217717   9.930   0.957   0.713 -0.4174  1.7434  1.3741
 4601SOL     OW17718   4.522   8.483   8.668  0.9172  0.3608 -0.0521
 4601SOL    HW117719   4.556   8.512   8.583  0.4314  3.9213  0.8179
 4601SOL    HW217720   4.432   8.458   8.651  0.6535  1.5915 -0.5071
 4602SOL     OW17721   0.615   6.410   0.903 -0.0051  0.5168 -0.1461
 4602SOL    HW117722   0.582   6.499   0.916 -0.2103  0.8030 -2.2735
 4602SOL    HW217723   0.541   6.363   0.864  0.7330 -0.0050 -0.9518
 4603SOL     OW17724   3.252   1.653   2.037 -0.4545 -0.1317  0.5864
 4603SOL    HW117725   3.279   1.741   2.008  2.0888 -0.6240  1.2096
 4603SOL    HW217726   3.163   1.665   2.071  0.5390  2.6816  2.5925
 4604SOL     OW17727   0.653   0.583   4.636  0.0219 -0.0281 -0.6152
 4604SOL    HW117728   0.574   0.606   4.586 -0.2342 -1.2228 -0.7759
 4604SOL    HW217729   0.624   0.516   4.697  0.2198  1.6893  1.5061
 4605SOL     OW17730   7.333   7.350   0.400  0.4052  0.3692  0.3628
 4605SOL    HW117731   7.273   7.314   0.335 -1.6695 -1.1669  2.9164
 4605SOL    HW217732   7.383   7.274   0.431  1.3349  1.0608  0.6039
 4606SOL     OW17733  10.167   6.506   4.194  0.1061 -0.3416 -0.0817
 4606SOL    HW117734  10.129   6.419   4.205 -0.0377 -0.6922 -2.5811
 4606SOL    HW217735  10.218   6.499   4.112  2.0820  1.2794  0.9168
 4607SOL     OW17736   0.878   7.168   5.085  0.0960 -0.4701 -0.0095
 4607SOL    HW117737   0.925   7.130   5.159 -0.4172  1.9332  1.7183
 4607SOL    HW217738   0.858   7.258   5.114 -1.1272  0.2080 -2.6505
 4608SOL     OW17739   3.737   5.734   9.194  0.3356 -0.6145  0.4912
 4608SOL    HW117740   3.689   5.762   9.116  1.9225  0.1208 -0.2548
 4608SOL    HW217741   3.733   5.810   9.252  1.0603 -0.3461  0.1951
 4609SOL     OW17742   5.299   5.715   1.121 -0.0196 -0.0688  0.0841
 4609SOL    HW117743   5.361   5.649   1.089 -0.2477  0.0113 -0.5437
 4609SOL    HW217744   5.217   5.667   1.134 -0.7251  0.4002 -2.1686
 4610SOL     OW17745   2.403   4.551   7.109  0.5065 -0.4994 -0.8795
 4610SOL    HW117746   2.311   4.530   7.129  0.4810 -0.8711 -1.3653
 4610SOL    HW217747   2.430   4.610   7.179  0.0928 -0.9088 -0.3649
 4611SOL     OW17748   4.737   2.321   9.705 -0.7513 -0.3601 -0.3372
 4611SOL    HW117749   4.825   2.347   9.731 -1.5450  2.1040  0.1718
 4611SOL    HW217750   4.727   2.232   9.739  1.0803 -0.2018  0.7235
 4612SOL     OW17751   1.837   1.999   6.724 -0.1502 -0.3534  0.0034
 4612SOL    HW117752   1.745   1.999   6.698 -0.6824  1.1859  1.7388
 4612SOL    HW217753   1.843   1.931   6.791 -0.1994  0.0927  0.4603
 4613SOL     OW17754   1.631   3.289   1.773  0.7071 -0.9300 -0.1242
 4613SOL    HW117755   1.679   3.328   1.701  0.5022 -2.1299 -0.9434
 4613SOL    HW217756   1.620   3.360   1.836 -0.8436  0.7141 -2.1095
 4614SOL     OW17757   9.550   4.186   5.041 -0.4061 -0.3851  0.0374
 4614SOL    HW117758   9.460   4.204   5.014  0.1704  1.2176 -0.9532
 4614SOL    HW217759   9.603   4.202   4.963  0.8017 -0.7653  0.7395
 4615SOL     OW17760   5.125   2.283   0.420  0.1788  0.0949 -0.3030
 4615SOL    HW117761   5.105   2.283   0.514  2.8559  0.6454  0.3492
 4615SOL    HW217762   5.122   2.191   0.395 -1.5273  0.0296  0.0692
 4616SOL     OW17763   8.640   2.022   6.888 -0.0724  0.0414 -0.2971
 4616SOL    HW117764   8.696   1.989   6.818 -1.4556 -1.6796 -0.6676
 4616SOL    HW217765   8.577   1.952   6.904 -1.5673  1.5199  0.7134
 4617SOL     OW17766   4.618   2.411   4.467 -0.1762 -0.4328  0.0026
 4617SOL    HW117767   4.548   2.454   4.419 -0.9358  1.0715  2.2958
 4617SOL    HW217768   4.586   2.323   4.482 -0.0638 -0.8355 -1.8570
 4618SOL     OW17769   1.965   4.444   0.902  0.4872  0.0471 -0.1629
 4618SOL    HW117770   1.888   4.434   0.958 -0.5282 -0.2121 -1.5510
 4618SOL    HW217771   2.039   4.431   0.961 -0.5491 -1.0452  0.9570
 4619SOL     OW17772   2.226   0.104   9.800 -0.0559  0.3526 -0.1523
 4619SOL    HW117773   2.135   0.093   9.771  0.2639  0.3715 -1.2075
 4619SOL    HW217774   2.261   0.015   9.803 -0.8147  0.0490  2.8017
 4620SOL     OW17775   4.679   9.784   3.687 -0.1460  0.9240  0.4221
 4620SOL    HW117776   4.732   9.854   3.725  1.7895  1.8016 -3.4163
 4620SOL    HW217777   4.620   9.830   3.626 -0.4251 -0.5876 -0.4911
 4621SOL     OW17778   7.301   1.876   6.120  0.3884  0.1533 -0.1838
 4621SOL    HW117779   7.386   1.909   6.090  2.6857 -2.4627  2.7036
 4621SOL    HW217780   7.264   1.833   6.043  2.5237 -0.0731 -1.1759
 4622SOL     OW17781   9.521   3.344   2.122 -0.4557  0.2573  0.3784
 4622SOL    HW117782   9.566   3.424   2.095  0.6134 -1.1202 -2.2848
 4622SOL    HW217783   9.560   3.321   2.207  1.0270  1.2145 -0.0127
 4623SOL     OW17784   8.393   4.108   0.460  0.5351 -0.6369 -0.5875
 4623SOL    HW117785   8.401   4.055   0.539  0.7709 -0.5969 -0.5835
 4623SOL    HW217786   8.435   4.056   0.391  0.3494 -0.6625 -0.6815
 4624SOL     OW17787   0.475   7.793   5.280 -0.2094  0.4755  0.0808
 4624SOL    HW117788   0.408   7.727   5.298  2.1103 -1.4540  2.3807
 4624SOL    HW217789   0.468   7.855   5.352  0.7948 -0.0601  0.6601
 4625SOL     OW17790   0.449   5.923   8.950 -0.3744 -0.5229  0.4841
 4625SOL    HW117791   0.457   5.904   8.857 -1.1496  0.4487  0.2052
 4625SOL    HW217792   0.442   6.019   8.955 -3.6970 -0.6808  1.2458
 4626SOL     OW17793   0.574   0.325   4.107 -0.1624  0.0082 -0.0654
 4626SOL    HW117794   0.599   0.397   4.165  0.2873 -0.6345  0.5678
 4626SOL    HW217795   0.568   0.249   4.165 -1.8410 -0.2300 -0.5141
 4627SOL     OW17796   4.600   0.454   3.437  0.0274  0.0509 -0.0552
 4627SOL    HW117797   4.634   0.475   3.350  2.1287 -1.1888  0.3874
 4627SOL    HW217798   4.621   0.530   3.490  1.3745 -0.3335 -0.0048
 4628SOL     OW17799   8.818   7.228   7.775 -0.3021  0.2010 -0.3239
 4628SOL    HW117800   8.747   7.190   7.826  0.3260  1.4848  1.6263
 4628SOL    HW217801   8.781   7.307   7.735 -0.0026  0.9512  0.8118
 4629SOL     OW17802   2.340   1.589   6.754  0.3496  0.6431  0.2159
 4629SOL    HW117803   2.291   1.512   6.726 -0.7425  0.4971  2.3921
 4629SOL    HW217804   2.412   1.554   6.807  0.9772  1.0367 -0.3583
 4630SOL     OW17805   3.243   0.541   6.172 -0.3841 -0.3202  0.2806
 4630SOL    HW117806   3.190   0.590   6.235 -0.4940 -0.3088  0.1780
 4630SOL    HW217807   3.224   0.449   6.192  0.7150 -0.3660  1.2629
 4631SOL     OW17808   6.889   5.843   3.411 -0.8915 -0.7500  0.3743
 4631SOL    HW117809   6.866   5.840   3.318 -1.1488  0.0475  0.4012
 4631SOL    HW217810   6.804   5.854   3.455 -0.8762 -2.0919  0.7774
 4632SOL     OW17811   0.748   7.699   3.545  0.3289 -0.1042  0.2446
 4632SOL    HW117812   0.720   7.609   3.556  0.6589 -0.5150 -1.8084
 4632SOL    HW217813   0.830   7.705   3.594  0.9645 -1.3123 -0.6021
 4633SOL     OW17814   3.439   2.995   6.479 -0.0983  0.1737 -0.1126
 4633SOL    HW117815   3.367   2.970   6.538 -0.4127  0.5154 -0.3439
 4633SOL    HW217816   3.436   3.091   6.478 -0.4537  0.1619 -1.1190
 4634SOL     OW17817   0.492   6.198   3.774  0.2996  0.6614 -0.5026
 4634SOL    HW117818   0.440   6.203   3.855  0.9403  1.6485 -0.1303
 4634SOL    HW217819   0.559   6.266   3.785  0.5826  0.5956 -1.7394
 4635SOL     OW17820   9.434   3.419   2.926 -0.0296 -0.4974 -0.3991
 4635SOL    HW117821   9.476   3.403   2.841  1.0656  0.0744  0.0146
 4635SOL    HW217822   9.467   3.349   2.982 -1.1846 -1.2054 -0.5578
 4636SOL     OW17823  10.049   4.493   6.627 -0.5635  0.2324 -0.1535
 4636SOL    HW117824  10.038   4.450   6.542  3.0006 -0.1372 -0.6116
 4636SOL    HW217825  10.143   4.487   6.644 -0.8081  2.4340  2.7189
 4637SOL     OW17826   4.788   5.174   5.603  0.0821 -0.5495  0.5888
 4637SOL    HW117827   4.780   5.079   5.612 -2.3234 -0.2341  2.9191
 4637SOL    HW217828   4.703   5.208   5.630  1.4729  2.3869  1.6545
 4638SOL     OW17829   1.619   0.409   9.109  0.3890  0.0163 -0.1388
 4638SOL    HW117830   1.592   0.329   9.064 -0.1240  0.1790 -0.1342
 4638SOL    HW217831   1.614   0.387   9.202 -1.6675  0.6024 -0.0485
 4639SOL     OW17832   2.831   4.754   6.340 -0.2235 -0.2304  0.3218
 4639SOL    HW117833   2.791   4.688   6.284  1.1689 -1.2683  0.4898
 4639SOL    HW217834   2.761   4.783   6.398 -0.9246 -1.3772  0.0716
 4640SOL     OW17835   4.934   8.880   3.561 -0.1705 -0.1533  0.3487
 4640SOL    HW117836   4.845   8.872   3.594  0.2136 -0.0626  1.4209
 4640SOL    HW217837   4.925   8.870   3.466 -1.6010  2.1084  0.1925
 4641SOL     OW17838   5.092   4.563   7.348 -0.0803 -0.3317 -0.1142
 4641SOL    HW117839   5.093   4.579   7.254 -0.3463  0.7244  0.0552
 4641SOL    HW217840   5.176   4.596   7.379 -0.8195  1.2276  0.3043
 4642SOL     OW17841   6.355   2.481   8.338  0.0969  0.9541 -0.0049
 4642SOL    HW117842   6.268   2.514   8.361 -0.0867  0.2655  0.3467
 4642SOL    HW217843   6.374   2.519   8.253 -0.8350  0.6117 -0.3848
 4643SOL     OW17844   1.624   9.889   6.466  0.5318  0.1174  0.0133
 4643SOL    HW117845   1.606   9.840   6.546  1.2752  0.1106  0.1756
 4643SOL    HW217846   1.682   9.833   6.415  0.7640  0.4922 -0.1412
 4644SOL     OW17847   0.775   7.470   4.089  0.0406  0.3677  0.1398
 4644SOL    HW117848   0.843   7.533   4.109 -0.1392  0.9558 -1.0380
 4644SOL    HW217849   0.693   7.514   4.112 -0.0206  0.1831  0.2740
 4645SOL     OW17850   2.530   7.025   9.992 -0.3249  0.2027 -0.2144
 4645SOL    HW117851   2.521   6.935   9.960  0.3959  0.2861 -0.6762
 4645SOL    HW217852   2.446   7.065   9.973  0.0282  0.2110 -1.9273
 4646SOL     OW17853   7.544   2.203   7.873  0.1421  0.1790 -0.2005
 4646SOL    HW117854   7.629   2.201   7.917  0.1067 -0.4614 -0.1463
 4646SOL    HW217855   7.556   2.148   7.795  0.5391  2.1870 -1.6397
 4647SOL     OW17856   3.243   1.350   7.064 -0.4372 -0.0235  0.0076
 4647SOL    HW117857   3.226   1.444   7.068 -1.9563 -0.2184 -0.7274
 4647SOL    HW217858   3.336   1.342   7.044 -0.2585  1.3174  0.2592
 4648SOL     OW17859   2.148   0.736   0.768 -0.3000  0.6659  0.0031
 4648SOL    HW117860   2.061   0.771   0.751 -1.3625 -1.3820  0.9030
 4648SOL    HW217861   2.153   0.729   0.863  0.5174 -0.0323 -0.0813
 4649SOL     OW17862   0.153   0.276   2.641  0.2885  0.2694  0.2859
 4649SOL    HW117863   0.174   0.252   2.731  0.0491 -0.8281  0.0642
 4649SOL    HW217864   0.057   0.284   2.640  0.3947  1.8991  0.4978
 4650SOL     OW17865   1.152   8.077   4.765  0.6320 -0.4590 -0.0897
 4650SOL    HW117866   1.058   8.096   4.763  0.8483  0.6892 -1.9642
 4650SOL    HW217867   1.185   8.131   4.837 -0.4426 -2.8151  2.3284
 4651SOL     OW17868   3.123   9.127   1.416  0.6136  0.3260 -0.0577
 4651SOL    HW117869   3.105   9.038   1.449 -0.8305  0.8463  0.6819
 4651SOL    HW217870   3.040   9.174   1.429  1.7669  2.1987  0.9352
 4652SOL     OW17871   7.826   6.525   9.470  0.0198  0.9646 -0.3645
 4652SOL    HW117872   7.734   6.498   9.462  0.4698 -0.4752 -1.0257
 4652SOL    HW217873   7.844   6.572   9.389 -0.5240  2.5731  0.4136
 4653SOL     OW17874  10.069   3.295   1.627  0.3616  0.5769  0.0240
 4653SOL    HW117875   9.981   3.330   1.620  0.0072 -0.6298 -2.8022
 4653SOL    HW217876  10.072   3.255   1.714 -1.5569  1.3403  0.4972
 4654SOL     OW17877   6.593   2.663   2.902  0.0413  0.1067  0.0119
 4654SOL    HW117878   6.575   2.745   2.857  0.3433  0.6679  0.9034
 4654SOL    HW217879   6.522   2.654   2.965  0.5028  0.1473  0.5440
 4655SOL     OW17880   3.491   6.432   0.676  0.4167 -0.4083 -0.3828
 4655SOL    HW117881   3.483   6.525   0.655 -0.3449 -0.3165  0.2824
 4655SOL    HW217882   3.453   6.387   0.600  1.1742 -0.1975 -0.8934
 4656SOL     OW17883   3.337   6.623   8.878  0.0228 -0.2214  0.1558
 4656SOL    HW117884   3.364   6.681   8.949 -0.6032  0.2305  0.0334
 4656SOL    HW217885   3.327   6.537   8.919  0.3151 -0.1046  0.4735
 4657SOL     OW17886   8.143   0.320   3.486 -0.4769  0.7122  0.6561
 4657SOL    HW117887   8.189   0.265   3.549 -0.9424  1.0592  1.3082
 4657SOL    HW217888   8.085   0.375   3.539 -1.4701  0.4561 -0.1215
 4658SOL     OW17889   9.572   4.385   0.046 -0.0609  0.0735 -0.4913
 4658SOL    HW117890   9.635   4.320   0.017 -1.6030 -0.9677 -1.7157
 4658SOL    HW217891   9.494   4.334   0.070 -0.4870  1.3057  0.9194
 4659SOL     OW17892   4.208   5.326   0.763 -0.7589  0.1382 -0.2663
 4659SOL    HW117893   4.138   5.265   0.740 -0.7925  0.4310 -0.9519
 4659SOL    HW217894   4.165   5.412   0.763 -0.3435  0.3461 -0.9253
 4660SOL     OW17895   1.151   2.898   5.673 -0.1988  0.5021 -0.1792
 4660SOL    HW117896   1.213   2.905   5.601  0.8479  1.1120  0.7432
 4660SOL    HW217897   1.206   2.882   5.750 -1.3044 -0.3715  0.4525
 4661SOL     OW17898   9.275   6.232   2.495 -0.0655 -0.1423  0.2890
 4661SOL    HW117899   9.332   6.306   2.471  0.6183 -0.5299  0.6755
 4661SOL    HW217900   9.191   6.272   2.516  0.7030  0.7261  1.9560
 4662SOL     OW17901   2.497   0.099   1.079  0.3041  0.1733 -0.0726
 4662SOL    HW117902   2.440   0.077   1.006 -0.6355  0.7974  0.4535
 4662SOL    HW217903   2.514   0.015   1.123  0.9253 -0.2116 -1.0262
 4663SOL     OW17904  10.051   2.137   3.652  0.3593  0.3442 -0.0555
 4663SOL    HW117905   9.976   2.170   3.602 -1.5511 -0.5745  2.0013
 4663SOL    HW217906  10.022   2.143   3.743  2.4207 -1.0071  0.7404
 4664SOL     OW17907   7.175   0.166   5.406  0.2259  0.3056  0.3115
 4664SOL    HW117908   7.118   0.162   5.329 -0.6259  2.3393  0.7824
 4664SOL    HW217909   7.134   0.108   5.470 -0.0089 -0.0482 -0.1488
 4665SOL     OW17910   4.473   3.712   3.913 -0.0270  0.0065 -0.9250
 4665SOL    HW117911   4.419   3.697   3.836  0.4498  0.1046 -1.2850
 4665SOL    HW217912   4.452   3.801   3.941  0.4143  0.2787 -1.4464
 4666SOL     OW17913   8.320   4.034   1.160  0.0622 -0.6405 -0.0365
 4666SOL    HW117914   8.269   3.982   1.098  3.4920 -1.7127 -2.2603
 4666SOL    HW217915   8.322   4.122   1.121 -0.3423 -0.5120  0.2297
 4667SOL     OW17916   6.306   1.490   8.711 -0.5219 -0.0207 -0.1791
 4667SOL    HW117917   6.255   1.512   8.789 -0.9833  0.1208 -0.5193
 4667SOL    HW217918   6.316   1.573   8.665  3.1752  0.8029  1.6844
 4668SOL     OW17919   8.437   4.687   9.011 -0.0957 -0.2204  0.4529
 4668SOL    HW117920   8.370   4.634   8.967  0.6923 -1.6440  0.9067
 4668SOL    HW217921   8.462   4.635   9.087  0.7867  0.7754  0.8615
 4669SOL     OW17922   2.633   2.341   1.684 -0.2748  0.0660 -0.6785
 4669SOL    HW117923   2.699   2.356   1.617 -0.5866  1.2263 -0.7528
 4669SOL    HW217924   2.605   2.250   1.671  2.6831 -1.1497  0.6161
 4670SOL     OW17925   5.310   8.959   2.536 -0.1043 -0.0085 -0.0630
 4670SOL    HW117926   5.225   8.994   2.509  0.1877  1.0677  0.3624
 4670SOL    HW217927   5.316   8.982   2.629  1.0843  0.8152 -0.3289
 4671SOL     OW17928   9.427   2.077   2.924  0.0615 -0.1994 -0.2627
 4671SOL    HW117929   9.432   2.038   3.011  0.1945  1.7840  0.6696
 4671SOL    HW217930   9.516   2.110   2.907 -0.4224  1.1441 -0.2877
 4672SOL     OW17931   7.480   8.897   1.003 -0.4687  0.0323 -0.3671
 4672SOL    HW117932   7.513   8.886   0.914  1.9325  0.2761  0.4238
 4672SOL    HW217933   7.425   8.975   0.999  0.6390  0.8050 -1.4151
 4673SOL     OW17934   1.119   8.620  10.009 -0.3301 -0.5951  0.1267
 4673SOL    HW117935   1.092   8.596  10.098  0.3205 -1.8834  0.0007
 4673SOL    HW217936   1.206   8.580   9.999 -0.3599 -0.3893 -1.0522
 4674SOL     OW17937   3.784   3.438   1.384 -0.4397 -0.0335  0.1056
 4674SOL    HW117938   3.693   3.459   1.403 -0.8279 -1.4662 -0.0547
 4674SOL    HW217939   3.823   3.521   1.356 -1.7688  0.5234 -0.1482
 4675SOL     OW17940   8.031   7.542   0.146  0.1795  0.2312 -0.0907
 4675SOL    HW117941   7.963   7.475   0.135  0.7954 -0.1462 -1.9804
 4675SOL    HW217942   8.001   7.615   0.093  0.0233  1.0968  1.1408
 4676SOL     OW17943   1.571   3.640   4.887  0.3751 -0.1024 -0.0245
 4676SOL    HW117944   1.613   3.597   4.961 -0.3608 -1.5300 -0.3983
 4676SOL    HW217945   1.638   3.698   4.851  0.5449  1.1356  2.1270
 4677SOL     OW17946   9.182   9.144   3.478 -0.7198 -0.0784 -0.1974
 4677SOL    HW117947   9.136   9.222   3.509  1.4423  0.6997  1.2485
 4677SOL    HW217948   9.228   9.111   3.555  0.9226 -0.9478 -1.4970
 4678SOL     OW17949   1.311   4.287   0.148 -0.3902  0.6170  0.3558
 4678SOL    HW117950   1.375   4.354   0.125  3.8120 -2.0371  3.0552
 4678SOL    HW217951   1.266   4.321   0.225 -0.4992  1.5004 -0.0916
 4679SOL     OW17952   0.760   9.868   2.812 -0.0504  0.8437  0.2422
 4679SOL    HW117953   0.712   9.920   2.876  0.6418  1.0543  0.6022
 4679SOL    HW217954   0.714   9.883   2.729 -2.0671 -0.8362  0.9555
 4680SOL     OW17955   2.433   6.857   3.641  0.2160 -0.1776 -0.5521
 4680SOL    HW117956   2.389   6.942   3.632  0.3525 -0.1514 -0.9956
 4680SOL    HW217957   2.461   6.835   3.552  0.2859 -0.6331 -0.4203
 4681SOL     OW17958   0.723   4.112   4.566  0.3569  0.1626  0.1927
 4681SOL    HW117959   0.762   4.199   4.554 -1.3440  1.4219  2.7661
 4681SOL    HW217960   0.677   4.094   4.485  0.4374  1.8421 -0.2551
 4682SOL     OW17961   3.729   0.020  10.183  0.0071 -0.1991  0.4459
 4682SOL    HW117962   3.696  -0.069  10.175  4.6784 -2.2466  0.7587
 4682SOL    HW217963   3.793   0.029  10.112  0.5435  2.4420  1.1489
 4683SOL     OW17964   9.175   2.262   8.266 -0.2930 -0.5083  0.1734
 4683SOL    HW117965   9.195   2.232   8.177 -1.7048  1.5811 -0.9368
 4683SOL    HW217966   9.231   2.338   8.279 -0.1576 -0.7553  1.0494
 4684SOL     OW17967   5.525   1.559   7.628 -0.6350  0.1258  0.1714
 4684SOL    HW117968   5.545   1.555   7.534 -1.4419  2.0951 -0.1339
 4684SOL    HW217969   5.608   1.579   7.670 -0.2411 -0.8994 -0.0928
 4685SOL     OW17970   7.001   0.949   5.842  0.0368  0.0679  1.1784
 4685SOL    HW117971   7.070   0.883   5.834  0.5737  0.6748  0.7114
 4685SOL    HW217972   7.007   1.000   5.761 -0.3315  0.7371  1.5609
 4686SOL     OW17973   8.328   3.177   8.652 -0.6926 -0.4030  0.8076
 4686SOL    HW117974   8.419   3.150   8.666 -0.8642 -0.6620  1.5217
 4686SOL    HW217975   8.282   3.142   8.729 -1.4721 -0.6444  0.2402
 4687SOL     OW17976   2.398   0.299   9.326 -0.1833 -0.1155  0.5086
 4687SOL    HW117977   2.326   0.353   9.357 -1.0839 -0.7685 -0.3807
 4687SOL    HW217978   2.408   0.323   9.234 -1.3401 -2.1750 -0.2242
 4688SOL     OW17979   0.348   7.803   2.245 -0.4970 -0.6198 -0.1247
 4688SOL    HW117980   0.288   7.728   2.250 -1.0778 -0.1859 -0.3389
 4688SOL    HW217981   0.306   7.870   2.300 -0.5483 -0.0896 -0.7957
 4689SOL     OW17982   6.272   0.623   7.920  1.0732 -0.3417  0.4771
 4689SOL    HW117983   6.323   0.551   7.957  1.0267  0.4376  2.1283
 4689SOL    HW217984   6.180   0.597   7.933  0.9401 -1.5515 -2.1192
 4690SOL     OW17985   7.483   0.906   6.899 -0.1851 -0.5269  0.2187
 4690SOL    HW117986   7.404   0.934   6.853 -0.5704  0.1755  1.2735
 4690SOL    HW217987   7.526   0.987   6.925  0.1569 -0.9040  0.8674
 4691SOL     OW17988   3.188   4.338   9.758  0.4210 -0.2741  0.3532
 4691SOL    HW117989   3.099   4.337   9.793  0.6487  0.5172  0.9698
 4691SOL    HW217990   3.227   4.256   9.789  0.0157 -0.4738  0.3427
 4692SOL     OW17991   0.484   9.343   9.965 -0.0180 -0.1179 -0.7888
 4692SOL    HW117992   0.485   9.438   9.980 -0.6054 -0.5195  2.6044
 4692SOL    HW217993   0.576   9.320   9.955  0.0525  0.9298 -3.4800
 4693SOL     OW17994   4.461   3.380   3.486  0.1775 -0.4782  0.0762
 4693SOL    HW117995   4.412   3.459   3.465  1.7040  0.8442  1.2379
 4693SOL    HW217996   4.396   3.321   3.526 -1.3586 -0.5745 -2.3786
 4694SOL     OW17997   2.142   5.394   6.948  0.4660 -0.0169 -0.0128
 4694SOL    HW117998   2.114   5.466   6.892 -1.6313 -0.5463  0.2913
 4694SOL    HW217999   2.107   5.415   7.034 -1.2236 -1.9172 -0.1731
 4695SOL     OW18000   3.856   7.419   3.675 -0.0971  0.0532 -0.7109
 4695SOL    HW118001   3.931   7.476   3.691 -0.2079  0.3077 -1.0684
 4695SOL    HW218002   3.869   7.387   3.586 -0.4537  0.1719 -0.8079
 4696SOL     OW18003   5.915   6.658   8.164 -0.3319 -0.3341 -0.6386
 4696SOL    HW118004   5.920   6.696   8.076  0.0940  0.5272 -0.2519
 4696SOL    HW218005   5.822   6.642   8.178 -0.7551  2.0038 -0.2477
 4697SOL     OW18006   7.482   1.223   4.929 -0.2868 -0.4566  0.1429
 4697SOL    HW118007   7.478   1.286   5.001 -0.9384 -0.0480 -0.2517
 4697SOL    HW218008   7.575   1.217   4.908 -0.3016  1.0249 -0.3960
 4698SOL     OW18009   7.526   9.135   1.948  0.0981  0.0192  0.4181
 4698SOL    HW118010   7.436   9.159   1.970  1.1885  1.5550  3.8491
 4698SOL    HW218011   7.569   9.219   1.931  1.5005 -0.4219  1.6259
 4699SOL     OW18012   0.182   3.018   7.232  0.1340  0.1539  0.1485
 4699SOL    HW118013   0.249   2.974   7.285  1.7312  1.6702 -0.4923
 4699SOL    HW218014   0.232   3.072   7.171 -1.7110  1.8330  0.0373
 4700SOL     OW18015   2.464   9.692   0.119 -0.2139 -0.1600  0.1245
 4700SOL    HW118016   2.442   9.697   0.026 -2.7533 -1.6266  0.5361
 4700SOL    HW218017   2.441   9.778   0.154 -1.7891 -0.4149 -0.2075
 4701SOL     OW18018   3.327   3.252  10.113  0.2703 -0.3862 -0.3305
 4701SOL    HW118019   3.415   3.216  10.121  0.9109  1.1078 -0.3912
 4701SOL    HW218020   3.281   3.222  10.191  1.3525  0.1949  0.5508
 4702SOL     OW18021   1.420   7.576   0.226  0.3065 -0.1760 -0.1018
 4702SOL    HW118022   1.360   7.531   0.286  1.2068 -0.5215  0.5567
 4702SOL    HW218023   1.412   7.668   0.249 -1.8488  0.1168 -1.7238
 4703SOL     OW18024   5.543   4.383   6.265 -0.1067  0.0702 -0.1687
 4703SOL    HW118025   5.594   4.302   6.263 -0.0055  0.1366 -1.3120
 4703SOL    HW218026   5.602   4.449   6.229 -0.8558  0.2131 -1.2070
 4704SOL     OW18027   3.791   6.023   4.079 -0.1486  0.5856  0.0236
 4704SOL    HW118028   3.775   6.061   3.993  1.2690 -0.4080 -0.7154
 4704SOL    HW218029   3.833   5.939   4.061  1.5483  1.0005  1.6685
 4705SOL     OW18030   8.294  10.097   5.855 -0.3884  0.2109  0.1680
 4705SOL    HW118031   8.227  10.069   5.792  0.8423 -0.1793 -0.9937
 4705SOL    HW218032   8.328  10.016   5.892 -0.7887  0.4235  1.0596
 4706SOL     OW18033   2.072   5.433   5.733  0.3680  0.5275  0.0950
 4706SOL    HW118034   2.023   5.462   5.811 -1.0075 -1.5278  0.0668
 4706SOL    HW218035   2.130   5.365   5.766 -1.1179 -1.2559 -0.8070
 4707SOL     OW18036   6.410   1.561   3.691  0.3032 -0.0154 -0.1379
 4707SOL    HW118037   6.437   1.652   3.700  0.3088  0.1050 -1.3088
 4707SOL    HW218038   6.384   1.535   3.780  1.0133  0.8884  0.3538
 4708SOL     OW18039   4.014   9.820   9.463 -0.2841  0.6803  0.5049
 4708SOL    HW118040   3.987   9.892   9.520  0.7389  0.8421  0.8143
 4708SOL    HW218041   4.023   9.859   9.376  1.3515  1.2015  0.8877
 4709SOL     OW18042   7.632   9.319   4.221  0.0464 -0.5963  0.6324
 4709SOL    HW118043   7.576   9.302   4.145  1.2521 -0.8887 -0.2277
 4709SOL    HW218044   7.678   9.237   4.235  0.0645 -0.4408  1.4916
 4710SOL     OW18045   6.063   3.400   8.141  0.3284  0.1699  0.7889
 4710SOL    HW118046   6.056   3.496   8.137  2.0935  0.3051  0.3314
 4710SOL    HW218047   6.105   3.382   8.225  0.9882 -0.1331  0.3979
 4711SOL     OW18048   8.534   6.068   8.094 -0.6088  0.7045 -0.0644
 4711SOL    HW118049   8.480   6.094   8.169 -0.3118  1.4164 -0.0900
 4711SOL    HW218050   8.590   6.143   8.078  0.1394  0.1186 -0.2726
 4712SOL     OW18051   3.132   1.350   3.415  0.1608  0.0722 -0.1806
 4712SOL    HW118052   3.096   1.391   3.336  0.0900  0.6385  0.1440
 4712SOL    HW218053   3.225   1.336   3.394 -0.2005 -1.3571 -1.0020
 4713SOL     OW18054   1.502   3.914   7.936  0.7118  0.5808 -0.4786
 4713SOL    HW118055   1.477   3.986   7.878  1.1678  0.8058 -0.4031
 4713SOL    HW218056   1.596   3.903   7.922  0.9830  1.1382  0.7678
 4714SOL     OW18057   6.228   1.108   7.732 -0.2037 -0.1916  0.3649
 4714SOL    HW118058   6.257   1.017   7.742 -0.2085  0.0274  3.3343
 4714SOL    HW218059   6.243   1.147   7.818 -0.1479  2.6705 -0.8584
 4715SOL     OW18060   6.488   2.084   3.067  0.8694  0.5695  0.2848
 4715SOL    HW118061   6.507   2.120   2.981 -0.4373  0.6328  0.0026
 4715SOL    HW218062   6.536   2.001   3.069  0.7457  0.4660 -0.5864
 4716SOL     OW18063   9.440   1.220  10.140  0.1386 -0.4728  0.1445
 4716SOL    HW118064   9.474   1.220  10.229  1.5179 -1.2304 -0.3518
 4716SOL    HW218065   9.387   1.140  10.135 -0.5041 -0.0727  0.4763
 4717SOL     OW18066   4.186   2.270   6.129  0.0704  0.2641 -0.4756
 4717SOL    HW118067   4.255   2.298   6.189 -0.2323 -1.0662  0.5425
 4717SOL    HW218068   4.177   2.176   6.145 -0.6169  0.0378 -2.0099
 4718SOL     OW18069   7.358   8.996   6.622 -0.1611 -0.1322 -0.5589
 4718SOL    HW118070   7.434   8.950   6.587 -0.1070  0.2341 -0.9309
 4718SOL    HW218071   7.394   9.078   6.656 -0.4924  0.4119 -1.4770
 4719SOL     OW18072   7.770   2.290   8.343 -0.5047  0.0120  0.5386
 4719SOL    HW118073   7.748   2.197   8.348 -2.2270  0.3231 -0.3253
 4719SOL    HW218074   7.690   2.332   8.311 -0.3371  2.0127  2.4357
 4720SOL     OW18075   9.927   7.087   9.607 -0.3715  0.1641 -0.2082
 4720SOL    HW118076   9.959   7.176   9.619  1.4148 -0.3943 -0.5665
 4720SOL    HW218077   9.931   7.072   9.513 -2.5603  0.3361 -0.3820
 4721SOL     OW18078   6.426   5.049   1.364  0.5253  0.1278  0.0742
 4721SOL    HW118079   6.454   5.022   1.451  0.4048  2.0789  0.7637
 4721SOL    HW218080   6.350   5.105   1.380  0.0766 -0.0374 -1.3517
 4722SOL     OW18081   7.260   0.677   8.457  1.4726 -0.5273  0.2860
 4722SOL    HW118082   7.227   0.624   8.384  1.1621  0.0575 -0.0034
 4722SOL    HW218083   7.214   0.643   8.534  0.8621 -0.3153  0.0181
 4723SOL     OW18084   1.057   6.111   4.464  0.1799  0.0011  0.2835
 4723SOL    HW118085   1.040   6.118   4.370 -1.2097  0.3405  0.5351
 4723SOL    HW218086   1.070   6.018   4.480 -0.9996 -0.2320 -0.0395
 4724SOL     OW18087   2.464  10.139   6.013 -0.0801  0.9069  0.1184
 4724SOL    HW118088   2.557  10.120   6.002 -0.4708 -1.3064  0.1501
 4724SOL    HW218089   2.448  10.215   5.957  1.4554  0.4274 -1.0489
 4725SOL     OW18090   9.685   6.441   1.247 -0.5081 -0.2198 -0.9530
 4725SOL    HW118091   9.742   6.421   1.321 -0.4601 -1.2885 -1.2586
 4725SOL    HW218092   9.726   6.396   1.173  0.2985  2.0940 -1.9853
 4726SOL     OW18093   4.317   7.626   5.320 -0.3556 -0.3820  0.3441
 4726SOL    HW118094   4.233   7.626   5.366 -0.3554  0.7049  0.3916
 4726SOL    HW218095   4.372   7.564   5.368 -1.5019 -2.0641 -0.4340
 4727SOL     OW18096   0.337   2.415   8.689 -0.0873  0.3510 -0.1696
 4727SOL    HW118097   0.431   2.426   8.672  0.0005  1.4075  0.9066
 4727SOL    HW218098   0.295   2.472   8.625 -0.0076 -0.1619 -0.6869
 4728SOL     OW18099   2.999   0.520   0.557  0.1722  0.2803  0.4506
 4728SOL    HW118100   3.087   0.507   0.593 -0.1667  2.2878  2.2395
 4728SOL    HW218101   3.011   0.582   0.486  0.3015 -0.2565 -0.0056
 4729SOL     OW18102   5.083   3.870  10.025  0.0719 -0.0072  0.2204
 4729SOL    HW118103   5.132   3.851   9.945  0.7555 -0.2769  0.6870
 4729SOL    HW218104   5.145   3.850  10.095 -0.2622  0.9326  0.8010
 4730SOL     OW18105   7.554   5.917   5.140 -0.2032 -0.0754  0.1399
 4730SOL    HW118106   7.490   5.900   5.071 -0.5098 -0.3878  0.4947
 4730SOL    HW218107   7.525   5.862   5.213 -0.0490  0.4715  0.6189
 4731SOL     OW18108   2.329   7.393   6.330  0.1203 -0.5948 -0.1851
 4731SOL    HW118109   2.415   7.433   6.343 -0.1513  0.5663 -1.7229
 4731SOL    HW218110   2.343   7.301   6.351  1.9309 -0.5701 -1.0321
 4732SOL     OW18111   0.633   7.924   7.682 -0.0656  0.5576  0.5599
 4732SOL    HW118112   0.636   7.995   7.618 -0.8833 -0.3986 -0.5861
 4732SOL    HW218113   0.571   7.861   7.645  2.0825 -1.6857  0.5366
 4733SOL     OW18114   2.664   0.480   5.643 -0.2233  0.0097  0.1865
 4733SOL    HW118115   2.638   0.435   5.724  1.6846 -2.2593 -0.3793
 4733SOL    HW218116   2.722   0.419   5.599 -0.5648  1.5189 -2.5592
 4734SOL     OW18117   6.187   3.888   2.742 -0.1128 -0.3546  0.4867
 4734SOL    HW118118   6.221   3.978   2.736 -0.2206 -0.3400  0.0017
 4734SOL    HW218119   6.266   3.833   2.742 -0.0085 -0.2304  1.7428
 4735SOL     OW18120   4.342   0.742   1.783  0.0931 -0.0453 -0.2138
 4735SOL    HW118121   4.276   0.745   1.714 -0.8125 -1.5275  0.5207
 4735SOL    HW218122   4.291   0.737   1.864  1.0380 -2.2670  0.3181
 4736SOL     OW18123   1.172   1.578   9.010  0.0224 -0.5886 -0.0023
 4736SOL    HW118124   1.154   1.624   8.928 -0.8078 -0.1602  0.4134
 4736SOL    HW218125   1.194   1.648   9.072  1.3139 -0.9555 -0.0139
 4737SOL     OW18126   6.516   1.977   8.694  0.3872 -0.0464  0.1013
 4737SOL    HW118127   6.594   1.922   8.700  0.4440  0.2248  3.7978
 4737SOL    HW218128   6.549   2.065   8.679  0.7951 -0.0222  1.0796
 4738SOL     OW18129   3.114   3.310   5.893 -0.0223  0.4482 -0.2657
 4738SOL    HW118130   3.051   3.248   5.856 -0.0615  0.7364 -0.6875
 4738SOL    HW218131   3.157   3.261   5.964 -2.3418  0.9801  1.6270
 4739SOL     OW18132   9.631  10.137   9.754 -0.2313  0.0879 -0.1832
 4739SOL    HW118133   9.640  10.069   9.821  0.0724 -1.2264 -1.4963
 4739SOL    HW218134   9.546  10.177   9.773 -0.7556 -1.1400  0.2302
 4740SOL     OW18135   5.355   1.621   0.666  0.8079  0.1192  0.2103
 4740SOL    HW118136   5.304   1.659   0.737 -0.5473  1.2980 -1.3182
 4740SOL    HW218137   5.441   1.663   0.674  0.1156  1.6253  0.0984
 4741SOL     OW18138   5.950   2.281  10.187 -0.1697 -0.2952 -0.2182
 4741SOL    HW118139   5.942   2.283  10.282 -0.9327  0.8419 -0.2837
 4741SOL    HW218140   5.891   2.212  10.159 -1.0357  0.3228  0.0547
 4742SOL     OW18141   6.067   4.962   1.977  0.1927 -0.3603 -0.4090
 4742SOL    HW118142   6.084   4.977   2.070 -2.4535 -0.1288  0.1147
 4742SOL    HW218143   6.126   4.890   1.953  3.1925  1.5667  0.5454
 4743SOL     OW18144   9.686   1.982   1.621 -0.6047  0.0710 -0.3129
 4743SOL    HW118145   9.657   1.920   1.689 -1.1153 -0.0856 -0.6705
 4743SOL    HW218146   9.762   2.025   1.660 -0.0392 -1.0160 -0.1794
 4744SOL     OW18147   4.347   9.621   0.872 -0.4160  0.7075 -1.0590
 4744SOL    HW118148   4.420   9.669   0.834  0.1031  0.0460 -0.9058
 4744SOL    HW218149   4.270   9.652   0.823  0.0050  1.1823 -1.4270
 4745SOL     OW18150   4.984   6.247   6.538 -0.0344  0.2256  0.3642
 4745SOL    HW118151   5.028   6.168   6.571  0.3789  0.1399 -0.3685
 4745SOL    HW218152   4.900   6.215   6.504  0.8534 -0.2002 -1.5244
 4746SOL     OW18153   6.721   5.549   6.427 -0.2374  0.0659 -0.0092
 4746SOL    HW118154   6.634   5.510   6.430 -0.2188  0.0710  1.9959
 4746SOL    HW218155   6.780   5.475   6.410 -0.6146  0.0863 -1.5182
 4747SOL     OW18156   4.153   9.087   7.490 -0.0045  0.0333 -0.0514
 4747SOL    HW118157   4.217   9.024   7.523 -0.1234  0.2633  0.6240
 4747SOL    HW218158   4.136   9.059   7.400  2.6712  1.2166 -1.0265
 4748SOL     OW18159   9.631   9.378   0.907 -0.6770 -0.6921  0.1887
 4748SOL    HW118160   9.611   9.289   0.938 -1.6687 -0.7379 -0.5538
 4748SOL    HW218161   9.650   9.366   0.814 -0.3971 -0.1775  0.1808
 4749SOL     OW18162   4.185   8.511   7.256 -0.0044  0.1877  0.0266
 4749SOL    HW118163   4.179   8.498   7.161  0.1213  0.1094  0.0287
 4749SOL    HW218164   4.234   8.592   7.266 -0.1322  0.2664  0.0233
 4750SOL     OW18165   3.240   0.069   6.735  0.1906  0.0641 -0.2086
 4750SOL    HW118166   3.277   0.006   6.798 -1.6149 -0.7782  0.0497
 4750SOL    HW218167   3.263   0.155   6.772  1.4117 -0.4158  0.2066
 4751SOL     OW18168   9.454   8.195   2.924 -0.1397  0.8698  0.2453
 4751SOL    HW118169   9.516   8.212   2.853  0.1837  0.2206  0.3616
 4751SOL    HW218170   9.493   8.235   3.001  0.7011 -0.4813  0.5555
 4752SOL     OW18171   3.271   0.324   2.851  0.6696  0.1170  0.0602
 4752SOL    HW118172   3.180   0.322   2.881 -0.0698 -0.3065 -2.0215
 4752SOL    HW218173   3.319   0.275   2.918 -0.8037 -0.5367  0.6953
 4753SOL     OW18174   9.632   9.590   4.522  0.2276  0.0226  1.1198
 4753SOL    HW118175   9.587   9.508   4.543  0.5325 -0.8719 -1.4313
 4753SOL    HW218176   9.608   9.649   4.594 -2.6880 -1.2864  1.3834
 4754SOL     OW18177   5.955   2.479   0.220 -0.0534  0.7229  0.0088
 4754SOL    HW118178   5.964   2.527   0.302  0.2492 -2.7706  2.2491
 4754SOL    HW218179   5.867   2.502   0.188 -1.8974 -0.6698  3.5261
 4755SOL     OW18180   5.902   6.943   2.389  0.1187 -0.3585  0.2863
 4755SOL    HW118181   5.892   6.881   2.317  1.8375 -0.8992  0.4623
 4755SOL    HW218182   5.895   7.029   2.348  1.6567 -0.6477 -0.6802
 4756SOL     OW18183   8.253   2.603   3.464 -0.5534 -0.2805  0.4058
 4756SOL    HW118184   8.253   2.696   3.487 -3.3567 -0.7592  2.9400
 4756SOL    HW218185   8.162   2.583   3.444 -0.3502 -2.8164  1.6111
 4757SOL     OW18186   4.553   8.941   3.440  0.1874 -0.4301  0.1230
 4757SOL    HW118187   4.623   8.921   3.378  0.4388 -0.5348  0.4382
 4757SOL    HW218188   4.591   8.920   3.526 -0.2771 -0.6185  0.2825
 4758SOL     OW18189   6.394   8.227   8.453  0.2183 -0.2767 -0.4428
 4758SOL    HW118190   6.309   8.213   8.494 -1.0974  2.3109 -2.0193
 4758SOL    HW218191   6.445   8.276   8.518 -0.1792 -0.2075 -0.1834
 4759SOL     OW18192   9.354   2.460   5.593  0.3051 -0.2916 -0.0347
 4759SOL    HW118193   9.410   2.399   5.641  0.3658 -0.4897 -0.3586
 4759SOL    HW218194   9.400   2.475   5.511  1.2829  1.6864  0.7940
 4760SOL     OW18195   9.487   3.366   5.699 -0.1973 -0.6367 -0.3568
 4760SOL    HW118196   9.475   3.332   5.611  0.5129  1.2170 -1.2263
 4760SOL    HW218197   9.512   3.458   5.686 -1.2345  0.0156  1.8044
 4761SOL     OW18198   7.627   8.252   5.146  0.2297 -0.3447  0.1585
 4761SOL    HW118199   7.680   8.307   5.204 -1.7642  1.0953  0.7032
 4761SOL    HW218200   7.591   8.184   5.203  0.5510 -0.6363  0.0180
 4762SOL     OW18201   2.746   4.582   6.143 -0.1094  0.4237 -0.6261
 4762SOL    HW118202   2.735   4.487   6.133 -0.7366  0.4761 -0.4924
 4762SOL    HW218203   2.772   4.612   6.056  1.9036 -0.0940 -0.2616
 4763SOL     OW18204   6.995   2.876   6.092  0.2675 -0.5862  0.1949
 4763SOL    HW118205   6.934   2.879   6.166 -0.8244  2.9591 -0.6532
 4763SOL    HW218206   6.964   2.804   6.038 -1.7794 -0.3542  0.9583
 4764SOL     OW18207   3.622   6.529   4.228  0.0306  0.3320 -0.1551
 4764SOL    HW118208   3.655   6.576   4.305 -1.5760  0.1738  0.6941
 4764SOL    HW218209   3.535   6.566   4.214 -0.7733 -1.4899 -0.2376
 4765SOL     OW18210   3.705   2.600   5.151 -0.2014  0.4456  0.1142
 4765SOL    HW118211   3.652   2.591   5.072  0.7276 -1.1730 -0.3743
 4765SOL    HW218212   3.647   2.574   5.223 -0.3282 -0.5324 -0.3299
 4766SOL     OW18213   2.264   0.196   5.256  0.2366 -1.2517  0.5402
 4766SOL    HW118214   2.227   0.144   5.185  1.8227 -2.0572  0.2701
 4766SOL    HW218215   2.298   0.274   5.213  1.2113 -1.7468  0.3990
 4767SOL     OW18216   5.652   4.308   8.051 -0.4937  0.2686  0.4241
 4767SOL    HW118217   5.650   4.333   8.144 -1.5932  0.3581  0.3861
 4767SOL    HW218218   5.560   4.300   8.026 -0.2296  1.2491 -0.9424
 4768SOL     OW18219   8.330   9.506   8.587  0.5362 -0.0841  0.3302
 4768SOL    HW118220   8.299   9.498   8.678  3.2995  0.4604  1.4240
 4768SOL    HW218221   8.333   9.600   8.571 -1.9829 -0.1732 -1.2024
 4769SOL     OW18222   4.484   3.808   4.209  0.0783 -0.6281  0.0224
 4769SOL    HW118223   4.400   3.764   4.216 -0.2136 -0.3674 -1.4158
 4769SOL    HW218224   4.525   3.770   4.131  1.5997 -1.2263  1.0612
 4770SOL     OW18225   5.000   2.814   9.953 -0.0527  0.3794 -0.4047
 4770SOL    HW118226   5.046   2.755   9.894  2.1119  1.2704  0.2958
 4770SOL    HW218227   5.011   2.900   9.914 -2.1765  0.5259 -0.8007
 4771SOL     OW18228   9.233   4.434   2.637 -0.0089  0.1519  0.1843
 4771SOL    HW118229   9.292   4.394   2.573  0.0052  1.4624 -0.6721
 4771SOL    HW218230   9.228   4.526   2.610 -3.8536 -0.2033 -0.8792
 4772SOL     OW18231   3.418  10.020   9.162 -0.5388  0.0030  0.3843
 4772SOL    HW118232   3.334   9.987   9.131 -0.1337 -0.0236 -0.7643
 4772SOL    HW218233   3.405  10.039   9.254 -1.2757 -1.7496  0.6731
 4773SOL     OW18234   3.878   2.649   4.926 -0.0041  0.3061  0.2538
 4773SOL    HW118235   3.885   2.554   4.918  2.3696  0.3425  1.1525
 4773SOL    HW218236   3.820   2.663   5.001 -0.6582 -0.3806 -0.0990
 4774SOL     OW18237   6.673   3.919   9.779  0.5222 -0.2381  0.6287
 4774SOL    HW118238   6.702   3.961   9.698 -0.0965 -0.6882  0.1658
 4774SOL    HW218239   6.754   3.899   9.826  0.8440  1.3751  0.8262
 4775SOL     OW18240   5.194   2.110   8.030 -0.2502  0.0703 -0.1715
 4775SOL    HW118241   5.267   2.149   8.078  1.0100 -1.4768 -0.7441
 4775SOL    HW218242   5.221   2.112   7.939 -0.1729 -1.9281 -0.2474
 4776SOL     OW18243   0.946   6.926   6.308 -0.0913  0.2051 -0.1280
 4776SOL    HW118244   0.901   6.963   6.384  0.5594  0.3575  0.1878
 4776SOL    HW218245   0.890   6.854   6.279 -0.4072  0.2333  0.4152
 4777SOL     OW18246   1.656   6.696   0.110 -0.5354 -0.0527 -0.5513
 4777SOL    HW118247   1.714   6.647   0.168 -0.4091  0.6357 -0.0719
 4777SOL    HW218248   1.652   6.645   0.029  2.0839  0.7168 -1.2382
 4778SOL     OW18249   9.686   5.746   2.229  0.5396  0.0437  0.2459
 4778SOL    HW118250   9.687   5.726   2.135  1.5472  0.9874  0.0307
 4778SOL    HW218251   9.726   5.833   2.235  0.3382  0.0667  1.5414
 4779SOL     OW18252   3.571   4.567   4.043  0.7868 -0.2876  0.0283
 4779SOL    HW118253   3.609   4.483   4.070 -1.4652 -1.7203 -0.9319
 4779SOL    HW218254   3.580   4.567   3.948 -1.1516 -0.5169 -0.1941
 4780SOL     OW18255   3.183   2.812   2.137 -0.1644 -0.5847  0.2954
 4780SOL    HW118256   3.149   2.898   2.110 -0.3311 -0.7711 -0.0913
 4780SOL    HW218257   3.242   2.787   2.066  0.1882 -0.6139  0.5967
 4781SOL     OW18258   1.509   8.108   1.162 -0.3776  0.1090  0.0749
 4781SOL    HW118259   1.425   8.108   1.116 -0.7460 -0.2346  0.7306
 4781SOL    HW218260   1.501   8.037   1.226  0.8814 -0.7844 -0.7128
 4782SOL     OW18261   5.321   7.612   3.288 -0.3036  0.2278  0.2158
 4782SOL    HW118262   5.286   7.681   3.231 -2.4496 -0.1649  0.9364
 4782SOL    HW218263   5.251   7.547   3.293  1.2814 -1.5618  0.3521
 4783SOL     OW18264   2.087   4.432   8.269  0.2183 -0.3445  0.1861
 4783SOL    HW118265   2.081   4.414   8.175  2.5578 -0.5440  0.0223
 4783SOL    HW218266   2.008   4.393   8.306 -2.0738  1.9304 -1.9462
 4784SOL     OW18267   3.162   4.956   2.950 -0.1917  0.0499  0.5102
 4784SOL    HW118268   3.067   4.960   2.966 -0.5486 -0.1874 -1.2865
 4784SOL    HW218269   3.169   4.922   2.861  1.4781  3.1313 -0.6780
 4785SOL     OW18270   2.552   3.183   2.541  0.0318  0.2888  0.3266
 4785SOL    HW118271   2.478   3.129   2.568  0.4194 -0.1064  0.6162
 4785SOL    HW218272   2.613   3.122   2.500 -0.9146  0.9845 -2.3116
 4786SOL     OW18273   0.749   4.453   1.812  0.2140 -0.1223 -0.3067
 4786SOL    HW118274   0.706   4.367   1.810 -1.4844  0.6682  0.7231
 4786SOL    HW218275   0.838   4.435   1.780 -0.9417 -1.7516 -3.0346
 4787SOL     OW18276   9.683   0.013   9.494 -0.6212 -0.2354  0.4277
 4787SOL    HW118277   9.688  -0.012   9.586  2.3118  0.0664  0.4243
 4787SOL    HW218278   9.664  -0.068   9.447  2.8222 -1.4820  0.9377
 4788SOL     OW18279   9.797   0.512   5.267 -0.3925  0.3227 -0.6659
 4788SOL    HW118280   9.789   0.482   5.358 -0.9219  0.7010 -0.5844
 4788SOL    HW218281   9.886   0.489   5.242 -0.7401 -1.2314 -0.5791
 4789SOL     OW18282   2.930   0.746   5.399  0.0984 -0.0718 -0.6970
 4789SOL    HW118283   2.999   0.809   5.381 -0.9390  1.3718  0.0837
 4789SOL    HW218284   2.899   0.717   5.313 -0.1588  1.3795 -1.1131
 4790SOL     OW18285   2.372   9.811   9.302 -0.5071  0.3886  0.3097
 4790SOL    HW118286   2.336   9.752   9.235  0.8012 -0.8586  0.6490
 4790SOL    HW218287   2.424   9.874   9.252  0.6256 -0.6570  0.1280
 4791SOL     OW18288   9.854   5.467   5.077 -0.4063 -0.0443  0.8331
 4791SOL    HW118289   9.883   5.557   5.060 -1.2469  0.5301  2.2802
 4791SOL    HW218290   9.774   5.458   5.025 -0.3457  0.0607  0.7209
 4792SOL     OW18291   5.914   8.286   6.629  0.5615 -0.5953 -0.5175
 4792SOL    HW118292   5.968   8.267   6.552  1.9836 -2.2796  0.7915
 4792SOL    HW218293   5.860   8.207   6.641 -0.0709 -0.1166 -0.1377
 4793SOL     OW18294   9.922   8.389   7.828  0.5457  0.6326 -0.0184
 4793SOL    HW118295   9.840   8.439   7.830 -0.8746 -1.4598 -1.3279
 4793SOL    HW218296   9.974   8.425   7.899 -2.3128  0.7592  2.2143
 4794SOL     OW18297   8.992   8.808   9.129 -0.1203 -0.1030 -0.5290
 4794SOL    HW118298   8.897   8.801   9.122  0.0031 -3.1471 -0.6202
 4794SOL    HW218299   9.009   8.901   9.140 -3.0334  0.6179 -1.3959
 4795SOL     OW18300   2.273   5.533   6.275 -0.3703 -0.8441 -0.5350
 4795SOL    HW118301   2.246   5.491   6.357 -0.8274 -0.4801 -0.5001
 4795SOL    HW218302   2.232   5.619   6.277 -0.6092 -0.9324 -1.2687
 4796SOL     OW18303   8.294   5.105   4.315  0.2698 -0.4544  0.3546
 4796SOL    HW118304   8.270   5.017   4.346 -1.0695  0.3167  1.6494
 4796SOL    HW218305   8.214   5.157   4.328  1.0468  0.9633 -0.3703
 4797SOL     OW18306   0.428   6.196   9.004  0.7297  0.6167  0.4022
 4797SOL    HW118307   0.441   6.241   9.087 -0.1543  2.3054 -0.3377
 4797SOL    HW218308   0.500   6.228   8.948  0.1456  1.0568 -0.1044
 4798SOL     OW18309   9.767   8.175   4.987  0.9764 -0.7188 -0.2906
 4798SOL    HW118310   9.747   8.188   5.080  2.6463  0.2676 -0.0261
 4798SOL    HW218311   9.768   8.263   4.951 -1.7138 -1.1973 -1.7715
 4799SOL     OW18312   3.293   1.532   7.684 -0.5822 -0.3653 -0.8767
 4799SOL    HW118313   3.326   1.531   7.595 -0.2322 -1.4786 -0.7402
 4799SOL    HW218314   3.367   1.506   7.739 -1.1856 -1.1233 -0.3999
 4800SOL     OW18315   4.025   4.476   7.207  0.0282  0.0604 -0.3365
 4800SOL    HW118316   3.999   4.395   7.252 -0.7797 -0.0382 -0.9523
 4800SOL    HW218317   4.054   4.534   7.277  0.6671 -0.7790  0.1099
 4801SOL     OW18318   2.184   1.358   6.648  0.2538 -0.2493  0.0624
 4801SOL    HW118319   2.114   1.324   6.704  0.5418 -0.9359  0.0197
 4801SOL    HW218320   2.144   1.432   6.601 -0.3732 -0.4910  0.2057
 4802SOL     OW18321   5.699   5.859   6.825 -0.0621 -0.2380  0.6910
 4802SOL    HW118322   5.740   5.933   6.780 -0.5876 -0.2143  0.2353
 4802SOL    HW218323   5.771   5.798   6.841  0.0638 -0.5317 -0.7650
 4803SOL     OW18324   4.420   7.207   6.898  0.4674 -0.3624 -0.4032
 4803SOL    HW118325   4.354   7.271   6.923  0.1475 -0.2427 -1.5326
 4803SOL    HW218326   4.486   7.212   6.968 -0.1296  0.3538  0.1163
 4804SOL     OW18327   7.006  10.070   7.597  0.3013  0.5794  0.0384
 4804SOL    HW118328   6.978  10.127   7.525 -0.6057 -1.1218 -1.0409
 4804SOL    HW218329   6.992  10.122   7.676  1.2870  2.4957 -0.9767
 4805SOL     OW18330   1.812   7.429   3.594 -0.0870 -0.1527  0.0253
 4805SOL    HW118331   1.827   7.496   3.660 -3.6731  0.2974  0.5873
 4805SOL    HW218332   1.842   7.348   3.635  1.5171  0.6710  0.5355
 4806SOL     OW18333   7.002  10.138   8.308 -0.4665 -0.2270  0.0776
 4806SOL    HW118334   7.085  10.146   8.260 -1.0883  1.3505 -0.7975
 4806SOL    HW218335   7.002  10.048   8.340  0.5724 -0.9606 -1.8005
 4807SOL     OW18336   6.694   9.980   9.100 -0.7928  0.3987 -0.5281
 4807SOL    HW118337   6.770   9.933   9.135 -0.4060  0.9264 -0.6401
 4807SOL    HW218338   6.708   9.979   9.005 -1.0588  0.2844 -0.5667
 4808SOL     OW18339   8.094   5.304   4.119  0.2946  0.2334 -0.4193
 4808SOL    HW118340   8.065   5.252   4.194 -0.8579  1.3242 -0.0766
 4808SOL    HW218341   8.173   5.349   4.149 -0.4485  1.0640  0.3363
 4809SOL     OW18342   6.854   5.651   6.089 -0.2807 -0.2709  0.5475
 4809SOL    HW118343   6.941   5.643   6.130 -0.6029  1.8396  1.7594
 4809SOL    HW218344   6.868   5.709   6.014 -0.6062 -0.0565  0.6501
 4810SOL     OW18345   4.614   9.971   4.226  0.0910  0.1967 -0.3883
 4810SOL    HW118346   4.519   9.971   4.216  0.2173  0.2305 -1.8956
 4810SOL    HW218347   4.629   9.938   4.314 -1.2997 -0.8738 -0.5121
 4811SOL     OW18348   2.349   4.581   9.793  0.2331 -0.6447  0.5708
 4811SOL    HW118349   2.438   4.550   9.809  0.8645  0.8330  0.1044
 4811SOL    HW218350   2.354   4.627   9.710 -0.8328 -0.0066  0.8372
 4812SOL     OW18351   1.959  10.191   7.428  0.1331  0.2050 -0.1531
 4812SOL    HW118352   1.971  10.185   7.523  0.6216 -1.6602 -0.2822
 4812SOL    HW218353   2.012  10.119   7.393  0.1926  1.0352 -1.8691
 4813SOL     OW18354   2.073   2.844   8.394 -0.0691 -0.0216  0.2924
 4813SOL    HW118355   1.999   2.790   8.367 -0.0060  0.0304  0.0099
 4813SOL    HW218356   2.105   2.883   8.313 -1.6210  2.3791  0.7413
 4814SOL     OW18357   8.131   9.139   0.779 -0.1316  0.1639 -0.5200
 4814SOL    HW118358   8.075   9.190   0.721 -0.9052 -0.9704 -0.8003
 4814SOL    HW218359   8.151   9.059   0.729 -0.0505 -0.4102  0.4068
 4815SOL     OW18360   6.707   0.917   2.960 -0.3038 -0.5344 -0.6073
 4815SOL    HW118361   6.667   0.992   2.917  0.7960  0.1441 -0.5076
 4815SOL    HW218362   6.643   0.889   3.026 -0.9704 -0.0567 -1.0428
 4816SOL     OW18363   6.429   8.637   8.441 -0.1588 -0.0777  0.4222
 4816SOL    HW118364   6.441   8.731   8.455 -1.0301  0.2546 -0.9597
 4816SOL    HW218365   6.405   8.604   8.528 -0.0084  0.9906  0.8976
 4817SOL     OW18366   3.524   1.702   3.174 -0.1025 -0.0869  0.4528
 4817SOL    HW118367   3.491   1.787   3.204  2.1128  0.6340  1.0320
 4817SOL    HW218368   3.538   1.714   3.080 -0.2562  0.0288  0.4446
 4818SOL     OW18369   8.761  10.166   8.085  0.0162  0.4457 -0.4298
 4818SOL    HW118370   8.694  10.185   8.020 -0.1793  0.1269 -0.3208
 4818SOL    HW218371   8.800  10.252   8.105  0.0015  0.5567 -0.8796
 4819SOL     OW18372   8.674   4.044   0.027 -0.3555  0.0219 -0.1393
 4819SOL    HW118373   8.625   4.105  -0.028 -0.5766 -0.7846 -0.8433
 4819SOL    HW218374   8.763   4.079   0.029 -0.6716  0.8508  0.1965
 4820SOL     OW18375   4.419   4.336   3.329  0.0053  0.1718 -0.4659
 4820SOL    HW118376   4.502   4.296   3.355 -0.5075  0.0068  1.0138
 4820SOL    HW218377   4.376   4.269   3.277  1.1216  0.5565 -1.9559
 4821SOL     OW18378   1.545   8.346   1.014 -0.2945 -0.2965  0.6329
 4821SOL    HW118379   1.559   8.369   0.922 -0.9079  0.4142  0.7142
 4821SOL    HW218380   1.567   8.253   1.018 -1.3421 -0.6292 -0.4843
 4822SOL     OW18381   1.911   2.567   3.678 -0.4743 -0.5966  0.1312
 4822SOL    HW118382   1.865   2.569   3.594  1.4362 -0.9897 -0.9952
 4822SOL    HW218383   1.949   2.479   3.682 -0.8305 -0.6984  1.5832
 4823SOL     OW18384   3.021   5.395   2.485 -0.1534 -0.5952  0.1560
 4823SOL    HW118385   3.108   5.371   2.518  0.4016  0.4063 -0.5189
 4823SOL    HW218386   3.006   5.482   2.519  0.0160  0.0761 -1.3885
 4824SOL     OW18387   3.204   9.331   9.969  0.2278 -0.0904 -0.7475
 4824SOL    HW118388   3.223   9.238   9.969  2.4290  0.3223 -0.9134
 4824SOL    HW218389   3.288   9.374   9.955 -0.3745  2.0057  1.3994
 4825SOL     OW18390   5.451   5.785   6.758  0.0892  0.2206 -0.0490
 4825SOL    HW118391   5.542   5.813   6.768  0.5693 -0.6288 -1.6982
 4825SOL    HW218392   5.419   5.831   6.681 -0.2683 -0.9031 -0.6038
 4826SOL     OW18393   5.843   1.952   7.773 -0.0424  0.9173  0.0862
 4826SOL    HW118394   5.887   2.037   7.770  0.8653  0.4421 -0.9100
 4826SOL    HW218395   5.914   1.889   7.761 -0.6594 -0.0087  1.1671
 4827SOL     OW18396   7.216   4.383   5.099 -0.0482 -0.0706 -0.3211
 4827SOL    HW118397   7.267   4.463   5.088 -0.6992  0.4147  0.1156
 4827SOL    HW218398   7.220   4.340   5.013 -1.1814  1.3292 -1.1255
 4828SOL     OW18399   1.794   7.532   0.902  0.4506 -0.1932 -0.2643
 4828SOL    HW118400   1.727   7.550   0.836  0.3837 -0.7600 -0.3605
 4828SOL    HW218401   1.869   7.500   0.853  0.4821 -0.3955 -0.0897
 4829SOL     OW18402   7.150   0.239   6.545 -0.3658  0.0335  0.2849
 4829SOL    HW118403   7.185   0.323   6.575 -1.2033  1.2763 -1.9452
 4829SOL    HW218404   7.087   0.214   6.612 -1.6840  2.3244  0.0040
 4830SOL     OW18405   2.970   0.596   2.139 -0.1429  0.3080 -0.1139
 4830SOL    HW118406   3.008   0.593   2.052  2.5449  2.1640  0.8769
 4830SOL    HW218407   3.032   0.549   2.195 -0.4234  1.4137  1.1999
 4831SOL     OW18408   1.237   6.057   1.682 -0.4478 -0.5192  0.1572
 4831SOL    HW118409   1.283   5.973   1.689  0.6677  0.1344  0.9764
 4831SOL    HW218410   1.288   6.107   1.619  0.4761  0.5017  1.6500
 4832SOL     OW18411   0.941   3.899   2.216 -0.3161 -0.1203  0.1122
 4832SOL    HW118412   0.947   3.989   2.248 -0.9230 -0.4815  1.3087
 4832SOL    HW218413   0.965   3.845   2.291  1.2308 -0.9580 -0.9203
 4833SOL     OW18414   9.178   3.901   4.790  0.1356  0.4569 -0.3978
 4833SOL    HW118415   9.212   3.887   4.878  0.7308  2.3240 -0.2900
 4833SOL    HW218416   9.083   3.894   4.799  0.2858 -1.6002 -0.0740
 4834SOL     OW18417   5.714   5.320   8.870 -0.1192 -0.1146 -0.2421
 4834SOL    HW118418   5.629   5.363   8.878  0.2884  0.5846  0.4729
 4834SOL    HW218419   5.766   5.356   8.942  0.5313 -1.1317 -0.1896
 4835SOL     OW18420   5.924   4.329   6.347 -1.0270 -0.1777 -0.0704
 4835SOL    HW118421   5.874   4.256   6.310 -0.5157  0.7642 -2.8793
 4835SOL    HW218422   5.970   4.367   6.272  1.6642  0.7745  1.8960
 4836SOL     OW18423   3.370   2.519   9.372  0.4556  0.3299 -0.8966
 4836SOL    HW118424   3.328   2.525   9.286  0.5603  0.6685 -0.9225
 4836SOL    HW218425   3.426   2.596   9.377  1.6991 -0.5238 -1.1874
 4837SOL     OW18426   4.210   8.132   4.791 -0.0410 -0.3956 -0.0286
 4837SOL    HW118427   4.190   8.171   4.706 -0.8953  0.8508  0.7186
 4837SOL    HW218428   4.227   8.040   4.772  1.7811  0.2541 -1.8165
 4838SOL     OW18429   3.893   1.130   7.903 -0.0093  0.4412 -0.3195
 4838SOL    HW118430   3.905   1.095   7.815 -1.6381 -0.1685 -0.3387
 4838SOL    HW218431   3.819   1.191   7.895 -0.8156 -0.3457  0.7933
 4839SOL     OW18432   5.087   4.130   7.207 -0.8593  0.1434 -0.1368
 4839SOL    HW118433   5.168   4.116   7.157 -0.5625 -3.6830  1.0771
 4839SOL    HW218434   5.108   4.202   7.267  1.7443 -0.8103  0.2183
 4840SOL     OW18435   6.919   6.303   5.966  0.2940 -0.3882  0.1773
 4840SOL    HW118436   7.007   6.270   5.948  0.9474  1.0552  0.5033
 4840SOL    HW218437   6.932   6.397   5.984 -1.5817  0.4710 -2.2842
 4841SOL     OW18438   7.436   1.988   4.950 -0.1022  0.4283 -0.2033
 4841SOL    HW118439   7.444   2.008   4.856 -0.4240 -0.9708 -0.5435
 4841SOL    HW218440   7.373   2.052   4.982 -0.9623  0.1271 -1.2209
 4842SOL     OW18441   5.114   7.084   4.726 -0.0473  0.2930  0.5581
 4842SOL    HW118442   5.157   7.166   4.748 -0.8197  0.3850  1.7780
 4842SOL    HW218443   5.148   7.021   4.790 -0.5741  0.0105  0.5671
 4843SOL     OW18444   1.385   0.093   3.809  0.2848  0.0484  0.5041
 4843SOL    HW118445   1.372   0.010   3.855 -0.2111  1.0567  2.2744
 4843SOL    HW218446   1.462   0.131   3.851 -0.3405  1.1176  0.7141
 4844SOL     OW18447   4.397   2.480   8.595  0.1098 -0.9551 -0.6875
 4844SOL    HW118448   4.427   2.418   8.662 -0.0031  0.3250  0.5993
 4844SOL    HW218449   4.469   2.485   8.532  1.0118 -0.7711  0.3366
 4845SOL     OW18450   8.211   1.226   3.598  0.5605 -0.3077  0.6842
 4845SOL    HW118451   8.225   1.160   3.529 -1.2985  0.9603 -1.0369
 4845SOL    HW218452   8.149   1.184   3.658  1.0477 -0.8943  0.7852
 4846SOL     OW18453   6.032   2.436   4.652 -0.3651 -0.1154  0.1047
 4846SOL    HW118454   6.121   2.423   4.617 -0.5500 -0.4018 -0.2649
 4846SOL    HW218455   5.975   2.426   4.576 -0.8225 -1.3118  0.5929
 4847SOL     OW18456   5.004   6.569   5.015 -0.2659 -0.3125  0.2807
 4847SOL    HW118457   4.978   6.636   4.952 -1.2690 -0.5130  0.4572
 4847SOL    HW218458   4.970   6.488   4.978 -1.1490 -0.3897  1.2206
 4848SOL     OW18459   6.564   8.199   6.492 -0.3123  0.5139  0.1978
 4848SOL    HW118460   6.500   8.128   6.479  1.1295 -0.9035  0.4875
 4848SOL    HW218461   6.632   8.160   6.547  0.2082  2.3578  0.9238
 4849SOL     OW18462   0.013   8.861   0.796 -0.2204  0.0551 -0.3169
 4849SOL    HW118463  -0.026   8.936   0.751 -2.7834 -1.8745 -1.5425
 4849SOL    HW218464  -0.035   8.855   0.878  1.2490  0.7733  0.6390
 4850SOL     OW18465   0.454   4.682   0.373  0.3147 -0.0619  0.4613
 4850SOL    HW118466   0.543   4.655   0.351  0.4528 -0.6558  1.6774
 4850SOL    HW218467   0.445   4.769   0.333  0.7975 -0.7523 -1.2015
 4851SOL     OW18468   8.354   7.296   2.461 -0.2585  0.6111  0.0136
 4851SOL    HW118469   8.388   7.343   2.537 -0.7381  0.7308  0.1526
 4851SOL    HW218470   8.393   7.340   2.386  0.3037  0.4254  0.1852
 4852SOL     OW18471   0.362   9.470   7.153  0.3370  0.2652 -1.1335
 4852SOL    HW118472   0.371   9.382   7.117  0.4009  0.1912 -0.9324
 4852SOL    HW218473   0.310   9.459   7.233 -0.7563  0.5683 -1.7750
 4853SOL     OW18474   6.949   1.229   9.578  0.0273  0.3643  0.2464
 4853SOL    HW118475   6.990   1.268   9.501  1.2359 -0.3077  0.5252
 4853SOL    HW218476   6.995   1.145   9.590  0.4470  0.8247  2.1715
 4854SOL     OW18477   4.101   4.008   8.288  0.5016  0.2061 -0.1988
 4854SOL    HW118478   4.084   3.923   8.248  2.4482 -2.1521  3.4967
 4854SOL    HW218479   4.157   4.053   8.225 -0.2927 -1.2986 -2.1108
 4855SOL     OW18480   4.243   3.189   3.468 -0.2213  0.1710  0.1288
 4855SOL    HW118481   4.165   3.231   3.432 -0.0751  0.2331 -0.1236
 4855SOL    HW218482   4.245   3.103   3.426  0.1374  0.3733 -0.2806
 4856SOL     OW18483   3.087   7.795   6.729 -0.5013 -0.8910  0.1219
 4856SOL    HW118484   3.118   7.846   6.803  1.5565 -0.1539 -1.1599
 4856SOL    HW218485   3.067   7.861   6.662  0.5428 -1.6622 -0.9765
 4857SOL     OW18486   8.477   8.759   1.973  0.0616 -0.1243  0.2004
 4857SOL    HW118487   8.397   8.757   2.026 -0.4380 -1.5481 -0.5525
 4857SOL    HW218488   8.452   8.718   1.890  1.4712 -0.2260 -0.2057
 4858SOL     OW18489   2.600   0.750   8.918 -0.1782  0.4728 -0.0549
 4858SOL    HW118490   2.614   0.698   8.998  1.1851  0.3120 -0.3734
 4858SOL    HW218491   2.563   0.688   8.855 -0.8922  0.5064  0.3219
 4859SOL     OW18492   3.033   9.775   1.264  0.1838 -0.4474 -0.4005
 4859SOL    HW118493   3.108   9.833   1.252  0.1766 -0.5183 -0.8062
 4859SOL    HW218494   3.063   9.711   1.329 -0.0959  0.4871  0.6755
 4860SOL     OW18495   2.907   1.608   8.466  0.1600  0.1005  0.7095
 4860SOL    HW118496   3.003   1.601   8.462  0.1275  0.2363 -1.2602
 4860SOL    HW218497   2.891   1.694   8.506  0.9550  1.5769 -1.9226
 4861SOL     OW18498   6.182  10.112   2.363 -0.2618 -0.0275 -0.0500
 4861SOL    HW118499   6.212  10.048   2.297  2.0992  0.3699  0.5341
 4861SOL    HW218500   6.150  10.186   2.311 -0.3770 -0.5463 -0.7431
 4862SOL     OW18501   6.438   9.872   3.177  0.4434 -0.6670  0.8359
 4862SOL    HW118502   6.360   9.817   3.186 -0.2286  0.1112 -0.0775
 4862SOL    HW218503   6.448   9.913   3.263 -1.2339  0.6006  0.4856
 4863SOL     OW18504   4.702   3.316   7.514  0.4630 -0.2887 -0.1993
 4863SOL    HW118505   4.716   3.400   7.558  0.4825  0.2764 -1.2417
 4863SOL    HW218506   4.767   3.258   7.553  1.9366  0.7722 -0.9666
 4864SOL     OW18507   5.188   8.518   8.388  0.2110 -0.3220 -0.1657
 4864SOL    HW118508   5.185   8.613   8.400  0.2941 -0.5678  2.3255
 4864SOL    HW218509   5.123   8.484   8.449 -0.4052 -1.8610 -1.6043
 4865SOL     OW18510   6.970   8.908   7.622 -0.1509  0.4217 -0.3349
 4865SOL    HW118511   6.878   8.897   7.601 -1.1317  3.6997  1.4814
 4865SOL    HW218512   6.995   8.991   7.581  2.2905 -0.7274 -1.4146
 4866SOL     OW18513   4.433  10.122   8.117  0.0139  0.1042 -0.3583
 4866SOL    HW118514   4.449  10.215   8.135  0.2654  0.0803 -0.4429
 4866SOL    HW218515   4.517  10.080   8.137  0.4683  0.1396 -2.0262
 4867SOL     OW18516   6.177   0.493   7.507  0.1235 -0.2203 -0.4195
 4867SOL    HW118517   6.088   0.510   7.537  0.0965 -0.2722 -0.4704
 4867SOL    HW218518   6.168   0.425   7.441  0.1491  0.1036 -0.7583
 4868SOL     OW18519   8.359   8.822   3.087  0.4717  0.5988 -0.4816
 4868SOL    HW118520   8.280   8.822   3.141 -1.1194  0.1369 -2.6508
 4868SOL    HW218521   8.397   8.908   3.100 -0.6296  0.9984  0.2811
 4869SOL     OW18522   0.765   7.969   8.370  0.0892  0.0955 -0.1144
 4869SOL    HW118523   0.711   7.915   8.313 -1.4483  0.3615  1.0149
 4869SOL    HW218524   0.704   8.031   8.410  1.2097  0.3777  1.2763
 4870SOL     OW18525   3.630   1.265   2.063 -0.1682 -0.4000  0.0966
 4870SOL    HW118526   3.627   1.256   1.968 -0.9461  1.6174 -0.1261
 4870SOL    HW218527   3.711   1.314   2.079  0.4741 -1.5726  0.6020
 4871SOL     OW18528   3.389   1.909   4.218 -0.2902  0.5462 -0.3316
 4871SOL    HW118529   3.347   1.880   4.299 -1.6553 -0.5742 -1.3885
 4871SOL    HW218530   3.372   2.003   4.215 -0.9792  0.4450  0.2644
 4872SOL     OW18531   0.156   5.837   2.692 -0.1133  0.1102  0.5789
 4872SOL    HW118532   0.250   5.833   2.678  0.0927  0.8456  1.6616
 4872SOL    HW218533   0.135   5.930   2.695 -0.8822 -0.0412  0.3462
 4873SOL     OW18534   0.450   3.536   7.518 -0.2222  0.9559 -0.5704
 4873SOL    HW118535   0.531   3.545   7.569 -1.4214  1.1018  1.4462
 4873SOL    HW218536   0.450   3.611   7.459  0.2655  1.9856  0.6835
 4874SOL     OW18537   4.262   4.851   9.147 -0.3644 -0.3212  0.7302
 4874SOL    HW118538   4.175   4.869   9.114 -0.1913  1.7799  1.2872
 4874SOL    HW218539   4.272   4.756   9.139 -2.3030 -0.4805 -0.2407
 4875SOL     OW18540   2.291   4.405   4.299  0.0480  0.3536 -0.2601
 4875SOL    HW118541   2.281   4.325   4.350  0.9081  0.1267 -0.4425
 4875SOL    HW218542   2.303   4.375   4.209  0.5105  0.6865 -0.3087
 4876SOL     OW18543   8.320   5.470   2.587  0.3584  0.4547  0.1356
 4876SOL    HW118544   8.290   5.498   2.673  1.0233  1.0036  0.1937
 4876SOL    HW218545   8.411   5.498   2.582 -0.0281  1.5785 -1.2423
 4877SOL     OW18546   5.493   0.337   9.428  0.6342 -0.3170 -0.0529
 4877SOL    HW118547   5.500   0.343   9.523 -2.3533 -2.0784  0.4089
 4877SOL    HW218548   5.523   0.249   9.407  0.9620 -0.0535 -0.7338
 4878SOL     OW18549   6.737   0.698   1.193  0.2784 -0.3499  0.6001
 4878SOL    HW118550   6.728   0.604   1.179  0.4482 -0.4192  0.9476
 4878SOL    HW218551   6.801   0.726   1.127 -0.9231 -0.2020 -0.5327
 4879SOL     OW18552   2.948   7.656   3.291 -0.5588 -0.0256  0.6938
 4879SOL    HW118553   2.981   7.631   3.204 -1.3413 -0.7982  0.5973
 4879SOL    HW218554   2.981   7.744   3.305 -0.3132  0.0645 -0.3443
 4880SOL     OW18555   9.996   6.284   4.171  0.1944 -0.1968  0.2510
 4880SOL    HW118556  10.016   6.200   4.129 -1.9149 -1.0502  0.8513
 4880SOL    HW218557   9.994   6.264   4.264 -1.0545  0.3382  0.3549
 4881SOL     OW18558   0.518   0.267   9.589 -0.0403 -0.0750  0.2701
 4881SOL    HW118559   0.554   0.291   9.503  0.3414 -0.8448  0.2053
 4881SOL    HW218560   0.589   0.283   9.650  0.1681 -0.8661  0.2456
 4882SOL     OW18561   1.678   7.816   1.837  0.3936 -0.6109  0.6310
 4882SOL    HW118562   1.680   7.848   1.928 -0.1851 -2.1151  1.2075
 4882SOL    HW218563   1.596   7.767   1.831 -0.8151  1.5130 -1.4748
 4883SOL     OW18564   8.657   0.475   7.399  0.6320 -0.2986  0.0764
 4883SOL    HW118565   8.736   0.460   7.346  0.7226  2.2193 -0.6251
 4883SOL    HW218566   8.621   0.387   7.412  3.6120 -1.5918  0.6022
 4884SOL     OW18567   7.844   2.998   6.650  0.5777  0.6049  0.9157
 4884SOL    HW118568   7.925   2.998   6.702  0.7359  0.5619  0.6678
 4884SOL    HW218569   7.866   2.949   6.571  0.2471  0.4088  0.9445
 4885SOL     OW18570   5.146   1.903   1.389 -0.7444 -0.0481 -0.2430
 4885SOL    HW118571   5.194   1.950   1.456  0.5521 -0.2979 -0.9738
 4885SOL    HW218572   5.071   1.865   1.436 -0.1318  0.1726  0.9558
 4886SOL     OW18573   5.065   7.451   3.044  0.0612 -0.3558  0.9404
 4886SOL    HW118574   5.017   7.469   3.125  1.7010 -1.3725  2.1885
 4886SOL    HW218575   5.016   7.380   3.002 -1.5935  1.1057  0.2616
 4887SOL     OW18576   0.341   0.225   7.455  0.2854  0.6808 -0.2506
 4887SOL    HW118577   0.371   0.273   7.532 -0.9110  0.1151  0.6089
 4887SOL    HW218578   0.246   0.237   7.456  0.2428  0.5750 -1.5954
 4888SOL     OW18579   8.043   0.016   7.717 -0.2948  0.1149  0.3099
 4888SOL    HW118580   8.033  -0.007   7.624  0.0370  2.1753 -0.2862
 4888SOL    HW218581   8.116   0.078   7.719  0.5013 -0.8050  2.1397
 4889SOL     OW18582   7.682   2.509   9.883 -0.1935  0.1949 -0.1423
 4889SOL    HW118583   7.666   2.415   9.882  0.6107  0.0405  0.4986
 4889SOL    HW218584   7.595   2.548   9.891 -0.4039 -0.5676  1.7712
 4890SOL     OW18585   6.068   5.441   5.584  0.3807  0.1828 -0.3786
 4890SOL    HW118586   6.130   5.512   5.602  0.1190  0.0343  1.2793
 4890SOL    HW218587   6.073   5.429   5.490  1.7310  1.2194 -0.4805
 4891SOL     OW18588   8.696   7.780   5.880 -0.3155  0.3376 -0.2544
 4891SOL    HW118589   8.730   7.869   5.870  0.7481 -0.2432 -3.0561
 4891SOL    HW218590   8.691   7.747   5.790 -4.4354 -1.1447  0.3260
 4892SOL     OW18591   5.189   0.292   1.302  0.1303  0.5724  0.0163
 4892SOL    HW118592   5.156   0.360   1.244  1.6217  0.2315 -1.3163
 4892SOL    HW218593   5.278   0.318   1.322  1.4450 -1.7904 -2.0719
 4893SOL     OW18594   3.194   1.091   4.806  0.0380  0.7221  0.1107
 4893SOL    HW118595   3.283   1.103   4.840  1.1678 -0.4106 -2.1687
 4893SOL    HW218596   3.159   1.016   4.855  1.9253 -1.4104 -1.5410
 4894SOL     OW18597   5.728   7.963   2.851  0.2031 -0.3557 -0.0902
 4894SOL    HW118598   5.660   8.030   2.851  1.0961  0.7487  3.2913
 4894SOL    HW218599   5.689   7.888   2.896  0.4825 -0.6191 -0.2762
 4895SOL     OW18600   0.238   6.092   4.552 -0.1480 -0.1376  0.2162
 4895SOL    HW118601   0.312   6.147   4.579  0.5066 -0.0389 -1.6316
 4895SOL    HW218602   0.279   6.019   4.506 -1.1617 -0.7601  0.2741
 4896SOL     OW18603   0.099   0.980   6.547  0.0838  0.4812 -0.0281
 4896SOL    HW118604   0.034   1.017   6.608 -1.1193 -0.1514 -0.8778
 4896SOL    HW218605   0.103   1.044   6.476  0.6376  0.6695  0.1711
 4897SOL     OW18606   3.852   5.997   1.255 -0.1574 -0.1630  0.2813
 4897SOL    HW118607   3.866   5.929   1.189 -0.9416 -1.0885  1.0432
 4897SOL    HW218608   3.862   5.952   1.339  2.4613  1.3286  0.8754
 4898SOL     OW18609   6.813   8.383   1.543  0.0588 -0.1465 -0.2162
 4898SOL    HW118610   6.812   8.314   1.476 -0.8161 -0.7716  0.4130
 4898SOL    HW218611   6.777   8.460   1.499 -2.5576 -1.1137  0.0608
 4899SOL     OW18612   9.210   1.762   2.477 -0.0832 -0.5535  0.1861
 4899SOL    HW118613   9.177   1.721   2.397  0.8500 -0.3013 -0.3524
 4899SOL    HW218614   9.187   1.855   2.468  1.2578 -0.2585 -0.4906
 4900SOL     OW18615   7.471   7.192   1.696 -0.0741  0.0373  1.1473
 4900SOL    HW118616   7.537   7.262   1.702 -1.6427  1.5943  1.0486
 4900SOL    HW218617   7.418   7.216   1.620 -2.9321  0.8464  3.2467
 4901SOL     OW18618   0.960   2.808   3.445  0.3191  0.1950 -0.2284
 4901SOL    HW118619   1.004   2.744   3.501  0.0863  1.0208  0.9296
 4901SOL    HW218620   0.886   2.759   3.408  0.8054 -0.5208 -0.2841
 4902SOL     OW18621   7.182   9.260   2.454 -0.2851  0.3732 -0.1015
 4902SOL    HW118622   7.242   9.332   2.435 -1.0558  1.4896  1.3870
 4902SOL    HW218623   7.099   9.304   2.474 -1.0350 -0.9997 -0.1072
 4903SOL     OW18624   9.098   1.853   6.141  0.1190 -0.2908 -0.4203
 4903SOL    HW118625   9.023   1.850   6.201  0.5157 -0.1033  0.0929
 4903SOL    HW218626   9.122   1.761   6.129 -1.3576 -0.5197 -2.0976
 4904SOL     OW18627   5.494   0.587   1.982 -0.0427 -0.1317 -0.8632
 4904SOL    HW118628   5.540   0.525   2.039 -0.0555 -0.7498 -1.5134
 4904SOL    HW218629   5.487   0.542   1.899 -1.6445  0.0485 -0.8463
 4905SOL     OW18630   5.660   1.204   7.188  0.2533 -0.1369  0.1802
 4905SOL    HW118631   5.738   1.219   7.135  0.6536  2.3944  1.2959
 4905SOL    HW218632   5.691   1.151   7.262 -0.1520 -3.0161 -1.5548
 4906SOL     OW18633   0.945   1.353   5.149 -0.3055  0.0125  0.4134
 4906SOL    HW118634   1.029   1.384   5.182 -0.1499  1.2437 -1.0507
 4906SOL    HW218635   0.939   1.263   5.181  1.9261 -0.3738 -0.0998
 4907SOL     OW18636   1.690   5.675   4.863 -0.1332 -0.3741 -0.2599
 4907SOL    HW118637   1.709   5.734   4.936 -2.1868  1.8683 -1.3812
 4907SOL    HW218638   1.773   5.665   4.818  0.6492  0.2029  1.0103
 4908SOL     OW18639   0.939   5.245   3.719  0.1480  0.2787  0.6653
 4908SOL    HW118640   0.866   5.296   3.754  0.1970 -1.1399  2.9983
 4908SOL    HW218641   0.965   5.293   3.640 -3.1651  0.9371 -0.2150
 4909SOL     OW18642   8.867   9.887   4.875  0.4434 -0.5284 -0.0306
 4909SOL    HW118643   8.842   9.799   4.848 -0.6568 -0.2862  0.1519
 4909SOL    HW218644   8.802   9.912   4.941  1.1218  0.1737  0.3937
 4910SOL     OW18645   0.364   7.113   6.566 -0.4431 -0.3272  0.3533
 4910SOL    HW118646   0.447   7.074   6.538 -0.6202  0.9051 -2.1536
 4910SOL    HW218647   0.297   7.055   6.531 -0.6572  0.6163 -0.8583
 4911SOL     OW18648   7.956   7.534   5.666 -0.9540 -0.1069  0.1515
 4911SOL    HW118649   7.956   7.614   5.718 -2.9421 -1.2200  2.0330
 4911SOL    HW218650   7.892   7.550   5.597 -0.7545  0.1991  0.0345
 4912SOL     OW18651   8.816   9.826   0.962  0.5018 -0.0692  0.3212
 4912SOL    HW118652   8.896   9.814   0.910  2.6029  1.5298  2.8919
 4912SOL    HW218653   8.811   9.920   0.977  0.3719 -0.4797  3.3923
 4913SOL     OW18654   4.955   4.085   4.991  0.0905 -0.3270 -0.5653
 4913SOL    HW118655   4.967   4.066   4.897 -0.6155 -0.0928 -0.7121
 4913SOL    HW218656   5.020   4.152   5.011 -0.5840  0.5511 -1.2076
 4914SOL     OW18657   2.038   9.305   7.295  0.3741  0.2329  0.2717
 4914SOL    HW118658   1.955   9.277   7.334  0.7203  2.0772  2.6069
 4914SOL    HW218659   2.105   9.262   7.348  0.9315 -0.3300 -0.8580
 4915SOL     OW18660   9.819   4.960   7.619 -0.1246 -0.1868 -0.5590
 4915SOL    HW118661   9.907   4.980   7.587 -0.0153 -0.6341 -0.5456
 4915SOL    HW218662   9.783   5.044   7.646  0.6811 -0.1322  0.4044
 4916SOL     OW18663   3.085   0.188   3.274 -0.4942  0.1879  0.3818
 4916SOL    HW118664   3.104   0.226   3.360  0.4338  0.9498 -0.1386
 4916SOL    HW218665   3.080   0.263   3.215 -0.4434 -0.3752 -0.3564
 4917SOL     OW18666   5.158   2.714   3.714  0.0178 -0.2928 -0.3307
 4917SOL    HW118667   5.071   2.706   3.674 -0.3193  0.9642  0.0825
 4917SOL    HW218668   5.195   2.793   3.674  0.5730 -0.2768  0.2045
 4918SOL     OW18669   3.721   4.782   0.996 -0.1909 -0.1262  0.3656
 4918SOL    HW118670   3.775   4.858   0.974  0.8557 -1.3468 -1.6083
 4918SOL    HW218671   3.784   4.716   1.025 -0.8829 -0.8319  0.2812
 4919SOL     OW18672   7.000   8.428   6.012  0.5130 -0.3306 -0.0822
 4919SOL    HW118673   7.078   8.479   5.991  0.2857 -0.0420 -0.2280
 4919SOL    HW218674   6.965   8.470   6.091 -0.2795  0.4183 -0.8203
 4920SOL     OW18675   8.771   9.161   4.956  0.1918 -0.2717  0.2486
 4920SOL    HW118676   8.837   9.204   4.903  0.9275 -0.4423  1.0090
 4920SOL    HW218677   8.715   9.232   4.987  0.9234  0.0521  0.8400
 4921SOL     OW18678   8.459   0.508   3.924 -0.2850 -0.0862 -0.4518
 4921SOL    HW118679   8.539   0.531   3.876  0.8437 -1.3029  0.7394
 4921SOL    HW218680   8.439   0.587   3.975  1.2224 -0.3021  0.5618
 4922SOL     OW18681   6.368   5.212   4.102 -0.3644  0.5588 -0.0324
 4922SOL    HW118682   6.452   5.211   4.057  0.1552  0.9990  0.8940
 4922SOL    HW218683   6.305   5.240   4.036  0.2898  0.6559 -0.6227
 4923SOL     OW18684   9.068   0.877   0.237  0.0297 -0.6411 -0.0417
 4923SOL    HW118685   9.074   0.782   0.249 -3.8508 -0.8812  1.3086
 4923SOL    HW218686   9.110   0.914   0.314  1.0624 -1.2045 -0.3033
 4924SOL     OW18687   8.828   0.140   7.052 -0.2362 -0.2132 -0.2194
 4924SOL    HW118688   8.856   0.231   7.039 -0.9661  0.1611  0.6835
 4924SOL    HW218689   8.786   0.115   6.969 -0.1123  0.3053 -0.4407
 4925SOL     OW18690   8.264   6.657   4.459  0.2887  0.2825 -0.4665
 4925SOL    HW118691   8.328   6.593   4.489  1.4312  1.4703 -0.2574
 4925SOL    HW218692   8.317   6.733   4.434 -0.8988  0.6355 -2.0784
 4926SOL     OW18693   9.525   1.097   6.765  0.6340 -0.3022 -0.4257
 4926SOL    HW118694   9.589   1.029   6.785  0.5188 -0.4992 -0.7224
 4926SOL    HW218695   9.467   1.098   6.842  2.0849  1.1848  0.7138
 4927SOL     OW18696   1.707   1.139   9.162 -0.2704  0.0165  0.1541
 4927SOL    HW118697   1.635   1.199   9.142  0.5316  1.0282  0.2506
 4927SOL    HW218698   1.680   1.096   9.243 -0.3709  1.0497  0.6789
 4928SOL     OW18699   0.379   5.462   6.485 -0.3574  0.1068 -0.0061
 4928SOL    HW118700   0.420   5.456   6.571  0.0639 -0.4841 -0.2338
 4928SOL    HW218701   0.287   5.442   6.501 -0.2265 -0.3039  0.2706
 4929SOL     OW18702   8.886   8.810   0.911  0.0783 -0.2668 -0.0838
 4929SOL    HW118703   8.891   8.751   0.986  1.2726 -0.0122  0.0527
 4929SOL    HW218704   8.792   8.830   0.903 -0.0779 -0.3027  1.3330
 4930SOL     OW18705   4.320   4.204   1.362 -0.5775 -0.1450 -0.5526
 4930SOL    HW118706   4.289   4.146   1.292 -1.1074 -1.6897  0.8713
 4930SOL    HW218707   4.314   4.150   1.441  0.8794  1.2303  0.5496
 4931SOL     OW18708   1.578   4.361   1.771 -0.2703 -0.0875 -0.0978
 4931SOL    HW118709   1.624   4.353   1.687  0.1765 -2.9069  0.3217
 4931SOL    HW218710   1.642   4.403   1.829 -0.2076  0.9160 -0.8587
 4932SOL     OW18711   4.349   4.741   2.956  0.2416 -0.3016  0.0534
 4932SOL    HW118712   4.343   4.738   3.052 -0.1300 -2.2272  0.0113
 4932SOL    HW218713   4.426   4.689   2.935 -0.1242 -0.5302 -0.7355
 4933SOL     OW18714   8.318   5.492   4.172 -0.5939  0.2337  0.4972
 4933SOL    HW118715   8.397   5.442   4.151 -1.1362 -0.2365 -0.5179
 4933SOL    HW218716   8.347   5.583   4.173 -0.4616  0.3184 -2.3833
 4934SOL     OW18717   6.143   4.328   7.764 -0.1356  0.1283 -0.8067
 4934SOL    HW118718   6.163   4.368   7.680  3.2985 -1.1359 -0.7559
 4934SOL    HW218719   6.137   4.234   7.746 -2.3130  0.0549 -0.0335
 4935SOL     OW18720   6.725   5.045   7.017 -0.2975 -0.2537 -1.0138
 4935SOL    HW118721   6.649   5.101   7.029 -0.5776 -0.8385  0.1190
 4935SOL    HW218722   6.691   4.956   7.028  0.5032 -0.5367 -0.7380
 4936SOL     OW18723   7.669   1.199   2.561  0.1240  0.4841 -0.2730
 4936SOL    HW118724   7.587   1.212   2.513 -0.0404  0.5305  0.0166
 4936SOL    HW218725   7.737   1.219   2.498 -0.1028  1.4830 -0.2160
 4937SOL     OW18726   2.265   4.019   6.629  0.1277  0.0469  0.0102
 4937SOL    HW118727   2.234   3.934   6.662  1.2436 -0.7835 -1.0018
 4937SOL    HW218728   2.337   4.042   6.688 -0.0799  0.2260  0.1957
 4938SOL     OW18729   1.863   3.340   2.425  0.3567  0.3298  0.4549
 4938SOL    HW118730   1.818   3.402   2.368 -1.8598 -1.0798  0.5782
 4938SOL    HW218731   1.800   3.320   2.493  2.4566  0.9185  2.7247
 4939SOL     OW18732   4.519   7.841   9.741 -0.4159 -0.3474  0.1315
 4939SOL    HW118733   4.575   7.776   9.699 -0.4609  0.4747 -1.2558
 4939SOL    HW218734   4.537   7.831   9.835  0.7962 -1.2282 -0.1740
 4940SOL     OW18735   5.896   0.261   9.794  0.5608  0.1558 -0.0265
 4940SOL    HW118736   5.897   0.338   9.737 -0.6540 -0.3594 -0.7991
 4940SOL    HW218737   5.988   0.242   9.812  0.9910  0.2251 -1.9795
 4941SOL     OW18738   8.330   4.865   5.451 -0.0740  0.2398 -0.2002
 4941SOL    HW118739   8.291   4.789   5.493 -0.4707 -0.8725 -2.4261
 4941SOL    HW218740   8.343   4.928   5.522  0.3876 -1.9145  1.7358
 4942SOL     OW18741   9.308   3.253   4.932  0.4652 -0.4072  0.3956
 4942SOL    HW118742   9.305   3.345   4.957 -0.2142 -0.2094 -0.3697
 4942SOL    HW218743   9.345   3.252   4.844  0.7806 -0.9001  0.5276
 4943SOL     OW18744   8.883   2.661   0.742 -0.0874 -0.2502 -0.1025
 4943SOL    HW118745   8.825   2.592   0.711  0.1802 -0.0984 -0.9561
 4943SOL    HW218746   8.882   2.651   0.838  0.0475 -1.5195 -0.2098
 4944SOL     OW18747   7.867   8.299   3.014 -0.4431  0.1581 -0.2992
 4944SOL    HW118748   7.947   8.251   2.993 -0.5838  0.1021 -0.6887
 4944SOL    HW218749   7.891   8.351   3.092  1.0411  2.7013 -2.2816
 4945SOL     OW18750   4.877   2.447   7.552  0.6872  0.0272  0.1415
 4945SOL    HW118751   4.907   2.533   7.580 -1.0128 -0.1091  2.7071
 4945SOL    HW218752   4.888   2.391   7.629 -1.8388 -1.0421 -0.1499
 4946SOL     OW18753   3.160   3.115   0.126 -0.3332  0.1167 -0.3533
 4946SOL    HW118754   3.193   3.165   0.201 -1.4093 -0.2994  0.4237
 4946SOL    HW218755   3.163   3.024   0.154 -0.3550 -0.0828 -0.9780
 4947SOL     OW18756   4.593   6.869   4.634  0.3732  0.2277 -0.1256
 4947SOL    HW118757   4.666   6.835   4.582 -0.2269  1.1320 -1.6167
 4947SOL    HW218758   4.613   6.841   4.724  1.1555 -1.8817 -0.8744
 4948SOL     OW18759   4.529   6.140   4.693  0.2610 -0.7260  0.5179
 4948SOL    HW118760   4.622   6.123   4.701  0.2310 -0.8381  0.6285
 4948SOL    HW218761   4.511   6.134   4.599  0.2405 -1.3674  0.5599
 4949SOL     OW18762  10.197   5.932   8.963  0.3437  0.2038 -0.0604
 4949SOL    HW118763  10.242   5.999   9.014 -0.2358  1.4156 -1.0787
 4949SOL    HW218764  10.140   5.887   9.026  2.2640 -0.7795  1.0639
 4950SOL     OW18765   3.911   3.681   2.735 -0.5789  0.2117 -0.4101
 4950SOL    HW118766   3.837   3.740   2.747 -0.5603 -0.2515  3.4035
 4950SOL    HW218767   3.976   3.711   2.799  0.7791 -1.9073 -0.6939
 4951SOL     OW18768   9.114   4.384   8.598  0.0904  0.4029  0.1068
 4951SOL    HW118769   9.189   4.351   8.548  0.8290  2.5838 -0.2975
 4951SOL    HW218770   9.148   4.399   8.686  0.5006  2.4593 -0.3514
 4952SOL     OW18771   6.260   1.167   8.411 -0.2129 -0.1763 -0.6123
 4952SOL    HW118772   6.206   1.169   8.490 -0.1911 -0.6648 -0.5847
 4952SOL    HW218773   6.198   1.157   8.339 -0.2700  0.7109 -0.7013
 4953SOL     OW18774   3.396   1.609   6.323  0.4233  0.3838  0.0127
 4953SOL    HW118775   3.481   1.653   6.312  0.9680 -0.6389 -0.0517
 4953SOL    HW218776   3.386   1.601   6.418  0.5635  0.2047  0.0133
 4954SOL     OW18777   9.712   8.805   3.845  0.0496 -0.0333 -0.2240
 4954SOL    HW118778   9.701   8.872   3.778 -0.0450  0.1284 -0.0471
 4954SOL    HW218779   9.740   8.854   3.923 -0.8495 -0.0998  0.1450
 4955SOL     OW18780   9.523   4.551   1.109  0.0243  0.4026  0.0379
 4955SOL    HW118781   9.605   4.541   1.157 -0.3698 -0.6588  0.5337
 4955SOL    HW218782   9.455   4.550   1.176 -0.4445  0.4115 -0.4261
 4956SOL     OW18783   2.811   9.436   4.369  0.1476 -0.5284  0.1179
 4956SOL    HW118784   2.845   9.395   4.290  0.0381  1.6900 -1.1333
 4956SOL    HW218785   2.882   9.429   4.432  1.4289  0.4140 -1.1654
 4957SOL     OW18786   6.624   1.320   1.762  0.7454  0.4859  0.1347
 4957SOL    HW118787   6.558   1.296   1.697  0.2618 -0.2642  0.8782
 4957SOL    HW218788   6.624   1.247   1.824  1.2419  1.1522  0.9428
 4958SOL     OW18789  10.180   5.586   9.958  0.0123  0.3298 -0.3522
 4958SOL    HW118790  10.087   5.604   9.946  0.0243 -0.0295 -1.0280
 4958SOL    HW218791  10.199   5.515   9.897  1.1983  1.8687 -1.8717
 4959SOL     OW18792   2.008   0.341   3.602 -0.0843 -0.3104 -0.6121
 4959SOL    HW118793   1.913   0.334   3.591  0.0353 -0.4533 -1.6165
 4959SOL    HW218794   2.031   0.263   3.653 -0.5287 -0.1489 -0.1498
 4960SOL     OW18795   1.230   2.055   3.821  0.7706 -0.6329 -0.0658
 4960SOL    HW118796   1.276   2.139   3.819  0.6860 -0.5910 -2.1534
 4960SOL    HW218797   1.244   2.023   3.910  4.0983 -0.1958 -0.2842
 4961SOL     OW18798   4.162   6.004   6.658  0.3239  0.4065  0.5371
 4961SOL    HW118799   4.140   6.081   6.710  0.7061  0.7838  0.1537
 4961SOL    HW218800   4.090   5.996   6.596  0.0341  0.1566  0.9093
 4962SOL     OW18801   0.324   1.152   4.951 -0.6502 -0.7861  0.4710
 4962SOL    HW118802   0.302   1.078   4.895 -1.3039  0.2730 -0.7257
 4962SOL    HW218803   0.337   1.114   5.038  2.3144 -2.8069 -0.6833
 4963SOL     OW18804   0.096   5.692   2.908  0.7140  0.0030  0.4589
 4963SOL    HW118805   0.109   5.742   2.827  2.9122  0.1822  0.8544
 4963SOL    HW218806   0.101   5.757   2.978  0.0213 -0.3109  0.8102
 4964SOL     OW18807   6.682   7.656   8.447 -0.0596 -0.3962 -0.0220
 4964SOL    HW118808   6.746   7.715   8.487 -1.7116  1.9532 -0.6261
 4964SOL    HW218809   6.725   7.570   8.447  2.4371  0.7571  0.9898
 4965SOL     OW18810   7.616   7.536   5.859  0.3324  0.1865  0.4536
 4965SOL    HW118811   7.639   7.541   5.952 -0.0786  0.1342  0.5601
 4965SOL    HW218812   7.520   7.540   5.858  0.3210 -0.1342  0.0545
 4966SOL     OW18813   0.965   7.902   7.371  0.4962 -0.1070  0.2954
 4966SOL    HW118814   1.044   7.929   7.323  0.6560  0.6840  0.9817
 4966SOL    HW218815   0.902   7.972   7.354  0.4080 -0.0414  0.8729
 4967SOL     OW18816   9.309   5.711   3.993  0.3381  0.8298 -0.9120
 4967SOL    HW118817   9.320   5.632   3.940  1.3512  0.9671 -0.9247
 4967SOL    HW218818   9.384   5.765   3.971  1.4149  0.4247  1.4856
 4968SOL     OW18819   0.097   0.915   2.466  0.5176 -0.2934  0.1987
 4968SOL    HW118820   0.093   0.842   2.404  0.2778 -1.4080  1.4905
 4968SOL    HW218821   0.036   0.891   2.536  0.4748  1.1244  0.6754
 4969SOL     OW18822   3.768   3.527   0.818 -0.3964  0.2644 -0.2650
 4969SOL    HW118823   3.693   3.472   0.797  0.3194 -1.8451  2.1621
 4969SOL    HW218824   3.843   3.480   0.781  0.0067  0.9630 -0.3586
 4970SOL     OW18825   2.605   0.160   5.223  0.8449  0.0737 -0.4371
 4970SOL    HW118826   2.535   0.170   5.287  1.8411 -0.2245  0.7294
 4970SOL    HW218827   2.560   0.135   5.142 -0.2688 -1.9532  0.7371
 4971SOL     OW18828   2.953   0.932   5.083 -0.3611 -0.1503 -0.2216
 4971SOL    HW118829   2.981   1.007   5.135 -1.0424 -0.1268  0.1249
 4971SOL    HW218830   3.035   0.885   5.062  0.0258  0.4699 -0.1152
 4972SOL     OW18831   7.656   9.897   1.060 -0.0103 -0.4253  0.0974
 4972SOL    HW118832   7.624   9.894   0.970 -0.3868 -0.1133  0.2224
 4972SOL    HW218833   7.720   9.968   1.061  0.8194 -1.1428 -0.1887
 4973SOL     OW18834  10.008   1.978   2.637  0.3922  0.0403 -0.1127
 4973SOL    HW118835   9.954   2.034   2.582 -0.5132 -1.3489 -0.6792
 4973SOL    HW218836   9.947   1.918   2.679  1.3989 -1.1240 -0.2287
 4974SOL     OW18837   2.548   7.740   3.812 -0.0606 -0.2858 -0.4453
 4974SOL    HW118838   2.468   7.783   3.841  0.0030  0.7623 -1.7464
 4974SOL    HW218839   2.527   7.707   3.725  1.4593  1.6962 -1.6464
 4975SOL     OW18840   9.083   4.000   4.509 -0.7861  0.7920  0.0438
 4975SOL    HW118841   9.160   4.056   4.520 -1.3063  1.0344  3.2095
 4975SOL    HW218842   9.118   3.911   4.516 -0.6318  0.8660  0.2215
 4976SOL     OW18843   8.775   8.934   5.543 -0.1981 -0.3940  0.0061
 4976SOL    HW118844   8.766   9.028   5.558  1.2463 -0.0944 -0.7865
 4976SOL    HW218845   8.797   8.927   5.450 -2.6847 -1.7132 -0.5521
 4977SOL     OW18846   8.048   7.716   8.626  0.0499  0.0345  0.3282
 4977SOL    HW118847   8.136   7.697   8.593  0.3173 -1.6664  1.8785
 4977SOL    HW218848   8.012   7.778   8.562  1.5997 -0.8142 -1.4855
 4978SOL     OW18849   3.761   3.366   6.328  0.6924  0.2121 -0.1623
 4978SOL    HW118850   3.813   3.410   6.395  0.3734 -1.5281  1.2790
 4978SOL    HW218851   3.746   3.278   6.362 -1.3555 -0.0402 -1.5206
 4979SOL     OW18852   4.126   5.449   7.395  0.2311  0.6370 -0.0287
 4979SOL    HW118853   4.135   5.521   7.457 -0.2031  1.2304 -0.6395
 4979SOL    HW218854   4.083   5.379   7.445  1.5163  0.4423  0.8318
 4980SOL     OW18855   4.321   5.870   7.330  0.1615  0.3552  0.0597
 4980SOL    HW118856   4.245   5.837   7.281 -0.6179  0.3357  1.2560
 4980SOL    HW218857   4.324   5.963   7.310 -0.2573  0.3816  0.1126
 4981SOL     OW18858   1.607   7.490   8.915 -0.5069  0.4910 -0.4934
 4981SOL    HW118859   1.681   7.470   8.858 -0.9809 -0.1559 -0.8999
 4981SOL    HW218860   1.542   7.423   8.894 -1.3260  1.2223 -0.3660
 4982SOL     OW18861   7.615   4.849   2.201  0.5640  0.7930 -0.3035
 4982SOL    HW118862   7.680   4.913   2.229  0.5404  0.9799 -0.6710
 4982SOL    HW218863   7.614   4.784   2.271  2.0357  0.1304 -0.8556
 4983SOL     OW18864   5.158   5.226   2.373  0.4699  0.2648  0.6577
 4983SOL    HW118865   5.221   5.155   2.386 -0.0875 -0.4043 -0.1456
 4983SOL    HW218866   5.091   5.188   2.317  1.2790  2.0454 -1.7154
 4984SOL     OW18867   5.096   4.571   7.068 -0.9747  0.1477 -0.2365
 4984SOL    HW118868   5.152   4.646   7.048  0.9210 -0.2809  2.8288
 4984SOL    HW218869   5.130   4.500   7.013  0.4672  0.3041  0.4360
 4985SOL     OW18870   0.083   5.065   3.440 -0.3779  0.0059  0.4300
 4985SOL    HW118871   0.090   5.125   3.366 -1.0457  0.2338  0.5408
 4985SOL    HW218872  -0.009   5.036   3.439 -0.1689 -0.6836  0.6318
 4986SOL     OW18873   2.646   3.763   8.647 -0.1318 -0.1018 -0.2241
 4986SOL    HW118874   2.607   3.833   8.699  1.3582  1.1526 -0.7026
 4986SOL    HW218875   2.733   3.796   8.625  0.6157 -2.1066 -0.4990
 4987SOL     OW18876   1.573   7.635   0.699 -0.2127 -0.7218  0.3584
 4987SOL    HW118877   1.609   7.638   0.611 -0.8514 -2.2137  0.0166
 4987SOL    HW218878   1.532   7.721   0.712  0.8984 -0.0710 -0.3285
 4988SOL     OW18879   5.255   5.101   8.869  0.0610  0.1499 -0.0889
 4988SOL    HW118880   5.196   5.166   8.832 -0.0650 -0.9119 -1.9298
 4988SOL    HW218881   5.327   5.151   8.906  0.8945  1.3719 -3.0888
 4989SOL     OW18882   6.204   0.389   3.842 -0.1160 -0.2388 -0.4945
 4989SOL    HW118883   6.289   0.347   3.852  0.0155  0.0509 -0.3898
 4989SOL    HW218884   6.222   0.469   3.793 -0.1312  0.4533  0.5792
 4990SOL     OW18885   7.936   8.147   2.376 -0.1192  0.1668 -0.3738
 4990SOL    HW118886   7.941   8.199   2.456 -2.3797  1.4370 -0.9743
 4990SOL    HW218887   7.940   8.056   2.407 -0.1728  0.6398  1.1125
 4991SOL     OW18888   5.247   6.153   5.497  0.0296 -0.2938 -0.6507
 4991SOL    HW118889   5.171   6.163   5.439  1.5830  3.7866 -2.3573
 4991SOL    HW218890   5.227   6.207   5.573  0.7659 -0.0086 -0.6453
 4992SOL     OW18891   2.288   1.503   9.419  0.0649 -0.3812 -0.1125
 4992SOL    HW118892   2.321   1.458   9.341  0.4178 -0.2759 -0.0264
 4992SOL    HW218893   2.219   1.445   9.452  2.2133 -2.2425  1.4618
 4993SOL     OW18894   9.000   7.560   3.846  0.4098 -0.4457  0.4682
 4993SOL    HW118895   9.057   7.531   3.775 -1.5659 -1.3039 -0.8685
 4993SOL    HW218896   8.948   7.483   3.868 -2.4833  1.0319 -0.6570
 4994SOL     OW18897   7.465   6.961   2.305 -0.1170 -0.0725 -0.2094
 4994SOL    HW118898   7.421   6.899   2.363  0.7850 -1.8581 -1.3129
 4994SOL    HW218899   7.513   7.020   2.363 -1.4538 -0.0449  0.9026
 4995SOL     OW18900   9.500   6.617   5.040  0.0374 -0.1123  0.0053
 4995SOL    HW118901   9.456   6.688   5.086  2.0098 -0.2220  2.2691
 4995SOL    HW218902   9.526   6.556   5.109  1.7440 -1.1080 -1.4385
 4996SOL     OW18903   7.722   1.958   1.175 -0.3765 -0.0646  0.9234
 4996SOL    HW118904   7.692   1.990   1.261  0.3685  0.4465  1.0043
 4996SOL    HW218905   7.814   1.984   1.171  0.2399 -2.0869  0.9244
 4997SOL     OW18906   8.507   1.950   7.998 -0.0734 -0.3999 -0.8961
 4997SOL    HW118907   8.568   1.880   7.974 -0.2773 -0.9758  0.1867
 4997SOL    HW218908   8.548   2.030   7.964  1.5849 -0.6946  0.2304
 4998SOL     OW18909   6.005  10.138   8.647  0.1656  0.1416 -0.0717
 4998SOL    HW118910   6.051  10.057   8.669  1.5149  1.1440  0.9905
 4998SOL    HW218911   6.074  10.197   8.619 -0.8952  0.7037 -1.6101
 4999SOL     OW18912   3.779   4.267   0.904  0.0078 -0.3693  0.5807
 4999SOL    HW118913   3.736   4.233   0.826 -0.9486 -1.0125  1.3595
 4999SOL    HW218914   3.730   4.229   0.977  0.2675  0.9823  1.4962
 5000SOL     OW18915   0.542   0.953   5.558  0.6337 -0.6028 -0.3607
 5000SOL    HW118916   0.617   1.012   5.562  0.0999  0.0490  0.5365
 5000SOL    HW218917   0.578   0.868   5.533  1.6959 -0.3553  0.2935
 5001SOL     OW18918   9.383   5.852   9.870  0.2726  0.1318  0.2723
 5001SOL    HW118919   9.418   5.840   9.958  1.6525 -2.8670 -0.5361
 5001SOL    HW218920   9.391   5.946   9.853  1.6385  0.5312  2.6816
 5002SOL     OW18921   9.795   8.487   5.848  0.3776 -0.0332  0.4142
 5002SOL    HW118922   9.760   8.563   5.896  1.5161  0.3237  0.6974
 5002SOL    HW218923   9.863   8.452   5.905 -0.2105 -1.3462  0.3299
 5003SOL     OW18924  10.113   0.346   0.590  0.1068 -0.2678 -0.2767
 5003SOL    HW118925  10.165   0.421   0.560 -0.9543  1.1277  1.2513
 5003SOL    HW218926  10.030   0.384   0.618 -0.1849 -1.9122  1.2458
 5004SOL     OW18927   6.509   2.659   3.869  0.1442  0.7742 -0.2576
 5004SOL    HW118928   6.506   2.582   3.812 -0.3107  0.3505  0.3259
 5004SOL    HW218929   6.448   2.721   3.828  1.0977  1.1475 -1.1642
 5005SOL     OW18930   0.635   8.987   4.832 -0.2961 -0.1054  0.3694
 5005SOL    HW118931   0.604   8.983   4.922  0.7458  0.2813  0.7620
 5005SOL    HW218932   0.661   8.897   4.811  1.0891  0.1143  1.0684
 5006SOL     OW18933   6.304   1.009   8.752 -0.4426  0.2974 -0.1185
 5006SOL    HW118934   6.318   1.002   8.846 -0.2519  0.7204 -0.1089
 5006SOL    HW218935   6.253   1.089   8.741  1.2947  1.4170 -0.5088
 5007SOL     OW18936   8.507   2.277   2.142  0.0127 -0.5952  0.0308
 5007SOL    HW118937   8.437   2.320   2.093 -0.7450 -2.1005 -0.2721
 5007SOL    HW218938   8.463   2.212   2.197  1.0446 -0.4603  1.0614
 5008SOL     OW18939   0.344   2.104   1.021 -0.3136 -0.0176  0.2503
 5008SOL    HW118940   0.378   2.066   0.939 -0.5603 -2.2624  1.1208
 5008SOL    HW218941   0.420   2.148   1.059  0.0176  0.3367 -0.7679
 5009SOL     OW18942   8.715   5.963   9.942 -0.4246 -0.0161 -0.4890
 5009SOL    HW118943   8.680   6.013  10.016 -3.2537  0.5559 -2.0654
 5009SOL    HW218944   8.790   6.015   9.912 -1.0798  1.3368  0.1341
 5010SOL     OW18945   3.116   7.029   7.169 -0.2768 -0.2148  0.0847
 5010SOL    HW118946   3.142   7.003   7.258 -0.0856 -0.0000  0.0923
 5010SOL    HW218947   3.170   6.973   7.112 -0.3392 -0.2940  0.1029
 5011SOL     OW18948   5.252   1.328   1.031  0.1061  0.3486 -0.1999
 5011SOL    HW118949   5.323   1.386   1.003  0.9777  0.0862  1.3588
 5011SOL    HW218950   5.267   1.315   1.124 -0.6246 -1.6509 -0.3160
 5012SOL     OW18951   3.343   5.627   3.510  0.2043  0.2889  0.5532
 5012SOL    HW118952   3.283   5.690   3.469  1.8784  1.8825  0.4062
 5012SOL    HW218953   3.430   5.657   3.484  1.2270 -0.0760  3.2403
 5013SOL     OW18954   0.570   6.184   7.296  0.0655 -0.2205 -0.2125
 5013SOL    HW118955   0.562   6.273   7.332  0.0844 -0.5253  0.5578
 5013SOL    HW218956   0.625   6.195   7.218  2.2161  0.0959  1.2576
 5014SOL     OW18957   3.020   4.193   8.512  0.2419  0.2600  0.5539
 5014SOL    HW118958   3.067   4.276   8.507  0.5654  0.0717 -3.7965
 5014SOL    HW218959   3.082   4.128   8.479 -0.8852 -1.2170  1.2470
 5015SOL     OW18960   4.423   1.260   6.730  0.0572 -0.3052 -0.0709
 5015SOL    HW118961   4.343   1.294   6.769  0.2574  1.0532 -0.7767
 5015SOL    HW218962   4.420   1.290   6.639  1.3759 -0.1685 -0.0930
 5016SOL     OW18963   6.408   8.388   4.426  0.6099 -0.0220  0.7737
 5016SOL    HW118964   6.461   8.424   4.355  1.8771  1.3066  2.3166
 5016SOL    HW218965   6.472   8.357   4.490 -0.4838 -0.2628  1.7770
 5017SOL     OW18966   2.154   3.855   5.448  0.1002  0.0419  0.3142
 5017SOL    HW118967   2.214   3.818   5.383 -1.1620 -1.3320 -0.1107
 5017SOL    HW218968   2.111   3.927   5.402 -1.0080 -1.1134 -0.5230
 5018SOL     OW18969   3.997   2.426   6.519  0.0689 -0.1048 -0.3341
 5018SOL    HW118970   3.978   2.489   6.450  1.4917  0.9191  0.1607
 5018SOL    HW218971   3.988   2.475   6.601 -0.8977 -1.1127  0.1936
 5019SOL     OW18972   6.973   3.238   8.934  0.0651  0.0205  1.3973
 5019SOL    HW118973   6.949   3.325   8.966 -0.5548  0.1856  0.5417
 5019SOL    HW218974   7.063   3.225   8.963  0.8271  1.7288 -0.0007
 5020SOL     OW18975   5.888   4.020   8.404  0.2055  0.5622 -0.2433
 5020SOL    HW118976   5.823   4.078   8.444  0.1606  0.3648 -0.0278
 5020SOL    HW218977   5.967   4.074   8.395  0.7799  0.1241  1.7462
 5021SOL     OW18978   9.941   4.900   1.783 -0.0594 -0.0095  0.1543
 5021SOL    HW118979   9.905   4.834   1.842  0.2337 -0.1143  0.2190
 5021SOL    HW218980  10.020   4.860   1.747  0.2710  0.4050  0.4050
 5022SOL     OW18981   1.188   6.526   3.152  0.3613 -0.2145 -0.2552
 5022SOL    HW118982   1.271   6.548   3.110  0.6012 -0.4257  0.0996
 5022SOL    HW218983   1.173   6.598   3.214  0.8069 -0.6887  0.4212
 5023SOL     OW18984   0.657  10.104   6.810  0.2886 -0.2482  0.1223
 5023SOL    HW118985   0.598  10.080   6.738  0.5311 -0.0115 -0.1618
 5023SOL    HW218986   0.624  10.056   6.886  1.2377 -2.1673 -0.5974
 5024SOL     OW18987   5.379   9.500   7.933  0.1697  0.0909 -0.3997
 5024SOL    HW118988   5.303   9.473   7.881  0.0257 -1.1534  0.4136
 5024SOL    HW218989   5.450   9.444   7.903  0.6612  0.9191 -0.8196
 5025SOL     OW18990   3.084   3.157   6.549 -0.1358 -0.0860 -0.2276
 5025SOL    HW118991   3.089   3.175   6.455 -0.6737  3.3756  0.2653
 5025SOL    HW218992   2.996   3.187   6.574  0.1851 -0.4510  1.4539
 5026SOL     OW18993   4.586   9.691   8.211  0.0466  0.1401 -0.1496
 5026SOL    HW118994   4.532   9.749   8.157  0.6969  2.2722  1.3756
 5026SOL    HW218995   4.676   9.716   8.190  0.3312 -0.1577  0.6931
 5027SOL     OW18996  10.048   9.546   9.386 -0.3145  0.0246  0.1402
 5027SOL    HW118997  10.122   9.532   9.446  0.4004  0.0097 -0.7160
 5027SOL    HW218998  10.031   9.640   9.390  0.7044  0.2698 -0.7108
 5028SOL     OW18999   5.846   1.966   2.707  0.2774  0.2449  0.1202
 5028SOL    HW119000   5.928   2.015   2.717 -0.3674  1.1472  1.2324
 5028SOL    HW219001   5.854   1.894   2.770  1.0085 -0.8227 -1.1516
 5029SOL     OW19002   0.297   3.050   3.011  0.1296 -0.0921  0.5639
 5029SOL    HW119003   0.298   3.027   3.104  0.9948 -0.5109  0.4589
 5029SOL    HW219004   0.317   2.968   2.966  1.4882  0.4639  0.0997
 5030SOL     OW19005   1.602   2.253   2.591  0.5777  0.2993  0.0837
 5030SOL    HW119006   1.508   2.251   2.610  0.6841 -0.3337  0.6107
 5030SOL    HW219007   1.640   2.296   2.668  0.8494 -0.7376  0.5516
 5031SOL     OW19008   6.072   3.478   8.918  0.2121 -0.0494  0.1138
 5031SOL    HW119009   6.125   3.400   8.933  1.7368  0.7682 -0.8527
 5031SOL    HW219010   5.982   3.448   8.930  0.5992 -2.4446 -2.0978
 5032SOL     OW19011   3.885   8.828   7.786  0.5854 -0.3458 -0.2713
 5032SOL    HW119012   3.966   8.850   7.832 -0.1161 -0.5009  1.1065
 5032SOL    HW219013   3.823   8.896   7.812 -0.7837 -2.2028  1.7465
 5033SOL     OW19014   5.452   7.155   6.606 -0.2673  0.2637  0.0590
 5033SOL    HW119015   5.415   7.067   6.609 -1.1806  0.5713 -1.3109
 5033SOL    HW219016   5.468   7.178   6.697 -2.5327 -0.2867  0.6427
 5034SOL     OW19017   6.209   1.817   0.818  0.2809 -0.1609 -0.5742
 5034SOL    HW119018   6.186   1.908   0.836  0.1456 -0.7546  2.8397
 5034SOL    HW219019   6.134   1.781   0.771 -0.5780  0.9692 -0.0956
 5035SOL     OW19020   2.293   6.244   5.614  0.2271  0.6743  0.0111
 5035SOL    HW119021   2.241   6.222   5.537  0.2976 -1.0103  0.3854
 5035SOL    HW219022   2.382   6.251   5.582  0.2232  0.2084 -0.1086
 5036SOL     OW19023   0.970   2.130   3.081  0.0392  0.1378 -0.0204
 5036SOL    HW119024   1.042   2.068   3.080 -0.5629 -0.6126  1.0638
 5036SOL    HW219025   0.917   2.105   3.157 -1.1622  0.8895 -0.5661
 5037SOL     OW19026   1.706   7.581   2.898 -0.8234  0.3639  0.1829
 5037SOL    HW119027   1.641   7.646   2.875 -1.0276  0.0792 -0.0521
 5037SOL    HW219028   1.748   7.615   2.977 -0.2687  1.2428 -0.4810
 5038SOL     OW19029   1.564   7.830   3.158  0.1255  0.1600  0.3942
 5038SOL    HW119030   1.530   7.917   3.136  1.0571  0.1906 -1.0398
 5038SOL    HW219031   1.647   7.824   3.111  0.2501 -1.3843  0.7648
 5039SOL     OW19032   4.276   6.076   9.140 -0.3747  0.0691 -0.0785
 5039SOL    HW119033   4.230   6.001   9.102  0.2723 -1.0034  1.1688
 5039SOL    HW219034   4.356   6.039   9.178 -0.2778  1.2998  1.0025
 5040SOL     OW19035  10.107   5.823   1.331 -0.0512 -0.2004 -0.0460
 5040SOL    HW119036  10.153   5.743   1.357  0.5090  0.6502  1.7355
 5040SOL    HW219037  10.166   5.894   1.356 -1.5393  0.8606  0.6354
 5041SOL     OW19038   4.272   8.412   6.064  0.2127  0.6253  0.1149
 5041SOL    HW119039   4.204   8.382   6.003 -0.4469 -1.4108  1.7404
 5041SOL    HW219040   4.339   8.450   6.007 -0.6588 -0.5384 -1.8305
 5042SOL     OW19041   6.471   8.993   1.713 -0.3336 -0.4273 -0.0176
 5042SOL    HW119042   6.564   8.981   1.698 -0.3189  1.7641 -2.2696
 5042SOL    HW219043   6.466   9.056   1.785 -0.0343  0.0953 -0.4471
 5043SOL     OW19044   2.747   9.026   7.482 -0.9539 -0.1652  0.4647
 5043SOL    HW119045   2.814   8.974   7.526  0.0926 -1.3767 -2.3123
 5043SOL    HW219046   2.796   9.088   7.428 -2.0288 -0.8417 -1.3783
 5044SOL     OW19047   3.903   8.378   2.429 -0.2499  0.3840  0.6957
 5044SOL    HW119048   3.846   8.331   2.490 -0.3437 -0.2806  0.1150
 5044SOL    HW219049   3.851   8.454   2.402 -0.2369  0.6394  1.3749
 5045SOL     OW19050   0.191   1.708   6.577 -0.1407  0.5293 -0.1290
 5045SOL    HW119051   0.164   1.625   6.615 -0.2915 -0.0286 -1.4087
 5045SOL    HW219052   0.110   1.746   6.542  0.5000 -1.0558 -3.8048
 5046SOL     OW19053   2.692   0.751   1.324 -0.1490 -0.4346 -0.1859
 5046SOL    HW119054   2.664   0.789   1.241  0.0132 -1.4390 -0.7095
 5046SOL    HW219055   2.634   0.677   1.338 -1.1615  0.5801  1.3622
 5047SOL     OW19056   3.467   1.426   5.623 -0.5331 -0.1727  0.1522
 5047SOL    HW119057   3.379   1.454   5.646 -0.4602  0.5033 -0.3344
 5047SOL    HW219058   3.506   1.504   5.582  0.3684 -0.3893  0.5877
 5048SOL     OW19059   6.907   0.437   0.203  0.5472 -0.4175  0.1925
 5048SOL    HW119060   6.819   0.475   0.210  0.1563 -1.4443  1.3407
 5048SOL    HW219061   6.905   0.363   0.265  2.1403 -0.6065  0.0412
 5049SOL     OW19062   2.278   8.085   2.245 -0.0975  0.0950  0.5109
 5049SOL    HW119063   2.265   8.174   2.213 -0.2195  0.2597  1.0120
 5049SOL    HW219064   2.348   8.092   2.310  1.9789 -0.6284 -1.4708
 5050SOL     OW19065   5.888   2.682   4.976 -0.4616 -0.4054  0.4808
 5050SOL    HW119066   5.922   2.654   5.061 -0.3817 -0.2346  0.5050
 5050SOL    HW219067   5.870   2.775   4.986 -0.4419 -0.3821  0.3068
 5051SOL     OW19068   7.811   8.743  10.059 -0.3273  0.0941 -0.3357
 5051SOL    HW119069   7.814   8.649  10.079  1.3182  0.4255  1.2495
 5051SOL    HW219070   7.800   8.785  10.144  1.2623  1.4077 -0.7248
 5052SOL     OW19071   3.883   5.881   3.169 -0.4382  0.0555 -0.2046
 5052SOL    HW119072   3.957   5.935   3.196  0.1615 -0.2782 -1.1125
 5052SOL    HW219073   3.866   5.907   3.078 -0.6774 -0.6959 -0.3886
 5053SOL     OW19074   7.691   6.499   5.505  0.2468  0.4630 -0.3223
 5053SOL    HW119075   7.650   6.477   5.421  1.3533 -2.5096 -0.2040
 5053SOL    HW219076   7.782   6.519   5.482  0.8822 -1.5934  0.2155
 5054SOL     OW19077   0.743   3.632   2.484  0.1658 -0.0735  0.3565
 5054SOL    HW119078   0.779   3.545   2.505  2.0549  0.7068  0.5487
 5054SOL    HW219079   0.648   3.622   2.495  0.3684 -2.0121  0.7195
 5055SOL     OW19080   6.401   9.305  10.168  0.5404  0.1034 -0.8308
 5055SOL    HW119081   6.319   9.340  10.204  1.3717  0.9116  0.3312
 5055SOL    HW219082   6.450   9.382  10.141  0.0617 -0.4502 -3.5986
 5056SOL     OW19083   6.780   3.650   3.896  0.3002 -0.0803 -1.0086
 5056SOL    HW119084   6.812   3.740   3.906 -0.6750  0.4094 -2.0003
 5056SOL    HW219085   6.684   3.658   3.902  0.2556 -1.3747  1.0510
 5057SOL     OW19086   2.238   9.028   3.587  0.0634 -0.1230  0.1269
 5057SOL    HW119087   2.240   9.047   3.680 -0.1550 -1.4978  0.4337
 5057SOL    HW219088   2.243   9.114   3.545  0.9340  0.4684  1.3802
 5058SOL     OW19089   7.068   1.021   2.480 -0.0501 -0.6042 -0.2512
 5058SOL    HW119090   7.137   1.044   2.542 -0.2040  0.7909 -0.5841
 5058SOL    HW219091   7.084   0.928   2.460  1.5401 -0.3875 -0.1025
 5059SOL     OW19092   3.480   7.138   9.170  0.0398  0.0685 -0.1940
 5059SOL    HW119093   3.555   7.192   9.144  1.1969 -0.7150  1.2825
 5059SOL    HW219094   3.516   7.049   9.177 -1.7992 -0.9739 -2.5332
 5060SOL     OW19095   0.518   1.046   9.275 -0.1441 -0.2599  0.5068
 5060SOL    HW119096   0.500   1.059   9.368 -1.3621 -1.2689  0.4468
 5060SOL    HW219097   0.456   1.105   9.231 -0.4536 -0.7084  0.3338
 5061SOL     OW19098   2.443   3.978   9.597 -0.7185 -0.1974  0.6593
 5061SOL    HW119099   2.508   3.915   9.569 -0.5350 -0.2461  1.1797
 5061SOL    HW219100   2.373   3.925   9.636 -0.5036 -0.0709  1.2164
 5062SOL     OW19101   5.945   1.495   2.737  0.1722  0.4804 -0.4643
 5062SOL    HW119102   5.972   1.422   2.681 -2.0102  1.5141 -3.0648
 5062SOL    HW219103   6.024   1.515   2.789  1.4406 -2.3605 -1.1021
 5063SOL     OW19104   3.885   8.394   1.728  0.4548  0.0773 -0.2528
 5063SOL    HW119105   3.927   8.324   1.679  0.7438  0.5900 -0.7519
 5063SOL    HW219106   3.956   8.433   1.779 -0.0056 -1.0502  1.3316
 5064SOL     OW19107   9.243   7.823   6.590  0.2233  0.7962 -0.1820
 5064SOL    HW119108   9.330   7.854   6.616 -0.3821  1.0008  1.7337
 5064SOL    HW219109   9.188   7.902   6.592 -0.2736  0.4502 -0.1756
 5065SOL     OW19110   7.272   7.223   6.827  0.0482 -0.3151  0.0595
 5065SOL    HW119111   7.314   7.297   6.783 -0.2017  0.0017  0.3443
 5065SOL    HW219112   7.188   7.258   6.856 -0.9844 -1.2777 -1.5957
 5066SOL     OW19113   4.843   1.605   7.057 -0.2229  1.0090  0.0172
 5066SOL    HW119114   4.939   1.603   7.055 -0.1854  1.7713  0.3973
 5066SOL    HW219115   4.818   1.661   6.984 -0.3928  0.5168 -0.2993
 5067SOL     OW19116   7.702   6.749   2.034 -0.0966 -0.0612 -0.3518
 5067SOL    HW119117   7.762   6.701   2.092  1.5862  1.0533 -1.0917
 5067SOL    HW219118   7.706   6.839   2.064 -0.0809  0.3315 -1.4746
 5068SOL     OW19119   1.866   7.849   9.053  0.4761  0.1000  0.2227
 5068SOL    HW119120   1.894   7.804   9.133 -0.2657  0.2274  0.5630
 5068SOL    HW219121   1.825   7.930   9.084 -2.4619 -1.1532 -0.0334
 5069SOL     OW19122   3.062   2.191   7.722  0.3652 -0.0259 -0.0302
 5069SOL    HW119123   2.972   2.165   7.737  0.0480  0.8864 -0.3109
 5069SOL    HW219124   3.067   2.282   7.752  0.4800  0.8450 -2.4739
 5070SOL     OW19125   8.677   0.326   9.208  0.0432  0.0864 -0.7103
 5070SOL    HW119126   8.718   0.329   9.294 -2.8726 -2.1866  0.9819
 5070SOL    HW219127   8.745   0.290   9.150  1.8728  1.0310  0.7529
 5071SOL     OW19128   6.256   1.877   6.026 -0.0083  0.5296 -0.5627
 5071SOL    HW119129   6.324   1.933   5.987 -0.5500  1.2078 -0.5485
 5071SOL    HW219130   6.198   1.938   6.071 -0.9101  0.0083 -1.0022
 5072SOL     OW19131   8.344  10.148   7.705  0.4023 -0.1894  0.0449
 5072SOL    HW119132   8.324  10.069   7.755  2.4125 -0.1897  0.9249
 5072SOL    HW219133   8.270  10.207   7.722  0.2954 -0.7739  1.7521
 5073SOL     OW19134   7.024   6.133   7.900  0.5342 -0.1840  0.3893
 5073SOL    HW119135   7.119   6.135   7.904  0.5190  2.5240  1.6711
 5073SOL    HW219136   6.996   6.151   7.990 -1.1205  1.2566 -0.3626
 5074SOL     OW19137   1.143   8.757   0.579  0.7849  0.1545 -0.1309
 5074SOL    HW119138   1.207   8.690   0.607  1.2548  0.7903  0.3412
 5074SOL    HW219139   1.059   8.712   0.583  1.1857 -0.6664 -0.6397
 5075SOL     OW19140   5.799   6.631   8.742  0.2550 -0.5655 -0.1396
 5075SOL    HW119141   5.715   6.618   8.699  0.2384  2.7332 -1.3952
 5075SOL    HW219142   5.777   6.653   8.832  0.0260 -2.5210  0.3419
 5076SOL     OW19143  10.049   8.147   7.673  0.3549 -0.3138  0.1159
 5076SOL    HW119144   9.980   8.127   7.609  0.0023 -0.3204  0.4943
 5076SOL    HW219145  10.005   8.200   7.740  0.1851 -2.0508  1.4602
 5077SOL     OW19146   6.864   6.399   8.538  0.6096  1.0133  0.0362
 5077SOL    HW119147   6.806   6.367   8.469  1.0280  0.6380 -0.1454
 5077SOL    HW219148   6.861   6.494   8.530 -0.7011  1.0541  0.6181
 5078SOL     OW19149   5.971   0.248   5.657  0.1069 -0.5768  0.1354
 5078SOL    HW119150   5.991   0.308   5.729  1.4915 -2.4429  1.3953
 5078SOL    HW219151   5.927   0.303   5.592  0.7126  1.6447  1.4866
 5079SOL     OW19152   3.430   4.668   8.555 -0.3458  0.2837 -0.2334
 5079SOL    HW119153   3.447   4.651   8.463  0.1345  1.2324 -0.3339
 5079SOL    HW219154   3.502   4.725   8.583 -0.2852 -0.2800  0.8219
 5080SOL     OW19155   5.351   1.088   1.537  0.2203  0.4107  0.1416
 5080SOL    HW119156   5.445   1.085   1.520 -0.1716 -2.0672 -2.1914
 5080SOL    HW219157   5.325   0.997   1.546 -2.1381  0.9428 -0.5344
 5081SOL     OW19158   7.956   5.302   8.116  0.3785  0.1609  0.1091
 5081SOL    HW119159   7.879   5.332   8.165  0.5806  2.3354 -0.7785
 5081SOL    HW219160   8.020   5.281   8.184 -1.0122 -1.9563  0.8793
 5082SOL     OW19161   5.963   9.408   7.319 -0.5567 -0.5195 -0.4596
 5082SOL    HW119162   5.951   9.313   7.323  0.0633 -0.5726  0.2597
 5082SOL    HW219163   6.052   9.420   7.284 -1.2626 -0.1671 -2.2760
 5083SOL     OW19164   8.255   9.973   3.719 -0.0096 -0.1202 -0.0133
 5083SOL    HW119165   8.254   9.921   3.799  0.6416 -0.1752 -0.0392
 5083SOL    HW219166   8.229   9.911   3.650  2.9983 -1.0729 -0.4114
 5084SOL     OW19167   3.768   3.473   2.456  0.4453  0.4436 -0.6212
 5084SOL    HW119168   3.834   3.451   2.522 -0.6523 -0.5293  0.2028
 5084SOL    HW219169   3.713   3.394   2.451 -2.4175  2.1621  0.8842
 5085SOL     OW19170   1.638   9.397   1.462 -0.2776  0.4163  0.2551
 5085SOL    HW119171   1.547   9.386   1.432 -0.3882 -1.4371  1.1027
 5085SOL    HW219172   1.654   9.491   1.457 -2.0525  0.7196 -0.4704
 5086SOL     OW19173   5.037   4.695   6.686 -0.4196 -0.4852 -0.3620
 5086SOL    HW119174   4.985   4.722   6.761 -1.9460  0.8859 -1.8256
 5086SOL    HW219175   5.025   4.765   6.622  0.8000 -1.6056 -1.9034
 5087SOL     OW19176   4.951   7.708   6.912 -0.3008  0.4786 -0.0827
 5087SOL    HW119177   5.007   7.641   6.951 -0.8705 -0.0359 -0.1204
 5087SOL    HW219178   4.949   7.686   6.819  1.3407  1.9148 -0.4898
 5088SOL     OW19179   9.216   5.689   7.486  1.0419  0.5603 -0.0984
 5088SOL    HW119180   9.180   5.609   7.447  1.7770  0.0736  0.1991
 5088SOL    HW219181   9.139   5.741   7.511  0.4210 -1.5223  2.8148
 5089SOL     OW19182   6.533   4.090  10.148  0.2549  0.3171 -0.0939
 5089SOL    HW119183   6.544   4.043  10.231  0.6071  1.8211  0.7437
 5089SOL    HW219184   6.508   4.179  10.174  0.4727  0.8375 -1.5987
 5090SOL     OW19185   9.539   2.808   3.479  0.1373  0.1155 -0.1647
 5090SOL    HW119186   9.444   2.811   3.462 -0.3052  0.1991  2.0417
 5090SOL    HW219187   9.552   2.724   3.523  1.0921  0.1177 -0.4397
 5091SOL     OW19188   6.890   0.012   0.035 -0.3393  0.5183 -0.3563
 5091SOL    HW119189   6.814   0.070   0.022  0.0904  0.7625 -2.0515
 5091SOL    HW219190   6.939   0.053   0.106 -2.1150 -0.0154  1.2483
 5092SOL     OW19191   5.506   1.215   4.359  0.0018 -0.3297 -1.2367
 5092SOL    HW119192   5.590   1.233   4.316 -0.3349  0.9613 -1.3976
 5092SOL    HW219193   5.462   1.300   4.363 -1.5448 -1.0631 -1.6735
 5093SOL     OW19194   5.700   7.203   1.210  0.6602 -0.0236  0.2638
 5093SOL    HW119195   5.724   7.291   1.238  0.9215 -0.4311  1.3481
 5093SOL    HW219196   5.736   7.145   1.277  0.7402 -0.9836 -0.5755
 5094SOL     OW19197   2.460   2.639   7.721 -0.1601  0.4078  0.3644
 5094SOL    HW119198   2.365   2.649   7.719 -0.3942 -1.4488 -0.1716
 5094SOL    HW219199   2.484   2.622   7.630  0.3578 -1.3836  0.7965
 5095SOL     OW19200   1.594   2.196   8.441  0.4289 -0.5170 -0.1415
 5095SOL    HW119201   1.511   2.156   8.414  0.4936 -1.4163  0.9142
 5095SOL    HW219202   1.631   2.231   8.360 -1.7576  1.4293 -0.3896
 5096SOL     OW19203   7.601   0.960   0.262  0.2578 -0.0738  0.5732
 5096SOL    HW119204   7.552   1.020   0.317 -0.3405 -0.3233  0.3266
 5096SOL    HW219205   7.659   1.016   0.211  0.9995  0.1378  1.6194
 5097SOL     OW19206   6.977   3.723   0.837  0.4161 -0.3227 -0.1488
 5097SOL    HW119207   7.029   3.719   0.757 -0.7319 -1.0774 -0.8760
 5097SOL    HW219208   6.940   3.636   0.846  0.7912 -0.3512  1.4039
 5098SOL     OW19209   5.359   7.769   9.886 -0.0984 -0.9848 -0.1997
 5098SOL    HW119210   5.303   7.832   9.931  1.0853  0.2013 -0.3167
 5098SOL    HW219211   5.340   7.783   9.793  1.3398  0.4213 -0.3270
 5099SOL     OW19212   7.622  10.175   9.117 -0.3944  0.2854  0.3711
 5099SOL    HW119213   7.551  10.214   9.168  1.5695  1.0982  2.6694
 5099SOL    HW219214   7.677  10.248   9.091  1.8377 -0.5796  2.3156
 5100SOL     OW19215   1.676   5.524   8.361  0.2996 -0.5762  0.5110
 5100SOL    HW119216   1.701   5.585   8.292 -2.0608 -1.9669 -1.8059
 5100SOL    HW219217   1.617   5.573   8.417  0.4451 -0.0128  0.1758
 5101SOL     OW19218   4.069   9.168   4.942  0.5224  0.1153 -0.0335
 5101SOL    HW119219   4.014   9.184   4.866 -0.8344  0.0507  0.9043
 5101SOL    HW219220   4.105   9.081   4.928 -0.3290 -0.2113 -0.2511
 5102SOL     OW19221   7.326   7.208   1.933  0.1088 -0.2791  0.4314
 5102SOL    HW119222   7.373   7.287   1.961  1.2446 -0.7284 -0.1318
 5102SOL    HW219223   7.338   7.207   1.838 -0.1659 -0.9621  0.4068
 5103SOL     OW19224   8.358   4.268   8.276 -0.3337 -0.3307  0.0362
 5103SOL    HW119225   8.326   4.308   8.196 -0.7554 -0.0330  0.3513
 5103SOL    HW219226   8.442   4.229   8.251 -0.7471 -0.7823 -0.6969
 5104SOL     OW19227   3.742   2.493   3.184  0.1909 -0.4008 -0.0346
 5104SOL    HW119228   3.711   2.421   3.238 -0.0632  0.2414  0.6972
 5104SOL    HW219229   3.780   2.451   3.107 -0.7408 -1.2838 -0.0344
 5105SOL     OW19230   1.645   8.548   2.956 -0.2047  0.2873  0.6031
 5105SOL    HW119231   1.624   8.640   2.969 -0.6748  0.0778  1.3924
 5105SOL    HW219232   1.740   8.543   2.970 -0.4750  0.3012  2.8584
 5106SOL     OW19233   2.083   7.783   2.974  0.4048 -0.0466 -0.2532
 5106SOL    HW119234   2.041   7.767   3.058 -0.9622  0.2853 -0.8493
 5106SOL    HW219235   2.018   7.757   2.909  0.7736  1.3058 -1.2078
 5107SOL     OW19236   7.647   9.364   5.714  0.0891 -0.1560 -0.8051
 5107SOL    HW119237   7.737   9.363   5.681  0.4781 -1.3047  0.2372
 5107SOL    HW219238   7.642   9.442   5.768  0.7716 -0.6015 -0.0796
 5108SOL     OW19239   2.480   5.933   1.676 -0.6208  0.4148  0.1703
 5108SOL    HW119240   2.395   5.924   1.632 -0.9138 -0.8840  0.9549
 5108SOL    HW219241   2.475   5.872   1.749  1.8494 -1.3991 -1.0604
 5109SOL     OW19242   1.325   0.055   8.858 -0.7380  0.6335 -0.1522
 5109SOL    HW119243   1.306   0.023   8.770 -0.8042 -1.8700  0.7063
 5109SOL    HW219244   1.288   0.143   8.859 -2.5598 -0.0273 -1.9692
 5110SOL     OW19245   1.490   0.754   5.319  0.2381 -0.0639 -0.0265
 5110SOL    HW119246   1.485   0.767   5.224 -1.2948 -0.1989  0.0030
 5110SOL    HW219247   1.443   0.830   5.355  1.7301  0.5505  0.6825
 5111SOL     OW19248   5.249   5.747   2.108  1.1146  0.0734  0.1908
 5111SOL    HW119249   5.298   5.665   2.099 -0.5346 -0.8506 -1.0156
 5111SOL    HW219250   5.164   5.729   2.068 -0.0633  1.7545  1.7386
 5112SOL     OW19251   2.017   0.409   1.376  0.0197  0.0222  0.0463
 5112SOL    HW119252   1.981   0.340   1.320  0.5137  0.1579 -0.4429
 5112SOL    HW219253   1.944   0.433   1.433 -1.0125  0.9337 -1.5402
 5113SOL     OW19254   0.362   7.966   4.816  0.6906 -0.2928  0.6707
 5113SOL    HW119255   0.297   7.909   4.776 -0.0282  0.3375  0.9291
 5113SOL    HW219256   0.341   8.053   4.784 -0.3866  0.3588  2.9798
 5114SOL     OW19257   3.122   3.213   8.868  0.1541 -0.3906  0.3359
 5114SOL    HW119258   3.157   3.200   8.956 -0.9899  2.3219  1.3240
 5114SOL    HW219259   3.039   3.260   8.882  0.1135  0.4483 -2.1790
 5115SOL     OW19260   0.568   6.512   7.172  0.5793 -0.2381 -0.1616
 5115SOL    HW119261   0.496   6.573   7.186  0.7116 -0.0553 -0.2759
 5115SOL    HW219262   0.574   6.462   7.254 -1.5689 -2.2744 -1.1247
 5116SOL     OW19263   1.552   6.444   2.554  0.2073  0.2182  0.2227
 5116SOL    HW119264   1.514   6.527   2.583  0.2753  0.2603  0.1886
 5116SOL    HW219265   1.481   6.380   2.567 -0.4558  0.5673 -1.3750
 5117SOL     OW19266   6.438   6.225   8.484 -0.0068 -0.2067 -0.8520
 5117SOL    HW119267   6.507   6.215   8.419  0.9772  0.9079 -0.0249
 5117SOL    HW219268   6.358   6.234   8.433  0.6465 -0.0850 -1.8775
 5118SOL     OW19269   1.026   7.037   3.808 -0.1939 -0.0427  0.3106
 5118SOL    HW119270   0.949   7.089   3.784 -0.5637  0.1019  1.7165
 5118SOL    HW219271   1.070   7.020   3.725 -1.5249  0.2189 -0.4777
 5119SOL     OW19272   9.137   0.492   5.318 -0.0198  0.2131 -0.0725
 5119SOL    HW119273   9.067   0.555   5.331  1.3328  2.5493 -2.8605
 5119SOL    HW219274   9.179   0.483   5.404 -2.5428  0.0901  1.2291
 5120SOL     OW19275   6.053   6.455   8.843 -0.6077  0.4324 -0.4524
 5120SOL    HW119276   6.044   6.498   8.928  2.7718  0.4342  0.0491
 5120SOL    HW219277   6.084   6.525   8.785  2.1485 -0.5765 -0.3225
 5121SOL     OW19278   5.091   8.942   1.011  0.1236 -0.1099 -0.2894
 5121SOL    HW119279   4.998   8.952   1.030  0.0596 -2.1499  0.7044
 5121SOL    HW219280   5.133   9.013   1.059 -0.7538 -0.4171  0.9921
 5122SOL     OW19281  10.103   0.107   5.008  0.3597 -0.1087  0.5986
 5122SOL    HW119282  10.191   0.112   5.046  0.1226  0.9350  1.0353
 5122SOL    HW219283  10.112   0.147   4.922 -0.2133  2.4928  1.6662
 5123SOL     OW19284   4.534   8.614   5.508  0.6642 -0.9279  0.0686
 5123SOL    HW119285   4.523   8.581   5.418 -0.3574 -3.4224  1.0122
 5123SOL    HW219286   4.445   8.618   5.542  1.0662 -0.2660  1.0730
 5124SOL     OW19287   5.496   3.528   7.677  0.1591 -0.3556 -0.2572
 5124SOL    HW119288   5.513   3.438   7.648  2.2310  0.2578 -1.1188
 5124SOL    HW219289   5.545   3.583   7.616 -0.6052  1.3489  0.5871
 5125SOL     OW19290   2.902   7.572   0.720  0.6216 -0.5296 -0.3611
 5125SOL    HW119291   2.992   7.555   0.750  0.7911  1.8123  0.6793
 5125SOL    HW219292   2.889   7.665   0.736 -2.2764 -0.9391  0.1808
 5126SOL     OW19293   3.321   1.630   5.840  0.6599 -0.0560 -0.1067
 5126SOL    HW119294   3.284   1.556   5.888  1.3497 -0.6632 -0.4937
 5126SOL    HW219295   3.301   1.706   5.895 -1.6667 -0.2434 -0.5743
 5127SOL     OW19296   9.484   9.064   3.443  0.8437  0.2260  0.4037
 5127SOL    HW119297   9.400   9.065   3.397  1.7283 -1.3993 -1.3793
 5127SOL    HW219298   9.495   9.154   3.473 -0.9680  0.7608 -0.3831
 5128SOL     OW19299   4.766   8.760   5.732 -0.2375  0.0078  0.3750
 5128SOL    HW119300   4.681   8.786   5.695 -0.9745 -1.1339  1.1836
 5128SOL    HW219301   4.764   8.665   5.731  1.4795 -0.0552 -0.5045
 5129SOL     OW19302   1.037   0.263   9.687  0.0429 -0.3561 -0.2576
 5129SOL    HW119303   1.054   0.194   9.622 -1.1694 -0.2588 -0.7190
 5129SOL    HW219304   0.972   0.319   9.645  2.1148  2.0032 -0.5236
 5130SOL     OW19305   8.533   5.318   4.054 -0.2907 -0.2258 -0.0302
 5130SOL    HW119306   8.546   5.259   3.980  1.2539  1.2749 -1.0200
 5130SOL    HW219307   8.538   5.405   4.016  0.4436  0.5878  1.8325
 5131SOL     OW19308   5.309   1.465   0.361 -0.3894 -0.2408  0.3743
 5131SOL    HW119309   5.265   1.549   0.347 -0.9365 -0.7241 -1.0312
 5131SOL    HW219310   5.259   1.422   0.430  0.0121  0.6441  1.2447
 5132SOL     OW19311   0.443   6.141   6.419 -0.0494  0.0814  0.0043
 5132SOL    HW119312   0.497   6.160   6.496 -1.1754  0.2852  0.7822
 5132SOL    HW219313   0.495   6.171   6.345  1.1519 -0.2957  0.6703
 5133SOL     OW19314   2.513   4.254   5.865 -0.0730  0.5688  0.6052
 5133SOL    HW119315   2.542   4.165   5.887 -1.4592  0.4354  2.0569
 5133SOL    HW219316   2.479   4.246   5.776 -0.9351 -0.5729  1.0134
 5134SOL     OW19317   6.349   3.025   9.731 -0.0680  0.5243 -0.1545
 5134SOL    HW119318   6.399   2.972   9.794  0.1355  1.5080  0.5360
 5134SOL    HW219319   6.272   3.054   9.780 -0.1567  0.8934 -0.5085
 5135SOL     OW19320   3.280   6.701   8.014  0.4248 -0.5388 -0.0274
 5135SOL    HW119321   3.328   6.619   8.018 -0.7588 -1.2105  1.0415
 5135SOL    HW219322   3.321   6.756   8.081 -0.4222 -1.2066  1.0711
 5136SOL     OW19323   8.701   2.324   7.633 -0.0188  0.7148  0.0369
 5136SOL    HW119324   8.681   2.404   7.584  1.1892  1.0231  0.0133
 5136SOL    HW219325   8.771   2.281   7.582 -0.4789 -0.2325  0.1835
 5137SOL     OW19326   9.200   2.108   3.931 -0.5332 -0.4079 -0.2182
 5137SOL    HW119327   9.283   2.155   3.937 -0.2601 -1.0145  0.9887
 5137SOL    HW219328   9.138   2.162   3.980 -1.2622  0.8043 -2.3225
 5138SOL     OW19329   7.591   0.595   1.866 -0.3905 -0.1286  0.4262
 5138SOL    HW119330   7.582   0.564   1.776 -1.5849 -0.2005  0.5672
 5138SOL    HW219331   7.511   0.643   1.883  0.9795  2.2848  0.5351
 5139SOL     OW19332   0.245   6.847   9.658 -0.2078  0.6056  0.1352
 5139SOL    HW119333   0.333   6.884   9.653 -0.0128  0.3782  1.5179
 5139SOL    HW219334   0.187   6.923   9.654 -0.0569  0.6658 -2.3465
 5140SOL     OW19335   7.229   8.538   5.067 -1.1035 -0.3154  0.1376
 5140SOL    HW119336   7.222   8.462   5.010 -0.3930  0.5043 -1.0841
 5140SOL    HW219337   7.140   8.555   5.097 -1.8858  0.4369 -2.3652
 5141SOL     OW19338   3.605   1.920   9.283  0.0621  0.0859 -0.2088
 5141SOL    HW119339   3.634   1.851   9.343  0.1266 -0.2373 -0.6079
 5141SOL    HW219340   3.651   1.901   9.201  1.5193  1.6473  0.1763
 5142SOL     OW19341   9.496  10.056   0.120  0.9170  0.8889 -0.0168
 5142SOL    HW119342   9.486   9.962   0.129  0.6202  0.8156 -0.9304
 5142SOL    HW219343   9.433  10.093   0.182 -1.6497  0.4433 -2.1728
 5143SOL     OW19344   1.599   6.584   9.406  0.5593 -0.4393  0.3145
 5143SOL    HW119345   1.569   6.664   9.362 -1.2933 -1.2533 -0.0037
 5143SOL    HW219346   1.674   6.612   9.458 -0.0296  1.5061  0.1964
 5144SOL     OW19347   0.657   5.784   4.427  0.2371 -0.0262 -0.6224
 5144SOL    HW119348   0.729   5.793   4.364 -0.8614  2.6178 -1.6720
 5144SOL    HW219349   0.665   5.861   4.483 -0.4952 -0.8593  0.6789
 5145SOL     OW19350   1.610   3.154   9.753 -0.1894 -0.1702  0.0171
 5145SOL    HW119351   1.682   3.188   9.807  1.1491  0.2203 -1.9154
 5145SOL    HW219352   1.567   3.231   9.718 -0.5286 -0.4282 -0.1373
 5146SOL     OW19353   2.918   3.324   2.384  0.6825  0.0404 -0.8799
 5146SOL    HW119354   2.861   3.252   2.356  1.9616 -0.8036 -1.4378
 5146SOL    HW219355   2.866   3.403   2.371 -0.5527 -0.7433 -0.8107
 5147SOL     OW19356   8.228   8.067   9.797  0.0538  0.7419  0.3644
 5147SOL    HW119357   8.207   8.116   9.718  0.7027 -0.3790 -0.5381
 5147SOL    HW219358   8.274   7.989   9.765 -2.4701 -1.3819  1.5534
 5148SOL     OW19359   1.669   9.205   7.053  0.7723  0.1354  0.3819
 5148SOL    HW119360   1.600   9.196   6.987  1.3085 -1.0516 -0.0403
 5148SOL    HW219361   1.642   9.148   7.124  0.8474  0.4111  0.6343
 5149SOL     OW19362   2.482   2.069   1.703 -0.1359  0.1660  0.5379
 5149SOL    HW119363   2.490   1.993   1.646  0.1113 -0.1656  1.0105
 5149SOL    HW219364   2.390   2.094   1.697 -0.4067 -0.6809  1.0235
 5150SOL     OW19365   3.980   5.795   4.912 -0.2507  0.3996  0.4155
 5150SOL    HW119366   3.891   5.791   4.879  0.1361 -1.2380 -0.5878
 5150SOL    HW219367   4.033   5.751   4.845  0.9444 -0.8635  2.0575
 5151SOL     OW19368   6.473   2.313   9.839  0.3502 -0.2337 -0.8426
 5151SOL    HW119369   6.480   2.223   9.808 -0.2759 -0.8473  0.6902
 5151SOL    HW219370   6.418   2.307   9.917 -0.7911  1.6664 -1.4261
 5152SOL     OW19371   3.562   7.639   0.900 -0.0815 -1.0287 -0.2963
 5152SOL    HW119372   3.525   7.618   0.814  0.9661  2.7140 -1.8922
 5152SOL    HW219373   3.490   7.623   0.962 -1.9989 -0.7827 -2.3298
 5153SOL     OW19374   0.548   6.383  10.133  0.1656  0.0805  0.4740
 5153SOL    HW119375   0.636   6.403  10.101 -0.4230  2.0343 -0.0609
 5153SOL    HW219376   0.496   6.370  10.054  0.0778 -1.7114  0.7952
 5154SOL     OW19377   5.501   5.400   6.189  0.4542  0.1343 -0.1300
 5154SOL    HW119378   5.502   5.490   6.223  0.7703  0.5467 -1.1939
 5154SOL    HW219379   5.542   5.348   6.258 -2.0186  0.3621  1.6393
 5155SOL     OW19380   7.348   4.968   2.444 -0.3766 -0.5666  0.2916
 5155SOL    HW119381   7.350   5.040   2.381 -0.3508 -0.9989 -0.2034
 5155SOL    HW219382   7.310   4.895   2.396  1.6673 -1.5582  0.0667
 5156SOL     OW19383   3.130   1.196   7.559  1.0122  0.4921  0.5933
 5156SOL    HW119384   3.042   1.224   7.534  0.6804  0.3637  1.5894
 5156SOL    HW219385   3.187   1.231   7.490  0.4276  2.2881  0.9816
 5157SOL     OW19386   7.630   5.594   0.604  0.4726 -0.2191 -0.1470
 5157SOL    HW119387   7.641   5.540   0.525  2.4558 -1.9433  1.1999
 5157SOL    HW219388   7.603   5.532   0.672 -1.3658  1.2658  0.5505
 5158SOL     OW19389   5.623   1.774   6.277 -0.5838 -0.0996  0.4707
 5158SOL    HW119390   5.532   1.763   6.251 -0.0050 -2.8735 -0.6669
 5158SOL    HW219391   5.631   1.725   6.359 -0.1267  0.2393  0.6336
 5159SOL     OW19392   1.815  10.129   5.748 -0.0266  0.2545 -0.2949
 5159SOL    HW119393   1.826  10.137   5.653 -1.5640  0.7956 -0.4567
 5159SOL    HW219394   1.812  10.219   5.780  0.2823  0.0782  0.2432
 5160SOL     OW19395   9.560   6.880   8.815 -0.6405  0.4396 -0.0931
 5160SOL    HW119396   9.484   6.899   8.870 -1.0725  0.3570 -0.6580
 5160SOL    HW219397   9.543   6.792   8.781  0.3839 -0.1839  0.8986
 5161SOL     OW19398   8.258   2.905   8.576 -0.9742  0.0496  0.0273
 5161SOL    HW119399   8.171   2.887   8.541 -0.7401  2.7325 -2.2832
 5161SOL    HW219400   8.245   2.980   8.634 -0.1548  0.9526 -0.9160
 5162SOL     OW19401   4.398   4.455   8.599 -0.0034 -0.9888  0.4471
 5162SOL    HW119402   4.451   4.390   8.646  1.2247  0.0957  0.6091
 5162SOL    HW219403   4.423   4.445   8.507  0.7168 -0.2933  0.5561
 5163SOL     OW19404   8.056   7.325   2.470  0.4709  0.0802  0.7460
 5163SOL    HW119405   8.143   7.287   2.481  0.8079  0.8929  0.9356
 5163SOL    HW219406   8.036   7.364   2.555  0.3817  0.8326  0.3865
 5164SOL     OW19407   8.783   7.370   4.875  0.2939  0.0971 -0.7701
 5164SOL    HW119408   8.767   7.277   4.891 -1.5071  0.4450 -0.3572
 5164SOL    HW219409   8.860   7.371   4.818  1.6364 -1.5373  0.8829
 5165SOL     OW19410   9.616   6.261   5.761  0.1960  0.3332 -0.9736
 5165SOL    HW119411   9.687   6.281   5.823 -0.7742  1.0120 -0.0581
 5165SOL    HW219412   9.646   6.298   5.678  0.0255  2.4922 -0.1282
 5166SOL     OW19413   0.917   6.629   0.202  0.0604  0.3763 -0.2372
 5166SOL    HW119414   0.847   6.670   0.151 -0.0731  1.5047  0.8020
 5166SOL    HW219415   0.920   6.539   0.171 -1.0028  0.6447 -1.1830
 5167SOL     OW19416   3.482   2.854   8.155  0.3087 -0.3265 -0.4142
 5167SOL    HW119417   3.473   2.760   8.138  1.5036 -0.4439 -0.5237
 5167SOL    HW219418   3.477   2.894   8.068  2.2030 -0.5403 -0.6769
 5168SOL     OW19419   1.785   5.726  10.157  0.2863  0.1420  0.3890
 5168SOL    HW119420   1.708   5.730  10.101  0.2627 -2.3034  0.1541
 5168SOL    HW219421   1.859   5.718  10.096  0.5399  0.3534  0.6618
 5169SOL     OW19422   2.814   2.070   6.285 -0.2930  0.0932 -0.2477
 5169SOL    HW119423   2.854   1.994   6.327 -3.3336 -1.4386  0.1527
 5169SOL    HW219424   2.782   2.124   6.358 -0.1492  0.6338 -0.5728
 5170SOL     OW19425   7.842   6.008   1.407  0.0333  0.6685  0.8288
 5170SOL    HW119426   7.762   6.014   1.459  1.1368 -0.8021  2.8083
 5170SOL    HW219427   7.884   6.094   1.419  0.2408  0.3865  2.3974
 5171SOL     OW19428   6.811   1.098   2.556 -0.0081  0.2859 -0.3008
 5171SOL    HW119429   6.758   1.094   2.477 -0.8048 -0.7717  0.2599
 5171SOL    HW219430   6.900   1.085   2.526 -0.3679 -0.7100 -0.9635
 5172SOL     OW19431   5.086   8.777   2.111 -0.0284  0.3372 -0.4241
 5172SOL    HW119432   5.174   8.816   2.106  0.0920 -0.0996 -2.6000
 5172SOL    HW219433   5.093   8.696   2.061 -1.0747 -0.9867  1.4563
 5173SOL     OW19434   4.673   8.128   5.108  0.0493 -0.2393  0.4698
 5173SOL    HW119435   4.739   8.161   5.169 -0.4362  0.2802  0.7225
 5173SOL    HW219436   4.618   8.071   5.161 -0.6629  0.5876  0.6451
 5174SOL     OW19437   8.492   2.386   4.289  0.3802  0.2680 -0.3452
 5174SOL    HW119438   8.499   2.481   4.281 -1.7005  0.3787 -1.3821
 5174SOL    HW219439   8.399   2.369   4.302  0.3905 -1.7274 -2.1940
 5175SOL     OW19440   9.713   5.779   1.477  0.5371  0.1056 -0.0206
 5175SOL    HW119441   9.779   5.848   1.475  1.1128 -0.3801  1.0554
 5175SOL    HW219442   9.718   5.744   1.567  0.4437 -1.4842 -0.5998
 5176SOL     OW19443   8.475   6.393   8.975 -0.8704 -0.8541 -0.1806
 5176SOL    HW119444   8.476   6.488   8.986  1.2342 -0.9234  0.6913
 5176SOL    HW219445   8.560   6.372   8.935 -0.6088 -2.4745  1.0797
 5177SOL     OW19446   9.983   6.745   3.087 -0.2562 -0.0195 -0.4759
 5177SOL    HW119447  10.069   6.786   3.082 -0.1426 -0.2897 -0.7560
 5177SOL    HW219448   9.945   6.757   3.000 -0.0909 -0.7838 -0.6671
 5178SOL     OW19449   8.364   5.132   5.114 -0.1022  0.1309 -0.0768
 5178SOL    HW119450   8.422   5.206   5.094  2.0472 -1.3242  0.3862
 5178SOL    HW219451   8.314   5.161   5.190  1.0839  0.9499  0.4349
 5179SOL     OW19452   6.096   6.692   2.048  0.1236  0.0273 -0.0579
 5179SOL    HW119453   6.099   6.784   2.020 -0.4330 -0.2138 -0.9616
 5179SOL    HW219454   6.188   6.669   2.063  0.3582  0.4625 -0.7695
 5180SOL     OW19455   0.856   2.324   3.979  0.4282  0.3993 -0.0420
 5180SOL    HW119456   0.830   2.300   3.890  0.3777 -1.1451  0.3641
 5180SOL    HW219457   0.879   2.417   3.973 -1.7350  0.9148 -1.1719
 5181SOL     OW19458   4.680   9.232   8.617 -0.2184 -0.4668 -0.3419
 5181SOL    HW119459   4.679   9.328   8.618 -1.8951 -0.4323  1.4476
 5181SOL    HW219460   4.745   9.208   8.683 -1.3911 -0.4971  0.8343
 5182SOL     OW19461   4.551   6.824   4.134  0.1400  0.7044  0.6679
 5182SOL    HW119462   4.504   6.786   4.209 -1.7228 -0.2105 -0.8709
 5182SOL    HW219463   4.483   6.836   4.068  1.8232  1.0401 -1.0620
 5183SOL     OW19464   8.979   5.086   7.109 -0.1078 -0.1199 -0.2276
 5183SOL    HW119465   8.913   5.097   7.040 -1.1604  1.0103  0.9006
 5183SOL    HW219466   8.956   5.152   7.174  1.6026 -0.3381  0.6447
 5184SOL     OW19467   8.889   4.427   6.922 -0.1248  0.4365 -0.2862
 5184SOL    HW119468   8.809   4.478   6.910  0.0703  1.1841  1.3172
 5184SOL    HW219469   8.922   4.414   6.834 -2.1723 -0.1675 -1.0281
 5185SOL     OW19470   5.306   0.344   6.152  0.1361  0.5705  0.1753
 5185SOL    HW119471   5.303   0.364   6.245 -0.7635 -0.4800  0.3872
 5185SOL    HW219472   5.358   0.264   6.146  0.9175  1.0982 -0.3252
 5186SOL     OW19473   2.355   5.722   5.654  0.9018  0.7107 -0.5767
 5186SOL    HW119474   2.334   5.635   5.619  2.3830  0.6307 -1.3441
 5186SOL    HW219475   2.428   5.753   5.600  1.2886  1.8656  0.5517
 5187SOL     OW19476   4.708   8.785   8.670 -0.1616  0.2407 -0.1391
 5187SOL    HW119477   4.700   8.860   8.730 -1.1600 -0.0693  0.1230
 5187SOL    HW219478   4.784   8.736   8.704  0.0138  0.7067  0.1533
 5188SOL     OW19479   8.378   0.082   3.320  0.1444 -0.2141 -0.3426
 5188SOL    HW119480   8.389   0.167   3.362  0.7712 -0.4513 -0.0153
 5188SOL    HW219481   8.412   0.019   3.384 -1.3746 -0.8259 -0.0896
 5189SOL     OW19482   9.857   8.409   3.821 -0.5316 -0.2856  0.1812
 5189SOL    HW119483   9.910   8.462   3.881  1.8240  0.6144 -2.4376
 5189SOL    HW219484   9.790   8.469   3.789  0.3222  0.2869 -0.5836
 5190SOL     OW19485   7.016   4.099   4.512 -0.4268  0.7350 -0.3598
 5190SOL    HW119486   6.986   4.013   4.541  0.0215  0.9169  0.6735
 5190SOL    HW219487   6.991   4.102   4.420  1.7077 -1.4974 -1.1407
 5191SOL     OW19488   4.386   6.060   0.032  0.0521  0.3451  0.0785
 5191SOL    HW119489   4.316   6.004   0.001  0.6031 -0.2341 -0.1381
 5191SOL    HW219490   4.403   6.120  -0.041  1.4356 -1.1003 -0.8412
 5192SOL     OW19491   7.951   2.292   7.375  0.0598  0.3884  0.0361
 5192SOL    HW119492   8.034   2.244   7.376 -0.1458 -0.0005 -1.0050
 5192SOL    HW219493   7.918   2.284   7.465  0.7110 -0.2205  0.2282
 5193SOL     OW19494   7.735   9.166   5.999  0.6552  0.1101  0.6354
 5193SOL    HW119495   7.761   9.132   6.085 -0.1124 -1.2274  0.3670
 5193SOL    HW219496   7.660   9.223   6.018  2.1165  1.9573  1.1180
 5194SOL     OW19497   7.540   9.243   9.387  0.3002 -0.4209 -0.6982
 5194SOL    HW119498   7.494   9.159   9.396  1.5342 -1.4290 -3.0037
 5194SOL    HW219499   7.600   9.246   9.461 -0.7547 -0.8740  0.2063
 5195SOL     OW19500   5.637   7.644   5.921  0.3677  0.3098 -0.0161
 5195SOL    HW119501   5.567   7.580   5.931 -0.5828  1.5782  2.6346
 5195SOL    HW219502   5.591   7.727   5.907  1.3259  1.0547  1.0370
 5196SOL     OW19503   2.359   7.779   2.960 -0.1442 -0.9213 -0.2684
 5196SOL    HW119504   2.264   7.785   2.948 -0.2732 -1.9417  0.0969
 5196SOL    HW219505   2.377   7.832   3.038 -0.0512  1.2768 -1.7143
 5197SOL     OW19506   5.025   2.845   2.897 -0.2378 -0.1408 -0.3338
 5197SOL    HW119507   4.981   2.822   2.815  0.2658  2.9434 -1.6355
 5197SOL    HW219508   5.112   2.807   2.888 -0.2349  0.0414 -1.1854
 5198SOL     OW19509   0.379   6.094   2.474  0.5994  0.4960 -0.4255
 5198SOL    HW119510   0.305   6.129   2.424  0.0848  0.3538  0.2295
 5198SOL    HW219511   0.370   6.134   2.561  0.2049 -0.9712  0.2368
 5199SOL     OW19512   9.681   2.070   5.486 -0.7528 -0.1320 -0.2309
 5199SOL    HW119513   9.630   2.111   5.555  1.4429 -0.7800  1.9276
 5199SOL    HW219514   9.653   1.978   5.487  0.6010 -0.5608  1.1833
 5200SOL     OW19515   8.801   3.502   7.491  0.1784  0.2975  0.0002
 5200SOL    HW119516   8.728   3.559   7.468 -0.6879 -0.6820  0.2425
 5200SOL    HW219517   8.875   3.535   7.439 -0.1984  1.8237  0.3897
 5201SOL     OW19518   8.518   6.171   3.207  0.5356  0.3366 -0.0053
 5201SOL    HW119519   8.554   6.155   3.120 -0.0683  1.4962 -0.5008
 5201SOL    HW219520   8.589   6.212   3.255  0.3078  1.4747 -0.5889
 5202SOL     OW19521   0.635   7.292   3.459 -0.0167 -0.3366  0.2513
 5202SOL    HW119522   0.718   7.336   3.478  0.1359  0.5441 -2.0795
 5202SOL    HW219523   0.658   7.226   3.393 -1.2023  0.2378 -0.7803
 5203SOL     OW19524   0.487   6.830   4.260  0.1640 -0.4057 -0.5423
 5203SOL    HW119525   0.393   6.837   4.276  0.0520  0.0183 -1.3380
 5203SOL    HW219526   0.523   6.797   4.342 -0.2375  2.6534  0.9813
 5204SOL     OW19527   2.685   4.942   2.444 -0.0636  0.0798  0.1100
 5204SOL    HW119528   2.775   4.967   2.423  0.7239 -1.6514  1.1867
 5204SOL    HW219529   2.642   4.934   2.359  0.5526  1.6556 -0.3934
 5205SOL     OW19530   2.123   8.595   2.239 -0.1292  0.0501  0.8852
 5205SOL    HW119531   2.124   8.671   2.298 -0.3109  1.9962 -1.4308
 5205SOL    HW219532   2.032   8.567   2.238 -0.6491  1.6624 -0.3726
 5206SOL     OW19533   8.244   0.804   9.293 -0.2024 -0.4459 -0.0294
 5206SOL    HW119534   8.326   0.851   9.277  0.3344 -1.8584 -1.8168
 5206SOL    HW219535   8.220   0.769   9.207 -2.9981  0.3702  0.3150
 5207SOL     OW19536   8.068   4.197   2.394 -0.1749  0.8769  0.2581
 5207SOL    HW119537   8.122   4.121   2.375  0.6473  1.4357  0.3140
 5207SOL    HW219538   8.073   4.251   2.315 -0.4848  1.0291  0.3385
 5208SOL     OW19539   5.054   6.100   7.296  0.1952 -0.1348  0.6680
 5208SOL    HW119540   4.999   6.102   7.374 -0.5883 -2.6249  0.2864
 5208SOL    HW219541   5.144   6.103   7.329 -0.1261  1.4800  1.4579
 5209SOL     OW19542   3.618   7.639   1.992 -0.2711 -0.1504  0.3187
 5209SOL    HW119543   3.656   7.578   2.055  1.4825  2.2514  1.7753
 5209SOL    HW219544   3.638   7.725   2.028 -1.1474  1.3327 -2.4741
 5210SOL     OW19545   1.629   2.837   7.762 -0.2699 -0.6391 -0.0091
 5210SOL    HW119546   1.558   2.899   7.778 -0.0491  0.1284 -1.7966
 5210SOL    HW219547   1.667   2.821   7.849  0.0165  2.1524  0.4753
 5211SOL     OW19548   7.323   1.641   6.256  0.4259 -0.2909  0.0610
 5211SOL    HW119549   7.312   1.724   6.211 -2.3700 -1.5432 -1.8290
 5211SOL    HW219550   7.406   1.606   6.224 -0.2684  0.0321 -2.2354
 5212SOL     OW19551   3.082   5.571   0.775 -0.2250 -0.3401  0.1476
 5212SOL    HW119552   3.158   5.579   0.716  0.0514  0.3012  0.5749
 5212SOL    HW219553   3.120   5.562   0.862 -0.6412 -0.3830  0.3268
 5213SOL     OW19554   3.045   8.703   4.522  0.2575  0.5281  0.1721
 5213SOL    HW119555   3.025   8.678   4.432 -1.1451  2.0332  0.0233
 5213SOL    HW219556   2.967   8.677   4.572  0.1194  1.6671  0.5621
 5214SOL     OW19557   3.501   2.393   0.817 -0.6510  0.1754  0.8284
 5214SOL    HW119558   3.455   2.415   0.899  0.3071 -0.0752  1.4489
 5214SOL    HW219559   3.577   2.450   0.816 -1.2429  0.9902 -0.4781
 5215SOL     OW19560   4.794   4.853   3.643 -0.0284 -0.1580 -0.0011
 5215SOL    HW119561   4.880   4.855   3.685 -0.0086 -0.5620 -0.0239
 5215SOL    HW219562   4.811   4.821   3.555  0.2857  2.8450 -1.1590
 5216SOL     OW19563   9.832   6.153   8.990  0.0666  0.2946 -0.1631
 5216SOL    HW119564   9.863   6.147   9.080  2.5444  2.3252 -0.7776
 5216SOL    HW219565   9.844   6.065   8.954  0.7072 -0.1072  0.9994
 5217SOL     OW19566   2.048   9.308   0.318 -0.1571  0.3440 -0.5095
 5217SOL    HW119567   2.060   9.242   0.387 -0.5692 -0.8967 -1.5967
 5217SOL    HW219568   2.109   9.283   0.249 -0.2358  1.1824 -0.9025
 5218SOL     OW19569   4.029   8.948   5.680  0.2287  0.1300 -0.4917
 5218SOL    HW119570   4.030   8.857   5.651  0.0681  0.4327 -1.5076
 5218SOL    HW219571   4.059   8.998   5.604  1.4843  0.8407  0.4370
 5219SOL     OW19572   4.241   2.912   7.596 -0.2832 -0.4719 -0.3048
 5219SOL    HW119573   4.203   2.825   7.604  0.5776 -0.8516 -0.2464
 5219SOL    HW219574   4.215   2.941   7.508  0.2488 -1.1984 -0.7126
 5220SOL     OW19575   7.342   4.974   7.052  0.0156  0.3595 -0.2348
 5220SOL    HW119576   7.258   4.970   7.006 -1.0938  1.0407  1.6281
 5220SOL    HW219577   7.406   4.992   6.983 -1.1486 -1.4001 -1.8986
 5221SOL     OW19578   5.945   6.652   3.266  0.3000 -0.1885 -0.1896
 5221SOL    HW119579   6.012   6.605   3.215 -0.6952 -1.4185 -0.4195
 5221SOL    HW219580   5.885   6.687   3.200 -1.0207 -1.8256  0.0785
 5222SOL     OW19581   7.263   1.242   5.625  0.1329 -0.1865 -0.2949
 5222SOL    HW119582   7.294   1.222   5.713 -0.4351  1.8469  0.4322
 5222SOL    HW219583   7.172   1.213   5.625 -0.5631  1.7786  0.6154
 5223SOL     OW19584   2.737   0.418   0.323 -0.2531  0.1768 -0.0908
 5223SOL    HW119585   2.709   0.454   0.407 -0.4527 -1.1083  0.4068
 5223SOL    HW219586   2.830   0.439   0.318 -0.4400  1.0827  0.0041
 5224SOL     OW19587   9.687   5.038   7.271  0.1184 -0.4614  0.8224
 5224SOL    HW119588   9.777   5.060   7.295  0.3782 -0.9182  0.2866
 5224SOL    HW219589   9.692   5.016   7.178 -0.6536  0.1114  0.6262
 5225SOL     OW19590   4.319   8.875   5.515 -0.1300  0.0612  0.1098
 5225SOL    HW119591   4.319   8.867   5.419  1.2624  0.2633  0.0647
 5225SOL    HW219592   4.289   8.790   5.546 -0.1968 -0.1474 -0.5008
 5226SOL     OW19593   6.499   3.969   1.158 -0.5729  0.2734 -0.1567
 5226SOL    HW119594   6.443   4.025   1.104  1.4017  0.7052 -1.8751
 5226SOL    HW219595   6.572   4.026   1.184 -0.4593 -0.4911  1.3213
 5227SOL     OW19596   8.805   3.062   0.746 -0.0024  0.1969 -0.1674
 5227SOL    HW119597   8.855   3.087   0.824  0.2258 -1.4215  0.2325
 5227SOL    HW219598   8.715   3.088   0.765 -0.1388 -1.1006  1.0966
 5228SOL     OW19599   2.449   9.021   7.558 -0.0730  0.0664 -0.1463
 5228SOL    HW119600   2.530   9.015   7.507 -0.1894 -0.4535 -0.2791
 5228SOL    HW219601   2.425   8.930   7.575  0.6233  0.2131  1.8999
 5229SOL     OW19602   7.441   3.619   0.232 -0.0227  0.5262 -0.1721
 5229SOL    HW119603   7.357   3.578   0.214 -0.2437  0.9347 -0.0953
 5229SOL    HW219604   7.428   3.711   0.208  0.9487  0.2678 -1.9124
 5230SOL     OW19605   4.534   2.031   3.467  0.1223 -0.2060 -0.0945
 5230SOL    HW119606   4.588   1.972   3.414  0.4690  0.9848 -1.1213
 5230SOL    HW219607   4.445   2.017   3.435  0.1184 -0.5728  0.0679
 5231SOL     OW19608   2.344   6.508   0.899 -0.6064 -0.3105  0.0631
 5231SOL    HW119609   2.422   6.551   0.933 -0.0359 -0.7483 -0.6767
 5231SOL    HW219610   2.305   6.465   0.976 -0.1526 -0.0536  0.4436
 5232SOL     OW19611   8.980   6.909  10.128  0.6504  0.0947  0.0510
 5232SOL    HW119612   8.913   6.957  10.080 -1.8282 -3.1345 -0.0461
 5232SOL    HW219613   9.062   6.931  10.083 -0.7508  1.7261 -1.8964
 5233SOL     OW19614   2.352   6.644   2.482  0.2066 -0.0942 -0.1082
 5233SOL    HW119615   2.411   6.713   2.513 -0.1910  0.1858  0.0329
 5233SOL    HW219616   2.296   6.625   2.558  1.4777 -1.8537  0.4450
 5234SOL     OW19617   8.693   0.844   1.507 -0.2034 -0.3273  0.0423
 5234SOL    HW119618   8.708   0.884   1.593  1.2445 -1.7764  0.5272
 5234SOL    HW219619   8.611   0.796   1.517  0.1187 -0.7568  0.7593
 5235SOL     OW19620   7.385   2.767   9.661 -0.1755 -0.1262 -0.9826
 5235SOL    HW119621   7.332   2.711   9.605 -3.3848  2.5652 -0.9226
 5235SOL    HW219622   7.354   2.856   9.642  2.0627  1.3295  1.5375
 5236SOL     OW19623   1.916   3.524   1.251 -0.1182 -0.1295  0.0875
 5236SOL    HW119624   1.896   3.452   1.191 -1.1318  1.3153 -1.4044
 5236SOL    HW219625   1.900   3.489   1.338  1.4809 -2.3320 -0.4330
 5237SOL     OW19626   8.798   6.545   4.484  0.1810 -0.1609  0.3427
 5237SOL    HW119627   8.782   6.518   4.574 -0.1222  1.2999  0.7648
 5237SOL    HW219628   8.883   6.508   4.462  0.1723 -0.6850  1.1715
 5238SOL     OW19629   3.170  10.034   9.625  0.5468 -0.2902  0.0365
 5238SOL    HW119630   3.150  10.127   9.636  1.5062 -0.2732  2.1597
 5238SOL    HW219631   3.176  10.000   9.714  2.3439 -1.9092 -0.6329
 5239SOL     OW19632   1.649   4.286   6.156  0.5257  0.3122  0.1816
 5239SOL    HW119633   1.654   4.193   6.178 -1.8631  0.2064  0.5622
 5239SOL    HW219634   1.645   4.287   6.060  0.6309  0.0226  0.1712
 5240SOL     OW19635   0.530   2.886   3.160  0.2148  0.0184 -0.0245
 5240SOL    HW119636   0.498   2.832   3.088  0.5445 -0.7529  0.4039
 5240SOL    HW219637   0.625   2.878   3.156  0.2174 -0.5367  0.8717
 5241SOL     OW19638   0.659   6.745   5.850  0.3135  0.3960 -0.3038
 5241SOL    HW119639   0.719   6.696   5.906 -0.8934 -0.5384  0.2257
 5241SOL    HW219640   0.677   6.714   5.761  1.2180  0.7981 -0.2719
 5242SOL     OW19641   1.501   4.975   9.986 -0.4705 -0.4053  0.3956
 5242SOL    HW119642   1.465   5.017   9.907 -2.1247  0.5181  1.5632
 5242SOL    HW219643   1.485   4.882   9.973 -0.2305 -0.3172 -0.5931
 5243SOL     OW19644   6.071   7.029   1.213  0.4034  0.1560 -0.2632
 5243SOL    HW119645   6.014   6.993   1.146  0.2174 -0.9732  0.4709
 5243SOL    HW219646   6.127   6.956   1.239 -0.2596  0.2369  1.5595
 5244SOL     OW19647   7.001   7.261   2.967  0.3235 -0.3756  0.3655
 5244SOL    HW119648   6.955   7.189   3.010  0.6700 -0.2630  0.9460
 5244SOL    HW219649   6.942   7.290   2.898  0.7000 -2.0187 -0.7095
 5245SOL     OW19650   9.194   9.650   5.054 -0.2136 -0.6941 -0.3768
 5245SOL    HW119651   9.253   9.609   5.118  0.5595  1.1068  0.1381
 5245SOL    HW219652   9.111   9.604   5.065  0.4710 -1.7925  0.4728
 5246SOL     OW19653   2.618   7.544   1.920 -0.0131  0.4088  0.0478
 5246SOL    HW119654   2.643   7.484   1.991  0.7798  2.1727  1.3236
 5246SOL    HW219655   2.658   7.628   1.944 -2.1467  1.8111 -1.0109
 5247SOL     OW19656   5.099  10.132   9.190  0.1116 -0.0728  0.1037
 5247SOL    HW119657   5.190  10.115   9.165 -0.4267 -0.1156 -1.9726
 5247SOL    HW219658   5.105  10.166   9.279  2.2750  1.1962 -0.4631
 5248SOL     OW19659   2.926   3.252   1.950  0.1603 -0.4150 -0.2535
 5248SOL    HW119660   2.909   3.179   1.891 -1.9858 -0.8853  0.8406
 5248SOL    HW219661   2.845   3.303   1.949  0.6450  0.4456  1.0607
 5249SOL     OW19662   2.899   5.222   3.643  0.0729  0.4873  0.8380
 5249SOL    HW119663   2.877   5.213   3.736  0.1301  0.5273  0.8550
 5249SOL    HW219664   2.823   5.267   3.605  0.2067  0.7907  0.9321
 5250SOL     OW19665   9.909   5.976   5.310  0.1525  0.3461 -0.5642
 5250SOL    HW119666   9.972   5.964   5.240 -1.0825 -1.4062 -1.4224
 5250SOL    HW219667   9.910   5.894   5.359 -0.2947  0.8946  0.4143
 5251SOL     OW19668   8.577   4.405   4.859  0.1740 -0.0149 -0.4624
 5251SOL    HW119669   8.599   4.324   4.813 -0.6992 -2.7644  3.4904
 5251SOL    HW219670   8.650   4.464   4.840  1.3017 -2.0061 -2.7612
 5252SOL     OW19671   0.960   4.139   0.762  0.2622 -0.3883  0.6672
 5252SOL    HW119672   0.997   4.199   0.827 -0.6730  1.1035 -0.1426
 5252SOL    HW219673   0.893   4.091   0.810  1.0609 -0.8859  1.3322
 5253SOL     OW19674   5.201  10.146   8.858  0.0575 -0.0757 -0.8498
 5253SOL    HW119675   5.292  10.117   8.859  0.0034 -0.2555  0.1488
 5253SOL    HW219676   5.150  10.065   8.859 -0.0968  0.0211  0.3028
 5254SOL     OW19677   3.116   3.085   1.472 -0.2027  0.1431  0.3206
 5254SOL    HW119678   3.064   3.072   1.392  0.4234 -1.1484  0.1081
 5254SOL    HW219679   3.053   3.072   1.543 -0.2392 -1.3045  0.0617
 5255SOL     OW19680   7.126   7.175   0.274  0.0953 -0.7154 -0.1551
 5255SOL    HW119681   7.050   7.208   0.225 -0.3540 -2.6600 -0.8578
 5255SOL    HW219682   7.131   7.082   0.251  1.6650 -1.0238  1.2376
 5256SOL     OW19683  10.095   3.993   2.803  0.3885  0.3902 -1.1102
 5256SOL    HW119684  10.150   3.931   2.851  0.6337  1.5635  0.1804
 5256SOL    HW219685  10.060   4.051   2.870 -3.4841 -1.0207 -1.6576
 5257SOL     OW19686   1.704   0.323   4.843  0.8780 -0.5524  0.2592
 5257SOL    HW119687   1.729   0.356   4.757 -0.8245  0.4640  0.1111
 5257SOL    HW219688   1.675   0.233   4.826  3.0329 -1.2934  0.2384
 5258SOL     OW19689   3.655   9.420   7.054  0.4789  0.5822  0.0553
 5258SOL    HW119690   3.642   9.346   7.114  2.5605 -0.2657 -0.4642
 5258SOL    HW219691   3.730   9.395   7.000  0.3703  2.4961 -1.0861
 5259SOL     OW19692   7.638   6.977   1.748  0.5169 -0.2563 -0.1088
 5259SOL    HW119693   7.565   7.037   1.730 -0.1222 -1.1814 -0.6756
 5259SOL    HW219694   7.606   6.921   1.819 -0.0307 -1.8130 -1.5229
 5260SOL     OW19695   1.132   2.592   3.269 -0.1030 -0.2467  0.7153
 5260SOL    HW119696   1.141   2.498   3.251 -0.3715  0.0249 -0.9763
 5260SOL    HW219697   1.106   2.596   3.361 -0.2219 -1.8354  0.7821
 5261SOL     OW19698   9.079   0.944   6.792  0.0573 -0.9177 -0.5947
 5261SOL    HW119699   9.163   0.984   6.768  0.2078 -1.1254 -0.4168
 5261SOL    HW219700   9.097   0.850   6.797  1.1015 -0.7165  4.2279
 5262SOL     OW19701   4.108  10.176   8.430  0.2547  0.2812 -0.5233
 5262SOL    HW119702   4.182  10.208   8.377  0.5060 -1.5124 -1.3141
 5262SOL    HW219703   4.149  10.120   8.495 -0.3219  0.1541 -0.2693
 5263SOL     OW19704   4.816   2.473   9.969  0.3485  0.4557 -0.2270
 5263SOL    HW119705   4.889   2.449  10.026  1.8409  1.9693 -1.3883
 5263SOL    HW219706   4.850   2.461   9.881 -1.4079 -0.4023 -0.8302
 5264SOL     OW19707   5.706   6.033   9.435 -0.3908  0.1696 -0.1865
 5264SOL    HW119708   5.730   6.118   9.397 -1.6882  0.6053 -0.0845
 5264SOL    HW219709   5.630   6.052   9.489  0.4904 -0.7179  1.4605
 5265SOL     OW19710   9.073  10.063   2.027  0.0870 -0.8536  0.2268
 5265SOL    HW119711   9.075  10.125   2.100 -2.9547  0.6651 -0.8380
 5265SOL    HW219712   9.155  10.080   1.979 -0.2316  1.7368  0.4872
 5266SOL     OW19713   2.305   2.414   2.142  0.1683 -0.4183  0.4090
 5266SOL    HW119714   2.252   2.360   2.084 -0.6077  0.7596 -0.0183
 5266SOL    HW219715   2.269   2.399   2.229  1.2609 -2.1013  0.6185
 5267SOL     OW19716   0.240   1.933   7.732  0.4756 -0.0889 -0.1852
 5267SOL    HW119717   0.185   2.002   7.695  1.3717  0.7879  0.0884
 5267SOL    HW219718   0.234   1.861   7.669  1.3575  1.0776 -1.6511
 5268SOL     OW19719   9.164   8.945   7.845 -1.0053 -0.7637 -0.2043
 5268SOL    HW119720   9.082   8.978   7.882  0.7022  2.9096  0.7648
 5268SOL    HW219721   9.196   8.882   7.909 -1.6831  0.0023  0.9218
 5269SOL     OW19722   2.042   1.420   2.413 -0.0135  0.4333 -0.5461
 5269SOL    HW119723   2.102   1.414   2.487  0.8241  0.5471 -1.2106
 5269SOL    HW219724   1.970   1.361   2.436  1.3116 -1.3069 -0.6231
 5270SOL     OW19725   8.961  10.169   5.590 -0.7646  0.0703  0.2421
 5270SOL    HW119726   8.974  10.263   5.578 -0.9109 -0.1928 -2.8761
 5270SOL    HW219727   8.876  10.151   5.551 -2.5177 -0.9351  4.0929
 5271SOL     OW19728   8.274   7.128   5.411  0.3600  0.2860 -0.0993
 5271SOL    HW119729   8.236   7.198   5.463 -0.5230  0.5580 -1.0678
 5271SOL    HW219730   8.354   7.104   5.457 -0.3937  0.4913  1.3761
 5272SOL     OW19731   3.479   0.427   8.676  0.2568 -0.3366 -0.4059
 5272SOL    HW119732   3.571   0.447   8.697  0.1803  0.6763 -0.9963
 5272SOL    HW219733   3.468   0.459   8.586 -0.4213 -1.3204 -0.6874
 5273SOL     OW19734   7.115   4.157   3.733  0.1995  0.0633  0.1235
 5273SOL    HW119735   7.056   4.149   3.658  0.0071  3.3389 -0.2136
 5273SOL    HW219736   7.200   4.177   3.695  0.0377  2.0425  0.6972
 5274SOL     OW19737   0.903   5.285   4.986  0.2584 -0.3352 -0.3736
 5274SOL    HW119738   0.923   5.292   4.893  0.2232  0.7295 -0.3199
 5274SOL    HW219739   0.978   5.326   5.030  0.2614 -0.7997  0.0637
 5275SOL     OW19740   6.505   3.254   7.142 -0.6203 -0.0021  0.0999
 5275SOL    HW119741   6.472   3.166   7.159  0.3073 -0.6944 -1.4165
 5275SOL    HW219742   6.466   3.278   7.058 -0.6847  0.9361  0.3904
 5276SOL     OW19743   0.564   1.524   6.960  0.1114 -0.0321  0.1004
 5276SOL    HW119744   0.559   1.465   7.035 -1.3558  0.9680  0.8217
 5276SOL    HW219745   0.499   1.592   6.978 -0.5769  0.0085 -2.2714
 5277SOL     OW19746   1.524   6.297   4.102 -0.1741 -0.3621  0.1642
 5277SOL    HW119747   1.541   6.269   4.192 -1.8609  0.4341  0.7782
 5277SOL    HW219748   1.519   6.393   4.107  1.7392 -0.1317 -1.1909
 5278SOL     OW19749   4.935   8.535   9.635  0.0974  0.2184 -0.4142
 5278SOL    HW119750   4.900   8.623   9.626  0.6245  0.3940 -0.7893
 5278SOL    HW219751   4.858   8.480   9.653 -0.0752  0.9344  1.1857
 5279SOL     OW19752   8.123   3.515   1.609 -0.0701 -0.9129  0.1300
 5279SOL    HW119753   8.165   3.601   1.604 -0.0758 -0.8825  0.6100
 5279SOL    HW219754   8.090   3.510   1.698  0.5938 -1.7265  0.3382
 5280SOL     OW19755   2.969   1.759   3.278  0.1036 -0.0719 -0.0453
 5280SOL    HW119756   2.915   1.785   3.203 -2.3569 -0.2234  1.5624
 5280SOL    HW219757   2.944   1.821   3.347  0.5450 -1.3908  1.3358
 5281SOL     OW19758   9.936  10.157   3.911  0.6889 -0.2204 -0.1834
 5281SOL    HW119759   9.867  10.211   3.950  1.1601  1.4514 -1.5572
 5281SOL    HW219760   9.888  10.090   3.861  0.0095  1.0394 -1.2884
 5282SOL     OW19761   4.734   2.487   6.304  0.2353  0.1688 -0.2976
 5282SOL    HW119762   4.649   2.455   6.274  1.1445 -2.5275 -0.2527
 5282SOL    HW219763   4.716   2.522   6.392 -1.2082  1.9417 -1.2256
 5283SOL     OW19764   5.541   9.763   3.529  0.3740  0.3361  0.7178
 5283SOL    HW119765   5.517   9.708   3.603  1.0539 -0.6833  0.1982
 5283SOL    HW219766   5.625   9.803   3.555  0.7275 -0.1999  0.4155
 5284SOL     OW19767   8.379   8.208   4.589  0.5785  0.7850 -0.2954
 5284SOL    HW119768   8.324   8.155   4.647  1.3634 -1.8392 -1.7837
 5284SOL    HW219769   8.317   8.257   4.535 -0.1628  2.0352  1.5931
 5285SOL     OW19770   2.051   3.730   1.833 -0.1750 -0.3730 -0.1134
 5285SOL    HW119771   2.017   3.760   1.748 -0.0376 -0.3948 -0.1763
 5285SOL    HW219772   1.981   3.750   1.895  0.0550  0.4015 -0.0954
 5286SOL     OW19773   9.875   9.026   0.441  0.1282 -0.0763  0.4627
 5286SOL    HW119774   9.806   8.984   0.493  0.6329 -1.8592 -0.2556
 5286SOL    HW219775   9.857   8.999   0.351  0.3940  1.4009 -0.0680
 5287SOL     OW19776   3.257   6.339   9.105  0.0585  0.0719 -1.3155
 5287SOL    HW119777   3.175   6.385   9.086 -0.0960  0.6759  0.6262
 5287SOL    HW219778   3.283   6.370   9.191  1.1026 -1.8804 -0.8632
 5288SOL     OW19779   0.344   4.822   7.229 -0.5981 -0.0912  0.1780
 5288SOL    HW119780   0.366   4.913   7.208 -2.3697  0.0412 -1.3554
 5288SOL    HW219781   0.335   4.779   7.144  1.7073 -2.1611  0.8701
 5289SOL     OW19782   1.607   3.463   7.281 -0.9726 -0.3751  0.0861
 5289SOL    HW119783   1.675   3.407   7.319  0.7212  1.6172  0.1632
 5289SOL    HW219784   1.641   3.487   7.195 -2.0228 -0.0691 -0.2575
 5290SOL     OW19785   5.479   0.166   4.683 -0.5745  0.1602 -0.4270
 5290SOL    HW119786   5.479   0.199   4.593 -2.4679  0.3311 -0.3872
 5290SOL    HW219787   5.411   0.099   4.684 -0.8931  0.4820  0.9885
 5291SOL     OW19788   0.636   9.182   5.490  0.1589 -0.0501  0.4887
 5291SOL    HW119789   0.702   9.209   5.427 -0.1548 -2.2516 -0.8914
 5291SOL    HW219790   0.552   9.205   5.449 -0.0437 -1.3962  0.0990
 5292SOL     OW19791   6.317   9.509   1.973  0.3867 -0.0686 -0.0111
 5292SOL    HW119792   6.304   9.494   2.067 -1.4787 -0.1397 -0.2316
 5292SOL    HW219793   6.343   9.424   1.938  3.8665  0.5294  0.7799
 5293SOL     OW19794   7.376   5.001   8.363  0.1929  0.5185  0.0159
 5293SOL    HW119795   7.364   5.002   8.458 -0.4138  1.0713 -0.0590
 5293SOL    HW219796   7.369   5.093   8.337  0.0100  0.3325 -0.6100
 5294SOL     OW19797   5.694   3.054   5.713  0.0845  0.3078 -0.1265
 5294SOL    HW119798   5.657   2.976   5.672  0.8488 -0.3423  0.3925
 5294SOL    HW219799   5.759   3.085   5.649  1.0340 -0.5102  0.4167
 5295SOL     OW19800   2.002   0.695   9.518  0.0314  0.0003 -0.3401
 5295SOL    HW119801   1.967   0.751   9.449 -1.9349 -1.3289 -0.4844
 5295SOL    HW219802   2.045   0.623   9.471  0.6059  0.2157 -0.1552
 5296SOL     OW19803   6.504   9.095   8.111  0.3172  0.4997  0.2105
 5296SOL    HW119804   6.553   9.069   8.189 -1.3549  0.6121  1.3361
 5296SOL    HW219805   6.413   9.101   8.140 -0.5951 -0.8247 -2.0421
 5297SOL     OW19806   7.560   3.687   3.831  0.0978  0.3393  0.5626
 5297SOL    HW119807   7.611   3.682   3.911  0.3273 -0.0498  0.3937
 5297SOL    HW219808   7.469   3.677   3.859  0.1754  0.2429  0.7756
 5298SOL     OW19809   2.027   9.187   4.088  0.4986  0.0074 -0.2831
 5298SOL    HW119810   2.045   9.094   4.100 -0.0116  0.1980  2.7315
 5298SOL    HW219811   2.066   9.208   4.003  0.0207 -3.0601 -1.4003
 5299SOL     OW19812   3.444   9.351   9.058  0.0125 -0.3582 -0.0257
 5299SOL    HW119813   3.399   9.312   9.133  0.0012  0.2241  0.2775
 5299SOL    HW219814   3.530   9.307   9.057  0.4843  0.4990  1.0885
 5300SOL     OW19815   7.103   1.331   6.548  0.8480 -0.8416  0.2605
 5300SOL    HW119816   7.069   1.291   6.468  0.0749 -3.7235  1.8789
 5300SOL    HW219817   7.179   1.381   6.519 -0.3625 -0.3982 -2.4647
 5301SOL     OW19818   8.968   6.356   8.439 -0.3175 -0.2587  0.3808
 5301SOL    HW119819   8.969   6.433   8.496  1.6566  0.3013 -0.3473
 5301SOL    HW219820   8.939   6.389   8.354 -2.0247 -0.8616  0.6732
 5302SOL     OW19821   3.530   1.617   3.662  0.9740 -0.0973  0.2267
 5302SOL    HW119822   3.538   1.608   3.567  0.0865 -1.6058  0.2810
 5302SOL    HW219823   3.614   1.586   3.695  1.7390  1.5198 -0.0829
 5303SOL     OW19824   3.185   1.193   9.842  0.3772  0.0983  0.4894
 5303SOL    HW119825   3.190   1.238   9.926  0.6302 -2.0665  1.7031
 5303SOL    HW219826   3.255   1.128   9.845 -0.0257 -0.4612 -1.1373
 5304SOL     OW19827   5.072   7.880   7.412  0.1430 -0.2989 -0.5732
 5304SOL    HW119828   5.010   7.866   7.483 -0.1637 -0.3364 -0.8444
 5304SOL    HW219829   5.025   7.851   7.333  1.0337 -1.7744 -0.6030
 5305SOL     OW19830   3.812   0.436   3.322  0.1923 -0.4424 -0.1183
 5305SOL    HW119831   3.793   0.484   3.241 -1.4764  0.4868  0.7762
 5305SOL    HW219832   3.832   0.504   3.386  2.0546 -1.1875  0.1746
 5306SOL     OW19833   8.498   3.435   3.541 -0.3382 -0.2563 -0.0288
 5306SOL    HW119834   8.549   3.465   3.466 -1.1639 -0.4998 -0.7154
 5306SOL    HW219835   8.562   3.404   3.604  0.3763 -0.0083 -0.6232
 5307SOL     OW19836   5.437   6.657   0.519  0.5572  0.0753  0.0554
 5307SOL    HW119837   5.350   6.616   0.517 -1.1617  3.1169  2.2817
 5307SOL    HW219838   5.477   6.623   0.600  0.8799 -0.2723 -0.2462
 5308SOL     OW19839   3.920   4.331   6.679  0.1852 -0.0531 -0.0299
 5308SOL    HW119840   3.929   4.353   6.771  0.9686  1.1386 -0.3588
 5308SOL    HW219841   3.936   4.413   6.633  0.3340 -0.7328 -1.2484
 5309SOL     OW19842   6.464   0.079   8.299 -0.1976 -0.0366  0.1794
 5309SOL    HW119843   6.510   0.110   8.221 -0.0931 -2.1491 -0.6415
 5309SOL    HW219844   6.533   0.058   8.362 -0.2422  0.5693  0.4458
 5310SOL     OW19845   1.698   9.654   1.472  0.0644  0.3829 -0.9394
 5310SOL    HW119846   1.761   9.692   1.533  1.1863 -1.5259 -0.8158
 5310SOL    HW219847   1.743   9.656   1.387 -0.7635  1.3268 -1.3914
 5311SOL     OW19848   0.009   2.441   8.132  0.4670 -0.1589 -0.3843
 5311SOL    HW119849  -0.017   2.507   8.196 -1.3115 -0.1547 -1.0412
 5311SOL    HW219850   0.105   2.439   8.135  0.5247  1.9190  0.1669
 5312SOL     OW19851   1.824   2.087   0.197  0.4967 -0.7372  0.2617
 5312SOL    HW119852   1.855   2.015   0.142 -0.6871 -0.0439 -1.4093
 5312SOL    HW219853   1.895   2.152   0.193  0.3868 -0.6476 -0.5828
 5313SOL     OW19854   2.426   8.527   3.828  0.3942  0.7025  0.0469
 5313SOL    HW119855   2.417   8.621   3.840 -1.3505  0.3336  2.2165
 5313SOL    HW219856   2.369   8.488   3.894 -0.4547 -1.8832 -2.0046
 5314SOL     OW19857   8.280   2.084   0.191  0.4203  0.4308  0.4896
 5314SOL    HW119858   8.336   2.162   0.199 -0.5951  1.1778  0.5598
 5314SOL    HW219859   8.207   2.113   0.137  0.0640 -0.5072  0.4551
 5315SOL     OW19860   8.404   0.744   9.758 -0.1638 -0.1514 -0.3609
 5315SOL    HW119861   8.315   0.767   9.784  0.1916  1.7294 -0.7107
 5315SOL    HW219862   8.461   0.794   9.816  0.6620 -0.4904 -0.8487
 5316SOL     OW19863   0.035   7.031   9.696  0.2534 -0.3126 -0.2648
 5316SOL    HW119864   0.098   7.100   9.717  0.3013 -0.5706  0.4709
 5316SOL    HW219865   0.002   7.054   9.609 -1.2720  1.8244  0.7808
 5317SOL     OW19866   3.190   4.456   5.818 -0.4003 -0.1539 -0.4225
 5317SOL    HW119867   3.262   4.396   5.794  0.1521  0.4871 -0.3914
 5317SOL    HW219868   3.117   4.398   5.837  0.0440 -0.8155 -0.6715
 5318SOL     OW19869   7.034   2.402   7.139  0.6663 -0.4182 -0.2130
 5318SOL    HW119870   6.990   2.466   7.194  0.0854  0.1786 -1.3400
 5318SOL    HW219871   7.103   2.366   7.195 -0.3329 -0.3584  1.1347
 5319SOL     OW19872   6.737   3.546   6.835  0.1816  0.0193  0.4510
 5319SOL    HW119873   6.699   3.571   6.919  1.0155 -1.8184  1.4185
 5319SOL    HW219874   6.827   3.520   6.855  0.6576  0.3145 -1.1388
 5320SOL     OW19875   6.478   3.486   1.221 -0.6255  0.2466 -0.7775
 5320SOL    HW119876   6.482   3.417   1.154 -1.1840  0.1378 -0.7063
 5320SOL    HW219877   6.542   3.459   1.286 -1.2825 -0.5530 -0.4376
 5321SOL     OW19878   4.202   8.734   0.805  0.2834  0.5523  0.4873
 5321SOL    HW119879   4.290   8.713   0.773  0.0018 -0.2048  0.1793
 5321SOL    HW219880   4.161   8.783   0.733 -0.1330 -0.6054 -0.0893
 5322SOL     OW19881   3.939   8.657   7.036  0.1384  0.9018  0.4985
 5322SOL    HW119882   3.917   8.672   6.944 -0.7736 -1.5674  0.2322
 5322SOL    HW219883   4.018   8.603   7.033  0.5333  1.4185  1.2176
 5323SOL     OW19884   0.093   3.152   1.777  0.1820  0.9530 -0.2736
 5323SOL    HW119885   0.126   3.218   1.717  2.8745  0.5733  0.6795
 5323SOL    HW219886   0.089   3.195   1.862 -1.7407  0.9271 -0.3026
 5324SOL     OW19887   6.224   8.675   5.592  0.8305  0.3091 -0.2116
 5324SOL    HW119888   6.165   8.714   5.527  1.8099  1.2187 -0.5763
 5324SOL    HW219889   6.248   8.590   5.555  1.0658  0.6514 -0.8598
 5325SOL     OW19890   8.977   9.683   9.174 -0.3316 -0.9715  0.2656
 5325SOL    HW119891   8.907   9.656   9.115 -0.3770  0.4580 -0.3732
 5325SOL    HW219892   8.935   9.746   9.233  0.8605  1.7871 -1.6477
 5326SOL     OW19893   8.931   4.883   5.867 -0.3245 -0.4032  0.1312
 5326SOL    HW119894   8.928   4.934   5.947 -0.3684 -0.0230 -0.1101
 5326SOL    HW219895   8.844   4.893   5.828 -0.8551 -1.9262  0.8522
 5327SOL     OW19896   9.728   3.438   1.092  0.0207 -0.2106  0.7218
 5327SOL    HW119897   9.708   3.500   1.021 -1.2798 -1.7317 -0.3022
 5327SOL    HW219898   9.734   3.493   1.170  2.3062  1.6406 -0.6064
 5328SOL     OW19899   7.128   9.482   5.514 -0.1786  0.0173  0.5944
 5328SOL    HW119900   7.182   9.560   5.527  2.1105 -1.3599 -0.0455
 5328SOL    HW219901   7.183   9.409   5.543 -0.5294 -1.7478 -2.7155
 5329SOL     OW19902   9.864   8.518   1.340 -0.1704  0.4977  0.1658
 5329SOL    HW119903   9.802   8.480   1.278 -0.5333  2.4846 -0.7691
 5329SOL    HW219904   9.812   8.583   1.388  0.8029  1.0057  0.5434
 5330SOL     OW19905   4.199   3.744   5.179  0.0806 -0.1404 -0.4718
 5330SOL    HW119906   4.277   3.791   5.209 -0.0951  0.5045 -0.9951
 5330SOL    HW219907   4.145   3.734   5.258  0.9146 -1.0497 -0.0036
 5331SOL     OW19908   6.006   1.425   7.411 -0.0436 -0.2156  0.1538
 5331SOL    HW119909   6.026   1.384   7.495  0.5136  0.3605  0.3131
 5331SOL    HW219910   6.000   1.352   7.349  2.8717 -0.4839  0.0358
 5332SOL     OW19911   8.777   6.374   7.844 -0.1298  0.4358 -0.4331
 5332SOL    HW119912   8.865   6.411   7.835  0.6247 -1.3965 -1.0322
 5332SOL    HW219913   8.719   6.446   7.816  1.1487  1.6736 -0.0501
 5333SOL     OW19914   0.761   2.934   6.192 -0.6119  0.1353 -0.5553
 5333SOL    HW119915   0.695   2.924   6.261 -0.3180  1.9699  0.0497
 5333SOL    HW219916   0.735   2.872   6.125 -1.4108 -1.0892  0.8323
 5334SOL     OW19917   7.525   3.764   9.233  0.2064  0.5196 -0.0611
 5334SOL    HW119918   7.482   3.679   9.244  1.4863  0.0944  2.1547
 5334SOL    HW219919   7.485   3.800   9.153  0.4909 -2.6449 -1.8048
 5335SOL     OW19920   3.964   8.710   9.453  0.3017  0.2475  0.3621
 5335SOL    HW119921   3.951   8.619   9.481  0.8383 -0.0010 -0.1805
 5335SOL    HW219922   4.027   8.745   9.516  0.0624  0.2561  0.5982
 5336SOL     OW19923   1.836   6.440   3.706 -0.2957  0.1762  0.1137
 5336SOL    HW119924   1.872   6.505   3.766  0.7500 -0.6056  0.3511
 5336SOL    HW219925   1.910   6.412   3.652 -0.5793 -1.2483  0.4098
 5337SOL     OW19926  10.022   1.493   2.548  0.3134 -0.1726  0.6256
 5337SOL    HW119927   9.992   1.430   2.613 -0.5108  0.1215  0.5360
 5337SOL    HW219928   9.992   1.458   2.464  0.5036 -0.0388  0.4988
 5338SOL     OW19929   8.879   7.962   0.572  0.6124  0.1397  0.2475
 5338SOL    HW119930   8.899   7.999   0.658 -1.4043  2.4355 -0.1871
 5338SOL    HW219931   8.806   8.014   0.540  1.5822 -0.3582 -3.0756
 5339SOL     OW19932   8.605   4.399   1.632 -0.0361  0.4558  0.1547
 5339SOL    HW119933   8.679   4.450   1.667 -0.0181 -0.5261  1.6089
 5339SOL    HW219934   8.570   4.454   1.562  0.5934  2.0295  1.0162
 5340SOL     OW19935   9.541   4.114   6.232  0.2283  0.9324  0.4684
 5340SOL    HW119936   9.463   4.166   6.252 -1.0386  0.3356 -2.4307
 5340SOL    HW219937   9.580   4.159   6.156  1.2848 -0.1774  0.3308
 5341SOL     OW19938   3.643   6.489   9.472 -0.0863 -0.2202  0.1420
 5341SOL    HW119939   3.707   6.557   9.496  1.9289 -1.5579 -1.1818
 5341SOL    HW219940   3.644   6.488   9.377  0.0482 -2.2017  0.1375
 5342SOL     OW19941   3.758   1.665   4.072  0.1076  0.3989  0.3918
 5342SOL    HW119942   3.839   1.665   4.021 -0.2224  1.0526 -0.1432
 5342SOL    HW219943   3.734   1.572   4.079  0.5014  0.2590 -0.0895
 5343SOL     OW19944   9.940   2.788   3.227  0.6653  0.3931  0.1118
 5343SOL    HW119945   9.851   2.758   3.246  0.6682 -1.1282 -1.9933
 5343SOL    HW219946   9.941   2.879   3.256 -1.0275 -0.0332  1.7319
 5344SOL     OW19947   0.207   8.846   4.163 -0.1927  0.3711 -0.3773
 5344SOL    HW119948   0.260   8.833   4.084  0.3410 -0.9722  0.1653
 5344SOL    HW219949   0.244   8.924   4.204  0.8155 -0.0517 -0.4544
 5345SOL     OW19950   1.106   2.100   2.307 -0.5950  0.6847 -0.3374
 5345SOL    HW119951   1.099   2.192   2.329 -0.5728  0.9667 -1.4399
 5345SOL    HW219952   1.020   2.063   2.327 -0.3145  0.7341  0.9910
 5346SOL     OW19953   1.337   8.852   8.957  0.1608 -0.4793 -0.1986
 5346SOL    HW119954   1.347   8.773   9.010 -2.1013 -0.6352  0.0664
 5346SOL    HW219955   1.340   8.924   9.019  0.8707 -0.4239 -0.2860
 5347SOL     OW19956   8.929   4.564   9.127  0.6796  0.5621  0.1326
 5347SOL    HW119957   8.992   4.547   9.197 -0.5866 -0.8599  0.9778
 5347SOL    HW219958   8.892   4.479   9.106 -1.8526  1.4800  0.5469
 5348SOL     OW19959   7.021   5.461   8.264 -0.1288  0.1551 -0.5918
 5348SOL    HW119960   6.936   5.505   8.266 -0.3722 -0.3268 -0.1445
 5348SOL    HW219961   7.033   5.428   8.353  1.6433  2.3062  0.0826
 5349SOL     OW19962   0.682   2.714   2.735 -0.0903 -0.8134  0.0171
 5349SOL    HW119963   0.672   2.791   2.678  0.4197 -0.7145  0.0640
 5349SOL    HW219964   0.710   2.644   2.675  0.7998 -0.6208  0.2046
 5350SOL     OW19965   5.926   4.338   4.346 -0.0665  0.3333  0.0120
 5350SOL    HW119966   6.011   4.305   4.315 -1.2349 -0.9658 -2.0315
 5350SOL    HW219967   5.882   4.262   4.383 -0.6364  0.8206  0.3547
 5351SOL     OW19968   7.861   9.632  10.028 -1.3425 -0.3801  0.1591
 5351SOL    HW119969   7.829   9.662   9.943 -4.0828 -2.4289  0.3391
 5351SOL    HW219970   7.789   9.648  10.089  0.5119  0.9462  2.1655
 5352SOL     OW19971   6.501   7.553   5.498 -0.4471  0.4218  0.3088
 5352SOL    HW119972   6.413   7.527   5.473  0.4345 -2.2060 -0.3412
 5352SOL    HW219973   6.492   7.587   5.587 -2.0258 -0.3094  0.4557
 5353SOL     OW19974   4.559   7.254   4.443 -0.0188  0.2368 -0.4787
 5353SOL    HW119975   4.608   7.202   4.507  3.2565  0.7774 -2.2704
 5353SOL    HW219976   4.494   7.194   4.408 -0.0804 -0.8695  1.3865
 5354SOL     OW19977   7.035   5.797   9.363  0.3470 -0.1367  0.0615
 5354SOL    HW119978   6.972   5.731   9.336  0.4501 -0.0983 -0.2707
 5354SOL    HW219979   6.984   5.877   9.371  0.2374 -0.2380  0.3889
 5355SOL     OW19980   5.316   3.659   0.371 -0.2642  0.1629  0.4087
 5355SOL    HW119981   5.403   3.682   0.339 -0.1394 -0.6742  0.1178
 5355SOL    HW219982   5.284   3.593   0.309 -0.8734  0.0472  0.8339
 5356SOL     OW19983   7.801   1.416   2.241 -0.0402 -0.5856  0.0286
 5356SOL    HW119984   7.769   1.405   2.151 -2.3137  0.4379  0.6457
 5356SOL    HW219985   7.857   1.493   2.237 -0.7683 -0.0658 -0.3792
 5357SOL     OW19986   2.821   2.435   3.024  0.9781 -0.5095 -0.3184
 5357SOL    HW119987   2.894   2.411   2.967  3.7499 -0.1507  2.7658
 5357SOL    HW219988   2.744   2.401   2.980  2.9251 -0.7754 -3.8871
 5358SOL     OW19989   5.160   0.235   4.753 -0.3741  0.3048 -0.0707
 5358SOL    HW119990   5.084   0.263   4.803 -0.3262 -1.0739  0.8230
 5358SOL    HW219991   5.178   0.308   4.694 -0.6584  1.8463  1.6500
 5359SOL     OW19992   5.596   8.834   5.165  0.0960  0.1644 -0.0390
 5359SOL    HW119993   5.508   8.801   5.187  0.0972  0.5757  0.6217
 5359SOL    HW219994   5.585   8.929   5.162  0.0147  0.1255 -2.2918
 5360SOL     OW19995   1.979  10.007   1.638 -0.2006  0.5279  0.1304
 5360SOL    HW119996   1.975  10.024   1.732 -3.2499 -0.7755  0.3478
 5360SOL    HW219997   1.984  10.094   1.598 -1.6950  1.2914  1.4827
 5361SOL     OW19998   8.571   4.397   5.668  0.1758  0.3516  0.1742
 5361SOL    HW119999   8.601   4.459   5.603 -1.2170  0.9574  0.0800
 5361SOL    HW220000   8.646   4.386   5.727  1.0560  0.6762 -0.8578
 5362SOL     OW20001   5.087   7.356   2.711  0.5388  0.1257  0.5935
 5362SOL    HW120002   5.027   7.317   2.774  0.9461  0.7966  1.4077
 5362SOL    HW220003   5.062   7.448   2.707  1.9838  0.5871  1.5296
 5363SOL     OW20004   7.075   9.284   8.399  0.2123  0.1298 -0.2710
 5363SOL    HW120005   7.149   9.230   8.372 -0.7536 -1.0108 -0.7103
 5363SOL    HW220006   7.049   9.331   8.320 -1.3248 -1.6711 -0.9162
 5364SOL     OW20007   7.585   8.047   9.538 -0.3644  0.0966  0.2978
 5364SOL    HW120008   7.597   7.994   9.617  2.2763 -0.2483 -0.2092
 5364SOL    HW220009   7.618   7.992   9.467 -0.0667  1.4143 -0.6344
 5365SOL     OW20010   7.727   3.677   8.249 -0.1646  0.5925  0.0188
 5365SOL    HW120011   7.715   3.598   8.196 -0.6707  1.8410 -1.8500
 5365SOL    HW220012   7.643   3.689   8.294 -1.0371  1.4338 -1.7353
 5366SOL     OW20013   7.767   1.666   8.563 -0.2173  0.0080 -0.4902
 5366SOL    HW120014   7.813   1.730   8.509 -0.5014  0.9332  0.3323
 5366SOL    HW220015   7.681   1.705   8.579 -0.9521 -1.2516 -1.1773
 5367SOL     OW20016   8.713   2.119   1.233 -0.2654  0.2884 -0.1811
 5367SOL    HW120017   8.652   2.158   1.296 -1.7268 -0.3679 -1.1481
 5367SOL    HW220018   8.679   2.143   1.148  0.6263 -0.4160 -0.7602
 5368SOL     OW20019   9.093   2.661   3.815 -0.8089 -0.1748  0.2688
 5368SOL    HW120020   9.170   2.618   3.852 -0.0183  0.4582 -0.5869
 5368SOL    HW220021   9.043   2.690   3.891  0.9746  1.4436  0.9110
 5369SOL     OW20022   8.432   2.437   2.508  0.1487 -0.0922  0.5341
 5369SOL    HW120023   8.422   2.531   2.524  0.8819 -0.0163  0.5814
 5369SOL    HW220024   8.407   2.396   2.590 -0.6537  0.0201  0.3646
 5370SOL     OW20025   6.427   1.672   0.820  0.5972 -0.0767  0.1091
 5370SOL    HW120026   6.388   1.595   0.862 -0.7971 -0.7062 -2.1337
 5370SOL    HW220027   6.353   1.730   0.803  1.2583  0.6122 -0.4851
 5371SOL     OW20028   6.486   4.499   6.693 -0.0359  0.2648  0.2563
 5371SOL    HW120029   6.446   4.445   6.761 -0.1786  0.2595  0.1686
 5371SOL    HW220030   6.436   4.581   6.695  0.7413  0.7459  0.9944
 5372SOL     OW20031   7.377   5.877   6.518  0.2927  0.0297  0.8237
 5372SOL    HW120032   7.404   5.827   6.595  0.7163 -2.6291 -0.9094
 5372SOL    HW220033   7.296   5.833   6.490  1.2064 -0.3699 -1.3273
 5373SOL     OW20034   5.857   8.815   6.664 -0.2037 -0.1051  0.1204
 5373SOL    HW120035   5.892   8.882   6.605 -0.4803  1.5046  1.7072
 5373SOL    HW220036   5.909   8.737   6.646  0.5529  0.6966 -1.3480
 5374SOL     OW20037   7.902   5.994   3.680 -0.0762 -0.2583  0.0945
 5374SOL    HW120038   7.972   5.992   3.615  1.0127  0.0950  1.2120
 5374SOL    HW220039   7.932   5.937   3.751  0.4662  2.0988  1.8909
 5375SOL     OW20040   6.688   5.045   8.356  0.1565 -0.3699  0.6079
 5375SOL    HW120041   6.648   5.082   8.277  1.7059 -1.0799 -0.5814
 5375SOL    HW220042   6.755   5.109   8.382  0.7174 -0.8566  0.3913
 5376SOL     OW20043   9.030   1.439  10.160  0.1282  0.3837 -0.1775
 5376SOL    HW120044   9.083   1.458  10.083  1.3297  2.0256  1.0032
 5376SOL    HW220045   9.087   1.386  10.215 -0.5678 -0.4037 -0.1942
 5377SOL     OW20046   8.951   1.753   9.080  0.3638 -0.1393 -0.4416
 5377SOL    HW120047   8.862   1.738   9.114 -0.7477  0.0418 -3.0496
 5377SOL    HW220048   8.979   1.834   9.122 -0.2900 -0.7019  1.1661
 5378SOL     OW20049   6.150   5.130   1.486 -0.3217 -0.6929 -0.0106
 5378SOL    HW120050   6.112   5.072   1.552 -1.3889 -1.5976 -1.3596
 5378SOL    HW220051   6.106   5.214   1.501 -1.0144 -1.0540  0.0612
 5379SOL     OW20052   8.106   5.862   8.620 -0.2182 -0.2514 -0.0909
 5379SOL    HW120053   8.066   5.940   8.657 -0.8445 -0.3100 -0.6443
 5379SOL    HW220054   8.199   5.883   8.615 -0.2862  0.1982  0.3985
 5380SOL     OW20055   5.253   7.056   4.166 -0.1141 -0.0858  0.1974
 5380SOL    HW120056   5.189   6.993   4.199  0.2344 -0.8134 -0.4785
 5380SOL    HW220057   5.331   7.004   4.149  0.1904  0.5384 -0.3592
 5381SOL     OW20058   0.963   2.687   4.197  0.1713 -0.2577 -0.8457
 5381SOL    HW120059   1.003   2.610   4.236 -0.5815  0.0391  0.5689
 5381SOL    HW220060   1.036   2.737   4.161  0.9472 -0.3964  0.4734
 5382SOL     OW20061   0.594   9.383   6.890 -0.1867 -0.6189 -0.4801
 5382SOL    HW120062   0.612   9.449   6.957 -0.5058 -0.1111 -0.8870
 5382SOL    HW220063   0.680   9.357   6.858 -0.0239 -0.9942  0.2451
 5383SOL     OW20064   8.706   2.369   9.030 -0.2007  0.0243  0.3749
 5383SOL    HW120065   8.633   2.363   9.091  1.4727  0.0039  2.5218
 5383SOL    HW220066   8.698   2.291   8.975 -2.3156  0.5593 -0.1469
 5384SOL     OW20067   3.834  10.065   9.265 -0.6617  0.6357  0.5159
 5384SOL    HW120068   3.833  10.117   9.185  0.6095 -2.4457 -1.7178
 5384SOL    HW220069   3.923  10.075   9.299  0.1571 -1.2704 -0.9002
 5385SOL     OW20070   8.692   5.917   3.466  0.1355  0.5065  0.4832
 5385SOL    HW120071   8.751   5.983   3.428  1.3616 -0.3453  0.8392
 5385SOL    HW220072   8.739   5.885   3.543 -1.8322  1.4494  2.1674
 5386SOL     OW20073   2.891   5.310   1.832 -0.0468 -0.2220 -0.1244
 5386SOL    HW120074   2.883   5.215   1.820 -2.9627 -0.5809  2.9624
 5386SOL    HW220075   2.801   5.339   1.848  1.1154  2.5023  2.2882
 5387SOL     OW20076   9.668   1.055   2.635 -0.1738  0.1400  0.6201
 5387SOL    HW120077   9.618   1.126   2.674 -0.5455 -0.3240  1.0053
 5387SOL    HW220078   9.749   1.095   2.605 -0.2775  0.6729  1.0524
 5388SOL     OW20079   1.195   3.623   1.098 -0.2598  0.0683 -0.2210
 5388SOL    HW120080   1.119   3.680   1.088  0.2505  0.6022 -1.1715
 5388SOL    HW220081   1.261   3.659   1.040  0.1602 -1.3682 -0.6905
 5389SOL     OW20082   5.412   4.207   7.991  0.6545 -0.7103  0.8075
 5389SOL    HW120083   5.350   4.160   7.936 -1.9653  3.8528 -0.7048
 5389SOL    HW220084   5.364   4.225   8.072  0.5677  1.2164  0.3916
 5390SOL     OW20085   8.288   1.021   4.338  0.2179 -0.0830 -0.3533
 5390SOL    HW120086   8.312   0.931   4.315  3.4329  0.9785 -1.8235
 5390SOL    HW220087   8.335   1.038   4.420 -0.7603  0.1603  0.1741
 5391SOL     OW20088   6.755   7.689   9.336 -0.6521 -0.0796  0.2671
 5391SOL    HW120089   6.703   7.755   9.382  0.2733  1.4593 -0.8160
 5391SOL    HW220090   6.719   7.687   9.247  0.7174  0.5730 -0.3239
 5392SOL     OW20091   1.978   4.858   2.284  0.3906  0.1206  0.4144
 5392SOL    HW120092   2.016   4.830   2.201  2.2434  0.9682  0.9437
 5392SOL    HW220093   1.903   4.912   2.259  2.0277  1.9584 -0.7844
 5393SOL     OW20094   9.647   7.004  10.128  0.1371  0.0872  0.1821
 5393SOL    HW120095   9.666   6.985  10.220  0.7558 -0.2923 -0.0186
 5393SOL    HW220096   9.716   7.066  10.102  0.3634 -0.3196 -0.2049
 5394SOL     OW20097   1.210   0.183   5.779  0.5501  0.2659  0.2764
 5394SOL    HW120098   1.216   0.219   5.690 -2.3799 -0.6292 -0.4111
 5394SOL    HW220099   1.276   0.114   5.782  1.5775  1.1666 -0.7344
 5395SOL     OW20100   5.721   3.686   3.977 -0.1803 -0.2771 -0.0334
 5395SOL    HW120101   5.771   3.766   3.965 -0.5043 -0.2347 -1.2619
 5395SOL    HW220102   5.642   3.714   4.023 -0.2599  0.1021 -0.3948
 5396SOL     OW20103   6.813   2.171   5.858  0.3130 -0.3161  0.3801
 5396SOL    HW120104   6.720   2.191   5.852  0.6641  1.9371  1.1747
 5396SOL    HW220105   6.855   2.237   5.802  1.4566 -0.8933  0.5246
 5397SOL     OW20106   5.731   8.151   5.176 -1.0714 -0.0968  0.5697
 5397SOL    HW120107   5.732   8.055   5.173 -1.0125 -0.0738 -0.7855
 5397SOL    HW220108   5.661   8.175   5.115  1.5592  0.7742 -2.3874
 5398SOL     OW20109   0.941   6.702   6.825  0.1684 -0.3292  0.1013
 5398SOL    HW120110   0.878   6.660   6.884  3.8755 -1.9350  3.3750
 5398SOL    HW220111   0.906   6.791   6.812 -4.2469 -1.9570 -1.0970
 5399SOL     OW20112   6.959   9.647   5.391 -0.1989  0.0886  0.4119
 5399SOL    HW120113   7.012   9.575   5.426 -1.2254 -1.7764 -1.6048
 5399SOL    HW220114   7.020   9.702   5.342  0.7317  1.0938  2.5846
 5400SOL     OW20115   0.288   9.822   5.764 -0.0336  0.2319  0.5666
 5400SOL    HW120116   0.318   9.881   5.833 -0.7229  0.5599  0.5929
 5400SOL    HW220117   0.279   9.877   5.687  1.9764 -0.3816 -0.1454
 5401SOL     OW20118  10.030   8.324   4.575 -0.8151 -0.6562  0.2503
 5401SOL    HW120119  10.077   8.241   4.585 -0.8705 -0.5705  1.4286
 5401SOL    HW220120   9.944   8.307   4.614 -0.9163 -0.1231  0.2713
 5402SOL     OW20121   0.284   1.919   5.692  0.2232  0.1696  0.2150
 5402SOL    HW120122   0.285   1.940   5.598  1.1092 -1.1285 -0.0943
 5402SOL    HW220123   0.361   1.864   5.705 -1.3072 -1.9179  1.1509
 5403SOL     OW20124   9.116   7.046   6.454  0.0407 -0.5857  0.1199
 5403SOL    HW120125   9.132   7.033   6.360  1.0834 -2.1296  0.4655
 5403SOL    HW220126   9.197   7.017   6.496 -0.5203 -0.2014  1.5271
 5404SOL     OW20127   8.043   1.798   5.581 -0.1801 -0.2319 -0.5630
 5404SOL    HW120128   8.044   1.713   5.538 -0.5763 -0.1460 -0.7470
 5404SOL    HW220129   7.951   1.813   5.604 -0.5314  1.1855 -2.6377
 5405SOL     OW20130   6.508   0.639   8.648  0.1932 -0.0479  0.6899
 5405SOL    HW120131   6.444   0.568   8.653 -1.3734  1.3933  2.9200
 5405SOL    HW220132   6.558   0.633   8.729 -0.6755  1.9713  1.4279
 5406SOL     OW20133   4.398   4.840   1.878  0.1242 -0.1611  0.1586
 5406SOL    HW120134   4.422   4.909   1.817 -0.5397  2.1887  2.3961
 5406SOL    HW220135   4.329   4.791   1.834  1.9998 -0.8001 -2.3023
 5407SOL     OW20136   9.119   6.076   8.582 -0.3022 -0.2956 -0.0405
 5407SOL    HW120137   9.197   6.082   8.637  0.1491  0.1437 -0.6985
 5407SOL    HW220138   9.079   6.163   8.588 -0.4489 -0.3569 -0.1213
 5408SOL     OW20139   8.305   6.756   6.927 -0.0428  0.1771  0.6867
 5408SOL    HW120140   8.253   6.800   6.859  1.2143  0.5269 -0.0734
 5408SOL    HW220141   8.349   6.828   6.973  1.9378 -0.2191 -0.4919
 5409SOL     OW20142  10.087   5.335   6.346 -0.0387 -0.5272  0.0672
 5409SOL    HW120143  10.118   5.418   6.383 -1.0752 -1.1980  2.6029
 5409SOL    HW220144  10.011   5.311   6.399 -1.3224 -1.8840 -2.2170
 5410SOL     OW20145   1.222   9.566   0.477 -0.1899 -0.5007 -0.2055
 5410SOL    HW120146   1.299   9.511   0.465  0.1847 -0.3357  1.2517
 5410SOL    HW220147   1.252   9.637   0.534 -1.7721 -1.3244  1.7768
 5411SOL     OW20148   1.855   6.413   1.889 -0.5710  0.2939  0.0204
 5411SOL    HW120149   1.803   6.337   1.864  0.6717 -0.6294  0.1445
 5411SOL    HW220150   1.944   6.392   1.862 -0.2229  1.8003 -0.1206
 5412SOL     OW20151   1.086   6.199   7.798 -0.0821 -0.0136  0.3582
 5412SOL    HW120152   1.050   6.254   7.728  0.8113  1.1647  0.7826
 5412SOL    HW220153   1.011   6.152   7.834 -0.6181 -0.3139 -1.0941
 5413SOL     OW20154   6.583   7.557   0.520  0.2363 -0.0221 -0.2319
 5413SOL    HW120155   6.594   7.516   0.434 -0.8321  0.8727 -0.8259
 5413SOL    HW220156   6.632   7.501   0.580  0.2610 -1.1718 -1.2839
 5414SOL     OW20157   6.111   8.688   5.318 -0.1598  0.5517  0.1308
 5414SOL    HW120158   6.119   8.783   5.306 -0.3266  0.6755  0.9087
 5414SOL    HW220159   6.030   8.665   5.272  2.1901 -0.0397 -4.2404
 5415SOL     OW20160   6.193   0.735   5.414 -0.3977  0.1987 -0.5603
 5415SOL    HW120161   6.258   0.785   5.463 -0.1426 -1.1379  0.5347
 5415SOL    HW220162   6.108   0.769   5.444 -0.2307  1.2644 -1.2586
 5416SOL     OW20163   0.338   1.800   3.883  0.0608  0.3044  0.5393
 5416SOL    HW120164   0.275   1.861   3.846  0.3562  0.0540 -0.3976
 5416SOL    HW220165   0.409   1.797   3.819 -0.3436 -1.6943  0.1048
 5417SOL     OW20166   1.042   0.221   3.195 -0.5268 -0.4358 -0.2195
 5417SOL    HW120167   1.084   0.211   3.110 -1.3168  0.4066 -0.7314
 5417SOL    HW220168   0.967   0.161   3.193 -0.2415 -0.8087  0.0962
 5418SOL     OW20169   6.158   7.522   7.907  0.0501 -0.2267  0.4389
 5418SOL    HW120170   6.113   7.441   7.928  0.1718  0.0245  1.7411
 5418SOL    HW220171   6.088   7.583   7.882  0.0267 -0.9460 -1.3963
 5419SOL     OW20172   5.284   9.104   9.459  0.4855  0.4468 -0.2231
 5419SOL    HW120173   5.201   9.062   9.481  0.2469  0.0617 -1.7247
 5419SOL    HW220174   5.349   9.060   9.513 -0.4115  1.6320  1.9398
 5420SOL     OW20175   3.936   2.878   1.122 -0.4772  0.0678 -0.2812
 5420SOL    HW120176   3.987   2.872   1.203  1.9550  1.3411 -1.5785
 5420SOL    HW220177   3.991   2.931   1.064 -2.8552  0.5799 -2.2269
 5421SOL     OW20178   0.963   5.078   7.651 -0.5749  1.0436  0.5107
 5421SOL    HW120179   1.053   5.064   7.621  0.5187  1.7929  3.1619
 5421SOL    HW220180   0.946   5.171   7.635 -1.3160  0.6973 -0.9145
 5422SOL     OW20181   4.821  10.182  10.109 -0.3158  0.6816  0.3470
 5422SOL    HW120182   4.869  10.185  10.026 -1.2388 -0.3885 -0.2555
 5422SOL    HW220183   4.729  10.173  10.083 -0.4191 -3.2782  1.3759
 5423SOL     OW20184  10.162   8.767   5.632 -0.0395  0.1056 -0.4185
 5423SOL    HW120185  10.153   8.691   5.689 -0.3051  1.9679  2.1500
 5423SOL    HW220186  10.240   8.812   5.664 -0.9903  1.9582 -0.6141
 5424SOL     OW20187   0.604   6.535   4.274  0.0226  0.2293 -0.0358
 5424SOL    HW120188   0.561   6.454   4.245  1.2901 -0.8436  0.9658
 5424SOL    HW220189   0.542   6.573   4.336  0.2574 -1.0361  1.0118
 5425SOL     OW20190   3.356  10.166   0.251  0.0667  0.4803  0.7506
 5425SOL    HW120191   3.392  10.231   0.190 -0.9369  1.5596  1.2902
 5425SOL    HW220192   3.273  10.140   0.211  0.7336 -0.9704  0.2243
 5426SOL     OW20193  10.100   2.811   5.217  0.0283  0.2516  0.4670
 5426SOL    HW120194  10.010   2.780   5.224 -0.0207  0.6011  1.4243
 5426SOL    HW220195  10.151   2.750   5.271  0.0427  1.3512  1.7239
 5427SOL     OW20196   3.613   7.718   8.775 -0.2429  0.1269 -0.2457
 5427SOL    HW120197   3.520   7.715   8.752 -0.2317 -0.8690 -0.2129
 5427SOL    HW220198   3.613   7.711   8.871 -0.0976 -1.4327 -0.3346
 5428SOL     OW20199   0.522   6.094   8.169  0.1504  0.0275 -0.0646
 5428SOL    HW120200   0.572   6.012   8.167 -0.5183 -0.4937  1.9682
 5428SOL    HW220201   0.448   6.078   8.111 -0.4372 -1.1887  0.9564
 5429SOL     OW20202   0.634   9.519   3.734  0.1130  0.0608  0.1578
 5429SOL    HW120203   0.722   9.482   3.740  0.7392  0.4751 -3.5396
 5429SOL    HW220204   0.578   9.444   3.714  0.1588  0.1629 -0.3694
 5430SOL     OW20205   5.677   0.578   2.230  0.6908  0.4997 -0.5941
 5430SOL    HW120206   5.663   0.560   2.323  1.0415  0.8164 -0.4800
 5430SOL    HW220207   5.741   0.649   2.228  0.4031  0.7543 -1.0721
 5431SOL     OW20208   9.115   7.522   8.490 -0.1226 -0.2295  0.1765
 5431SOL    HW120209   9.165   7.508   8.571 -0.0394 -1.4881 -0.0801
 5431SOL    HW220210   9.180   7.522   8.421 -0.1714  1.0551  0.1065
 5432SOL     OW20211   0.298   8.358   0.177 -0.1037 -0.3102  0.0065
 5432SOL    HW120212   0.229   8.403   0.129  0.4853  0.2315 -0.3549
 5432SOL    HW220213   0.252   8.307   0.243 -0.8005  0.8458  0.4540
 5433SOL     OW20214   7.146  10.013   1.052  0.3693  0.2333 -0.3290
 5433SOL    HW120215   7.117  10.005   1.143 -0.3093  0.4160 -0.5237
 5433SOL    HW220216   7.211   9.943   1.041 -0.7810 -0.8997 -0.1809
 5434SOL     OW20217   5.275   1.969   3.425  0.3390  0.2593 -0.2428
 5434SOL    HW120218   5.305   1.889   3.382 -2.0829 -0.3660 -0.8956
 5434SOL    HW220219   5.293   1.953   3.518 -0.4171 -1.2172 -0.3149
 5435SOL     OW20220   5.772   1.490   1.393 -1.0263  0.2787 -0.1410
 5435SOL    HW120221   5.822   1.490   1.474 -0.9770  1.7317 -0.1396
 5435SOL    HW220222   5.816   1.427   1.337  0.1157  0.6968  0.2697
 5436SOL     OW20223   0.218   1.706   4.599 -0.0522  0.4032  0.5529
 5436SOL    HW120224   0.196   1.798   4.612  0.1208  0.4720  0.3593
 5436SOL    HW220225   0.142   1.669   4.554  0.8150  0.9762 -1.4755
 5437SOL     OW20226   2.193   2.052   1.718 -0.2412  0.9926 -0.1591
 5437SOL    HW120227   2.181   2.083   1.629 -0.0417 -0.9185 -0.9073
 5437SOL    HW220228   2.144   2.114   1.772  0.2849  2.6395 -1.4912
 5438SOL     OW20229   8.451   1.837   6.960 -0.8310 -0.0296 -0.2532
 5438SOL    HW120230   8.364   1.864   6.989 -1.2846 -0.8532 -0.7731
 5438SOL    HW220231   8.438   1.747   6.928  0.4252 -0.5455  0.6196
 5439SOL     OW20232   5.855   1.194   2.604 -0.1331  0.3196 -0.4676
 5439SOL    HW120233   5.783   1.227   2.656 -1.3218 -1.6044 -0.7746
 5439SOL    HW220234   5.824   1.201   2.513 -0.9517 -2.5269 -0.5043
 5440SOL     OW20235   0.604   5.506   4.388 -0.0255 -0.3545 -0.6114
 5440SOL    HW120236   0.613   5.586   4.440 -0.4957 -1.2992  1.0023
 5440SOL    HW220237   0.510   5.493   4.379  0.0032 -1.4402  0.3513
 5441SOL     OW20238   4.858   0.779   7.670 -0.3320 -0.3500  0.0493
 5441SOL    HW120239   4.934   0.771   7.613 -0.7504  0.2303 -0.6216
 5441SOL    HW220240   4.865   0.706   7.731 -0.4668 -1.7083 -1.4794
 5442SOL     OW20241   5.803   0.626   8.668 -0.4357 -0.5535  0.1259
 5442SOL    HW120242   5.768   0.663   8.587  1.0131  0.8118  0.0938
 5442SOL    HW220243   5.747   0.550   8.684 -0.8917 -0.7561 -2.0334
 5443SOL     OW20244   6.856   1.516   3.863  0.2076 -0.3862  0.7080
 5443SOL    HW120245   6.849   1.464   3.943  2.8621  1.1115  2.0315
 5443SOL    HW220246   6.915   1.465   3.807 -2.0009 -1.6543 -0.5814
 5444SOL     OW20247   6.482   3.129   1.829 -0.3857  0.4293  0.0866
 5444SOL    HW120248   6.452   3.220   1.840 -1.6997 -0.1375  1.5379
 5444SOL    HW220249   6.421   3.092   1.765 -0.6768  0.1985  0.5004
 5445SOL     OW20250   0.459   7.103   0.654 -0.1211 -0.7090  0.0380
 5445SOL    HW120251   0.512   7.103   0.574 -0.6928 -2.1872 -0.3687
 5445SOL    HW220252   0.508   7.048   0.716  0.0384 -0.0321  0.5257
 5446SOL     OW20253   9.990   2.019   7.922 -0.3911  0.3422 -0.1109
 5446SOL    HW120254  10.034   2.093   7.964  0.5237 -0.1472 -0.1937
 5446SOL    HW220255  10.002   2.034   7.828 -1.2954  0.7407 -0.1722
 5447SOL     OW20256   3.650   7.482   3.857  0.0464  0.2995  0.1509
 5447SOL    HW120257   3.688   7.473   3.944 -0.2766  1.0314  0.3817
 5447SOL    HW220258   3.725   7.481   3.798  0.4669  1.7165  0.6026
 5448SOL     OW20259   7.811   7.014   8.878 -0.5754  0.2601  0.1665
 5448SOL    HW120260   7.719   6.991   8.895 -0.2594 -0.5664  0.8350
 5448SOL    HW220261   7.807   7.080   8.808 -1.5814 -1.1303 -1.1442
 5449SOL     OW20262   2.008   0.325   3.171 -0.2149  0.3317  0.5629
 5449SOL    HW120263   1.939   0.259   3.166  0.1834 -0.1216  0.9918
 5449SOL    HW220264   2.082   0.285   3.125 -0.6271  1.3267 -1.0352
 5450SOL     OW20265   3.375   2.859  10.116 -0.0630 -0.0006 -0.3398
 5450SOL    HW120266   3.335   2.832  10.198 -0.3679 -1.1111 -0.8413
 5450SOL    HW220267   3.400   2.951  10.131 -0.1546 -0.1664  0.9583
 5451SOL     OW20268   3.352   3.245   2.022  0.1961 -0.2890  0.5970
 5451SOL    HW120269   3.288   3.177   2.040  0.0514  0.2278  2.2325
 5451SOL    HW220270   3.429   3.199   1.989 -0.7755 -0.9643 -0.8427
 5452SOL     OW20271   2.375   3.154   1.957  0.2543 -0.1524  0.2799
 5452SOL    HW120272   2.285   3.137   1.988  0.1039  0.2598  0.0727
 5452SOL    HW220273   2.370   3.240   1.915  0.7324 -0.1632  0.1987
 5453SOL     OW20274   3.117   3.897   7.876 -0.0069 -0.2373 -0.4579
 5453SOL    HW120275   3.026   3.919   7.854 -0.1461 -1.1001 -0.8005
 5453SOL    HW220276   3.166   3.917   7.796 -0.1605 -1.2654 -0.8305
 5454SOL     OW20277   1.512  10.148   0.706 -0.1933 -0.2759  0.4419
 5454SOL    HW120278   1.532  10.232   0.664 -0.5042  0.3117  1.4418
 5454SOL    HW220279   1.457  10.102   0.642  1.1853 -0.3526 -0.7438
 5455SOL     OW20280   5.773   5.215   2.119  0.0489  0.3501 -0.7229
 5455SOL    HW120281   5.680   5.233   2.110 -0.0629 -0.4320 -1.2013
 5455SOL    HW220282   5.785   5.129   2.078  0.9944  0.4930 -0.7650
 5456SOL     OW20283   2.278   9.866   7.391  0.0338  0.3331 -0.5103
 5456SOL    HW120284   2.352   9.852   7.332  0.9950 -0.0741  0.7365
 5456SOL    HW220285   2.275   9.961   7.404  2.5917  0.2126  2.0819
 5457SOL     OW20286   5.508   1.269   4.723 -0.1600  0.1953 -0.0707
 5457SOL    HW120287   5.586   1.219   4.698 -0.0471  0.4319 -0.1924
 5457SOL    HW220288   5.536   1.361   4.721 -0.1272  0.2249  0.9915
 5458SOL     OW20289   9.996   9.064   7.760 -0.1905 -0.3387 -0.2434
 5458SOL    HW120290   9.913   9.080   7.805 -0.3324 -0.9978 -0.2645
 5458SOL    HW220291   9.985   9.106   7.675 -1.0159 -1.5565 -0.7619
 5459SOL     OW20292   7.017   5.855   5.934 -0.4600  0.1013 -0.3050
 5459SOL    HW120293   7.013   5.915   5.859  0.4649  1.3527  0.5894
 5459SOL    HW220294   7.067   5.904   6.000 -1.4735 -0.8537  1.2257
 5460SOL     OW20295   7.160   8.691   6.485  0.0966  0.2019  0.2524
 5460SOL    HW120296   7.108   8.770   6.474 -0.8432 -0.4742 -0.3577
 5460SOL    HW220297   7.149   8.667   6.577 -0.4497  0.2314  0.1992
 5461SOL     OW20298   7.036   8.456   0.858 -0.0161 -0.3828 -0.1911
 5461SOL    HW120299   7.061   8.530   0.803 -1.8661 -0.1242 -0.7729
 5461SOL    HW220300   6.952   8.427   0.822 -1.1025 -0.4785  2.2252
 5462SOL     OW20301   4.146   3.542   5.026  0.0752 -0.5342 -0.1358
 5462SOL    HW120302   4.173   3.613   5.084 -0.6853  1.4714 -2.1175
 5462SOL    HW220303   4.069   3.505   5.069  0.0888  0.2616  0.6000
 5463SOL     OW20304   2.847   8.994   8.158  1.0702  1.0660 -0.0491
 5463SOL    HW120305   2.820   8.902   8.153  0.7107  0.9095  2.8547
 5463SOL    HW220306   2.790   9.039   8.096 -0.6824 -0.3091  0.4881
 5464SOL     OW20307   2.189   1.168   1.698 -0.2448  0.2892  0.5706
 5464SOL    HW120308   2.261   1.111   1.672 -1.4783 -0.6103 -1.0630
 5464SOL    HW220309   2.182   1.232   1.628 -1.6169 -0.2347  0.1787
 5465SOL     OW20310   3.423   5.743   0.910 -0.4878 -0.7142  0.1819
 5465SOL    HW120311   3.405   5.768   0.819  0.1361  0.3674  0.3291
 5465SOL    HW220312   3.338   5.745   0.953 -0.5978  0.2298 -0.0548
 5466SOL     OW20313   0.551   9.474   0.903  0.2096  0.2563  0.5908
 5466SOL    HW120314   0.487   9.546   0.899 -1.6362 -1.3055  0.3324
 5466SOL    HW220315   0.509   9.402   0.856  2.5004 -0.6553 -0.1912
 5467SOL     OW20316   6.653   0.083   4.472 -0.3060 -0.1692  0.0389
 5467SOL    HW120317   6.618   0.022   4.408 -1.9757 -0.0476  0.8009
 5467SOL    HW220318   6.636   0.042   4.557 -1.6674  1.4188  0.5878
 5468SOL     OW20319   9.013   9.647   2.917 -0.2528  0.0658  0.1532
 5468SOL    HW120320   8.996   9.559   2.883  1.3787  0.1983 -1.1473
 5468SOL    HW220321   9.024   9.635   3.011 -2.5058 -0.7033  0.3784
 5469SOL     OW20322   5.795   1.333   1.878  0.1695  0.2872  0.1442
 5469SOL    HW120323   5.750   1.294   1.952 -2.3979  1.1317 -0.8518
 5469SOL    HW220324   5.792   1.266   1.809 -0.4303  0.6541 -0.2039
 5470SOL     OW20325   8.269   8.557   4.551  0.1686 -0.2367  0.5142
 5470SOL    HW120326   8.315   8.603   4.620  0.3083  1.9683 -0.9452
 5470SOL    HW220327   8.328   8.560   4.476 -1.1821  0.1981 -0.5866
 5471SOL     OW20328   8.841   1.878   7.572 -0.2814 -0.2034  0.0121
 5471SOL    HW120329   8.818   1.839   7.488 -0.1815 -0.2992  0.0292
 5471SOL    HW220330   8.758   1.909   7.608 -0.2197  0.5739 -0.4942
 5472SOL     OW20331   1.357   6.507   3.821  0.1174  0.2034  0.0502
 5472SOL    HW120332   1.389   6.423   3.788  0.9523  0.5045  0.0839
 5472SOL    HW220333   1.396   6.572   3.763 -1.4521  0.5153 -0.7015
 5473SOL     OW20334   7.209   0.286   4.045 -0.0097  0.4129  0.5574
 5473SOL    HW120335   7.183   0.279   4.136  0.7005  0.5689  0.7771
 5473SOL    HW220336   7.129   0.309   3.998 -0.3304  0.5456  1.1695
 5474SOL     OW20337   5.626   2.013   0.868  0.2815  0.6304 -0.0849
 5474SOL    HW120338   5.702   1.995   0.924  0.1599 -1.8397 -0.5893
 5474SOL    HW220339   5.650   2.091   0.819  1.6547  1.0623  1.1897
 5475SOL     OW20340   6.108   4.974   2.261  0.1508 -0.0119  0.0809
 5475SOL    HW120341   6.061   5.040   2.312  2.2183  1.7286 -0.1217
 5475SOL    HW220342   6.190   4.962   2.307  1.4783  0.5335 -1.9906
 5476SOL     OW20343   4.919   0.107   7.209 -0.1844  0.3122 -0.0871
 5476SOL    HW120344   4.859   0.121   7.282 -0.5356  0.4289 -0.3964
 5476SOL    HW220345   5.003   0.141   7.240 -0.0555 -0.6625  0.6801
 5477SOL     OW20346   7.000   4.520   5.333  0.3494  0.0718 -0.2441
 5477SOL    HW120347   7.092   4.546   5.323  0.7603 -0.5188  1.5652
 5477SOL    HW220348   7.000   4.427   5.311 -0.2549  0.4819 -2.2321
 5478SOL     OW20349  10.156   4.130   0.863 -0.1460  0.2780 -0.2633
 5478SOL    HW120350  10.070   4.097   0.838  0.9226 -1.9135 -1.3826
 5478SOL    HW220351  10.139   4.215   0.904 -2.8215 -0.1949 -0.2372
 5479SOL     OW20352   5.061   2.274   3.690  0.3549 -0.0181 -0.0255
 5479SOL    HW120353   5.099   2.304   3.773  0.4184 -0.4052  0.0849
 5479SOL    HW220354   5.103   2.190   3.673 -0.7362 -0.6416  0.2968
 5480SOL     OW20355   0.522   9.864   9.327  0.0583 -0.3239  0.1459
 5480SOL    HW120356   0.549   9.800   9.261 -0.9377 -0.2156 -0.3903
 5480SOL    HW220357   0.458   9.818   9.381  1.3672 -0.6310  1.4962
 5481SOL     OW20358   8.956   5.369   5.943 -0.1113  0.2991  0.4981
 5481SOL    HW120359   9.052   5.371   5.949 -0.1535 -0.3332  1.5197
 5481SOL    HW220360   8.939   5.323   5.861  0.4688 -1.9941  1.5851
 5482SOL     OW20361   6.149   6.534   8.063 -0.7661  0.3152 -0.1955
 5482SOL    HW120362   6.073   6.575   8.103 -0.9522 -0.8275  0.7001
 5482SOL    HW220363   6.116   6.448   8.033  0.2788 -0.4362  0.7384
 5483SOL     OW20364   7.388   9.208   0.028 -0.4053 -0.1389 -0.1315
 5483SOL    HW120365   7.357   9.163  -0.051 -0.3396 -0.1162 -0.1709
 5483SOL    HW220366   7.483   9.192   0.027 -0.4666 -0.5205  0.1858
 5484SOL     OW20367   8.810   5.685   9.984  0.2684  0.0038  0.2583
 5484SOL    HW120368   8.900   5.709   9.960  1.6735 -2.2137  2.7115
 5484SOL    HW220369   8.768   5.768  10.007  2.7156  0.8940  1.9389
 5485SOL     OW20370   0.319   8.556   6.237 -0.2127  0.3445  0.7319
 5485SOL    HW120371   0.400   8.511   6.260 -0.3131 -0.0218  0.3666
 5485SOL    HW220372   0.343   8.618   6.169 -0.1269  0.6607  1.0450
 5486SOL     OW20373   4.623   3.311   6.955 -0.0497 -0.6375  0.4217
 5486SOL    HW120374   4.707   3.326   6.998 -0.4059 -0.3194  1.0211
 5486SOL    HW220375   4.639   3.330   6.863  0.8000 -1.6281  0.3470
 5487SOL     OW20376   0.446   5.373   1.638 -0.5369  0.0126  0.9400
 5487SOL    HW120377   0.541   5.367   1.628 -0.4098  0.0944  2.0188
 5487SOL    HW220378   0.433   5.421   1.720 -1.5134  0.1316  0.7339
 5488SOL     OW20379   9.993   8.187   9.191  0.3562  0.4480  0.4098
 5488SOL    HW120380  10.028   8.101   9.169  0.1946  0.5498 -0.2657
 5488SOL    HW220381  10.068   8.246   9.182  0.3754  0.4372  0.4933
 5489SOL     OW20382   6.622   8.340   4.620  0.5206 -0.4064  0.5043
 5489SOL    HW120383   6.669   8.281   4.560  1.5670  0.7980  0.1042
 5489SOL    HW220384   6.690   8.373   4.679 -0.1128  0.1606  0.9270
 5490SOL     OW20385   2.017   2.980   6.082 -0.7784  0.0731  0.0441
 5490SOL    HW120386   2.050   3.052   6.135 -0.4065  0.7041 -1.0312
 5490SOL    HW220387   2.091   2.954   6.027 -1.3111 -0.2369 -0.5337
 5491SOL     OW20388   0.531   0.975   8.954  0.0656 -0.0215  0.7041
 5491SOL    HW120389   0.523   0.992   8.860  0.1822  0.4908  0.7814
 5491SOL    HW220390   0.481   1.046   8.995  1.1464  0.5478  1.0656
 5492SOL     OW20391   8.779   3.272   5.239  0.2954 -0.1728  0.1699
 5492SOL    HW120392   8.688   3.244   5.245  0.7954 -2.8404 -2.5568
 5492SOL    HW220393   8.788   3.304   5.149  1.6713  1.8925  0.9668
 5493SOL     OW20394   3.234   2.810   8.987  0.2630 -0.0935 -1.0380
 5493SOL    HW120395   3.296   2.881   9.001 -0.5728  0.4391  0.0598
 5493SOL    HW220396   3.148   2.851   8.991 -0.2537 -1.2153  0.1277
 5494SOL     OW20397   7.573   3.144   9.655 -0.0364 -0.0948  0.3644
 5494SOL    HW120398   7.659   3.186   9.662  0.6833 -1.3838 -0.3841
 5494SOL    HW220399   7.579   3.066   9.711 -0.6742 -0.2606  0.2110
 5495SOL     OW20400   1.345   0.235   4.761 -0.1351 -0.1079  0.2586
 5495SOL    HW120401   1.347   0.276   4.675  1.1356 -0.2186  0.2215
 5495SOL    HW220402   1.253   0.240   4.787 -0.6769 -0.6763 -1.3904
 5496SOL     OW20403   9.277   3.052   9.963 -0.2927  1.1677 -0.3066
 5496SOL    HW120404   9.285   3.067   9.869  1.2178  0.8082 -0.2614
 5496SOL    HW220405   9.220   2.974   9.969 -0.8330  1.5014 -0.8806
 5497SOL     OW20406   6.103   4.887   0.505 -0.3553 -0.2267  0.3003
 5497SOL    HW120407   6.050   4.964   0.483 -0.3825 -0.0335  1.0198
 5497SOL    HW220408   6.050   4.813   0.475 -0.4908  0.0125 -0.0682
 5498SOL     OW20409   8.801   2.176   9.772  0.2268  0.3144  0.0369
 5498SOL    HW120410   8.817   2.180   9.866 -2.3421 -1.4172  0.6574
 5498SOL    HW220411   8.706   2.189   9.763  0.4121  0.5685 -2.3364
 5499SOL     OW20412   0.488   2.729   2.263  0.4200 -0.0429  0.2778
 5499SOL    HW120413   0.399   2.695   2.250  0.5464  0.1558 -1.3848
 5499SOL    HW220414   0.487   2.768   2.350 -1.5476  1.1726 -0.2219
 5500SOL     OW20415   5.876   5.867   9.596  0.2139 -0.4525 -0.6517
 5500SOL    HW120416   5.808   5.919   9.553 -0.0541  0.4553  0.8176
 5500SOL    HW220417   5.876   5.784   9.548 -1.5160 -0.2415 -1.0755
 5501SOL     OW20418   6.284   0.935   3.016 -0.4897 -0.3676 -0.0326
 5501SOL    HW120419   6.224   0.897   3.081  0.8434 -1.2408  0.7172
 5501SOL    HW220420   6.369   0.938   3.060  0.1893  0.1719 -1.3276
 5502SOL     OW20421   0.461   7.565   9.328  0.2869  0.0560  0.3727
 5502SOL    HW120422   0.383   7.594   9.282  0.5364  2.6974  1.4256
 5502SOL    HW220423   0.432   7.490   9.379 -1.2119  0.1359 -0.3110
 5503SOL     OW20424   2.055   0.229   7.574 -0.3080 -0.3490 -0.0087
 5503SOL    HW120425   1.991   0.220   7.645 -0.8027 -1.1799 -0.5402
 5503SOL    HW220426   2.023   0.171   7.506  0.6930 -0.3045 -0.5342
 5504SOL     OW20427   8.216   3.701   9.768 -0.1630 -0.1503 -0.0433
 5504SOL    HW120428   8.178   3.789   9.771 -0.5499 -0.3324  0.8897
 5504SOL    HW220429   8.233   3.685   9.675 -1.6519  0.2509 -0.4222
 5505SOL     OW20430   2.169   0.514   6.267  0.1644  0.3919  0.4656
 5505SOL    HW120431   2.189   0.486   6.356 -0.2032  1.6230  0.9675
 5505SOL    HW220432   2.075   0.533   6.268 -0.1870 -1.1466 -0.6535
 5506SOL     OW20433   1.965   2.468   7.150  0.1979 -0.2070 -0.7226
 5506SOL    HW120434   1.938   2.403   7.085 -2.0892  0.5373 -0.6180
 5506SOL    HW220435   2.044   2.431   7.190  0.5970 -1.5437 -2.6130
 5507SOL     OW20436   7.531   5.361   0.756  0.1436 -0.1788  0.0459
 5507SOL    HW120437   7.499   5.403   0.836 -0.9659  1.1005 -1.0342
 5507SOL    HW220438   7.529   5.267   0.776 -2.3553 -0.0380  0.7594
 5508SOL     OW20439   9.054   6.486   4.878  0.0828  0.2112 -0.4800
 5508SOL    HW120440   8.997   6.554   4.844  0.5768  0.5354 -0.6752
 5508SOL    HW220441   9.142   6.525   4.876  0.3349 -0.3369 -0.3457
 5509SOL     OW20442   4.019   2.950   4.656 -0.3237  0.1354  0.0691
 5509SOL    HW120443   4.101   2.947   4.705  0.0898  1.6888 -0.4642
 5509SOL    HW220444   3.965   2.881   4.695  1.5843 -1.6226 -0.2377
 5510SOL     OW20445   7.536   2.826   6.986 -0.1970  0.0002 -0.3247
 5510SOL    HW120446   7.557   2.850   6.896 -1.6142 -1.2193 -1.0222
 5510SOL    HW220447   7.559   2.904   7.037  1.8117  0.2751 -1.5327
 5511SOL     OW20448   6.103   1.965   6.247 -0.0135 -0.4318 -0.2439
 5511SOL    HW120449   6.051   2.043   6.266  1.9356  0.5348  1.4910
 5511SOL    HW220450   6.044   1.892   6.262 -1.6811  0.6561 -1.2254
 5512SOL     OW20451   6.943   1.531   7.114  0.1294 -0.6656  0.5108
 5512SOL    HW120452   6.948   1.477   7.193 -0.1463 -1.1280  0.2152
 5512SOL    HW220453   6.920   1.618   7.146 -1.1360 -1.1065  0.8472
 5513SOL     OW20454   5.056   3.814   0.347  0.4354  0.0314 -0.8208
 5513SOL    HW120455   5.146   3.795   0.373  0.1033 -0.7274 -0.2151
 5513SOL    HW220456   5.022   3.731   0.314  0.1249  0.4460 -1.5769
 5514SOL     OW20457   4.269   1.887   0.085 -0.1916 -0.1322  0.2440
 5514SOL    HW120458   4.191   1.854   0.041 -0.4553  0.8568 -0.0657
 5514SOL    HW220459   4.290   1.820   0.150  0.4123 -1.7873 -1.5829
 5515SOL     OW20460   0.442   8.038   1.628  0.0198 -0.2709 -0.3757
 5515SOL    HW120461   0.495   8.113   1.653 -1.2481  0.2510  0.8524
 5515SOL    HW220462   0.422   7.994   1.711  1.0682 -2.2387 -1.0889
 5516SOL     OW20463   6.953   3.462   7.422 -0.1555 -0.5778  0.2303
 5516SOL    HW120464   6.908   3.546   7.436  3.1579  1.5656 -0.9087
 5516SOL    HW220465   6.968   3.429   7.511 -0.4554  0.6500  0.7654
 5517SOL     OW20466   1.861   3.665  10.160 -0.7647  0.2130 -0.2860
 5517SOL    HW120467   1.934   3.685  10.218 -0.7028  0.1138 -0.3297
 5517SOL    HW220468   1.901   3.644  10.076 -0.9130  1.3841 -0.6607
 5518SOL     OW20469   9.581   9.802   0.518  0.0329 -0.1653  0.1401
 5518SOL    HW120470   9.652   9.739   0.529  0.0722 -0.0537  0.5173
 5518SOL    HW220471   9.616   9.867   0.457  0.1595 -0.2531  0.1186
 5519SOL     OW20472   5.679   7.414   9.153 -0.0083 -0.2149  0.1274
 5519SOL    HW120473   5.641   7.501   9.137 -0.2966 -0.3500  0.0723
 5519SOL    HW220474   5.636   7.357   9.089 -1.2066 -0.7687  1.3764
 5520SOL     OW20475   5.991  10.129   3.881  0.6247 -0.1804 -0.0110
 5520SOL    HW120476   6.013  10.059   3.819 -0.1836 -0.7478  0.3149
 5520SOL    HW220477   5.904  10.158   3.853  0.2744 -0.4039  0.8213
 5521SOL     OW20478   0.197   6.850   8.939 -0.1459  0.1122 -0.3326
 5521SOL    HW120479   0.261   6.783   8.963 -1.7013 -1.1456  0.4746
 5521SOL    HW220480   0.250   6.923   8.907  1.9140  0.4422  3.3568
 5522SOL     OW20481   6.585   5.283   1.761  0.5630 -0.8939  0.1615
 5522SOL    HW120482   6.640   5.240   1.697 -1.1939  0.2345 -2.2530
 5522SOL    HW220483   6.504   5.232   1.763 -0.7044  0.9277 -1.1296
 5523SOL     OW20484   3.839   5.369   1.301  0.7531  0.0598  0.3064
 5523SOL    HW120485   3.852   5.386   1.207 -2.3059  0.4240 -0.1377
 5523SOL    HW220486   3.919   5.402   1.342  1.4854  1.4180 -2.0195
 5524SOL     OW20487   5.518   1.865   9.514 -0.4101  0.4521  0.5687
 5524SOL    HW120488   5.582   1.881   9.583  0.5691 -0.0211 -0.2241
 5524SOL    HW220489   5.561   1.806   9.453 -1.0083  1.3946 -0.8195
 5525SOL     OW20490   1.180   3.271   0.524 -0.2808  0.0583 -0.7600
 5525SOL    HW120491   1.239   3.287   0.450  0.7969 -1.3332 -0.2493
 5525SOL    HW220492   1.205   3.337   0.589 -0.5911  0.6809 -1.2661
 5526SOL     OW20493   5.794   0.788   6.528  0.3334  0.1353  0.4800
 5526SOL    HW120494   5.807   0.695   6.543  1.0631  0.3225  1.0736
 5526SOL    HW220495   5.878   0.828   6.548  0.0623  0.9148  0.1269
 5527SOL     OW20496   9.548   0.968   0.346 -0.6320  0.2040 -0.0412
 5527SOL    HW120497   9.561   0.873   0.337 -0.6257  0.0315  1.4174
 5527SOL    HW220498   9.454   0.981   0.335 -0.4560  0.2559 -1.7476
 5528SOL     OW20499   4.345   6.785   8.837 -0.5812 -0.2933 -0.0468
 5528SOL    HW120500   4.390   6.717   8.888  0.8689  0.6094 -0.0722
 5528SOL    HW220501   4.284   6.825   8.898 -0.0499 -0.3377  0.5246
 5529SOL     OW20502   5.267   1.066   6.177 -0.5693  0.1518 -0.3432
 5529SOL    HW120503   5.317   0.994   6.139  0.3060 -0.7207  2.2493
 5529SOL    HW220504   5.305   1.145   6.139  3.8722 -0.3403  2.3007
 5530SOL     OW20505   9.398   4.906   1.335 -0.4949  0.3684  0.5141
 5530SOL    HW120506   9.325   4.965   1.319 -1.3539 -1.0589 -1.1802
 5530SOL    HW220507   9.473   4.963   1.348 -1.4215  1.8376 -0.3806
 5531SOL     OW20508   4.688   7.681   0.449  0.2912 -0.0501  0.2140
 5531SOL    HW120509   4.772   7.723   0.470  0.7698 -0.5123 -0.7440
 5531SOL    HW220510   4.645   7.742   0.389  0.6843 -0.5787 -0.6254
 5532SOL     OW20511   2.622   4.996   2.884  0.2646  0.7210  0.3503
 5532SOL    HW120512   2.584   5.003   2.797 -1.7069 -1.5754  0.9142
 5532SOL    HW220513   2.554   5.028   2.943  1.4331  1.8969  1.1036
 5533SOL     OW20514   6.592   3.045   4.456  0.2838 -0.2676  0.4861
 5533SOL    HW120515   6.640   3.123   4.486  0.1477  0.1805 -0.4200
 5533SOL    HW220516   6.654   2.973   4.468  1.2700  0.3279 -0.8364
 5534SOL     OW20517   6.907   8.703   2.467  0.0712 -0.5972  0.3290
 5534SOL    HW120518   6.975   8.766   2.445  0.1813 -0.9381 -0.3406
 5534SOL    HW220519   6.927   8.626   2.413 -1.4919 -0.2987 -0.7753
 5535SOL     OW20520   4.251   8.502   6.446 -0.2183 -0.9462 -0.1004
 5535SOL    HW120521   4.343   8.482   6.430 -0.2999 -3.4266  2.0159
 5535SOL    HW220522   4.221   8.540   6.364  2.7154  0.2196 -0.7757
 5536SOL     OW20523   8.339   9.820   8.181  0.2789 -0.3864  0.0859
 5536SOL    HW120524   8.300   9.751   8.127  1.8958 -0.3244 -1.2693
 5536SOL    HW220525   8.286   9.822   8.260 -0.7054 -2.1858 -0.4651
 5537SOL     OW20526   2.737   5.473   7.936 -0.0616 -0.2238  0.2804
 5537SOL    HW120527   2.757   5.524   8.015  0.3781  0.7373 -0.4245
 5537SOL    HW220528   2.643   5.457   7.941  0.1131 -0.9963  1.4622
 5538SOL     OW20529   4.018   6.618   3.597  0.0923  0.4240 -0.1883
 5538SOL    HW120530   4.106   6.581   3.603 -0.4449 -0.6319  2.3129
 5538SOL    HW220531   3.986   6.620   3.687 -1.9986  1.9574 -0.8771
 5539SOL     OW20532   6.405   1.698   6.206  0.0650 -0.0167  0.4120
 5539SOL    HW120533   6.481   1.713   6.149 -0.1191 -1.9175 -0.3983
 5539SOL    HW220534   6.336   1.751   6.167  0.3724 -0.0589 -0.2147
 5540SOL     OW20535   9.113   1.556   9.897 -0.1858 -0.4177  0.4885
 5540SOL    HW120536   9.136   1.582   9.808  0.5914 -2.5126  0.0080
 5540SOL    HW220537   9.035   1.501   9.887 -0.2159 -0.5039  1.1312
 5541SOL     OW20538   9.417   9.869   2.535 -0.4680  0.6153 -0.1588
 5541SOL    HW120539   9.464   9.948   2.564  0.9237  0.7778 -2.5734
 5541SOL    HW220540   9.453   9.799   2.590  1.7206  0.9631 -1.0300
 5542SOL     OW20541   7.369   9.953   4.330 -0.4415 -0.1799 -0.6112
 5542SOL    HW120542   7.291   9.908   4.296 -0.1701  0.0652 -1.5994
 5542SOL    HW220543   7.429   9.955   4.255 -0.5662  2.0997 -0.7215
 5543SOL     OW20544   3.063   9.026   8.741 -0.2155  0.0951  0.4417
 5543SOL    HW120545   2.985   9.071   8.709 -2.0999 -3.3046 -0.2963
 5543SOL    HW220546   3.106   9.089   8.798 -2.5390  2.7322 -0.5095
 5544SOL     OW20547   8.072   5.174   9.378 -0.4937  0.4829 -0.2518
 5544SOL    HW120548   8.008   5.241   9.404  0.0033  1.3901 -1.2805
 5544SOL    HW220549   8.078   5.183   9.283  1.5277  0.7851 -0.1305
 5545SOL     OW20550   5.489   5.083   6.160  0.0021  0.4496  0.0477
 5545SOL    HW120551   5.478   5.045   6.247  0.9257  0.9645  0.3924
 5545SOL    HW220552   5.492   5.177   6.174  1.4409  0.4897 -0.3847
 5546SOL     OW20553   4.942   8.154   4.859 -0.1047 -0.0208 -0.0344
 5546SOL    HW120554   4.889   8.225   4.823  0.2658  0.2563 -0.0415
 5546SOL    HW220555   5.019   8.198   4.897 -0.9544 -0.1781  2.0275
 5547SOL     OW20556   4.918   9.262   2.726 -0.3452 -0.5490 -0.5594
 5547SOL    HW120557   4.824   9.273   2.741 -0.2224  0.0956 -0.2177
 5547SOL    HW220558   4.933   9.168   2.733 -0.9014 -0.6177 -0.2148
 5548SOL     OW20559   5.228   9.015   8.077  0.2325  0.2298  0.5143
 5548SOL    HW120560   5.186   9.094   8.042 -1.1514 -0.7348 -0.0716
 5548SOL    HW220561   5.322   9.032   8.067 -0.0687  1.0289 -1.3644
 5549SOL     OW20562   7.375   1.490   0.521  0.1666 -0.8935  0.0872
 5549SOL    HW120563   7.309   1.518   0.584  1.1951  1.6190  0.1760
 5549SOL    HW220564   7.327   1.440   0.455 -1.9952  1.3978 -0.2087
 5550SOL     OW20565   0.457   0.219   8.747 -0.0513  0.1420  0.0200
 5550SOL    HW120566   0.457   0.256   8.835  1.3145 -0.5698  0.3499
 5550SOL    HW220567   0.527   0.154   8.748  1.6463  1.7626 -2.2807
 5551SOL     OW20568   1.112   0.737   4.143  0.2462  0.2147  0.0227
 5551SOL    HW120569   1.119   0.822   4.101 -1.2164 -0.0867 -0.9168
 5551SOL    HW220570   1.121   0.674   4.072 -1.3923 -0.3237  0.2493
 5552SOL     OW20571   3.229   2.187   4.867 -0.3278  0.1751  0.1860
 5552SOL    HW120572   3.172   2.205   4.792  0.3844  2.2899  0.0670
 5552SOL    HW220573   3.177   2.211   4.943 -0.3883 -0.0859  0.2251
 5553SOL     OW20574   9.485   7.564   2.330 -0.1438 -0.1446  0.3086
 5553SOL    HW120575   9.480   7.480   2.284 -0.5605 -0.2245  0.4918
 5553SOL    HW220576   9.573   7.567   2.366  0.7574  0.6165 -1.8100
 5554SOL     OW20577   9.503   7.371   6.536  0.1353  0.5032  0.2842
 5554SOL    HW120578   9.435   7.366   6.469  0.1050  0.6005  0.3076
 5554SOL    HW220579   9.526   7.463   6.540  2.5293  0.1026 -1.9943
 5555SOL     OW20580   9.650   6.331   4.419  0.8936 -0.6988 -0.2204
 5555SOL    HW120581   9.734   6.316   4.463  0.2452 -0.2312  1.2397
 5555SOL    HW220582   9.668   6.401   4.356  1.6231 -0.6706  0.0096
 5556SOL     OW20583   2.536   4.483   0.923  0.6593 -0.0863  0.0922
 5556SOL    HW120584   2.573   4.448   0.842  0.9460 -0.6212  0.4475
 5556SOL    HW220585   2.519   4.576   0.904  2.5569  0.2914  0.0316
 5557SOL     OW20586   0.280   3.753   1.306  0.3008  1.0529 -0.4964
 5557SOL    HW120587   0.368   3.788   1.319  0.7692 -0.1823 -0.1844
 5557SOL    HW220588   0.226   3.801   1.368  1.5519 -1.0590  2.4718
 5558SOL     OW20589   1.339   6.188   9.198  0.3550  0.2289  0.3503
 5558SOL    HW120590   1.364   6.258   9.137 -0.9683 -0.8114 -1.4760
 5558SOL    HW220591   1.406   6.121   9.187 -0.3702 -0.3526 -0.7048
 5559SOL     OW20592   6.343   0.218   6.895 -0.3374 -0.1690  0.3056
 5559SOL    HW120593   6.256   0.183   6.912  0.2080 -0.8618  1.7787
 5559SOL    HW220594   6.386   0.151   6.842 -0.5821  0.0282 -0.1479
 5560SOL     OW20595   6.100   9.124   1.797  0.4285  0.1317  0.7521
 5560SOL    HW120596   6.189   9.158   1.791  0.4649  0.3438  2.1188
 5560SOL    HW220597   6.077   9.133   1.889  0.2230 -2.9938  1.1181
 5561SOL     OW20598   1.008   6.288  10.102 -0.3040  0.1379  0.5275
 5561SOL    HW120599   1.031   6.197  10.122 -1.7304 -0.6985 -1.3406
 5561SOL    HW220600   1.088   6.326  10.065 -0.4141 -1.2175 -1.2240
 5562SOL     OW20601   4.080   9.564   5.212 -0.6732  0.7973 -0.0480
 5562SOL    HW120602   4.133   9.589   5.137  2.3619 -0.6475  1.4203
 5562SOL    HW220603   4.094   9.633   5.277 -1.0304  0.6754  0.1643
 5563SOL     OW20604   0.919   2.079   1.729 -0.0184 -0.4238  0.2291
 5563SOL    HW120605   0.883   2.072   1.640  0.5183  1.1866 -0.1500
 5563SOL    HW220606   0.846   2.111   1.782  0.3333  1.1339 -0.1828
 5564SOL     OW20607   0.485   5.688   6.942 -0.2752  0.0908  0.3193
 5564SOL    HW120608   0.478   5.772   6.896 -1.6058 -0.3697 -0.3580
 5564SOL    HW220609   0.469   5.622   6.875  1.2273 -0.7546  0.7491
 5565SOL     OW20610   9.724   5.178  10.076  0.2430  0.1082 -0.2061
 5565SOL    HW120611   9.729   5.090  10.114  1.1247 -0.5552 -1.7576
 5565SOL    HW220612   9.811   5.192  10.038 -0.4963  0.8630 -1.6541
 5566SOL     OW20613   9.752   7.067   9.306 -0.2013  0.3051 -0.1819
 5566SOL    HW120614   9.695   6.990   9.306 -0.6897  0.6627 -0.0415
 5566SOL    HW220615   9.695   7.138   9.335 -0.1936  1.0354 -1.8713
 5567SOL     OW20616   5.746   8.811   2.333 -0.0634 -0.2045 -0.3158
 5567SOL    HW120617   5.727   8.821   2.239 -0.0148  0.7641 -0.2330
 5567SOL    HW220618   5.784   8.723   2.340 -1.9747 -1.1284 -0.8849
 5568SOL     OW20619   0.650   8.167   4.076  0.2193  0.2375 -0.0361
 5568SOL    HW120620   0.558   8.141   4.077  0.1627  0.1266  3.8955
 5568SOL    HW220621   0.649   8.259   4.048 -1.1196  0.3744  0.4030
 5569SOL     OW20622   4.652   4.969   7.579 -0.1978 -0.4812 -0.1396
 5569SOL    HW120623   4.673   5.060   7.598  0.2600 -0.4266 -0.8616
 5569SOL    HW220624   4.557   4.966   7.576 -0.3789 -0.6326  2.7158
 5570SOL     OW20625   3.444   3.937   3.884 -0.0509 -0.5896 -0.0737
 5570SOL    HW120626   3.428   3.850   3.848 -0.4595 -0.5044 -0.1017
 5570SOL    HW220627   3.534   3.933   3.916  0.7838 -0.3095 -2.1785
 5571SOL     OW20628   0.550   0.422   0.303 -0.0738  0.5342  0.2736
 5571SOL    HW120629   0.478   0.420   0.239  0.6347  1.9423 -0.6302
 5571SOL    HW220630   0.629   0.425   0.249  0.8380 -2.8285  1.2320
 5572SOL     OW20631   3.006   3.458   6.550 -0.1341 -0.3902  0.5105
 5572SOL    HW120632   3.044   3.542   6.575  1.0518 -0.7271 -0.0628
 5572SOL    HW220633   2.972   3.472   6.462 -0.8207 -0.2607  0.7874
 5573SOL     OW20634   3.852   0.880   0.668 -0.7064  0.3018  0.2558
 5573SOL    HW120635   3.794   0.931   0.611 -0.4348  0.2207 -0.0976
 5573SOL    HW220636   3.848   0.791   0.634 -1.9924 -0.1516  1.5184
 5574SOL     OW20637   5.238   5.572   6.722 -0.3677  0.6987 -0.0385
 5574SOL    HW120638   5.195   5.575   6.807  1.1916  0.1509  0.8102
 5574SOL    HW220639   5.297   5.646   6.722 -0.9567  1.1884 -1.0139
 5575SOL     OW20640   4.223   8.471   9.614  0.2045 -0.1017 -0.4592
 5575SOL    HW120641   4.300   8.525   9.629  1.1188 -1.5058  0.1052
 5575SOL    HW220642   4.150   8.522   9.651  1.0404  0.7090  0.1128
 5576SOL     OW20643   7.397   2.216   8.335 -0.2867 -0.4073 -0.2961
 5576SOL    HW120644   7.395   2.171   8.250 -0.7220  2.7188 -2.1119
 5576SOL    HW220645   7.456   2.290   8.321 -1.7883  1.2250  1.5714
 5577SOL     OW20646   7.240   0.351   2.592  0.1813  0.9017 -0.1770
 5577SOL    HW120647   7.155   0.389   2.613  0.8785  2.6208 -0.2655
 5577SOL    HW220648   7.293   0.367   2.670  0.2188 -0.9247  0.2186
 5578SOL     OW20649   4.663   5.812   3.095 -0.5984 -0.1753 -0.1119
 5578SOL    HW120650   4.597   5.864   3.049 -0.2785  1.4120  1.1107
 5578SOL    HW220651   4.746   5.844   3.060 -0.4229 -0.9387 -0.4059
 5579SOL     OW20652  10.078   2.968  10.008  0.5202 -0.4299  0.2360
 5579SOL    HW120653  10.058   3.049   9.961 -0.1385 -0.2131  0.8633
 5579SOL    HW220654  10.085   2.996  10.100 -0.9048 -1.2592  0.6278
 5580SOL     OW20655   2.070   1.863   2.864 -0.2185 -0.1961 -0.0522
 5580SOL    HW120656   2.038   1.900   2.946 -2.2741 -0.0432 -0.8676
 5580SOL    HW220657   2.149   1.913   2.844 -0.1935  0.3751  1.3410
 5581SOL     OW20658   6.827   2.020   2.298 -0.6019 -0.6326 -0.1915
 5581SOL    HW120659   6.781   2.085   2.246 -1.1854  0.3615  1.4798
 5581SOL    HW220660   6.762   1.987   2.360  0.7225  0.3862  1.8466
 5582SOL     OW20661   3.471   8.996   2.870 -0.8125 -0.4719 -0.2361
 5582SOL    HW120662   3.492   8.998   2.964 -5.3243 -1.7892  1.0422
 5582SOL    HW220663   3.448   9.086   2.848  2.1540  0.2756 -0.7988
 5583SOL     OW20664   5.167   8.227   7.626 -0.0357 -0.0186 -0.2854
 5583SOL    HW120665   5.258   8.199   7.616 -0.4347 -0.9711 -1.4346
 5583SOL    HW220666   5.142   8.194   7.713  0.3828 -0.7395 -0.4263
 5584SOL     OW20667   9.737   6.506   4.762  0.0246 -0.2364 -0.1861
 5584SOL    HW120668   9.656   6.457   4.754  0.5887 -1.2194 -0.0607
 5584SOL    HW220669   9.779   6.471   4.840  0.3788  0.5456 -0.0160
 5585SOL     OW20670   7.537   6.885   9.214 -0.0231  0.0659 -0.0354
 5585SOL    HW120671   7.607   6.828   9.180 -0.2217 -0.1622 -0.0640
 5585SOL    HW220672   7.582   6.946   9.273  0.2095 -0.0396 -0.1031
 5586SOL     OW20673   3.544   7.392  10.201 -0.2280 -0.5058  0.5516
 5586SOL    HW120674   3.516   7.304  10.228  0.7425 -1.9099 -2.5951
 5586SOL    HW220675   3.640   7.386  10.197 -0.0535  1.1223  1.4403
 5587SOL     OW20676   6.043   5.288   9.353 -0.1515  0.5805  0.9711
 5587SOL    HW120677   5.965   5.335   9.382 -2.1261 -1.3212 -0.8909
 5587SOL    HW220678   6.054   5.217   9.417 -1.1141 -0.2425  0.2606
 5588SOL     OW20679   3.634  10.116   0.233 -0.4074  0.0700 -0.5809
 5588SOL    HW120680   3.626  10.194   0.177 -3.4263 -0.4695 -1.0555
 5588SOL    HW220681   3.546  10.102   0.267  0.8852 -0.8465  2.7562
 5589SOL     OW20682  10.052   1.934   6.683  0.0348  0.4304  0.1362
 5589SOL    HW120683  10.038   1.851   6.637 -0.6628 -0.4402  1.8080
 5589SOL    HW220684  10.062   1.909   6.775  0.6138  2.1462  0.5768
 5590SOL     OW20685   1.012   8.979   9.197 -0.3169 -0.6130  0.0944
 5590SOL    HW120686   1.089   8.999   9.251 -0.5351 -0.1285  0.2338
 5590SOL    HW220687   0.938   8.984   9.257 -0.2986 -2.8930  0.3617
 5591SOL     OW20688   8.900   1.237   5.289 -0.1100 -0.2625  0.2226
 5591SOL    HW120689   8.861   1.305   5.234 -2.5371  0.5848  2.7628
 5591SOL    HW220690   8.981   1.276   5.322 -0.1651  0.3605 -0.3555
 5592SOL     OW20691   6.468   5.181   9.678 -0.0436 -0.7242  0.7082
 5592SOL    HW120692   6.439   5.091   9.668 -1.2032 -0.4672  1.5408
 5592SOL    HW220693   6.388   5.231   9.693  0.2546  0.9121 -2.4263
 5593SOL     OW20694   5.765   9.978   9.602 -0.1157  0.7580 -0.4606
 5593SOL    HW120695   5.745  10.028   9.682  0.3950 -0.2655  0.3287
 5593SOL    HW220696   5.765   9.887   9.630 -1.2180  0.2566 -1.9178
 5594SOL     OW20697   6.519   3.605   1.963 -0.5419 -0.9428 -0.2989
 5594SOL    HW120698   6.585   3.673   1.976 -0.3644 -1.0447 -0.6520
 5594SOL    HW220699   6.459   3.616   2.036 -1.0508  0.2199 -0.8600
 5595SOL     OW20700   2.915   0.128   5.036  0.2467 -0.4580  0.0674
 5595SOL    HW120701   2.873   0.198   4.985 -0.1924 -0.8479 -0.1169
 5595SOL    HW220702   2.969   0.175   5.100  1.9256  0.0446 -1.6197
 5596SOL     OW20703   5.589   2.838   5.606 -0.1760  0.3540 -0.1784
 5596SOL    HW120704   5.662   2.777   5.605 -0.7656 -0.3978  0.8324
 5596SOL    HW220705   5.520   2.795   5.556 -0.1318  0.8069 -0.6390
 5597SOL     OW20706   0.224   0.699   9.804  0.0149  0.0202 -0.1359
 5597SOL    HW120707   0.176   0.778   9.828 -0.4157 -0.5572  0.9896
 5597SOL    HW220708   0.315   0.717   9.830 -0.4040 -0.5212  1.9522
 5598SOL     OW20709   9.669   7.855   7.011  0.5955 -0.5334  0.6263
 5598SOL    HW120710   9.707   7.937   7.043  0.7062 -0.5965  0.6546
 5598SOL    HW220711   9.575   7.870   7.012  0.5025 -1.0088  2.3271
 5599SOL     OW20712   6.899   4.848   7.492 -0.4013  0.5402  0.0352
 5599SOL    HW120713   6.972   4.909   7.505 -1.1786  1.5906 -0.3333
 5599SOL    HW220714   6.923   4.799   7.413  0.1094  0.5505  0.1777
 5600SOL     OW20715   0.095   3.563   3.527  0.1337 -0.4299  0.2241
 5600SOL    HW120716   0.180   3.564   3.570  0.1692  1.4648  0.2043
 5600SOL    HW220717   0.033   3.583   3.597 -0.1266 -0.3400 -0.0304
 5601SOL     OW20718   7.134   1.489   3.156 -0.2945 -0.0509  0.1474
 5601SOL    HW120719   7.092   1.522   3.236 -0.6730  1.6619 -0.7193
 5601SOL    HW220720   7.222   1.528   3.158 -0.3429  0.0794 -0.3242
 5602SOL     OW20721   5.690   3.272   6.363  0.7099  0.1611 -0.3598
 5602SOL    HW120722   5.609   3.236   6.399  0.7465  1.7889  1.5251
 5602SOL    HW220723   5.757   3.251   6.429  1.8970 -1.1968 -1.8996
 5603SOL     OW20724   8.593   1.535   5.300  0.0424 -0.2763  0.4439
 5603SOL    HW120725   8.507   1.563   5.266 -0.0220  1.2335  1.7185
 5603SOL    HW220726   8.607   1.591   5.376  1.5278 -1.4989  1.1079
 5604SOL     OW20727   3.245   7.776   6.458  0.0470 -0.4807 -0.5273
 5604SOL    HW120728   3.183   7.822   6.514  0.2588 -0.2984 -0.4399
 5604SOL    HW220729   3.285   7.845   6.405  0.6643 -0.5075 -0.1045
 5605SOL     OW20730   7.050   9.117   9.674 -0.8063 -0.3440  0.6122
 5605SOL    HW120731   6.993   9.041   9.665 -0.1347 -0.9676  1.3920
 5605SOL    HW220732   7.062   9.149   9.585 -1.9608 -0.4984  0.3900
 5606SOL     OW20733   7.421   8.827   2.963  0.0809  0.0277  0.0293
 5606SOL    HW120734   7.384   8.739   2.957  1.5100 -0.5870 -0.3380
 5606SOL    HW220735   7.413   8.850   3.055 -0.3845 -0.4616  0.1130
 5607SOL     OW20736   3.187   7.886   9.568 -0.4347 -0.4657 -0.2115
 5607SOL    HW120737   3.133   7.942   9.513 -2.0857 -1.6285  0.1363
 5607SOL    HW220738   3.247   7.945   9.612  0.1840  0.6207 -2.3892
 5608SOL     OW20739   7.782  10.138   5.141  0.0072 -0.0022  0.0878
 5608SOL    HW120740   7.734  10.176   5.067  1.4929  0.3221 -0.7484
 5608SOL    HW220741   7.744  10.051   5.152  0.1462 -0.2880 -1.4509
 5609SOL     OW20742   2.132   3.320   2.534 -0.1080  0.0630  0.3571
 5609SOL    HW120743   2.037   3.317   2.525 -0.0154  0.5117 -0.9455
 5609SOL    HW220744   2.165   3.273   2.459  0.7092  1.3787 -0.1491
 5610SOL     OW20745   7.549   8.453   6.359  0.5683 -0.6648  0.4293
 5610SOL    HW120746   7.478   8.518   6.359 -1.5772 -2.8607 -0.0328
 5610SOL    HW220747   7.627   8.503   6.385 -0.9122  2.0842  0.0219
 5611SOL     OW20748   5.708   8.611   0.230  0.2256  0.5917 -0.0694
 5611SOL    HW120749   5.687   8.623   0.137 -1.9074 -3.2706 -0.3037
 5611SOL    HW220750   5.797   8.577   0.230 -0.1572 -0.4747 -0.8604
 5612SOL     OW20751   0.776   8.534   3.775  0.5380 -0.1521  0.2952
 5612SOL    HW120752   0.694   8.583   3.774 -1.0405 -2.3492  3.5691
 5612SOL    HW220753   0.830   8.580   3.839  0.3492 -0.7705  0.9110
 5613SOL     OW20754   6.519   8.380   8.648 -0.0664  0.6793 -0.6234
 5613SOL    HW120755   6.485   8.314   8.708  0.2084  0.7083 -0.4342
 5613SOL    HW220756   6.597   8.414   8.692  2.2501 -1.7522 -2.5031
 5614SOL     OW20757   1.759   2.827   8.024  0.2440 -0.5705  0.2398
 5614SOL    HW120758   1.840   2.877   8.008 -0.0184  0.2212  1.2730
 5614SOL    HW220759   1.738   2.844   8.115  0.1678 -2.6787  0.6521
 5615SOL     OW20760   7.982   1.650   0.644  0.6755 -0.0725  0.0091
 5615SOL    HW120761   7.929   1.632   0.567  0.1564 -1.6756  0.6874
 5615SOL    HW220762   8.017   1.738   0.630  0.9072 -0.4700 -2.2066
 5616SOL     OW20763   0.452   3.527   2.514  0.4575 -0.3331 -0.1470
 5616SOL    HW120764   0.412   3.442   2.499  2.0746 -1.8005  3.0278
 5616SOL    HW220765   0.383   3.579   2.556 -0.8359  0.3962 -2.9230
 5617SOL     OW20766   7.253   0.371   4.824 -0.3043 -0.0275  0.0468
 5617SOL    HW120767   7.236   0.433   4.753  0.2061  0.9152  0.7279
 5617SOL    HW220768   7.297   0.422   4.891  0.8391 -1.3081  0.3148
 5618SOL     OW20769   4.304   2.536   8.226 -0.1919  0.1734 -0.1346
 5618SOL    HW120770   4.294   2.470   8.158 -0.6256  1.0555 -0.9577
 5618SOL    HW220771   4.346   2.610   8.182 -1.3508  1.1300  0.2802
 5619SOL     OW20772   0.906   5.998   2.676  0.1216  0.0848 -0.3532
 5619SOL    HW120773   0.850   5.921   2.685 -0.2573  0.2267 -1.3704
 5619SOL    HW220774   0.850   6.063   2.633  0.4689  0.9002  0.4016
 5620SOL     OW20775   8.899   7.192  10.008 -0.1848  0.0408 -0.6548
 5620SOL    HW120776   8.830   7.190   9.942 -1.0873  1.1323  0.2117
 5620SOL    HW220777   8.883   7.273  10.057  3.0883  1.5893 -1.8682
 5621SOL     OW20778   3.669   4.725   7.251  0.2496 -0.0819  0.0227
 5621SOL    HW120779   3.586   4.684   7.227 -1.1600  1.9345  1.1661
 5621SOL    HW220780   3.690   4.782   7.177 -1.7244  2.6529  1.3736
 5622SOL     OW20781   2.821   8.010   8.718 -0.3137 -0.0812 -0.6522
 5622SOL    HW120782   2.771   7.933   8.745 -0.8754  0.4748 -0.0819
 5622SOL    HW220783   2.872   8.034   8.795 -0.8764  0.6926 -0.5134
 5623SOL     OW20784   6.396   4.332  10.043 -0.4766 -0.0477 -0.0307
 5623SOL    HW120785   6.310   4.310  10.078  0.4334 -2.1742  1.0783
 5623SOL    HW220786   6.387   4.423  10.012 -3.1480 -0.2911 -0.2189
 5624SOL     OW20787   8.932   4.999   1.893 -0.0532  0.0853 -0.5029
 5624SOL    HW120788   8.853   4.968   1.938 -0.8626 -0.3937 -2.1664
 5624SOL    HW220789   8.906   5.004   1.801  1.4698  1.2459 -0.9074
 5625SOL     OW20790   9.992   8.834   1.002 -0.4951  0.1823  0.3509
 5625SOL    HW120791   9.950   8.838   1.088 -0.4178  1.1370  0.3625
 5625SOL    HW220792   9.923   8.859   0.940 -0.7946 -1.3664  0.0276
 5626SOL     OW20793   5.734   0.424   7.782  0.2547  0.8755  0.2911
 5626SOL    HW120794   5.689   0.503   7.812 -0.9442  1.1132 -1.9242
 5626SOL    HW220795   5.805   0.456   7.726 -0.8697  0.4464 -1.4665
 5627SOL     OW20796   6.831   1.133   4.479 -0.3117 -0.3958 -0.5469
 5627SOL    HW120797   6.800   1.043   4.474 -0.7965 -0.1850 -1.7247
 5627SOL    HW220798   6.898   1.139   4.411  0.3771 -0.1099  0.1458
 5628SOL     OW20799   9.238   8.372   8.011  0.3955  0.2046 -0.0412
 5628SOL    HW120800   9.289   8.332   7.940  0.0865  0.6985 -0.5562
 5628SOL    HW220801   9.148   8.371   7.979  0.3084  0.7986  0.1680
 5629SOL     OW20802   4.182  10.064   3.689 -0.3596  0.2423 -0.7398
 5629SOL    HW120803   4.218  10.108   3.612 -0.5622  0.5732 -0.6499
 5629SOL    HW220804   4.202  10.123   3.762 -0.0420 -0.1385 -0.5167
 5630SOL     OW20805   8.831   6.771   1.058  0.8939  0.6697 -0.1316
 5630SOL    HW120806   8.779   6.830   1.112  2.9711 -0.0299  2.8400
 5630SOL    HW220807   8.921   6.801   1.067  1.5498 -0.6061 -1.7624
 5631SOL     OW20808   8.640   8.540   6.496 -0.2985  0.0817 -0.2917
 5631SOL    HW120809   8.703   8.476   6.462  2.1898  1.8244  0.7554
 5631SOL    HW220810   8.629   8.517   6.588 -0.4831  0.3305 -0.2486
 5632SOL     OW20811   5.255   4.075   7.797 -0.0232  0.1993  0.2216
 5632SOL    HW120812   5.160   4.066   7.791 -0.0614  0.2289  0.7509
 5632SOL    HW220813   5.288   4.028   7.720 -0.4999  0.9567 -0.4597
 5633SOL     OW20814   5.111   6.553   3.439  0.1164 -0.2738 -0.2116
 5633SOL    HW120815   5.022   6.579   3.417 -0.4738 -1.2128  0.9253
 5633SOL    HW220816   5.167   6.619   3.399 -1.0664  0.0958 -1.2980
 5634SOL     OW20817   7.473   4.950   5.206 -0.0892 -0.2191 -0.2261
 5634SOL    HW120818   7.477   4.879   5.271  1.3006  0.4070  0.4153
 5634SOL    HW220819   7.383   4.980   5.210  0.1306  0.3762  2.1040
 5635SOL     OW20820   5.824   5.439   3.470 -0.2840  0.0423 -0.5930
 5635SOL    HW120821   5.767   5.482   3.406  0.5881 -0.0831 -1.4629
 5635SOL    HW220822   5.913   5.460   3.442  0.1202 -0.4204  0.2989
 5636SOL     OW20823   0.027   8.334   0.045 -0.1979  0.3182 -0.4559
 5636SOL    HW120824   0.028   8.367  -0.045 -2.3576 -1.5760 -1.2915
 5636SOL    HW220825  -0.063   8.346   0.074 -0.5991 -2.6985 -0.0957
 5637SOL     OW20826   5.690   0.971  10.100  0.0816 -0.0187  0.3828
 5637SOL    HW120827   5.678   1.025  10.179 -0.4329  0.5894 -0.1021
 5637SOL    HW220828   5.762   0.912  10.123  0.7437  0.9522  0.8894
 5638SOL     OW20829   6.531   1.347   6.918 -0.2228  0.3180 -0.2573
 5638SOL    HW120830   6.548   1.332   7.010  0.6238  3.4167  0.2079
 5638SOL    HW220831   6.616   1.337   6.875  0.1635  2.3626 -0.0740
 5639SOL     OW20832   6.185   8.954   0.261 -0.2043  0.3879  0.3907
 5639SOL    HW120833   6.115   8.919   0.316 -1.8574  1.9483 -0.6333
 5639SOL    HW220834   6.203   8.884   0.199  0.2096 -0.5837  1.5537
 5640SOL     OW20835   1.593   1.496   2.564 -0.1279 -0.0552  0.3444
 5640SOL    HW120836   1.616   1.443   2.640 -1.7916 -0.4796  0.5960
 5640SOL    HW220837   1.665   1.483   2.502  1.1246  0.0960  1.7197
 5641SOL     OW20838   5.657   2.016   0.552  0.2035  0.2473 -0.2301
 5641SOL    HW120839   5.646   1.986   0.462 -0.5445 -2.4175  0.6496
 5641SOL    HW220840   5.752   2.017   0.565  0.2865 -0.9395 -0.6128
 5642SOL     OW20841   3.541   0.733   3.781  0.4058  0.0961  0.1807
 5642SOL    HW120842   3.571   0.715   3.870 -1.5773  0.2312  0.9263
 5642SOL    HW220843   3.464   0.678   3.770  0.4871  0.2561 -1.3824
 5643SOL     OW20844   1.344   4.628   1.836  0.5799  0.0340  0.0410
 5643SOL    HW120845   1.392   4.706   1.808  0.8353  0.2769  1.1188
 5643SOL    HW220846   1.405   4.581   1.893 -0.1287 -0.1197  0.6908
 5644SOL     OW20847   1.944   9.305   6.742 -0.3045 -0.2674 -0.3526
 5644SOL    HW120848   1.991   9.224   6.720  2.1867  0.8072  0.6377
 5644SOL    HW220849   1.947   9.309   6.837  0.6062  1.5116 -0.4283
 5645SOL     OW20850   5.876   7.854   3.999 -0.0811 -0.0561  0.2141
 5645SOL    HW120851   5.839   7.915   3.936  2.3782  1.8812  0.5029
 5645SOL    HW220852   5.839   7.881   4.083  0.8231  0.9655  0.3088
 5646SOL     OW20853   5.853   5.640   6.158 -0.1643 -0.1268  0.3506
 5646SOL    HW120854   5.815   5.553   6.145 -1.6093  0.4727  0.4040
 5646SOL    HW220855   5.858   5.650   6.253  1.8415 -0.8912  0.3748
 5647SOL     OW20856   7.611   7.876   5.478 -0.8314 -0.1034  0.2720
 5647SOL    HW120857   7.550   7.803   5.469 -1.5029  0.1337  2.3146
 5647SOL    HW220858   7.576   7.927   5.551  0.3261  1.5637 -0.2760
 5648SOL     OW20859   9.951   8.978   6.661  0.3192  0.5290 -0.2312
 5648SOL    HW120860   9.923   9.057   6.705 -2.5788  1.5264 -3.3954
 5648SOL    HW220861   9.910   8.907   6.710  0.2093  1.2375  0.7343
 5649SOL     OW20862   5.824   8.605   1.937  0.3698  0.0642 -0.0329
 5649SOL    HW120863   5.854   8.686   1.896 -0.2330  0.1173 -0.3688
 5649SOL    HW220864   5.823   8.625   2.031  0.3839  0.3903 -0.1007
 5650SOL     OW20865   0.488   5.750   7.758 -0.0264 -0.3147  0.3888
 5650SOL    HW120866   0.467   5.798   7.678 -0.7685 -1.5910 -0.2120
 5650SOL    HW220867   0.512   5.663   7.728  1.1149 -0.3967  1.4692
 5651SOL     OW20868   6.968   0.804   6.439 -0.1815  0.0349 -0.1728
 5651SOL    HW120869   7.018   0.883   6.460  1.3389 -0.5618 -1.3758
 5651SOL    HW220870   6.889   0.837   6.397 -0.1998  0.9479  0.5258
 5652SOL     OW20871   7.845   7.117   4.237  0.2603  0.0327  0.5535
 5652SOL    HW120872   7.813   7.029   4.258  0.6849 -0.7301 -1.7066
 5652SOL    HW220873   7.904   7.139   4.310  0.4853 -1.7357  0.9555
 5653SOL     OW20874   6.035   3.400   5.893  0.1444 -0.3650  0.3089
 5653SOL    HW120875   6.016   3.425   5.803  0.1667  1.8395  0.8681
 5653SOL    HW220876   6.130   3.391   5.895  0.1981  0.1650  0.2437
 5654SOL     OW20877   4.583   6.252   5.639 -0.7817 -0.1351 -0.0250
 5654SOL    HW120878   4.625   6.166   5.642 -1.3468 -0.3938  0.9197
 5654SOL    HW220879   4.543   6.262   5.725  0.2922  1.6059  0.3279
 5655SOL     OW20880   4.619   6.290   3.839 -0.0232  0.3519 -0.2692
 5655SOL    HW120881   4.631   6.253   3.752 -0.6614  1.1832 -0.7225
 5655SOL    HW220882   4.538   6.341   3.833 -0.0122  0.5167  0.7758
 5656SOL     OW20883   7.205   1.583   1.752  0.2004  0.4817 -0.6695
 5656SOL    HW120884   7.162   1.669   1.753 -0.3711  0.1992 -0.7113
 5656SOL    HW220885   7.274   1.590   1.818 -0.5178  0.6296  0.0845
 5657SOL     OW20886   3.140   6.789   3.971  0.1948 -0.1285  0.0431
 5657SOL    HW120887   3.138   6.820   4.062  1.7956 -0.7435  0.3306
 5657SOL    HW220888   3.168   6.865   3.920  0.7902 -0.1863  0.2792
 5658SOL     OW20889   2.213   2.403   7.589 -0.3137 -0.2799 -0.4774
 5658SOL    HW120890   2.174   2.473   7.642 -0.9857  0.7231 -2.2426
 5658SOL    HW220891   2.302   2.395   7.623 -0.2442  1.3887 -0.1680
 5659SOL     OW20892   0.791   0.962   3.128 -0.1563  0.1687 -0.1083
 5659SOL    HW120893   0.721   0.974   3.193 -0.3090 -0.5487 -0.1350
 5659SOL    HW220894   0.761   1.013   3.053 -0.7731 -0.3137 -0.2025
 5660SOL     OW20895   3.252   0.086   3.642  0.4069  0.2085  0.1085
 5660SOL    HW120896   3.330   0.094   3.587  0.4947  0.2825  0.2438
 5660SOL    HW220897   3.284   0.051   3.725  0.1180 -0.9530 -0.2557
 5661SOL     OW20898   1.367   5.688   5.154 -0.6059 -0.2491  0.2000
 5661SOL    HW120899   1.411   5.768   5.181 -1.8704  0.7867 -0.6442
 5661SOL    HW220900   1.327   5.654   5.234 -0.5279  0.2820  0.4695
 5662SOL     OW20901   3.036   5.036   8.875  0.1041 -0.0216  0.3740
 5662SOL    HW120902   3.066   5.010   8.788 -2.7726 -0.4243 -0.6159
 5662SOL    HW220903   2.954   4.987   8.888  0.6958 -0.3907  3.5664
 5663SOL     OW20904   7.676   1.957   1.787  0.2183  0.2573  1.1529
 5663SOL    HW120905   7.681   1.882   1.728 -0.2236 -0.2152  1.7030
 5663SOL    HW220906   7.584   1.984   1.784  0.3923  0.8451  0.8822
 5664SOL     OW20907   3.211   7.166   5.522  0.3827 -0.7738 -0.0976
 5664SOL    HW120908   3.281   7.216   5.482  1.2491 -0.7430  1.3720
 5664SOL    HW220909   3.148   7.150   5.451  1.5949 -0.3186 -1.3044
 5665SOL     OW20910   9.981   8.654   2.967 -0.2906  0.2421 -0.1085
 5665SOL    HW120911   9.997   8.631   3.059  0.8331 -0.9688 -0.5821
 5665SOL    HW220912   9.893   8.693   2.968  0.2247  1.5064  1.6685
 5666SOL     OW20913   5.879   6.244   4.213 -0.2151  0.1850 -0.0800
 5666SOL    HW120914   5.894   6.271   4.304 -0.3440  0.6140 -0.1834
 5666SOL    HW220915   5.932   6.165   4.202  0.6422  0.7222  0.0609
 5667SOL     OW20916   5.281   2.138   5.977  0.1290 -0.3882 -0.5829
 5667SOL    HW120917   5.237   2.053   5.972  0.0802 -0.3072 -1.5529
 5667SOL    HW220918   5.373   2.116   5.993 -0.0927 -0.5807  0.5226
 5668SOL     OW20919   0.795   9.218   7.833  0.2749  0.5353 -0.1551
 5668SOL    HW120920   0.845   9.145   7.797 -0.3756 -0.5783  1.1062
 5668SOL    HW220921   0.861   9.276   7.872  0.6677 -0.5233  0.8042
 5669SOL     OW20922   7.948   6.914   1.542  0.2526 -0.2323 -0.1844
 5669SOL    HW120923   7.856   6.935   1.526 -0.2282 -1.7016  0.4803
 5669SOL    HW220924   7.957   6.918   1.637  0.9137 -0.0305 -0.2484
 5670SOL     OW20925   5.268   6.808   0.716 -0.0558  0.3784  0.2841
 5670SOL    HW120926   5.249   6.724   0.758  1.6338 -0.0716  0.2097
 5670SOL    HW220927   5.347   6.792   0.666 -0.7912  1.5206 -1.3122
 5671SOL     OW20928   7.978   8.302   6.081  0.7737  0.3233  0.0785
 5671SOL    HW120929   7.913   8.233   6.063  1.2485  0.0311 -0.5409
 5671SOL    HW220930   7.979   8.355   6.002  0.7979  0.7371  0.3555
 5672SOL     OW20931   6.180   3.022   4.946 -0.1674  0.3650 -0.1582
 5672SOL    HW120932   6.245   3.052   5.010 -0.6410 -0.1237  0.5657
 5672SOL    HW220933   6.153   3.102   4.900  2.1027  0.3864 -1.6059
 5673SOL     OW20934   9.069   0.591   0.269 -0.0795  0.3216 -0.3626
 5673SOL    HW120935   9.144   0.552   0.314 -0.6348  1.0707  1.2906
 5673SOL    HW220936   8.998   0.586   0.333 -1.6872 -1.0394 -2.1456
 5674SOL     OW20937   7.302   4.284   8.416 -0.2740 -0.1087 -0.1486
 5674SOL    HW120938   7.245   4.299   8.491  2.1636 -1.2515  2.1003
 5674SOL    HW220939   7.366   4.355   8.420 -1.0183  0.7573 -2.1974
 5675SOL     OW20940   0.364   5.646   2.111  0.0900  0.4236 -0.3555
 5675SOL    HW120941   0.328   5.601   2.035  0.4175 -1.1620  0.3890
 5675SOL    HW220942   0.354   5.739   2.091 -1.0724  0.0339 -1.7302
 5676SOL     OW20943   4.559   5.664   3.290 -0.1325 -0.0433  0.5201
 5676SOL    HW120944   4.556   5.723   3.365 -1.2430 -0.7695  1.0578
 5676SOL    HW220945   4.599   5.717   3.220  0.1137  0.9091  1.3643
 5677SOL     OW20946   7.011   8.674   7.368  0.1407 -0.0294  0.2483
 5677SOL    HW120947   7.086   8.727   7.397  1.3497  0.3305 -3.0896
 5677SOL    HW220948   6.936   8.733   7.377  1.0812  1.4524 -1.0178
 5678SOL     OW20949   3.941   4.995   5.774 -0.3125  0.1783  0.1716
 5678SOL    HW120950   3.903   5.002   5.862 -1.3361 -1.3204 -0.1096
 5678SOL    HW220951   3.872   4.954   5.721 -0.3238  2.4910 -1.7527
 5679SOL     OW20952   6.096   5.721   7.978 -0.1927  0.3186 -0.3023
 5679SOL    HW120953   6.188   5.717   7.952 -0.1040  0.2245  0.0210
 5679SOL    HW220954   6.078   5.815   7.987  0.2897  0.3086  1.0637
 5680SOL     OW20955   2.523   2.649   4.536 -0.0540 -0.2705  0.1684
 5680SOL    HW120956   2.504   2.707   4.609  0.3397  0.8766 -0.6115
 5680SOL    HW220957   2.546   2.566   4.577 -0.3477  0.1941  1.3190
 5681SOL     OW20958   2.766   6.843   5.435  0.0394  0.2720  0.0817
 5681SOL    HW120959   2.725   6.828   5.350 -2.3340 -0.7161  1.3452
 5681SOL    HW220960   2.828   6.915   5.418  0.0339 -0.2378 -2.5621
 5682SOL     OW20961   9.223   4.427   0.946  0.3711  0.4038 -0.7536
 5682SOL    HW120962   9.182   4.503   0.987  0.3082  0.1297 -0.2848
 5682SOL    HW220963   9.233   4.364   1.019  3.7608  1.2915 -0.3096
 5683SOL     OW20964   2.433   8.709   4.743 -0.3572  0.1982  0.1799
 5683SOL    HW120965   2.463   8.795   4.772  2.9476 -1.0845  1.0338
 5683SOL    HW220966   2.392   8.670   4.820  0.9338 -0.0830  0.7541
 5684SOL     OW20967   8.271   0.998   3.430  0.3947 -0.1877 -0.5921
 5684SOL    HW120968   8.206   0.928   3.429 -0.3021  0.4105  0.6537
 5684SOL    HW220969   8.350   0.957   3.394 -0.4050 -1.1795 -1.2779
 5685SOL     OW20970   7.082   7.038   0.504 -0.6673 -0.1692 -1.2403
 5685SOL    HW120971   7.089   7.090   0.423 -1.8183  1.7011 -0.2304
 5685SOL    HW220972   7.126   7.091   0.570  1.2566 -2.1952 -0.7864
 5686SOL     OW20973   4.552   0.453   0.235 -0.6313 -0.5011  0.5224
 5686SOL    HW120974   4.576   0.540   0.266  3.6950 -1.1162 -0.4342
 5686SOL    HW220975   4.466   0.465   0.195 -0.8919  2.9462  1.7619
 5687SOL     OW20976   3.214   0.869   5.025 -0.2984  0.5484 -0.0565
 5687SOL    HW120977   3.271   0.915   5.087  0.1278  0.0422 -0.0695
 5687SOL    HW220978   3.240   0.777   5.032 -0.5436  0.4299 -0.6734
 5688SOL     OW20979   1.807   9.055   1.642  0.0633  0.3497 -0.5846
 5688SOL    HW120980   1.824   9.148   1.629  1.0590  0.0610 -1.4385
 5688SOL    HW220981   1.890   9.012   1.622 -0.8628 -0.8744 -2.0074
 5689SOL     OW20982   7.107   8.710   8.669  0.1593  0.1666 -0.3963
 5689SOL    HW120983   7.052   8.696   8.592 -0.5250 -1.9303  0.3859
 5689SOL    HW220984   7.195   8.684   8.641 -0.2295 -1.3527 -0.3240
 5690SOL     OW20985   1.564   6.208   4.966  0.3563 -0.4135 -0.3230
 5690SOL    HW120986   1.562   6.295   4.925 -0.5028 -0.7740 -1.0699
 5690SOL    HW220987   1.497   6.158   4.920 -0.9596 -0.7211  1.8108
 5691SOL     OW20988   5.510   0.849   4.885 -0.1697 -0.4298 -0.4937
 5691SOL    HW120989   5.560   0.814   4.810 -0.5930 -2.5068  0.1402
 5691SOL    HW220990   5.453   0.777   4.911  0.5899 -0.0839  2.3987
 5692SOL     OW20991   1.875   2.684   6.754 -0.9691  0.1229 -0.0948
 5692SOL    HW120992   1.890   2.699   6.848 -1.0318  0.2184 -0.1002
 5692SOL    HW220993   1.803   2.742   6.732  0.8507  2.2110 -0.8470
 5693SOL     OW20994   8.193   9.127   1.780 -0.5373 -0.7652  0.3773
 5693SOL    HW120995   8.218   9.042   1.744  1.2629  0.1580 -0.6987
 5693SOL    HW220996   8.109   9.147   1.739  0.5214 -0.6267 -1.8606
 5694SOL     OW20997   6.665   4.596   3.856 -0.5348  0.4177 -0.1209
 5694SOL    HW120998   6.577   4.566   3.877 -0.7993  1.5038  0.3916
 5694SOL    HW220999   6.710   4.519   3.822 -1.5714 -0.2278 -0.0421
 5695SOL     OW21000   3.125   3.509   0.467  0.0551  0.1685 -0.4028
 5695SOL    HW121001   3.138   3.566   0.543 -0.8459  0.0241 -0.1298
 5695SOL    HW221002   3.032   3.489   0.468  0.2557 -0.8152 -0.8600
 5696SOL     OW21003   5.460   5.806   4.914  0.1952 -0.2938 -0.1067
 5696SOL    HW121004   5.473   5.867   4.841 -0.5654  1.4651  1.1792
 5696SOL    HW221005   5.504   5.847   4.988 -0.0103 -1.5103  0.7116
 5697SOL     OW21006   9.340   8.959   2.494 -0.1068  0.0645 -0.0431
 5697SOL    HW121007   9.370   9.031   2.440 -0.5834 -1.1189 -1.9632
 5697SOL    HW221008   9.402   8.955   2.567 -0.9734  3.3841  1.0264
 5698SOL     OW21009   6.739   7.691   1.230 -0.4657  0.8435  0.0362
 5698SOL    HW121010   6.781   7.661   1.150 -1.6153  1.4889 -0.8473
 5698SOL    HW221011   6.716   7.782   1.212  1.2175  1.7174  1.9322
 5699SOL     OW21012   8.843   8.613   1.770  0.5594 -0.1037 -0.5375
 5699SOL    HW121013   8.917   8.638   1.716  0.1919 -0.5783 -1.2763
 5699SOL    HW221014   8.846   8.673   1.845 -0.4081  2.2959 -2.3064
 5700SOL     OW21015   9.600   6.121   9.961  0.0710  0.3187  0.0868
 5700SOL    HW121016   9.536   6.111   9.889 -0.5700  1.3717  0.4956
 5700SOL    HW221017   9.576   6.052  10.023  0.8960 -0.8794 -0.8798
 5701SOL     OW21018   5.324   3.815   5.311  0.1210  0.4294  0.1648
 5701SOL    HW121019   5.278   3.890   5.274  0.7437  0.1449 -1.2264
 5701SOL    HW221020   5.356   3.846   5.396 -1.4066  1.0666  0.5436
 5702SOL     OW21021   3.164   7.485   0.758  0.0806 -0.3447  0.3650
 5702SOL    HW121022   3.162   7.430   0.679 -2.0551 -0.4849  0.4605
 5702SOL    HW221023   3.203   7.428   0.824 -0.9590 -1.3617  0.1509
 5703SOL     OW21024   0.464   1.739   7.511  0.3362  0.5330  0.7044
 5703SOL    HW121025   0.427   1.682   7.578 -1.6394  1.6783  0.6372
 5703SOL    HW221026   0.390   1.788   7.476  1.1666 -0.3951 -2.7437
 5704SOL     OW21027   6.772   8.710   2.679 -0.1820  0.0799  0.0612
 5704SOL    HW121028   6.760   8.616   2.685  1.6679 -0.1959  0.0150
 5704SOL    HW221029   6.818   8.723   2.596 -3.1098  1.3749 -1.5085
 5705SOL     OW21030   3.693   1.536   1.790  0.1206  0.2382 -0.4707
 5705SOL    HW121031   3.764   1.572   1.843  1.4955 -1.0782 -1.3520
 5705SOL    HW221032   3.732   1.521   1.704 -1.4239  0.1158 -1.1915
 5706SOL     OW21033   8.800   6.533   9.607 -0.2502 -0.0250  0.1017
 5706SOL    HW121034   8.735   6.464   9.616 -1.6057  1.2447  0.5990
 5706SOL    HW221035   8.875   6.492   9.565  0.0176 -2.4369  2.6601
 5707SOL     OW21036   4.213   6.760   0.950 -0.5392  0.1024 -0.1271
 5707SOL    HW121037   4.171   6.677   0.927 -1.0230  0.2670  0.1477
 5707SOL    HW221038   4.304   6.736   0.969 -0.4493 -0.2233 -0.9266
 5708SOL     OW21039   3.575   7.102   3.843 -0.4249 -0.0268  0.4798
 5708SOL    HW121040   3.667   7.090   3.822 -0.5367 -0.1719  0.0645
 5708SOL    HW221041   3.550   7.182   3.795 -0.7348 -0.4747 -0.1145
 5709SOL     OW21042  10.033   9.865   0.331 -0.5380  0.0227  0.4658
 5709SOL    HW121043  10.060   9.883   0.421  1.7217  1.5306 -0.4134
 5709SOL    HW221044  10.108   9.819   0.292 -0.8139  0.7793 -1.0392
 5710SOL     OW21045   9.897   1.365   1.253  0.4476 -0.0230 -0.1125
 5710SOL    HW121046   9.887   1.456   1.226 -1.4142 -0.4992 -1.2304
 5710SOL    HW221047   9.847   1.358   1.334 -1.1338 -0.4717 -1.0982
 5711SOL     OW21048  10.046   4.523   5.052 -0.2841  0.1091 -0.2451
 5711SOL    HW121049  10.050   4.592   4.987 -1.3882  0.0282 -0.4100
 5711SOL    HW221050  10.054   4.569   5.136  0.0306  0.3227 -0.3895
 5712SOL     OW21051   3.293   6.101   0.673  0.4672  0.4516 -0.0120
 5712SOL    HW121052   3.229   6.146   0.728  1.4898  0.0913  1.5478
 5712SOL    HW221053   3.308   6.160   0.599 -1.8349  0.4076 -0.5759
 5713SOL     OW21054   7.525   1.972   9.534  0.2053  0.1111  0.5025
 5713SOL    HW121055   7.578   2.024   9.474 -0.7825 -1.1856 -1.6364
 5713SOL    HW221056   7.555   1.882   9.520 -1.4384 -0.4497  0.3938
 5714SOL     OW21057   2.623   2.851   3.589  0.2341  0.0778  0.1716
 5714SOL    HW121058   2.656   2.928   3.635  0.9187 -0.0178 -0.1612
 5714SOL    HW221059   2.624   2.875   3.497  0.8869 -0.4901  0.0266
 5715SOL     OW21060   4.322   2.754   5.251 -0.2128 -0.1581  0.2570
 5715SOL    HW121061   4.250   2.791   5.303 -1.2207 -0.1973 -1.0562
 5715SOL    HW221062   4.401   2.791   5.290 -1.0186  0.9326  0.9205
 5716SOL     OW21063   9.715   7.897   9.477  0.1045 -0.6152  0.3360
 5716SOL    HW121064   9.705   7.986   9.443 -2.1372 -1.5511 -1.8279
 5716SOL    HW221065   9.628   7.858   9.467  0.9723 -3.0256  1.3347
 5717SOL     OW21066   5.296   2.056   6.318 -0.3514 -0.4101  0.1434
 5717SOL    HW121067   5.286   1.974   6.366 -1.3506 -1.3078 -1.5135
 5717SOL    HW221068   5.206   2.085   6.301 -0.0092  0.9441  0.5550
 5718SOL     OW21069   4.313   7.328   8.926 -0.0312  0.4310 -0.5103
 5718SOL    HW121070   4.339   7.291   9.010 -0.1620  0.8836 -0.2704
 5718SOL    HW221071   4.266   7.408   8.948  1.8612  1.7532 -1.0853
 5719SOL     OW21072   5.299   8.312   1.236 -0.2579 -0.4429  0.4593
 5719SOL    HW121073   5.293   8.305   1.141  1.7520  0.7587  0.1993
 5719SOL    HW221074   5.359   8.384   1.252  0.2394 -1.2408  2.6346
 5720SOL     OW21075  10.117   2.811   4.485 -0.4197 -0.1594 -0.3117
 5720SOL    HW121076  10.080   2.900   4.486 -0.7133 -0.2754 -0.6867
 5720SOL    HW221077  10.045   2.755   4.514 -0.5346 -0.3831 -1.0141
 5721SOL     OW21078   2.701   9.488   4.948 -1.3312  0.4201 -0.1691
 5721SOL    HW121079   2.788   9.487   4.908 -1.3558 -0.5261 -0.2190
 5721SOL    HW221080   2.694   9.576   4.987  0.8237 -0.3888  2.3831
 5722SOL     OW21081   4.458   5.733   4.002 -0.0216 -0.3612 -0.7522
 5722SOL    HW121082   4.481   5.645   4.031 -0.8635 -0.4436 -0.2921
 5722SOL    HW221083   4.393   5.763   4.066  0.4909  0.7183 -0.7128
 5723SOL     OW21084   2.141   6.884   1.995 -0.3038 -0.3281 -0.0062
 5723SOL    HW121085   2.186   6.840   2.067 -0.7014 -0.5257  0.1222
 5723SOL    HW221086   2.062   6.832   1.980  0.4788 -1.1161 -1.5319
 5724SOL     OW21087   4.833   0.943   7.880 -0.0299 -0.0091 -0.1867
 5724SOL    HW121088   4.850   0.897   7.798  1.7343 -1.8459  1.1225
 5724SOL    HW221089   4.764   1.006   7.858 -0.4199 -1.2086 -2.7877
 5725SOL     OW21090   7.102   6.528   6.888 -0.1460  0.1920 -0.0808
 5725SOL    HW121091   7.041   6.518   6.815 -2.0885 -1.8802  1.6851
 5725SOL    HW221092   7.180   6.568   6.849 -2.3008  2.3560 -2.5953
 5726SOL     OW21093   0.636   1.524   4.505 -0.0540  0.0918  0.1349
 5726SOL    HW121094   0.620   1.484   4.591  3.0207 -0.0959  0.7186
 5726SOL    HW221095   0.572   1.595   4.499 -1.6756 -1.1667  1.6659
 5727SOL     OW21096   5.866   5.842   8.687 -0.3202 -0.5226  0.3790
 5727SOL    HW121097   5.836   5.867   8.775 -2.2254 -1.6911  0.1229
 5727SOL    HW221098   5.882   5.925   8.643 -1.3387  0.1392  1.2021
 5728SOL     OW21099  10.139   5.975   3.388  0.2147 -0.3260 -0.0072
 5728SOL    HW121100  10.124   6.052   3.333  1.5070 -0.5269 -0.6964
 5728SOL    HW221101  10.062   5.970   3.444  0.8458  2.4996  1.2863
 5729SOL     OW21102   0.797   6.769   6.126 -0.0130  0.2850 -0.4254
 5729SOL    HW121103   0.751   6.686   6.110 -1.6831  1.3963 -1.7444
 5729SOL    HW221104   0.737   6.836   6.093  1.8195  1.9405 -0.5390
 5730SOL     OW21105   3.649   4.217   8.460 -0.5906 -0.2058  0.0803
 5730SOL    HW121106   3.699   4.138   8.441 -3.3335 -1.9616 -0.4532
 5730SOL    HW221107   3.644   4.263   8.376  0.7056  0.3874  0.3103
 5731SOL     OW21108   7.480   3.295   4.355  0.1080 -0.0970 -0.3934
 5731SOL    HW121109   7.401   3.308   4.302 -0.0295  0.7937  0.0136
 5731SOL    HW221110   7.501   3.382   4.388  0.8956 -0.4403  0.0298
 5732SOL     OW21111   1.513   6.428   9.191 -0.4215 -0.5457 -0.2819
 5732SOL    HW121112   1.543   6.338   9.205 -1.1802 -1.2095 -2.5165
 5732SOL    HW221113   1.521   6.469   9.277  3.7187 -1.5396  0.0268
 5733SOL     OW21114   0.309   9.065   4.296  0.1320  0.1476  0.2830
 5733SOL    HW121115   0.252   9.139   4.319  1.1998  1.1480 -0.2151
 5733SOL    HW221116   0.365   9.053   4.372  2.0125  1.8723 -0.7399
 5734SOL     OW21117   1.793   4.489   4.763 -0.2515  0.5053 -0.2450
 5734SOL    HW121118   1.795   4.395   4.742  0.8451  0.2558  0.8999
 5734SOL    HW221119   1.699   4.508   4.774 -0.4164 -0.8517  1.1155
 5735SOL     OW21120   7.956   0.890   6.117  0.3139  0.1527 -0.1064
 5735SOL    HW121121   7.957   0.901   6.022 -0.5290  1.2762 -0.0049
 5735SOL    HW221122   8.021   0.952   6.149  1.2567 -0.8622  0.0210
 5736SOL     OW21123   7.490   8.296   5.476  0.1989 -0.2656 -0.8295
 5736SOL    HW121124   7.529   8.338   5.399  0.6444  0.0625 -0.4285
 5736SOL    HW221125   7.518   8.351   5.549  1.7745 -1.8920 -0.1440
 5737SOL     OW21126   7.241   9.375   0.275 -0.3955 -0.5825 -0.0207
 5737SOL    HW121127   7.289   9.396   0.195 -1.0677 -2.9188 -1.1271
 5737SOL    HW221128   7.171   9.441   0.280 -0.0624 -0.1292 -1.0964
 5738SOL     OW21129   8.602  10.195   8.581  0.6141  0.1759 -0.1235
 5738SOL    HW121130   8.655  10.131   8.628  0.9488  0.0639 -0.6423
 5738SOL    HW221131   8.517  10.194   8.625  0.9555  0.1583  0.5456
 5739SOL     OW21132   2.938   8.019   3.973  0.1351  0.6205 -0.5044
 5739SOL    HW121133   2.983   8.045   4.053  0.0931  1.4957 -0.7568
 5739SOL    HW221134   2.912   7.928   3.988 -1.4347  1.2970  1.1919
 5740SOL     OW21135   9.059   9.210   8.638 -0.2154 -0.4125  0.1401
 5740SOL    HW121136   9.094   9.237   8.553 -0.6411 -0.6058 -0.1015
 5740SOL    HW221137   9.135   9.209   8.697 -0.0762  0.6678 -0.0028
 5741SOL     OW21138   3.698   9.298   5.223 -0.3140 -0.1475  0.3251
 5741SOL    HW121139   3.719   9.308   5.131 -0.8211  0.0531  0.2260
 5741SOL    HW221140   3.781   9.275   5.265  0.0640  0.4715 -0.0679
 5742SOL     OW21141   3.802   2.081   3.550  0.3132  0.3494  0.1514
 5742SOL    HW121142   3.777   2.071   3.642  0.2384 -0.6568  0.0313
 5742SOL    HW221143   3.722   2.062   3.501  0.5109  0.2613 -0.1394
 5743SOL     OW21144   5.069   4.545   4.622  0.4068 -0.4602 -0.0440
 5743SOL    HW121145   4.995   4.506   4.668  0.2355 -0.7140 -0.5369
 5743SOL    HW221146   5.144   4.528   4.680 -0.2145  1.5913  1.4662
 5744SOL     OW21147   2.061   7.614   3.535 -0.2604 -0.2722 -0.4669
 5744SOL    HW121148   1.979   7.635   3.489 -0.1571  0.6119 -0.2546
 5744SOL    HW221149   2.129   7.630   3.470 -0.3364 -4.1988 -1.8334
 5745SOL     OW21150   3.016   7.100   9.225  0.5178  0.1631 -0.1983
 5745SOL    HW121151   2.959   7.079   9.152 -1.0940  0.7311  0.8359
 5745SOL    HW221152   3.000   7.192   9.243 -0.7709 -0.4401  2.1896
 5746SOL     OW21153   8.498   2.791   5.941  0.2177 -0.0848 -0.1850
 5746SOL    HW121154   8.515   2.701   5.913  0.5671  0.0872 -0.5447
 5746SOL    HW221155   8.403   2.794   5.956  0.1371 -0.3954 -0.6001
 5747SOL     OW21156   9.366   7.722   6.928  0.6035  0.1300 -0.0154
 5747SOL    HW121157   9.334   7.664   6.996 -1.9444  0.8120 -0.5089
 5747SOL    HW221158   9.391   7.664   6.856  1.0703 -0.4831  0.6399
 5748SOL     OW21159   2.871   6.512   5.339 -0.8067  0.2835  0.1508
 5748SOL    HW121160   2.801   6.534   5.278 -0.5518  2.6114  0.5866
 5748SOL    HW221161   2.834   6.529   5.426  0.0644  0.9244  0.4157
 5749SOL     OW21162   2.591   7.307   6.163  0.3255 -0.0457  0.0961
 5749SOL    HW121163   2.654   7.261   6.219 -1.8711 -0.5623  2.3517
 5749SOL    HW221164   2.525   7.240   6.143 -0.8944  1.1211  0.1183
 5750SOL     OW21165   6.892   2.713   5.851  0.2852  0.2682  0.1437
 5750SOL    HW121166   6.865   2.785   5.793  0.5330 -0.9480 -1.5541
 5750SOL    HW221167   6.812   2.664   5.866  0.0327  1.0681  1.6372
 5751SOL     OW21168   8.068   6.751   4.644  0.0769 -0.1562  0.2844
 5751SOL    HW121169   8.122   6.725   4.570 -0.5431 -0.6087 -0.0156
 5751SOL    HW221170   8.120   6.817   4.690  0.1199  0.7665 -1.0218
 5752SOL     OW21171   1.669   5.047   2.558  0.4360  0.5037  0.3711
 5752SOL    HW121172   1.665   5.011   2.647  1.0445  1.9607  1.0277
 5752SOL    HW221173   1.580   5.037   2.524  0.4072 -0.8733  0.8008
 5753SOL     OW21174   1.971   5.772   9.380  0.0345  0.5376  0.2003
 5753SOL    HW121175   2.025   5.723   9.441 -1.4930 -0.2639  0.9587
 5753SOL    HW221176   1.975   5.722   9.298 -0.6671 -0.3140  0.6674
 5754SOL     OW21177   0.406   6.335   4.235  0.1373  0.1102  0.2413
 5754SOL    HW121178   0.335   6.378   4.282  0.1762 -0.5057  0.8573
 5754SOL    HW221179   0.365   6.302   4.155 -0.2350 -0.1054  0.5198
 5755SOL     OW21180   2.212  10.092   0.081  0.3797 -0.5797  0.5785
 5755SOL    HW121181   2.127  10.124   0.111 -0.0459 -1.2222  0.0944
 5755SOL    HW221182   2.202  10.081  -0.014  1.3999  0.5098  0.3202
 5756SOL     OW21183   9.315   8.413   9.557  0.3944  0.1154 -0.0932
 5756SOL    HW121184   9.327   8.390   9.465  0.7990 -0.2549  0.0557
 5756SOL    HW221185   9.377   8.359   9.604  1.6691  1.7843  0.2272
 5757SOL     OW21186   3.955   5.645   9.057  0.0308 -0.0559 -0.2532
 5757SOL    HW121187   3.900   5.616   8.984 -1.2368  0.5106  0.4585
 5757SOL    HW221188   3.896   5.693   9.115  1.3911  1.0764  0.2546
 5758SOL     OW21189   0.908   5.021   6.426  0.2120  0.2115 -0.1599
 5758SOL    HW121190   0.812   5.015   6.431  0.3370 -1.0756  3.2985
 5758SOL    HW221191   0.926   5.115   6.426 -1.0266  0.4668  0.4130
 5759SOL     OW21192   5.173   0.021   3.338  0.3338  0.4343  0.3937
 5759SOL    HW121193   5.083   0.041   3.315  0.8666  2.2386 -0.3252
 5759SOL    HW221194   5.193   0.078   3.413  0.7235 -0.3537  0.9111
 5760SOL     OW21195   9.236   8.716   2.743  0.2246 -0.2726 -0.0721
 5760SOL    HW121196   9.176   8.701   2.670  0.0926  0.7010 -0.1782
 5760SOL    HW221197   9.204   8.659   2.812  0.3099 -1.1560 -0.7400
 5761SOL     OW21198   4.141   6.492   0.881 -0.2697 -0.1923 -0.2250
 5761SOL    HW121199   4.053   6.472   0.911  0.2908  0.4428  2.0693
 5761SOL    HW221200   4.177   6.408   0.853 -1.5263 -0.4805 -1.0449
 5762SOL     OW21201   3.760   0.935   9.953 -0.2282 -0.2562  0.2652
 5762SOL    HW121202   3.721   0.967   9.871  0.2348 -1.2246 -0.3511
 5762SOL    HW221203   3.727   0.845   9.962 -0.7858  0.0444  1.4878
 5763SOL     OW21204   9.919   4.601   3.193 -0.2897  0.0373  0.5922
 5763SOL    HW121205   9.829   4.581   3.167 -0.2369 -0.9871  1.1432
 5763SOL    HW221206   9.948   4.523   3.240  1.8981 -0.8853 -2.0581
 5764SOL     OW21207   4.762   7.155   3.486 -0.5875 -0.2953 -0.5951
 5764SOL    HW121208   4.790   7.244   3.507 -0.1205 -0.7461  0.7461
 5764SOL    HW221209   4.801   7.138   3.400  1.0079  0.0872  0.0158
 5765SOL     OW21210  10.071   7.465   5.935 -0.0087  0.0082 -0.1652
 5765SOL    HW121211  10.069   7.379   5.977 -0.3345 -0.3418 -0.8707
 5765SOL    HW221212  10.017   7.454   5.856  1.6815  0.2577 -1.4084
 5766SOL     OW21213   5.407   7.618  10.128 -0.4600  0.0261 -0.5358
 5766SOL    HW121214   5.463   7.545  10.101 -1.0638  0.0815 -2.0774
 5766SOL    HW221215   5.389   7.665  10.046 -2.7852 -0.0227 -0.1129
 5767SOL     OW21216   1.768   7.937   2.050  0.1277  0.1771 -0.3385
 5767SOL    HW121217   1.732   7.879   2.117  1.1454 -1.7073 -1.3254
 5767SOL    HW221218   1.845   7.976   2.090 -0.1846  0.3344  0.1172
 5768SOL     OW21219   2.080   6.803   4.048 -0.2668  0.2289 -0.2633
 5768SOL    HW121220   2.056   6.894   4.067  1.2988  0.5623  0.2530
 5768SOL    HW221221   2.135   6.777   4.121  0.3252 -0.7309 -1.0345
 5769SOL     OW21222   6.985   8.216   4.259 -0.0537  0.6507 -0.3650
 5769SOL    HW121223   7.072   8.254   4.268  1.2995 -2.0239 -1.3418
 5769SOL    HW221224   6.981   8.185   4.169 -2.0372  0.6485 -0.3295
 5770SOL     OW21225   5.390   1.087   4.889 -0.1429 -0.2012 -0.1190
 5770SOL    HW121226   5.441   1.007   4.874  0.9023  0.3290  0.5332
 5770SOL    HW221227   5.420   1.147   4.821  0.2937  0.1971  0.4209
 5771SOL     OW21228   3.405  10.102   2.073  0.1055 -0.1463 -0.1057
 5771SOL    HW121229   3.490  10.132   2.106 -0.0980 -0.9304  1.1922
 5771SOL    HW221230   3.422  10.014   2.040 -0.0789 -0.0546 -0.4489
 5772SOL     OW21231   7.680   5.563   4.533 -0.3017 -0.0975 -0.0856
 5772SOL    HW121232   7.638   5.610   4.605  1.7840 -0.8804  1.7612
 5772SOL    HW221233   7.681   5.471   4.562 -1.7856 -0.9386 -2.3694
 5773SOL     OW21234   3.078   8.274   2.565  0.1724 -0.6074  0.2148
 5773SOL    HW121235   3.164   8.316   2.572 -0.4164  0.4362  1.7399
 5773SOL    HW221236   3.022   8.340   2.525 -0.5395 -0.2196  1.7632
 5774SOL     OW21237   4.194   3.714   8.918  0.2282 -0.4135  0.1291
 5774SOL    HW121238   4.278   3.760   8.925  0.0029  0.2198 -0.9495
 5774SOL    HW221239   4.217   3.622   8.910  0.7331 -0.4304  1.4598
 5775SOL     OW21240   2.603   8.293  10.012 -0.1370 -0.2885 -0.4451
 5775SOL    HW121241   2.596   8.254  10.099  0.1521 -1.3843 -0.8951
 5775SOL    HW221242   2.617   8.218   9.954  0.8072  0.5267 -1.2988
 5776SOL     OW21243   0.182   7.810   2.706 -0.1370 -0.1984 -0.3094
 5776SOL    HW121244   0.160   7.901   2.722  0.5621 -0.2745  1.2590
 5776SOL    HW221245   0.277   7.807   2.706 -0.1332 -1.1806  1.3997
 5777SOL     OW21246   8.047   8.396   1.336  0.6290  0.0947 -0.0635
 5777SOL    HW121247   8.110   8.359   1.274  1.4636  1.0444  0.2049
 5777SOL    HW221248   7.970   8.339   1.328  1.4413 -0.9640 -0.5344
 5778SOL     OW21249   6.269   8.833   3.619 -0.0430 -0.1877  0.6184
 5778SOL    HW121250   6.302   8.743   3.625  1.0480  0.3028  3.4430
 5778SOL    HW221251   6.346   8.886   3.601 -0.1864  0.4430  1.7986
 5779SOL     OW21252   5.575   3.443   8.331 -0.1370 -0.1719 -0.2780
 5779SOL    HW121253   5.642   3.469   8.394 -0.6383 -0.0233  0.2070
 5779SOL    HW221254   5.608   3.474   8.246  1.0625 -1.3480 -0.2642
 5780SOL     OW21255   3.774   8.949   4.868  0.0299 -0.0840  0.1733
 5780SOL    HW121256   3.778   8.863   4.828  0.1199 -1.3272  2.6469
 5780SOL    HW221257   3.764   8.931   4.962 -2.3060  2.5845  0.5711
 5781SOL     OW21258   3.944   8.683   5.567 -0.4112 -0.2875  0.2297
 5781SOL    HW121259   4.014   8.618   5.572 -0.7732 -0.6170  1.1366
 5781SOL    HW221260   3.938   8.704   5.474 -1.3841 -2.7712 -0.3403
 5782SOL     OW21261   2.547   6.742   7.888 -0.2472 -0.1049 -0.2235
 5782SOL    HW121262   2.615   6.676   7.884 -0.4706 -0.2871 -2.2589
 5782SOL    HW221263   2.585   6.813   7.939  0.9378 -0.7762 -0.1436
 5783SOL     OW21264   9.974   0.108   4.624 -0.1855  0.5401  0.0147
 5783SOL    HW121265  10.024   0.026   4.620 -0.5296  0.3436 -0.3307
 5783SOL    HW221266  10.038   0.176   4.604  0.3599  0.4742  1.4356
 5784SOL     OW21267   7.819   6.435  10.065  0.8773 -0.6816 -0.1870
 5784SOL    HW121268   7.889   6.370  10.056  1.7356  0.0571  0.8680
 5784SOL    HW221269   7.854   6.513  10.023  0.9715 -0.1097  0.9237
 5785SOL     OW21270   6.148   0.454   1.724  0.1727 -0.2161 -0.0928
 5785SOL    HW121271   6.102   0.493   1.650  2.2394  0.9857 -0.8025
 5785SOL    HW221272   6.193   0.378   1.687  1.3944  0.5184 -0.1382
 5786SOL     OW21273   1.723   5.872   3.375 -0.1389 -0.3756 -0.1638
 5786SOL    HW121274   1.813   5.839   3.385  0.0354 -0.0952 -0.7455
 5786SOL    HW221275   1.726   5.960   3.413 -0.4349 -0.7672  0.7771
 5787SOL     OW21276   4.009  10.028   0.207 -0.5010  0.0563  0.6042
 5787SOL    HW121277   4.062  10.100   0.240 -1.5236  0.7769  0.7307
 5787SOL    HW221278   4.004   9.966   0.280 -0.0366  0.0964  0.6713
 5788SOL     OW21279   1.398   4.664   4.554  0.4129 -0.1296 -0.1213
 5788SOL    HW121280   1.390   4.746   4.505  0.6613 -2.0526 -3.6945
 5788SOL    HW221281   1.320   4.614   4.531  1.4049 -1.8169  0.0318
 5789SOL     OW21282   8.977   0.277   5.959 -0.0515  0.0140  0.9136
 5789SOL    HW121283   8.913   0.244   6.022  0.8605 -0.5180  1.5894
 5789SOL    HW221284   8.965   0.372   5.961  0.4073  0.0679  2.4116
 5790SOL     OW21285   5.176   5.673   7.646  1.1275 -0.1595  0.6234
 5790SOL    HW121286   5.127   5.614   7.589 -0.5686  0.1143  1.7068
 5790SOL    HW221287   5.212   5.740   7.588 -3.6675  2.3493 -0.0190
 5791SOL     OW21288   4.094   9.384   2.002 -0.0564 -0.3177 -0.2010
 5791SOL    HW121289   4.028   9.345   1.944 -0.3142 -1.1601  0.6315
 5791SOL    HW221290   4.177   9.369   1.957 -0.4503  1.2906 -1.5587
 5792SOL     OW21291   8.803   6.615   0.439  0.2207 -0.0122  0.0906
 5792SOL    HW121292   8.764   6.577   0.518 -1.4887  0.2677 -0.5681
 5792SOL    HW221293   8.764   6.702   0.433  1.6713  0.6524 -0.1347
 5793SOL     OW21294   9.030   8.532   5.308 -0.1047 -0.4636 -0.0215
 5793SOL    HW121295   8.995   8.531   5.397  1.1878  0.3758  0.5252
 5793SOL    HW221296   8.991   8.609   5.267  3.0533  2.2355  1.5073
 5794SOL     OW21297   6.142   8.709   1.200  0.1024  0.1913 -0.7955
 5794SOL    HW121298   6.172   8.667   1.119  0.4121  0.9825 -1.1058
 5794SOL    HW221299   6.177   8.798   1.195 -1.5138  0.8724 -0.7330
 5795SOL     OW21300   7.291   2.423   5.413 -0.3809 -0.4880 -0.2790
 5795SOL    HW121301   7.308   2.502   5.363  2.0960 -0.0875  1.0107
 5795SOL    HW221302   7.378   2.394   5.442 -1.4834 -1.9392  1.8464
 5796SOL     OW21303   5.121   6.066   2.126  0.9211  0.2853  0.0091
 5796SOL    HW121304   5.206   6.024   2.135  0.9807 -0.0061 -1.7129
 5796SOL    HW221305   5.060   6.006   2.170  1.4904  0.1799  0.6757
 5797SOL     OW21306   2.626   6.875   9.409 -0.0217 -0.0601 -0.0342
 5797SOL    HW121307   2.692   6.925   9.456  0.1328 -0.2240 -0.0775
 5797SOL    HW221308   2.675   6.823   9.345 -0.2390  0.2227 -0.4318
 5798SOL     OW21309   4.758   9.966   1.568 -0.2392 -0.0873 -0.2792
 5798SOL    HW121310   4.788  10.009   1.489  1.4936 -0.5403  0.0773
 5798SOL    HW221311   4.802   9.881   1.567  1.6669  0.7372  2.2275
 5799SOL     OW21312   2.199   1.223   0.046  0.4763 -0.0596  0.1115
 5799SOL    HW121313   2.156   1.229   0.131 -0.4714 -0.8041 -0.2939
 5799SOL    HW221314   2.211   1.313   0.018  0.6552  0.1837  0.9605
 5800SOL     OW21315   7.815   8.157   0.895 -0.6709  0.7765 -0.4753
 5800SOL    HW121316   7.743   8.219   0.881 -0.2108  1.3461 -0.3484
 5800SOL    HW221317   7.785   8.076   0.854 -0.6419  1.5142 -2.0281
 5801SOL     OW21318   4.114   8.447   1.412  0.2869 -0.7604  0.4766
 5801SOL    HW121319   4.079   8.373   1.462 -2.9549  0.5313  0.3244
 5801SOL    HW221320   4.045   8.470   1.350  1.5812  1.7879 -0.1779
 5802SOL     OW21321   5.650   2.901   3.867 -0.4376 -0.2491  0.9141
 5802SOL    HW121322   5.739   2.933   3.849 -0.9343  1.0968  0.7408
 5802SOL    HW221323   5.614   2.880   3.781 -0.5516 -0.0679  0.9180
 5803SOL     OW21324   2.580   6.125   1.466 -0.0051 -0.0191  0.5175
 5803SOL    HW121325   2.594   6.210   1.507 -0.6564 -0.2901  1.3590
 5803SOL    HW221326   2.595   6.062   1.537  1.3280 -0.6700 -0.3042
 5804SOL     OW21327   9.974  10.076   7.785 -0.6709  0.2584 -0.4059
 5804SOL    HW121328  10.031  10.056   7.860 -0.9953 -1.3148 -0.5655
 5804SOL    HW221329  10.025  10.048   7.709 -0.9783  0.4166 -0.6669
 5805SOL     OW21330   2.002   8.548   8.757  0.2700  0.1438  0.2316
 5805SOL    HW121331   2.054   8.626   8.738  0.2268  0.1238  0.0219
 5805SOL    HW221332   1.918   8.563   8.713 -0.7133  1.1005  2.2979
 5806SOL     OW21333   8.834   9.125   9.732  0.1779  0.0293 -0.2646
 5806SOL    HW121334   8.893   9.159   9.665  0.5586 -2.7851 -1.4825
 5806SOL    HW221335   8.890   9.107   9.807  0.4910 -0.5658 -0.6354
 5807SOL     OW21336   2.894   5.513   8.508  0.4638 -0.0971 -0.0897
 5807SOL    HW121337   2.826   5.450   8.533  0.0023  0.2171 -0.5495
 5807SOL    HW221338   2.957   5.460   8.458  0.1453 -0.2269 -0.3592
 5808SOL     OW21339   2.791   6.985   1.386 -0.7303  0.1731  0.0961
 5808SOL    HW121340   2.806   7.060   1.443 -0.8646 -0.5810  1.1449
 5808SOL    HW221341   2.858   6.921   1.410 -0.2738  0.1379 -1.1588
 5809SOL     OW21342   9.853  10.183   2.019  0.1113 -0.5946  0.1343
 5809SOL    HW121343   9.879  10.133   2.097  4.0496  0.7714 -0.0876
 5809SOL    HW221344   9.936  10.202   1.975 -1.6285  2.2375 -2.1917
 5810SOL     OW21345   8.183   0.577   8.352  0.1114  0.3709  0.0700
 5810SOL    HW121346   8.190   0.630   8.431  0.0124 -1.5268  1.4240
 5810SOL    HW221347   8.274   0.555   8.329  0.1090 -2.6812  2.3311
 5811SOL     OW21348   4.480   8.289   1.928  0.2022  0.1235 -0.0806
 5811SOL    HW121349   4.471   8.206   1.975  0.5259  0.9055  1.4461
 5811SOL    HW221350   4.519   8.348   1.992  0.4486  1.3233 -1.2952
 5812SOL     OW21351   2.169   4.495   1.622  0.1520  0.2454  0.1959
 5812SOL    HW121352   2.189   4.421   1.679 -2.6440  0.7273  1.9780
 5812SOL    HW221353   2.182   4.572   1.676  1.1146  0.9768 -1.0311
 5813SOL     OW21354   1.220   6.925   0.335 -0.0652  0.3834 -0.0800
 5813SOL    HW121355   1.278   6.861   0.295 -0.3018  1.0576 -1.5918
 5813SOL    HW221356   1.139   6.920   0.283 -1.1559 -0.0982  1.5893
 5814SOL     OW21357   0.810   9.095   5.876  0.0039  0.1765 -0.3410
 5814SOL    HW121358   0.811   9.090   5.780  0.5321  0.5115 -0.3556
 5814SOL    HW221359   0.803   9.188   5.895 -1.0062  0.0572 -0.0427
 5815SOL     OW21360   1.695   2.552   8.017 -0.2210  0.2185 -0.3901
 5815SOL    HW121361   1.704   2.503   7.936  0.4907 -0.9132  0.3407
 5815SOL    HW221362   1.727   2.640   7.996  1.6225 -0.5339 -0.9084
 5816SOL     OW21363   0.644   4.105   7.659 -0.1323 -0.3910  0.5112
 5816SOL    HW121364   0.652   4.192   7.620 -0.5471 -0.2507  0.7345
 5816SOL    HW221365   0.702   4.050   7.606 -1.1660 -0.3382 -0.7329
 5817SOL     OW21366   8.219   3.369   7.794 -0.3111 -0.6318 -0.1530
 5817SOL    HW121367   8.281   3.427   7.750  0.2096 -1.0739 -0.0115
 5817SOL    HW221368   8.274   3.304   7.839 -0.8527 -0.5861  0.5974
 5818SOL     OW21369   1.557   5.089   4.708 -0.4279  0.0746  0.2116
 5818SOL    HW121370   1.474   5.064   4.668 -0.4677  1.9370 -0.9998
 5818SOL    HW221371   1.616   5.016   4.687 -1.5256 -0.9022  0.4055
 5819SOL     OW21372   3.080   0.652   4.209  0.6501 -0.2509 -0.7013
 5819SOL    HW121373   3.084   0.738   4.166 -0.6555  0.3565  0.3133
 5819SOL    HW221374   3.037   0.596   4.144  1.2698 -0.0798 -1.2719
 5820SOL     OW21375   3.503   6.204   4.918 -0.2782 -0.3210 -0.3105
 5820SOL    HW121376   3.579   6.246   4.878 -0.9086  0.2956 -0.8865
 5820SOL    HW221377   3.496   6.244   5.005  0.3455 -0.7558 -0.0475
 5821SOL     OW21378   8.747   6.686   7.628 -0.2792 -0.0944  0.0744
 5821SOL    HW121379   8.833   6.687   7.670  0.5796  1.1879 -1.5977
 5821SOL    HW221380   8.712   6.774   7.642 -0.1924  0.1971 -1.3851
 5822SOL     OW21381   2.512   5.863   4.956 -0.1883  0.0263  0.0308
 5822SOL    HW121382   2.515   5.771   4.930  0.6046  0.4042 -1.3078
 5822SOL    HW221383   2.579   5.905   4.902  0.9900  1.0314  2.1200
 5823SOL     OW21384   2.930   0.921   5.942 -0.4906 -0.0355  0.3619
 5823SOL    HW121385   2.847   0.881   5.915 -1.1734  1.1327  0.6332
 5823SOL    HW221386   2.997   0.867   5.900 -1.3754 -1.0180  0.1371
 5824SOL     OW21387  10.132   7.639   9.054  0.3808  0.4895  0.3481
 5824SOL    HW121388  10.156   7.617   8.964  2.6546  1.5583  0.6413
 5824SOL    HW221389  10.126   7.734   9.055 -0.2204  0.4584  1.2055
 5825SOL     OW21390   8.258   4.191   2.607 -0.4311 -0.8016 -0.0416
 5825SOL    HW121391   8.187   4.216   2.549 -1.0193 -1.7336  0.2673
 5825SOL    HW221392   8.316   4.268   2.608 -0.8817 -0.4323 -1.1175
 5826SOL     OW21393   1.419   4.861   1.458 -0.4222 -0.5308  1.2600
 5826SOL    HW121394   1.353   4.813   1.410 -0.2117 -0.2911  0.7236
 5826SOL    HW221395   1.460   4.796   1.515  0.0002 -1.0342  0.3948
 5827SOL     OW21396   8.071   3.373   5.663 -0.1877 -0.0534  0.0544
 5827SOL    HW121397   8.080   3.411   5.751  0.5405  2.0988 -0.8837
 5827SOL    HW221398   8.026   3.441   5.613 -1.5199 -1.6556 -1.0246
 5828SOL     OW21399   5.128   1.852   9.204 -0.3923  0.4847 -0.4884
 5828SOL    HW121400   5.158   1.899   9.282  0.2267  0.5158 -0.7426
 5828SOL    HW221401   5.191   1.876   9.136 -1.9025  1.8592 -1.4743
 5829SOL     OW21402   4.029   3.917   8.800 -0.2433 -0.0075  0.4726
 5829SOL    HW121403   4.076   3.870   8.868 -2.7155 -0.7995  1.7797
 5829SOL    HW221404   3.974   3.851   8.758  0.0137  0.7867 -1.2004
 5830SOL     OW21405   6.200   6.608   7.675 -0.1615  0.3235  0.8492
 5830SOL    HW121406   6.253   6.556   7.615 -1.8925  0.3115 -0.7274
 5830SOL    HW221407   6.262   6.670   7.714  1.3386 -0.8719  0.4507
 5831SOL     OW21408   2.929   4.815   7.442  0.3034  0.5554  0.3859
 5831SOL    HW121409   2.996   4.874   7.407  0.3764  0.6418  0.6731
 5831SOL    HW221410   2.948   4.730   7.401  1.5294  0.1946  1.6273
 5832SOL     OW21411   5.997   8.738   4.792  0.0316  0.6208 -0.0730
 5832SOL    HW121412   5.980   8.805   4.726  0.3459  1.2003  0.4226
 5832SOL    HW221413   5.928   8.751   4.858 -0.7394 -0.4437 -0.6435
 5833SOL     OW21414   5.452   1.275   6.446 -0.2988  0.1842 -0.3962
 5833SOL    HW121415   5.433   1.349   6.503  1.9700 -1.4242  2.7516
 5833SOL    HW221416   5.524   1.305   6.391  0.3693  0.4570  0.6104
 5834SOL     OW21417   9.118   8.573   8.387  0.0798  0.2330  0.0037
 5834SOL    HW121418   9.157   8.656   8.414 -0.5181 -0.1246  2.1268
 5834SOL    HW221419   9.183   8.507   8.411  0.6503  0.0260 -1.8747
 5835SOL     OW21420   2.363   3.275   5.134  0.4197  0.5677 -0.8143
 5835SOL    HW121421   2.314   3.196   5.159 -2.0372  2.2490  0.0793
 5835SOL    HW221422   2.441   3.273   5.189 -0.6056 -0.2396  0.7064
 5836SOL     OW21423   5.556   1.072   2.488 -0.2411 -0.3908  0.1234
 5836SOL    HW121424   5.620   1.120   2.436 -1.1339 -0.8523 -1.4797
 5836SOL    HW221425   5.483   1.132   2.499  0.5057  0.2254  2.1663
 5837SOL     OW21426   1.980   4.881   5.873  0.7183 -0.5931 -0.0871
 5837SOL    HW121427   2.028   4.798   5.864  1.7063 -0.3172  2.0048
 5837SOL    HW221428   2.046   4.949   5.861 -0.2297 -0.0240 -2.5549
 5838SOL     OW21429   3.202  10.087   9.999  0.3602  0.3227 -0.1569
 5838SOL    HW121430   3.206   9.992   9.992 -0.1059  0.4157 -2.3965
 5838SOL    HW221431   3.286  10.112  10.038  0.8767 -0.9537 -0.4053
 5839SOL     OW21432   2.200   6.773   0.321 -0.0119 -0.2998 -0.6858
 5839SOL    HW121433   2.151   6.837   0.269  1.3525 -0.0231 -1.7014
 5839SOL    HW221434   2.284   6.765   0.275  1.4633  0.3121  1.7467
 5840SOL     OW21435   2.627   4.698   2.600  0.5330  0.4513  0.0140
 5840SOL    HW121436   2.676   4.776   2.573  1.4064 -0.5399 -1.4085
 5840SOL    HW221437   2.658   4.629   2.542 -0.5307 -0.8769  0.9587
 5841SOL     OW21438   0.287   3.063   3.327  0.4032  0.0309  0.4915
 5841SOL    HW121439   0.278   3.158   3.330 -0.3135  0.0545 -1.1632
 5841SOL    HW221440   0.204   3.030   3.361  0.5501 -0.0079  0.8178
 5842SOL     OW21441   4.957   2.325   4.623 -0.0280  0.0114  0.3629
 5842SOL    HW121442   5.019   2.393   4.598 -0.9510  1.5658  2.0190
 5842SOL    HW221443   5.007   2.266   4.680 -0.2444  1.8669  2.5989
 5843SOL     OW21444   5.589   7.172   8.836 -0.4333  0.1754  0.0232
 5843SOL    HW121445   5.590   7.132   8.923  1.8541  1.8104  0.8479
 5843SOL    HW221446   5.535   7.250   8.845 -1.0763 -0.2113 -0.3507
 5844SOL     OW21447   4.065   2.848   5.958  0.3924 -0.3529 -0.3500
 5844SOL    HW121448   4.099   2.762   5.935 -1.7190 -1.0717 -0.9650
 5844SOL    HW221449   4.021   2.879   5.879 -0.9231  0.2450  0.5899
 5845SOL     OW21450   0.810   9.260   0.145 -0.1608 -0.2249 -0.0418
 5845SOL    HW121451   0.896   9.271   0.185  0.1890 -0.3646 -0.7323
 5845SOL    HW221452   0.751   9.312   0.199  0.9382  2.7813 -1.4839
 5846SOL     OW21453   9.099   6.503   6.476 -0.2979  0.3522  0.3160
 5846SOL    HW121454   9.189   6.472   6.470  0.2924  1.8150  0.9175
 5846SOL    HW221455   9.055   6.465   6.400  0.3961 -1.6658  0.8689
 5847SOL     OW21456   6.793   3.615   9.292 -0.0050 -0.5650 -0.8937
 5847SOL    HW121457   6.705   3.613   9.254 -1.1492 -0.2547  1.5274
 5847SOL    HW221458   6.778   3.615   9.387  2.6151 -0.1847 -0.4042
 5848SOL     OW21459   1.329   5.282   0.411  0.2285 -0.3243  0.4422
 5848SOL    HW121460   1.411   5.241   0.382  0.7401 -0.1086  1.5391
 5848SOL    HW221461   1.358   5.358   0.461 -0.6592 -0.1034  0.6219
 5849SOL     OW21462   0.815   9.478   9.183 -0.3882 -0.1497 -0.7012
 5849SOL    HW121463   0.812   9.400   9.238 -1.6726  0.3195 -0.0659
 5849SOL    HW221464   0.855   9.449   9.101  0.6469 -1.0854  0.1116
 5850SOL     OW21465   4.912   1.317   0.643  0.3181 -0.9014  0.0175
 5850SOL    HW121466   4.984   1.380   0.646 -1.2206  0.9293  0.3956
 5850SOL    HW221467   4.901   1.290   0.734  1.0245 -1.7969 -0.1551
 5851SOL     OW21468   1.015   7.736   3.937  0.6240  0.1839  0.3149
 5851SOL    HW121469   1.069   7.668   3.977  0.1592 -1.4219 -1.6577
 5851SOL    HW221470   1.008   7.711   3.845  1.1747  3.4026 -0.7440
 5852SOL     OW21471   6.691   9.935   7.436  0.0227  0.5478 -0.4119
 5852SOL    HW121472   6.647  10.019   7.447 -0.2759  0.1546  1.8161
 5852SOL    HW221473   6.627   9.882   7.387 -0.9697  0.7714  0.5936
 5853SOL     OW21474   3.420  10.064   7.801  0.8739  0.7608 -0.0514
 5853SOL    HW121475   3.489   9.998   7.809  1.8583  1.7354 -0.2298
 5853SOL    HW221476   3.434  10.122   7.875  0.5535  1.2513 -0.3740
 5854SOL     OW21477   1.503   3.884   7.303  0.1261 -0.3791 -0.1415
 5854SOL    HW121478   1.465   3.961   7.260  0.0877 -0.4400 -0.2170
 5854SOL    HW221479   1.583   3.866   7.253  0.4055 -0.0849  0.1868
 5855SOL     OW21480   4.999   5.245   5.040 -0.0108  0.2047  0.1692
 5855SOL    HW121481   5.030   5.326   4.999 -1.4737  0.7932  0.1510
 5855SOL    HW221482   5.020   5.256   5.133  1.1882 -0.0918 -0.0545
 5856SOL     OW21483   0.831   9.205   9.220 -0.2771  0.2360 -1.0320
 5856SOL    HW121484   0.784   9.127   9.250 -2.8615  0.8129 -3.1314
 5856SOL    HW221485   0.922   9.176   9.209 -0.8419 -2.0480 -0.3021
 5857SOL     OW21486   3.631   3.695   4.096 -0.4061  0.1480 -0.0786
 5857SOL    HW121487   3.697   3.628   4.075 -1.7652 -0.8031 -1.6302
 5857SOL    HW221488   3.584   3.660   4.172 -1.2636 -0.8518 -1.0241
 5858SOL     OW21489   6.651   4.569   0.295 -0.1774  0.3126 -0.2252
 5858SOL    HW121490   6.633   4.497   0.355  0.0152 -1.3384 -2.0748
 5858SOL    HW221491   6.711   4.626   0.343  0.7991 -1.4939  0.7705
 5859SOL     OW21492   3.356   3.220   7.351 -0.2966  0.1989 -0.3989
 5859SOL    HW121493   3.298   3.155   7.311 -3.7669  1.0222  2.7863
 5859SOL    HW221494   3.409   3.169   7.413  0.2264 -0.1542 -1.1268
 5860SOL     OW21495   5.155   8.396   4.106  0.1162  0.1205  0.5258
 5860SOL    HW121496   5.241   8.355   4.098  0.8649  1.9593 -2.1187
 5860SOL    HW221497   5.093   8.323   4.111  1.6704 -1.2376  0.6946
 5861SOL     OW21498   2.519   6.434   6.444  0.3575 -0.6803  0.1237
 5861SOL    HW121499   2.578   6.467   6.511 -0.7728  0.0479  0.8008
 5861SOL    HW221500   2.457   6.505   6.430 -1.4919 -2.0597  0.8352
 5862SOL     OW21501   4.155  10.161   4.121 -0.0426  0.1229 -0.6730
 5862SOL    HW121502   4.073  10.124   4.089 -0.6456 -0.6163  1.5375
 5862SOL    HW221503   4.136  10.254   4.135  0.1637  0.4090 -2.0720
 5863SOL     OW21504   1.993   6.250   5.543 -0.6106 -0.1113 -0.2950
 5863SOL    HW121505   1.907   6.254   5.502 -0.6651  1.3013 -0.1067
 5863SOL    HW221506   2.047   6.310   5.492 -0.5681  1.3494  1.3756
 5864SOL     OW21507   9.318   6.424   5.167  0.1367  0.1730  0.2364
 5864SOL    HW121508   9.223   6.426   5.166  0.0917 -0.3816  1.5189
 5864SOL    HW221509   9.341   6.344   5.119 -0.0328  0.3046 -0.0678
 5865SOL     OW21510   3.680   3.540   4.939  0.0596  0.6201  0.3150
 5865SOL    HW121511   3.598   3.585   4.961 -0.5641 -1.1849  2.0072
 5865SOL    HW221512   3.677   3.530   4.844 -2.3799 -0.5772  0.4542
 5866SOL     OW21513   6.366   4.159   6.504  0.0411 -0.2123 -0.0856
 5866SOL    HW121514   6.461   4.164   6.495 -0.0681 -0.1457 -1.3274
 5866SOL    HW221515   6.334   4.238   6.460 -0.5774 -0.0849  0.5881
 5867SOL     OW21516   7.283   6.737   7.883  0.1817  0.2968 -0.3128
 5867SOL    HW121517   7.254   6.739   7.792 -2.4007 -0.9892  0.3909
 5867SOL    HW221518   7.285   6.829   7.909 -2.4560  0.5734 -0.7666
 5868SOL     OW21519   3.120   1.391   6.553 -0.2802 -0.0879  0.1123
 5868SOL    HW121520   3.120   1.447   6.631  3.1385  0.7999 -0.3853
 5868SOL    HW221521   3.098   1.304   6.587 -1.3913  0.7176  1.6127
 5869SOL     OW21522   8.332   5.721   1.912  0.0099  0.2935  0.6590
 5869SOL    HW121523   8.403   5.704   1.973 -0.7027  1.1190  1.7507
 5869SOL    HW221524   8.254   5.729   1.967 -1.0515 -1.1364 -0.5429
 5870SOL     OW21525   4.716   8.251   6.341 -0.3917  0.1713  0.6562
 5870SOL    HW121526   4.802   8.210   6.353 -0.3436  0.1853  0.3604
 5870SOL    HW221527   4.653   8.180   6.355 -0.3529  0.2659  1.3631
 5871SOL     OW21528   9.678   2.672   6.264  0.0781 -0.5678 -0.1074
 5871SOL    HW121529   9.751   2.725   6.294 -0.7469  0.8396 -0.5029
 5871SOL    HW221530   9.705   2.639   6.179  0.6533 -0.9136  0.2042
 5872SOL     OW21531   5.810   3.299   3.701  0.4120 -0.3058  0.3593
 5872SOL    HW121532   5.753   3.224   3.683  0.1018  0.3316 -1.4579
 5872SOL    HW221533   5.895   3.274   3.664 -0.4080  1.2889 -2.9651
 5873SOL     OW21534   6.124   3.808   4.839 -0.1787 -0.1896  0.3087
 5873SOL    HW121535   6.127   3.875   4.908 -1.6882  0.3411 -0.1008
 5873SOL    HW221536   6.157   3.852   4.761 -1.1656  0.1052  0.0411
 5874SOL     OW21537   9.277   9.662   6.576 -0.1858 -0.1208  0.1134
 5874SOL    HW121538   9.279   9.619   6.491  2.4566 -0.1416  0.1245
 5874SOL    HW221539   9.300   9.593   6.639 -0.2753  0.3201  0.6376
 5875SOL     OW21540   0.245   1.152   1.711  0.4930  0.1175 -0.0653
 5875SOL    HW121541   0.212   1.065   1.687 -0.5046  0.6233 -0.6025
 5875SOL    HW221542   0.313   1.135   1.776 -0.9901 -0.9737  1.2662
 5876SOL     OW21543   0.817   1.174   2.880  0.3695  0.6167 -0.1472
 5876SOL    HW121544   0.838   1.227   2.804  0.4506  1.7672  0.6493
 5876SOL    HW221545   0.859   1.219   2.954 -1.9840  1.1111  0.9960
 5877SOL     OW21546   6.911   9.354   9.689  0.2923 -1.1035 -0.0703
 5877SOL    HW121547   6.982   9.377   9.748 -0.2472 -1.0690  0.5642
 5877SOL    HW221548   6.924   9.260   9.672  0.0781 -1.2605  0.6103
 5878SOL     OW21549   5.851   3.293   6.573 -0.1141  0.2408 -0.6525
 5878SOL    HW121550   5.881   3.345   6.498 -1.1253  0.4035 -0.9602
 5878SOL    HW221551   5.927   3.288   6.630  0.0610  2.0095 -0.6523
 5879SOL     OW21552   0.149   2.413   2.137  0.0740  0.4514  0.8040
 5879SOL    HW121553   0.072   2.465   2.113  0.1583  0.3941  0.4154
 5879SOL    HW221554   0.149   2.414   2.233 -1.0014 -0.4046  0.8347
 5880SOL     OW21555   2.595   3.079   2.103 -0.6643  0.0902 -0.2018
 5880SOL    HW121556   2.505   3.102   2.085 -0.7664 -1.3627 -1.8562
 5880SOL    HW221557   2.633   3.059   2.017  1.3174  0.9055  0.4105
 5881SOL     OW21558   4.586   8.254   4.902  0.4032  0.2301 -0.2848
 5881SOL    HW121559   4.671   8.278   4.865 -0.0175  0.7218 -0.9445
 5881SOL    HW221560   4.608   8.196   4.976  1.2964  0.1805 -0.5753
 5882SOL     OW21561   0.153   5.993   4.229 -0.0785  0.3562  0.8438
 5882SOL    HW121562   0.098   5.940   4.285 -1.2117  0.1611 -0.4027
 5882SOL    HW221563   0.218   5.932   4.194  1.0746  0.6120  2.4068
 5883SOL     OW21564   7.294   1.456   3.804 -0.4802  0.3776 -0.4990
 5883SOL    HW121565   7.370   1.423   3.853 -1.3015 -1.5486 -0.4206
 5883SOL    HW221566   7.279   1.544   3.838  1.4407  0.6556 -0.2236
 5884SOL     OW21567   9.963   3.178   9.885 -0.0634  0.5932  0.5676
 5884SOL    HW121568   9.919   3.158   9.802 -0.8928 -0.2879  1.1967
 5884SOL    HW221569   9.952   3.272   9.896 -3.1245  0.2510  1.4019
 5885SOL     OW21570  10.070   7.341   9.556  0.3617  0.4669 -0.1317
 5885SOL    HW121571  10.121   7.354   9.636 -0.0358 -1.7685  0.5653
 5885SOL    HW221572  10.087   7.419   9.504  2.3641  1.0104  1.2031
 5886SOL     OW21573   3.118   0.856   0.276  0.4536  0.3924  0.4536
 5886SOL    HW121574   3.050   0.907   0.320 -0.1732  0.5274 -0.6554
 5886SOL    HW221575   3.149   0.911   0.205 -1.7767 -1.4721 -2.1864
 5887SOL     OW21576   0.239   5.516   5.061 -0.6410  0.3061 -0.1832
 5887SOL    HW121577   0.225   5.486   5.151  1.0042 -0.8173 -0.2775
 5887SOL    HW221578   0.192   5.452   5.007 -0.2046  0.0086 -0.2085
 5888SOL     OW21579   2.959   6.191   9.965  0.3952  0.4549 -0.1346
 5888SOL    HW121580   3.031   6.207  10.026  0.9537  0.1606 -0.7104
 5888SOL    HW221581   2.880   6.199  10.019  0.8858 -0.0153  0.6673
 5889SOL     OW21582   1.422   9.277   1.220 -0.3292 -0.6652 -0.2778
 5889SOL    HW121583   1.406   9.187   1.191  0.2636 -0.8070 -0.1863
 5889SOL    HW221584   1.517   9.289   1.209 -0.6247  0.5201 -1.9093
 5890SOL     OW21585   3.334   2.626   2.250  0.3490  0.4067  0.2173
 5890SOL    HW121586   3.325   2.544   2.201  2.9798 -0.2277  0.6095
 5890SOL    HW221587   3.270   2.685   2.211  0.7405 -0.7811 -2.4175
 5891SOL     OW21588   9.029   7.308   9.029  0.2058 -0.3840  0.0213
 5891SOL    HW121589   9.093   7.379   9.032  0.0161 -0.2066 -0.0805
 5891SOL    HW221590   8.969   7.333   8.959  2.0131 -2.2435 -2.3615
 5892SOL     OW21591   8.559   8.212   1.592 -0.4748 -0.0985  0.3080
 5892SOL    HW121592   8.522   8.285   1.542  1.3632 -0.6652 -2.0468
 5892SOL    HW221593   8.586   8.252   1.675 -0.4883  1.6799 -0.4887
 5893SOL     OW21594   4.648   4.092   6.079 -0.2330  0.3353 -0.0162
 5893SOL    HW121595   4.642   4.010   6.129 -1.8813  0.8945  0.8008
 5893SOL    HW221596   4.591   4.078   6.004 -1.9446  1.2701  1.0285
 5894SOL     OW21597   6.355   8.048   6.773  0.1437 -0.3896 -0.5391
 5894SOL    HW121598   6.399   7.996   6.839  0.6361 -0.1123 -0.6476
 5894SOL    HW221599   6.322   8.124   6.820 -0.1579 -0.5576 -0.4738
 5895SOL     OW21600   5.609   3.645   8.843  0.2456  0.0668  0.2498
 5895SOL    HW121601   5.676   3.625   8.909  2.5953  2.7103 -1.0844
 5895SOL    HW221602   5.590   3.561   8.803 -1.1099 -1.6278  3.9660
 5896SOL     OW21603   2.792  10.192   1.908 -0.0282  0.6239  0.1772
 5896SOL    HW121604   2.736  10.269   1.902  1.0624  1.3970 -0.6615
 5896SOL    HW221605   2.783  10.162   1.998 -2.3938  0.2099 -0.1223
 5897SOL     OW21606   8.331   5.462   9.782  0.3548  0.0855 -0.0143
 5897SOL    HW121607   8.270   5.412   9.728  0.0146  1.3528 -0.8664
 5897SOL    HW221608   8.359   5.534   9.725 -0.4505  1.8132  1.6572
 5898SOL     OW21609   5.127   6.113   1.088  0.0656  0.0848 -0.0736
 5898SOL    HW121610   5.199   6.059   1.120 -0.9123 -0.3495  1.5124
 5898SOL    HW221611   5.168   6.197   1.067  1.0549 -0.1857  0.6717
 5899SOL     OW21612   9.028   2.815   5.253 -0.2768  0.0918 -0.4047
 5899SOL    HW121613   9.061   2.904   5.261  0.1774  0.1363 -2.2048
 5899SOL    HW221614   9.106   2.760   5.255 -0.4188 -0.1305 -0.8228
 5900SOL     OW21615   6.086  10.072   8.149  0.3850 -0.4524 -0.0124
 5900SOL    HW121616   6.102  10.161   8.118  2.2599 -0.7112  0.0986
 5900SOL    HW221617   6.008  10.080   8.204 -1.8318  0.3954 -2.9783
 5901SOL     OW21618   3.921   1.403   6.868  0.2238  0.2975 -0.1206
 5901SOL    HW121619   3.867   1.482   6.869  0.4682  0.4691 -0.5433
 5901SOL    HW221620   3.965   1.403   6.953 -1.5673 -0.6318  0.8816
 5902SOL     OW21621   0.719   1.039   4.225 -0.4637 -0.1993  0.5263
 5902SOL    HW121622   0.656   1.098   4.184 -1.8102 -1.3566  0.8361
 5902SOL    HW221623   0.750   0.983   4.154 -0.8320 -0.5198  0.6158
 5903SOL     OW21624   7.317   9.499   9.458 -0.3799 -0.5276  0.2011
 5903SOL    HW121625   7.277   9.568   9.405  0.1402  0.1159  0.6423
 5903SOL    HW221626   7.407   9.493   9.426 -1.1505 -3.0668 -1.9041
 5904SOL     OW21627   1.749  10.016   0.691 -0.2034  0.4313  0.4048
 5904SOL    HW121628   1.668   9.980   0.727 -1.4180 -0.2719 -2.6751
 5904SOL    HW221629   1.723  10.056   0.608  2.1889  2.7482  0.6370
 5905SOL     OW21630   4.556   0.825   9.724  0.2370 -0.6072  0.1805
 5905SOL    HW121631   4.576   0.918   9.710  0.4100 -0.3084  2.1682
 5905SOL    HW221632   4.587   0.782   9.644  2.1198  0.7745  0.0873
 5906SOL     OW21633   6.669   2.180   8.642  0.2018  0.2375  0.6170
 5906SOL    HW121634   6.721   2.208   8.717  0.4183  0.2336  0.4714
 5906SOL    HW221635   6.708   2.226   8.567  0.1570  0.0378  0.4686
 5907SOL     OW21636   3.454   2.422   6.104 -0.5493 -0.1482  0.1794
 5907SOL    HW121637   3.383   2.363   6.080  1.1186 -1.8859 -0.8511
 5907SOL    HW221638   3.534   2.372   6.084  0.9695  1.6265  1.4333
 5908SOL     OW21639   1.183   5.945   9.216 -0.3100  0.0357 -0.1996
 5908SOL    HW121640   1.215   6.034   9.201 -2.0214  0.7136 -0.1156
 5908SOL    HW221641   1.254   5.888   9.187  0.4985  1.4198 -1.0224
 5909SOL     OW21642   9.336   7.376   6.334 -0.4906  0.0693  0.0497
 5909SOL    HW121643   9.362   7.370   6.242 -1.1585  0.3383 -0.1677
 5909SOL    HW221644   9.251   7.331   6.337 -1.1789  1.3286  0.2305
 5910SOL     OW21645   3.501   6.006   6.141 -0.2468 -0.3169  0.0329
 5910SOL    HW121646   3.502   5.915   6.111  1.2439 -0.2286 -0.2466
 5910SOL    HW221647   3.467   6.056   6.067  1.1587 -0.3841 -0.6838
 5911SOL     OW21648   9.686   3.140   9.295 -0.1708  0.0197  0.0753
 5911SOL    HW121649   9.768   3.133   9.248 -0.4287  0.2762 -0.4197
 5911SOL    HW221650   9.627   3.186   9.235 -0.8239 -0.5875  0.2277
 5912SOL     OW21651   8.923   5.780   5.135  0.6200 -0.3083  0.0901
 5912SOL    HW121652   8.941   5.832   5.057 -1.1441  1.7274  0.9610
 5912SOL    HW221653   8.848   5.726   5.112  1.0226 -0.8065 -0.0739
 5913SOL     OW21654   5.082   9.883   6.869  0.0768  0.1927 -0.0725
 5913SOL    HW121655   5.029   9.923   6.938 -2.6511 -2.1669 -0.6060
 5913SOL    HW221656   5.108   9.798   6.905 -1.0974 -0.9346 -1.7159
 5914SOL     OW21657   4.476   5.243   9.739  0.2727 -0.3762 -0.1181
 5914SOL    HW121658   4.534   5.292   9.798 -1.9106 -0.8769  2.6320
 5914SOL    HW221659   4.505   5.152   9.747 -0.8624 -0.6400  1.3301
 5915SOL     OW21660   7.000   7.888   1.076 -0.4992  0.2837 -0.0037
 5915SOL    HW121661   7.018   7.978   1.048 -0.0441  0.2988  0.3309
 5915SOL    HW221662   7.000   7.892   1.171  1.4340 -0.4162  0.0696
 5916SOL     OW21663   0.862  10.141   8.308  0.1377 -0.1014 -0.0825
 5916SOL    HW121664   0.922  10.203   8.267  0.0936 -0.3167 -0.4734
 5916SOL    HW221665   0.868  10.160   8.402  0.5522  0.1102 -0.1520
 5917SOL     OW21666   4.798   5.188   9.200  0.4111  0.4469 -0.0111
 5917SOL    HW121667   4.839   5.143   9.126  0.3824  1.7493 -0.8625
 5917SOL    HW221668   4.732   5.127   9.231  0.5543 -0.2164 -0.9420
 5918SOL     OW21669   4.092   5.500   1.005  0.0608  0.4968  0.2792
 5918SOL    HW121670   4.159   5.542   1.060  0.7546  1.4872 -1.2515
 5918SOL    HW221671   4.115   5.407   1.007  0.7409  0.6604  0.7781
 5919SOL     OW21672   2.210   4.272   7.126  0.2457  0.0088  0.3507
 5919SOL    HW121673   2.173   4.360   7.120 -2.4258 -0.9171  1.7721
 5919SOL    HW221674   2.223   4.245   7.035 -2.1990  0.6472 -0.2664
 5920SOL     OW21675   7.533   3.530   0.892  0.8087  0.6951 -0.0710
 5920SOL    HW121676   7.614   3.570   0.924  0.1697  0.4148  2.0736
 5920SOL    HW221677   7.489   3.600   0.844  2.4955  0.7120 -1.6915
 5921SOL     OW21678   2.069   4.356   3.458  0.4077 -0.5665  0.1787
 5921SOL    HW121679   2.079   4.268   3.495  1.3803  0.3676  2.2991
 5921SOL    HW221680   1.980   4.356   3.421 -0.0269 -2.0994  1.1039
 5922SOL     OW21681   5.706   4.357   9.503  0.3319  0.4114 -0.4581
 5922SOL    HW121682   5.709   4.282   9.444  1.2495  0.9654 -1.1345
 5922SOL    HW221683   5.789   4.402   9.489 -0.1267  1.4539  0.0805
 5923SOL     OW21684   7.690   4.006   9.531  0.1501  0.1880 -0.3736
 5923SOL    HW121685   7.764   4.002   9.470 -1.0159  0.6419 -1.8703
 5923SOL    HW221686   7.612   3.998   9.476 -0.9427 -1.1946  1.2387
 5924SOL     OW21687   6.699   8.088   6.746 -0.0502 -0.0157  0.0803
 5924SOL    HW121688   6.736   8.004   6.721 -0.4645 -0.3086  0.4318
 5924SOL    HW221689   6.668   8.074   6.836  1.3380  0.9794  0.7537
 5925SOL     OW21690   9.326   2.321   8.789 -0.0400 -0.1913  0.4847
 5925SOL    HW121691   9.417   2.345   8.772  0.1911 -1.4794 -0.2654
 5925SOL    HW221692   9.279   2.404   8.793  0.7162  0.4089 -1.7812
 5926SOL     OW21693   0.919   3.096   1.927 -0.1671 -0.9726 -0.2627
 5926SOL    HW121694   0.998   3.046   1.907  0.4901 -0.0459 -0.0525
 5926SOL    HW221695   0.951   3.185   1.944 -1.4287 -0.1320 -1.9798
 5927SOL     OW21696   2.958   9.187   7.622  0.3075 -0.2596 -0.5387
 5927SOL    HW121697   2.895   9.227   7.681  0.5608 -0.9493  0.2129
 5927SOL    HW221698   2.977   9.101   7.660  1.5417 -0.1538 -0.8466
 5928SOL     OW21699   5.257   8.648   5.046 -0.0088 -0.2312 -0.2279
 5928SOL    HW121700   5.271   8.559   5.076 -0.1943 -0.3690 -0.5534
 5928SOL    HW221701   5.283   8.703   5.121  1.2331 -0.5121 -0.4324
 5929SOL     OW21702   0.322   3.105   5.639  0.7491  0.1755  0.0831
 5929SOL    HW121703   0.384   3.149   5.581  1.1946 -0.1770  0.2820
 5929SOL    HW221704   0.372   3.033   5.677  0.8157  1.0872  1.7934
 5930SOL     OW21705   5.452   0.477   7.685  0.7103  0.1301 -0.1214
 5930SOL    HW121706   5.524   0.460   7.624  1.1015 -0.4453  0.4971
 5930SOL    HW221707   5.444   0.572   7.687  1.6346  0.2064  0.0275
 5931SOL     OW21708   6.111   5.274   2.075  0.1091 -0.0002  0.2093
 5931SOL    HW121709   6.042   5.214   2.045  0.7949 -0.1546 -1.1112
 5931SOL    HW221710   6.163   5.292   1.997  0.8453  1.0929  0.9271
 5932SOL     OW21711   1.347   5.411   4.031  0.8919  0.3881 -0.1094
 5932SOL    HW121712   1.376   5.361   4.108  0.0114 -1.7397 -1.0822
 5932SOL    HW221713   1.262   5.446   4.056 -1.4929 -3.8469 -1.3510
 5933SOL     OW21714   8.950   7.060   0.440  0.2472  0.4302  0.1314
 5933SOL    HW121715   8.961   7.118   0.365  1.4646  0.6874  0.4762
 5933SOL    HW221716   8.859   7.031   0.436  0.1894  0.7336 -1.2254
 5934SOL     OW21717  10.175   1.133   0.140  0.1730 -0.2378 -0.1550
 5934SOL    HW121718  10.209   1.055   0.183  0.8187  0.5912  0.8876
 5934SOL    HW221719  10.144   1.102   0.055 -0.8932 -1.8661  0.7709
 5935SOL     OW21720   2.021   1.051   2.377 -0.1096  0.1391 -0.4188
 5935SOL    HW121721   2.036   0.959   2.357 -0.3800 -0.2131  0.8960
 5935SOL    HW221722   2.107   1.092   2.368  0.5217 -0.7163  1.2606
 5936SOL     OW21723   5.512   1.985   8.623 -0.0087 -0.1440 -0.0326
 5936SOL    HW121724   5.599   2.022   8.613  1.0945 -3.1079 -3.6918
 5936SOL    HW221725   5.518   1.927   8.699  2.1308 -2.1528 -1.5900
 5937SOL     OW21726   4.864   7.859   8.787  0.2579  0.2571  0.3777
 5937SOL    HW121727   4.875   7.947   8.825 -0.3592  0.9475 -0.9786
 5937SOL    HW221728   4.793   7.869   8.724  2.4087 -0.3873 -2.3246
 5938SOL     OW21729   0.406   3.372   0.281  0.1367  0.0153 -0.0886
 5938SOL    HW121730   0.379   3.292   0.325  1.0365  0.1697  0.7808
 5938SOL    HW221731   0.500   3.363   0.269 -0.1943 -0.6468 -3.3247
 5939SOL     OW21732   5.639   0.621   7.247 -0.0605  0.2214 -0.5078
 5939SOL    HW121733   5.591   0.631   7.164  0.1852  2.1578 -0.4454
 5939SOL    HW221734   5.724   0.660   7.230 -0.8544  2.9809  1.3530
 5940SOL     OW21735   8.699   2.662   2.377  0.3451  0.3514 -0.3828
 5940SOL    HW121736   8.672   2.722   2.447 -0.5134  0.8027 -1.0847
 5940SOL    HW221737   8.736   2.719   2.310 -0.3518  0.0899 -0.9991
 5941SOL     OW21738   0.882   5.619   6.451 -0.1383  0.1426 -0.3391
 5941SOL    HW121739   0.954   5.665   6.409 -0.3506 -0.5240 -1.4812
 5941SOL    HW221740   0.828   5.586   6.379  0.1962 -2.1931  0.3673
 5942SOL     OW21741   2.267   8.274   4.889  0.0366  1.0187 -0.8106
 5942SOL    HW121742   2.287   8.367   4.895  0.9669  0.7868  0.0275
 5942SOL    HW221743   2.343   8.236   4.844  0.1455  0.5300 -0.2318
 5943SOL     OW21744   3.472   7.734   4.184 -0.0167 -0.1142 -0.7237
 5943SOL    HW121745   3.530   7.778   4.122 -0.3211  0.0849 -0.8651
 5943SOL    HW221746   3.519   7.653   4.206  0.3055  0.0343 -0.8532
 5944SOL     OW21747   6.061   0.641   6.301 -0.2187  0.1038 -0.2640
 5944SOL    HW121748   6.063   0.730   6.264  0.2530  0.1976 -0.0282
 5944SOL    HW221749   5.980   0.603   6.268 -0.5478  0.7086 -0.1693
 5945SOL     OW21750   1.594   1.563   6.500 -0.4880 -0.3384 -0.0533
 5945SOL    HW121751   1.555   1.620   6.566  1.5505  0.6433  0.3661
 5945SOL    HW221752   1.635   1.493   6.550 -1.8560 -1.5234 -0.5082
 5946SOL     OW21753   7.667   1.785   2.809  0.2259 -0.1776  0.2079
 5946SOL    HW121754   7.684   1.849   2.879  1.0588 -0.1451 -0.0096
 5946SOL    HW221755   7.572   1.775   2.808  0.0788  1.0578  0.2571
 5947SOL     OW21756   3.484   2.019   6.156  0.3939 -0.2446 -0.2599
 5947SOL    HW121757   3.467   1.945   6.098  1.0045 -0.1398 -0.5796
 5947SOL    HW221758   3.578   2.034   6.149  0.2908  0.5059 -0.1365
 5948SOL     OW21759   3.413   7.300   5.275 -0.1600  0.0009  0.3293
 5948SOL    HW121760   3.432   7.206   5.273 -0.0425  0.0245  0.3579
 5948SOL    HW221761   3.492   7.340   5.312  0.3463  0.2431 -0.9618
 5949SOL     OW21762   9.403   8.922   1.616 -0.0668 -0.2445  0.0970
 5949SOL    HW121763   9.414   8.955   1.527 -1.1590  0.6047  0.2588
 5949SOL    HW221764   9.356   8.839   1.606  0.8224 -0.7384 -0.1678
 5950SOL     OW21765   3.551   0.029   5.040  0.2625 -0.4212  0.1399
 5950SOL    HW121766   3.586  -0.058   5.058  0.0160 -0.4132  0.6784
 5950SOL    HW221767   3.582   0.083   5.113  0.0734 -0.1536  0.0248
 5951SOL     OW21768   7.829   8.369   0.312  0.0851 -0.9353  0.1114
 5951SOL    HW121769   7.890   8.325   0.371 -1.1705 -1.7460  0.8762
 5951SOL    HW221770   7.824   8.312   0.236  1.8384  0.1996 -0.8994
 5952SOL     OW21771   5.356   8.591   1.068  0.7672 -0.4413  0.7106
 5952SOL    HW121772   5.275   8.638   1.049  1.0906 -0.7845 -1.7784
 5952SOL    HW221773   5.384   8.626   1.153  0.1907  2.7265 -0.2665
 5953SOL     OW21774   5.992   7.872   8.329 -0.6037  0.6386 -0.2546
 5953SOL    HW121775   5.961   7.819   8.402  0.8080 -0.4040 -0.3639
 5953SOL    HW221776   6.078   7.904   8.357 -0.0687  0.2827 -1.4137
 5954SOL     OW21777   0.896   2.000   9.470  0.5182 -0.3683 -0.0305
 5954SOL    HW121778   0.932   1.952   9.544  0.8387  0.3572  0.3003
 5954SOL    HW221779   0.965   1.998   9.404  0.0837 -1.3477 -0.4705
 5955SOL     OW21780   5.970   3.790   7.753 -0.1548 -0.6813 -0.3849
 5955SOL    HW121781   5.927   3.813   7.835 -1.9671  0.8446 -1.6666
 5955SOL    HW221782   5.960   3.695   7.746  1.0785 -1.0201  1.6525
 5956SOL     OW21783   0.254   8.213   8.067  0.4932 -0.6678  0.4480
 5956SOL    HW121784   0.275   8.299   8.030  0.9638 -1.0462 -0.1872
 5956SOL    HW221785   0.180   8.183   8.015  1.8811 -1.7028 -1.0157
 5957SOL     OW21786   0.861   4.137   1.640  0.3795  0.1541 -0.5463
 5957SOL    HW121787   0.774   4.163   1.672  1.6891  2.0272  1.8048
 5957SOL    HW221788   0.873   4.048   1.674 -0.9630 -0.5464 -1.7831
 5958SOL     OW21789   7.876   2.742  10.177 -0.1843 -0.4434  0.0064
 5958SOL    HW121790   7.819   2.787  10.115 -0.1909 -1.1649 -0.5285
 5958SOL    HW221791   7.936   2.810  10.208 -1.5506  0.4184  0.8649
 5959SOL     OW21792   0.044   8.694   1.508  0.3756 -0.0874 -0.5605
 5959SOL    HW121793  -0.020   8.763   1.524  0.6955  0.3448 -1.0947
 5959SOL    HW221794   0.026   8.664   1.419  1.1082  0.2629 -0.8384
 5960SOL     OW21795   5.340   7.336   8.421 -0.6316  0.1459  0.0083
 5960SOL    HW121796   5.375   7.287   8.496  1.1366 -0.0973 -0.8979
 5960SOL    HW221797   5.381   7.422   8.427 -1.4319  0.5365 -0.0255
 5961SOL     OW21798   8.905   5.564   2.070  0.5935  0.0232 -0.2284
 5961SOL    HW121799   8.933   5.549   1.980  0.9347  1.2576 -0.3451
 5961SOL    HW221800   8.863   5.482   2.096  0.7397 -0.4457 -1.4078
 5962SOL     OW21801   7.856   7.246   9.292  0.2850  0.0263 -0.2703
 5962SOL    HW121802   7.932   7.238   9.350  1.1481 -0.2474 -1.4079
 5962SOL    HW221803   7.851   7.160   9.248 -0.1066  0.3552 -0.8774
 5963SOL     OW21804   1.714   8.907   4.844 -0.0080  0.3656 -0.2821
 5963SOL    HW121805   1.778   8.837   4.844  1.1570  1.3860 -0.9103
 5963SOL    HW221806   1.690   8.918   4.936 -0.8785 -1.3901 -0.2531
 5964SOL     OW21807   6.438   8.291   5.173 -0.5616 -0.2554  0.2182
 5964SOL    HW121808   6.368   8.354   5.159 -0.1121  0.2570  0.2261
 5964SOL    HW221809   6.404   8.208   5.140 -0.6148  0.3047 -1.1882
 5965SOL     OW21810   6.127   2.437   2.081  0.3944 -0.0179 -0.5283
 5965SOL    HW121811   6.155   2.389   2.159 -2.4027  0.4669  0.9144
 5965SOL    HW221812   6.107   2.369   2.017 -1.2380 -0.7197  0.6610
 5966SOL     OW21813   6.789   5.751   6.621  0.3265  0.2521  0.0947
 5966SOL    HW121814   6.760   5.703   6.543 -2.7091  0.8189  0.7456
 5966SOL    HW221815   6.870   5.707   6.647  1.0329 -0.4516 -2.8842
 5967SOL     OW21816   8.121   4.849   8.911 -0.3080  0.4018 -0.1423
 5967SOL    HW121817   8.063   4.909   8.956 -1.1264  0.6294 -1.4338
 5967SOL    HW221818   8.171   4.904   8.850 -1.2598 -0.2017 -1.5385
 5968SOL     OW21819   7.254   2.496   1.534  0.4294  0.2974  0.0478
 5968SOL    HW121820   7.275   2.480   1.626 -0.5847 -1.1055  0.0632
 5968SOL    HW221821   7.281   2.586   1.518  0.0728  0.7585  1.8829
 5969SOL     OW21822   0.194   7.035   8.370  0.1110 -0.4487  0.0689
 5969SOL    HW121823   0.283   7.024   8.336  0.1872 -3.9685  1.0217
 5969SOL    HW221824   0.162   6.946   8.381 -2.9120  0.6864  1.4607
 5970SOL     OW21825   0.357   7.965   6.750 -0.6697 -0.4319 -0.2717
 5970SOL    HW121826   0.423   7.983   6.682 -0.4769  1.6065  0.3928
 5970SOL    HW221827   0.405   7.972   6.832 -1.1955 -1.5375  0.1531
 5971SOL     OW21828   2.271   7.766   9.908  0.4212  0.2024 -0.0337
 5971SOL    HW121829   2.181   7.734   9.919 -0.0961  2.0462  1.5382
 5971SOL    HW221830   2.282   7.774   9.813 -0.7359 -0.8903 -0.2884
 5972SOL     OW21831   4.289   4.128   7.852  0.1439  0.3517 -0.3487
 5972SOL    HW121832   4.245   4.066   7.795  1.9618  0.4440 -1.9610
 5972SOL    HW221833   4.232   4.205   7.854 -0.7006 -0.2561 -0.7361
 5973SOL     OW21834   6.741   7.078   5.356  0.4141 -0.3449  0.2238
 5973SOL    HW121835   6.708   7.090   5.445  0.8724 -0.2030  0.3761
 5973SOL    HW221836   6.752   6.983   5.347 -0.4454 -0.4296  0.0215
 5974SOL     OW21837   5.980   5.906   0.035 -0.4655 -0.5267  0.4391
 5974SOL    HW121838   6.003   5.999   0.033 -1.7850 -0.1763  0.6140
 5974SOL    HW221839   5.908   5.898  -0.027 -0.1705 -1.4973  0.2082
 5975SOL     OW21840   3.664   3.172   1.703  0.2323  0.1763 -0.2019
 5975SOL    HW121841   3.661   3.173   1.607 -0.9418  0.2793 -0.1765
 5975SOL    HW221842   3.718   3.247   1.726 -0.6175  0.9903 -0.7623
 5976SOL     OW21843   1.405   0.263   9.344  0.0227 -0.0335 -0.1583
 5976SOL    HW121844   1.391   0.191   9.406  0.6271 -0.2057 -0.2105
 5976SOL    HW221845   1.375   0.341   9.390  3.1960  0.3319  1.6063
 5977SOL     OW21846   3.618   2.897   5.752 -0.3614  0.0290 -0.7125
 5977SOL    HW121847   3.593   2.988   5.734  3.0317  1.5506  1.1471
 5977SOL    HW221848   3.569   2.874   5.831 -0.2009  0.8501 -0.3555
 5978SOL     OW21849   1.977   2.653   1.001  0.1543  0.6048  0.1149
 5978SOL    HW121850   2.026   2.701   1.068  1.2410  0.4693 -0.5727
 5978SOL    HW221851   1.886   2.676   1.018  0.2940 -0.2060  2.2774
 5979SOL     OW21852   0.968   7.078   6.075  0.0989  0.6556  0.2090
 5979SOL    HW121853   0.968   7.023   6.154  2.5986 -1.1048 -0.8638
 5979SOL    HW221854   1.047   7.131   6.084 -0.4036  1.5305 -0.4430
 5980SOL     OW21855   0.094   3.157   2.867  0.0032 -0.5606 -0.2339
 5980SOL    HW121856   0.052   3.233   2.907  0.4161  1.3096 -3.0038
 5980SOL    HW221857   0.174   3.143   2.917 -1.3390 -0.9214  1.9335
 5981SOL     OW21858   7.802   3.494   1.902 -0.7588  0.4158  0.2471
 5981SOL    HW121859   7.771   3.499   1.993 -2.6917 -1.2138 -0.2656
 5981SOL    HW221860   7.722   3.497   1.849  0.2795  0.4653 -1.3736
 5982SOL     OW21861   3.691   8.051   9.178 -0.3338  0.2486 -0.1728
 5982SOL    HW121862   3.741   8.017   9.251 -1.5221 -0.9799  0.0985
 5982SOL    HW221863   3.750   8.042   9.102 -0.2877 -1.5784  0.0533
 5983SOL     OW21864   8.494   6.091   5.501 -0.4788  0.1030  0.9366
 5983SOL    HW121865   8.496   6.000   5.473  0.3576  0.4008 -0.0606
 5983SOL    HW221866   8.587   6.116   5.507 -0.6972  1.3285 -0.3705
 5984SOL     OW21867   0.566   6.886   5.223  0.2531  0.2680  0.1680
 5984SOL    HW121868   0.604   6.798   5.224 -0.1813  0.0774  1.5460
 5984SOL    HW221869   0.598   6.928   5.303 -1.0940  0.6716  0.5301
 5985SOL     OW21870   4.175   4.465   1.760 -0.6590  0.3652 -0.2490
 5985SOL    HW121871   4.245   4.459   1.826  0.0805 -0.9626 -1.1105
 5985SOL    HW221872   4.125   4.384   1.771  0.9788 -1.1468 -2.8968
 5986SOL     OW21873   0.698   3.936   3.787  0.1663 -0.2141  0.1929
 5986SOL    HW121874   0.664   3.923   3.698  0.9157  2.8097 -0.6663
 5986SOL    HW221875   0.776   3.990   3.774  0.1425  0.5148  2.7207
 5987SOL     OW21876   3.580   8.869   8.975 -0.1092 -0.3924 -0.2167
 5987SOL    HW121877   3.573   8.876   9.070  1.6850 -2.6076  0.1836
 5987SOL    HW221878   3.656   8.921   8.952 -0.7655  0.4500 -0.5143
 5988SOL     OW21879   5.189   4.605   1.372 -0.0494 -0.2651 -0.1126
 5988SOL    HW121880   5.173   4.616   1.466  1.0231 -0.8617  0.1533
 5988SOL    HW221881   5.191   4.695   1.338  0.9148  0.0360  0.6813
 5989SOL     OW21882   3.639   2.587   3.751 -0.3188  0.1760  0.3783
 5989SOL    HW121883   3.645   2.554   3.661 -2.0749  0.2014  0.2206
 5989SOL    HW221884   3.729   2.583   3.784  0.6271  1.4136 -1.8047
 5990SOL     OW21885   3.071   2.365   9.220  0.6477  0.0916 -0.6158
 5990SOL    HW121886   3.119   2.445   9.241  1.8572 -0.9052  0.5522
 5990SOL    HW221887   3.033   2.382   9.134  0.9387  1.8880 -0.4252
 5991SOL     OW21888   9.760   3.623   1.607 -0.4870 -0.0909  0.0664
 5991SOL    HW121889   9.809   3.677   1.670  1.7488  0.7082 -2.1781
 5991SOL    HW221890   9.768   3.534   1.640  0.1777  0.3611  1.1748
 5992SOL     OW21891   5.704   6.181   0.060 -0.5604 -0.1183  0.4779
 5992SOL    HW121892   5.795   6.182   0.090 -0.4417  2.3095  0.1870
 5992SOL    HW221893   5.708   6.145  -0.028  0.1855  0.4211  0.2862
 5993SOL     OW21894   5.674   8.462  10.199  0.1227  0.1321 -0.4927
 5993SOL    HW121895   5.629   8.542  10.170  0.4539  1.4763  2.3667
 5993SOL    HW221896   5.766   8.485  10.199  0.3268 -0.6737 -0.8004
 5994SOL     OW21897   0.334   0.861   4.175  0.2252 -0.6779  0.1974
 5994SOL    HW121898   0.429   0.844   4.174  0.0215 -1.8860  0.0233
 5994SOL    HW221899   0.308   0.857   4.083  0.2158  1.0504  0.0955
 5995SOL     OW21900   2.398   2.930   8.427  0.8375  0.4932  0.6488
 5995SOL    HW121901   2.485   2.960   8.398 -0.0928  0.7938 -2.1849
 5995SOL    HW221902   2.373   2.863   8.363 -1.0597  0.4884  1.3283
 5996SOL     OW21903   6.685   6.445   0.798 -0.5154 -0.4264 -0.0276
 5996SOL    HW121904   6.602   6.490   0.785  0.6241  2.3514  1.5004
 5996SOL    HW221905   6.681   6.413   0.888 -0.0885 -0.6999 -0.0994
 5997SOL     OW21906   2.499   8.992   9.812 -0.1461  0.1898  0.1810
 5997SOL    HW121907   2.543   8.954   9.735 -1.3497 -0.2538 -0.3084
 5997SOL    HW221908   2.568   8.999   9.878  0.5294 -1.0524 -0.3612
 5998SOL     OW21909   3.448   2.287   6.848 -0.0883 -0.1917  0.6718
 5998SOL    HW121910   3.499   2.217   6.891 -2.5790 -1.4557  1.7745
 5998SOL    HW221911   3.453   2.266   6.755  1.0953 -0.4654  0.7779
 5999SOL     OW21912   3.816   0.149   5.825  0.3868 -0.7713 -0.4477
 5999SOL    HW121913   3.835   0.231   5.780 -1.4906 -0.9836 -1.7759
 5999SOL    HW221914   3.741   0.113   5.777 -0.7732 -1.7721  1.9576
 6000SOL     OW21915   2.058   5.934   8.155 -0.7044  0.0584  0.0765
 6000SOL    HW121916   2.144   5.932   8.111 -1.0174  0.0559 -0.5462
 6000SOL    HW221917   2.073   5.988   8.232 -0.1397  0.0685 -0.0315
 6001SOL     OW21918   2.784   6.866   8.061  0.2800 -1.1122  0.0188
 6001SOL    HW121919   2.773   6.961   8.061 -0.3810 -1.1783  0.2303
 6001SOL    HW221920   2.832   6.847   7.981  0.7878 -0.5628  0.1931
 6002SOL     OW21921   4.634   2.925   0.658 -0.3971  0.1608  0.5876
 6002SOL    HW121922   4.684   3.001   0.630  1.0625 -0.9629  0.0073
 6002SOL    HW221923   4.650   2.859   0.591  1.1078 -1.7471  2.6525
 6003SOL     OW21924  10.046   6.909   1.513  0.3849  0.6054  0.3994
 6003SOL    HW121925  10.020   6.996   1.543 -0.9341  0.0838  0.8330
 6003SOL    HW221926   9.995   6.848   1.567  0.8675 -0.4303 -0.2721
 6004SOL     OW21927   4.400   0.518   6.167  0.0892 -0.1667  0.6872
 6004SOL    HW121928   4.466   0.586   6.157  0.3453 -0.1551  2.2446
 6004SOL    HW221929   4.357   0.538   6.251 -2.5471  0.3774 -0.6794
 6005SOL     OW21930   3.576   3.064   0.822 -0.3677  0.1365 -0.7093
 6005SOL    HW121931   3.493   3.026   0.792 -0.4549  0.8341 -1.3664
 6005SOL    HW221932   3.627   2.988   0.852 -0.5101 -0.5277 -2.0709
 6006SOL     OW21933   0.581   6.699   1.885  0.0023  0.0395  0.0068
 6006SOL    HW121934   0.567   6.671   1.975  0.7570 -1.5030 -0.3117
 6006SOL    HW221935   0.648   6.639   1.852  1.4209  2.0093 -0.8981
 6007SOL     OW21936   3.614   8.904   7.633  0.1004  0.3287  0.3683
 6007SOL    HW121937   3.697   8.927   7.590  0.7275  0.3549  1.5320
 6007SOL    HW221938   3.565   8.855   7.567  0.7484  0.9148 -0.5728
 6008SOL     OW21939   8.647   2.502   4.915  0.2063  0.2146  0.2190
 6008SOL    HW121940   8.707   2.456   4.856 -0.0664 -0.1106  0.1875
 6008SOL    HW221941   8.704   2.544   4.980  0.4552 -0.3867  0.4009
 6009SOL     OW21942   6.766   8.663   8.072  0.5934  1.0463  0.2566
 6009SOL    HW121943   6.776   8.691   7.981 -0.1011  0.9483  0.1455
 6009SOL    HW221944   6.672   8.670   8.089  0.7486  1.3023  1.0457
 6010SOL     OW21945   8.053  10.158   6.592  0.0863 -0.0991 -0.0844
 6010SOL    HW121946   8.041  10.078   6.540  0.0637 -0.4687  0.4821
 6010SOL    HW221947   8.001  10.224   6.546 -0.0776 -0.4660 -0.4331
 6011SOL     OW21948   3.440   8.190   1.664  0.1315  0.0960  0.6771
 6011SOL    HW121949   3.501   8.223   1.731 -1.2034  1.4234  1.2972
 6011SOL    HW221950   3.405   8.109   1.702 -0.9054  1.0385  1.8026
 6012SOL     OW21951   2.410   3.724   0.157  0.5182  0.3313 -0.9209
 6012SOL    HW121952   2.370   3.723   0.244  0.4092 -1.3096 -0.9595
 6012SOL    HW221953   2.404   3.816   0.129 -1.1488  0.5429  0.0094
 6013SOL     OW21954   9.247   0.909   8.959 -0.6879 -0.1023  0.0096
 6013SOL    HW121955   9.279   0.994   8.928 -2.9788  1.3327  1.2253
 6013SOL    HW221956   9.254   0.851   8.884  2.0549  0.7994 -0.5101
 6014SOL     OW21957   1.043   9.987  10.113 -0.1930  0.1816 -0.2495
 6014SOL    HW121958   1.126   9.974  10.065 -0.2617 -0.5189 -0.1962
 6014SOL    HW221959   0.985   9.920  10.077 -1.0998  1.3712 -1.0640
 6015SOL     OW21960   8.502   4.409   4.052 -0.0571  0.9054 -0.2495
 6015SOL    HW121961   8.452   4.489   4.065 -1.8914  0.0985 -1.8453
 6015SOL    HW221962   8.474   4.352   4.123 -1.7106  0.3711 -1.2647
 6016SOL     OW21963   5.995   5.878   4.045  0.1777  0.7979 -0.3872
 6016SOL    HW121964   6.076   5.856   3.999 -0.4561  1.3974 -1.8701
 6016SOL    HW221965   6.008   5.846   4.134  0.8565 -1.8543 -1.3706
 6017SOL     OW21966   3.957   3.274   4.899 -0.0256 -0.0845 -0.0907
 6017SOL    HW121967   3.876   3.259   4.947 -0.2938 -0.9554 -0.8003
 6017SOL    HW221968   3.931   3.280   4.808  0.3930  2.2929 -0.1250
 6018SOL     OW21969   2.951   4.231   6.341  0.2738 -0.4171 -0.1680
 6018SOL    HW121970   2.894   4.200   6.411 -0.0585  1.0970  0.2860
 6018SOL    HW221971   2.975   4.153   6.292 -0.8716 -1.2871  0.6163
 6019SOL     OW21972   8.305   0.178   9.794  0.7909 -0.2224  0.2332
 6019SOL    HW121973   8.219   0.221   9.796  0.9269  0.2073 -1.4601
 6019SOL    HW221974   8.303   0.117   9.867 -0.6758  0.3171  0.6823
 6020SOL     OW21975   6.180   6.421   1.305  0.4490  0.0396  0.5628
 6020SOL    HW121976   6.112   6.405   1.239  0.1726  0.4019  0.7552
 6020SOL    HW221977   6.195   6.335   1.345  0.4382 -0.1327  0.2042
 6021SOL     OW21978   3.960   4.991   1.048 -0.0178 -0.3820  0.4683
 6021SOL    HW121979   3.941   4.969   0.957 -0.0988  1.1067  0.1019
 6021SOL    HW221980   4.018   4.921   1.077 -0.0604 -0.9335 -0.6977
 6022SOL     OW21981   1.821   8.027   1.334  0.0823  0.3246  0.0120
 6022SOL    HW121982   1.776   7.945   1.316  0.3530  0.3558 -0.8582
 6022SOL    HW221983   1.909   8.015   1.297  0.6993  0.3730  1.4193
 6023SOL     OW21984   4.439   4.762   6.690 -0.6342  0.3469 -0.1589
 6023SOL    HW121985   4.407   4.672   6.694 -0.6063  0.3396 -0.0832
 6023SOL    HW221986   4.399   4.805   6.766 -0.8497  0.4655 -0.3389
 6024SOL     OW21987   6.489   1.409   4.718 -0.8262 -0.3876  0.3173
 6024SOL    HW121988   6.400   1.379   4.738 -0.8840 -0.2339  0.2875
 6024SOL    HW221989   6.478   1.498   4.685 -0.9148 -1.2467 -2.1318
 6025SOL     OW21990   3.336   8.746   7.492 -0.2460 -0.1394 -0.4733
 6025SOL    HW121991   3.308   8.661   7.458  1.6193 -1.0290  0.0735
 6025SOL    HW221992   3.312   8.808   7.423  2.5455 -1.7458 -3.1643
 6026SOL     OW21993   6.845   6.859   4.319  0.1844  0.7149  0.0917
 6026SOL    HW121994   6.828   6.900   4.405 -3.7172 -0.6891  0.1905
 6026SOL    HW221995   6.758   6.835   4.287  1.8394 -3.2095 -2.0961
 6027SOL     OW21996   7.155   4.702   2.322 -0.0819  0.1476 -0.0166
 6027SOL    HW121997   7.128   4.700   2.414 -0.9764 -0.0289 -0.2664
 6027SOL    HW221998   7.072   4.703   2.273  0.3528  1.7131 -0.8001
 6028SOL     OW21999   2.313  10.081   1.862  0.7466 -0.4764 -0.3455
 6028SOL    HW122000   2.357  10.102   1.779  0.9589  0.1740 -0.0810
 6028SOL    HW222001   2.248  10.152   1.873 -0.2510 -1.3201 -0.6416
 6029SOL     OW22002   2.558   0.952   3.351  0.1336 -0.4442  0.0533
 6029SOL    HW122003   2.497   0.936   3.423 -0.5915  0.1029 -0.4309
 6029SOL    HW222004   2.589   0.865   3.326 -1.9226 -0.9401 -0.9630
 6030SOL     OW22005   5.349   3.686   3.331  0.0014  0.4806  0.4277
 6030SOL    HW122006   5.351   3.671   3.425  1.2499  0.1009  0.3641
 6030SOL    HW222007   5.441   3.683   3.304 -0.4234 -1.1732 -1.0503
 6031SOL     OW22008   1.967   7.600   8.560 -0.4867 -0.5696  0.4587
 6031SOL    HW122009   1.948   7.692   8.543  1.7626 -0.4355 -2.0881
 6031SOL    HW222010   1.900   7.552   8.511 -0.1348 -0.2293 -0.3702
 6032SOL     OW22011   3.829   3.784   1.967 -0.8543  0.3985 -0.1013
 6032SOL    HW122012   3.906   3.823   1.925 -1.2634  1.8049  0.4051
 6032SOL    HW222013   3.756   3.805   1.908 -0.6869 -2.2575 -1.3786
 6033SOL     OW22014   0.784   9.672   8.232  0.4890  0.3774  0.1412
 6033SOL    HW122015   0.737   9.590   8.246  0.4784  0.3228 -0.2136
 6033SOL    HW222016   0.799   9.676   8.137  1.7680  0.0841  0.3069
 6034SOL     OW22017   7.365   9.077   0.285 -0.5543  0.4054  0.5456
 6034SOL    HW122018   7.281   9.115   0.309 -0.5663  1.4768 -1.0655
 6034SOL    HW222019   7.408   9.145   0.234  1.6009  0.1553  1.8889
 6035SOL     OW22020   9.060   9.056   5.826 -0.4397  0.1747 -0.1797
 6035SOL    HW122021   9.060   9.050   5.922  1.8453 -1.3454 -0.2019
 6035SOL    HW222022   9.127   9.122   5.807  0.0744 -0.5078 -0.7545
 6036SOL     OW22023   6.415   4.877   1.979  0.0233  0.4977  0.3943
 6036SOL    HW122024   6.384   4.903   2.066 -1.4002 -2.9905  1.1205
 6036SOL    HW222025   6.361   4.801   1.957  2.3567 -0.5490 -2.2588
 6037SOL     OW22026   2.849   2.068   4.045 -0.2896  0.0764 -0.0515
 6037SOL    HW122027   2.769   2.099   4.003  1.1741  0.1826 -3.0193
 6037SOL    HW222028   2.831   1.977   4.067 -0.4147 -0.8535 -3.4064
 6038SOL     OW22029   5.832   3.577   3.134 -0.0926  0.4012  0.5979
 6038SOL    HW122030   5.894   3.508   3.161  0.1490  0.8836  1.3149
 6038SOL    HW222031   5.780   3.536   3.065  0.9776 -0.0424  0.0236
 6039SOL     OW22032   4.981   7.236   9.837 -0.6023 -0.0901  0.6824
 6039SOL    HW122033   5.014   7.295   9.905  1.1401 -0.4006  0.1556
 6039SOL    HW222034   5.038   7.253   9.761 -2.2990  0.0307 -0.6271
 6040SOL     OW22035   6.224   0.381   5.725  0.2599 -0.1436  0.2969
 6040SOL    HW122036   6.264   0.452   5.675 -1.7039 -0.1812 -1.4928
 6040SOL    HW222037   6.185   0.324   5.658 -3.4275  0.3501  1.7611
 6041SOL     OW22038   7.831   3.774   9.834 -0.2844 -0.5783  0.6013
 6041SOL    HW122039   7.741   3.743   9.847 -0.5482 -1.6839 -2.7705
 6041SOL    HW222040   7.883   3.693   9.829  0.0114 -0.3318 -2.2338
 6042SOL     OW22041   8.474   5.711   3.033  0.1263 -0.3910  0.2515
 6042SOL    HW122042   8.490   5.751   3.119  0.4489  1.0035 -0.4246
 6042SOL    HW222043   8.453   5.620   3.053 -1.1659  0.2027  1.9157
 6043SOL     OW22044   1.883   1.506   5.069 -0.3001  0.5745 -0.5584
 6043SOL    HW122045   1.845   1.430   5.114  0.0995 -0.4248 -1.8245
 6043SOL    HW222046   1.819   1.530   5.003  0.6602 -0.3412 -1.8838
 6044SOL     OW22047   2.632   7.442   4.202 -0.4791  1.1120  0.3743
 6044SOL    HW122048   2.620   7.465   4.110  0.6229 -1.2260 -0.4082
 6044SOL    HW222049   2.565   7.376   4.220  0.9623 -0.4030  0.4394
 6045SOL     OW22050   4.361   6.779   3.932 -0.0573 -0.3068 -0.4120
 6045SOL    HW122051   4.287   6.839   3.927  1.5432  1.9928  1.1751
 6045SOL    HW222052   4.356   6.728   3.852 -1.3587  2.1950 -2.0615
 6046SOL     OW22053   4.049   0.485   6.588 -0.3060  0.0443  0.7222
 6046SOL    HW122054   4.047   0.449   6.676  0.4605 -0.8486  0.3914
 6046SOL    HW222055   3.982   0.436   6.540 -0.1479 -0.0520  0.5982
 6047SOL     OW22056   1.213   4.638   7.000  0.4255  0.0270  0.4914
 6047SOL    HW122057   1.171   4.599   6.924 -1.0400 -0.0035  1.2832
 6047SOL    HW222058   1.233   4.728   6.972  0.1531 -0.0664 -0.0207
 6048SOL     OW22059   4.359   0.397  10.157  0.1039  0.1523  0.0288
 6048SOL    HW122060   4.386   0.479  10.198 -1.4840  1.4170 -1.3371
 6048SOL    HW222061   4.440   0.347  10.150  1.0510  1.4254  1.2294
 6049SOL     OW22062   4.628   1.863   2.693  0.0068 -0.5003 -0.3754
 6049SOL    HW122063   4.536   1.842   2.675  0.1829 -1.0478 -0.6742
 6049SOL    HW222064   4.634   1.958   2.682 -0.7127 -0.3332  0.5090
 6050SOL     OW22065   4.901   4.118   7.417  0.0188  0.0255 -0.0724
 6050SOL    HW122066   4.806   4.111   7.411  0.1816 -1.7927 -1.2985
 6050SOL    HW222067   4.933   4.085   7.333  1.7852 -1.2439  1.0259
 6051SOL     OW22068   2.760   2.747   7.760  0.0476 -1.0367 -0.2857
 6051SOL    HW122069   2.766   2.778   7.669  0.5782 -1.2638 -0.3345
 6051SOL    HW222070   2.728   2.657   7.752 -0.5996 -0.8127 -0.2031
 6052SOL     OW22071   0.933   5.277  10.122 -0.0102 -0.0905 -0.3903
 6052SOL    HW122072   0.937   5.184  10.144 -0.3770 -0.0467 -0.1295
 6052SOL    HW222073   0.890   5.318  10.198  1.9423  0.5844  0.4094
 6053SOL     OW22074   0.405   7.116   1.724  0.3246 -0.3981  0.0725
 6053SOL    HW122075   0.462   7.179   1.679 -0.6021  0.4292  0.0334
 6053SOL    HW222076   0.447   7.103   1.809  1.3093 -0.8641 -0.4633
 6054SOL     OW22077   5.297   7.006   6.958  0.1801  0.3400  0.1165
 6054SOL    HW122078   5.204   6.996   6.982 -0.4968  2.8033 -1.1328
 6054SOL    HW222079   5.344   6.994   7.041 -1.3976  0.5876  1.0941
 6055SOL     OW22080   7.955   4.948   0.452  0.3594  0.5261  0.2037
 6055SOL    HW122081   8.014   4.910   0.517  1.2696  0.0910 -0.8406
 6055SOL    HW222082   7.884   4.884   0.444  0.5826  0.2658  0.2823
 6056SOL     OW22083   9.368   4.213   0.128  0.2350  0.2414 -0.2962
 6056SOL    HW122084   9.292   4.235   0.073  0.7555 -0.8627 -1.4852
 6056SOL    HW222085   9.338   4.139   0.181 -0.2284  1.2297  0.8780
 6057SOL     OW22086   6.519   6.480   4.511 -0.5737 -0.0272 -0.1969
 6057SOL    HW122087   6.555   6.563   4.544 -0.5997 -0.5134  1.1426
 6057SOL    HW222088   6.425   6.488   4.526 -0.6530 -0.0343 -0.6948
 6058SOL     OW22089   7.024   8.194   2.161  0.1284 -0.8660  0.1256
 6058SOL    HW122090   7.005   8.101   2.152  0.4320 -0.9405  0.2440
 6058SOL    HW222091   6.966   8.237   2.098 -1.3900 -0.9788  1.3765
 6059SOL     OW22092   7.180   4.601   4.361 -0.3033 -0.1848  0.3421
 6059SOL    HW122093   7.245   4.565   4.421  0.4587  1.2884  0.4466
 6059SOL    HW222094   7.166   4.532   4.296  2.4273 -0.0635 -0.4872
 6060SOL     OW22095   5.853   7.064   5.343 -0.3039  0.3213  0.3068
 6060SOL    HW122096   5.783   7.126   5.322 -0.0899 -0.2784 -2.5986
 6060SOL    HW222097   5.820   7.016   5.419 -1.8329  1.8915  0.6977
 6061SOL     OW22098   5.313   6.054   4.798 -0.0046  0.2737 -0.3930
 6061SOL    HW122099   5.276   6.138   4.825 -0.9602  0.0593 -0.9961
 6061SOL    HW222100   5.289   5.994   4.868  0.8496  0.5215  0.1377
 6062SOL     OW22101   7.284   8.289   4.911  0.0831 -0.2900 -0.3565
 6062SOL    HW122102   7.257   8.246   4.993  0.3289  0.0638 -0.0891
 6062SOL    HW222103   7.379   8.286   4.912  0.0910 -0.1263 -0.5469
 6063SOL     OW22104   1.917   1.639   1.561  0.2452 -0.3169  0.0109
 6063SOL    HW122105   1.963   1.720   1.538  0.1576 -0.3756 -0.3793
 6063SOL    HW222106   1.949   1.618   1.648 -1.3528  1.3196  1.0746
 6064SOL     OW22107   3.767   3.622   5.838 -0.5426 -0.0294 -0.4830
 6064SOL    HW122108   3.775   3.715   5.820 -1.4949  0.1701  0.0723
 6064SOL    HW222109   3.827   3.606   5.911  0.4998 -0.0983 -1.3316
 6065SOL     OW22110   5.246   0.517   2.524  0.1181 -0.1070 -0.3935
 6065SOL    HW122111   5.304   0.457   2.571  0.0160 -0.4210 -0.6669
 6065SOL    HW222112   5.275   0.512   2.433 -1.2366 -1.3500 -0.7957
 6066SOL     OW22113   4.878   5.978   7.150  0.8066 -0.3693 -0.2396
 6066SOL    HW122114   4.873   5.893   7.194  1.0654  0.6272  1.8022
 6066SOL    HW222115   4.950   6.024   7.194 -2.2014  2.6492  2.0153
 6067SOL     OW22116   4.488   2.532   9.380 -0.6839  0.5589 -0.6157
 6067SOL    HW122117   4.413   2.482   9.347 -1.6450  1.1365  0.5988
 6067SOL    HW222118   4.498   2.603   9.317 -0.7631  0.1225 -1.1278
 6068SOL     OW22119   9.697   9.855   5.658  0.2235  0.0206 -0.0647
 6068SOL    HW122120   9.701   9.769   5.698 -0.3797  1.5372  3.6179
 6068SOL    HW222121   9.786   9.890   5.664  0.1533  0.2255 -0.1845
 6069SOL     OW22122   8.805   6.807   6.133  0.2347 -0.0716  0.3845
 6069SOL    HW122123   8.777   6.783   6.045  0.8872 -1.0116  0.4242
 6069SOL    HW222124   8.899   6.789   6.134  0.0543 -1.0174  1.5813
 6070SOL     OW22125   0.314   7.805   6.428  0.3806 -0.6493  0.3274
 6070SOL    HW122126   0.386   7.851   6.386  0.0114  0.9224  1.3421
 6070SOL    HW222127   0.252   7.874   6.453 -2.2604 -1.9881 -1.8616
 6071SOL     OW22128   5.308   0.642   4.898 -0.0753  0.2211 -0.2088
 6071SOL    HW122129   5.347   0.558   4.874 -1.9863 -0.5330 -0.8839
 6071SOL    HW222130   5.270   0.676   4.817 -1.8259  0.3084  0.5905
 6072SOL     OW22131   6.603   0.280   8.838 -0.3987  0.2733  0.2360
 6072SOL    HW122132   6.672   0.216   8.820 -0.5828 -0.1758  1.0910
 6072SOL    HW222133   6.542   0.270   8.764  0.9370  1.3971 -1.0756
 6073SOL     OW22134   5.970   3.831   5.862  0.1498 -0.5102  0.4313
 6073SOL    HW122135   6.060   3.844   5.892  0.1414  0.1111  0.2063
 6073SOL    HW222136   5.937   3.759   5.916  0.5450 -0.2649  1.0135
 6074SOL     OW22137   5.550   7.726   1.768  0.4300  0.2178  0.4390
 6074SOL    HW122138   5.525   7.801   1.823 -0.0287  0.1904  0.2762
 6074SOL    HW222139   5.501   7.652   1.804 -0.1893  0.2796 -0.2406
 6075SOL     OW22140   2.229   7.910   4.059  0.1986 -1.0180  0.7564
 6075SOL    HW122141   2.184   7.918   3.975 -0.3062 -2.2148  0.8925
 6075SOL    HW222142   2.306   7.966   4.050 -0.0467 -0.8242 -0.3594
 6076SOL     OW22143   7.069   0.634   9.519 -0.1574 -0.1839  0.3440
 6076SOL    HW122144   7.155   0.593   9.505  0.4980  1.3356 -0.2160
 6076SOL    HW222145   7.052   0.621   9.613  1.7391  1.3876  0.9769
 6077SOL     OW22146   8.195   9.860   1.086  0.0964  0.0343  0.3068
 6077SOL    HW122147   8.125   9.896   1.141 -0.2952  0.1394 -0.2463
 6077SOL    HW222148   8.260   9.930   1.080  0.7244 -0.4150  1.6304
 6078SOL     OW22149   8.144   5.962   7.113 -0.3517  0.5186 -0.2471
 6078SOL    HW122150   8.050   5.957   7.099 -0.3038  0.4202 -0.5333
 6078SOL    HW222151   8.156   6.038   7.171 -0.7276 -0.2829  0.9040
 6079SOL     OW22152   3.612   1.953   3.372 -0.2054  0.6577  0.3856
 6079SOL    HW122153   3.624   2.022   3.308 -1.9675  1.9388  1.3516
 6079SOL    HW222154   3.522   1.924   3.359  0.1925 -0.7946  0.6695
 6080SOL     OW22155   1.412   9.799   9.765 -0.0911  0.6684  0.4848
 6080SOL    HW122156   1.504   9.786   9.788  0.4678  0.5048 -1.6139
 6080SOL    HW222157   1.381   9.712   9.741 -0.5682  0.8650  0.3804
 6081SOL     OW22158   5.527   2.925   6.188  0.4263  0.4656 -0.1701
 6081SOL    HW122159   5.553   2.880   6.108  1.0856  1.5852 -0.6061
 6081SOL    HW222160   5.433   2.906   6.197  0.5076 -0.2858 -0.7798
 6082SOL     OW22161   8.925   7.331   8.159 -0.0253 -0.0657 -0.6277
 6082SOL    HW122162   8.993   7.356   8.222 -0.6561 -1.1747  0.5289
 6082SOL    HW222163   8.972   7.285   8.090  0.2561 -2.5003  1.0798
 6083SOL     OW22164   3.755   9.605   4.884  0.4501 -0.1576 -0.8110
 6083SOL    HW122165   3.802   9.640   4.959 -0.4184 -0.2442 -0.2179
 6083SOL    HW222166   3.750   9.511   4.902  0.7181 -0.2582 -1.2512
 6084SOL     OW22167   2.038   9.304   6.041 -0.1618  0.8426 -0.0279
 6084SOL    HW122168   1.981   9.254   6.100 -0.6795 -0.2594 -1.4069
 6084SOL    HW222169   2.100   9.240   6.008  1.4805  1.8858  0.8940
 6085SOL     OW22170   1.203   0.622   6.082  0.2473  0.0762 -0.1965
 6085SOL    HW122171   1.254   0.701   6.101  0.3009  0.1970 -0.8098
 6085SOL    HW222172   1.165   0.597   6.166  1.8320 -0.3908  0.4135
 6086SOL     OW22173   1.414   2.388   6.547  0.2574  0.7803 -0.2755
 6086SOL    HW122174   1.490   2.438   6.577  0.2533  0.6274 -0.0068
 6086SOL    HW222175   1.351   2.454   6.517  0.8196  0.8769 -1.2747
 6087SOL     OW22176   8.457   1.835   8.961 -0.1500 -0.1747  0.0983
 6087SOL    HW122177   8.448   1.758   8.906  0.4197 -1.5279  1.7975
 6087SOL    HW222178   8.367   1.868   8.971 -0.3962 -0.6186 -0.6500
 6088SOL     OW22179   3.264   6.242   9.879  0.2372 -0.3088 -0.0238
 6088SOL    HW122180   3.267   6.151   9.849 -1.1811 -0.5956  0.6099
 6088SOL    HW222181   3.229   6.237   9.968 -0.6931  0.8955 -0.2829
 6089SOL     OW22182   1.328   2.056   5.229  0.4888  0.2939  0.0476
 6089SOL    HW122183   1.246   2.008   5.238 -0.0993  1.0715 -1.0110
 6089SOL    HW222184   1.339   2.102   5.312  0.0815 -0.1447  0.3482
 6090SOL     OW22185   4.666   4.241   3.379 -0.2075 -0.5862  0.0390
 6090SOL    HW122186   4.696   4.226   3.469 -0.8509  2.5826  0.9293
 6090SOL    HW222187   4.739   4.213   3.324  0.0736 -2.9200  1.4877
 6091SOL     OW22188   1.698   9.103   8.216 -0.2255  0.2928 -0.5791
 6091SOL    HW122189   1.674   9.183   8.169 -1.1527 -0.1099 -0.8152
 6091SOL    HW222190   1.718   9.040   8.147  0.4335  0.2857 -0.3933
 6092SOL     OW22191   1.901   7.494   6.316  0.4197  0.6582  0.4055
 6092SOL    HW122192   1.989   7.531   6.322  0.8865 -0.4995  0.9609
 6092SOL    HW222193   1.893   7.437   6.393 -0.3211 -0.2644 -0.3259
 6093SOL     OW22194   2.474   1.996   6.365 -0.0563  0.2764 -0.1290
 6093SOL    HW122195   2.383   2.025   6.362 -0.5071 -0.7184  2.0249
 6093SOL    HW222196   2.481   1.932   6.295 -2.0033 -2.0188  1.5845
 6094SOL     OW22197   3.225   9.205   5.136 -0.1174  0.1866  0.4384
 6094SOL    HW122198   3.185   9.119   5.150  0.5926 -0.2759 -0.3216
 6094SOL    HW222199   3.295   9.209   5.201 -0.5416  0.4463  0.8816
 6095SOL     OW22200   2.612   3.110   8.349  0.6044  0.6053 -0.1138
 6095SOL    HW122201   2.674   3.129   8.279  1.4795 -0.0456  0.4727
 6095SOL    HW222202   2.637   3.169   8.420  0.7618  0.1065  0.2449
 6096SOL     OW22203   6.023   8.459   8.849  0.2274 -0.2324 -0.2941
 6096SOL    HW122204   6.080   8.491   8.919  1.1111 -0.4498 -0.9033
 6096SOL    HW222205   5.973   8.536   8.822  1.3172  0.3283 -0.7789
 6097SOL     OW22206   1.904   0.923   8.314 -0.7538  0.1056 -0.4995
 6097SOL    HW122207   1.859   0.931   8.230  0.5590  1.6043 -1.0954
 6097SOL    HW222208   1.876   1.000   8.364  1.8886  1.7120 -1.2981
 6098SOL     OW22209   5.408   7.875   6.045 -0.6924 -0.2493 -0.1348
 6098SOL    HW122210   5.353   7.800   6.070 -0.6289 -0.1399  0.3508
 6098SOL    HW222211   5.477   7.876   6.111 -0.0910 -0.3948 -0.7574
 6099SOL     OW22212   3.668   7.368   8.904 -0.2589 -0.6963  0.0134
 6099SOL    HW122213   3.725   7.305   8.861 -0.9571 -0.4552 -1.3306
 6099SOL    HW222214   3.707   7.381   8.990  1.2669 -1.0996 -0.5858
 6100SOL     OW22215   9.792  10.125   8.995  0.1724 -0.2852 -0.0228
 6100SOL    HW122216   9.841  10.054   8.955 -0.1503 -1.5546  1.7241
 6100SOL    HW222217   9.701  10.108   8.971 -0.2020 -1.8536  2.2769
 6101SOL     OW22218   3.303   8.754   3.919 -0.5690  0.2061  0.1664
 6101SOL    HW122219   3.393   8.750   3.950 -0.1082 -0.1954 -1.1342
 6101SOL    HW222220   3.267   8.667   3.939 -1.0615  0.7417  1.7355
 6102SOL     OW22221   1.041   1.575   4.418 -0.2330  0.1755  0.3578
 6102SOL    HW122222   0.974   1.636   4.386 -1.2000  0.3830  2.6008
 6102SOL    HW222223   1.038   1.584   4.513  2.2928 -0.6051  0.5673
 6103SOL     OW22224   0.036   7.303   1.875 -0.3732  0.7524 -0.1265
 6103SOL    HW122225   0.084   7.331   1.953 -0.0276  2.2136 -0.8335
 6103SOL    HW222226  -0.036   7.250   1.909 -0.7032  2.0370  1.2646
 6104SOL     OW22227   9.310   9.245   9.252 -0.2442  0.5182  0.2367
 6104SOL    HW122228   9.393   9.201   9.272 -0.1805 -0.6497 -2.2367
 6104SOL    HW222229   9.336   9.329   9.215  0.1523 -1.0841 -3.5841
 6105SOL     OW22230   9.593   0.157   6.986 -0.0330  0.1917  0.1444
 6105SOL    HW122231   9.506   0.120   7.000  1.0772 -2.9942 -0.4479
 6105SOL    HW222232   9.632   0.162   7.073 -0.3030  0.1835  0.2638
 6106SOL     OW22233   7.465   7.606   3.379  0.2323 -0.0001  0.3693
 6106SOL    HW122234   7.414   7.672   3.331  0.7523  0.0993 -0.0489
 6106SOL    HW222235   7.547   7.599   3.331  1.3877  1.1879  2.0481
 6107SOL     OW22236   9.421   7.750   8.489  0.2317 -0.0892 -0.7406
 6107SOL    HW122237   9.370   7.687   8.438 -0.7545  0.8611 -0.9546
 6107SOL    HW222238   9.507   7.751   8.447  0.0929 -0.8847 -1.0619
 6108SOL     OW22239   9.199   1.055   3.443  0.0311  0.2821 -0.0442
 6108SOL    HW122240   9.224   1.124   3.504  0.3801  0.7014 -0.6445
 6108SOL    HW222241   9.277   1.000   3.435  0.4155  0.9450 -1.0550
 6109SOL     OW22242   1.869   9.719   4.261 -0.7501  0.0595 -0.4337
 6109SOL    HW122243   1.816   9.674   4.328  0.9320  0.5078  1.3014
 6109SOL    HW222244   1.917   9.649   4.218  0.0859 -0.0619  0.6432
 6110SOL     OW22245   1.111   3.634   3.324  0.1105  1.0152  0.0057
 6110SOL    HW122246   1.024   3.597   3.337  0.6686 -0.3111  0.1277
 6110SOL    HW222247   1.095   3.721   3.288 -1.2531  0.4925 -0.7189
 6111SOL     OW22248   3.626   3.436   0.027  0.5372 -0.0806  0.4099
 6111SOL    HW122249   3.714   3.403   0.008  0.2291 -0.9049  0.3699
 6111SOL    HW222250   3.571   3.357   0.028 -0.1540  0.4012  0.6877
 6112SOL     OW22251   8.038   5.688   5.817  0.4403 -0.6245  0.5401
 6112SOL    HW122252   7.968   5.718   5.760 -0.4540 -0.8448  1.4888
 6112SOL    HW222253   8.075   5.612   5.772  1.1561  0.4343 -0.7326
 6113SOL     OW22254   7.809   3.769   3.997 -0.1173 -0.4271 -0.3690
 6113SOL    HW122255   7.778   3.699   4.055 -1.1612  0.3721  0.0811
 6113SOL    HW222256   7.904   3.758   3.995 -0.0717 -0.6770  1.2812
 6114SOL     OW22257   2.891   0.164   0.254  0.3755  0.7423 -0.8170
 6114SOL    HW122258   2.962   0.189   0.314 -0.3290 -0.4278  0.5871
 6114SOL    HW222259   2.936   0.121   0.181  1.1754  0.7466 -0.3473
 6115SOL     OW22260   5.199   6.367   3.848 -0.1745 -0.2709 -0.0572
 6115SOL    HW122261   5.177   6.460   3.849 -0.2315 -0.2640  1.4306
 6115SOL    HW222262   5.130   6.326   3.902  1.2585 -0.7892  1.4731
 6116SOL     OW22263   7.781   1.547   1.085  0.1338 -0.1080 -0.2692
 6116SOL    HW122264   7.740   1.589   1.161  2.6494  0.1797  1.0302
 6116SOL    HW222265   7.785   1.616   1.020  2.5132  1.2486  1.1888
 6117SOL     OW22266   5.772   9.060   4.535  0.4831 -0.5740 -0.1193
 6117SOL    HW122267   5.705   9.059   4.466 -0.0711 -0.7862  0.4084
 6117SOL    HW222268   5.841   9.001   4.503 -0.1924 -1.4040 -0.0937
 6118SOL     OW22269   4.056   3.361   8.403  0.6739 -0.1768  0.4961
 6118SOL    HW122270   4.005   3.336   8.480  1.1262  0.6947  1.1030
 6118SOL    HW222271   4.056   3.284   8.347 -3.0682  0.3824 -0.5159
 6119SOL     OW22272   4.917   3.363   4.359  0.2789  0.6694 -0.7647
 6119SOL    HW122273   4.989   3.313   4.322  0.1739  0.2857 -0.4584
 6119SOL    HW222274   4.857   3.376   4.285 -0.7025 -1.4609 -0.4386
 6120SOL     OW22275   8.509   4.504   0.003 -0.1817 -0.6274 -0.5899
 6120SOL    HW122276   8.574   4.448  -0.041 -0.0286  0.1531 -1.4084
 6120SOL    HW222277   8.449   4.530  -0.067  0.6378  1.4622 -0.6057
 6121SOL     OW22278   7.513   4.148   9.864  0.5122 -0.0211 -0.0967
 6121SOL    HW122279   7.444   4.082   9.875  2.6894 -2.4360  0.1325
 6121SOL    HW222280   7.543   4.166   9.953 -0.0494  1.3264 -0.1585
 6122SOL     OW22281   9.003   7.034   0.725  0.4667  0.4858 -0.3306
 6122SOL    HW122282   8.947   7.108   0.751  1.7672  0.9749  1.2222
 6122SOL    HW222283   8.987   7.024   0.631 -1.4677  1.2364 -0.1287
 6123SOL     OW22284   3.742   6.162   5.225  0.0606  0.2436  0.6711
 6123SOL    HW122285   3.661   6.212   5.236  0.5661  1.9544 -2.2458
 6123SOL    HW222286   3.716   6.086   5.173  0.2082  0.5075  0.2036
 6124SOL     OW22287   9.501   7.967   7.656  0.1652 -0.0687  0.5078
 6124SOL    HW122288   9.409   7.979   7.680  0.3746  0.9372  0.8192
 6124SOL    HW222289   9.503   7.985   7.562  0.2398  1.0562  0.7185
 6125SOL     OW22290  10.044   2.863   2.423 -0.6202 -0.0567 -0.0467
 6125SOL    HW122291   9.973   2.812   2.463  0.7105 -0.5423  1.8224
 6125SOL    HW222292  10.008   2.892   2.340 -3.2230  0.1638  1.0478
 6126SOL     OW22293   3.442   3.654   7.154  0.0624  0.0622 -0.0303
 6126SOL    HW122294   3.424   3.635   7.246  0.1326  0.0365 -0.0211
 6126SOL    HW222295   3.510   3.721   7.157 -0.7856  0.9381 -0.0558
 6127SOL     OW22296   4.342   0.285   6.518  0.1241 -0.1513 -0.9126
 6127SOL    HW122297   4.259   0.312   6.478 -0.1474 -0.5936 -0.6546
 6127SOL    HW222298   4.374   0.365   6.561 -1.1548 -0.4309  0.6646
 6128SOL     OW22299   2.023   6.240   3.058 -0.1258 -0.1301  0.1265
 6128SOL    HW122300   1.950   6.219   2.999 -0.1429  0.1924  0.0283
 6128SOL    HW222301   2.085   6.168   3.046 -0.5024 -0.4979  0.3397
 6129SOL     OW22302  10.111   9.695   1.772  0.2217  0.0320  0.2930
 6129SOL    HW122303  10.190   9.657   1.809  0.0160 -0.3436  0.3398
 6129SOL    HW222304  10.102   9.654   1.686  0.2816  0.3475  0.1350
 6130SOL     OW22305   7.302   6.230   8.374  0.0584  0.2926 -0.3621
 6130SOL    HW122306   7.213   6.211   8.404  0.0021  0.6699 -0.2878
 6130SOL    HW222307   7.304   6.325   8.361 -0.1567  0.0738 -2.3031
 6131SOL     OW22308   2.456   0.386   8.182  0.4295  0.1341 -0.1466
 6131SOL    HW122309   2.462   0.303   8.134  1.4043  0.3655 -0.4377
 6131SOL    HW222310   2.531   0.437   8.152 -0.7229  1.5475 -0.7471
 6132SOL     OW22311   6.782   7.155   2.515  0.6694 -0.7566  0.2744
 6132SOL    HW122312   6.807   7.073   2.471  0.7031  0.0914 -1.3330
 6132SOL    HW222313   6.688   7.145   2.532  0.7711 -1.3229  0.5279
 6133SOL     OW22314   9.723   1.762   5.754  0.0774  0.9438  0.1436
 6133SOL    HW122315   9.792   1.828   5.767  0.6443  0.3841  0.0357
 6133SOL    HW222316   9.645   1.802   5.791  0.5655  1.3968  0.7164
 6134SOL     OW22317   5.107   9.752   3.066 -0.1733  0.3230 -0.0812
 6134SOL    HW122318   5.089   9.677   3.010  1.1078  0.1595 -0.2932
 6134SOL    HW222319   5.150   9.715   3.143 -0.9314  0.6759  0.5323
 6135SOL     OW22320   1.598   3.757   2.458 -0.0888  0.5625  0.0460
 6135SOL    HW122321   1.570   3.848   2.467  0.3625  0.6892  0.1863
 6135SOL    HW222322   1.517   3.709   2.438 -0.1774  1.1368 -1.0760
 6136SOL     OW22323   4.196   4.061   4.908 -0.2587  0.4031 -0.0288
 6136SOL    HW122324   4.290   4.075   4.897 -0.2047  1.2819  1.2847
 6136SOL    HW222325   4.183   3.968   4.890  0.6645  0.5237 -1.4128
 6137SOL     OW22326   4.785   8.389   0.663 -0.2054 -0.6823  0.4185
 6137SOL    HW122327   4.747   8.340   0.737  2.9379 -0.3042  2.4524
 6137SOL    HW222328   4.862   8.339   0.638 -0.0821  0.3111 -1.3175
 6138SOL     OW22329   0.494   6.920   7.539  0.1773 -0.0039  0.0026
 6138SOL    HW122330   0.480   6.934   7.445 -0.2129  0.9552  0.1918
 6138SOL    HW222331   0.534   7.001   7.569 -2.3744  0.9031  1.2143
 6139SOL     OW22332   6.113   7.704   1.640  0.1241 -0.3419 -0.0963
 6139SOL    HW122333   6.109   7.792   1.603  2.3231 -0.3332 -0.4659
 6139SOL    HW222334   6.123   7.718   1.734  2.8398 -0.0350 -0.3491
 6140SOL     OW22335   1.213   7.466   8.891  0.0055  0.0408 -0.2966
 6140SOL    HW122336   1.286   7.405   8.902 -0.2706 -0.1034  0.9064
 6140SOL    HW222337   1.170   7.467   8.976  0.3066  2.3131 -0.1060
 6141SOL     OW22338   6.524   2.996   3.500 -0.4191  0.1156 -0.4593
 6141SOL    HW122339   6.515   2.982   3.406  0.7063 -1.0468 -0.4269
 6141SOL    HW222340   6.513   2.909   3.538  0.9278  0.2498  0.3037
 6142SOL     OW22341   3.346   7.811   4.421 -0.2385  0.1090  1.0375
 6142SOL    HW122342   3.259   7.773   4.412  0.1337 -0.2024 -2.2861
 6142SOL    HW222343   3.386   7.800   4.335  2.1247  2.6220  1.6886
 6143SOL     OW22344   0.511   0.367   4.741  0.0536  0.0617 -0.1707
 6143SOL    HW122345   0.463   0.286   4.723  0.9545 -0.8805  1.4351
 6143SOL    HW222346   0.556   0.350   4.823  0.7918  1.9826 -0.1352
 6144SOL     OW22347   5.407   0.134   2.211  0.0418 -0.4685 -0.2759
 6144SOL    HW122348   5.424   0.194   2.284  0.2706  1.4633 -1.8447
 6144SOL    HW222349   5.324   0.093   2.234 -0.4394  0.8967  0.5936
 6145SOL     OW22350   0.757   8.094   5.977  0.8528  0.5583  0.5825
 6145SOL    HW122351   0.755   8.003   5.948  3.0330  0.2154  1.3114
 6145SOL    HW222352   0.667   8.113   6.003  0.2931 -1.2796  0.1155
 6146SOL     OW22353   5.175   3.182   7.255 -0.4154 -0.2966  0.4949
 6146SOL    HW122354   5.155   3.270   7.288 -2.2176 -0.0452 -1.1159
 6146SOL    HW222355   5.211   3.197   7.168  0.3965 -1.1347  0.6657
 6147SOL     OW22356   9.010   5.981   2.049  0.9896  0.0727 -0.0691
 6147SOL    HW122357   9.102   5.956   2.061  0.6673 -1.1177  0.0257
 6147SOL    HW222358   8.969   5.965   2.134  0.8035  1.1602  0.0595
 6148SOL     OW22359   7.857   9.819   2.940 -0.6985 -0.5221  0.7077
 6148SOL    HW122360   7.803   9.772   2.877 -0.7743  1.0559 -0.4691
 6148SOL    HW222361   7.938   9.837   2.894 -1.1894  1.6799  0.5802
 6149SOL     OW22362   9.778   6.052   8.152 -0.1106 -0.3402 -0.3903
 6149SOL    HW122363   9.721   6.125   8.131  0.2423 -0.3193 -1.3220
 6149SOL    HW222364   9.733   5.974   8.119 -0.1704 -0.4660 -0.0183
 6150SOL     OW22365   4.175   6.856   7.777 -0.2729 -0.5355  0.1510
 6150SOL    HW122366   4.154   6.856   7.684  1.0943 -0.6491 -0.1724
 6150SOL    HW222367   4.181   6.949   7.800  0.7774 -0.4948 -0.2222
 6151SOL     OW22368   2.324   3.422   8.568  0.0192  0.7058  0.2655
 6151SOL    HW122369   2.322   3.327   8.556  1.0789  0.5741  0.8999
 6151SOL    HW222370   2.236   3.445   8.597 -0.1988 -0.1138  0.2701
 6152SOL     OW22371   6.141   4.657   6.288 -0.1495 -0.5695  0.3788
 6152SOL    HW122372   6.070   4.716   6.262  0.8494 -0.1621 -1.6220
 6152SOL    HW222373   6.176   4.695   6.369 -1.8917 -0.5524  1.1719
 6153SOL     OW22374   5.211   0.994   6.458 -0.4041 -0.1127 -0.2359
 6153SOL    HW122375   5.250   1.029   6.378 -0.2255  3.3724  1.1921
 6153SOL    HW222376   5.120   1.024   6.455 -0.5342 -0.4032  0.6068
 6154SOL     OW22377   2.990   6.662   0.217  0.1205 -0.1239 -0.1594
 6154SOL    HW122378   3.018   6.572   0.199  1.5191  0.0940  0.7257
 6154SOL    HW222379   2.977   6.701   0.130  0.2513 -0.9579 -0.5656
 6155SOL     OW22380   6.368   5.320   7.649 -0.2180 -0.0329  0.1478
 6155SOL    HW122381   6.338   5.411   7.657 -0.4221  0.1211 -1.8132
 6155SOL    HW222382   6.294   5.273   7.612 -0.9849 -1.6106  3.4019
 6156SOL     OW22383   7.523   2.204   3.524 -0.0400  0.1416  0.4978
 6156SOL    HW122384   7.545   2.131   3.467 -1.2402  0.3780 -0.3162
 6156SOL    HW222385   7.561   2.181   3.609  0.3595 -0.9967  0.0273
 6157SOL     OW22386   2.574   0.038   9.715 -0.4908 -0.2927  0.5797
 6157SOL    HW122387   2.493  -0.012   9.708  0.1587 -1.2902 -0.0681
 6157SOL    HW222388   2.549   0.128   9.694 -1.5067 -0.4994  0.8528
 6158SOL     OW22389   3.818   4.728  10.025 -0.2875  0.1374 -0.0223
 6158SOL    HW122390   3.760   4.652  10.025  0.4909 -0.5326  2.1032
 6158SOL    HW222391   3.905   4.691  10.014 -0.0351  0.8982 -0.6380
 6159SOL     OW22392   6.804   7.783   1.654  0.6068 -0.0308  0.0478
 6159SOL    HW122393   6.822   7.874   1.628 -2.5875  0.7822  0.3355
 6159SOL    HW222394   6.724   7.760   1.608  0.4763 -2.1920  1.2144
 6160SOL     OW22395   4.191   7.690   0.913 -0.0549 -0.4977 -0.2440
 6160SOL    HW122396   4.151   7.628   0.853 -1.2260 -0.8897  0.8961
 6160SOL    HW222397   4.280   7.656   0.926 -0.2255 -1.1457 -0.7258
 6161SOL     OW22398   1.237   3.091   7.805 -0.2257  0.6233 -0.0290
 6161SOL    HW122399   1.243   3.179   7.769 -1.2571  0.7491  0.0820
 6161SOL    HW222400   1.322   3.075   7.845 -0.7644  2.4737  2.0118
 6162SOL     OW22401   0.019   8.956   4.812 -0.1935  0.0685 -0.1205
 6162SOL    HW122402   0.085   8.971   4.879  1.4197 -0.6680 -1.4738
 6162SOL    HW222403   0.015   9.038   4.763 -0.4768  0.1864  0.0936
 6163SOL     OW22404   1.907   0.558   6.272 -0.1527 -0.5770 -0.2634
 6163SOL    HW122405   1.893   0.536   6.364 -1.2542 -1.4445 -0.6049
 6163SOL    HW222406   1.848   0.631   6.255  2.4221  1.8443  0.4893
 6164SOL     OW22407   3.824   3.459   4.093  0.0470 -0.3953 -0.4565
 6164SOL    HW122408   3.818   3.368   4.066  2.3594 -1.0841  1.1107
 6164SOL    HW222409   3.898   3.462   4.154 -0.9437  2.2410  0.7781
 6165SOL     OW22410   4.715   6.017   2.182 -0.4711 -0.8971  0.5026
 6165SOL    HW122411   4.727   6.111   2.173 -1.2353 -0.9670 -2.0128
 6165SOL    HW222412   4.631   6.007   2.227  0.2539 -0.4250  2.0238
 6166SOL     OW22413   0.388   9.223   4.915  0.5414 -0.3616 -0.2256
 6166SOL    HW122414   0.430   9.251   4.834 -1.0928  1.9238 -0.4052
 6166SOL    HW222415   0.449   9.248   4.984  1.0197 -0.3289 -0.6586
 6167SOL     OW22416   6.664   1.524   9.286  0.0673 -0.0918 -0.0083
 6167SOL    HW122417   6.682   1.448   9.231 -1.5426 -0.5715  0.0763
 6167SOL    HW222418   6.704   1.503   9.370 -0.1556 -0.7524 -0.0610
 6168SOL     OW22419   1.283   6.588   1.429 -0.0704 -0.1588  0.0378
 6168SOL    HW122420   1.289   6.683   1.425 -0.1766 -0.1762 -0.7620
 6168SOL    HW222421   1.319   6.565   1.515  0.9392  0.5198 -0.1885
 6169SOL     OW22422   8.571   5.955   0.128  0.4156 -0.0477 -0.5181
 6169SOL    HW122423   8.500   5.964   0.065 -0.0375 -1.3149 -0.2195
 6169SOL    HW222424   8.560   5.867   0.164  2.7714 -0.7319 -1.2582
 6170SOL     OW22425   7.193   3.110   0.469  0.1291 -0.2035  0.0802
 6170SOL    HW122426   7.137   3.164   0.525 -0.7479  0.8489 -1.7250
 6170SOL    HW222427   7.133   3.068   0.407  1.1573 -0.3288 -0.8808
 6171SOL     OW22428   1.169   8.212   6.197 -0.2775 -0.7266 -0.1467
 6171SOL    HW122429   1.115   8.138   6.172 -0.9737 -0.2890  0.0132
 6171SOL    HW222430   1.107   8.285   6.206  0.0076 -0.6955  2.1324
 6172SOL     OW22431   2.305   5.921   1.060 -0.0368 -0.1592 -0.0272
 6172SOL    HW122432   2.360   5.865   1.005  0.3134 -0.2748  0.4388
 6172SOL    HW222433   2.356   6.002   1.071  0.4359 -0.5898  1.1132
 6173SOL     OW22434   5.189   3.239   1.006 -0.4221  0.5631  0.1512
 6173SOL    HW122435   5.205   3.191   0.925  0.5507  0.1032  0.5972
 6173SOL    HW222436   5.144   3.318   0.978  2.0091  1.6056 -1.1579
 6174SOL     OW22437   7.463   8.000   3.859  0.2509  0.0247  0.8155
 6174SOL    HW122438   7.374   8.031   3.841  0.1248 -0.7021  0.1700
 6174SOL    HW222439   7.471   7.919   3.810  0.6888 -0.8207  2.2316
 6175SOL     OW22440   0.687   0.175   6.695 -0.1354  0.1256 -0.2492
 6175SOL    HW122441   0.709   0.090   6.732  0.0331  0.5215  0.6004
 6175SOL    HW222442   0.623   0.157   6.627  1.7735 -0.9568 -1.8873
 6176SOL     OW22443   7.492   4.071   0.642 -0.1822  0.1021  0.4161
 6176SOL    HW122444   7.459   4.018   0.571 -1.6984  1.9443 -0.3415
 6176SOL    HW222445   7.438   4.150   0.641  1.1410  1.1312  2.2525
 6177SOL     OW22446   1.257   1.514   9.968 -0.3626 -0.0813  0.1869
 6177SOL    HW122447   1.235   1.605   9.989 -0.1750 -0.0929  0.4301
 6177SOL    HW222448   1.307   1.520   9.887 -1.4399 -0.0701 -0.5096
 6178SOL     OW22449   8.459   6.593   1.958  0.1952  0.0651  0.6106
 6178SOL    HW122450   8.539   6.546   1.984 -0.3815 -0.8384  0.7901
 6178SOL    HW222451   8.446   6.658   2.027  1.5242  1.1582 -0.1199
 6179SOL     OW22452   8.004   6.944   7.508 -0.1436 -0.7198 -0.1784
 6179SOL    HW122453   7.958   7.021   7.541  0.5030 -0.5982  0.4708
 6179SOL    HW222454   8.023   6.965   7.416 -2.2557 -1.2036 -0.7601
 6180SOL     OW22455   9.447   6.557   6.824  0.4192 -0.5975  0.4500
 6180SOL    HW122456   9.357   6.530   6.839  0.8404 -1.4748  1.4568
 6180SOL    HW222457   9.465   6.529   6.734  0.1234 -1.6491  0.7052
 6181SOL     OW22458   8.188   7.373   5.544 -0.1306  0.4219  0.2453
 6181SOL    HW122459   8.260   7.416   5.590  1.4863  0.0427 -1.7602
 6181SOL    HW222460   8.160   7.438   5.479 -3.7185  1.7360  2.8016
 6182SOL     OW22461   5.033   9.588   5.413  0.9451  0.6220 -0.1563
 6182SOL    HW122462   5.066   9.665   5.368 -0.4888  1.0650 -0.5021
 6182SOL    HW222463   5.015   9.525   5.343 -0.2424  0.9080 -0.1298
 6183SOL     OW22464   0.580   3.667   1.577 -0.0350  0.2716 -0.5480
 6183SOL    HW122465   0.600   3.706   1.662 -3.2412 -0.7299  0.8091
 6183SOL    HW222466   0.561   3.742   1.520  0.0392  0.8916  0.2289
 6184SOL     OW22467   6.723   9.419   3.253 -0.6574  0.0350 -0.3510
 6184SOL    HW122468   6.699   9.504   3.217  1.6914  0.6326 -0.6738
 6184SOL    HW222469   6.774   9.439   3.332  0.3560 -1.0079 -0.7056
 6185SOL     OW22470   6.002   3.172   2.213 -0.3201 -0.2365  0.5644
 6185SOL    HW122471   6.092   3.139   2.210 -0.1994  0.1465 -1.2724
 6185SOL    HW222472   6.003   3.238   2.282  1.9243  2.6910 -1.9818
 6186SOL     OW22473   8.700   0.705   0.118 -0.1017  0.9059 -0.2243
 6186SOL    HW122474   8.708   0.776   0.182  0.2257 -0.8213  1.7626
 6186SOL    HW222475   8.652   0.744   0.045  0.2626  3.2145  0.6830
 6187SOL     OW22476   4.987   9.816   1.399  0.1582  1.0070 -0.0324
 6187SOL    HW122477   5.013   9.749   1.462 -0.8928 -0.2077 -0.8470
 6187SOL    HW222478   5.004   9.778   1.313 -1.5305  1.2754 -0.5419
 6188SOL     OW22479   6.129   1.954   0.182  0.0561 -0.8119 -0.0300
 6188SOL    HW122480   6.107   1.862   0.172 -0.4818 -0.7597  0.6152
 6188SOL    HW222481   6.224   1.954   0.199  0.1086 -1.2191 -0.2999
 6189SOL     OW22482   4.451   5.698   1.716  0.3197 -0.2617 -0.2495
 6189SOL    HW122483   4.474   5.791   1.718  0.3687 -0.2894  1.0637
 6189SOL    HW222484   4.487   5.662   1.797 -4.4518 -0.2813  2.2247
 6190SOL     OW22485   7.404   7.924   5.919  0.2062  0.0868 -0.4300
 6190SOL    HW122486   7.371   7.843   5.959 -1.5534  0.4737 -1.0157
 6190SOL    HW222487   7.425   7.980   5.993  0.1633 -0.4140 -0.0272
 6191SOL     OW22488   9.242   6.071   3.295 -1.0657  0.5532  0.3357
 6191SOL    HW122489   9.204   5.999   3.345  1.2982 -2.4900 -1.8938
 6191SOL    HW222490   9.233   6.045   3.204  1.9600  1.9113 -0.4805
 6192SOL     OW22491   1.639   5.440   6.031 -0.3264 -0.6838 -0.0952
 6192SOL    HW122492   1.576   5.371   6.011  0.0747 -1.5986  1.6110
 6192SOL    HW222493   1.724   5.396   6.028  0.0689  0.0766 -0.3555
 6193SOL     OW22494   5.044   0.791   5.414 -0.0414  0.4414 -0.1264
 6193SOL    HW122495   5.103   0.755   5.348  0.1033  0.9348 -0.2712
 6193SOL    HW222496   5.088   0.775   5.498 -0.0935  0.0670 -0.1705
 6194SOL     OW22497   2.274   2.364   8.316  0.4349 -0.2285  0.1504
 6194SOL    HW122498   2.259   2.456   8.339  1.2861  0.0691 -0.4422
 6194SOL    HW222499   2.186   2.329   8.300 -0.0445  0.0197  1.9989
 6195SOL     OW22500   3.060   0.238   4.456 -0.0201 -0.2789  0.3058
 6195SOL    HW122501   3.042   0.263   4.547  1.4483 -1.5849  0.9939
 6195SOL    HW222502   2.980   0.263   4.409 -1.3859 -0.8039  2.1967
 6196SOL     OW22503   5.052   9.194   7.646  0.0606 -0.1962 -0.1648
 6196SOL    HW122504   5.052   9.102   7.674  1.4864  0.1737  1.1599
 6196SOL    HW222505   5.064   9.189   7.551 -0.5369 -1.3855 -0.2054
 6197SOL     OW22506   2.234   5.233   0.643  0.8433  0.3134  0.0164
 6197SOL    HW122507   2.270   5.145   0.645  0.2489  0.0737  0.5511
 6197SOL    HW222508   2.279   5.276   0.570 -0.4045 -1.1075 -1.6913
 6198SOL     OW22509   6.708   6.334  10.032  0.7197 -0.3820  0.2933
 6198SOL    HW122510   6.769   6.382   9.976 -0.0271  0.0447 -0.1685
 6198SOL    HW222511   6.644   6.297   9.972 -0.2627  0.3229  0.8754
 6199SOL     OW22512   0.096   9.629   1.335  0.0068 -0.3120 -0.1337
 6199SOL    HW122513   0.085   9.701   1.397 -0.5838  0.4671 -1.1261
 6199SOL    HW222514   0.013   9.581   1.339 -0.1909 -0.0193 -0.6074
 6200SOL     OW22515   8.915   7.809   7.902  0.0114  0.3042  0.7281
 6200SOL    HW122516   8.980   7.794   7.972  0.5026 -0.7689  0.0747
 6200SOL    HW222517   8.964   7.794   7.821 -1.1579 -1.0724  0.2332
 6201SOL     OW22518   4.218   4.314   8.998  0.4204 -0.3204 -0.4599
 6201SOL    HW122519   4.245   4.238   8.947  1.6539 -1.1208  1.2950
 6201SOL    HW222520   4.241   4.292   9.088  1.1330  2.2668  0.0619
 6202SOL     OW22521   2.621   2.994   3.355  0.2607 -0.7610 -0.5609
 6202SOL    HW122522   2.701   3.039   3.327 -0.2857  0.6486  0.0424
 6202SOL    HW222523   2.552   3.059   3.344 -0.4635 -1.2280  0.9286
 6203SOL     OW22524   1.965   1.449   3.864 -0.2076  0.9114 -0.4655
 6203SOL    HW122525   1.987   1.357   3.850  1.6860  1.1579  0.4984
 6203SOL    HW222526   1.904   1.447   3.938 -0.3380  0.4165 -0.5803
 6204SOL     OW22527   2.446   8.950   0.095  0.3236  0.3122 -0.5741
 6204SOL    HW122528   2.440   8.870   0.042  0.3648  0.6341 -1.0727
 6204SOL    HW222529   2.485   8.922   0.177  2.5707  0.2181 -1.6064
 6205SOL     OW22530   3.804   1.603   7.958 -0.1790 -0.4668  0.6422
 6205SOL    HW122531   3.712   1.626   7.957 -0.0553  0.1129 -0.9612
 6205SOL    HW222532   3.828   1.601   8.050 -1.1606  1.9557  1.0276
 6206SOL     OW22533   0.743   6.803   7.542 -0.0201  0.1295  0.1976
 6206SOL    HW122534   0.749   6.772   7.452  0.4139  1.7019 -0.3435
 6206SOL    HW222535   0.663   6.856   7.544  0.0987  0.2997  0.6727
 6207SOL     OW22536   8.100   7.734   2.217  0.1926 -0.1057 -0.5527
 6207SOL    HW122537   8.144   7.649   2.208 -1.2472 -0.9391  0.0579
 6207SOL    HW222538   8.069   7.736   2.307 -2.4499 -0.2866 -1.3796
 6208SOL     OW22539   0.456   6.692   1.312 -0.5034  0.3772 -0.0730
 6208SOL    HW122540   0.540   6.680   1.357 -0.4724  1.6950  0.2510
 6208SOL    HW222541   0.481   6.710   1.221 -0.3048  2.6334  0.3785
 6209SOL     OW22542   5.770   3.356   0.647  0.3983 -0.0935  0.0366
 6209SOL    HW122543   5.749   3.447   0.625 -0.8613 -0.7611 -1.7268
 6209SOL    HW222544   5.754   3.350   0.741  0.1583  1.4183  0.1136
 6210SOL     OW22545   9.794   5.532   6.444 -0.0846 -0.5399  0.1610
 6210SOL    HW122546   9.870   5.544   6.387  0.7074 -0.8893  1.1107
 6210SOL    HW222547   9.811   5.451   6.491 -1.4381 -1.0503 -0.1716
 6211SOL     OW22548   2.459   9.065   3.973  0.1674  0.6899  0.0906
 6211SOL    HW122549   2.548   9.084   3.944  0.5649 -2.7538 -1.4024
 6211SOL    HW222550   2.471   9.021   4.058 -0.1597  0.7067  0.1461
 6212SOL     OW22551   2.776   5.057   0.292  0.6948  0.1780 -0.5536
 6212SOL    HW122552   2.822   5.055   0.375 -0.0618  0.0245 -0.1339
 6212SOL    HW222553   2.824   4.995   0.236 -1.0655 -2.7733  0.9801
 6213SOL     OW22554   6.738   8.863   5.387 -0.1312 -0.5357  0.1594
 6213SOL    HW122555   6.647   8.842   5.369 -0.4087  0.2347  0.6277
 6213SOL    HW222556   6.764   8.802   5.456 -0.1981 -0.9415 -0.1671
 6214SOL     OW22557  10.202   6.332   6.526  0.3837  0.2667  0.2993
 6214SOL    HW122558  10.113   6.301   6.544  0.1745  0.9346  0.4511
 6214SOL    HW222559  10.190   6.423   6.499  0.8470 -0.1547 -1.4843
 6215SOL     OW22560   0.938   3.881   3.497 -0.3003  0.0741 -0.5196
 6215SOL    HW122561   0.952   3.888   3.402 -2.0037  1.5665 -0.7115
 6215SOL    HW222562   0.883   3.803   3.507 -0.4039  0.1132 -0.7790
 6216SOL     OW22563   1.088   7.898   0.146 -0.1943  0.3542  0.3753
 6216SOL    HW122564   1.101   7.892   0.240  0.6969  0.7345  0.2847
 6216SOL    HW222565   1.020   7.833   0.127 -1.1975  1.0598  1.4284
 6217SOL     OW22566   6.772   0.660   0.570 -0.4794  0.1644  0.1055
 6217SOL    HW122567   6.816   0.692   0.491 -0.3077  0.7861  0.4414
 6217SOL    HW222568   6.839   0.664   0.638  0.2542 -3.1377 -0.2709
 6218SOL     OW22569   7.578   9.834   8.589  0.1935 -0.6045 -0.5310
 6218SOL    HW122570   7.515   9.851   8.659 -1.2007 -1.3725 -1.5568
 6218SOL    HW222571   7.623   9.918   8.577 -1.6053  0.3919 -0.6913
 6219SOL     OW22572   4.685   6.034   8.360 -0.2963 -0.0687  0.3410
 6219SOL    HW122573   4.647   5.954   8.322 -0.3187  0.3392 -0.5207
 6219SOL    HW222574   4.769   6.006   8.397 -1.2476 -0.9256  1.9966
 6220SOL     OW22575   4.659   6.648   7.265 -0.2717  1.1058 -0.1075
 6220SOL    HW122576   4.622   6.600   7.191  1.6878 -0.1472 -0.3579
 6220SOL    HW222577   4.655   6.587   7.338  0.4773  1.2448  0.0621
 6221SOL     OW22578   9.896   9.144   3.793  0.1212 -0.0782  0.1400
 6221SOL    HW122579   9.982   9.103   3.792  0.0727 -0.1856  0.2681
 6221SOL    HW222580   9.846   9.094   3.859  0.3061  0.6886  0.8788
 6222SOL     OW22581   4.807   5.929   0.086 -0.1087 -0.4067  0.5122
 6222SOL    HW122582   4.856   5.945   0.166  1.1020  0.4916 -0.3749
 6222SOL    HW222583   4.753   5.851   0.106 -1.7751  1.2328  3.0011
 6223SOL     OW22584   4.841   3.609   3.108  0.6050  0.3598  0.0462
 6223SOL    HW122585   4.794   3.689   3.086 -1.1760 -0.2254  1.4954
 6223SOL    HW222586   4.918   3.640   3.157  0.0653  1.2143  0.3878
 6224SOL     OW22587   4.317   8.856   8.539 -0.0704  0.4489 -0.8256
 6224SOL    HW122588   4.229   8.829   8.564 -0.0553  0.8901 -0.2890
 6224SOL    HW222589   4.342   8.922   8.603  1.0922 -0.4570 -0.3050
 6225SOL     OW22590   8.494   5.932   6.245  0.1397  0.6486  0.3992
 6225SOL    HW122591   8.460   5.911   6.158 -1.0140 -2.5378  1.4918
 6225SOL    HW222592   8.584   5.898   6.244 -0.3532 -0.7346  0.8523
 6226SOL     OW22593   9.174   9.404   1.163  0.5150 -0.0480  0.4732
 6226SOL    HW122594   9.123   9.434   1.239  0.8686  1.2401  0.2100
 6226SOL    HW222595   9.116   9.416   1.088  0.7552  0.2141  0.3306
 6227SOL     OW22596   6.921   7.151   6.556  0.0243  0.3342 -0.0205
 6227SOL    HW122597   6.886   7.126   6.470  0.7171 -2.2881  0.3821
 6227SOL    HW222598   7.015   7.136   6.549  0.0336 -0.4002  1.3194
 6228SOL     OW22599   7.386   0.675  10.111  0.1511 -0.3448 -0.2644
 6228SOL    HW122600   7.453   0.702  10.049  0.1403  0.1621 -0.0607
 6228SOL    HW222601   7.433   0.654  10.192  0.0933 -0.2734 -0.2114
 6229SOL     OW22602   6.756   9.697   4.246  0.4606 -0.2497  0.5685
 6229SOL    HW122603   6.830   9.716   4.303 -0.0823  1.2717  0.8195
 6229SOL    HW222604   6.679   9.711   4.301 -0.0570  0.6520 -0.3420
 6230SOL     OW22605   5.079   6.801   8.726  0.0526 -0.2385 -0.3260
 6230SOL    HW122606   5.077   6.782   8.819 -1.0868  0.1837 -0.2522
 6230SOL    HW222607   5.003   6.857   8.710  0.6259  0.2805 -1.3864
 6231SOL     OW22608   3.464   0.593   2.503  0.0444 -0.2404 -0.4116
 6231SOL    HW122609   3.521   0.642   2.443  0.9086 -1.7434 -0.8860
 6231SOL    HW222610   3.481   0.501   2.481 -0.2404 -0.8096  1.5945
 6232SOL     OW22611   3.439   6.956   0.469 -0.4635 -0.0106  0.3815
 6232SOL    HW122612   3.355   6.995   0.443 -0.5899 -0.4470  0.1232
 6232SOL    HW222613   3.504   7.023   0.447 -0.6487 -0.0489 -0.3297
 6233SOL     OW22614   7.743   2.490   5.727  0.0596 -0.2602 -0.2370
 6233SOL    HW122615   7.686   2.441   5.667 -1.1539 -0.9699  1.4167
 6233SOL    HW222616   7.705   2.578   5.730 -0.5842 -0.5441  0.3407
 6234SOL     OW22617   5.232   4.916   4.846  0.3823 -0.1334 -0.0385
 6234SOL    HW122618   5.158   4.884   4.899 -1.2401  0.9090 -1.5547
 6234SOL    HW222619   5.296   4.946   4.910 -1.6567  1.4513  1.3901
 6235SOL     OW22620   1.357   8.439   8.380  0.0033 -0.3542  0.2744
 6235SOL    HW122621   1.330   8.360   8.333 -2.0318  0.3538  0.1299
 6235SOL    HW222622   1.397   8.495   8.314 -1.8551  0.1906 -0.4440
 6236SOL     OW22623   5.628   6.677   8.074 -0.6675  0.2207  0.5358
 6236SOL    HW122624   5.594   6.765   8.063  0.2641  0.7099  1.4602
 6236SOL    HW222625   5.552   6.625   8.102 -1.2158  0.7148 -0.0096
 6237SOL     OW22626   7.738  10.006  10.194 -0.5047 -0.2657 -0.1629
 6237SOL    HW122627   7.655   9.968  10.224 -0.1100  1.1008  3.1518
 6237SOL    HW222628   7.712  10.075  10.133 -1.8175 -0.0420  0.6044
 6238SOL     OW22629   0.395   8.131   7.294 -0.1893 -0.0284  0.1291
 6238SOL    HW122630   0.378   8.219   7.260  0.3222  0.2068  0.4776
 6238SOL    HW222631   0.477   8.139   7.341 -0.6748 -0.4518  1.0610
 6239SOL     OW22632   6.514   3.697   9.867 -0.0487  0.2547 -0.0506
 6239SOL    HW122633   6.500   3.792   9.863  1.2078  0.4775  0.3239
 6239SOL    HW222634   6.577   3.685   9.938  0.5785 -0.7627 -0.7518
 6240SOL     OW22635  10.173   2.316   5.209 -0.3695  0.2319 -0.4469
 6240SOL    HW122636  10.197   2.399   5.167 -2.7203  1.4103  0.3524
 6240SOL    HW222637  10.124   2.269   5.141 -1.3908  0.7401 -0.0932
 6241SOL     OW22638   0.021   3.184   9.020 -0.0482  0.3751  0.4198
 6241SOL    HW122639   0.067   3.174   9.103 -0.5482  0.1688  0.6785
 6241SOL    HW222640  -0.072   3.179   9.044 -0.1930  0.3123 -0.1521
 6242SOL     OW22641   5.030   5.942   2.631  0.4317  0.1812  0.2068
 6242SOL    HW122642   5.053   6.023   2.677  4.1516 -0.0302 -0.8939
 6242SOL    HW222643   5.047   5.962   2.539 -1.5629 -1.0181 -0.4829
 6243SOL     OW22644   0.492   4.385   7.650  0.0461  0.5955 -1.0114
 6243SOL    HW122645   0.570   4.436   7.629  0.3727  1.1926  1.3535
 6243SOL    HW222646   0.466   4.415   7.737 -1.7344 -0.9301 -0.9409
 6244SOL     OW22647   1.986   3.647   0.952  0.1746 -0.3525 -0.2906
 6244SOL    HW122648   2.035   3.633   0.871 -1.2431 -0.2674 -1.1793
 6244SOL    HW222649   2.043   3.702   1.005  2.1278 -2.2453 -0.2672
 6245SOL     OW22650   1.692   6.126   1.114  0.3052  0.0231  0.0017
 6245SOL    HW122651   1.640   6.085   1.045 -0.6512  1.4169 -0.1412
 6245SOL    HW222652   1.755   6.180   1.067 -0.3543  0.9849  0.2063
 6246SOL     OW22653   3.920   4.074   7.774 -0.8591 -0.1244  0.7781
 6246SOL    HW122654   3.869   4.083   7.693  0.7047  1.4353 -0.1052
 6246SOL    HW222655   3.904   4.155   7.821 -2.7988 -1.5492  2.7602
 6247SOL     OW22656   9.832   3.228   0.943  0.0525 -0.7437 -0.5520
 6247SOL    HW122657   9.775   3.282   0.998 -0.9475 -0.1541 -2.0920
 6247SOL    HW222658   9.824   3.140   0.980  1.1624 -0.0296  1.5659
 6248SOL     OW22659   9.201   2.932   8.731 -0.3773 -0.2670  0.5311
 6248SOL    HW122660   9.147   2.878   8.674 -0.2439  1.4418 -1.2921
 6248SOL    HW222661   9.140   2.993   8.772  0.0468  1.7436 -1.6205
 6249SOL     OW22662   0.807   3.840   5.386 -0.1025  0.1975  0.3565
 6249SOL    HW122663   0.820   3.871   5.297  2.3206  0.9193  0.8906
 6249SOL    HW222664   0.783   3.918   5.435 -0.8551 -0.0930  0.4658
 6250SOL     OW22665   6.619   4.055   2.098  0.4422 -0.1381 -0.1235
 6250SOL    HW122666   6.653   4.124   2.154  0.5204 -1.9224  2.2013
 6250SOL    HW222667   6.686   3.987   2.100 -1.0511 -1.6624  0.4353
 6251SOL     OW22668   0.382   1.881   4.254  0.5923 -0.0250 -0.1095
 6251SOL    HW122669   0.291   1.873   4.223  0.1945 -1.1103  1.2305
 6251SOL    HW222670   0.379   1.954   4.317  0.3203 -0.9507  0.9773
 6252SOL     OW22671  10.153   5.686   6.218 -0.1329  0.2627 -0.5381
 6252SOL    HW122672  10.246   5.675   6.241 -0.3222 -1.3347 -0.3797
 6252SOL    HW222673  10.114   5.728   6.295 -0.0951 -1.8651  0.7224
 6253SOL     OW22674   0.509   7.040   4.573  0.3492 -0.2596  0.5542
 6253SOL    HW122675   0.583   6.986   4.548  0.0075 -0.6453  0.3719
 6253SOL    HW222676   0.548   7.122   4.603  0.7866  0.1413 -1.0066
 6254SOL     OW22677   3.800   5.518   8.512 -0.4226 -0.4860  0.0379
 6254SOL    HW122678   3.844   5.448   8.559  1.1722  1.4871  1.6662
 6254SOL    HW222679   3.866   5.552   8.452 -0.9944 -0.0207 -0.3376
 6255SOL     OW22680   6.288   8.170   6.298 -0.1110 -0.0821 -0.0745
 6255SOL    HW122681   6.277   8.076   6.282 -1.0906  0.1550 -0.8960
 6255SOL    HW222682   6.283   8.210   6.211  0.1418  0.7529  0.2818
 6256SOL     OW22683   7.849   2.950   0.729  0.4426  0.4200 -0.2485
 6256SOL    HW122684   7.759   2.981   0.743  0.6522  0.9685 -0.0470
 6256SOL    HW222685   7.861   2.952   0.634  1.1828  3.2588 -0.2085
 6257SOL     OW22686   5.034   1.924   6.835 -0.5891  0.3705  0.0445
 6257SOL    HW122687   5.012   2.014   6.855 -1.2905  0.5618 -1.4178
 6257SOL    HW222688   5.125   1.927   6.806 -0.1074  0.3381  1.4775
 6258SOL     OW22689   1.630   3.587   6.761 -0.6982  0.0780  0.1062
 6258SOL    HW122690   1.717   3.574   6.722 -0.8025 -0.0310 -0.0903
 6258SOL    HW222691   1.579   3.630   6.693 -0.9868 -0.4356 -0.0048
 6259SOL     OW22692   1.021   1.718   8.432  0.2608 -0.2339  0.2789
 6259SOL    HW122693   0.950   1.654   8.426  0.3566 -0.3408  0.2834
 6259SOL    HW222694   1.033   1.732   8.526 -0.9656  1.1374  0.2718
 6260SOL     OW22695   0.450   2.652   3.345 -0.0311  0.1166  0.1581
 6260SOL    HW122696   0.367   2.697   3.359  0.2999  0.8318 -0.0982
 6260SOL    HW222697   0.464   2.655   3.250 -0.0919 -0.7024  0.1154
 6261SOL     OW22698   7.234   2.548   3.004 -0.3614 -0.2566 -0.4666
 6261SOL    HW122699   7.155   2.513   3.044  0.5747  0.7078  2.4393
 6261SOL    HW222700   7.303   2.486   3.029  0.2653  0.3737 -0.5983
 6262SOL     OW22701   5.699   6.605   3.504 -0.8658  0.4520  0.2291
 6262SOL    HW122702   5.735   6.692   3.516 -1.3210  0.8939 -1.3593
 6262SOL    HW222703   5.747   6.569   3.430  0.2240 -1.1993  1.6463
 6263SOL     OW22704   3.682   3.206   7.726  0.0372 -0.3752 -0.0597
 6263SOL    HW122705   3.640   3.192   7.642  1.3424 -1.5876 -0.5501
 6263SOL    HW222706   3.682   3.301   7.738  1.3414 -0.0364 -2.2500
 6264SOL     OW22707   5.195   2.971   5.427 -0.0379 -0.1638 -0.3376
 6264SOL    HW122708   5.116   2.961   5.480 -0.6191 -1.0472 -1.3118
 6264SOL    HW222709   5.165   3.015   5.348  0.5563 -0.0116 -0.4808
 6265SOL     OW22710   0.570   1.891   4.694 -0.3031  0.4317  0.0146
 6265SOL    HW122711   0.544   1.810   4.651 -2.2450  0.5829  0.8247
 6265SOL    HW222712   0.653   1.915   4.652 -0.4458 -1.1696 -1.2648
 6266SOL     OW22713   0.999   9.553   9.470 -0.5707  0.0397 -0.0837
 6266SOL    HW122714   1.028   9.524   9.384  1.2850 -0.8932  0.8031
 6266SOL    HW222715   1.004   9.475   9.525 -0.8568  0.8098  1.0828
 6267SOL     OW22716   4.143   3.445   7.677  0.0509  0.0046 -0.5236
 6267SOL    HW122717   4.229   3.403   7.670 -0.4122 -1.2669  0.7587
 6267SOL    HW222718   4.090   3.402   7.610 -0.3279 -1.3312  0.5669
 6268SOL     OW22719   8.484   2.792   2.048 -0.1111  0.1553  0.2075
 6268SOL    HW122720   8.448   2.849   1.980  0.1899  1.4489  1.0917
 6268SOL    HW222721   8.413   2.732   2.069 -0.5053  0.3147 -0.6190
 6269SOL     OW22722   0.207   7.890   3.055 -0.8559 -0.3625 -0.2982
 6269SOL    HW122723   0.292   7.848   3.042 -0.3923  0.8789 -1.4781
 6269SOL    HW222724   0.145   7.832   3.011 -0.6355 -1.2238  0.4819
 6270SOL     OW22725   7.372   0.935   1.056  0.9594 -0.1974 -0.0647
 6270SOL    HW122726   7.351   0.853   1.011  0.3841  0.9751 -2.0387
 6270SOL    HW222727   7.441   0.911   1.118 -0.2166 -2.4583  0.4856
 6271SOL     OW22728   1.414   7.418   3.269 -0.0394 -0.5143 -0.2817
 6271SOL    HW122729   1.480   7.395   3.334 -0.2251 -1.0700 -0.2811
 6271SOL    HW222730   1.452   7.391   3.185  1.6215  3.0998 -0.9121
 6272SOL     OW22731   2.772   8.695  10.027 -0.4320 -0.4571  0.1025
 6272SOL    HW122732   2.685   8.715  10.061  0.1302  1.0704  0.7347
 6272SOL    HW222733   2.777   8.741   9.944 -0.4886 -1.1821 -0.3115
 6273SOL     OW22734   2.770   1.433   9.052  0.6497  0.0180 -0.2832
 6273SOL    HW122735   2.760   1.406   9.143  0.0356  1.7190  0.1791
 6273SOL    HW222736   2.752   1.354   9.001 -2.6268 -0.1364  0.9442
 6274SOL     OW22737   0.407   7.390   8.010  0.1742 -0.6870  0.2263
 6274SOL    HW122738   0.388   7.463   7.951 -1.3850 -1.8241 -0.7771
 6274SOL    HW222739   0.499   7.370   7.995  0.8670  1.5281  1.1153
 6275SOL     OW22740   3.901   0.379   0.896  0.0682  0.0841 -0.0162
 6275SOL    HW122741   3.963   0.442   0.858 -0.3810  0.1021 -0.7210
 6275SOL    HW222742   3.863   0.426   0.971 -0.8836  0.9792 -1.0254
 6276SOL     OW22743   2.890   0.605   5.153  0.7231 -1.0069 -0.2643
 6276SOL    HW122744   2.951   0.594   5.080 -1.3594  0.0602 -2.2909
 6276SOL    HW222745   2.831   0.530   5.145 -1.0948  0.4536 -1.3946
 6277SOL     OW22746   2.637   6.193   2.684  0.1234 -0.3475  0.0013
 6277SOL    HW122747   2.596   6.276   2.660  2.5950  1.2483  0.9349
 6277SOL    HW222748   2.581   6.158   2.754 -0.5966  0.8630  0.0591
 6278SOL     OW22749   9.270   9.140   3.748  0.2552  0.3587 -0.0669
 6278SOL    HW122750   9.297   9.049   3.760  4.4313  1.3603 -0.3669
 6278SOL    HW222751   9.255   9.173   3.836 -1.2036 -0.5200  0.0458
 6279SOL     OW22752   3.902   8.334   0.739  0.0344 -0.1984 -0.9411
 6279SOL    HW122753   3.858   8.391   0.677 -0.4362  2.9963  1.9916
 6279SOL    HW222754   3.836   8.269   0.764 -1.6119  1.7141 -0.0090
 6280SOL     OW22755   9.611   7.604   4.434 -0.5403  0.6288  0.5175
 6280SOL    HW122756   9.552   7.594   4.359 -0.8499 -0.4079  0.8795
 6280SOL    HW222757   9.698   7.615   4.396 -0.6388 -0.2882  0.0025
 6281SOL     OW22758   8.714   6.497   0.649  0.1969  0.0164 -0.1539
 6281SOL    HW122759   8.634   6.456   0.616  1.5211 -3.3064  0.3656
 6281SOL    HW222760   8.700   6.506   0.743  0.4471 -0.6027 -0.0572
 6282SOL     OW22761   9.910   0.291   6.574  0.2003  0.8300  0.0715
 6282SOL    HW122762   9.988   0.341   6.599 -0.1507  1.1472  0.5383
 6282SOL    HW222763   9.854   0.293   6.652  0.0634 -0.0577 -0.0044
 6283SOL     OW22764   4.080   7.232   0.789  0.8624  0.0288 -0.7345
 6283SOL    HW122765   4.032   7.149   0.794  0.5847  0.1296 -1.5963
 6283SOL    HW222766   4.169   7.206   0.765  1.5767 -0.2515  1.8845
 6284SOL     OW22767   9.366   6.844   5.117 -0.0733  0.0523 -0.0506
 6284SOL    HW122768   9.369   6.867   5.024 -0.8011 -0.6132 -0.2493
 6284SOL    HW222769   9.418   6.912   5.160  0.4524  0.2492 -0.9630
 6285SOL     OW22770   3.677   7.474   4.943 -0.0839  0.4966  0.0380
 6285SOL    HW122771   3.754   7.420   4.959  0.6582  1.3507 -0.5385
 6285SOL    HW222772   3.611   7.413   4.911  0.8573 -0.0301 -0.9651
 6286SOL     OW22773   0.255   1.076   8.562 -0.3661 -0.2029  0.0781
 6286SOL    HW122774   0.167   1.065   8.527  0.0698 -0.6940 -0.9134
 6286SOL    HW222775   0.243   1.121   8.645 -1.4782  0.5661 -0.4850
 6287SOL     OW22776   6.173   2.641   3.436 -0.2175 -0.1962 -0.3697
 6287SOL    HW122777   6.146   2.589   3.512 -1.8036 -1.4226 -1.7003
 6287SOL    HW222778   6.105   2.624   3.370 -0.3965  2.9675 -1.1648
 6288SOL     OW22779   3.936   1.888   4.962 -0.0361 -0.5591 -0.3439
 6288SOL    HW122780   4.015   1.877   5.015 -1.6449  0.2633  2.4154
 6288SOL    HW222781   3.881   1.813   4.983 -1.0611  0.2073 -0.1704
 6289SOL     OW22782   0.958   4.336   0.009  0.4501  0.3127 -0.3294
 6289SOL    HW122783   0.990   4.347  -0.080  0.7325  0.3365 -0.2256
 6289SOL    HW222784   0.985   4.416   0.055 -0.6006  0.7756 -0.4818
 6290SOL     OW22785   1.728   4.687   7.382  0.1389 -0.1468 -0.0861
 6290SOL    HW122786   1.648   4.695   7.330  0.7692 -0.5776 -1.1624
 6290SOL    HW222787   1.768   4.774   7.377  0.6343 -0.4195 -1.0805
 6291SOL     OW22788   2.439   8.401   5.649  0.6657 -0.2528  0.1537
 6291SOL    HW122789   2.405   8.383   5.736  1.0782 -0.2261  0.3225
 6291SOL    HW222790   2.443   8.497   5.644 -3.7028  0.0512 -1.5712
 6292SOL     OW22791   2.018   1.171   3.938  0.2440 -0.0519 -0.8020
 6292SOL    HW122792   2.080   1.166   4.010 -0.4204  1.0523 -0.1197
 6292SOL    HW222793   2.067   1.213   3.867 -0.1322  2.4356  0.2902
 6293SOL     OW22794   4.446   7.355   2.806  0.1209 -0.4429  0.6479
 6293SOL    HW122795   4.372   7.357   2.745 -0.0714  0.3768  0.8920
 6293SOL    HW222796   4.446   7.267   2.842 -0.5739 -0.5318  0.4406
 6294SOL     OW22797   6.398   8.922   7.689  0.3489 -0.1594 -0.2827
 6294SOL    HW122798   6.368   8.836   7.660 -1.9524  0.7483 -0.8236
 6294SOL    HW222799   6.475   8.941   7.636 -0.3071 -1.0594 -1.5905
 6295SOL     OW22800   3.120   8.047   4.413 -0.3186 -0.0588 -0.0941
 6295SOL    HW122801   3.127   8.053   4.508 -0.8857  1.9236 -0.1355
 6295SOL    HW222802   3.045   7.989   4.399 -0.7496  0.2767  0.7001
 6296SOL     OW22803   4.399   7.184   3.983  0.7473  0.1106 -0.8011
 6296SOL    HW122804   4.435   7.127   3.914  0.9687  0.5742 -1.0708
 6296SOL    HW222805   4.477   7.222   4.025  0.5923  0.3871 -0.7659
 6297SOL     OW22806   7.082   8.032   8.156 -0.0730 -0.9627  0.0605
 6297SOL    HW122807   7.025   8.036   8.233  1.3840  0.3161  1.1549
 6297SOL    HW222808   7.062   8.112   8.107 -1.0018 -1.7787 -0.9380
 6298SOL     OW22809   0.055   6.244   4.348  0.1698  0.4410 -0.0797
 6298SOL    HW122810  -0.031   6.203   4.359  0.7356 -0.5826  0.6268
 6298SOL    HW222811   0.117   6.177   4.373  1.1115  2.1576  2.6374
 6299SOL     OW22812   4.050   4.400   3.217 -0.2041 -0.0334 -0.4808
 6299SOL    HW122813   3.966   4.387   3.262 -0.7036  1.6804 -0.8504
 6299SOL    HW222814   4.039   4.356   3.133 -1.3444  1.4666 -1.1636
 6300SOL     OW22815   4.927   9.931   3.522  0.0549  0.3635 -0.1537
 6300SOL    HW122816   4.935   9.996   3.592 -0.2411 -0.5211  0.7272
 6300SOL    HW222817   4.958   9.976   3.444  1.7709  0.9249  0.8081
 6301SOL     OW22818   7.368   3.066   8.626  0.1204 -0.0754 -0.4356
 6301SOL    HW122819   7.388   2.972   8.623  0.7396  0.0585 -0.4580
 6301SOL    HW222820   7.384   3.091   8.717  0.6011  0.1559 -0.5858
 6302SOL     OW22821   5.878   7.179   9.258 -0.5823  0.1880 -0.3087
 6302SOL    HW122822   5.946   7.171   9.191 -0.2285  1.2040 -0.0739
 6302SOL    HW222823   5.882   7.270   9.286 -2.4542  0.4331 -0.7229
 6303SOL     OW22824   3.304   2.732   7.477 -0.7137 -0.1913  0.4605
 6303SOL    HW122825   3.258   2.724   7.394 -0.8123  0.4076  0.4520
 6303SOL    HW222826   3.395   2.746   7.453 -0.7096 -0.2256  0.4561
 6304SOL     OW22827   2.474   5.574   7.918  0.0478 -0.2034 -0.7355
 6304SOL    HW122828   2.506   5.615   7.837 -2.3619  0.9999 -1.1631
 6304SOL    HW222829   2.467   5.646   7.980 -3.3101  0.0348 -1.1958
 6305SOL     OW22830   0.410   9.697   6.858 -0.1883  0.5617  0.2398
 6305SOL    HW122831   0.316   9.680   6.862 -0.2487  1.0019  0.7058
 6305SOL    HW222832   0.445   9.656   6.937 -0.2346  1.9449  0.9938
 6306SOL     OW22833   4.451   4.892   3.412  0.0298  0.0237 -0.0405
 6306SOL    HW122834   4.458   4.892   3.507 -0.7338 -2.5420  0.1033
 6306SOL    HW222835   4.534   4.929   3.382  1.0154 -0.6786  1.6346
 6307SOL     OW22836   9.929   4.129   0.277 -0.8266  0.4222 -0.4080
 6307SOL    HW122837   9.978   4.203   0.312 -1.5904  1.2949 -1.1328
 6307SOL    HW222838   9.994   4.059   0.270 -0.5931  0.2070  2.5440
 6308SOL     OW22839   1.799   2.752   2.484  0.2971  0.0747 -0.2497
 6308SOL    HW122840   1.762   2.671   2.519  0.4189  0.5797  1.0973
 6308SOL    HW222841   1.737   2.820   2.509 -0.1249  0.3537 -1.9038
 6309SOL     OW22842   2.361   1.492   3.640  0.2339  0.3329 -0.4497
 6309SOL    HW122843   2.271   1.518   3.623  0.5695  1.2133 -0.9169
 6309SOL    HW222844   2.407   1.507   3.557  0.7841 -0.2160 -0.2520
 6310SOL     OW22845   4.188   8.513   5.246 -0.2362  0.2205  0.2000
 6310SOL    HW122846   4.187   8.426   5.286  0.8431  0.2132  0.2222
 6310SOL    HW222847   4.141   8.501   5.163 -2.9047  0.3409  1.5953
 6311SOL     OW22848   2.845   6.678   7.826  0.1278  0.7507  0.1278
 6311SOL    HW122849   2.846   6.631   7.743 -1.2756 -0.4572  0.7508
 6311SOL    HW222850   2.917   6.638   7.876  0.5780  1.0531 -0.2725
 6312SOL     OW22851   8.800   0.089   7.723  0.0556 -0.7264 -0.5257
 6312SOL    HW122852   8.873   0.082   7.785 -0.5970 -1.6496  0.1654
 6312SOL    HW222853   8.751   0.008   7.735 -0.4795 -0.6057 -1.7677
 6313SOL     OW22854   0.755   3.013   4.587 -0.3633 -0.1524  0.5089
 6313SOL    HW122855   0.778   2.978   4.673  0.8721  0.6229  0.5216
 6313SOL    HW222856   0.780   3.106   4.591  0.0282 -0.1804 -0.7809
 6314SOL     OW22857   0.712   5.078   4.549 -0.5379  0.1333  0.2174
 6314SOL    HW122858   0.764   5.149   4.512  1.9257 -0.8957  1.4607
 6314SOL    HW222859   0.658   5.120   4.616 -0.1148  1.0108  0.0153
 6315SOL     OW22860   0.932   6.283   3.386  0.2355  0.3420  0.1847
 6315SOL    HW122861   0.853   6.337   3.388  0.4704  0.6956  0.2060
 6315SOL    HW222862   0.907   6.201   3.428  0.4564  1.2700  2.2655
 6316SOL     OW22863   9.030   9.459   4.165  0.5467 -0.1268  0.0737
 6316SOL    HW122864   8.943   9.489   4.137  0.2086 -0.8013  0.3617
 6316SOL    HW222865   9.013   9.415   4.248  1.2796  0.3612  0.4847
 6317SOL     OW22866   6.734   0.018   1.912  0.0246 -0.2015  0.1661
 6317SOL    HW122867   6.693   0.055   1.990  0.7044 -0.9060  0.8700
 6317SOL    HW222868   6.748  -0.074   1.934 -2.6801 -1.2689 -1.9307
 6318SOL     OW22869   2.945   9.745   6.176 -0.4516 -0.1162 -0.1986
 6318SOL    HW122870   2.919   9.678   6.113 -0.4415  0.7861 -1.1990
 6318SOL    HW222871   3.014   9.794   6.131  0.1293  0.0408  0.8427
 6319SOL     OW22872   2.169   4.410   6.598  0.2479  0.2431  0.1641
 6319SOL    HW122873   2.204   4.487   6.644  1.5220 -0.5385  0.5256
 6319SOL    HW222874   2.222   4.403   6.519 -1.3672  1.0598 -1.0492
 6320SOL     OW22875  10.044   2.769   6.809  0.1698 -0.0059  0.2993
 6320SOL    HW122876   9.990   2.733   6.739 -0.8247  0.9374  0.5556
 6320SOL    HW222877  10.000   2.851   6.833 -0.2361 -0.8909  2.8608
 6321SOL     OW22878   1.610   4.312   4.936  0.5460 -0.2141 -0.2235
 6321SOL    HW122879   1.553   4.367   4.882  0.6625 -0.1222 -0.2552
 6321SOL    HW222880   1.552   4.250   4.978  0.2158  0.8217  0.9215
 6322SOL     OW22881   7.539   9.607   4.034 -0.3049 -0.2309 -0.8394
 6322SOL    HW122882   7.525   9.699   4.015 -0.7898 -0.1266 -0.0365
 6322SOL    HW222883   7.454   9.576   4.066  0.4292 -0.3754  1.0935
 6323SOL     OW22884   7.021   4.384   7.598  0.5160 -0.0249  0.1513
 6323SOL    HW122885   7.083   4.426   7.537  0.7162  0.3768  0.6188
 6323SOL    HW222886   7.077   4.343   7.664  0.3017 -0.5209  0.0301
 6324SOL     OW22887   5.164   3.132   8.668  0.0382  0.1767 -0.0768
 6324SOL    HW122888   5.192   3.041   8.664  0.2530  0.2291  0.2073
 6324SOL    HW222889   5.069   3.129   8.674 -0.0272 -0.0086 -1.0068
 6325SOL     OW22890   7.173   1.761   5.273 -0.1353 -0.4420 -0.6707
 6325SOL    HW122891   7.136   1.736   5.188  0.5222 -0.0798 -1.0732
 6325SOL    HW222892   7.208   1.680   5.310 -3.1879 -1.2680  0.7127
 6326SOL     OW22893   4.065   9.854   1.211  0.3817  0.4742 -0.2131
 6326SOL    HW122894   4.145   9.862   1.158  0.3293 -1.6540 -0.6916
 6326SOL    HW222895   4.096   9.836   1.300  0.4373  0.7360 -0.1786
 6327SOL     OW22896   4.669   7.204   5.463  0.2474  0.6704  0.2831
 6327SOL    HW122897   4.724   7.247   5.397  1.3632  0.0073  0.7378
 6327SOL    HW222898   4.719   7.212   5.544 -0.4329  0.2184  0.7509
 6328SOL     OW22899   4.187   5.534   4.113  0.2319 -0.0138  0.4043
 6328SOL    HW122900   4.280   5.518   4.101  0.7150  3.0557 -0.9835
 6328SOL    HW222901   4.147   5.501   4.032  0.3322  0.0521  0.3277
 6329SOL     OW22902   2.167   5.397   4.702  0.4289  0.0500 -0.3488
 6329SOL    HW122903   2.150   5.415   4.610 -0.2312  0.1768 -0.2101
 6329SOL    HW222904   2.088   5.353   4.733  1.1461 -1.1169 -0.1379
 6330SOL     OW22905   0.703   3.969   9.910 -0.0636  0.3368 -0.2561
 6330SOL    HW122906   0.637   4.018   9.958  0.7345  0.4178  0.7829
 6330SOL    HW222907   0.664   3.883   9.896 -0.2448  0.2542  0.7013
 6331SOL     OW22908   4.462   0.430   5.851  0.4367  0.0028 -0.2894
 6331SOL    HW122909   4.526   0.427   5.923 -0.7408 -2.4942  0.7742
 6331SOL    HW222910   4.408   0.506   5.871  0.7983 -0.0201  0.8814
 6332SOL     OW22911   2.710   8.774   3.141  0.1345  0.0922  0.0801
 6332SOL    HW122912   2.639   8.766   3.077 -0.5241 -0.1828  0.8286
 6332SOL    HW222913   2.731   8.684   3.166 -1.4200  0.2308  2.1651
 6333SOL     OW22914   5.120   3.047   8.998 -0.0250  0.5804 -0.5880
 6333SOL    HW122915   5.075   3.014   8.920 -0.3239 -0.7132  0.1072
 6333SOL    HW222916   5.155   2.969   9.041  0.0268  1.2499  0.6365
 6334SOL     OW22917   2.728   9.839   5.326 -0.4436  0.5735  0.0038
 6334SOL    HW122918   2.821   9.862   5.318 -0.1959 -0.3885  0.0219
 6334SOL    HW222919   2.714   9.829   5.420 -0.4790  0.3932 -0.0196
 6335SOL     OW22920   3.825   9.281   5.985  0.5152 -0.3579  0.2548
 6335SOL    HW122921   3.909   9.251   5.951 -0.2859 -0.5136 -1.6658
 6335SOL    HW222922   3.846   9.316   6.072  2.7241  0.4124 -0.5149
 6336SOL     OW22923   4.154   7.610   6.849  0.1099  0.5516  0.6396
 6336SOL    HW122924   4.071   7.625   6.805 -0.2749  1.6806  1.7062
 6336SOL    HW222925   4.147   7.658   6.931  1.5248  0.0323  1.0941
 6337SOL     OW22926   3.845   3.995   4.786  0.2307  0.4099 -0.7018
 6337SOL    HW122927   3.897   3.974   4.864  0.6187  1.3909 -0.6864
 6337SOL    HW222928   3.887   4.073   4.749 -1.2681  1.2692 -0.6599
 6338SOL     OW22929   9.297   9.559   6.303 -0.0201 -0.0762  0.3385
 6338SOL    HW122930   9.265   9.648   6.289  1.6083  0.9118  2.3012
 6338SOL    HW222931   9.366   9.547   6.238 -0.0756  0.2034  0.2279
 6339SOL     OW22932   1.684   9.003   6.600  0.1714 -0.6207 -0.0481
 6339SOL    HW122933   1.622   8.956   6.657  0.0654 -0.1466  0.2282
 6339SOL    HW222934   1.658   9.094   6.606  1.3709 -0.2985  0.6913
 6340SOL     OW22935   6.580   6.984   8.354  0.6297 -0.3498  0.2618
 6340SOL    HW122936   6.664   7.023   8.376 -0.5206  1.7852  1.1469
 6340SOL    HW222937   6.536   6.971   8.438 -0.5279  0.0617 -0.2539
 6341SOL     OW22938   6.373   3.992   3.229 -0.2809 -0.0464  0.1736
 6341SOL    HW122939   6.407   4.058   3.169  3.1923 -0.4576  1.4523
 6341SOL    HW222940   6.345   4.043   3.306  2.0774  0.1274  1.0212
 6342SOL     OW22941   3.148   7.439   8.376  0.7349 -0.2985  0.2326
 6342SOL    HW122942   3.220   7.468   8.432  1.6211 -0.6203 -0.6986
 6342SOL    HW222943   3.176   7.353   8.344  0.6147  0.1997 -1.2876
 6343SOL     OW22944   5.912   7.691   5.861  0.1618 -0.1796  0.0636
 6343SOL    HW122945   5.824   7.665   5.887 -0.2532  0.1794 -0.9352
 6343SOL    HW222946   5.902   7.781   5.830  0.9867  0.0616  0.4588
 6344SOL     OW22947   3.445   4.011   9.700  0.6899 -0.5569 -0.0366
 6344SOL    HW122948   3.532   4.016   9.738  0.2009  1.1017  1.0048
 6344SOL    HW222949   3.436   4.092   9.648 -0.8560  0.2856  1.4241
 6345SOL     OW22950   3.887   3.332   1.735  0.1936  0.2155 -0.1944
 6345SOL    HW122951   3.919   3.422   1.741  0.3601  0.2093 -0.9294
 6345SOL    HW222952   3.950   3.281   1.785 -0.6182  0.6646  1.3657
 6346SOL     OW22953   6.034   3.960   6.367 -0.3830  0.0517 -0.0888
 6346SOL    HW122954   6.031   3.876   6.322 -0.0192 -0.4802  0.8403
 6346SOL    HW222955   6.046   3.937   6.459 -3.1980  1.0211  0.6158
 6347SOL     OW22956   1.832   5.864   1.152  0.7458 -0.4373  0.0955
 6347SOL    HW122957   1.920   5.892   1.178  0.9168 -1.6701  0.9333
 6347SOL    HW222958   1.791   5.943   1.117  1.1280  0.9489  2.5125
 6348SOL     OW22959   9.357   7.396   1.831 -0.0344  0.1221 -0.0395
 6348SOL    HW122960   9.365   7.363   1.741 -0.5213 -1.3745  0.4351
 6348SOL    HW222961   9.396   7.483   1.828  0.5298 -0.1471 -1.5651
 6349SOL     OW22962   4.768   8.387   9.127  0.1327 -0.7174 -0.1898
 6349SOL    HW122963   4.709   8.373   9.053 -0.9371  0.4857  0.4088
 6349SOL    HW222964   4.763   8.305   9.177  1.4125 -1.8300 -1.7645
 6350SOL     OW22965   5.649   3.235   4.827  0.6614 -0.1854  0.1164
 6350SOL    HW122966   5.706   3.174   4.780 -0.1678 -0.6304 -0.3366
 6350SOL    HW222967   5.573   3.247   4.769 -0.2571 -0.5290  1.2047
 6351SOL     OW22968   4.637   0.240   2.549  0.4726 -0.1866  0.3016
 6351SOL    HW122969   4.627   0.186   2.471 -0.0176  0.8674 -0.3987
 6351SOL    HW222970   4.586   0.195   2.617 -0.0486 -0.5197 -0.3011
 6352SOL     OW22971   4.621   4.899   8.350 -0.0761  0.1336  0.3331
 6352SOL    HW122972   4.547   4.894   8.412 -0.3090 -1.3898 -0.0441
 6352SOL    HW222973   4.679   4.828   8.376  1.1578  1.1567  0.4508
 6353SOL     OW22974   7.436   0.010   4.080  0.1551  0.1651  0.1452
 6353SOL    HW122975   7.430  -0.032   3.994  0.7714 -1.2913  0.7976
 6353SOL    HW222976   7.347   0.041   4.097  0.2478  1.5050 -1.4990
 6354SOL     OW22977   3.727   3.245   2.952 -0.1883  0.0059  0.4372
 6354SOL    HW122978   3.730   3.334   2.915  0.3035 -0.4852 -0.7535
 6354SOL    HW222979   3.635   3.222   2.950 -0.1858  0.0330 -0.4135
 6355SOL     OW22980   4.493   1.126   6.001 -0.1988  0.1282 -0.0354
 6355SOL    HW122981   4.509   1.132   5.907 -1.8651 -0.4102 -0.3937
 6355SOL    HW222982   4.501   1.216   6.033  2.2271  0.0590 -0.3324
 6356SOL     OW22983   0.092   9.790   9.297  0.0276  0.0901  0.0671
 6356SOL    HW122984   0.022   9.797   9.231  0.1229  1.0173  0.0466
 6356SOL    HW222985   0.049   9.815   9.379 -0.1810 -1.4083  0.4433
 6357SOL     OW22986   9.520   5.263   3.726  0.0818 -0.6978  0.0852
 6357SOL    HW122987   9.527   5.193   3.661  0.7813  0.1582 -0.7943
 6357SOL    HW222988   9.603   5.310   3.720 -0.5012  0.4133  0.4069
 6358SOL     OW22989   1.332   9.258   3.704  0.0363  0.4934 -0.5270
 6358SOL    HW122990   1.269   9.330   3.700 -0.6521 -0.1511 -1.7668
 6358SOL    HW222991   1.318   9.220   3.791  0.1299  1.5823 -0.0076
 6359SOL     OW22992   8.994   9.189   0.045 -0.0323 -0.2614 -0.3644
 6359SOL    HW122993   9.010   9.101   0.079  1.3524 -0.1182 -0.5824
 6359SOL    HW222994   9.041   9.247   0.105 -0.1184  0.2513 -0.7812
 6360SOL     OW22995   1.588   4.585   3.706  0.6378 -0.1409 -0.0341
 6360SOL    HW122996   1.673   4.578   3.749 -0.2139  2.0558  2.2875
 6360SOL    HW222997   1.601   4.651   3.638  1.0333 -0.6120 -0.4194
 6361SOL     OW22998   5.468   3.640   0.819 -0.0775  0.3643  0.6544
 6361SOL    HW122999   5.433   3.729   0.822  0.4598  0.5575  2.4516
 6361SOL    HW223000   5.416   3.592   0.884  1.9339  0.2971  2.3153
 6362SOL     OW23001   2.921   6.847   3.662  0.0161 -0.2830 -0.6198
 6362SOL    HW123002   2.994   6.909   3.654  0.4666 -0.1780  2.7269
 6362SOL    HW223003   2.927   6.793   3.583  0.8491  2.5764 -2.6995
 6363SOL     OW23004  10.149   3.656   0.612  0.6405 -0.2276  0.2544
 6363SOL    HW123005  10.187   3.569   0.621  1.1214  0.0953  1.6885
 6363SOL    HW223006  10.151   3.692   0.700 -1.6406  0.4089  0.0963
 6364SOL     OW23007   5.222   0.729   5.939 -0.5267  0.2420 -0.4118
 6364SOL    HW123008   5.226   0.634   5.931  0.5141  0.3319 -1.1872
 6364SOL    HW223009   5.149   0.745   5.999  0.0872 -1.0844  0.7392
 6365SOL     OW23010   8.235   8.382   5.723 -0.0881 -0.2094 -0.3715
 6365SOL    HW123011   8.161   8.415   5.671 -0.7673  0.6903  1.0949
 6365SOL    HW223012   8.255   8.454   5.784  0.9699 -1.0536  0.3126
 6366SOL     OW23013   7.182   1.187   4.531  0.4923 -0.1466  0.0935
 6366SOL    HW123014   7.187   1.277   4.497 -0.2601 -0.1158  0.0446
 6366SOL    HW223015   7.271   1.167   4.559  0.7956  0.3963 -0.4591
 6367SOL     OW23016   7.049   0.133   0.213  0.2345  0.2248  0.2676
 6367SOL    HW123017   7.093   0.176   0.140  1.5305  0.9065  1.4114
 6367SOL    HW223018   7.114   0.074   0.250 -0.4583 -0.2255  0.7955
 6368SOL     OW23019   0.435   5.285   9.794  0.7042 -0.1851 -0.1414
 6368SOL    HW123020   0.423   5.297   9.888  0.4671 -0.0270 -0.1893
 6368SOL    HW223021   0.443   5.374   9.759  1.9985 -0.2800 -0.1239
 6369SOL     OW23022   9.553   1.005   9.547  0.5544  1.0916 -0.4327
 6369SOL    HW123023   9.561   1.025   9.454  2.0755  0.7310 -0.4023
 6369SOL    HW223024   9.572   0.911   9.554 -2.4946  0.4052 -0.0839
 6370SOL     OW23025   0.708   1.592   0.041  0.0781 -0.0731  0.2070
 6370SOL    HW123026   0.616   1.611   0.058  0.1844  1.1791 -0.5061
 6370SOL    HW223027   0.751   1.606   0.126 -0.3324 -0.2703  0.4476
 6371SOL     OW23028   1.083   3.717   5.447 -0.1647  0.0764 -0.0890
 6371SOL    HW123029   1.078   3.626   5.475  2.4248 -0.8117 -2.0719
 6371SOL    HW223030   1.056   3.715   5.355 -1.0094  1.5135  0.1020
 6372SOL     OW23031   5.966   7.323   0.979  0.0591  0.3777 -0.4314
 6372SOL    HW123032   6.011   7.348   1.060  0.4687 -0.7241 -0.2975
 6372SOL    HW223033   6.001   7.236   0.959 -0.0550  0.6344 -1.7825
 6373SOL     OW23034   4.490   5.276   4.423  0.1674  0.3072 -0.5006
 6373SOL    HW123035   4.577   5.259   4.461  0.0461 -2.3288 -1.1792
 6373SOL    HW223036   4.485   5.215   4.349 -2.1420  0.6474 -0.6829
 6374SOL     OW23037   9.130   4.713   1.852  0.3119  0.0302  0.0693
 6374SOL    HW123038   9.038   4.714   1.880  0.8486 -1.8342  2.1642
 6374SOL    HW223039   9.126   4.712   1.756 -1.9112 -1.5584  0.1082
 6375SOL     OW23040   0.468   3.270   5.419  0.4022  0.0169 -0.3696
 6375SOL    HW123041   0.555   3.268   5.459 -0.5510  1.5017  2.0462
 6375SOL    HW223042   0.484   3.284   5.326  2.7314 -0.7045 -0.1496
 6376SOL     OW23043   3.529   4.071   3.234 -0.0963  0.0032  0.1149
 6376SOL    HW123044   3.581   4.140   3.274  0.6078 -0.1464 -0.5126
 6376SOL    HW223045   3.441   4.082   3.271  0.1949  0.7362  0.6102
 6377SOL     OW23046   8.895   1.649   9.594  0.5250  0.3954  0.1007
 6377SOL    HW123047   8.895   1.554   9.591  0.4600  0.3957  0.0938
 6377SOL    HW223048   8.943   1.675   9.515  3.1805  0.3286  1.5799
 6378SOL     OW23049   4.536   9.116   4.984  0.2031 -0.3952  0.5149
 6378SOL    HW123050   4.521   9.065   4.905  2.7240  2.4424 -2.0342
 6378SOL    HW223051   4.483   9.195   4.973  1.2037  0.4077  1.2566
 6379SOL     OW23052   7.193   5.713   5.773 -0.3995  0.6502 -0.1752
 6379SOL    HW123053   7.221   5.774   5.705 -0.1945  0.1891 -0.5163
 6379SOL    HW223054   7.159   5.768   5.843  0.5196  1.1910 -0.1414
 6380SOL     OW23055   9.740   0.858   9.361 -0.0525  0.4031  0.4388
 6380SOL    HW123056   9.720   0.767   9.386 -0.2165  0.3428  0.0866
 6380SOL    HW223057   9.798   0.850   9.285  1.7891  0.5644  1.7565
 6381SOL     OW23058   4.976   1.405   5.067 -0.4370 -0.4406 -0.1090
 6381SOL    HW123059   4.991   1.312   5.082 -1.6086 -0.8214 -1.1466
 6381SOL    HW223060   4.934   1.436   5.148  0.2783 -0.7219  0.3775
 6382SOL     OW23061   3.386   7.035   3.256  0.2377 -0.3946  0.4615
 6382SOL    HW123062   3.304   7.009   3.215 -0.8098  1.8114  0.9889
 6382SOL    HW223063   3.431   6.953   3.275 -0.3089 -1.6074 -2.8311
 6383SOL     OW23064   5.014   7.213   0.585  0.2837 -0.1837  0.0898
 6383SOL    HW123065   5.011   7.118   0.573 -1.9010 -0.0178 -1.2058
 6383SOL    HW223066   5.091   7.241   0.536  0.7140 -1.2323  0.1332
 6384SOL     OW23067   3.472   7.794   0.564  0.4979 -0.1401  0.4205
 6384SOL    HW123068   3.481   7.732   0.493  1.3054  0.7600 -0.2810
 6384SOL    HW223069   3.379   7.789   0.588 -0.0954  0.4199 -1.5344
 6385SOL     OW23070   1.236   3.098   6.666 -0.3562  0.5002  0.5952
 6385SOL    HW123071   1.280   3.060   6.741  0.2456  1.0733  0.5470
 6385SOL    HW223072   1.147   3.064   6.669  0.2439 -1.1681  0.3543
 6386SOL     OW23073   9.760   6.855   7.226 -0.3688 -0.1332 -0.2266
 6386SOL    HW123074   9.781   6.933   7.175  0.2165  0.1146  0.3809
 6386SOL    HW223075   9.834   6.796   7.214 -1.3559 -1.1601 -1.7031
 6387SOL     OW23076   9.093   7.662   5.342  0.2669  0.4237  0.2661
 6387SOL    HW123077   9.181   7.672   5.379  0.9299  1.4363 -1.4542
 6387SOL    HW223078   9.091   7.574   5.305  0.8877  0.6967 -0.4428
 6388SOL     OW23079   0.608   8.750   0.390 -0.0331 -0.7236 -0.7918
 6388SOL    HW123080   0.539   8.684   0.384 -0.5239 -0.3661  0.4927
 6388SOL    HW223081   0.561   8.833   0.398  0.4810 -0.5653  1.1238
 6389SOL     OW23082   5.393   2.850   8.753  0.4060 -0.0671 -0.1215
 6389SOL    HW123083   5.320   2.836   8.693  0.6380 -4.4212  0.2503
 6389SOL    HW223084   5.466   2.801   8.713  1.0022 -1.7903  2.7839
 6390SOL     OW23085   7.909   3.034   1.676  0.1389 -0.2448  0.1809
 6390SOL    HW123086   7.926   2.948   1.637 -0.5344 -0.5765  0.6000
 6390SOL    HW223087   7.992   3.058   1.717  0.3431 -0.6816  0.0300
 6391SOL     OW23088   3.649   0.668   1.682 -0.8679  0.1264 -0.4459
 6391SOL    HW123089   3.658   0.663   1.587 -0.5077 -2.3193 -0.3661
 6391SOL    HW223090   3.713   0.734   1.709 -0.2652  0.1417 -1.8330
 6392SOL     OW23091   2.306   1.769   4.411 -0.3123 -0.3779  0.2979
 6392SOL    HW123092   2.231   1.779   4.352  0.4897 -0.7562 -0.8229
 6392SOL    HW223093   2.288   1.829   4.484 -1.9854 -0.9042  0.3647
 6393SOL     OW23094   5.128   3.075  10.108  0.6801  0.2495  0.7006
 6393SOL    HW123095   5.048   3.059  10.158  0.7988 -0.6579  0.6264
 6393SOL    HW223096   5.198   3.041  10.164  0.6641 -2.5530 -0.7769
 6394SOL     OW23097   9.294   8.464   2.906  0.1313  0.3567  0.4778
 6394SOL    HW123098   9.314   8.463   2.812  1.4811  0.4427  0.7439
 6394SOL    HW223099   9.309   8.374   2.934  0.7211  0.5453  0.7913
 6395SOL     OW23100   4.372   1.240   2.962  0.5627 -0.4330 -0.1783
 6395SOL    HW123101   4.325   1.238   3.046  2.4335 -0.6975  0.9222
 6395SOL    HW223102   4.426   1.161   2.963  0.6120 -0.4479 -1.6675
 6396SOL     OW23103   1.556   0.287   2.489  0.0731 -0.3788 -0.1070
 6396SOL    HW123104   1.516   0.203   2.466 -0.8112 -0.5639  1.8737
 6396SOL    HW223105   1.606   0.269   2.569 -0.0962  0.9529  0.3255
 6397SOL     OW23106   0.134   3.938   2.536 -0.7482 -0.5417  0.0659
 6397SOL    HW123107   0.058   3.917   2.590 -1.9282  1.4591 -0.6658
 6397SOL    HW223108   0.203   3.960   2.598 -1.6610  0.3933  0.7803
 6398SOL     OW23109   6.422   4.133   2.805  0.3551 -0.2905 -0.6500
 6398SOL    HW123110   6.440   4.092   2.890  0.1128 -1.3306 -1.0790
 6398SOL    HW223111   6.491   4.099   2.748  1.2998  1.4234 -0.5839
 6399SOL     OW23112   9.642   1.078   5.050  0.9028  0.2997 -0.1450
 6399SOL    HW123113   9.636   0.997   5.000 -0.0173 -0.2077  0.7343
 6399SOL    HW223114   9.705   1.059   5.120 -0.0988 -0.0442  0.6969
 6400SOL     OW23115   6.410   5.478   0.267  0.1412 -0.0269  0.8720
 6400SOL    HW123116   6.391   5.560   0.313 -2.1708 -1.2095  2.2591
 6400SOL    HW223117   6.324   5.437   0.257  1.0494 -1.5172 -1.3206
 6401SOL     OW23118   0.121   6.573   2.369  0.1140 -0.1318 -0.0421
 6401SOL    HW123119   0.045   6.573   2.311 -1.6290  4.2407  1.7694
 6401SOL    HW223120   0.196   6.586   2.311 -0.5317 -3.1618 -1.7587
 6402SOL     OW23121   5.471   3.351   0.360 -0.5497  0.1679  0.0951
 6402SOL    HW123122   5.528   3.321   0.431 -1.8034  0.9458  1.4765
 6402SOL    HW223123   5.467   3.446   0.371 -0.4648  0.3365 -1.2623
 6403SOL     OW23124   6.160   3.619   7.543 -0.1394  0.1928  0.4377
 6403SOL    HW123125   6.126   3.676   7.474 -0.2748 -0.3723  0.0308
 6403SOL    HW223126   6.084   3.595   7.595  0.0409  1.0478  1.1148
 6404SOL     OW23127   1.834   5.600   5.648  0.9693 -0.3403  0.1874
 6404SOL    HW123128   1.922   5.597   5.686 -0.0996  0.2411  2.8850
 6404SOL    HW223129   1.823   5.514   5.607  2.1595 -1.0794  1.3604
 6405SOL     OW23130   2.177   5.083   7.237  0.0907 -0.2782  0.1684
 6405SOL    HW123131   2.233   5.159   7.229  2.1812 -1.6094  1.2818
 6405SOL    HW223132   2.157   5.077   7.330  0.7352 -1.5835  0.2456
 6406SOL     OW23133   3.822   7.419   0.981 -0.5838  0.2466 -0.0243
 6406SOL    HW123134   3.793   7.492   0.928  1.5977 -0.1631 -1.9193
 6406SOL    HW223135   3.741   7.383   1.018 -1.7143  3.6801  1.2235
 6407SOL     OW23136   1.767   6.693   5.876 -0.7693 -0.1520  0.5093
 6407SOL    HW123137   1.842   6.633   5.881 -0.9711 -0.4548 -0.0388
 6407SOL    HW223138   1.702   6.646   5.825 -1.4586 -0.0116  1.2448
 6408SOL     OW23139   3.085   6.288   0.786  0.4874  0.2322 -0.4238
 6408SOL    HW123140   3.031   6.330   0.853  0.4351  0.1082 -0.3877
 6408SOL    HW223141   3.062   6.334   0.705  1.2261  0.9942 -0.2082
 6409SOL     OW23142   7.275   7.744   4.513 -0.3907  0.3998 -0.3522
 6409SOL    HW123143   7.318   7.705   4.436 -2.4214 -0.0823 -1.3166
 6409SOL    HW223144   7.194   7.782   4.478 -0.7937  1.2106  1.3821
 6410SOL     OW23145   0.153   5.754   1.446  0.7009 -0.1080 -0.4020
 6410SOL    HW123146   0.150   5.673   1.397 -0.8154 -0.3816  0.1024
 6410SOL    HW223147   0.226   5.803   1.407 -0.0946 -0.5244 -2.5575
 6411SOL     OW23148   9.225   4.738   0.006  0.4080 -0.2974 -0.2854
 6411SOL    HW123149   9.140   4.768  -0.028 -0.8695 -0.0689  2.7716
 6411SOL    HW223150   9.289   4.775  -0.054 -1.5776  0.9887 -1.7374
 6412SOL     OW23151   9.996   2.520   3.211 -0.3863 -0.6522 -0.3354
 6412SOL    HW123152  10.011   2.495   3.119 -0.4396 -0.2827 -0.4446
 6412SOL    HW223153   9.991   2.615   3.209 -1.0636 -0.6783 -0.0502
 6413SOL     OW23154   3.059   3.643   6.923  0.8836  0.3792 -0.4096
 6413SOL    HW123155   3.034   3.735   6.921 -0.6636  0.0464  1.2554
 6413SOL    HW223156   3.116   3.632   6.847 -0.8524  2.1461 -2.0648
 6414SOL     OW23157   1.984   6.329   1.213  0.1529 -0.6378  0.0453
 6414SOL    HW123158   1.974   6.286   1.128 -0.6444 -0.8696  0.2553
 6414SOL    HW223159   1.909   6.389   1.219  0.5149 -0.2066  0.3425
 6415SOL     OW23160   1.779   6.455   7.614 -0.5130  0.2041 -0.0643
 6415SOL    HW123161   1.828   6.387   7.568 -0.9847  0.5173 -1.0375
 6415SOL    HW223162   1.771   6.526   7.551  1.9473  2.1518  1.6149
 6416SOL     OW23163   9.486   8.110   4.121 -0.0950  0.2051 -0.0796
 6416SOL    HW123164   9.528   8.095   4.036  0.5119  0.8207  0.1069
 6416SOL    HW223165   9.556   8.144   4.177 -0.3487 -0.7337  0.8389
 6417SOL     OW23166   6.799   1.940  10.130  0.1365  0.5298  0.6396
 6417SOL    HW123167   6.725   1.888  10.097 -1.3037  0.6953  3.3009
 6417SOL    HW223168   6.765   2.030  10.132  2.4240  1.7008 -3.4373
 6418SOL     OW23169   2.859   8.246   8.262  0.3706  0.1614  0.1398
 6418SOL    HW123170   2.849   8.275   8.171 -0.2945 -0.0005  0.1557
 6418SOL    HW223171   2.928   8.302   8.297 -0.2410  1.0896 -0.1030
 6419SOL     OW23172   7.857   3.112   9.395 -0.1385  0.1140  0.0294
 6419SOL    HW123173   7.937   3.089   9.348 -0.4498 -1.6006  0.2725
 6419SOL    HW223174   7.826   3.029   9.432 -0.1812  1.2879  2.8816
 6420SOL     OW23175   4.903  10.127   5.016  0.0028  0.4652  0.1730
 6420SOL    HW123176   4.958  10.082   4.952  0.4002  0.6332  0.3926
 6420SOL    HW223177   4.961  10.143   5.091 -1.1406 -2.4776  1.8977
 6421SOL     OW23178   5.970   7.946   6.021  0.1999  0.1160 -0.2068
 6421SOL    HW123179   5.957   7.936   6.115  0.0035 -3.0155 -0.4785
 6421SOL    HW223180   5.882   7.946   5.984  0.3322 -0.3985 -0.5231
 6422SOL     OW23181   5.055   2.590   4.294 -0.3870 -0.2947  0.1998
 6422SOL    HW123182   5.069   2.666   4.351  0.0122 -0.6953  0.6438
 6422SOL    HW223183   4.960   2.578   4.293 -0.4089 -0.1682  0.6216
 6423SOL     OW23184   7.109   4.449   8.626  0.1610  0.0662  0.1904
 6423SOL    HW123185   7.198   4.427   8.653 -0.1673 -1.9574 -0.1867
 6423SOL    HW223186   7.095   4.538   8.658  2.2544  0.3679  0.3828
 6424SOL     OW23187   1.476   7.004   5.553 -0.1550 -0.2174 -0.0707
 6424SOL    HW123188   1.500   6.978   5.642 -0.3987  1.4389  0.5255
 6424SOL    HW223189   1.401   7.062   5.564  1.3792  2.1207 -1.0728
 6425SOL     OW23190   6.109   0.627   5.153  0.1474  0.4460 -0.1837
 6425SOL    HW123191   6.106   0.649   5.247  0.8447 -0.0460 -0.0365
 6425SOL    HW223192   6.185   0.675   5.120  1.4971 -1.3818  0.0747
 6426SOL     OW23193   5.903   4.794   2.397 -0.2989  0.2084  0.6748
 6426SOL    HW123194   5.937   4.852   2.329 -2.6797  0.8341 -0.0953
 6426SOL    HW223195   5.963   4.805   2.471  0.7030  1.7459 -0.3169
 6427SOL     OW23196   1.790   0.837   4.836  0.2162  0.6460 -0.2278
 6427SOL    HW123197   1.791   0.760   4.894  0.8802  1.3818  0.7638
 6427SOL    HW223198   1.765   0.802   4.751  1.1814 -0.7833  0.0445
 6428SOL     OW23199   4.089   9.356   2.716 -0.0252 -0.2177 -0.2761
 6428SOL    HW123200   4.071   9.280   2.660  1.4682 -1.8859  1.3630
 6428SOL    HW223201   4.013   9.413   2.704 -1.7656 -2.4854 -0.7273
 6429SOL     OW23202   6.080   0.194   9.520  0.3258 -0.0943  0.4302
 6429SOL    HW123203   6.019   0.124   9.544  0.7503 -0.5480  0.2013
 6429SOL    HW223204   6.024   0.270   9.507 -0.8490 -1.3868 -3.8310
 6430SOL     OW23205   1.842   0.055   6.484  0.5080 -0.8456  0.0452
 6430SOL    HW123206   1.787   0.047   6.561  2.5045  0.3389  1.7199
 6430SOL    HW223207   1.878  -0.033   6.470 -1.6863 -1.6394 -1.0956
 6431SOL     OW23208   3.267   0.560   1.426 -0.4921  0.0985  0.1020
 6431SOL    HW123209   3.292   0.559   1.519 -3.0489  3.0080  0.9976
 6431SOL    HW223210   3.171   0.557   1.427 -0.5907  0.1484 -2.4797
 6432SOL     OW23211   3.937   9.588   2.544 -0.2910 -0.2347  0.1022
 6432SOL    HW123212   3.901   9.584   2.633  0.4188  1.6865  0.5191
 6432SOL    HW223213   3.866   9.625   2.491 -0.3840 -0.4594  0.0711
 6433SOL     OW23214  10.008   6.124   8.243  0.1164  0.0306 -0.2127
 6433SOL    HW123215   9.916   6.102   8.229  0.3027 -0.9937  0.0733
 6433SOL    HW223216  10.007   6.216   8.267 -0.7788  0.1883 -0.7677
 6434SOL     OW23217   3.667   3.493   6.120 -0.5626 -0.2604 -0.3748
 6434SOL    HW123218   3.735   3.537   6.068 -0.0309  1.0183  1.3072
 6434SOL    HW223219   3.717   3.442   6.185 -1.2073 -1.6584 -0.9484
 6435SOL     OW23220   4.256   0.346   8.921  0.8649 -0.1360 -0.1851
 6435SOL    HW123221   4.274   0.269   8.868  1.4580  0.4363 -0.8563
 6435SOL    HW223222   4.217   0.313   9.001  2.4393 -1.2561  0.1595
 6436SOL     OW23223   8.151   3.750   5.168 -0.4116  0.2313  0.1676
 6436SOL    HW123224   8.070   3.737   5.217  0.3470  1.1197  1.7166
 6436SOL    HW223225   8.130   3.720   5.079 -2.2657 -0.0353  0.6544
 6437SOL     OW23226   5.748  10.151   1.306 -0.2921 -0.3488  0.0658
 6437SOL    HW123227   5.823  10.096   1.282  0.6389  1.3532 -1.1794
 6437SOL    HW223228   5.776  10.196   1.385 -0.5769 -0.7722  0.4090
 6438SOL     OW23229   9.821   0.900   2.059 -0.3711  0.0881  0.2059
 6438SOL    HW123230   9.902   0.855   2.079 -0.7229 -0.3958  0.5607
 6438SOL    HW223231   9.832   0.930   1.968 -0.6720 -1.9374 -0.5488
 6439SOL     OW23232   2.413   5.609   7.519  0.1786  0.0006  0.0906
 6439SOL    HW123233   2.351   5.582   7.451  0.0382  0.9339 -0.1661
 6439SOL    HW223234   2.367   5.594   7.601  0.2377 -0.8590 -0.0245
 6440SOL     OW23235   6.007   6.095   6.983 -0.4320 -0.2910 -0.1787
 6440SOL    HW123236   5.927   6.044   6.972 -0.3603 -0.3077 -0.6226
 6440SOL    HW223237   5.994   6.173   6.929 -0.4580  0.0742  0.3392
 6441SOL     OW23238   8.105   8.769   9.505  0.5516  0.3170  0.3504
 6441SOL    HW123239   8.069   8.857   9.505  1.5879  0.7562 -0.1646
 6441SOL    HW223240   8.039   8.716   9.550 -0.6839  1.1025 -0.4568
 6442SOL     OW23241   8.063   0.877   0.245  0.0481 -0.3377 -0.2368
 6442SOL    HW123242   8.156   0.894   0.250  0.0692 -0.6653  0.7601
 6442SOL    HW223243   8.044   0.824   0.323 -0.8318 -0.8899 -0.8004
 6443SOL     OW23244   7.246  10.172   0.294 -0.2519  0.0335 -0.5451
 6443SOL    HW123245   7.231  10.105   0.228  0.4809  0.3875 -1.0913
 6443SOL    HW223246   7.337  10.161   0.320 -0.2417  0.5545 -0.3394
 6444SOL     OW23247   9.128   6.963   9.461  0.5576  0.2245  0.1396
 6444SOL    HW123248   9.054   6.952   9.401  0.0974  1.2823  0.4801
 6444SOL    HW223249   9.140   6.877   9.501  0.1399 -0.2046 -0.6287
 6445SOL     OW23250   7.994   6.763   9.540 -0.2651 -0.4822 -0.1803
 6445SOL    HW123251   7.952   6.677   9.533 -1.9677  0.1881  1.1712
 6445SOL    HW223252   8.044   6.758   9.621  0.4503 -0.4969 -0.6094
 6446SOL     OW23253   3.957   5.975   9.796 -0.2462  0.0184  0.1700
 6446SOL    HW123254   3.870   5.936   9.785 -0.5072 -0.0169  2.0019
 6446SOL    HW223255   3.941   6.060   9.837  0.4664  1.1458 -1.7617
 6447SOL     OW23256   6.631   4.669   4.743  0.7767 -0.1470  0.0541
 6447SOL    HW123257   6.627   4.595   4.682  3.5614 -0.3402 -0.0050
 6447SOL    HW223258   6.694   4.729   4.704 -0.3258  1.6175  0.8448
 6448SOL     OW23259   2.423   3.296   0.552  0.1103 -0.1841 -0.1302
 6448SOL    HW123260   2.336   3.275   0.586 -0.2150 -0.4376 -1.0804
 6448SOL    HW223261   2.418   3.275   0.458  0.1853  2.7571 -0.9049
 6449SOL     OW23262   5.093   8.570   3.560  0.0152 -0.6146  0.0103
 6449SOL    HW123263   5.156   8.557   3.489  0.9622  0.7171  0.5778
 6449SOL    HW223264   5.117   8.653   3.600 -0.2958 -1.4522  2.1125
 6450SOL     OW23265   2.095   2.817   1.896 -0.0994  0.0705 -0.1997
 6450SOL    HW123266   2.160   2.747   1.889  0.0702  0.1626  0.4041
 6450SOL    HW223267   2.117   2.862   1.978 -0.2166  0.8219 -0.5769
 6451SOL     OW23268   7.315   5.799   8.529  0.0117 -0.0306 -0.2018
 6451SOL    HW123269   7.266   5.718   8.519 -0.1264 -0.0167  0.3011
 6451SOL    HW223270   7.269   5.862   8.473  0.4156 -0.4206 -0.9791
 6452SOL     OW23271   1.080   8.951   1.753 -0.4868  0.4175 -0.0647
 6452SOL    HW123272   1.099   8.963   1.660  2.2143  1.0756  0.5075
 6452SOL    HW223273   1.021   9.023   1.775 -1.4229  0.0645 -1.3037
 6453SOL     OW23274   6.773   0.387   9.661  0.1626  0.2672 -0.3841
 6453SOL    HW123275   6.765   0.349   9.749 -0.7624 -0.2052 -0.6576
 6453SOL    HW223276   6.800   0.314   9.606 -1.9131 -0.1168 -0.9695
 6454SOL     OW23277   7.215   9.320   7.972  0.8981  0.3240  0.4854
 6454SOL    HW123278   7.202   9.361   7.886  2.3018  0.1263  0.1436
 6454SOL    HW223279   7.225   9.227   7.953  1.7594  0.3445  0.7872
 6455SOL     OW23280   1.754   8.346   5.785  0.2167 -0.3928 -0.3996
 6455SOL    HW123281   1.846   8.364   5.803  0.5699 -1.6907 -0.8003
 6455SOL    HW223282   1.709   8.427   5.807  1.6012  0.6939 -1.3656
 6456SOL     OW23283   8.379   5.737   4.222 -0.0505 -0.5397  0.1771
 6456SOL    HW123284   8.465   5.758   4.258 -0.1386  1.2829 -0.5501
 6456SOL    HW223285   8.324   5.812   4.247 -1.3743 -1.5817  0.4644
 6457SOL     OW23286   9.361  10.016   8.262 -0.5677 -0.4494  0.8030
 6457SOL    HW123287   9.347   9.991   8.353  0.9444 -3.0137  0.4215
 6457SOL    HW223288   9.414  10.095   8.267 -1.2503 -0.0362  2.1192
 6458SOL     OW23289   7.606   3.881   4.759 -0.0294 -0.1179 -0.6013
 6458SOL    HW123290   7.544   3.953   4.769  0.9832  1.0168 -2.1593
 6458SOL    HW223291   7.691   3.919   4.780  0.4485 -1.0235 -0.8436
 6459SOL     OW23292   3.960   3.908   3.759  0.0423 -0.8097 -0.6283
 6459SOL    HW123293   3.866   3.925   3.762  0.1525 -0.1356 -0.8756
 6459SOL    HW223294   3.967   3.813   3.756 -0.5608 -1.0111  1.9579
 6460SOL     OW23295   9.858   4.634   1.881  0.2363  0.6485  0.5950
 6460SOL    HW123296   9.812   4.551   1.886  0.9871  0.1111 -0.8419
 6460SOL    HW223297   9.913   4.636   1.959  0.5240 -0.4081  0.4343
 6461SOL     OW23298   0.350   5.298   2.573 -0.2643  0.1003 -0.2524
 6461SOL    HW123299   0.418   5.344   2.524 -0.4821  0.8894  0.1818
 6461SOL    HW223300   0.270   5.314   2.523  0.1177 -2.6125 -2.0081
 6462SOL     OW23301   3.024   3.129   4.384 -0.0594 -0.9133 -0.9962
 6462SOL    HW123302   3.114   3.135   4.353 -0.5710  1.1145 -2.2584
 6462SOL    HW223303   2.976   3.089   4.311 -0.4779 -0.3727 -1.0232
 6463SOL     OW23304  10.103  10.004   6.597  0.1315 -0.6689 -0.4445
 6463SOL    HW123305  10.103   9.912   6.573 -0.5292 -1.0610  0.9156
 6463SOL    HW223306  10.050  10.047   6.531 -0.3897 -1.4339 -0.5279
 6464SOL     OW23307   3.148   4.681   7.180 -0.0567  0.0221  0.1507
 6464SOL    HW123308   3.093   4.685   7.101 -0.9564  1.5114  0.8107
 6464SOL    HW223309   3.094   4.636   7.245  0.5281 -0.8365  0.0621
 6465SOL     OW23310   6.939   7.892   0.225  0.1163 -0.0738 -0.5461
 6465SOL    HW123311   6.966   7.960   0.287 -1.4856 -0.9515  1.2222
 6465SOL    HW223312   6.888   7.939   0.159 -0.9888  0.4703  0.6532
 6466SOL     OW23313   9.647   5.155   3.119 -0.1033  0.3478  0.3585
 6466SOL    HW123314   9.559   5.134   3.151  0.3538 -1.8378  0.2963
 6466SOL    HW223315   9.705   5.094   3.164  0.9227 -0.8612 -2.3573
 6467SOL     OW23316   5.987   5.259   4.211 -1.0167 -0.3087  0.1850
 6467SOL    HW123317   6.011   5.215   4.293  2.1064 -1.8603 -1.3781
 6467SOL    HW223318   5.921   5.202   4.172 -2.2686  0.2589  1.3663
 6468SOL     OW23319   6.355   6.913   6.973  0.2051 -0.1121  0.0645
 6468SOL    HW123320   6.389   6.933   6.886 -1.2938  0.5052 -0.4113
 6468SOL    HW223321   6.263   6.937   6.969  0.3828  1.2626  2.2354
 6469SOL     OW23322   2.146   6.097   9.156 -0.1363  0.4731  1.0999
 6469SOL    HW123323   2.078   6.115   9.091 -0.1555  0.3778  1.0930
 6469SOL    HW223324   2.104   6.117   9.240  0.2250  1.6446  1.0252
 6470SOL     OW23325   4.470   5.103   8.215  0.0545  0.3018 -0.1527
 6470SOL    HW123326   4.407   5.119   8.285 -0.0068  0.3370 -0.2151
 6470SOL    HW223327   4.442   5.162   8.144  0.2543  0.4371 -0.1216
 6471SOL     OW23328   9.985   5.598   2.834  0.2504 -0.0335 -0.5499
 6471SOL    HW123329  10.061   5.566   2.786  0.7841 -1.3737  1.1012
 6471SOL    HW223330   9.999   5.692   2.843  0.7630  0.0320 -1.8691
 6472SOL     OW23331   6.031   9.002   8.095  0.0797  0.4975 -0.1134
 6472SOL    HW123332   5.963   8.935   8.100  0.9954 -0.6239 -1.7736
 6472SOL    HW223333   5.994   9.071   8.040  0.7963 -0.8332 -2.3544
 6473SOL     OW23334   3.892   7.694   4.018 -0.5923  0.0435 -0.0639
 6473SOL    HW123335   3.940   7.772   3.991 -0.4012 -0.0519 -0.0003
 6473SOL    HW223336   3.805   7.726   4.042  0.1284  0.5788  2.0655
 6474SOL     OW23337   7.858   8.497   1.748  0.6105 -0.0308 -0.2760
 6474SOL    HW123338   7.880   8.430   1.812 -0.1456 -2.4682 -2.3828
 6474SOL    HW223339   7.940   8.516   1.703  0.5220 -0.8507 -0.8005
 6475SOL     OW23340   1.221   3.672   6.434 -0.3831 -0.3176 -0.5685
 6475SOL    HW123341   1.309   3.684   6.469  0.4839 -1.3377 -2.2634
 6475SOL    HW223342   1.202   3.754   6.388 -1.1097  0.6139  1.2475
 6476SOL     OW23343   2.410   6.924   4.129 -0.0232  0.1348  0.1633
 6476SOL    HW123344   2.458   6.881   4.200 -0.4670 -0.5362  0.0713
 6476SOL    HW223345   2.413   6.861   4.057 -0.2147  0.4954 -0.1633
 6477SOL     OW23346   2.113   3.044   2.062 -0.3312 -0.2637 -0.2598
 6477SOL    HW123347   2.025   3.080   2.054 -0.9331 -1.0234  2.0694
 6477SOL    HW223348   2.137   3.061   2.153  1.7329 -0.5714 -0.6921
 6478SOL     OW23349   4.008  10.202   6.846 -0.2746 -0.0472  0.1469
 6478SOL    HW123350   3.913  10.190   6.845 -0.0705 -1.8519  0.2813
 6478SOL    HW223351   4.020  10.289   6.885 -1.8722  0.3899 -0.2688
 6479SOL     OW23352   6.310   3.059   5.878  0.1700 -0.0122 -0.1635
 6479SOL    HW123353   6.229   3.037   5.925 -0.0010  2.8381  1.0395
 6479SOL    HW223354   6.361   2.977   5.879 -1.8487 -1.3357  0.7464
 6480SOL     OW23355   3.113   7.130   0.909  0.4502 -0.4594  0.3753
 6480SOL    HW123356   3.024   7.153   0.881  1.3350 -0.0694 -2.3806
 6480SOL    HW223357   3.150   7.212   0.940 -0.0157 -0.5445  1.1722
 6481SOL     OW23358   4.823   4.662   9.563  0.7559 -0.2343  0.6602
 6481SOL    HW123359   4.778   4.723   9.622 -1.6148 -2.0014  0.8516
 6481SOL    HW223360   4.865   4.600   9.622  0.4953 -0.5714  0.4949
 6482SOL     OW23361   5.240   9.061   0.730  0.2377 -0.4489 -0.1474
 6482SOL    HW123362   5.227   8.972   0.764  1.2231 -0.9212 -0.9191
 6482SOL    HW223363   5.335   9.073   0.733  0.3042 -0.2419 -1.9878
 6483SOL     OW23364   5.959   2.177   7.304 -0.5131  0.0726 -0.2567
 6483SOL    HW123365   6.024   2.114   7.274  0.1056  0.5572  0.0228
 6483SOL    HW223366   6.001   2.262   7.291 -0.8676  0.3698  0.4519
 6484SOL     OW23367   2.099   0.268   5.747  0.1214  0.1391  0.0860
 6484SOL    HW123368   2.062   0.184   5.721 -1.7274 -0.3225  3.5959
 6484SOL    HW223369   2.027   0.331   5.734  0.9631  0.8993 -1.0100
 6485SOL     OW23370   3.906   2.110   9.829  0.0856 -0.0596  0.2939
 6485SOL    HW123371   3.921   2.203   9.812 -0.7079 -0.2332 -1.5837
 6485SOL    HW223372   3.993   2.074   9.843  0.5248  0.7096 -0.3613
 6486SOL     OW23373   1.764   0.396   1.578  0.1823  0.1516 -0.3917
 6486SOL    HW123374   1.673   0.417   1.600  0.1715  1.2938 -1.3855
 6486SOL    HW223375   1.807   0.385   1.662 -1.1109 -1.6209  0.0999
 6487SOL     OW23376   7.224   4.339   7.179  0.3997  0.2193  0.2607
 6487SOL    HW123377   7.302   4.299   7.216  0.2700 -0.4076 -0.1341
 6487SOL    HW223378   7.230   4.322   7.085  1.2030  2.6201 -0.1803
 6488SOL     OW23379   1.882   3.557   3.212 -0.0406 -0.3876  1.1959
 6488SOL    HW123380   1.882   3.542   3.306  0.9208  0.3244  1.3267
 6488SOL    HW223381   1.965   3.521   3.181  0.4872  0.9602  0.9268
 6489SOL     OW23382   1.943   6.641   3.882  0.2471 -0.3251 -0.4214
 6489SOL    HW123383   1.941   6.561   3.934 -0.3460  0.2526  0.4815
 6489SOL    HW223384   1.967   6.709   3.944 -1.6023  0.5671 -0.6140
 6490SOL     OW23385   3.003   1.954   9.097  0.3577 -0.0675 -0.1375
 6490SOL    HW123386   2.951   1.908   9.163 -1.3286  1.0673 -0.5972
 6490SOL    HW223387   3.064   2.008   9.148  0.8050 -1.0816  0.4235
 6491SOL     OW23388   1.436   4.368   2.457 -0.1140 -0.2183 -0.3817
 6491SOL    HW123389   1.531   4.368   2.468 -0.0705 -2.0398 -0.5113
 6491SOL    HW223390   1.402   4.343   2.543 -0.6896  3.2828  0.5618
 6492SOL     OW23391   7.493   4.485  10.027 -0.2734 -0.0126 -0.0933
 6492SOL    HW123392   7.515   4.406   9.978  0.5354  0.2143 -0.0996
 6492SOL    HW223393   7.486   4.456  10.118 -0.2632 -0.1429 -0.1336
 6493SOL     OW23394   0.461   0.355   8.982  0.0643 -0.5840 -0.3633
 6493SOL    HW123395   0.514   0.372   9.060 -1.3342  0.1018  0.4604
 6493SOL    HW223396   0.375   0.332   9.016 -0.9609  1.0710 -1.7180
 6494SOL     OW23397   5.590   7.446   0.530 -0.1269  0.1856 -0.1784
 6494SOL    HW123398   5.516   7.460   0.470 -0.0332  0.9617 -0.1145
 6494SOL    HW223399   5.646   7.383   0.484 -1.1306 -0.9087  0.0415
 6495SOL     OW23400   4.656   4.745   9.777  0.3562  0.7209 -0.2723
 6495SOL    HW123401   4.614   4.663   9.749  0.9486  0.7278 -1.2046
 6495SOL    HW223402   4.602   4.775   9.850  0.0882 -0.4673  0.0455
 6496SOL     OW23403   2.416   0.631   6.636 -0.4569  0.9558 -0.1291
 6496SOL    HW123404   2.359   0.697   6.675 -0.9216  0.8870 -0.6921
 6496SOL    HW223405   2.412   0.557   6.697 -0.5809  1.1335  0.0809
 6497SOL     OW23406   9.096   6.957   3.857 -0.3110 -0.5651 -0.3161
 6497SOL    HW123407   9.011   6.967   3.815  0.5195  1.5255 -1.6438
 6497SOL    HW223408   9.152   6.918   3.790  0.4260  0.5567 -0.3862
 6498SOL     OW23409   5.302   1.309   0.046 -0.1948 -0.6511  0.5701
 6498SOL    HW123410   5.314   1.241   0.112 -2.6574 -2.1561 -0.3720
 6498SOL    HW223411   5.241   1.371   0.086  0.1440 -0.3045  0.5517
 6499SOL     OW23412   3.123   3.442   2.073 -0.0976 -0.2626  0.0695
 6499SOL    HW123413   3.180   3.366   2.080 -0.4594 -0.5008  0.4495
 6499SOL    HW223414   3.039   3.407   2.043  0.2096  0.2080 -1.4602
 6500SOL     OW23415   4.004   4.436   0.797 -0.4318  0.1177  0.2157
 6500SOL    HW123416   3.946   4.393   0.860 -1.3569  0.1717 -0.5698
 6500SOL    HW223417   3.954   4.512   0.766  0.5647  0.8892  0.4374
 6501SOL     OW23418   9.969   9.202   9.482 -0.1847  0.2477 -0.0149
 6501SOL    HW123419   9.996   9.201   9.574 -3.7652  0.2391  1.1596
 6501SOL    HW223420   9.922   9.285   9.472 -1.4926 -0.5992 -1.2731
 6502SOL     OW23421   0.073   0.224   7.498 -0.1831  0.9387 -0.3251
 6502SOL    HW123422   0.053   0.136   7.529 -0.2378  1.1232  0.1785
 6502SOL    HW223423   0.082   0.215   7.404  2.3290 -0.0666 -0.0514
 6503SOL     OW23424   1.216   3.213   2.334  0.3679 -0.4843  0.5102
 6503SOL    HW123425   1.179   3.295   2.366  0.4894 -0.5555  0.8327
 6503SOL    HW223426   1.218   3.224   2.239  0.1636 -0.2075  0.5354
 6504SOL     OW23427  10.205   6.566   5.934 -0.1748 -0.1788 -0.2308
 6504SOL    HW123428  10.258   6.500   5.980 -0.9116 -0.0765  0.8059
 6504SOL    HW223429  10.267   6.636   5.915  0.0516  0.0738  1.2457
 6505SOL     OW23430   2.100   4.070   7.579 -0.1163 -0.0479  0.0665
 6505SOL    HW123431   2.026   4.085   7.519 -0.6300 -0.6381  0.5393
 6505SOL    HW223432   2.070   4.000   7.636  1.4080 -1.4230 -0.7439
 6506SOL     OW23433   0.650   9.874   9.636 -0.2030 -0.2004  0.3275
 6506SOL    HW123434   0.726   9.854   9.582  0.9306  0.4355  1.6277
 6506SOL    HW223435   0.623   9.961   9.608  1.0278  0.5759  1.4334
 6507SOL     OW23436   6.441   1.912   6.392 -0.1039 -0.3331  0.2817
 6507SOL    HW123437   6.384   1.839   6.413  0.9256 -1.0200  0.7413
 6507SOL    HW223438   6.399   1.988   6.432 -0.8059 -0.7875  0.4208
 6508SOL     OW23439   4.327   0.584   4.988  0.1526  0.6824 -0.0018
 6508SOL    HW123440   4.397   0.529   5.023  0.1181 -0.4982 -1.6410
 6508SOL    HW223441   4.249   0.557   5.037  0.6328  1.2772  1.1188
 6509SOL     OW23442   8.193   5.940   3.184  0.1624  0.4482 -0.3006
 6509SOL    HW123443   8.234   5.871   3.236  0.4957 -0.4737 -1.7324
 6509SOL    HW223444   8.206   6.020   3.235  1.2053 -0.2872  0.6177
 6510SOL     OW23445   3.821   8.938   0.833  0.4506  0.4340 -0.0347
 6510SOL    HW123446   3.893   8.874   0.841  1.2318  1.1778 -0.8831
 6510SOL    HW223447   3.770   8.907   0.759  0.4217  0.4159 -0.0072
 6511SOL     OW23448   4.405   9.533   9.451 -0.2308 -0.1390 -0.2102
 6511SOL    HW123449   4.331   9.544   9.510  0.4282 -1.4843  0.9506
 6511SOL    HW223450   4.379   9.576   9.370 -1.2512  1.6154  0.9982
 6512SOL     OW23451   5.258   2.643   0.589  0.1102 -0.0996 -0.3382
 6512SOL    HW123452   5.325   2.703   0.556  0.7255 -1.0521 -0.8508
 6512SOL    HW223453   5.202   2.626   0.513 -1.9436  2.1935  0.5052
 6513SOL     OW23454   0.550   1.420   6.289  0.2923  0.4272 -0.4410
 6513SOL    HW123455   0.500   1.501   6.299 -0.8805 -0.2560 -0.5387
 6513SOL    HW223456   0.630   1.435   6.339  0.0596  1.6113 -0.3927
 6514SOL     OW23457   5.128   7.398   9.989 -0.4101  0.6338  0.9429
 6514SOL    HW123458   5.118   7.461  10.061  0.1840 -0.7204  2.2691
 6514SOL    HW223459   5.222   7.384   9.982 -0.3062  1.9002 -1.2115
 6515SOL     OW23460   3.195   2.597   9.161  0.6645 -0.1317  0.0891
 6515SOL    HW123461   3.101   2.606   9.181  0.6879 -1.4190  0.9074
 6515SOL    HW223462   3.214   2.670   9.103 -0.5213  1.0248  1.0819
 6516SOL     OW23463   9.462   0.308   2.007  0.7754  0.1023  0.3816
 6516SOL    HW123464   9.394   0.245   2.028  0.0717  1.2089  1.6193
 6516SOL    HW223465   9.433   0.348   1.925  0.1307  0.2767  0.6877
 6517SOL     OW23466   8.631   0.314   2.271  0.0580  0.4007  0.2656
 6517SOL    HW123467   8.616   0.407   2.252  1.8800  0.7290  0.2263
 6517SOL    HW223468   8.658   0.276   2.188 -0.4289 -0.1187  0.3373
 6518SOL     OW23469   6.864   2.547   0.568  0.0959 -0.0046 -0.3341
 6518SOL    HW123470   6.915   2.604   0.625 -0.2015 -0.9045  0.8622
 6518SOL    HW223471   6.930   2.497   0.520  0.3598 -0.7228  0.7518
 6519SOL     OW23472   4.848   5.600   0.423  0.0537  0.3659 -0.2433
 6519SOL    HW123473   4.814   5.689   0.417 -0.6232  0.0477 -1.4745
 6519SOL    HW223474   4.865   5.575   0.332  2.6538  0.1364  0.2110
 6520SOL     OW23475   0.326   2.245   3.647  0.5413 -0.2833 -0.0502
 6520SOL    HW123476   0.417   2.270   3.637  1.0357 -0.9136  2.3600
 6520SOL    HW223477   0.322   2.155   3.613  0.4755  0.1887 -1.3753
 6521SOL     OW23478   2.857   8.112   3.188 -0.3876 -0.0138 -0.2496
 6521SOL    HW123479   2.794   8.040   3.188 -1.9724  1.2923 -0.8513
 6521SOL    HW223480   2.914   8.094   3.263 -0.1110 -2.3541 -0.9536
 6522SOL     OW23481   2.202   1.397   7.117 -0.7073 -0.3118 -0.1354
 6522SOL    HW123482   2.214   1.490   7.137 -0.9981 -0.4371  0.6550
 6522SOL    HW223483   2.218   1.353   7.200  1.7733 -1.1894 -0.9808
 6523SOL     OW23484   1.032   9.278   0.336  0.1236 -0.7365  0.2114
 6523SOL    HW123485   0.996   9.360   0.370 -1.5410 -1.9063  1.4187
 6523SOL    HW223486   1.091   9.305   0.265 -1.7802  1.4045 -0.6648
 6524SOL     OW23487   1.854   5.944   9.568 -0.3842  0.2130  0.3245
 6524SOL    HW123488   1.875   5.872   9.508 -4.2579 -1.8842  1.1614
 6524SOL    HW223489   1.918   5.936   9.638  1.3095 -0.2723 -1.2131
 6525SOL     OW23490   3.152   2.638   3.646 -0.9940  0.3957 -0.1059
 6525SOL    HW123491   3.227   2.593   3.606  0.5566  2.2799  0.5307
 6525SOL    HW223492   3.156   2.613   3.738 -0.6123  1.1699  0.0929
 6526SOL     OW23493   3.453   2.478   5.408 -0.1449  0.1991  0.3009
 6526SOL    HW123494   3.401   2.558   5.398 -0.9853 -0.2810  0.7624
 6526SOL    HW223495   3.541   2.509   5.429 -0.3318  1.0110 -0.0627
 6527SOL     OW23496   1.386   9.451   1.009 -0.5750 -0.0029 -0.0753
 6527SOL    HW123497   1.304   9.402   0.998 -0.2052 -0.3333 -1.6691
 6527SOL    HW223498   1.427   9.413   1.086 -1.9242  0.1883  0.7810
 6528SOL     OW23499   4.522   9.115   2.723 -0.0420  0.1952 -0.4150
 6528SOL    HW123500   4.443   9.149   2.765 -1.1089  1.0236 -2.8711
 6528SOL    HW223501   4.563   9.060   2.789 -1.5491  1.4178  1.6612
 6529SOL     OW23502   2.119   4.870   4.464  0.1162  0.1046 -0.0189
 6529SOL    HW123503   2.081   4.924   4.395 -0.7661 -1.0213 -0.4561
 6529SOL    HW223504   2.078   4.784   4.452 -0.0249 -0.1315  1.8857
 6530SOL     OW23505   9.536   0.027   8.355 -0.3222  0.3907  0.3891
 6530SOL    HW123506   9.550   0.094   8.423 -0.8220  0.5794  0.3077
 6530SOL    HW223507   9.621  -0.016   8.346  0.1082  1.2561  0.1874
 6531SOL     OW23508   3.456   4.423   1.188  0.3535  0.1743  0.1481
 6531SOL    HW123509   3.472   4.375   1.270  0.6434 -2.2275 -1.2084
 6531SOL    HW223510   3.496   4.508   1.202  0.2748 -0.0981  2.5494
 6532SOL     OW23511   7.002   0.855   2.017  0.1545 -0.3331 -0.2356
 6532SOL    HW123512   6.987   0.949   2.013 -0.3230 -0.3894  0.1795
 6532SOL    HW223513   6.984   0.824   1.928  1.4768  0.1269 -0.6890
 6533SOL     OW23514   4.779   6.516   1.986 -0.1445  0.3152 -0.5455
 6533SOL    HW123515   4.686   6.537   1.993  0.1636  1.2477  2.3014
 6533SOL    HW223516   4.818   6.594   1.947 -0.4380  0.3013 -0.8715
 6534SOL     OW23517  10.036   9.448   9.788 -0.2569 -0.4053  0.1579
 6534SOL    HW123518  10.099   9.376   9.789 -0.7420 -0.8605 -0.8324
 6534SOL    HW223519  10.089   9.526   9.801  0.3115 -0.9110  0.9869
 6535SOL     OW23520   1.085   8.524   7.352 -0.4411 -0.1246 -0.0701
 6535SOL    HW123521   1.180   8.537   7.360 -0.6249  1.2472  0.1036
 6535SOL    HW223522   1.076   8.441   7.306  0.8546 -0.0097 -0.5725
 6536SOL     OW23523   5.810   2.454   1.219  0.3498 -0.1510 -0.1631
 6536SOL    HW123524   5.798   2.515   1.147 -0.0802 -0.3498 -0.2580
 6536SOL    HW223525   5.888   2.486   1.265 -0.3326  0.9443  0.2648
 6537SOL     OW23526   4.169   3.928   7.019  0.2349  0.1251  0.0038
 6537SOL    HW123527   4.163   3.934   6.924  1.3692  0.9906 -0.0370
 6537SOL    HW223528   4.153   4.017   7.050  0.5216 -0.0143  0.5730
 6538SOL     OW23529   6.938   9.884   8.635 -0.2830 -0.1737 -0.7602
 6538SOL    HW123530   7.029   9.904   8.657 -0.1318  0.2110 -1.6731
 6538SOL    HW223531   6.937   9.880   8.539 -1.4661  1.1335 -0.8439
 6539SOL     OW23532   7.547   4.218   4.480 -0.6916  0.4666  0.4243
 6539SOL    HW123533   7.498   4.300   4.484 -1.3956  0.0872 -0.1363
 6539SOL    HW223534   7.637   4.245   4.463 -0.6111  1.1933  1.8583
 6540SOL     OW23535   8.427   5.601   9.157 -0.1011  0.9549  0.0859
 6540SOL    HW123536   8.425   5.619   9.251 -0.1421  2.1210 -0.1286
 6540SOL    HW223537   8.487   5.527   9.148 -1.3513 -0.2552  1.1919
 6541SOL     OW23538   9.107   2.529   6.109  0.3663  0.1929 -0.6196
 6541SOL    HW123539   9.113   2.624   6.099  0.2530  0.1024 -1.7418
 6541SOL    HW223540   9.158   2.510   6.187 -1.2378  1.3711  0.8180
 6542SOL     OW23541   3.201   0.031   7.166 -0.7107 -0.2393  0.5280
 6542SOL    HW123542   3.138  -0.026   7.211  0.8905 -0.8159  2.1419
 6542SOL    HW223543   3.146   0.092   7.116 -2.5155 -3.3586 -1.5879
 6543SOL     OW23544   5.235   3.387   3.110 -0.1551  0.5275 -0.2674
 6543SOL    HW123545   5.152   3.340   3.113 -0.2992  0.7561 -0.5790
 6543SOL    HW223546   5.215   3.467   3.062  0.2950  0.4789 -0.5386
 6544SOL     OW23547   6.215   4.888  10.005  0.2630 -0.6023  0.0529
 6544SOL    HW123548   6.255   4.947  10.069  1.4241  2.0566 -2.8608
 6544SOL    HW223549   6.272   4.811  10.006  2.0383  0.6391  0.1593
 6545SOL     OW23550   9.643   1.624   8.308  0.2255 -0.5273  0.2990
 6545SOL    HW123551   9.667   1.676   8.385 -0.9568  2.2673 -1.0457
 6545SOL    HW223552   9.553   1.595   8.325 -0.8072  1.8037 -0.7164
 6546SOL     OW23553   0.684   0.055   4.845  0.0593 -0.2875 -1.0155
 6546SOL    HW123554   0.697  -0.039   4.850 -0.4435 -0.4418 -2.2177
 6546SOL    HW223555   0.606   0.072   4.898  2.9159  0.2142  3.5184
 6547SOL     OW23556   2.289   9.148   8.354 -0.0048  0.6311  0.2340
 6547SOL    HW123557   2.236   9.222   8.325 -0.4675  0.6251  1.0356
 6547SOL    HW223558   2.249   9.072   8.310 -1.1557  0.5246  1.3961
 6548SOL     OW23559   4.879   8.995   5.400  0.1480  0.5890  0.0744
 6548SOL    HW123560   4.790   8.998   5.366 -0.1308 -0.9399  0.5901
 6548SOL    HW223561   4.869   8.965   5.491  1.0766  1.9464  0.6724
 6549SOL     OW23562   2.599   4.514   5.845 -0.2084 -0.2570 -0.2443
 6549SOL    HW123563   2.557   4.566   5.913  0.0213  0.3940 -0.5960
 6549SOL    HW223564   2.571   4.424   5.863 -0.3982 -0.0483  0.5173
 6550SOL     OW23565   1.090   3.677   4.510  0.1082  0.4614 -0.3733
 6550SOL    HW123566   1.008   3.717   4.481  2.2631  4.0296 -2.1888
 6550SOL    HW223567   1.126   3.636   4.432  0.8414  0.3700  0.0069
 6551SOL     OW23568   0.944   3.652   9.775 -0.2560 -0.1754  0.4736
 6551SOL    HW123569   0.852   3.628   9.788 -0.6122  0.9374  0.0712
 6551SOL    HW223570   0.960   3.721   9.839  0.1933 -0.1139  0.2979
 6552SOL     OW23571   9.537   0.096   2.793  0.2454  0.0124  0.2504
 6552SOL    HW123572   9.489   0.014   2.789 -0.7421  0.6036 -0.3328
 6552SOL    HW223573   9.617   0.074   2.840 -0.1453 -1.2075  0.3866
 6553SOL     OW23574   4.508   1.254   3.710  0.0027 -0.4057  0.1422
 6553SOL    HW123575   4.413   1.262   3.718 -0.0868 -1.6069  0.4577
 6553SOL    HW223576   4.537   1.342   3.685 -0.9469  0.5424  2.1664
 6554SOL     OW23577   6.040   3.004   6.019  0.2182  0.4143  0.1893
 6554SOL    HW123578   6.039   2.925   5.965 -1.0879  0.4916  0.0672
 6554SOL    HW223579   6.034   2.972   6.108 -1.3254  0.3881  0.0919
 6555SOL     OW23580   9.187   8.963   1.386 -0.7259  0.3696 -0.0778
 6555SOL    HW123581   9.146   8.993   1.305  1.9475 -1.1276 -2.1450
 6555SOL    HW223582   9.125   8.899   1.422 -1.7063  0.6311 -1.2452
 6556SOL     OW23583   6.222   1.049   3.433  0.2376  0.1478  0.3175
 6556SOL    HW123584   6.209   1.121   3.372 -0.6841  0.2808  0.6568
 6556SOL    HW223585   6.155   0.985   3.410  0.1671 -0.0000  0.9032
 6557SOL     OW23586   7.021   4.009   2.071  0.2317  0.8935 -0.2391
 6557SOL    HW123587   7.109   3.971   2.073  0.0637  0.5092  0.1065
 6557SOL    HW223588   6.967   3.943   2.028 -0.0480  0.7637  0.2988
 6558SOL     OW23589   2.666   4.035   1.976 -0.1886  0.1089 -0.5551
 6558SOL    HW123590   2.652   4.001   1.887 -0.1189 -1.3338 -0.0303
 6558SOL    HW223591   2.589   4.088   1.993 -0.6188 -0.3057 -1.1660
 6559SOL     OW23592   5.324   7.831   8.886 -0.5017 -0.3659 -0.5789
 6559SOL    HW123593   5.342   7.871   8.801  2.9423  0.6901  0.4796
 6559SOL    HW223594   5.282   7.900   8.937  0.0890 -0.0137 -0.5598
 6560SOL     OW23595   8.174   9.371   1.994 -0.0963 -1.0704 -0.0424
 6560SOL    HW123596   8.202   9.289   1.954 -0.9163 -1.8577  0.9377
 6560SOL    HW223597   8.192   9.360   2.088 -0.2845 -0.1613  0.1175
 6561SOL     OW23598   4.586   4.313   2.522  0.0287  0.6889  0.0161
 6561SOL    HW123599   4.570   4.247   2.455 -1.2907  0.6404  0.3407
 6561SOL    HW223600   4.676   4.342   2.507 -0.3694  0.9921 -2.0480
 6562SOL     OW23601   7.771   7.322   5.784 -0.1098 -0.7279 -0.6359
 6562SOL    HW123602   7.719   7.402   5.779  0.9309 -0.1199 -2.7742
 6562SOL    HW223603   7.742   7.279   5.865 -0.9802  1.5976  0.3628
 6563SOL     OW23604   2.695   5.623   0.966 -0.3305 -0.5293  0.0809
 6563SOL    HW123605   2.735   5.580   1.042  1.9611 -0.5187 -1.0150
 6563SOL    HW223606   2.752   5.699   0.949 -2.2260  0.8992 -0.1880
 6564SOL     OW23607   5.859   8.215   8.027  0.4043  0.5386  0.3615
 6564SOL    HW123608   5.894   8.275   7.962  0.5520 -0.9520 -1.0137
 6564SOL    HW223609   5.926   8.211   8.096  0.4850  1.7341  0.3579
 6565SOL     OW23610   2.507   8.704   9.756  0.1212  0.6684 -0.3570
 6565SOL    HW123611   2.422   8.720   9.714 -0.5497 -1.0324  0.2591
 6565SOL    HW223612   2.571   8.746   9.698 -1.1698  2.6424 -0.4325
 6566SOL     OW23613   1.304   1.831   3.622  0.3462  0.2093  0.5156
 6566SOL    HW123614   1.250   1.889   3.676 -0.9734 -1.2672  0.8416
 6566SOL    HW223615   1.358   1.891   3.571 -0.6105  1.7239  1.1854
 6567SOL     OW23616   5.070   2.119   4.827 -0.3992  0.0907  0.3125
 6567SOL    HW123617   5.091   2.035   4.867 -2.8918 -1.8924 -2.1989
 6567SOL    HW223618   5.144   2.176   4.850  1.0104 -2.5000  2.7419
 6568SOL     OW23619   0.857   8.213   2.760  1.2040  0.0282 -0.2414
 6568SOL    HW123620   0.783   8.271   2.780 -0.2250 -1.9284  0.4929
 6568SOL    HW223621   0.934   8.265   2.782 -0.0181  1.3628  1.1936
 6569SOL     OW23622   1.136   6.700   7.036  0.1786  0.1202 -0.0851
 6569SOL    HW123623   1.069   6.718   6.970  1.2747  0.2441 -1.1804
 6569SOL    HW223624   1.099   6.735   7.117 -2.1168 -1.8597 -0.1342
 6570SOL     OW23625   7.107   4.964   6.886  0.3054 -0.0830  0.3026
 6570SOL    HW123626   7.101   4.917   6.802 -0.2054 -0.1745  0.3841
 6570SOL    HW223627   7.070   4.902   6.950  0.5008  0.0672  0.5591
 6571SOL     OW23628   4.696   2.790   4.518 -0.7974 -0.1357  0.0652
 6571SOL    HW123629   4.754   2.758   4.587 -1.5801 -0.6774  0.4887
 6571SOL    HW223630   4.610   2.797   4.560 -1.1124  0.3322 -0.6356
 6572SOL     OW23631   6.223   0.100   1.098 -0.3960  0.3942  0.3537
 6572SOL    HW123632   6.181   0.032   1.150 -0.2116 -1.1625 -1.4539
 6572SOL    HW223633   6.152   0.144   1.053 -0.3760  0.2533  0.1857
 6573SOL     OW23634   7.076   9.595   6.657 -0.3607 -0.7336 -0.2655
 6573SOL    HW123635   7.052   9.644   6.578  2.0430  0.0408 -0.6017
 6573SOL    HW223636   7.056   9.504   6.636 -0.5844 -0.4281 -1.4296
 6574SOL     OW23637   2.802   8.444   9.921  0.0396 -0.3457  0.3416
 6574SOL    HW123638   2.804   8.533   9.955  0.1730  0.2574 -1.1614
 6574SOL    HW223639   2.723   8.406   9.959 -0.9793  0.9896 -0.3556
 6575SOL     OW23640   5.836   3.814   7.975  0.8918 -0.0540 -0.4100
 6575SOL    HW123641   5.776   3.745   8.004  0.8100 -0.9191 -2.4134
 6575SOL    HW223642   5.807   3.893   8.020 -0.2106 -0.9458  0.4973
 6576SOL     OW23643   0.319   1.162   3.913  0.2760 -0.1594 -0.1525
 6576SOL    HW123644   0.365   1.161   3.997 -0.6730 -0.2937  0.3760
 6576SOL    HW223645   0.281   1.074   3.905  0.2242 -0.0954 -0.6441
 6577SOL     OW23646   4.560   7.997   4.799  0.1138 -0.3475 -0.3372
 6577SOL    HW123647   4.596   8.021   4.714  2.7607 -0.6742  0.5846
 6577SOL    HW223648   4.557   8.079   4.848  1.2133 -0.5538  0.1063
 6578SOL     OW23649   5.666   8.735   2.569  0.2059 -0.6303  0.1110
 6578SOL    HW123650   5.699   8.786   2.643 -2.0510  0.2706  0.5747
 6578SOL    HW223651   5.694   8.784   2.492  0.3131 -0.1287  0.4630
 6579SOL     OW23652   6.182   5.816   4.673 -0.7713  0.6815  0.2276
 6579SOL    HW123653   6.182   5.721   4.685 -1.7239  0.6262 -0.1156
 6579SOL    HW223654   6.261   5.834   4.621 -1.1345 -0.0441 -0.5848
 6580SOL     OW23655   7.599   2.802   7.669  0.0848 -0.5284 -0.0640
 6580SOL    HW123656   7.639   2.730   7.621  0.0069 -0.8140  0.2995
 6580SOL    HW223657   7.543   2.760   7.734  0.6920 -0.1477  0.7139
 6581SOL     OW23658   8.742   1.408   1.407 -0.3264 -0.0717 -0.1580
 6581SOL    HW123659   8.720   1.349   1.479 -0.9585  0.8286  0.4095
 6581SOL    HW223660   8.725   1.357   1.328 -0.1719 -0.8832  0.3173
 6582SOL     OW23661   2.896   9.272   0.210 -0.1984  0.4189  0.1068
 6582SOL    HW123662   2.921   9.194   0.161 -0.1361 -0.2964  1.2279
 6582SOL    HW223663   2.881   9.339   0.144 -0.1925 -0.5304 -0.8753
 6583SOL     OW23664   6.696   7.010   4.626 -0.8083 -0.1147  0.1759
 6583SOL    HW123665   6.779   7.046   4.657  0.2111 -1.6358 -0.6300
 6583SOL    HW223666   6.656   7.080   4.575  0.2967  0.4348  0.0400
 6584SOL     OW23667   4.096   6.070   0.270 -0.2397 -0.5863 -0.1241
 6584SOL    HW123668   4.114   6.159   0.239  1.5758 -1.2673 -1.0900
 6584SOL    HW223669   4.118   6.013   0.197 -1.4322 -1.8609  0.4638
 6585SOL     OW23670   6.857   7.873   8.528 -0.5511  0.5315 -0.1981
 6585SOL    HW123671   6.926   7.852   8.591 -0.4670 -0.0609 -0.4859
 6585SOL    HW223672   6.894   7.942   8.473  0.4699 -0.9364 -1.4376
 6586SOL     OW23673   2.235   5.080   9.147  0.0801 -0.4657 -0.1974
 6586SOL    HW123674   2.172   5.147   9.122 -3.4827 -3.1672  0.6759
 6586SOL    HW223675   2.238   5.085   9.243  2.0267  0.2121 -0.2545
 6587SOL     OW23676   6.954   7.356   9.904 -0.2806  0.2271  0.3964
 6587SOL    HW123677   6.951   7.415   9.829  0.7807  0.8882  0.8480
 6587SOL    HW223678   6.864   7.325   9.914 -0.3065 -0.4012 -1.5390
 6588SOL     OW23679   4.409   6.821   4.408  0.2080  0.6424  0.3519
 6588SOL    HW123680   4.354   6.817   4.486 -0.3134  2.9796  0.1700
 6588SOL    HW223681   4.489   6.775   4.433 -0.5662 -0.0660  1.6816
 6589SOL     OW23682   4.707   9.511   3.169  0.5542  0.2383  0.0065
 6589SOL    HW123683   4.781   9.502   3.229  0.9172  1.4215 -0.2270
 6589SOL    HW223684   4.716   9.436   3.109  1.8206  0.5843 -0.2764
 6590SOL     OW23685   2.561   3.346   7.948 -0.0221  0.4551  0.3553
 6590SOL    HW123686   2.541   3.337   7.855  0.6898 -1.0811  0.3263
 6590SOL    HW223687   2.483   3.312   7.993 -0.7593  2.0750  0.3611
 6591SOL     OW23688   9.436   7.612   0.617  0.4983 -0.3152 -0.3658
 6591SOL    HW123689   9.480   7.675   0.561  0.8076 -0.5085 -0.3395
 6591SOL    HW223690   9.386   7.558   0.556  0.5162 -0.2723 -0.4194
 6592SOL     OW23691   8.043   7.138   0.517 -0.4710  0.3081 -0.0981
 6592SOL    HW123692   7.970   7.080   0.540 -0.9959  0.7291 -0.6584
 6592SOL    HW223693   8.052   7.128   0.422  1.0702 -0.7307  0.1201
 6593SOL     OW23694   2.817   1.542   4.121 -0.4144  0.3487  0.0054
 6593SOL    HW123695   2.790   1.625   4.160  3.1028  1.7902 -0.2072
 6593SOL    HW223696   2.826   1.561   4.028  0.9498 -0.0550  0.0268
 6594SOL     OW23697   3.189   4.617  10.092 -0.0404  0.4138 -0.9450
 6594SOL    HW123698   3.095   4.637  10.093 -0.3904 -1.1578 -0.5883
 6594SOL    HW223699   3.196   4.532  10.135  1.6158  0.7284 -0.5379
 6595SOL     OW23700   6.348   6.076   4.795 -0.7269  0.3408 -0.4675
 6595SOL    HW123701   6.334   6.106   4.705 -0.2551 -3.4273 -1.9626
 6595SOL    HW223702   6.431   6.117   4.820  0.4560 -0.4555 -2.7533
 6596SOL     OW23703   3.172   9.865   8.607  0.5157  0.0979  1.2665
 6596SOL    HW123704   3.089   9.907   8.585  0.2474  0.0678  2.1955
 6596SOL    HW223705   3.202   9.826   8.524  0.3350  1.3404  0.5912
 6597SOL     OW23706   8.007   1.141   7.966 -0.1908  0.0253 -0.0103
 6597SOL    HW123707   8.066   1.099   8.029 -0.6925  0.5560  0.8470
 6597SOL    HW223708   8.003   1.232   7.995  1.8601  1.0457 -2.5427
 6598SOL     OW23709   5.274   9.603   4.072 -0.4397  0.0264 -1.0002
 6598SOL    HW123710   5.211   9.627   4.139 -0.4045  2.4977 -1.7420
 6598SOL    HW223711   5.225   9.606   3.990  0.4369  1.3141 -1.5150
 6599SOL     OW23712   4.794  10.203   7.571 -0.4480  0.1678 -0.3955
 6599SOL    HW123713   4.701  10.184   7.586 -0.6784  2.1676  1.0689
 6599SOL    HW223714   4.794  10.289   7.530  0.7483 -0.2984 -1.4086
 6600SOL     OW23715   1.781   5.326   5.312 -0.1893  0.2732  0.8785
 6600SOL    HW123716   1.766   5.315   5.406 -0.0940 -1.6225  0.7019
 6600SOL    HW223717   1.865   5.372   5.307 -0.1931  0.3983  1.7098
 6601SOL     OW23718   1.424   9.197   6.891  0.0212 -0.2854 -0.1543
 6601SOL    HW123719   1.369   9.173   6.816 -0.4601 -0.5022  0.2627
 6601SOL    HW223720   1.363   9.236   6.954  0.2570 -0.9985  0.5289
 6602SOL     OW23721   8.870   1.800   2.512  0.5972 -0.0961  0.5234
 6602SOL    HW123722   8.913   1.716   2.493  0.2162 -0.4157  1.0636
 6602SOL    HW223723   8.780   1.787   2.483  0.6570  0.2971  0.1547
 6603SOL     OW23724   1.293   1.268  10.083 -0.1248  0.1037  0.2125
 6603SOL    HW123725   1.202   1.247  10.102  0.0509 -1.0806 -0.1662
 6603SOL    HW223726   1.289   1.347  10.029 -0.8856  0.4626  0.7905
 6604SOL     OW23727   8.172   8.131   5.089  0.5252  0.1422  0.0487
 6604SOL    HW123728   8.147   8.135   5.181 -1.2518 -2.0056 -0.2384
 6604SOL    HW223729   8.247   8.072   5.087 -1.0281 -1.9470 -0.0428
 6605SOL     OW23730   6.859   7.032   6.302  0.2808  0.3559 -0.1319
 6605SOL    HW123731   6.777   6.983   6.288  0.4617 -0.0855  0.3142
 6605SOL    HW223732   6.869   7.084   6.222 -0.4957  0.5057 -0.1403
 6606SOL     OW23733   2.257   1.284   3.351 -0.1253 -0.0681 -0.0348
 6606SOL    HW123734   2.184   1.342   3.328 -0.4576 -0.7695 -0.8232
 6606SOL    HW223735   2.325   1.342   3.383 -0.5497  0.7343 -0.5467
 6607SOL     OW23736  10.035   1.806   6.010  0.3610 -0.1982 -0.1620
 6607SOL    HW123737  10.110   1.759   6.045  0.4429  0.0606  0.0175
 6607SOL    HW223738  10.071   1.859   5.938  0.6978  1.2941  1.0639
 6608SOL     OW23739   4.237   2.455   7.178  0.0808  0.3880  0.2479
 6608SOL    HW123740   4.227   2.548   7.157  1.9045  0.2831 -1.3333
 6608SOL    HW223741   4.152   2.416   7.157 -0.8814  1.7310  1.4340
 6609SOL     OW23742   6.821   7.653   3.613  0.4978 -0.0548 -0.0248
 6609SOL    HW123743   6.860   7.733   3.579  1.3127  0.5321  2.1024
 6609SOL    HW223744   6.827   7.590   3.541  0.3585  1.6079 -1.5498
 6610SOL     OW23745   4.777   9.153   2.038  0.7698 -0.0611 -0.1192
 6610SOL    HW123746   4.763   9.092   1.966  0.6783 -0.1857  0.0024
 6610SOL    HW223747   4.783   9.097   2.116  0.4731  0.0955  0.0200
 6611SOL     OW23748   1.164   2.545   6.897  0.0473 -0.0319 -0.4118
 6611SOL    HW123749   1.146   2.465   6.945 -0.4354 -0.6512 -1.5912
 6611SOL    HW223750   1.096   2.550   6.830 -0.2456  1.6415 -0.0429
 6612SOL     OW23751   9.103   5.589   6.385  0.3638 -0.1912 -0.0715
 6612SOL    HW123752   9.177   5.629   6.340  0.2080 -0.9058 -1.0001
 6612SOL    HW223753   9.141   5.547   6.462  0.9045 -0.4010 -0.4501
 6613SOL     OW23754   9.092   3.001   8.416  0.0579 -0.0804  0.1667
 6613SOL    HW123755   9.051   3.007   8.329  0.1390 -0.3623  0.1107
 6613SOL    HW223756   9.018   2.999   8.477 -0.0227 -1.0212  0.0424
 6614SOL     OW23757   9.868   6.381   1.019 -0.0163 -0.3932 -0.0286
 6614SOL    HW123758   9.837   6.316   0.955  0.1190 -0.4098 -0.0787
 6614SOL    HW223759   9.912   6.328   1.086 -0.3394 -0.3921  0.1837
 6615SOL     OW23760   7.480   1.014   0.808  0.4462  0.4138  0.4001
 6615SOL    HW123761   7.475   0.963   0.889  1.7325  1.8144  1.4331
 6615SOL    HW223762   7.574   1.021   0.791  0.2712 -3.0064 -3.3793
 6616SOL     OW23763   6.369   0.028  10.069 -0.0168  0.4145 -0.2757
 6616SOL    HW123764   6.352   0.121  10.054  1.0367  0.4208 -1.5889
 6616SOL    HW223765   6.289  -0.005  10.110 -2.4521  0.8211 -4.2460
 6617SOL     OW23766   5.802   3.281   3.369  0.4394 -0.2892 -0.1632
 6617SOL    HW123767   5.844   3.207   3.414 -2.2330 -0.8117  1.7629
 6617SOL    HW223768   5.729   3.241   3.321 -0.7474  1.0046  0.4999
 6618SOL     OW23769   8.421   3.521   3.999 -0.2039  0.2085 -0.4529
 6618SOL    HW123770   8.484   3.462   4.040  0.6579 -0.1775 -2.2025
 6618SOL    HW223771   8.474   3.592   3.964 -1.0009  0.9756 -0.1218
 6619SOL     OW23772   7.051   9.893   9.217 -0.1088 -0.2726  0.6377
 6619SOL    HW123773   6.971   9.854   9.253 -1.4613  0.2308 -1.6970
 6619SOL    HW223774   7.046   9.985   9.242  0.7446 -0.5697  2.0816
 6620SOL     OW23775   3.835   2.720   0.085  0.4586  0.1014 -0.3926
 6620SOL    HW123776   3.742   2.707   0.063  0.4907 -1.1221  0.1631
 6620SOL    HW223777   3.833   2.785   0.156  0.0329  0.0990 -0.3972
 6621SOL     OW23778   3.433   8.196   5.324  0.0677  0.0218  0.2322
 6621SOL    HW123779   3.497   8.156   5.383  1.4678  0.6746 -0.7839
 6621SOL    HW223780   3.382   8.122   5.290  0.0569 -0.4766  1.2923
 6622SOL     OW23781   7.638   2.730   5.147 -0.5294  0.0438  0.8454
 6622SOL    HW123782   7.676   2.762   5.229  1.0582 -1.0574  0.5939
 6622SOL    HW223783   7.711   2.731   5.085 -1.6236  0.5333 -0.4661
 6623SOL     OW23784   3.838   3.071  10.193  0.0970 -0.1453 -0.6268
 6623SOL    HW123785   3.904   3.045  10.258 -1.3615 -0.1189  0.9305
 6623SOL    HW223786   3.858   3.017  10.117  1.5001 -0.6176  0.0308
 6624SOL     OW23787   4.538   1.756   0.080  0.2260 -0.2406  0.0718
 6624SOL    HW123788   4.629   1.757   0.110  0.0585 -0.5872  0.6007
 6624SOL    HW223789   4.488   1.725   0.155 -0.6821  2.6473  0.8089
 6625SOL     OW23790   1.948   4.702   4.288 -0.5938  0.2852 -0.0347
 6625SOL    HW123791   1.896   4.649   4.349 -0.9128  0.3581 -0.2379
 6625SOL    HW223792   1.883   4.739   4.228 -0.1434 -1.1536 -1.4913
 6626SOL     OW23793   0.555   5.997   7.035  0.6553 -0.4829 -0.4974
 6626SOL    HW123794   0.562   5.966   6.945  0.7040  0.9273 -1.0039
 6626SOL    HW223795   0.495   6.072   7.030  2.0202  0.7017  0.3463
 6627SOL     OW23796   6.720   7.866   4.003 -0.5587  0.0098  0.0507
 6627SOL    HW123797   6.800   7.821   3.975 -0.2611  0.7941 -0.3905
 6627SOL    HW223798   6.660   7.856   3.929 -0.5892  0.0982  0.0633
 6628SOL     OW23799   5.329   7.946   7.451  0.2150 -0.4032 -0.0349
 6628SOL    HW123800   5.358   7.917   7.365 -0.2373 -0.8040 -0.0532
 6628SOL    HW223801   5.234   7.939   7.448  0.1770 -0.0978  0.3827
 6629SOL     OW23802   1.518   3.019   3.055  0.0260  0.6819 -0.4025
 6629SOL    HW123803   1.576   3.009   3.131  2.3053 -1.2391 -2.2090
 6629SOL    HW223804   1.445   2.960   3.072 -0.5360  1.7864  1.1453
 6630SOL     OW23805   2.858   0.881   8.916  0.2094 -0.1891  0.2480
 6630SOL    HW123806   2.771   0.853   8.885 -0.3537 -0.0413  1.6089
 6630SOL    HW223807   2.886   0.810   8.973  1.2013 -0.4286 -0.5106
 6631SOL     OW23808   2.093   1.223   0.325  1.0780  0.1662  0.1072
 6631SOL    HW123809   2.132   1.263   0.403  2.1926 -2.5664  1.0633
 6631SOL    HW223810   2.041   1.150   0.359 -2.1887  1.5566 -1.4207
 6632SOL     OW23811   7.992   1.459   6.705  0.0523 -0.2006 -0.1180
 6632SOL    HW123812   8.085   1.472   6.721  0.5792 -3.2690 -0.1058
 6632SOL    HW223813   7.986   1.445   6.610 -0.4499  0.2843 -0.1626
 6633SOL     OW23814   0.030   3.406   3.307  0.1020 -0.4631 -0.4193
 6633SOL    HW123815   0.036   3.471   3.377  1.2819 -1.3548  0.3422
 6633SOL    HW223816  -0.031   3.340   3.340 -1.8542  0.6609 -1.5814
 6634SOL     OW23817   4.923   7.075   9.463 -0.3066  0.2357  0.1689
 6634SOL    HW123818   4.924   7.060   9.369  3.0616 -0.9241  0.2507
 6634SOL    HW223819   4.969   7.158   9.475 -0.3788  0.1918  0.7955
 6635SOL     OW23820   8.649   9.739   8.106  0.4530  0.5835 -0.1937
 6635SOL    HW123821   8.689   9.656   8.081  0.2967  0.2613  0.6037
 6635SOL    HW223822   8.722   9.797   8.124  0.5886 -0.0495  1.4124
 6636SOL     OW23823   6.110   5.603   4.297 -0.9493 -0.5720  0.0286
 6636SOL    HW123824   6.166   5.598   4.219 -0.4934  2.6782  0.0123
 6636SOL    HW223825   6.151   5.544   4.360 -1.4058 -3.3997 -2.1118
 6637SOL     OW23826   2.681   1.238   5.023  0.0903  0.3256  0.8150
 6637SOL    HW123827   2.598   1.273   4.990 -0.0453 -0.0069  0.8030
 6637SOL    HW223828   2.680   1.146   4.997  1.4400  0.7901 -1.1640
 6638SOL     OW23829   1.680   7.785   2.289  0.4095  0.3496  0.1393
 6638SOL    HW123830   1.669   7.708   2.233  1.4750  1.2606 -1.4030
 6638SOL    HW223831   1.641   7.759   2.373 -1.3278 -1.0610 -1.0053
 6639SOL     OW23832   0.087   3.347   8.830 -0.2846  0.3873 -0.0349
 6639SOL    HW123833   0.154   3.393   8.880 -0.5615  0.7636 -0.0082
 6639SOL    HW223834   0.066   3.270   8.882  0.6677 -0.1415 -0.3987
 6640SOL     OW23835   9.095   1.187   1.325 -0.5231  0.0001 -0.2163
 6640SOL    HW123836   9.008   1.169   1.291 -0.7560  0.8746 -0.1098
 6640SOL    HW223837   9.130   1.101   1.350 -1.1745 -0.4007 -0.6769
 6641SOL     OW23838   4.211   8.842   7.008  0.0054 -0.2609 -0.1783
 6641SOL    HW123839   4.174   8.763   6.968 -0.7816 -0.0470  0.1032
 6641SOL    HW223840   4.223   8.903   6.935  1.9045 -1.0903 -0.6210
 6642SOL     OW23841   3.932   4.628   1.022 -0.0842  0.4172  0.7141
 6642SOL    HW123842   3.911   4.537   1.042 -0.6463  0.4455  0.2856
 6642SOL    HW223843   4.011   4.647   1.074 -1.0830  0.2989  2.3342
 6643SOL     OW23844   0.708   9.801   5.382  0.1242  0.1852  0.1815
 6643SOL    HW123845   0.774   9.753   5.332  1.2648 -1.1702  2.7606
 6643SOL    HW223846   0.759   9.861   5.437 -0.9959  1.0491  0.3018
 6644SOL     OW23847   0.485   8.610   8.035 -0.4250  0.4235 -0.2437
 6644SOL    HW123848   0.550   8.546   8.006 -1.3299 -1.0231  0.8311
 6644SOL    HW223849   0.496   8.683   7.973  1.0363 -0.4805 -1.1391
 6645SOL     OW23850   2.188   8.385   9.152  0.1355 -0.7317  0.8425
 6645SOL    HW123851   2.115   8.345   9.105 -0.4656  0.0326  1.0929
 6645SOL    HW223852   2.148   8.457   9.202  1.2641  0.6648 -0.1641
 6646SOL     OW23853   0.513   7.230   1.008 -0.0090 -0.0648  0.0193
 6646SOL    HW123854   0.424   7.257   0.986 -0.1151 -0.2615  0.1986
 6646SOL    HW223855   0.565   7.310   1.004  0.1198 -0.1949 -1.6300
 6647SOL     OW23856   4.260   1.948   3.392  0.2040  0.1363  0.3388
 6647SOL    HW123857   4.225   1.971   3.479  0.0494 -1.0028  0.5926
 6647SOL    HW223858   4.189   1.970   3.332  0.5216  1.4778  0.4105
 6648SOL     OW23859   5.467   8.460   9.317 -0.7523 -0.6287  0.1914
 6648SOL    HW123860   5.525   8.527   9.353  0.1905 -1.0606 -0.4915
 6648SOL    HW223861   5.380   8.484   9.350 -0.3002  0.4113  0.6853
 6649SOL     OW23862   2.560   6.593   1.623  0.2479  0.3322 -0.4174
 6649SOL    HW123863   2.582   6.679   1.660  1.8727 -0.1100 -0.3022
 6649SOL    HW223864   2.552   6.535   1.699 -1.0966  0.4034 -0.4777
 6650SOL     OW23865   0.219   0.177   6.600  0.1419 -0.5361 -0.0280
 6650SOL    HW123866   0.222   0.155   6.507  0.7906 -0.7113  0.0258
 6650SOL    HW223867   0.190   0.097   6.643  0.7096 -0.7304 -0.0011
 6651SOL     OW23868   5.369   6.162   1.447 -0.5207  0.1309  0.7978
 6651SOL    HW123869   5.350   6.128   1.360 -1.2091  1.5000  0.3848
 6651SOL    HW223870   5.444   6.220   1.434 -0.1846 -0.1862  1.2617
 6652SOL     OW23871   7.767   7.567   5.332  0.5278  0.3009 -0.3544
 6652SOL    HW123872   7.699   7.591   5.394 -0.2623 -0.3691 -0.9314
 6652SOL    HW223873   7.722   7.512   5.267  1.6955 -0.4668 -0.5450
 6653SOL     OW23874   9.153   9.835   7.502 -0.2478  0.1796 -0.0994
 6653SOL    HW123875   9.074   9.795   7.538 -1.6733  0.6897 -2.5074
 6653SOL    HW223876   9.209   9.849   7.579 -2.2719 -0.6094  1.6208
 6654SOL     OW23877   8.716   6.538   3.536 -0.3916 -0.6320 -0.3636
 6654SOL    HW123878   8.665   6.583   3.604 -0.5748  0.0752 -0.9651
 6654SOL    HW223879   8.745   6.457   3.578 -0.2495 -0.0653  0.6582
 6655SOL     OW23880   7.712   7.267   4.038  0.7235  0.8556 -0.1202
 6655SOL    HW123881   7.626   7.280   4.079 -0.4719 -1.8978 -1.4476
 6655SOL    HW223882   7.753   7.199   4.092  0.5264 -0.3926 -1.4951
 6656SOL     OW23883   2.353   6.361   9.621 -0.2523  0.2279 -0.2856
 6656SOL    HW123884   2.291   6.377   9.550 -0.5068 -0.2474 -0.1738
 6656SOL    HW223885   2.300   6.329   9.694  0.2723 -1.9781 -0.7651
 6657SOL     OW23886   2.422   6.891   5.648 -0.0007  0.4893  0.1808
 6657SOL    HW123887   2.413   6.801   5.616  0.1975  0.4765  0.1656
 6657SOL    HW223888   2.346   6.936   5.611 -0.0736  0.3415  0.1465
 6658SOL     OW23889   9.663   6.288   8.429 -0.0162  0.1522  0.2919
 6658SOL    HW123890   9.611   6.364   8.455  0.4804  0.8288 -0.6738
 6658SOL    HW223891   9.652   6.282   8.335  1.1544 -0.0756  0.1561
 6659SOL     OW23892   5.166   2.791   6.044 -0.6271  0.6312  0.1944
 6659SOL    HW123893   5.207   2.804   6.130 -0.3722  0.3215  0.1237
 6659SOL    HW223894   5.072   2.798   6.060 -0.6852 -1.1035  0.8149
 6660SOL     OW23895   0.147   1.340   2.333  0.4077 -0.9959  0.1318
 6660SOL    HW123896   0.170   1.423   2.375 -2.2051  0.5542 -1.2079
 6660SOL    HW223897   0.084   1.300   2.392  0.3700 -1.1740 -0.0298
 6661SOL     OW23898   7.351   2.405   2.773  0.3249  0.2241 -0.0902
 6661SOL    HW123899   7.294   2.328   2.777 -1.4052  1.4456 -0.0631
 6661SOL    HW223900   7.292   2.479   2.787  1.9454  1.5659 -0.0451
 6662SOL     OW23901   0.721   3.094   5.591 -0.4910 -0.0230  0.1379
 6662SOL    HW123902   0.798   3.054   5.552 -1.4168  0.1453 -2.0271
 6662SOL    HW223903   0.673   3.021   5.630 -1.0545 -0.7428 -1.8062
 6663SOL     OW23904   8.200   3.636  10.025 -0.2403  0.0496 -0.0293
 6663SOL    HW123905   8.282   3.599  10.057 -0.2123  0.7937  0.8022
 6663SOL    HW223906   8.222   3.679   9.943 -0.4068 -2.3403 -1.4416
 6664SOL     OW23907   7.867   1.232   1.324 -0.2569  0.1359  0.0978
 6664SOL    HW123908   7.926   1.157   1.315 -0.6962 -0.1040 -0.9883
 6664SOL    HW223909   7.868   1.273   1.237  1.2734  2.3967  1.1005
 6665SOL     OW23910   3.813   1.400   5.511 -0.2794  0.2974 -0.2098
 6665SOL    HW123911   3.829   1.306   5.525 -0.7886  0.3343  0.6736
 6665SOL    HW223912   3.776   1.404   5.423 -0.8066 -0.3989 -0.0326
 6666SOL     OW23913   1.809   7.127   4.271 -0.4210  0.1707  0.0555
 6666SOL    HW123914   1.734   7.186   4.270 -0.4932  0.1444  1.5507
 6666SOL    HW223915   1.815   7.097   4.362  0.2737 -1.2780 -0.4282
 6667SOL     OW23916   1.591   8.211   2.200 -0.1208  0.4515  0.3112
 6667SOL    HW123917   1.507   8.215   2.154 -0.0536 -2.0303 -0.1593
 6667SOL    HW223918   1.638   8.288   2.170 -1.4576  0.8165 -0.9876
 6668SOL     OW23919   2.260   4.926   5.956  0.0414 -0.2359  0.2727
 6668SOL    HW123920   2.216   4.979   5.890  0.2408 -1.0753 -0.5446
 6668SOL    HW223921   2.348   4.964   5.961  0.2915 -0.6874 -0.5554
 6669SOL     OW23922   2.070   5.333   5.292 -0.2284  0.3239  0.1767
 6669SOL    HW123923   2.091   5.296   5.206 -0.8550 -0.3851  0.3201
 6669SOL    HW223924   2.066   5.257   5.350  2.4604  0.9643  1.3442
 6670SOL     OW23925   9.257   9.758   9.138 -0.2096  0.2074  0.0402
 6670SOL    HW123926   9.283   9.786   9.051 -1.2178  0.4383 -0.1983
 6670SOL    HW223927   9.177   9.708   9.125 -2.3905  3.1282  1.0953
 6671SOL     OW23928   0.975   6.957   7.008 -0.5519 -0.0358  0.0276
 6671SOL    HW123929   1.001   6.941   7.099  2.8166 -3.1930 -1.2369
 6671SOL    HW223930   1.023   7.035   6.982  0.9831 -0.8856  0.1895
 6672SOL     OW23931   4.973   4.434   0.257  0.2293  0.3401 -0.5010
 6672SOL    HW123932   4.930   4.437   0.343 -0.0856 -2.3526 -0.4774
 6672SOL    HW223933   4.914   4.482   0.199 -0.5383  0.5367  0.4171
 6673SOL     OW23934   2.240   9.833   3.736 -0.0048 -0.1134  0.1366
 6673SOL    HW123935   2.287   9.755   3.767 -0.3528 -0.3006  0.2008
 6673SOL    HW223936   2.178   9.799   3.672  0.1422  0.1709 -0.1599
 6674SOL     OW23937   2.797   4.756   1.110  0.2100 -0.3712 -0.3006
 6674SOL    HW123938   2.761   4.736   1.196  1.0708 -0.6163  0.0115
 6674SOL    HW223939   2.882   4.711   1.108  1.2704  1.5348 -0.3628
 6675SOL     OW23940   8.919  10.042   8.951  0.2536  0.1451  0.2505
 6675SOL    HW123941   8.932   9.959   8.906 -0.7618 -0.3787  0.8674
 6675SOL    HW223942   9.005  10.084   8.950  0.6003 -0.5458 -0.7741
 6676SOL     OW23943   0.224   8.291   5.462 -0.5983 -0.1851  0.5754
 6676SOL    HW123944   0.200   8.336   5.381 -0.8721 -2.3888 -0.6506
 6676SOL    HW223945   0.196   8.200   5.448 -0.3174 -0.7143  3.0094
 6677SOL     OW23946   3.811   5.453   3.426 -0.7638 -0.2652  0.3756
 6677SOL    HW123947   3.783   5.362   3.429  1.2277 -0.9120  0.8625
 6677SOL    HW223948   3.846   5.465   3.338 -2.4785  0.5464 -0.2427
 6678SOL     OW23949   5.756   5.111   2.516  0.4717  0.5599 -0.4400
 6678SOL    HW123950   5.696   5.162   2.461  0.6564  0.0987 -1.0841
 6678SOL    HW223951   5.843   5.131   2.482  0.6415  0.7704  0.1109
 6679SOL     OW23952   6.950   5.180   9.339  0.1133  0.1066  0.2145
 6679SOL    HW123953   6.932   5.167   9.246  1.0849  2.8132 -0.4527
 6679SOL    HW223954   6.864   5.171   9.381 -0.8132  1.2341 -1.3069
 6680SOL     OW23955   2.557   4.072   6.102 -0.3406  0.1142 -0.2072
 6680SOL    HW123956   2.586   4.035   6.019  0.1212 -0.8797  0.3784
 6680SOL    HW223957   2.462   4.072   6.096 -0.3710 -1.5678 -0.0784
 6681SOL     OW23958   9.496   9.178  10.103 -0.2406  0.6600  0.0075
 6681SOL    HW123959   9.509   9.187  10.009  0.8329  0.0249  0.0734
 6681SOL    HW223960   9.403   9.156  10.112 -0.1747 -0.1002 -0.9695
 6682SOL     OW23961   1.224   4.902   6.916  0.3064  0.4011  0.1647
 6682SOL    HW123962   1.218   4.931   6.825  0.9219 -0.3044 -0.1081
 6682SOL    HW223963   1.183   4.972   6.966 -1.1785  0.2313 -0.7560
 6683SOL     OW23964   3.104   2.739   6.368  0.4964  0.1880  0.3641
 6683SOL    HW123965   3.119   2.813   6.310  1.6657 -0.0282  0.3728
 6683SOL    HW223966   3.093   2.778   6.455 -0.9537  0.4882  0.0807
 6684SOL     OW23967   2.948   5.505   5.428 -0.2525 -0.1077  0.0692
 6684SOL    HW123968   2.857   5.491   5.455 -0.9308  2.5317 -0.5825
 6684SOL    HW223969   2.945   5.585   5.375  2.5370  0.3584  0.4902
 6685SOL     OW23970   8.840   0.011   4.539  0.4161 -0.8445  0.1714
 6685SOL    HW123971   8.841  -0.041   4.459  0.1878 -1.8372  0.7962
 6685SOL    HW223972   8.747   0.016   4.563  0.2722  1.1200 -0.6697
 6686SOL     OW23973   7.178   6.031   7.315  0.3386  0.1227  0.0588
 6686SOL    HW123974   7.144   5.987   7.237 -0.6402 -2.6154  1.8384
 6686SOL    HW223975   7.262   5.988   7.332  2.0387  2.8004 -1.0690
 6687SOL     OW23976   7.394   4.817   3.445  0.0061  0.1924 -0.4849
 6687SOL    HW123977   7.432   4.900   3.474 -0.6336  0.2198  0.3489
 6687SOL    HW223978   7.433   4.800   3.359  1.9239  0.1839  0.3285
 6688SOL     OW23979   5.209   3.216   9.219  0.0584 -0.3263  0.0629
 6688SOL    HW123980   5.149   3.207   9.146 -0.0767 -0.3679  0.1782
 6688SOL    HW223981   5.275   3.279   9.189  0.3850 -0.8536 -0.3395
 6689SOL     OW23982   1.594   4.662   4.173  0.5045 -0.5653  0.0922
 6689SOL    HW123983   1.517   4.720   4.169  0.9415  0.0163  0.0665
 6689SOL    HW223984   1.655   4.699   4.109  0.7452 -1.1218 -0.0019
 6690SOL     OW23985   4.777   7.494   7.202 -0.3255  0.4337  0.3379
 6690SOL    HW123986   4.730   7.529   7.278 -1.3657 -0.2766  0.0396
 6690SOL    HW223987   4.863   7.470   7.237 -0.2434  1.5339  0.9454
 6691SOL     OW23988   7.914   2.867   5.654 -0.5167  0.0444 -0.2013
 6691SOL    HW123989   7.825   2.838   5.670 -0.2311 -0.1699  1.1017
 6691SOL    HW223990   7.910   2.962   5.661 -0.5194 -0.0076  0.5507
 6692SOL     OW23991   3.435   7.794   3.253  0.1562  0.1857  0.2290
 6692SOL    HW123992   3.449   7.699   3.256 -2.2851 -0.2742 -0.7989
 6692SOL    HW223993   3.484   7.823   3.177 -0.3221 -0.5187 -0.3609
 6693SOL     OW23994   1.901   7.307   1.738 -0.1245  0.2444 -0.2704
 6693SOL    HW123995   1.969   7.255   1.781 -0.1280 -0.1963 -0.7926
 6693SOL    HW223996   1.819   7.273   1.774 -0.1314 -0.1808 -0.6709
 6694SOL     OW23997   1.080   3.111   1.624 -0.0044 -0.2578 -0.2541
 6694SOL    HW123998   1.107   3.118   1.715  1.3846 -1.9295 -0.4869
 6694SOL    HW223999   1.129   3.036   1.590  0.1743  0.8222 -2.5987
 6695SOL     OW24000   0.567   8.179   9.254 -0.2949 -0.2089 -0.3532
 6695SOL    HW124001   0.654   8.147   9.279 -0.7862  0.7655  3.1851
 6695SOL    HW224002   0.509   8.104   9.264 -0.0629 -0.6187 -1.8125
 6696SOL     OW24003   6.617   2.962   9.449  0.3989 -0.2382  0.0291
 6696SOL    HW124004   6.585   2.883   9.405  0.3545 -0.4876  0.4998
 6696SOL    HW224005   6.539   3.017   9.457 -0.2557 -1.3838  2.3384
 6697SOL     OW24006   3.409   7.232   2.719  0.0917 -0.1903 -0.1177
 6697SOL    HW124007   3.347   7.175   2.674 -0.8731  0.4156  0.3934
 6697SOL    HW224008   3.371   7.319   2.711  0.1843  0.0085  1.3532
 6698SOL     OW24009   5.737   9.440   9.747  0.3168 -0.5370  0.4039
 6698SOL    HW124010   5.817   9.395   9.720  0.6705  1.8130 -3.1618
 6698SOL    HW224011   5.667   9.399   9.696  0.0951  0.6212 -0.2590
 6699SOL     OW24012   0.752   5.329   6.534  0.2739  0.4512 -0.3490
 6699SOL    HW124013   0.751   5.399   6.470 -0.3972 -0.6392 -1.5803
 6699SOL    HW224014   0.668   5.285   6.523  0.6560 -0.5116  0.4149
 6700SOL     OW24015   2.918   5.571   4.160 -0.3101 -0.1789  0.0441
 6700SOL    HW124016   2.967   5.653   4.153  1.4792 -1.2160 -0.0931
 6700SOL    HW224017   2.939   5.523   4.079 -0.5145 -1.1995  0.5799
 6701SOL     OW24018   6.602   3.077   2.594 -0.0632 -0.1602  0.2140
 6701SOL    HW124019   6.553   3.122   2.526  1.8806  0.9960 -0.4787
 6701SOL    HW224020   6.628   3.146   2.655  0.2817 -0.8223  0.8406
 6702SOL     OW24021   0.653   8.859   8.185 -0.1258 -0.0543 -0.6026
 6702SOL    HW124022   0.610   8.902   8.112 -1.3306 -0.9701 -0.4551
 6702SOL    HW224023   0.746   8.865   8.165 -0.2897  1.8367 -1.0005
 6703SOL     OW24024   8.699   5.622   3.579 -0.5665 -0.4657  0.5981
 6703SOL    HW124025   8.645   5.548   3.606  1.2414 -1.0919  2.8067
 6703SOL    HW224026   8.715   5.608   3.486 -1.0645 -2.3223  0.7598
 6704SOL     OW24027   3.766   5.328   4.036  0.6270 -0.2774 -0.2278
 6704SOL    HW124028   3.707   5.389   3.993 -1.1757 -2.2395 -0.6818
 6704SOL    HW224029   3.746   5.243   3.997  1.9909 -1.4266  1.4306
 6705SOL     OW24030   5.852   5.960   3.733 -0.2431  0.6803  0.1357
 6705SOL    HW124031   5.914   5.935   3.802  1.1962 -0.9979 -1.6405
 6705SOL    HW224032   5.795   6.025   3.775  0.9050  0.1890  2.7043
 6706SOL     OW24033   8.681   2.652   1.317  0.2557 -0.3842 -0.0142
 6706SOL    HW124034   8.696   2.633   1.409 -1.4766  0.3498  0.4571
 6706SOL    HW224035   8.688   2.747   1.310  3.0894 -0.5725 -1.2283
 6707SOL     OW24036   9.787   2.040   6.635  0.3074 -0.9413 -0.2665
 6707SOL    HW124037   9.880   2.022   6.649  0.1756 -0.5724  1.1392
 6707SOL    HW224038   9.766   1.992   6.554  2.4347  1.4515 -2.4375
 6708SOL     OW24039   2.092   8.887   5.157  0.4735  0.2404 -0.3548
 6708SOL    HW124040   2.055   8.947   5.092 -1.1679  0.6260  0.8631
 6708SOL    HW224041   2.099   8.940   5.237 -0.6827 -1.0534  0.6518
 6709SOL     OW24042   5.760   0.192   7.162  0.1035 -0.6098 -0.9897
 6709SOL    HW124043   5.809   0.123   7.207 -0.5514 -0.0708  0.6176
 6709SOL    HW224044   5.685   0.210   7.219  0.9216  2.3185 -0.6576
 6710SOL     OW24045   4.335   3.692   6.626 -0.5545 -0.2299  0.0425
 6710SOL    HW124046   4.302   3.605   6.647  0.3585 -0.3821  0.9662
 6710SOL    HW224047   4.385   3.680   6.546 -1.4538 -0.2979 -0.5177
 6711SOL     OW24048   2.605   7.544   8.542 -0.3149 -0.3912  0.2449
 6711SOL    HW124049   2.625   7.519   8.451 -0.2015  0.6999 -0.0476
 6711SOL    HW224050   2.680   7.597   8.569 -0.8196  0.1375  0.6252
 6712SOL     OW24051   5.148   3.347   2.451  1.0966 -0.1006  0.3407
 6712SOL    HW124052   5.105   3.278   2.401 -0.7096  1.8950 -1.0554
 6712SOL    HW224053   5.231   3.308   2.479  0.0891 -2.8630 -0.1656
 6713SOL     OW24054   3.944   7.700   7.682  0.2567  0.1074 -0.3443
 6713SOL    HW124055   4.022   7.755   7.676  0.9276 -0.9671 -2.1718
 6713SOL    HW224056   3.873   7.753   7.646  0.8440 -0.0592 -1.8236
 6714SOL     OW24057   9.242   7.401   3.124  0.1237  0.1713 -0.3239
 6714SOL    HW124058   9.309   7.463   3.094  0.7881 -1.3420 -2.1322
 6714SOL    HW224059   9.278   7.315   3.105 -1.3267 -0.7696  0.9493
 6715SOL     OW24060   9.348   1.255   5.544 -0.5433 -0.0430  0.1934
 6715SOL    HW124061   9.381   1.345   5.553  0.4426 -0.5109  1.6147
 6715SOL    HW224062   9.419   1.208   5.502 -0.7699 -0.3200  0.1204
 6716SOL     OW24063   3.651   0.476   9.013 -0.2638 -0.0854 -0.0398
 6716SOL    HW124064   3.677   0.493   8.922 -0.4694 -0.7479 -0.2307
 6716SOL    HW224065   3.591   0.402   9.007 -0.1779 -0.2192  0.6521
 6717SOL     OW24066   4.815   3.397   7.130 -0.5654  0.0973 -0.3198
 6717SOL    HW124067   4.876   3.471   7.125 -0.3383 -0.0545  0.2250
 6717SOL    HW224068   4.735   3.434   7.167 -0.5580  0.1356 -0.3423
 6718SOL     OW24069   8.172   9.067   2.334  0.4816  0.1961  0.9862
 6718SOL    HW124070   8.141   9.023   2.255 -1.0842 -0.6779  2.0167
 6718SOL    HW224071   8.114   9.142   2.343 -0.8789 -0.9592  2.4638
 6719SOL     OW24072   6.471   9.532   5.616  0.2431  0.1944 -0.0743
 6719SOL    HW124073   6.494   9.604   5.674  1.6971 -0.8317  0.7077
 6719SOL    HW224074   6.460   9.457   5.674 -1.2403 -0.2326 -0.8641
 6720SOL     OW24075   7.713   5.794   7.125 -0.9761  0.4861  0.3397
 6720SOL    HW124076   7.712   5.800   7.030  1.6617  0.2552  0.2222
 6720SOL    HW224077   7.699   5.701   7.143 -2.0017  0.6057  0.2442
 6721SOL     OW24078   8.158   0.331   8.175 -0.1680  0.5385 -0.1102
 6721SOL    HW124079   8.114   0.405   8.217 -0.6546  1.2252 -1.7659
 6721SOL    HW224080   8.215   0.295   8.244 -1.8968  0.7615  1.5371
 6722SOL     OW24081   6.288   4.692   6.537 -0.0164 -0.3700  0.2405
 6722SOL    HW124082   6.242   4.698   6.620  1.6203 -0.2160  1.1672
 6722SOL    HW224083   6.344   4.769   6.534  2.3341 -1.9914  0.5157
 6723SOL     OW24084   6.956   3.295   7.879  0.0331  0.1223  0.1276
 6723SOL    HW124085   7.017   3.222   7.888 -0.6415 -0.4207  0.3567
 6723SOL    HW224086   6.983   3.357   7.948  0.4366 -0.0196  0.1035
 6724SOL     OW24087   6.698   0.103   2.810  0.1243  0.1463 -0.5341
 6724SOL    HW124088   6.644   0.023   2.807  0.6212 -0.2025 -0.2978
 6724SOL    HW224089   6.637   0.172   2.835 -0.7882  0.2598 -2.8194
 6725SOL     OW24090   2.788   7.933   6.927  0.1213  0.2085 -0.5398
 6725SOL    HW124091   2.713   7.987   6.902 -0.2639 -0.7758 -1.6475
 6725SOL    HW224092   2.854   7.995   6.956 -1.2579  1.0867  0.9166
 6726SOL     OW24093   6.665   0.411   5.953 -0.1442 -0.0230  0.2268
 6726SOL    HW124094   6.572   0.428   5.968 -0.2138 -0.8743  0.8696
 6726SOL    HW224095   6.687   0.343   6.017  1.1278  0.7751  0.6854
 6727SOL     OW24096   6.517   3.748   9.578 -0.2720 -0.4205 -0.2040
 6727SOL    HW124097   6.513   3.711   9.666  1.3098 -0.0629  0.0605
 6727SOL    HW224098   6.607   3.730   9.549 -0.3090  0.7850 -1.1497
 6728SOL     OW24099   4.173   5.703   1.709 -0.2181 -0.5238 -0.3680
 6728SOL    HW124100   4.257   5.691   1.665 -0.7101 -3.2539 -0.7496
 6728SOL    HW224101   4.182   5.657   1.792 -1.1600 -0.4212 -0.1918
 6729SOL     OW24102   2.611   7.096   5.667 -0.2167 -0.1755  0.3617
 6729SOL    HW124103   2.547   7.162   5.696 -1.1352 -0.8551 -0.0821
 6729SOL    HW224104   2.561   7.015   5.660  0.4721 -0.5238 -0.9239
 6730SOL     OW24105   4.946   6.778   4.720  0.1663 -0.2567 -0.0105
 6730SOL    HW124106   4.985   6.702   4.676  0.2194 -0.2674  0.0549
 6730SOL    HW224107   4.954   6.849   4.657  3.3534  0.6258  1.1918
 6731SOL     OW24108   6.427   0.260   7.455 -0.3243  0.3773  0.1391
 6731SOL    HW124109   6.445   0.346   7.417 -1.2883  0.3543 -0.3893
 6731SOL    HW224110   6.334   0.246   7.439 -0.5588 -0.0342  1.7253
 6732SOL     OW24111   8.008   8.781   1.619  0.3598 -0.2377 -0.1125
 6732SOL    HW124112   7.938   8.812   1.562  0.8241  0.1111 -0.4997
 6732SOL    HW224113   8.080   8.762   1.560 -0.1765 -2.9750 -0.0184
 6733SOL     OW24114   4.651   1.841   0.441  0.3532  0.0435 -0.1087
 6733SOL    HW124115   4.724   1.795   0.483  0.4892  0.1984 -0.1740
 6733SOL    HW224116   4.594   1.772   0.410  0.9083 -0.1023 -0.8385
 6734SOL     OW24117   0.962   5.347   2.031  0.0521  0.1301 -0.4548
 6734SOL    HW124118   1.055   5.346   2.055  0.0366 -1.7843 -0.3341
 6734SOL    HW224119   0.952   5.425   1.977  1.9298 -0.0906 -1.1991
 6735SOL     OW24120   2.186   5.298  10.020 -0.1247 -0.0197  0.2072
 6735SOL    HW124121   2.151   5.251  10.096 -2.1195 -0.7728 -1.0832
 6735SOL    HW224122   2.175   5.391  10.042 -0.1413 -0.2235  1.0753
 6736SOL     OW24123   9.093   4.518   2.895  0.1792 -0.0029  0.0394
 6736SOL    HW124124   9.128   4.514   2.806  0.5692  0.8508  0.1426
 6736SOL    HW224125   9.000   4.536   2.883  0.3212  0.5934 -0.1949
 6737SOL     OW24126   5.950   9.332   0.504 -0.8688  0.0956 -0.1007
 6737SOL    HW124127   5.996   9.347   0.421 -2.3224 -0.5909 -1.0887
 6737SOL    HW224128   5.865   9.296   0.477 -2.2750  1.9779  1.5856
 6738SOL     OW24129   6.119   8.060   0.708  0.1851 -0.2593 -0.6933
 6738SOL    HW124130   6.177   7.987   0.728 -0.1925 -0.2924  0.3573
 6738SOL    HW224131   6.064   8.069   0.787 -0.6686  0.2930 -1.3342
 6739SOL     OW24132   1.192   0.529   1.450 -0.4691  0.1038  0.2037
 6739SOL    HW124133   1.101   0.547   1.428 -0.6873 -1.4705 -0.3019
 6739SOL    HW224134   1.210   0.443   1.411  1.8107  1.2043 -1.3281
 6740SOL     OW24135   1.675   1.750   0.960 -0.2910 -0.1677 -0.1838
 6740SOL    HW124136   1.584   1.753   0.932 -0.3379  1.7064  0.0292
 6740SOL    HW224137   1.704   1.662   0.939 -1.0238  0.3111 -3.9023
 6741SOL     OW24138   9.698   4.783   3.319  0.4676 -0.5775  0.6084
 6741SOL    HW124139   9.616   4.755   3.360  0.4476 -4.1447 -1.5398
 6741SOL    HW224140   9.766   4.759   3.383  0.0943 -0.9876  0.8554
 6742SOL     OW24141   6.202   4.581   3.464 -0.4879 -0.1527  0.2052
 6742SOL    HW124142   6.127   4.564   3.522  0.0193 -1.5009  0.5179
 6742SOL    HW224143   6.278   4.570   3.520 -0.0417  1.0138 -0.1607
 6743SOL     OW24144   5.932   9.283   0.779  0.3350  0.6149  0.4432
 6743SOL    HW124145   5.925   9.295   0.684 -0.4934  0.8919  0.5291
 6743SOL    HW224146   5.959   9.369   0.812  2.2936  0.0994  0.3233
 6744SOL     OW24147   6.341   5.695   7.930 -0.1577  0.2300  0.0084
 6744SOL    HW124148   6.372   5.641   8.003  0.4808 -3.0131 -2.3971
 6744SOL    HW224149   6.410   5.760   7.917  1.2631 -1.1483  0.3546
 6745SOL     OW24150  10.164   1.216   5.032 -0.3599  0.1536  0.7805
 6745SOL    HW124151  10.076   1.243   5.008  0.0193  0.4373 -0.3576
 6745SOL    HW224152  10.152   1.155   5.105 -1.6366 -1.2397 -0.5183
 6746SOL     OW24153   5.942   6.533   5.272  0.9347  0.8463 -0.3099
 6746SOL    HW124154   5.955   6.582   5.353 -2.7111  0.3728  0.7319
 6746SOL    HW224155   5.971   6.445   5.293 -1.0942  0.4167  1.0325
 6747SOL     OW24156   9.566   9.326   1.973 -0.7543 -0.3314 -0.5337
 6747SOL    HW124157   9.654   9.363   1.980  0.2924 -2.5919 -0.7152
 6747SOL    HW224158   9.579   9.242   1.930 -3.0440 -0.6895 -0.6484
 6748SOL     OW24159   1.826   8.263   3.921  0.0538 -0.6153  0.0108
 6748SOL    HW124160   1.801   8.323   3.851 -1.9131 -0.4120  0.8150
 6748SOL    HW224161   1.744   8.243   3.966  1.0729 -1.7363  1.4788
 6749SOL     OW24162   1.042   8.974   4.300  0.3836 -0.3510  0.4689
 6749SOL    HW124163   1.098   9.043   4.263 -1.5189  1.2503  0.4130
 6749SOL    HW224164   1.040   8.994   4.394 -2.1608  1.2919  0.1483
 6750SOL     OW24165   7.455   1.122   0.379  0.3145  0.1754 -0.0689
 6750SOL    HW124166   7.431   1.086   0.464 -0.2103  2.7307  0.9554
 6750SOL    HW224167   7.388   1.189   0.362  1.5365  1.0849 -1.5591
 6751SOL     OW24168   0.109   2.604   4.783 -0.0756 -0.2210 -0.6520
 6751SOL    HW124169   0.111   2.589   4.688 -2.1196 -0.8176 -0.6473
 6751SOL    HW224170   0.056   2.683   4.794 -0.1397 -0.3508  0.0018
 6752SOL     OW24171   5.478   4.000   4.884 -0.1464 -0.0776 -0.7133
 6752SOL    HW124172   5.536   3.944   4.833  0.8150 -0.6919  0.9397
 6752SOL    HW224173   5.484   3.965   4.973 -5.0088 -1.7747 -0.7661
 6753SOL     OW24174   5.817   0.235   1.810 -0.3805  0.1719 -0.3156
 6753SOL    HW124175   5.895   0.278   1.844  0.5516 -0.7758 -1.1658
 6753SOL    HW224176   5.787   0.293   1.740 -0.1732  0.3133 -0.2883
 6754SOL     OW24177   0.351   3.368   2.745 -0.4559 -0.5178  0.8699
 6754SOL    HW124178   0.443   3.377   2.772 -0.2481  0.9681 -0.2134
 6754SOL    HW224179   0.348   3.284   2.699  0.2524 -0.8058  1.3310
 6755SOL     OW24180   4.442   1.833   5.140  0.1270  0.0528  0.1476
 6755SOL    HW124181   4.450   1.739   5.154  0.7849 -0.1205 -1.2738
 6755SOL    HW224182   4.527   1.869   5.165  0.8969 -0.1180 -1.9973
 6756SOL     OW24183   7.756   1.396   8.531 -0.2110  0.2421  0.4351
 6756SOL    HW124184   7.846   1.364   8.535 -0.3828 -0.2541  0.3746
 6756SOL    HW224185   7.763   1.490   8.548  0.2729  0.1319  0.8656
 6757SOL     OW24186   5.248   2.449   4.126  0.1109  0.0933  0.1931
 6757SOL    HW124187   5.305   2.517   4.162  1.0240 -1.1013  1.0597
 6757SOL    HW224188   5.169   2.453   4.181  0.5190 -0.1115  0.8070
 6758SOL     OW24189   9.095   0.177   7.277  0.1460  0.3092  0.0087
 6758SOL    HW124190   9.040   0.100   7.291  0.8631 -0.2520 -0.1826
 6758SOL    HW224191   9.096   0.189   7.182 -0.3081  0.8192  0.0640
 6759SOL     OW24192   3.495   9.695   6.084  0.4739 -0.6672  0.6512
 6759SOL    HW124193   3.514   9.605   6.112  2.4076 -0.6794 -0.4642
 6759SOL    HW224194   3.440   9.684   6.006 -1.2545 -0.7623  1.8326
 6760SOL     OW24195   0.761   6.953   3.533  0.1865 -0.2936 -0.2487
 6760SOL    HW124196   0.771   7.038   3.575 -2.4949  0.0610 -0.1682
 6760SOL    HW224197   0.848   6.933   3.497  0.6882  2.8983 -1.0817
 6761SOL     OW24198   9.855   6.323   4.941 -0.7591  0.5394 -0.2874
 6761SOL    HW124199   9.833   6.294   5.030 -3.2897  1.6148 -0.4844
 6761SOL    HW224200   9.851   6.242   4.889 -2.8763  0.3743  0.0138
 6762SOL     OW24201   9.171   6.062   5.278 -0.0474  0.1625  0.1418
 6762SOL    HW124202   9.107   5.996   5.304  0.7207 -0.8530 -0.4363
 6762SOL    HW224203   9.204   6.098   5.360  0.4645 -1.1241  0.5342
 6763SOL     OW24204   4.756   7.745   2.031  0.1457  0.2244  0.1569
 6763SOL    HW124205   4.740   7.777   2.120 -0.1907 -1.0104  0.5594
 6763SOL    HW224206   4.682   7.688   2.012 -0.0056  0.8097 -1.0965
 6764SOL     OW24207   3.665   0.704   9.571 -0.4864  0.1755 -0.2053
 6764SOL    HW124208   3.584   0.712   9.622 -0.4430 -0.4244 -0.0354
 6764SOL    HW224209   3.641   0.732   9.483 -1.2600 -1.3943 -0.5172
 6765SOL     OW24210   6.144   5.933   0.776  0.2399  0.3338  0.3742
 6765SOL    HW124211   6.160   5.839   0.786 -1.7669 -0.1461 -0.3808
 6765SOL    HW224212   6.115   5.943   0.686  1.1504  1.8335  0.2065
 6766SOL     OW24213   7.421   9.076   2.423  0.3071 -0.1101  0.3448
 6766SOL    HW124214   7.337   9.108   2.455 -0.3746 -0.3994 -1.0842
 6766SOL    HW224215   7.434   8.993   2.469 -1.2214 -1.1135 -0.9262
 6767SOL     OW24216   7.975   0.785  10.175 -0.0033  0.1340 -0.2735
 6767SOL    HW124217   8.000   0.845  10.245 -3.1266 -0.1734  1.2823
 6767SOL    HW224218   8.010   0.700  10.202 -0.6771  0.1376  0.6417
 6768SOL     OW24219   2.923   2.092   3.074  0.1787 -0.1801 -0.0874
 6768SOL    HW124220   2.865   2.016   3.076 -1.5608  1.0955 -0.4599
 6768SOL    HW224221   2.945   2.104   2.982  0.6097 -0.3144 -0.0081
 6769SOL     OW24222   2.460   6.237   4.171  0.2752  0.3268  0.5131
 6769SOL    HW124223   2.454   6.271   4.260 -0.3813  0.9175  0.2517
 6769SOL    HW224224   2.369   6.227   4.143  0.4736 -0.2742  0.0632
 6770SOL     OW24225   4.876   1.381   2.113 -0.1349  0.3276  0.2415
 6770SOL    HW124226   4.895   1.287   2.109  1.1232  0.5025  1.4484
 6770SOL    HW224227   4.783   1.386   2.137  0.1052 -0.6366  1.4842
 6771SOL     OW24228   6.245   9.841   5.703 -0.2018 -0.3115 -0.1228
 6771SOL    HW124229   6.242   9.936   5.713 -0.5072  0.1731 -3.6594
 6771SOL    HW224230   6.325   9.815   5.749 -1.8207  1.0535  3.8994
 6772SOL     OW24231   9.870   1.976   3.173 -0.2764  0.1727  0.4050
 6772SOL    HW124232   9.915   1.993   3.255  0.2343  0.8626 -0.0081
 6772SOL    HW224233   9.791   2.031   3.176  0.1401  0.8014  0.1095
 6773SOL     OW24234   6.776   2.136   7.713 -0.3715 -0.0454  0.2111
 6773SOL    HW124235   6.800   2.206   7.652  1.3489 -0.4567  0.3620
 6773SOL    HW224236   6.721   2.077   7.661  1.0067 -0.3559 -0.9828
 6774SOL     OW24237   2.306   0.517   8.913 -0.4067 -0.2613 -0.3921
 6774SOL    HW124238   2.249   0.563   8.975  0.4349 -0.9079  0.9046
 6774SOL    HW224239   2.252   0.505   8.835 -1.6905  0.0732  0.4187
 6775SOL     OW24240   4.342   8.648   8.081  0.4608 -0.1342  0.1702
 6775SOL    HW124241   4.263   8.643   8.029  0.6449  0.8774 -0.2313
 6775SOL    HW224242   4.311   8.668   8.170  0.2901  1.3428 -0.1876
 6776SOL     OW24243   1.148   6.519   4.389 -0.5538 -0.3524 -0.2135
 6776SOL    HW124244   1.147   6.436   4.438  0.6791  0.6532  1.6626
 6776SOL    HW224245   1.229   6.562   4.417  0.9593 -0.2092 -4.1855
 6777SOL     OW24246   3.825   0.691   8.022 -0.0588  0.4961 -0.6090
 6777SOL    HW124247   3.778   0.775   8.022  0.3625  0.7411  0.1171
 6777SOL    HW224248   3.856   0.680   7.932 -0.2941  1.0139 -0.7550
 6778SOL     OW24249   5.776   3.440   8.525 -0.4549 -0.0693 -0.7298
 6778SOL    HW124250   5.819   3.391   8.456  1.0254 -0.5451  0.4762
 6778SOL    HW224251   5.845   3.495   8.563 -1.6249  1.4795 -0.7511
 6779SOL     OW24252   6.527   7.194   2.305  0.3239  0.0725  0.3826
 6779SOL    HW124253   6.448   7.166   2.352 -0.0693 -1.1857 -0.9384
 6779SOL    HW224254   6.514   7.289   2.292 -0.7222 -0.0133  0.6628
 6780SOL     OW24255   9.550   0.082   7.756  0.3713 -0.3406 -0.2538
 6780SOL    HW124256   9.608   0.017   7.796 -0.2488  0.7350  2.5824
 6780SOL    HW224257   9.468   0.035   7.740  0.6401 -0.7999 -0.3113
 6781SOL     OW24258   1.985  10.175   9.389  0.6768  0.2998  0.0396
 6781SOL    HW124259   1.974  10.082   9.366  0.5001  0.0238  1.2045
 6781SOL    HW224260   1.916  10.219   9.340 -0.5996 -0.4539  1.0940
 6782SOL     OW24261   3.763   2.664   8.383  0.4939  0.3832  0.0808
 6782SOL    HW124262   3.692   2.600   8.389 -0.1138  1.0542  0.2371
 6782SOL    HW224263   3.796   2.655   8.293  1.0338 -0.7748  0.3749
 6783SOL     OW24264   3.718   6.252   2.209 -0.1949  1.2786 -0.6430
 6783SOL    HW124265   3.778   6.296   2.149  0.2741 -1.2459 -2.1720
 6783SOL    HW224266   3.686   6.321   2.266 -0.1165  3.7200 -3.3537
 6784SOL     OW24267   2.986   4.844   9.539  0.0467 -0.2165  0.2691
 6784SOL    HW124268   3.007   4.841   9.632  1.8209  4.0549  0.2331
 6784SOL    HW224269   2.936   4.925   9.528 -0.2259 -0.6467 -2.5159
 6785SOL     OW24270   3.256   2.647   6.008  0.1154 -0.0117 -0.0933
 6785SOL    HW124271   3.192   2.576   6.001  0.0941  0.1220 -1.4726
 6785SOL    HW224272   3.310   2.638   5.930  1.2686  0.3947  0.6332
 6786SOL     OW24273   3.889   0.529   4.582  0.4000  0.2989 -0.1641
 6786SOL    HW124274   3.904   0.620   4.555 -0.3791  1.0040  1.6124
 6786SOL    HW224275   3.934   0.522   4.666 -0.6890 -0.5670  0.3643
 6787SOL     OW24276   1.562   9.774   6.992 -0.2992 -0.0407  0.4266
 6787SOL    HW124277   1.612   9.821   7.058  1.5381 -0.2972 -0.6859
 6787SOL    HW224278   1.491   9.731   7.040 -0.2590  1.4396  1.8789
 6788SOL     OW24279   5.167   6.418   9.322  0.1947 -0.3883  0.2393
 6788SOL    HW124280   5.108   6.493   9.326 -0.6020 -0.9567 -0.5819
 6788SOL    HW224281   5.110   6.343   9.310  1.1013 -0.9318 -0.8512
 6789SOL     OW24282   9.047   2.871   2.868  0.5943  0.3878  0.0888
 6789SOL    HW124283   9.073   2.962   2.851 -1.8203  1.1629  0.1368
 6789SOL    HW224284   8.960   2.864   2.827  1.2059 -2.2586 -0.9065
 6790SOL     OW24285   4.580   6.866   4.902 -0.1023 -0.0276 -0.1200
 6790SOL    HW124286   4.499   6.817   4.918 -0.5244  0.4498 -0.7440
 6790SOL    HW224287   4.644   6.826   4.960 -1.0437  0.2419  1.1588
 6791SOL     OW24288   9.820   3.105   4.421  0.2782 -0.8841 -0.0873
 6791SOL    HW124289   9.888   3.165   4.454  0.2122 -0.2477 -1.0647
 6791SOL    HW224290   9.757   3.099   4.493  1.7423 -2.1330  1.1613
 6792SOL     OW24291   7.473   0.069   1.633 -0.4788  0.2708 -0.3657
 6792SOL    HW124292   7.387   0.108   1.618  0.0245  0.6920 -2.4463
 6792SOL    HW224293   7.535   0.143   1.628 -0.0015  0.0395  1.5138
 6793SOL     OW24294   0.543   7.461   2.026 -0.1996 -0.1085 -0.7941
 6793SOL    HW124295   0.506   7.547   2.044  0.1609 -0.2008  0.4919
 6793SOL    HW224296   0.524   7.410   2.105  0.7098 -0.8193 -1.0187
 6794SOL     OW24297   1.923   4.532   1.486 -0.2680  0.0627  0.4044
 6794SOL    HW124298   1.890   4.445   1.509  0.3341  0.4261  2.8342
 6794SOL    HW224299   2.001   4.543   1.539  0.1938  1.7521 -0.5581
 6795SOL     OW24300   4.446   5.068   3.008 -0.4540 -0.0868 -0.7937
 6795SOL    HW124301   4.511   5.103   3.069 -3.1893  2.6388  0.8098
 6795SOL    HW224302   4.458   5.119   2.928 -1.9180  1.9969  0.2417
 6796SOL     OW24303   4.394   9.046   1.058 -0.0661 -0.0175  0.2049
 6796SOL    HW124304   4.395   9.141   1.058  0.7297  0.0020 -1.4655
 6796SOL    HW224305   4.477   9.021   1.099 -0.4842 -0.0087  1.0704
 6797SOL     OW24306   3.572   3.133  10.161  0.3481 -0.2155  0.1503
 6797SOL    HW124307   3.581   3.132  10.066 -0.1085 -0.1365  0.1046
 6797SOL    HW224308   3.661   3.120  10.194  0.4142 -0.8801 -0.2856
 6798SOL     OW24309   5.072   1.075   1.624  0.0501  0.3738 -0.5678
 6798SOL    HW124310   5.038   1.153   1.668 -0.0402  1.2034 -2.0525
 6798SOL    HW224311   5.166   1.092   1.615  0.1338  0.0300 -0.3407
 6799SOL     OW24312   0.123   2.112   2.159 -0.2609  0.1592  1.0362
 6799SOL    HW124313   0.112   2.185   2.097  0.2281 -0.2170  0.4960
 6799SOL    HW224314   0.034   2.083   2.177 -0.3815 -0.2969 -0.1893
 6800SOL     OW24315   1.782   9.355   5.008 -0.0375  0.1308 -0.0068
 6800SOL    HW124316   1.756   9.292   4.941  1.0116 -0.2613 -0.0614
 6800SOL    HW224317   1.877   9.359   5.002  0.0603  0.2869  1.2893
 6801SOL     OW24318   3.648   5.168  10.100 -0.1093 -0.0692  0.6366
 6801SOL    HW124319   3.644   5.164  10.005  1.8286 -0.2194  0.5128
 6801SOL    HW224320   3.647   5.077  10.128  0.3139 -0.0591  0.6884
 6802SOL     OW24321   0.935   4.737   3.447  0.1786  0.2219  0.0540
 6802SOL    HW124322   0.857   4.708   3.399  0.4290  2.0911 -1.6269
 6802SOL    HW224323   0.922   4.706   3.536 -1.5723 -1.1510 -0.6303
 6803SOL     OW24324   0.084   1.913   0.772  0.0761  0.0846 -0.8249
 6803SOL    HW124325   0.005   1.913   0.825  0.6331 -0.8920  0.0406
 6803SOL    HW224326   0.112   2.004   0.770  0.0075  0.1490  0.5140
 6804SOL     OW24327   4.619   7.359   3.201 -0.2537 -0.5394  0.3778
 6804SOL    HW124328   4.652   7.395   3.283 -0.5808 -1.8034  1.0894
 6804SOL    HW224329   4.524   7.357   3.211 -0.5797  2.1775 -1.2821
 6805SOL     OW24330   8.967   3.689   2.358  0.1747 -0.4646 -0.4859
 6805SOL    HW124331   8.961   3.749   2.432  0.9386 -1.0504  0.0653
 6805SOL    HW224332   8.920   3.611   2.387  0.6535 -0.7733 -0.5398
 6806SOL     OW24333   4.580   0.223   6.961  0.5485  0.3889  0.5991
 6806SOL    HW124334   4.663   0.268   6.942  0.8942 -1.1741 -2.2329
 6806SOL    HW224335   4.563   0.172   6.882 -2.0029 -1.0948  1.9933
 6807SOL     OW24336   7.217   8.095   7.569 -0.2460  0.4409 -0.0477
 6807SOL    HW124337   7.273   8.022   7.541  0.6893  0.0888  2.4992
 6807SOL    HW224338   7.277   8.168   7.581 -0.6473  0.6576  0.6920
 6808SOL     OW24339   5.946   7.652   8.985 -0.9142  0.0114 -0.1878
 6808SOL    HW124340   5.873   7.632   8.926  0.4509  0.3727 -2.0994
 6808SOL    HW224341   6.009   7.582   8.970  0.7509  1.6875 -1.4743
 6809SOL     OW24342   9.457   8.387   5.797  0.0797  0.4803 -0.3386
 6809SOL    HW124343   9.383   8.340   5.837  1.0107 -1.4013 -0.6969
 6809SOL    HW224344   9.492   8.441   5.868  0.0469 -0.7537  0.6604
 6810SOL     OW24345   9.881   8.700   9.027 -0.2857 -0.1222  0.2273
 6810SOL    HW124346   9.962   8.709   9.077 -0.9958  1.1175  1.2242
 6810SOL    HW224347   9.894   8.757   8.951 -0.4898  0.6892  0.7829
 6811SOL     OW24348   4.258   9.287   9.057  0.0535  0.0521  0.5033
 6811SOL    HW124349   4.342   9.262   9.096  0.1625  0.2261  0.3769
 6811SOL    HW224350   4.199   9.295   9.132  0.6143  1.8139  0.7899
 6812SOL     OW24351   1.105   0.091   4.808  0.0805 -0.5239 -0.0521
 6812SOL    HW124352   1.169   0.049   4.865  0.5149 -1.6253 -1.2919
 6812SOL    HW224353   1.058   0.151   4.865  3.1141  1.4249  0.6641
 6813SOL     OW24354   1.839   6.328   7.862  0.4544 -0.5183  0.1809
 6813SOL    HW124355   1.876   6.284   7.786 -0.5235 -1.0934  0.0156
 6813SOL    HW224356   1.769   6.384   7.826 -0.2506 -1.0613  0.6743
 6814SOL     OW24357   8.381   7.676   5.000 -0.6017  0.9574  0.0973
 6814SOL    HW124358   8.373   7.641   5.089 -1.0988 -2.0338 -1.0187
 6814SOL    HW224359   8.296   7.659   4.960  0.3810 -0.0652 -1.6693
 6815SOL     OW24360   3.727   7.970  10.076 -0.5622  0.0611 -0.0652
 6815SOL    HW124361   3.655   7.942  10.133 -1.5164 -0.1495 -1.3473
 6815SOL    HW224362   3.806   7.944  10.124 -1.3606 -1.7023  0.4037
 6816SOL     OW24363   9.733   3.975  10.101 -0.2269  0.1466 -0.0766
 6816SOL    HW124364   9.686   4.028  10.036 -0.2758  0.9048  0.5647
 6816SOL    HW224365   9.689   3.890  10.099 -1.6376  0.8416  0.5075
 6817SOL     OW24366   4.599   6.552   6.986  0.0963  0.0797  0.0498
 6817SOL    HW124367   4.559   6.489   6.926  0.8648 -0.7263  0.3705
 6817SOL    HW224368   4.528   6.613   7.007 -0.5590 -0.4630 -0.5505
 6818SOL     OW24369   2.749   1.669   0.395  0.4022 -0.0424  0.1141
 6818SOL    HW124370   2.825   1.642   0.447  1.1176 -0.6956 -1.2064
 6818SOL    HW224371   2.697   1.722   0.454  0.6297 -1.6115  1.8314
 6819SOL     OW24372   9.597   4.774   7.076  0.0862 -0.4461 -0.2120
 6819SOL    HW124373   9.660   4.822   7.023  1.5853 -0.6685  1.3140
 6819SOL    HW224374   9.512   4.793   7.035  0.9544  1.1258 -1.3665
 6820SOL     OW24375   8.853   8.705   6.513 -0.0145  0.4066 -0.3613
 6820SOL    HW124376   8.767   8.672   6.540  0.0317 -0.0046 -0.7182
 6820SOL    HW224377   8.915   8.639   6.543  0.3612  1.4432  1.3178
 6821SOL     OW24378   2.221   5.834   9.793  0.4256 -0.5691 -0.1652
 6821SOL    HW124379   2.231   5.866   9.883  1.1559 -0.8735 -0.1252
 6821SOL    HW224380   2.267   5.899   9.740  1.2751 -1.1523 -0.1595
 6822SOL     OW24381   2.614   7.752   9.879 -0.3956  0.0352  0.2440
 6822SOL    HW124382   2.591   7.673   9.928 -0.9234  0.0491  0.0303
 6822SOL    HW224383   2.586   7.734   9.790 -1.2122  0.7376  0.3427
 6823SOL     OW24384   1.767   8.472   4.150 -0.7431  0.2205 -0.1114
 6823SOL    HW124385   1.759   8.384   4.187 -0.0577  0.4016  0.4853
 6823SOL    HW224386   1.807   8.459   4.064  0.6726  0.0416  0.5454
 6824SOL     OW24387   1.328   0.085   7.496 -0.5757  0.8622 -0.3833
 6824SOL    HW124388   1.290   0.169   7.474  2.0721  1.7953 -1.8342
 6824SOL    HW224389   1.376   0.058   7.418  1.3812 -0.3645  1.1138
 6825SOL     OW24390   1.294   6.566   7.737  0.6770  0.4267  0.6889
 6825SOL    HW124391   1.375   6.518   7.724  0.9326  1.0636 -0.1311
 6825SOL    HW224392   1.286   6.575   7.832  1.6463  0.4990  0.7670
 6826SOL     OW24393   3.148   5.118   1.381 -0.3398 -0.3405  0.1227
 6826SOL    HW124394   3.110   5.162   1.306 -1.8555 -1.4861  0.1721
 6826SOL    HW224395   3.208   5.054   1.344  0.2709  0.2971 -0.0178
 6827SOL     OW24396   3.412   2.473   4.609 -0.5276 -0.0464  0.8137
 6827SOL    HW124397   3.470   2.479   4.534  0.8688  1.6394  1.9387
 6827SOL    HW224398   3.323   2.476   4.572  0.0969  2.2761 -0.7205
 6828SOL     OW24399   7.599   1.343   5.407  0.3196 -0.1478  0.3032
 6828SOL    HW124400   7.592   1.252   5.436 -1.4465 -0.3693 -0.6504
 6828SOL    HW224401   7.529   1.388   5.456 -0.6800  0.0856 -1.2798
 6829SOL     OW24402   3.902   5.594   8.229 -0.0799  0.8029 -0.4238
 6829SOL    HW124403   3.883   5.679   8.270 -2.4320 -0.1504  0.6052
 6829SOL    HW224404   3.860   5.599   8.143  1.0282  1.1779 -0.9585
 6830SOL     OW24405   2.635   2.675   1.725  0.3712  0.1376 -0.2430
 6830SOL    HW124406   2.711   2.733   1.721  0.2577  0.5548  2.1314
 6830SOL    HW224407   2.560   2.731   1.707  0.4730  0.1145 -0.7516
 6831SOL     OW24408   4.235   2.325   3.075  0.1530 -0.9812 -0.0974
 6831SOL    HW124409   4.181   2.255   3.039 -1.0781  0.1630 -0.5415
 6831SOL    HW224410   4.321   2.284   3.089  0.1103 -2.0297 -2.4119
 6832SOL     OW24411   0.482   6.486   9.425 -0.2969 -0.5869  0.5296
 6832SOL    HW124412   0.464   6.395   9.449 -1.1090 -1.3099 -2.3753
 6832SOL    HW224413   0.557   6.481   9.366 -0.8543  0.4935 -0.3112
 6833SOL     OW24414   6.540   3.390   8.820 -0.0915  0.3324  0.2450
 6833SOL    HW124415   6.548   3.347   8.905 -3.4872  0.7482  0.9207
 6833SOL    HW224416   6.461   3.353   8.781  1.6644 -0.2802 -3.1009
 6834SOL     OW24417   0.612   8.219   3.539  0.6607  0.3240 -0.4825
 6834SOL    HW124418   0.691   8.273   3.540  0.8951 -0.0148 -0.4878
 6834SOL    HW224419   0.561   8.250   3.613  1.8587 -1.0015  0.9708
 6835SOL     OW24420   2.367   4.667   3.577 -0.4082 -0.0579  0.4072
 6835SOL    HW124421   2.372   4.747   3.630  2.0277  0.6716 -0.7474
 6835SOL    HW224422   2.440   4.613   3.609 -0.0051 -0.3724 -0.9780
 6836SOL     OW24423   7.485   8.074   5.658  0.4579  0.3382  0.0107
 6836SOL    HW124424   7.490   8.123   5.740 -0.4524  0.9370 -0.2697
 6836SOL    HW224425   7.521   8.132   5.592 -0.9164  0.8014 -0.3783
 6837SOL     OW24426   2.991   9.381   6.483  0.4478  0.6855 -0.4882
 6837SOL    HW124427   3.017   9.352   6.395  1.9561 -1.8457  0.6896
 6837SOL    HW224428   2.897   9.401   6.474  0.4295 -0.0335 -2.5461
 6838SOL     OW24429   3.379   8.328   0.954  0.0003 -0.3215 -0.1686
 6838SOL    HW124430   3.378   8.287   0.867  0.7394  0.5500 -0.6032
 6838SOL    HW224431   3.412   8.260   1.012 -0.4403 -0.8940 -0.5760
 6839SOL     OW24432   7.918   1.561   1.945 -0.1665 -0.3640 -0.1130
 6839SOL    HW124433   7.981   1.597   1.882 -0.7311 -1.5814 -1.4390
 6839SOL    HW224434   7.970   1.504   2.002  0.2475  0.2387  0.1184
 6840SOL     OW24435   3.553   5.670   7.741  0.0603 -0.4298 -0.4407
 6840SOL    HW124436   3.519   5.719   7.667  0.0548 -0.6898 -0.6122
 6840SOL    HW224437   3.506   5.587   7.739 -1.1260  0.1607  0.8006
 6841SOL     OW24438   2.358   3.281   7.477 -0.6005  0.2978 -0.2597
 6841SOL    HW124439   2.293   3.280   7.547 -1.7883 -0.4797 -1.3258
 6841SOL    HW224440   2.375   3.188   7.459  1.3042  0.4693  0.4165
 6842SOL     OW24441   0.191   5.715   1.722 -0.3185 -0.2168 -0.0384
 6842SOL    HW124442   0.279   5.678   1.727 -0.1238  0.4174  2.8334
 6842SOL    HW224443   0.180   5.736   1.629  2.3339 -0.8174 -0.5896
 6843SOL     OW24444   3.967   1.357   4.412 -0.0827  0.0543 -0.1360
 6843SOL    HW124445   3.955   1.450   4.433 -0.3556 -0.0189  0.0422
 6843SOL    HW224446   4.010   1.357   4.327  2.1492  0.3969  0.8922
 6844SOL     OW24447   0.580   6.426   0.549  0.2692  0.2203  0.5044
 6844SOL    HW124448   0.511   6.461   0.605 -1.4200 -1.1759 -0.6186
 6844SOL    HW224449   0.607   6.344   0.592 -0.1763 -0.2325 -0.0619
 6845SOL     OW24450   9.195   9.602   7.154  0.0785  0.0193  0.5668
 6845SOL    HW124451   9.162   9.552   7.079 -0.4369 -0.5195  1.1459
 6845SOL    HW224452   9.286   9.574   7.163  0.1674  0.1374  0.1152
 6846SOL     OW24453   5.476   0.264   9.050 -0.0248 -0.4013  0.2041
 6846SOL    HW124454   5.548   0.326   9.039  0.2849 -0.2569  2.6431
 6846SOL    HW224455   5.518   0.185   9.084 -1.0914  0.1266  3.0029
 6847SOL     OW24456   9.637   6.098   3.691  0.1826  0.1467 -0.2311
 6847SOL    HW124457   9.601   6.153   3.760 -2.2592 -0.4486 -0.9465
 6847SOL    HW224458   9.594   6.127   3.611  1.0778 -0.8371 -1.1087
 6848SOL     OW24459   2.455   0.769   6.114  0.1566 -0.6926 -0.4452
 6848SOL    HW124460   2.394   0.699   6.090 -0.9142 -0.3938  1.2487
 6848SOL    HW224461   2.476   0.753   6.206  0.2740  0.9159 -0.1558
 6849SOL     OW24462   8.001   8.766   6.767 -0.3565 -0.3140  0.1895
 6849SOL    HW124463   7.921   8.716   6.784 -0.3659 -0.2188  0.4365
 6849SOL    HW224464   8.038   8.727   6.688 -0.3016 -0.7852  0.4466
 6850SOL     OW24465   0.873   6.830   3.905 -0.0242  0.3101  0.1100
 6850SOL    HW124466   0.832   6.835   3.991  0.7925  1.2133  0.4609
 6850SOL    HW224467   0.923   6.911   3.897  0.6593 -0.1844 -0.8344
 6851SOL     OW24468   7.716   0.748   5.305  0.3907 -0.0479  0.1400
 6851SOL    HW124469   7.794   0.732   5.251  0.6803  0.9063  0.2609
 6851SOL    HW224470   7.732   0.699   5.386  1.7808  1.6765  0.9764
 6852SOL     OW24471   9.339   2.803   1.392  0.3724  0.5222 -0.2596
 6852SOL    HW124472   9.264   2.803   1.333  0.2914 -1.0494 -0.1945
 6852SOL    HW224473   9.325   2.880   1.448 -0.9313  0.5402 -0.5738
 6853SOL     OW24474   1.077  10.193   0.466  0.0944 -0.0983  0.2751
 6853SOL    HW124475   1.025  10.114   0.455  1.8748 -1.6057  1.8197
 6853SOL    HW224476   1.167  10.165   0.447  0.5818  2.0626 -1.0055
 6854SOL     OW24477   6.952   5.947   4.820  0.5761 -0.5740 -0.4142
 6854SOL    HW124478   6.995   5.863   4.837 -1.5967 -1.5573  0.7513
 6854SOL    HW224479   6.932   5.981   4.908  1.3889  1.1703 -0.8702
 6855SOL     OW24480   5.374   2.779   1.141  0.2306  0.4277 -0.2248
 6855SOL    HW124481   5.351   2.871   1.158 -2.3237 -0.4158  1.4742
 6855SOL    HW224482   5.408   2.747   1.224  1.7699 -0.0504 -1.0033
 6856SOL     OW24483   5.294   5.908   6.979  0.2631 -0.2079 -0.6447
 6856SOL    HW124484   5.281   5.838   7.043  2.5106 -0.6817 -0.6372
 6856SOL    HW224485   5.360   5.874   6.918 -0.4131  0.9700 -2.1111
 6857SOL     OW24486   9.242   1.734   2.846  0.2883  0.4380  0.2053
 6857SOL    HW124487   9.169   1.745   2.784 -0.5027 -0.3979  0.9590
 6857SOL    HW224488   9.201   1.745   2.932  0.8992 -0.8399  0.6717
 6858SOL     OW24489   5.206   4.112   5.554  0.3773 -0.7630 -0.1573
 6858SOL    HW124490   5.196   4.140   5.463  1.0541 -1.7111 -0.5374
 6858SOL    HW224491   5.276   4.167   5.589 -1.1495  0.9375  0.3942
 6859SOL     OW24492   3.336   0.606   4.976  0.0817  0.0183  0.0125
 6859SOL    HW124493   3.394   0.577   4.906  0.6196  0.1449  0.3993
 6859SOL    HW224494   3.362   0.553   5.052  0.2351  0.6384  0.3973
 6860SOL     OW24495   4.553   0.314   0.878 -0.0472  0.6282 -0.4320
 6860SOL    HW124496   4.474   0.270   0.912 -0.6521  1.0328 -1.2866
 6860SOL    HW224497   4.539   0.319   0.784  1.6621 -0.5762 -0.8059
 6861SOL     OW24498   4.745   2.748   9.275 -0.4513  0.6888 -0.2586
 6861SOL    HW124499   4.685   2.717   9.208 -1.9300  1.6486  0.5754
 6861SOL    HW224500   4.689   2.783   9.344  1.0199 -0.1403  1.4471
 6862SOL     OW24501   4.255   5.085  10.065  0.2852  0.0299 -0.7499
 6862SOL    HW124502   4.279   5.010  10.121  1.1781  0.8383 -0.0145
 6862SOL    HW224503   4.338   5.128  10.046 -0.2956  1.3753 -0.3698
 6863SOL     OW24504   4.267   4.689   6.268  0.0100  0.2181  0.1441
 6863SOL    HW124505   4.217   4.768   6.246 -1.2080 -0.2424  1.0774
 6863SOL    HW224506   4.238   4.667   6.357 -1.1670 -2.3545 -0.7680
 6864SOL     OW24507   8.679   1.233   8.294  0.1621  0.1908 -0.4296
 6864SOL    HW124508   8.747   1.167   8.278  0.3231 -0.0599  1.1444
 6864SOL    HW224509   8.662   1.270   8.207  3.0936  1.0342 -0.7733
 6865SOL     OW24510   6.362   3.201   0.077 -0.2211 -0.2521 -0.5543
 6865SOL    HW124511   6.288   3.250   0.041  0.8517  1.4856 -0.4895
 6865SOL    HW224512   6.361   3.118   0.029 -0.5481  0.8432 -2.5652
 6866SOL     OW24513   9.400   0.901   5.333 -0.1560 -0.1652  0.1088
 6866SOL    HW124514   9.320   0.889   5.383  0.0853  1.5384  0.9700
 6866SOL    HW224515   9.376   0.965   5.265  0.7686  1.4424  1.2334
 6867SOL     OW24516   4.730   3.886   4.345 -0.2454  0.2651 -0.3118
 6867SOL    HW124517   4.793   3.869   4.275 -1.0697  0.7174 -1.1950
 6867SOL    HW224518   4.648   3.849   4.311 -0.4418 -0.4186  0.8643
 6868SOL     OW24519   3.167   6.447   2.977  0.0471 -0.0984  0.0915
 6868SOL    HW124520   3.131   6.509   3.040  0.4323  0.2252 -0.0063
 6868SOL    HW224521   3.150   6.487   2.892  1.4707  0.5255  0.0722
 6869SOL     OW24522   4.159   6.924   6.389 -0.3848 -0.1833  0.0768
 6869SOL    HW124523   4.082   6.969   6.423 -1.3765 -0.1677 -2.0274
 6869SOL    HW224524   4.139   6.831   6.399 -0.0499 -0.1867  0.7943
 6870SOL     OW24525   7.234   3.653   4.967 -0.1878 -0.1625  0.5121
 6870SOL    HW124526   7.152   3.605   4.975 -0.4571  0.2116  0.0667
 6870SOL    HW224527   7.259   3.644   4.875 -0.9893  1.7216  0.0613
 6871SOL     OW24528   4.892   2.013   3.759  0.0109 -0.1278  0.2400
 6871SOL    HW124529   4.925   1.952   3.693 -0.4227 -0.8965  0.7277
 6871SOL    HW224530   4.855   2.086   3.708  0.0187 -0.5320 -0.3511
 6872SOL     OW24531   4.078   6.050   9.376  0.8063  0.1922  0.2986
 6872SOL    HW124532   3.995   6.088   9.404 -0.2832 -0.1087 -2.2193
 6872SOL    HW224533   4.079   6.063   9.281  2.5922 -1.8565 -0.0419
 6873SOL     OW24534   8.453   9.867   6.896  0.2914 -0.5432 -0.0918
 6873SOL    HW124535   8.388   9.807   6.859 -1.4865  0.1329  1.7862
 6873SOL    HW224536   8.414   9.898   6.978  1.4071  2.6796 -0.6324
 6874SOL     OW24537   1.003   0.246   7.177 -0.4244 -0.1539  0.2485
 6874SOL    HW124538   1.037   0.231   7.265 -0.6688  0.6335  0.4863
 6874SOL    HW224539   1.013   0.340   7.163  0.5842 -0.4091 -0.9792
 6875SOL     OW24540   5.137   0.963   7.167 -0.1067  0.2170 -0.2295
 6875SOL    HW124541   5.151   1.037   7.108  2.4202 -0.9455 -1.2593
 6875SOL    HW224542   5.225   0.930   7.185 -1.1473 -3.2867 -0.8612
 6876SOL     OW24543   7.798   1.934   0.196 -0.5174  0.2235  0.3165
 6876SOL    HW124544   7.875   1.964   0.243 -1.4569  0.6759  1.6376
 6876SOL    HW224545   7.730   1.927   0.263 -0.9752 -2.7406 -0.2874
 6877SOL     OW24546   3.706   4.269   3.296 -0.7739  0.0022  0.4510
 6877SOL    HW124547   3.723   4.310   3.381 -1.2035  0.3901  0.3557
 6877SOL    HW224548   3.659   4.336   3.247  0.6586  0.2767 -0.5728
 6878SOL     OW24549   5.369   1.888   2.757 -0.5294  0.3093 -0.1867
 6878SOL    HW124550   5.278   1.859   2.753 -0.8426  1.1967  0.4168
 6878SOL    HW224551   5.365   1.983   2.747  0.3186  0.3788  0.0616
 6879SOL     OW24552   4.598   1.617   3.087  0.4121  0.0580 -0.7141
 6879SOL    HW124553   4.691   1.642   3.093  0.8095 -1.5759  0.5122
 6879SOL    HW224554   4.563   1.631   3.175 -0.2661 -0.2172 -0.9302
 6880SOL     OW24555   4.158   7.420   3.474  0.5197 -0.2560 -0.5090
 6880SOL    HW124556   4.183   7.388   3.561 -0.4023  0.1560 -0.0708
 6880SOL    HW224557   4.151   7.515   3.485 -2.3895 -0.4141 -0.2255
 6881SOL     OW24558   6.038   2.446   9.166  0.2586  0.2494 -0.1996
 6881SOL    HW124559   5.984   2.369   9.151 -0.6888  0.7387  0.6083
 6881SOL    HW224560   6.088   2.456   9.085  0.3754 -1.1866 -0.3196
 6882SOL     OW24561   2.103   2.768   3.482 -0.1050  0.0232  0.5872
 6882SOL    HW124562   2.184   2.818   3.472 -0.3136  0.1765 -0.4427
 6882SOL    HW224563   2.120   2.709   3.555  0.6757  0.5613  0.8478
 6883SOL     OW24564   5.520   8.166   2.833  0.3349  0.2168 -0.4145
 6883SOL    HW124565   5.425   8.159   2.825  0.5050 -1.1989 -1.4406
 6883SOL    HW224566   5.542   8.247   2.787 -0.3457  0.4139 -0.3974
 6884SOL     OW24567   6.512   4.570   7.835  0.5127 -0.2305 -0.3373
 6884SOL    HW124568   6.592   4.599   7.879  0.0698  2.8001 -1.2901
 6884SOL    HW224569   6.538   4.491   7.787  2.8778  0.5081 -0.3979
 6885SOL     OW24570   6.492   5.004   3.868  0.3177 -0.3310 -0.1154
 6885SOL    HW124571   6.578   4.969   3.893  0.5879 -1.8741 -2.7361
 6885SOL    HW224572   6.512   5.088   3.826  0.1756  0.7262  1.8201
 6886SOL     OW24573   2.647   4.237   8.806  0.8221  0.2974 -1.3172
 6886SOL    HW124574   2.620   4.267   8.720  1.6935  1.4728 -1.2050
 6886SOL    HW224575   2.743   4.238   8.802  0.8666 -0.3364 -0.5682
 6887SOL     OW24576   2.047   4.422   7.548  0.1600  0.4569  0.4163
 6887SOL    HW124577   2.070   4.511   7.524  0.7890  0.1088 -0.3104
 6887SOL    HW224578   2.005   4.386   7.470 -1.6184  0.6305  1.2485
 6888SOL     OW24579   5.568   6.958   1.703  0.2173  0.0443  0.4804
 6888SOL    HW124580   5.556   7.039   1.653 -0.9116 -0.2944  0.1691
 6888SOL    HW224581   5.481   6.920   1.709  0.3218  0.0108  2.6591
 6889SOL     OW24582   1.301   2.632   4.537  0.1222 -0.0228  0.0143
 6889SOL    HW124583   1.223   2.601   4.491  0.0665 -0.0579  0.1315
 6889SOL    HW224584   1.270   2.705   4.590  0.2494  0.2279 -0.2495
 6890SOL     OW24585  10.152   0.792   6.753 -0.7928  0.5478  0.3633
 6890SOL    HW124586  10.228   0.760   6.704 -1.5774 -0.4738 -0.2059
 6890SOL    HW224587  10.189   0.825   6.835  0.5488  2.2468 -0.8489
 6891SOL     OW24588   5.147   0.676   7.833 -0.2832  0.2983  0.2817
 6891SOL    HW124589   5.241   0.666   7.818 -0.2787  0.4797  0.1848
 6891SOL    HW224590   5.106   0.640   7.754 -0.2858  0.4994  0.1922
 6892SOL     OW24591   5.563   3.320   9.827 -0.7615  0.3670 -0.2005
 6892SOL    HW124592   5.555   3.294   9.735 -1.0056  2.4424 -0.8145
 6892SOL    HW224593   5.652   3.355   9.834 -1.4324  2.1500 -0.2077
 6893SOL     OW24594   2.356   4.834   2.332  0.5119 -0.6251 -0.0199
 6893SOL    HW124595   2.276   4.885   2.347  0.0138 -1.5130  0.4164
 6893SOL    HW224596   2.411   4.891   2.278  0.1950  0.5804  0.8947
 6894SOL     OW24597   2.725   4.288   7.339  0.3400 -0.3423  0.3697
 6894SOL    HW124598   2.702   4.375   7.307  1.4654  0.4305  1.5421
 6894SOL    HW224599   2.643   4.239   7.334 -0.2738  0.7102 -0.5102
 6895SOL     OW24600   0.748   5.752   8.653 -0.5033 -0.2989 -0.6832
 6895SOL    HW124601   0.729   5.681   8.715 -0.0170  0.6365  0.5787
 6895SOL    HW224602   0.826   5.722   8.606  1.6157  0.6378  1.9942
 6896SOL     OW24603   8.972   1.147   9.663 -0.2473  1.0429 -0.4615
 6896SOL    HW124604   8.986   1.117   9.753  1.0532  1.0990 -0.6250
 6896SOL    HW224605   8.992   1.070   9.609 -3.1976  0.3044 -0.6676
 6897SOL     OW24606   7.677  10.072   6.585 -0.0528  0.5408 -0.1519
 6897SOL    HW124607   7.624  10.117   6.650 -1.3087 -0.4040 -0.4913
 6897SOL    HW224608   7.665  10.123   6.505 -0.3237  0.4185 -0.1889
 6898SOL     OW24609   9.826   2.107   9.996 -0.4092  0.0624  0.0134
 6898SOL    HW124610   9.878   2.058   9.932 -1.0514 -1.4721  0.6159
 6898SOL    HW224611   9.859   2.078  10.081 -0.6304  0.8839  0.3849
 6899SOL     OW24612   9.697   6.965   3.092 -0.1225  0.2649 -0.1251
 6899SOL    HW124613   9.744   6.924   3.019 -1.5391 -0.6693 -0.5557
 6899SOL    HW224614   9.718   7.058   3.085  0.2052  0.1157 -1.3908
 6900SOL     OW24615   8.979   7.963   3.314 -0.0010  0.2160  0.1297
 6900SOL    HW124616   8.982   7.905   3.238 -0.8305 -0.1072  0.3294
 6900SOL    HW224617   8.988   7.905   3.390 -0.6981  0.3539  0.3256
 6901SOL     OW24618   4.174   0.846   1.354  0.2282  0.0499  0.2046
 6901SOL    HW124619   4.217   0.808   1.277  1.8954  0.8694  0.6794
 6901SOL    HW224620   4.080   0.837   1.337  0.5730 -0.3867 -1.6099
 6902SOL     OW24621   6.395   7.371   2.624  0.3094 -0.3966  0.1640
 6902SOL    HW124622   6.403   7.389   2.717 -0.0769 -0.6119  0.2430
 6902SOL    HW224623   6.430   7.282   2.614 -1.0715 -1.0072  0.3745
 6903SOL     OW24624   9.060   7.804   8.492 -0.1325 -0.1084 -0.5761
 6903SOL    HW124625   9.092   7.719   8.461  0.0007 -0.1642 -0.2861
 6903SOL    HW224626   9.023   7.786   8.578  0.4353  0.2313 -0.2499
 6904SOL     OW24627   2.050   4.755   2.037 -0.6674 -0.1607  0.1471
 6904SOL    HW124628   2.009   4.670   2.056  1.5145 -1.2223  0.4312
 6904SOL    HW224629   2.129   4.733   1.987 -0.7961  1.8437 -1.0303
 6905SOL     OW24630   4.493   6.576   2.572  0.1375  0.3136 -0.6784
 6905SOL    HW124631   4.544   6.631   2.632 -0.4608  2.6249 -2.1394
 6905SOL    HW224632   4.476   6.496   2.621 -0.3452  2.0829  2.2601
 6906SOL     OW24633   5.897   1.658   8.913  0.5101  0.2215 -0.3233
 6906SOL    HW124634   5.972   1.717   8.904 -0.9659  1.9229 -2.1608
 6906SOL    HW224635   5.880   1.626   8.825 -0.9302 -0.1289  0.0537
 6907SOL     OW24636   4.779   8.327   8.633 -0.0762  0.7139 -0.2137
 6907SOL    HW124637   4.744   8.310   8.720 -0.9549 -1.7490 -0.9707
 6907SOL    HW224638   4.729   8.270   8.575  2.7092 -0.2547 -1.8872
 6908SOL     OW24639   6.758   3.648   0.535  0.3827  0.3044  0.0885
 6908SOL    HW124640   6.704   3.687   0.466  0.4579  1.8975  0.8885
 6908SOL    HW224641   6.741   3.701   0.612  1.4212 -0.5323  0.9230
 6909SOL     OW24642   4.758   1.571   7.336  0.3004  0.5442 -0.0066
 6909SOL    HW124643   4.758   1.666   7.346 -0.0568  0.4957  0.5019
 6909SOL    HW224644   4.788   1.556   7.246  1.7408  1.0823  0.3498
 6910SOL     OW24645   2.775   2.839   4.979  0.0760  0.4342  0.8589
 6910SOL    HW124646   2.752   2.905   5.045 -1.4028 -0.4090  1.2319
 6910SOL    HW224647   2.789   2.889   4.899  0.4605  1.3392  1.4759
 6911SOL     OW24648   3.387   6.299   3.130  0.3801 -0.1133  0.5228
 6911SOL    HW124649   3.315   6.323   3.072  0.1165 -0.2940  0.7701
 6911SOL    HW224650   3.387   6.369   3.196 -0.8805 -1.1414  1.6859
 6912SOL     OW24651   6.543  10.004   2.951  1.1688  0.1017 -0.4041
 6912SOL    HW124652   6.495   9.965   3.024  2.2007  0.9793  0.7998
 6912SOL    HW224653   6.496   9.976   2.873 -1.7472  1.4838  0.7143
 6913SOL     OW24654   5.657   6.305   4.065 -0.1482  0.3031  0.0197
 6913SOL    HW124655   5.618   6.371   4.122  1.4508  0.7199  0.6892
 6913SOL    HW224656   5.739   6.281   4.110 -0.0774 -1.1829 -0.8635
 6914SOL     OW24657   0.453   7.598   9.958  0.3850 -0.0957  0.3828
 6914SOL    HW124658   0.415   7.614  10.045  0.3598 -0.5206  0.4487
 6914SOL    HW224659   0.437   7.680   9.911  0.1189  0.0275  0.6771
 6915SOL     OW24660   2.109   6.121   7.777 -0.2896  0.2488 -0.4448
 6915SOL    HW124661   2.183   6.085   7.727  1.1935  0.4345  1.5131
 6915SOL    HW224662   2.089   6.204   7.733 -0.0674 -0.3042 -1.6444
 6916SOL     OW24663   3.276   1.268   7.347 -0.0120  0.4159 -0.2865
 6916SOL    HW124664   3.267   1.288   7.254 -0.3623 -1.4286 -0.6962
 6916SOL    HW224665   3.339   1.331   7.380  0.3371  0.9092 -1.8517
 6917SOL     OW24666   2.511   7.206   7.278 -0.1214  0.4235 -0.5850
 6917SOL    HW124667   2.429   7.161   7.301  0.5206 -1.4000 -1.6535
 6917SOL    HW224668   2.556   7.217   7.361 -0.6337 -0.2835 -0.1983
 6918SOL     OW24669  10.081   8.627   7.653 -0.9363  0.0595  0.5181
 6918SOL    HW124670  10.005   8.679   7.628 -1.0630 -0.2718  0.2002
 6918SOL    HW224671  10.044   8.545   7.685 -0.7072 -0.2199  0.0837
 6919SOL     OW24672   3.397   6.294   7.556  0.7699  0.0348 -0.2858
 6919SOL    HW124673   3.401   6.387   7.579 -1.0359 -0.0523  0.5035
 6919SOL    HW224674   3.420   6.292   7.463  0.1572  1.3627 -0.4963
 6920SOL     OW24675   8.611   3.285   0.758  0.1363  0.4513  0.3106
 6920SOL    HW124676   8.597   3.359   0.817 -1.8272  0.8278 -0.5492
 6920SOL    HW224677   8.546   3.220   0.783  1.4308 -0.7811  0.6472
 6921SOL     OW24678   6.550   2.303   4.331  0.2415  0.4332  0.1260
 6921SOL    HW124679   6.624   2.278   4.275  1.3003  1.3239  1.0765
 6921SOL    HW224680   6.563   2.396   4.347  0.4316  0.0716  2.4648
 6922SOL     OW24681  10.173   2.366   4.645 -0.1018  0.2201 -0.4674
 6922SOL    HW124682  10.195   2.333   4.732  0.9454 -1.3739 -1.2782
 6922SOL    HW224683  10.257   2.368   4.599 -0.5071  1.8484 -1.2077
 6923SOL     OW24684   5.468   8.592   9.076  0.0931  0.3116  0.0860
 6923SOL    HW124685   5.474   8.541   9.157 -0.3873  0.6526  0.3434
 6923SOL    HW224686   5.442   8.528   9.010  0.9665 -0.0649  0.0992
 6924SOL     OW24687   8.120   7.678   7.538  0.1191 -0.5470 -0.5525
 6924SOL    HW124688   8.177   7.678   7.460  0.4153  0.9847 -0.3738
 6924SOL    HW224689   8.032   7.668   7.503  0.2989 -0.4960 -1.0303
 6925SOL     OW24690   8.279   8.961   7.069  0.0529 -0.3601  0.4899
 6925SOL    HW124691   8.193   8.920   7.059 -0.1438 -0.0942  1.0859
 6925SOL    HW224692   8.270   9.047   7.029  0.2457 -0.5872 -0.0607
 6926SOL     OW24693   5.621   8.173   6.656  0.3163  0.4474  0.2705
 6926SOL    HW124694   5.623   8.252   6.602 -0.8013 -0.1079 -0.6501
 6926SOL    HW224695   5.589   8.105   6.597 -0.8305 -0.2208  1.5979
 6927SOL     OW24696   2.336   2.240   0.666 -0.3635 -0.2953  0.4339
 6927SOL    HW124697   2.257   2.196   0.634  0.5337 -2.6071  1.2221
 6927SOL    HW224698   2.360   2.193   0.746  1.8759  0.2507  0.1623
 6928SOL     OW24699   1.395   6.521   3.426 -0.5109  0.2764  0.1921
 6928SOL    HW124700   1.434   6.472   3.499 -0.0022 -0.2774 -0.4312
 6928SOL    HW224701   1.444   6.491   3.350 -1.3576  0.4878 -0.4421
 6929SOL     OW24702   8.159  10.107   5.285  0.0952 -0.0266 -0.4236
 6929SOL    HW124703   8.149  10.136   5.194 -0.2338  1.0021 -0.0816
 6929SOL    HW224704   8.078  10.137   5.328 -1.6800 -3.9375 -0.6046
 6930SOL     OW24705   9.881   2.385   6.550 -0.4919  0.0800 -0.0606
 6930SOL    HW124706   9.966   2.364   6.588 -0.2694  1.2159  0.1227
 6930SOL    HW224707   9.892   2.373   6.456 -0.6864 -1.5608  0.0987
 6931SOL     OW24708   2.987   4.242   7.279 -0.5112 -0.0057 -0.2028
 6931SOL    HW124709   2.899   4.274   7.298 -0.7841 -1.1886  0.6793
 6931SOL    HW224710   2.983   4.149   7.300  0.4705 -0.4532 -1.8808
 6932SOL     OW24711   3.193   2.605   2.741  0.1214 -0.3941 -0.2587
 6932SOL    HW124712   3.207   2.688   2.786  0.0679 -0.5832  0.1128
 6932SOL    HW224713   3.192   2.627   2.649  0.1602  0.0115 -0.1620
 6933SOL     OW24714   2.542   0.742   7.250 -0.2918 -0.2087  0.2383
 6933SOL    HW124715   2.624   0.752   7.201 -0.6498  2.0331 -0.0002
 6933SOL    HW224716   2.568   0.695   7.330  1.0553 -0.3215 -0.2362
 6934SOL     OW24717   5.024   2.954   5.648  0.4665 -0.2549  0.0601
 6934SOL    HW124718   5.061   3.008   5.718 -1.0387  0.9968 -0.0574
 6934SOL    HW224719   5.011   2.868   5.688 -0.1261  0.3702  1.2546
 6935SOL     OW24720   6.024   9.876   4.527 -0.2519 -0.2661 -0.5689
 6935SOL    HW124721   6.097   9.931   4.499 -0.0181  0.9992  2.2283
 6935SOL    HW224722   5.948   9.911   4.480  0.1158  1.6488  0.1762
 6936SOL     OW24723   8.172   2.092   6.883 -0.2391  0.3033 -0.2162
 6936SOL    HW124724   8.214   2.144   6.951 -0.6480  0.6287 -0.2095
 6936SOL    HW224725   8.111   2.152   6.841 -1.0204 -0.2802  0.0636
 6937SOL     OW24726   5.589   1.166   9.091 -0.6034 -0.5308  0.2709
 6937SOL    HW124727   5.681   1.153   9.112 -0.3496 -0.2826 -0.6518
 6937SOL    HW224728   5.547   1.183   9.175  0.0526 -1.4457  0.7968
 6938SOL     OW24729   6.121   8.431  10.030  0.4874  0.1808  0.4382
 6938SOL    HW124730   6.152   8.377   9.958  1.3727  0.1292  0.8403
 6938SOL    HW224731   6.185   8.502  10.036 -0.5997  1.2331 -0.0126
 6939SOL     OW24732   4.920   9.524   3.805  0.2644  0.3269  0.2982
 6939SOL    HW124733   4.991   9.587   3.796  1.4639 -0.9298  0.4293
 6939SOL    HW224734   4.965   9.440   3.815 -1.2014 -0.3131  2.1980
 6940SOL     OW24735   0.931   1.544   6.283 -0.4857  0.1062  0.4946
 6940SOL    HW124736   0.940   1.498   6.367 -0.0774 -1.6760 -0.4880
 6940SOL    HW224737   1.007   1.516   6.232 -2.2709 -1.2883 -1.5644
 6941SOL     OW24738   8.202   0.314   9.404 -0.5609 -0.7728  0.3460
 6941SOL    HW124739   8.253   0.379   9.355 -2.7564  0.6872 -0.1177
 6941SOL    HW224740   8.259   0.291   9.478  0.1468  2.0782  0.8254
 6942SOL     OW24741   2.190   8.209   1.002  0.5969  0.0431  0.8032
 6942SOL    HW124742   2.098   8.234   1.011  0.4898 -0.1389  0.2596
 6942SOL    HW224743   2.201   8.138   1.065 -0.5642 -2.3265 -1.4841
 6943SOL     OW24744   0.289   1.937   7.158  0.1072  0.2527 -0.4829
 6943SOL    HW124745   0.314   1.916   7.248  0.5739 -1.2885 -0.9333
 6943SOL    HW224746   0.301   2.032   7.151 -1.2989  0.6392  1.4650
 6944SOL     OW24747   2.729   4.624   1.415  0.3464  0.4934 -0.2812
 6944SOL    HW124748   2.708   4.568   1.341  3.0731 -0.5368 -0.3756
 6944SOL    HW224749   2.769   4.565   1.479 -0.3180  1.6776  1.3063
 6945SOL     OW24750   8.613   1.800   1.358 -0.0221  0.7097  0.6473
 6945SOL    HW124751   8.590   1.768   1.271 -0.1249 -0.7448  1.1935
 6945SOL    HW224752   8.580   1.734   1.419 -0.5994  2.0445  1.8537
 6946SOL     OW24753   2.994  10.040   2.783 -0.3895  0.6397 -0.5722
 6946SOL    HW124754   3.023  10.131   2.789  3.8132 -0.4846 -0.5602
 6946SOL    HW224755   3.020  10.000   2.867 -0.5376 -0.9279 -1.2264
 6947SOL     OW24756   0.637   2.138   3.489 -0.5278 -0.1659 -0.3811
 6947SOL    HW124757   0.690   2.063   3.515 -0.4531 -0.7622 -2.1624
 6947SOL    HW224758   0.700   2.208   3.471 -0.5762  0.2236  0.7989
 6948SOL     OW24759   1.269   8.021   4.487  0.4349  0.1118 -0.2725
 6948SOL    HW124760   1.320   8.082   4.434  0.5702 -0.9477 -1.4035
 6948SOL    HW224761   1.196   8.073   4.520 -1.0882  0.3166 -3.5547
 6949SOL     OW24762   1.484   9.925   5.886  0.2486  0.3348  0.3579
 6949SOL    HW124763   1.456   9.833   5.894  0.5257  0.1730 -0.4496
 6949SOL    HW224764   1.538   9.939   5.963 -0.2089 -0.0239  0.7588
 6950SOL     OW24765   4.540   7.800   8.203  0.4771  0.1982 -0.3667
 6950SOL    HW124766   4.610   7.760   8.255  0.5580  2.5266  1.4688
 6950SOL    HW224767   4.471   7.819   8.267  0.2512  2.4329 -1.1860
 6951SOL     OW24768   3.556   4.326   5.199  0.0785 -0.4586 -0.4552
 6951SOL    HW124769   3.537   4.403   5.254  4.1399 -0.4192  1.2674
 6951SOL    HW224770   3.482   4.320   5.139 -0.8433  4.3604 -0.2042
 6952SOL     OW24771   5.020   6.894   4.419  0.0608 -0.0910  0.3629
 6952SOL    HW124772   5.100   6.939   4.447 -0.4025  0.9713  0.0517
 6952SOL    HW224773   5.050   6.821   4.365  0.8618 -0.5527  1.4188
 6953SOL     OW24774   9.778   3.330   4.718 -0.3671  0.0248  0.2322
 6953SOL    HW124775   9.847   3.332   4.784  1.1941 -0.3626 -1.3206
 6953SOL    HW224776   9.798   3.402   4.658 -1.3580 -0.0437 -0.2140
 6954SOL     OW24777   6.715   7.723   0.329 -0.0440  0.1802 -0.4864
 6954SOL    HW124778   6.669   7.711   0.246 -0.0815  0.3370 -0.4890
 6954SOL    HW224779   6.792   7.776   0.307  1.1236 -1.5857 -0.7993
 6955SOL     OW24780   9.651   4.467   2.060  0.4225 -0.2096 -0.5172
 6955SOL    HW124781   9.596   4.431   1.991  0.4720  0.0221 -0.6772
 6955SOL    HW224782   9.733   4.418   2.054  0.4996 -0.0495 -0.7513
 6956SOL     OW24783   9.522   7.654   8.079 -0.3540 -0.8374 -0.1921
 6956SOL    HW124784   9.442   7.636   8.129 -0.4859  1.7200  0.6181
 6956SOL    HW224785   9.498   7.636   7.988 -2.1598  0.6876 -0.0669
 6957SOL     OW24786   8.944   0.249   4.846  0.6027  0.1317 -0.5549
 6957SOL    HW124787   9.017   0.241   4.907  0.3486  1.3291 -0.0638
 6957SOL    HW224788   8.901   0.163   4.849  0.8095  0.0490  0.6935
 6958SOL     OW24789   5.316   0.890   1.844 -0.0312 -0.2646 -0.0896
 6958SOL    HW124790   5.268   0.816   1.881  1.4791 -0.9385  0.6277
 6958SOL    HW224791   5.310   0.958   1.910  1.1136 -0.8285  0.6274
 6959SOL     OW24792   5.193   1.936   8.871 -0.0697  0.1513  0.1298
 6959SOL    HW124793   5.263   1.894   8.921  0.8058  0.6409 -0.6440
 6959SOL    HW224794   5.124   1.870   8.865  0.2545 -0.2817  1.0535
 6960SOL     OW24795   1.439   4.708   8.009  0.7135 -0.2734 -0.4249
 6960SOL    HW124796   1.448   4.758   7.928 -0.4675 -0.0592 -0.4429
 6960SOL    HW224797   1.449   4.773   8.079 -1.4703  0.1794 -0.4502
 6961SOL     OW24798   6.341   7.245   1.245 -0.1736 -0.2874 -0.1779
 6961SOL    HW124799   6.274   7.280   1.302 -0.3254 -0.7817 -0.0473
 6961SOL    HW224800   6.421   7.245   1.298 -0.1259  0.0468 -0.2464
 6962SOL     OW24801   3.272   6.289   8.606  0.0154  0.1461  0.0706
 6962SOL    HW124802   3.312   6.364   8.650 -0.5533  0.9270 -0.7270
 6962SOL    HW224803   3.196   6.268   8.660 -0.9531  1.4020 -0.7539
 6963SOL     OW24804   5.599   0.511   0.035 -0.1974 -0.1952  0.0285
 6963SOL    HW124805   5.511   0.475   0.021 -0.2340 -0.1447  0.1249
 6963SOL    HW224806   5.583   0.600   0.066 -0.1063  0.6290 -2.1394
 6964SOL     OW24807   4.563   8.910   9.981 -0.5081 -0.1308  0.1163
 6964SOL    HW124808   4.523   8.976  10.037  1.1807  0.7978  0.2817
 6964SOL    HW224809   4.489   8.862   9.944 -1.7049 -0.0064  2.1879
 6965SOL     OW24810   7.300   5.369   0.609  0.1412 -0.0698  0.1110
 6965SOL    HW124811   7.231   5.391   0.672 -1.0215 -0.4771 -0.9681
 6965SOL    HW224812   7.381   5.384   0.656 -0.6834 -0.8892  1.8997
 6966SOL     OW24813   7.011   2.498  10.012 -0.1941 -0.0683  0.3732
 6966SOL    HW124814   7.076   2.452  10.066  1.6626  1.1825 -0.6637
 6966SOL    HW224815   6.954   2.429   9.978  0.2634 -1.1641  1.7265
 6967SOL     OW24816   1.595   0.648   9.538 -0.0969 -0.3203 -0.1833
 6967SOL    HW124817   1.637   0.587   9.599 -1.2167 -1.7210 -0.7448
 6967SOL    HW224818   1.507   0.660   9.573 -0.1381  0.3779 -0.5074
 6968SOL     OW24819   6.728   9.142   0.891  0.5153 -0.2241 -0.1483
 6968SOL    HW124820   6.774   9.070   0.849 -0.3678  0.3521 -2.2615
 6968SOL    HW224821   6.695   9.106   0.973  0.7620 -1.9769 -0.7868
 6969SOL     OW24822   2.606   5.278   5.929 -0.4189  0.1451 -0.2226
 6969SOL    HW124823   2.549   5.202   5.916 -0.9480  0.5110 -0.0674
 6969SOL    HW224824   2.561   5.331   5.994 -0.3998  0.9430 -0.8421
 6970SOL     OW24825   1.160   2.622   3.781 -0.0468 -0.0287 -0.1174
 6970SOL    HW124826   1.187   2.713   3.792 -1.5224  0.4591 -0.3440
 6970SOL    HW224827   1.240   2.571   3.794  0.4517  1.1659  1.9641
 6971SOL     OW24828   5.782   5.949  10.065 -0.1827  0.1139  0.1364
 6971SOL    HW124829   5.694   5.957  10.030 -0.1092 -2.4839 -0.8900
 6971SOL    HW224830   5.839   5.982   9.996 -0.2262 -1.7262 -0.8489
 6972SOL     OW24831   1.573   0.595   8.587  0.4675 -0.5665 -0.4826
 6972SOL    HW124832   1.624   0.664   8.546 -0.3919  0.0351 -0.5644
 6972SOL    HW224833   1.634   0.553   8.648  0.6386  1.1519  0.5792
 6973SOL     OW24834   7.000   8.598   2.963  0.1766  0.1679  0.2365
 6973SOL    HW124835   6.961   8.685   2.957 -0.4778  0.0541  2.1706
 6973SOL    HW224836   7.038   8.583   2.876 -2.4877  1.0469 -1.2103
 6974SOL     OW24837   9.293   8.135   6.488 -0.6128 -0.3593 -0.5432
 6974SOL    HW124838   9.285   8.213   6.432  0.0701  0.5532  0.5790
 6974SOL    HW224839   9.291   8.062   6.427 -2.7633  0.4283 -1.5390
 6975SOL     OW24840   1.641   8.620   8.975 -0.6139  0.1008  0.1377
 6975SOL    HW124841   1.595   8.537   8.971 -1.2884  0.2538  2.7938
 6975SOL    HW224842   1.708   8.608   9.043  0.4785  1.1896 -0.6912
 6976SOL     OW24843   3.237   9.304   2.533  0.1206  0.0324  0.4766
 6976SOL    HW124844   3.281   9.220   2.519  0.2393  0.0829  0.5399
 6976SOL    HW224845   3.195   9.324   2.450  0.9867  0.4374  0.1205
 6977SOL     OW24846   2.139   9.863   8.945  0.0328  0.4542  0.2299
 6977SOL    HW124847   2.150   9.792   9.009  0.7066 -1.4778 -1.8846
 6977SOL    HW224848   2.072   9.831   8.885  2.3706  0.2024 -2.4481
 6978SOL     OW24849   8.098   5.422   1.603  0.2043 -0.5035  0.2603
 6978SOL    HW124850   8.124   5.360   1.671  1.6421  1.0079  1.1730
 6978SOL    HW224851   8.180   5.465   1.577 -0.5208 -0.0486 -1.4405
 6979SOL     OW24852   1.382   8.857   8.699  0.5226 -0.8287  1.0088
 6979SOL    HW124853   1.368   8.863   8.793 -1.2968  1.8939  0.6856
 6979SOL    HW224854   1.434   8.935   8.678  0.4150 -1.0914 -0.3179
 6980SOL     OW24855   2.656   3.940   0.062  0.1090  0.4394 -0.0794
 6980SOL    HW124856   2.673   3.874   0.129  1.9899  1.0331  0.0764
 6980SOL    HW224857   2.572   3.979   0.088  1.0867  1.1073  2.3291
 6981SOL     OW24858   2.352   7.031   9.091  0.6191  0.5916 -0.0781
 6981SOL    HW124859   2.420   7.089   9.125 -0.0171  1.9559 -1.0301
 6981SOL    HW224860   2.277   7.046   9.149  0.2820  1.1360 -0.6516
 6982SOL     OW24861   5.465   8.217   7.870 -0.2581 -0.1462 -0.1997
 6982SOL    HW124862   5.492   8.308   7.855  0.0629 -0.1601  0.2865
 6982SOL    HW224863   5.463   8.178   7.783 -0.5843  0.3795 -0.4347
 6983SOL     OW24864   5.765   1.668   7.652  0.0281  0.6506 -0.2649
 6983SOL    HW124865   5.850   1.633   7.627 -0.8008 -0.7640 -1.2416
 6983SOL    HW224866   5.768   1.671   7.748  2.0016  2.8917 -0.3074
 6984SOL     OW24867   0.925   1.073   0.686  0.3007 -0.0411  0.1472
 6984SOL    HW124868   0.952   1.066   0.594 -0.2889  2.2941 -0.2786
 6984SOL    HW224869   0.831   1.087   0.682  0.5242  2.1080  0.9147
 6985SOL     OW24870   9.254   6.365   6.971 -0.3762 -0.4213  0.2053
 6985SOL    HW124871   9.283   6.419   7.044 -0.8946  1.4027 -0.8916
 6985SOL    HW224872   9.303   6.283   6.981 -0.8844 -0.4849  2.9150
 6986SOL     OW24873   4.038   4.305   3.909 -0.4550  0.3533 -0.3859
 6986SOL    HW124874   4.113   4.359   3.883  0.1755 -0.8070 -1.0625
 6986SOL    HW224875   3.968   4.332   3.849 -0.1956  0.5464 -0.6095
 6987SOL     OW24876   1.597   2.886   2.650  0.0438 -0.1251  0.1025
 6987SOL    HW124877   1.623   2.963   2.700 -0.2415  0.5452 -0.7701
 6987SOL    HW224878   1.502   2.882   2.658 -0.2425  1.1182 -1.9301
 6988SOL     OW24879   7.813   8.971   6.189 -0.2546 -0.2785  0.2667
 6988SOL    HW124880   7.727   8.975   6.231 -0.4035  0.1022 -0.0668
 6988SOL    HW224881   7.827   8.878   6.172 -0.9222 -0.2755 -0.3230
 6989SOL     OW24882   6.376   4.024   4.944 -0.1429  0.1391  0.7211
 6989SOL    HW124883   6.452   4.070   4.980 -0.0416 -0.3227  1.1145
 6989SOL    HW224884   6.356   4.070   4.863  0.8445 -0.0126  0.3748
 6990SOL     OW24885   9.083   2.479   5.248 -0.5491 -0.0924  0.0418
 6990SOL    HW124886   9.067   2.459   5.340  0.0175  1.6399  0.5643
 6990SOL    HW224887   9.146   2.552   5.250 -0.9095  0.3219 -1.6971
 6991SOL     OW24888   6.850   6.891   2.173 -0.4096 -0.1608 -0.6956
 6991SOL    HW124889   6.929   6.878   2.225 -0.1163 -0.3044 -1.1659
 6991SOL    HW224890   6.856   6.982   2.143  0.8762 -0.8332 -2.7818
 6992SOL     OW24891   1.322   1.959   2.193 -0.4099  0.1136 -0.3435
 6992SOL    HW124892   1.231   1.975   2.219 -0.7115  0.6593 -1.6127
 6992SOL    HW224893   1.371   2.033   2.228 -0.2566 -0.6705  1.1764
 6993SOL     OW24894   7.815   2.585   8.099  0.0094 -0.2141  0.4145
 6993SOL    HW124895   7.725   2.618   8.087  0.9426  1.9821 -1.1709
 6993SOL    HW224896   7.845   2.627   8.180  0.4192  1.0638 -0.3818
 6994SOL     OW24897   1.729   2.489   2.064  0.8107  0.8000 -0.3764
 6994SOL    HW124898   1.735   2.485   2.160 -1.0749 -0.7436 -0.2493
 6994SOL    HW224899   1.686   2.573   2.046 -2.0942 -0.3795  0.4566
 6995SOL     OW24900   3.727   8.592   9.041  0.1739 -1.0004  0.2837
 6995SOL    HW124901   3.681   8.636   9.113 -0.6716 -0.7117 -0.4108
 6995SOL    HW224902   3.665   8.596   8.967  1.6410  0.1514 -0.9402
 6996SOL     OW24903   2.121   2.543   6.486  0.2644  0.2945 -0.0543
 6996SOL    HW124904   2.061   2.615   6.507  0.2083  0.1542  0.2688
 6996SOL    HW224905   2.134   2.498   6.569  0.2834 -0.0841 -0.2630
 6997SOL     OW24906   0.678   3.678   4.203  0.0487  0.6891 -0.0936
 6997SOL    HW124907   0.618   3.734   4.154 -0.1384 -0.3405 -1.0825
 6997SOL    HW224908   0.716   3.620   4.137  0.0465 -0.5177  0.9241
 6998SOL     OW24909  10.145   4.795   9.984  0.1482 -0.1827 -0.0083
 6998SOL    HW124910  10.156   4.860  10.052 -0.4844  0.0540 -0.1307
 6998SOL    HW224911  10.216   4.813   9.922  0.7123 -0.3889  0.5666
 6999SOL     OW24912   2.051   7.829   9.575  0.5676 -0.0986  1.0544
 6999SOL    HW124913   2.038   7.773   9.498  1.7596 -0.0946  0.8216
 6999SOL    HW224914   2.077   7.914   9.538 -0.1876  0.3145  1.4385
 7000SOL     OW24915   0.023   8.023   3.608 -0.3920 -0.5118  0.3012
 7000SOL    HW124916   0.103   8.054   3.566 -0.8954 -1.2014 -1.2193
 7000SOL    HW224917   0.046   8.018   3.701  1.2507 -0.4655 -0.0658
 7001SOL     OW24918   3.388   2.038   0.627  0.1528 -0.0062  0.4229
 7001SOL    HW124919   3.361   2.068   0.540 -0.0835  0.8378  0.7831
 7001SOL    HW224920   3.319   2.069   0.685 -0.1334 -1.3116  0.8018
 7002SOL     OW24921   0.555   3.188   8.166 -0.1238  0.2742  0.9728
 7002SOL    HW124922   0.613   3.258   8.136 -0.1754  0.3630  1.0822
 7002SOL    HW224923   0.511   3.158   8.087  0.3566 -0.0575  0.8213
 7003SOL     OW24924   6.868   4.386   9.334  0.0053 -0.2925  0.8746
 7003SOL    HW124925   6.816   4.463   9.313  1.1877  0.7050  1.4710
 7003SOL    HW224926   6.838   4.319   9.272  1.1620  1.5988 -1.9298
 7004SOL     OW24927   4.173   0.041   1.592 -0.1277  0.2322 -0.3275
 7004SOL    HW124928   4.157  -0.000   1.677  2.6830 -2.6111 -0.9783
 7004SOL    HW224929   4.094   0.023   1.541 -1.1833  0.5294  1.1436
 7005SOL     OW24930   4.357   4.741   7.436  0.2183 -0.1001 -0.3862
 7005SOL    HW124931   4.430   4.745   7.498 -0.6505  0.2159  0.6525
 7005SOL    HW224932   4.399   4.737   7.350  1.4601  0.7804  0.1395
 7006SOL     OW24933   5.351  10.162   1.388 -0.4402 -0.5138 -0.3720
 7006SOL    HW124934   5.280  10.151   1.450  0.5479 -0.1351  0.8797
 7006SOL    HW224935   5.402  10.080   1.395 -0.5660 -0.6516 -1.0142
 7007SOL     OW24936   6.298   8.105   7.683 -0.0195  0.5576 -0.4920
 7007SOL    HW124937   6.287   8.177   7.621 -1.2599 -0.4790 -1.5344
 7007SOL    HW224938   6.363   8.137   7.746 -0.9153  2.7870 -0.6143
 7008SOL     OW24939   7.435   8.425   6.614  0.5610 -0.2647  0.4787
 7008SOL    HW124940   7.438   8.520   6.621 -1.9407  0.3138 -3.0559
 7008SOL    HW224941   7.482   8.406   6.533  0.0885 -1.8955  0.5556
 7009SOL     OW24942   6.718  10.172   9.967  0.1062 -0.4153  0.3168
 7009SOL    HW124943   6.679  10.218  10.041 -0.3116  0.0522 -0.1886
 7009SOL    HW224944   6.683  10.082   9.974  0.3118 -0.4558  0.8581
 7010SOL     OW24945   6.437   5.833   6.419 -0.0670 -0.2577 -0.2463
 7010SOL    HW124946   6.516   5.820   6.368  0.2444 -0.6916  0.3333
 7010SOL    HW224947   6.445   5.771   6.492  0.1221  1.2480  1.0472
 7011SOL     OW24948   8.969  10.170   8.399 -0.2246 -0.1418 -0.2221
 7011SOL    HW124949   8.896  10.173   8.337  0.7701 -0.1553 -1.4221
 7011SOL    HW224950   9.028  10.239   8.370  0.7540 -0.8254  0.0848
 7012SOL     OW24951   1.251   7.599   7.446 -0.6272  0.1179  0.3029
 7012SOL    HW124952   1.271   7.678   7.496  0.3493 -0.2358  0.5025
 7012SOL    HW224953   1.308   7.604   7.369  0.0737 -0.7992  0.7478
 7013SOL     OW24954   3.361   1.308   2.112 -0.4890 -0.2833 -0.1389
 7013SOL    HW124955   3.455   1.294   2.108 -0.6148 -0.9750 -2.7151
 7013SOL    HW224956   3.331   1.254   2.185  1.2191  1.1395  1.7169
 7014SOL     OW24957   8.602   2.702   9.936 -0.0748  0.7651  0.0313
 7014SOL    HW124958   8.583   2.784   9.982 -1.8089  1.2080 -1.3974
 7014SOL    HW224959   8.533   2.642   9.965 -0.6144  0.7565 -1.2408
 7015SOL     OW24960   8.706   3.521   1.329 -0.2151 -0.0240 -0.5463
 7015SOL    HW124961   8.696   3.495   1.237  0.6717  1.1298 -0.9939
 7015SOL    HW224962   8.700   3.439   1.378 -0.4702 -0.6824 -1.6468
 7016SOL     OW24963   2.293   4.310   0.009 -0.0664  0.5704 -0.2708
 7016SOL    HW124964   2.212   4.323   0.058 -0.2663  2.2442 -0.9848
 7016SOL    HW224965   2.268   4.255  -0.065 -0.2068 -0.1915  0.3263
 7017SOL     OW24966   4.922   3.670   2.791  0.4534  0.2519  0.0900
 7017SOL    HW124967   4.836   3.707   2.768  0.6093  1.2620  1.0519
 7017SOL    HW224968   4.967   3.661   2.707 -0.0907  1.0455 -0.3049
 7018SOL     OW24969   1.461   5.373   1.588  0.0535  0.2406 -0.0729
 7018SOL    HW124970   1.456   5.277   1.584 -1.6492  0.3386 -1.4375
 7018SOL    HW224971   1.532   5.395   1.528  1.3683 -0.1957  1.2717
 7019SOL     OW24972   5.499   4.264   3.351  0.0536 -0.4831  0.2476
 7019SOL    HW124973   5.584   4.308   3.345 -0.2890  0.2344  0.5889
 7019SOL    HW224974   5.521   4.174   3.377  0.7140 -0.3230  0.2700
 7020SOL     OW24975   7.897   2.822   8.932  0.2147  0.2731 -0.8346
 7020SOL    HW124976   7.921   2.775   9.012  1.0983  0.3188 -1.0641
 7020SOL    HW224977   7.938   2.773   8.862 -0.3715  0.3639 -1.2456
 7021SOL     OW24978   8.370   0.225   5.181  0.0276 -0.3109  0.0669
 7021SOL    HW124979   8.398   0.134   5.186 -1.1047 -0.6638  0.2535
 7021SOL    HW224980   8.331   0.243   5.266 -0.0283  0.2625 -0.0735
 7022SOL     OW24981   8.261   6.321   4.286 -0.2306 -0.7638  0.3673
 7022SOL    HW124982   8.302   6.286   4.206  2.0910  2.0527  0.1613
 7022SOL    HW224983   8.200   6.387   4.255  1.7799  1.4426  0.7883
 7023SOL     OW24984   6.225   3.122   8.271  0.4479  0.4911 -0.1982
 7023SOL    HW124985   6.313   3.120   8.234  0.2942  0.6717 -0.5839
 7023SOL    HW224986   6.167   3.103   8.197 -0.0361  3.2204 -0.6380
 7024SOL     OW24987   9.797   6.967   2.595  0.3955  0.1710 -0.0036
 7024SOL    HW124988   9.760   7.045   2.637  0.8426  0.3837  0.0017
 7024SOL    HW224989   9.839   7.000   2.516 -1.6321 -0.4030 -1.3923
 7025SOL     OW24990   0.158   3.537   2.951  0.0928  0.2816 -0.1709
 7025SOL    HW124991   0.182   3.523   2.860  0.8371  0.8941 -0.0676
 7025SOL    HW224992   0.095   3.609   2.949 -1.3975 -0.9800 -0.3862
 7026SOL     OW24993   2.090   5.257   8.793  0.2668  0.6954 -0.1964
 7026SOL    HW124994   2.159   5.299   8.742  0.4740  0.9190  0.2607
 7026SOL    HW224995   2.009   5.279   8.747  0.3623  1.6755  0.0810
 7027SOL     OW24996   7.254   6.157   4.840  0.3183 -0.1177 -0.1575
 7027SOL    HW124997   7.214   6.186   4.758  0.2867 -0.5143 -0.2861
 7027SOL    HW224998   7.346   6.143   4.819 -0.1961 -3.1712 -0.9680
 7028SOL     OW24999   1.507   8.876   5.422  0.1268 -0.3648  0.0565
 7028SOL    HW125000   1.466   8.796   5.456 -2.0304  0.2263 -0.9742
 7028SOL    HW225001   1.481   8.879   5.330  0.0049  1.6268  0.1268
 7029SOL     OW25002   4.407   1.652   1.952  0.2188 -0.0879  0.5052
 7029SOL    HW125003   4.367   1.654   2.038  1.3062 -0.2250  1.0298
 7029SOL    HW225004   4.491   1.609   1.965  0.3455 -0.2366 -0.6508
 7030SOL     OW25005   4.704   7.253   8.013 -0.1756  0.2458 -0.1164
 7030SOL    HW125006   4.636   7.286   8.071 -1.6887 -2.2216 -0.3452
 7030SOL    HW225007   4.777   7.231   8.071 -1.2289 -1.1082  0.7406
 7031SOL     OW25008   4.421   7.322   0.040 -0.1334  0.6610 -0.3129
 7031SOL    HW125009   4.439   7.283  -0.045  0.0345  1.9325 -0.8798
 7031SOL    HW225010   4.460   7.409   0.035 -1.0671  1.1535  0.6778
 7032SOL     OW25011   5.868   0.284   6.604  0.3858  0.4346 -0.0741
 7032SOL    HW125012   5.937   0.245   6.657  1.6691  0.2900 -1.7418
 7032SOL    HW225013   5.837   0.211   6.549  1.2224  1.1789 -1.6148
 7033SOL     OW25014   2.668   3.133   3.658  0.0754 -0.3607  0.1394
 7033SOL    HW125015   2.760   3.148   3.679  0.7309 -2.1993 -1.1379
 7033SOL    HW225016   2.643   3.207   3.604  1.3007 -0.6238 -0.8274
 7034SOL     OW25017   8.850   4.388   2.370 -0.3074 -0.2934  0.2475
 7034SOL    HW125018   8.809   4.315   2.324 -0.4168 -1.0998  1.5580
 7034SOL    HW225019   8.826   4.374   2.462  2.8371 -0.8089  1.1055
 7035SOL     OW25020   5.715   9.673   9.420 -0.2621 -0.4184  0.5619
 7035SOL    HW125021   5.794   9.678   9.474  0.2416  0.1380 -0.2020
 7035SOL    HW225022   5.643   9.673   9.482  0.3487 -3.8189  1.4725
 7036SOL     OW25023   8.258   1.446   7.778 -0.2215  0.1841  0.8736
 7036SOL    HW125024   8.214   1.504   7.716  2.4498  0.7449 -0.6223
 7036SOL    HW225025   8.247   1.358   7.741  2.7988  0.6632 -1.5204
 7037SOL     OW25026   0.329   5.943   2.007 -0.1203  0.3969  0.7230
 7037SOL    HW125027   0.277   6.009   2.053  0.5298  1.1053  0.4646
 7037SOL    HW225028   0.420   5.973   2.015  0.4253 -1.4554  2.2340
 7038SOL     OW25029   2.134   8.312   0.148 -0.6812  0.1962  0.0607
 7038SOL    HW125030   2.134   8.221   0.118 -0.5757 -0.0443  0.7749
 7038SOL    HW225031   2.092   8.361   0.077  0.0307 -0.2781 -0.7055
 7039SOL     OW25032   3.661   5.158   1.805  0.0584 -0.1452  0.2159
 7039SOL    HW125033   3.595   5.148   1.873  0.6002 -0.5005  0.6974
 7039SOL    HW225034   3.716   5.230   1.835 -0.6451  0.7863 -0.6391
 7040SOL     OW25035   3.853   3.045   4.474 -0.2239  0.1158 -0.2447
 7040SOL    HW125036   3.786   3.080   4.533 -2.2071 -4.1743  0.4178
 7040SOL    HW225037   3.918   3.006   4.533  0.0208 -0.4738 -0.8922
 7041SOL     OW25038   5.023   9.480   8.584  0.5569 -0.0326 -0.6534
 7041SOL    HW125039   5.025   9.518   8.496  0.9212 -1.8093 -1.4520
 7041SOL    HW225040   5.080   9.403   8.578  3.4457  1.6678  2.0597
 7042SOL     OW25041   1.749   1.545   4.318 -0.4562 -0.5405 -0.2174
 7042SOL    HW125042   1.674   1.589   4.280 -1.5514 -1.0390  1.2687
 7042SOL    HW225043   1.740   1.559   4.413  2.7887  1.7077 -0.0538
 7043SOL     OW25044   1.923   1.288   9.225 -0.4058  0.4901  0.0701
 7043SOL    HW125045   1.844   1.253   9.186 -0.0445 -0.7636  0.4169
 7043SOL    HW225046   1.990   1.280   9.157 -1.2018  4.7678 -1.5536
 7044SOL     OW25047   8.966   2.803   4.402  0.1103 -0.1671  0.1207
 7044SOL    HW125048   8.971   2.711   4.427  1.2572  0.1570  1.1860
 7044SOL    HW225049   8.873   2.821   4.394 -0.1115 -1.5247 -0.5127
 7045SOL     OW25050   0.451   0.712   3.297 -0.0521 -0.1689 -0.4340
 7045SOL    HW125051   0.491   0.799   3.284 -1.2115  0.2983 -1.0421
 7045SOL    HW225052   0.479   0.661   3.221 -0.1828 -0.0095 -0.5899
 7046SOL     OW25053   9.217   5.721   6.724  0.0259  0.4867 -0.4644
 7046SOL    HW125054   9.292   5.692   6.672 -0.2886  1.9919 -1.8293
 7046SOL    HW225055   9.202   5.811   6.696 -0.3316  1.2915  2.0941
 7047SOL     OW25056   3.358   8.478   5.813  0.1067  0.6735  0.1551
 7047SOL    HW125057   3.267   8.480   5.785 -0.0889  0.0424  0.7174
 7047SOL    HW225058   3.355   8.488   5.908  0.7034  1.8800  0.0645
 7048SOL     OW25059   9.781   0.015   2.892 -0.6030 -0.6140  0.2282
 7048SOL    HW125060   9.855  -0.039   2.863 -1.8424 -1.7660 -0.9873
 7048SOL    HW225061   9.758  -0.020   2.978 -0.4931 -1.0833  0.0736
 7049SOL     OW25062   4.892   7.197   5.658  0.2776  0.0543 -0.3380
 7049SOL    HW125063   4.862   7.113   5.692 -1.7494 -0.3391 -2.7546
 7049SOL    HW225064   4.901   7.253   5.735 -2.4590 -1.1695  1.0067
 7050SOL     OW25065   9.458   0.188   9.010  0.9292 -0.3275  0.1349
 7050SOL    HW125066   9.437   0.231   8.927 -0.6755  1.0240  1.1725
 7050SOL    HW225067   9.477   0.097   8.986  1.4289  0.2365 -1.7986
 7051SOL     OW25068   7.074   5.568   3.440  0.4482  0.6777  0.0237
 7051SOL    HW125069   7.034   5.651   3.414 -0.8670  0.6247  1.6256
 7051SOL    HW225070   7.006   5.503   3.423  1.1091  0.0692 -0.3225
 7052SOL     OW25071   8.155   9.456   5.568  0.0017 -0.3752 -0.2639
 7052SOL    HW125072   8.161   9.552   5.574 -0.6674 -0.3626  0.3091
 7052SOL    HW225073   8.237   9.425   5.607  0.9144 -0.0287 -1.7859
 7053SOL     OW25074   6.590   3.869   2.968  0.0305  0.0955  0.7188
 7053SOL    HW125075   6.646   3.946   2.964  0.5421 -0.1348  2.5794
 7053SOL    HW225076   6.649   3.795   2.955 -0.3065 -0.0408 -0.0975
 7054SOL     OW25077   7.256   7.521   7.763 -0.4366 -0.2930  0.0948
 7054SOL    HW125078   7.229   7.448   7.819 -0.4963  0.1713  0.6669
 7054SOL    HW225079   7.174   7.565   7.741 -0.3427 -0.0596  0.2129
 7055SOL     OW25080   4.123   5.523   6.154 -0.0908  0.1162 -0.3883
 7055SOL    HW125081   4.213   5.523   6.187  0.0914  1.5369 -0.7913
 7055SOL    HW225082   4.071   5.549   6.230  0.0476  0.9002 -0.5434
 7056SOL     OW25083   0.754   8.331   9.083 -0.6425  0.0053  0.1207
 7056SOL    HW125084   0.706   8.261   9.126 -0.4990 -0.5600 -0.6073
 7056SOL    HW225085   0.822   8.356   9.146 -0.5397 -0.6848  0.2910
 7057SOL     OW25086   7.524  10.070   3.289  0.2579  0.2076  0.5838
 7057SOL    HW125087   7.599  10.122   3.317  0.0526  0.5039  0.5923
 7057SOL    HW225088   7.539  10.055   3.196 -0.8198  2.2800  0.0069
 7058SOL     OW25089   1.401   1.644   5.045  0.2245 -0.2807  0.2972
 7058SOL    HW125090   1.338   1.714   5.027  1.5278  0.5241 -1.4233
 7058SOL    HW225091   1.419   1.652   5.139 -0.2707  1.1558  0.2947
 7059SOL     OW25092   6.321   1.545   5.063 -0.3768  0.1501  0.3260
 7059SOL    HW125093   6.242   1.587   5.030 -0.0614  1.7966  1.5459
 7059SOL    HW225094   6.327   1.572   5.155  0.8618 -1.0751  0.6590
 7060SOL     OW25095   2.871   3.600   4.313  0.4166 -0.3047  0.5949
 7060SOL    HW125096   2.895   3.661   4.244 -0.6864 -1.3158 -0.7233
 7060SOL    HW225097   2.840   3.656   4.385 -0.5223  0.7081 -0.5620
 7061SOL     OW25098   5.220   6.142  10.156  0.3514  0.1363  0.9127
 7061SOL    HW125099   5.247   6.078  10.222  0.0957  0.8643  1.7424
 7061SOL    HW225100   5.129   6.163  10.178 -0.6526 -1.5536 -1.2650
 7062SOL     OW25101   3.186   8.851   4.249 -0.3561  0.3424  0.3367
 7062SOL    HW125102   3.166   8.880   4.337  0.5193  2.9721 -0.2536
 7062SOL    HW225103   3.281   8.839   4.248 -0.3033  0.7423 -0.3541
 7063SOL     OW25104   8.199   3.402   9.504  0.1073  0.6761 -0.0952
 7063SOL    HW125105   8.130   3.427   9.566  0.2362 -0.7170  0.6528
 7063SOL    HW225106   8.277   3.448   9.536  0.1367  0.0962  0.7042
 7064SOL     OW25107   0.824   9.948   2.309 -0.3486 -0.0333  0.8499
 7064SOL    HW125108   0.838   9.857   2.337  1.5062 -0.0499 -0.0035
 7064SOL    HW225109   0.794   9.940   2.219  1.1605  0.2137  0.3072
 7065SOL     OW25110   4.304   2.392   9.174  0.2991 -0.1714  0.1819
 7065SOL    HW125111   4.350   2.335   9.114 -0.1278  0.3095 -0.6150
 7065SOL    HW225112   4.267   2.461   9.119 -0.2989  0.1463  0.9559
 7066SOL     OW25113   8.842   3.265   8.478 -0.6626  0.1435  0.1637
 7066SOL    HW125114   8.933   3.250   8.503 -0.6454 -0.7583 -0.4094
 7066SOL    HW225115   8.810   3.179   8.451 -1.2085  0.7461 -1.1793
 7067SOL     OW25116   3.847   0.850   1.671 -0.4431 -0.0865  0.1591
 7067SOL    HW125117   3.795   0.886   1.600  1.1432  0.2879 -0.8694
 7067SOL    HW225118   3.896   0.925   1.705  0.2079 -0.5972  0.3832
 7068SOL     OW25119   4.687   1.115   8.736 -0.3316 -0.4722  0.0987
 7068SOL    HW125120   4.686   1.210   8.729  2.8668 -0.4123 -1.1485
 7068SOL    HW225121   4.716   1.098   8.826  1.1875 -0.1970 -0.3261
 7069SOL     OW25122   7.767   9.841   9.841 -0.6833  0.3790  0.2601
 7069SOL    HW125123   7.674   9.850   9.820 -0.4642  0.5557 -0.6902
 7069SOL    HW225124   7.807   9.812   9.759 -0.1982 -1.7981  1.2017
 7070SOL     OW25125   2.223   4.643   6.744  0.3046 -0.2366 -0.3370
 7070SOL    HW125126   2.215   4.644   6.840  1.0259 -1.1711 -0.2514
 7070SOL    HW225127   2.309   4.682   6.728  0.2369 -0.1978 -0.5949
 7071SOL     OW25128   1.645   9.040   2.174 -0.0792  0.0693  0.7098
 7071SOL    HW125129   1.688   9.086   2.102 -0.1532 -0.6758  0.1737
 7071SOL    HW225130   1.620   8.956   2.136 -3.6291  1.0998  0.4416
 7072SOL     OW25131   7.341   0.897   7.675 -0.1368  0.2437  0.0776
 7072SOL    HW125132   7.322   0.916   7.583 -0.8852  1.0956  0.4032
 7072SOL    HW225133   7.285   0.956   7.724  2.6126  2.1862  1.1143
 7073SOL     OW25134   2.286   6.921   5.080  0.2843 -0.1036 -0.4394
 7073SOL    HW125135   2.271   6.949   4.990 -0.4307  1.6121  0.1638
 7073SOL    HW225136   2.377   6.946   5.098  0.2638  0.0477 -0.5367
 7074SOL     OW25137   7.085   6.926   0.850 -0.7029  0.8109  0.0936
 7074SOL    HW125138   7.154   6.923   0.784 -0.7976 -0.3707  0.0239
 7074SOL    HW225139   7.131   6.932   0.934 -0.5014 -0.0131  0.0506
 7075SOL     OW25140   6.679   3.129   8.740 -0.2516 -0.3272 -0.6920
 7075SOL    HW125141   6.620   3.192   8.783  0.4193 -1.2230  1.6731
 7075SOL    HW225142   6.764   3.173   8.739 -0.2567 -0.3176 -1.1637
 7076SOL     OW25143   9.603   1.298   5.385 -0.8862  0.0623  0.0012
 7076SOL    HW125144   9.629   1.206   5.380 -2.9562 -0.8192  2.8560
 7076SOL    HW225145   9.683   1.345   5.407  0.1087 -1.0953 -0.9995
 7077SOL     OW25146   1.051   9.972   6.325  0.3224 -0.2862 -0.1882
 7077SOL    HW125147   0.991  10.015   6.264 -1.4452 -0.3151  1.4513
 7077SOL    HW225148   1.045  10.023   6.405  0.3486 -1.9115  0.8906
 7078SOL     OW25149   2.567   9.442   2.045  0.2948  0.0460 -0.1205
 7078SOL    HW125150   2.638   9.459   1.984  0.6917 -0.5151  0.1748
 7078SOL    HW225151   2.601   9.469   2.130  0.2532 -0.4768  0.0635
 7079SOL     OW25152   3.801   0.835   3.375 -0.4094  0.3937  0.4966
 7079SOL    HW125153   3.829   0.793   3.293 -0.8243  1.6453 -0.3138
 7079SOL    HW225154   3.823   0.771   3.443  0.3700 -0.4873 -0.5380
 7080SOL     OW25155   8.906   0.873   1.336 -0.2764  0.3074 -0.3752
 7080SOL    HW125156   8.826   0.868   1.388  0.7821  0.3613  1.3281
 7080SOL    HW225157   8.889   0.817   1.260 -2.1596  0.8684 -0.4167
 7081SOL     OW25158   4.302   2.700   5.682 -0.0960 -0.0439 -0.3494
 7081SOL    HW125159   4.396   2.698   5.665 -0.0914 -0.2512 -0.3043
 7081SOL    HW225160   4.278   2.609   5.697  0.0327  0.2063  1.5254
 7082SOL     OW25161   8.579   6.677   5.236 -0.1809 -0.1276  0.8881
 7082SOL    HW125162   8.534   6.593   5.234  0.1119 -0.2830 -0.1357
 7082SOL    HW225163   8.530   6.730   5.298 -1.1670 -0.6197  0.5482
 7083SOL     OW25164   3.051   8.069   8.869  0.0029 -0.0623 -0.0315
 7083SOL    HW125165   3.057   8.163   8.849 -0.7947  0.1071  0.4632
 7083SOL    HW225166   3.007   8.066   8.954 -1.4783 -0.9445 -0.8058
 7084SOL     OW25167  10.165   4.771   6.469  0.1310  0.1715  0.2409
 7084SOL    HW125168  10.215   4.850   6.489 -0.0895 -0.1043  2.1061
 7084SOL    HW225169  10.211   4.701   6.516 -1.2471 -0.3058  0.9353
 7085SOL     OW25170   7.544   6.061   8.937 -0.2409 -0.5187  0.0980
 7085SOL    HW125171   7.568   6.055   9.030 -1.0841  3.8600  0.8503
 7085SOL    HW225172   7.460   6.108   8.937 -0.6048 -0.9618 -2.9022
 7086SOL     OW25173   4.730   0.436   1.053 -0.1414 -0.6245 -0.0240
 7086SOL    HW125174   4.753   0.364   1.111 -0.2719  0.1316  1.0062
 7086SOL    HW225175   4.651   0.406   1.007  0.2806 -1.4485 -0.2259
 7087SOL     OW25176   4.394   1.775   2.511 -0.3700 -0.4837  0.1312
 7087SOL    HW125177   4.394   1.680   2.496 -2.2974 -0.2506 -1.9218
 7087SOL    HW225178   4.419   1.813   2.427 -2.5957  0.8335 -0.0244
 7088SOL     OW25179   7.885   9.260   7.814  0.3561 -0.3846 -0.2589
 7088SOL    HW125180   7.795   9.228   7.816  0.0569  0.4091 -0.5652
 7088SOL    HW225181   7.929   9.206   7.749  0.2441 -1.1349  0.2832
 7089SOL     OW25182   6.988   9.755   6.183  0.1406  0.1432  0.2952
 7089SOL    HW125183   7.046   9.808   6.128  1.3875 -1.5944 -0.1698
 7089SOL    HW225184   6.907   9.749   6.133 -0.3028  2.1471  0.6881
 7090SOL     OW25185   3.597   5.650   1.159 -0.1043 -0.4577  0.3291
 7090SOL    HW125186   3.601   5.654   1.064 -1.7108 -1.8429  0.1447
 7090SOL    HW225187   3.689   5.648   1.187  0.4019 -0.9443 -1.2423
 7091SOL     OW25188   6.993   4.144   4.208 -0.1266 -0.3121 -0.2298
 7091SOL    HW125189   7.028   4.105   4.128 -0.3389 -0.8285 -0.0766
 7091SOL    HW225190   6.898   4.147   4.193 -0.0048  1.5085 -0.8348
 7092SOL     OW25191   8.150   0.060   6.254  0.5472 -0.2295 -0.0689
 7092SOL    HW125192   8.226   0.037   6.202 -0.4379 -2.9842 -0.4380
 7092SOL    HW225193   8.100  -0.021   6.262 -2.1876  1.3584  0.4541
 7093SOL     OW25194   4.151   3.397   2.064 -0.1188  0.5777 -0.3316
 7093SOL    HW125195   4.181   3.321   2.015 -1.5834 -0.7127  0.6996
 7093SOL    HW225196   4.127   3.363   2.150 -1.1740  2.1153  0.0279
 7094SOL     OW25197   5.961   8.487   0.291  0.3541  0.2986  0.8672
 7094SOL    HW125198   6.006   8.434   0.225  1.3568  0.9524  0.9960
 7094SOL    HW225199   5.938   8.426   0.360  1.3908 -0.0022  0.9634
 7095SOL     OW25200   0.440   6.526   8.404 -0.2285 -0.1514  0.0611
 7095SOL    HW125201   0.480   6.596   8.455  0.3885 -0.0119 -0.6071
 7095SOL    HW225202   0.493   6.520   8.325 -1.7010  0.2423 -1.0051
 7096SOL     OW25203  10.190   6.513   7.153 -0.2235 -0.3549  0.4906
 7096SOL    HW125204  10.257   6.451   7.182  1.4580  0.4491 -1.4144
 7096SOL    HW225205  10.179   6.494   7.060 -0.6538  1.3042  0.1712
 7097SOL     OW25206   8.048   2.658   9.414  0.0105 -0.5685 -0.0793
 7097SOL    HW125207   8.079   2.733   9.464 -0.7675 -0.2737 -0.0257
 7097SOL    HW225208   8.111   2.588   9.434  0.2993 -0.1550  0.4844
 7098SOL     OW25209   3.090   8.427   8.274  0.1840 -0.3625 -0.1674
 7098SOL    HW125210   3.110   8.442   8.182  0.0504 -0.7886 -0.2637
 7098SOL    HW225211   3.054   8.511   8.305  1.4287  0.2001 -0.1758
 7099SOL     OW25212   8.072   3.710   2.087 -0.2105  0.3795  0.2511
 7099SOL    HW125213   8.141   3.665   2.135 -0.1059 -1.1717 -1.2344
 7099SOL    HW225214   8.004   3.727   2.152  0.9668  0.6657  1.4395
 7100SOL     OW25215   5.236   9.656   5.194  0.5573  0.1009 -0.0165
 7100SOL    HW125216   5.312   9.665   5.252  1.3861  3.6232 -1.3968
 7100SOL    HW225217   5.269   9.606   5.119  0.5948 -1.0095  0.7174
 7101SOL     OW25218   4.751   6.934   3.995 -0.1097 -0.0997  0.2046
 7101SOL    HW125219   4.840   6.915   4.024 -0.6088 -1.3258  1.0255
 7101SOL    HW225220   4.698   6.864   4.034 -1.4634  0.7371 -0.0879
 7102SOL     OW25221   4.927  10.197   3.685 -0.3346  0.0574  0.4066
 7102SOL    HW125222   5.017  10.166   3.678 -0.1345 -0.5646  3.7772
 7102SOL    HW225223   4.936  10.291   3.703 -0.2988 -0.0400  0.9358
 7103SOL     OW25224   8.177   9.645   9.323 -0.5277  0.0109  0.3654
 7103SOL    HW125225   8.261   9.610   9.291 -0.9382 -1.0125  0.3558
 7103SOL    HW225226   8.132   9.675   9.244 -1.7459 -2.9592 -0.2186
 7104SOL     OW25227  10.138   5.587   5.146  0.2130  0.1839  0.2011
 7104SOL    HW125228  10.179   5.673   5.142  0.1141  0.2042 -0.5967
 7104SOL    HW225229  10.111   5.577   5.237 -0.4553  1.3260  0.1506
 7105SOL     OW25230   0.404   4.188   1.159  0.1781  0.4279 -0.0067
 7105SOL    HW125231   0.331   4.162   1.102  0.7816  0.1336 -0.6614
 7105SOL    HW225232   0.367   4.185   1.248 -0.4040 -0.4482 -0.2617
 7106SOL     OW25233   9.409   4.900  10.081 -0.0735  0.6341  0.0058
 7106SOL    HW125234   9.449   4.958  10.017  0.3124  0.2413 -0.1138
 7106SOL    HW225235   9.482   4.849  10.117 -0.6903 -1.9459 -2.0777
 7107SOL     OW25236   4.143   9.812   0.360 -0.0046  0.4836 -0.2395
 7107SOL    HW125237   4.218   9.871   0.347 -0.3157  0.9589  0.1277
 7107SOL    HW225238   4.178   9.725   0.338  0.6058  0.7256 -0.2536
 7108SOL     OW25239   8.459   5.984   9.871  0.5660  0.3768 -0.1998
 7108SOL    HW125240   8.461   6.067   9.824  0.3324  0.2066 -0.5151
 7108SOL    HW225241   8.551   5.959   9.881  0.6074  0.3163 -0.7400
 7109SOL     OW25242   1.944   1.502   9.595 -0.1795 -0.1481 -0.4160
 7109SOL    HW125243   1.987   1.433   9.543 -0.1532  1.5902 -2.8617
 7109SOL    HW225244   1.866   1.460   9.631  0.5438 -1.8075 -0.6896
 7110SOL     OW25245   2.544   3.296   1.610  0.6836 -0.9249 -0.1595
 7110SOL    HW125246   2.586   3.209   1.609  2.4725 -0.2300  2.6714
 7110SOL    HW225247   2.615   3.357   1.591  0.9263  0.2052  3.4908
 7111SOL     OW25248   8.603   2.068   7.417  0.0001 -0.2838  0.1170
 7111SOL    HW125249   8.595   2.001   7.349  0.1314 -0.1280 -0.0527
 7111SOL    HW225250   8.661   2.134   7.378 -1.7310  0.9187 -0.5063
 7112SOL     OW25251   6.745   6.188   4.328  0.3551 -0.3716  0.0654
 7112SOL    HW125252   6.768   6.095   4.332  0.7644 -0.2352  1.0206
 7112SOL    HW225253   6.826   6.231   4.299  0.2155 -0.2869 -0.2051
 7113SOL     OW25254   1.102   6.903   0.932  0.1032  0.6099 -0.1596
 7113SOL    HW125255   1.171   6.967   0.917  2.2976 -1.4289  0.6670
 7113SOL    HW225256   1.140   6.840   0.993 -0.6588 -3.2742 -3.2625
 7114SOL     OW25257   1.844   7.542   3.856 -0.7995  0.9830 -0.2514
 7114SOL    HW125258   1.916   7.605   3.850  0.1298 -0.0830 -0.5325
 7114SOL    HW225259   1.846   7.512   3.946  0.5831 -0.7076 -0.7995
 7115SOL     OW25260   0.801   7.997   6.313  0.1394  0.5439  0.3058
 7115SOL    HW125261   0.883   7.984   6.265 -0.8366 -0.5483 -1.1805
 7115SOL    HW225262   0.828   8.012   6.403  1.9165 -2.3293  0.3851
 7116SOL     OW25263   8.761   4.595   5.617  0.3748 -0.2828 -0.0392
 7116SOL    HW125264   8.822   4.555   5.555  0.4620 -0.1823 -0.0206
 7116SOL    HW225265   8.815   4.615   5.694  0.4646  0.4003 -0.2721
 7117SOL     OW25266   9.364   0.061   1.221 -0.2086 -0.2951  0.0679
 7117SOL    HW125267   9.341  -0.028   1.193 -2.7105 -0.3543  1.9870
 7117SOL    HW225268   9.292   0.116   1.191  1.6598  1.3163 -1.7582
 7118SOL     OW25269   2.857   6.671   6.754 -0.3107  0.1342  0.3138
 7118SOL    HW125270   2.878   6.740   6.691 -2.0636 -0.2433 -0.7453
 7118SOL    HW225271   2.824   6.599   6.701 -0.3904 -0.7678  1.5506
 7119SOL     OW25272   7.980   0.996   6.904  0.1525 -0.4701 -0.1409
 7119SOL    HW125273   7.962   0.921   6.848 -1.1382 -1.1346  1.1089
 7119SOL    HW225274   7.923   1.065   6.871  1.0701 -0.1288 -1.0585
 7120SOL     OW25275   0.203   9.033   5.009  0.0270 -0.1782 -0.4394
 7120SOL    HW125276   0.177   9.066   5.095 -0.4573 -0.4852 -0.4641
 7120SOL    HW225277   0.267   9.097   4.977 -0.8803  0.7373 -0.4755
 7121SOL     OW25278   2.732   0.670   1.851 -0.2068 -0.5216  0.1326
 7121SOL    HW125279   2.722   0.692   1.944 -0.9151  0.8217 -0.2360
 7121SOL    HW225280   2.738   0.755   1.807  3.1990 -1.0898 -0.7700
 7122SOL     OW25281   0.760   8.331   6.684 -0.2584  0.1478 -0.2595
 7122SOL    HW125282   0.726   8.275   6.753  0.1070  0.0571 -0.1518
 7122SOL    HW225283   0.844   8.292   6.661 -1.6298 -1.6412 -2.8550
 7123SOL     OW25284   1.349   0.356   6.674 -0.3040 -0.0215  0.2635
 7123SOL    HW125285   1.296   0.413   6.618  0.0188  0.7730  0.7601
 7123SOL    HW225286   1.353   0.273   6.626 -2.8186 -0.4419  0.6426
 7124SOL     OW25287   0.493   9.783   7.232  0.2369  0.0437  0.5920
 7124SOL    HW125288   0.465   9.835   7.307  0.3094  0.8430  0.0760
 7124SOL    HW225289   0.413   9.762   7.184  0.3431  1.0292 -0.0496
 7125SOL     OW25290   4.955   1.731   1.499 -0.2956  0.1128  0.4832
 7125SOL    HW125291   5.006   1.702   1.575  1.4764  0.1126 -0.6650
 7125SOL    HW225292   4.924   1.650   1.459 -1.0423  0.1041  1.0593
 7126SOL     OW25293   4.247   0.118   9.533 -0.0628 -0.3986 -0.3727
 7126SOL    HW125294   4.283   0.162   9.456 -0.9429 -1.0862 -1.1993
 7126SOL    HW225295   4.218   0.190   9.590  0.0295  0.1165 -0.9617
 7127SOL     OW25296   9.401   2.311   7.885 -0.4922  0.0596 -0.0153
 7127SOL    HW125297   9.418   2.367   7.809 -0.8988 -0.3270 -0.4008
 7127SOL    HW225298   9.478   2.255   7.892  0.4368  1.4158  1.0701
 7128SOL     OW25299   1.929   8.877   6.621 -0.4719  0.0046 -0.3648
 7128SOL    HW125300   1.844   8.921   6.632 -0.8992 -0.7270 -0.6557
 7128SOL    HW225301   1.932   8.813   6.693  0.1515  0.5106  0.0651
 7129SOL     OW25302   9.884   4.833   0.525 -0.4950 -0.2721  0.3080
 7129SOL    HW125303   9.869   4.749   0.481  0.1514  0.0841 -0.6240
 7129SOL    HW225304   9.925   4.888   0.459  1.2490  0.0403  1.5447
 7130SOL     OW25305   4.277   5.510  10.013  0.1303  0.4769  0.0192
 7130SOL    HW125306   4.301   5.602   9.999 -1.8051  0.7621 -2.1481
 7130SOL    HW225307   4.213   5.492   9.944  0.0620 -2.3747  0.7198
 7131SOL     OW25308   9.835   1.248   1.858  0.0558  0.0726  0.6408
 7131SOL    HW125309   9.846   1.341   1.839  1.0374 -0.1969 -0.2085
 7131SOL    HW225310   9.810   1.246   1.951 -1.0315  1.2229  0.3992
 7132SOL     OW25311   6.106   5.688   1.736 -0.1129  0.2170  0.4109
 7132SOL    HW125312   6.130   5.733   1.655  1.5808  0.4380  0.9982
 7132SOL    HW225313   6.048   5.749   1.782  0.6583  1.0007  0.3459
 7133SOL     OW25314   3.015   9.387   7.944  0.5919  0.0316  0.2078
 7133SOL    HW125315   3.071   9.402   7.867  0.9629 -0.0476  0.4569
 7133SOL    HW225316   3.067   9.419   8.017  1.7002 -2.9033  0.8582
 7134SOL     OW25317   4.413   5.630   1.033  0.1334 -0.3840 -0.1889
 7134SOL    HW125318   4.499   5.647   1.071  0.5246 -1.8198 -0.3968
 7134SOL    HW225319   4.426   5.554   0.977 -1.1592 -0.2893 -0.6542
 7135SOL     OW25320   8.430   2.003   1.326 -0.0352 -0.1695  0.0532
 7135SOL    HW125321   8.514   1.958   1.323 -1.0349 -2.1260  0.3456
 7135SOL    HW225322   8.372   1.951   1.271 -1.6627 -0.1811  1.6982
 7136SOL     OW25323   4.793   8.039   3.855  0.1143 -0.3293  0.4777
 7136SOL    HW125324   4.835   8.075   3.776  1.6579  1.5429  2.0380
 7136SOL    HW225325   4.836   7.954   3.868  0.8887 -0.0137  0.0678
 7137SOL     OW25326   0.552   5.589   3.412 -0.1418 -0.0204 -0.1972
 7137SOL    HW125327   0.507   5.543   3.483  0.3682  1.6263  1.2636
 7137SOL    HW225328   0.486   5.595   3.342 -1.2878 -0.0738  0.8367
 7138SOL     OW25329   4.517   6.724   0.965 -0.0340 -0.1760 -0.4344
 7138SOL    HW125330   4.473   6.660   1.020 -3.4937  1.0146 -1.4779
 7138SOL    HW225331   4.566   6.780   1.026 -1.5827 -0.4729  1.1505
 7139SOL     OW25332   9.443   6.897   0.726 -0.0583  0.6008  0.0816
 7139SOL    HW125333   9.450   6.990   0.748 -1.9897  1.0628 -1.0375
 7139SOL    HW225334   9.354   6.873   0.752  0.5295 -1.0542  0.6820
 7140SOL     OW25335   9.174   2.099   5.356 -0.1959  0.2088  0.2121
 7140SOL    HW125336   9.106   2.077   5.420 -1.2818  0.6273 -0.7710
 7140SOL    HW225337   9.256   2.070   5.397 -1.1819 -2.4910  0.4402
 7141SOL     OW25338   4.559   6.371   9.252 -0.4125 -0.1114 -0.2125
 7141SOL    HW125339   4.568   6.393   9.159  1.2422  2.7112  0.4897
 7141SOL    HW225340   4.609   6.290   9.262  1.6522  0.9227 -1.3811
 7142SOL     OW25341   9.375   5.434   5.071  0.1062  0.2736  0.2937
 7142SOL    HW125342   9.339   5.415   4.984 -2.0589  0.3399  1.1080
 7142SOL    HW225343   9.403   5.525   5.066  1.0119 -0.0390 -0.6372
 7143SOL     OW25344   0.877   4.070   0.496 -0.2834  0.2479  0.3539
 7143SOL    HW125345   0.910   3.980   0.492  1.7139  0.8769  1.5603
 7143SOL    HW225346   0.847   4.080   0.586 -2.7399  0.1112 -0.3770
 7144SOL     OW25347   3.916   8.873   7.188  0.4136 -0.2058 -0.1285
 7144SOL    HW125348   3.913   8.793   7.135  0.3750 -1.2489  1.3732
 7144SOL    HW225349   3.995   8.918   7.158  1.3151 -1.5963  0.0426
 7145SOL     OW25350   0.503   4.190   2.829 -0.2150 -0.3112 -0.6702
 7145SOL    HW125351   0.522   4.126   2.897  1.1558 -0.4433 -1.1353
 7145SOL    HW225352   0.443   4.253   2.870 -0.7979 -1.3432  0.0902
 7146SOL     OW25353   5.934   5.543   0.153 -0.1065  0.1394  0.1747
 7146SOL    HW125354   5.854   5.558   0.102 -0.0265  0.9923  0.2779
 7146SOL    HW225355   5.998   5.512   0.089 -0.0971  0.9104 -0.2028
 7147SOL     OW25356   2.511   6.241   9.987 -0.0758  0.1772  0.1414
 7147SOL    HW125357   2.422   6.265   9.960 -0.2863 -1.6766 -0.9267
 7147SOL    HW225358   2.547   6.323  10.022 -1.2432  1.6958 -1.9318
 7148SOL     OW25359   8.916   3.346   2.463 -0.1038 -0.4679  0.7229
 7148SOL    HW125360   8.943   3.292   2.538 -0.3488 -1.6605 -0.0128
 7148SOL    HW225361   8.830   3.311   2.440  1.0568 -1.9399 -1.7377
 7149SOL     OW25362   4.366   5.282   4.668 -0.1117  0.2415 -0.2663
 7149SOL    HW125363   4.422   5.277   4.591  1.3776  0.6499  0.7363
 7149SOL    HW225364   4.428   5.288   4.742 -1.4635 -1.1494  1.0428
 7150SOL     OW25365   6.952   9.626   3.255  0.0350  0.0637  0.0019
 7150SOL    HW125366   7.022   9.565   3.277 -0.7034 -0.1470  2.0134
 7150SOL    HW225367   6.906   9.585   3.182  0.7106 -0.8315  0.0658
 7151SOL     OW25368   4.441  10.152   9.496  0.1014  0.1871 -0.2773
 7151SOL    HW125369   4.430  10.081   9.432  0.4823 -0.3850  0.2886
 7151SOL    HW225370   4.386  10.222   9.462  1.3490  0.4090 -1.9860
 7152SOL     OW25371   1.542   0.295   4.201 -0.7804  0.1299 -0.1950
 7152SOL    HW125372   1.531   0.242   4.122  0.3201 -0.1475 -0.1819
 7152SOL    HW225373   1.485   0.370   4.187 -2.7832 -1.2825  0.0206
 7153SOL     OW25374   5.711   2.993   3.509  0.1170 -0.3601  0.1372
 7153SOL    HW125375   5.797   2.976   3.469  0.2715  1.9509 -0.6413
 7153SOL    HW225376   5.671   2.906   3.517  1.9575 -1.3539 -0.7650
 7154SOL     OW25377   4.037   7.629   3.667  0.2461 -0.1797 -0.1449
 7154SOL    HW125378   3.985   7.704   3.640 -1.7682 -1.5726 -0.3291
 7154SOL    HW225379   4.084   7.660   3.744 -0.8927  1.1342  0.0732
 7155SOL     OW25380   3.839   8.896   2.353 -0.2737  0.2242  0.5983
 7155SOL    HW125381   3.913   8.956   2.355 -0.8614  0.9762  0.5405
 7155SOL    HW225382   3.783   8.924   2.426 -0.0686 -0.9117  1.2099
 7156SOL     OW25383   0.168   4.155   6.862  0.1637  0.0264 -0.2450
 7156SOL    HW125384   0.196   4.110   6.783 -0.5284  1.8163 -1.5780
 7156SOL    HW225385   0.247   4.202   6.892 -0.1963  1.4810 -1.4470
 7157SOL     OW25386   3.744   4.493   2.378 -0.0861 -0.3214  0.2344
 7157SOL    HW125387   3.808   4.556   2.345 -0.5092  0.2373  0.4766
 7157SOL    HW225388   3.777   4.468   2.464 -1.1429  1.4006  1.1989
 7158SOL     OW25389   3.531   8.187   8.222 -0.4060  0.0332  0.6515
 7158SOL    HW125390   3.619   8.149   8.226 -1.0300 -1.5955 -0.2166
 7158SOL    HW225391   3.547   8.281   8.211  1.3100 -0.4219 -1.7895
 7159SOL     OW25392   1.486   5.677   6.075 -0.1342  0.1941 -0.0555
 7159SOL    HW125393   1.493   5.772   6.068  1.4248  0.1941  0.9002
 7159SOL    HW225394   1.564   5.644   6.030  0.6910 -0.4780  1.7421
 7160SOL     OW25395   1.719   4.132   6.805  0.2678  0.1582  0.3751
 7160SOL    HW125396   1.719   4.039   6.829 -1.4020  0.0693  0.1251
 7160SOL    HW225397   1.688   4.134   6.715 -0.1548  0.9959  0.5289
 7161SOL     OW25398   8.369   0.042   8.732 -0.2362 -0.1476  0.7985
 7161SOL    HW125399   8.342   0.134   8.742 -2.1066 -0.7762  2.0834
 7161SOL    HW225400   8.392   0.014   8.821  1.5853 -0.6119  0.2287
 7162SOL     OW25401   7.135   7.443   0.045  0.7096 -0.2508  0.7420
 7162SOL    HW125402   7.206   7.380   0.061  0.2234 -1.0514 -0.1894
 7162SOL    HW225403   7.058   7.389   0.029  0.1874  0.5968  0.3425
 7163SOL     OW25404   5.556   7.172   4.106  0.8844  0.1267  0.0521
 7163SOL    HW125405   5.518   7.136   4.026  1.1203 -2.8942  1.1894
 7163SOL    HW225406   5.491   7.235   4.138  0.4021  0.7345 -1.9870
 7164SOL     OW25407   6.139   4.407   9.208 -0.3308  0.2398 -0.1618
 7164SOL    HW125408   6.148   4.343   9.138  2.0535  0.3913 -0.0460
 7164SOL    HW225409   6.129   4.353   9.287 -0.8839  0.0583 -0.3466
 7165SOL     OW25410   9.996   5.790   0.452  0.2001  0.1143  0.3481
 7165SOL    HW125411   9.925   5.763   0.510  0.8621 -0.4171  0.9387
 7165SOL    HW225412   9.985   5.884   0.441 -1.4057 -0.1546 -0.7058
 7166SOL     OW25413   3.139   0.477   2.313 -0.3928  0.2432  0.5446
 7166SOL    HW125414   3.230   0.509   2.307 -0.4351  0.2188 -0.3841
 7166SOL    HW225415   3.148   0.382   2.316 -0.4566 -0.1531 -4.2282
 7167SOL     OW25416   8.815   4.852   2.770 -0.5251  0.6055  0.2875
 7167SOL    HW125417   8.874   4.903   2.826  0.5436 -1.0041  0.6964
 7167SOL    HW225418   8.873   4.810   2.707 -1.6017  1.5125 -1.3828
 7168SOL     OW25419   4.629   3.069   3.337 -0.0499 -0.3506 -0.0263
 7168SOL    HW125420   4.594   3.145   3.291 -0.9189  0.2244  1.5193
 7168SOL    HW225421   4.686   3.026   3.273 -0.8386  0.6693 -1.4645
 7169SOL     OW25422   6.108   5.111   4.746 -0.6409 -0.6109 -0.0513
 7169SOL    HW125423   6.045   5.182   4.759 -1.3193 -1.4597  1.4734
 7169SOL    HW225424   6.141   5.125   4.657 -2.6923  0.0619 -0.7607
 7170SOL     OW25425   8.403   9.683   8.947  0.1560  0.0319 -0.1863
 7170SOL    HW125426   8.413   9.732   9.028  0.0658  0.8762 -0.6679
 7170SOL    HW225427   8.332   9.621   8.964  0.9959 -0.6981  0.7806
 7171SOL     OW25428   3.960   5.254   9.270 -0.4510  0.3532  0.2702
 7171SOL    HW125429   4.029   5.312   9.300 -1.8849  1.6144  1.2481
 7171SOL    HW225430   3.982   5.169   9.308  0.5663  0.7192  0.5314
 7172SOL     OW25431   6.833   2.309   6.486  0.1735 -0.5033  0.4155
 7172SOL    HW125432   6.771   2.236   6.490 -0.7719  0.2469 -0.1380
 7172SOL    HW225433   6.782   2.386   6.512  0.5828  0.3024 -1.0374
 7173SOL     OW25434   7.813   8.647   7.606 -0.1557 -0.5627  0.1370
 7173SOL    HW125435   7.829   8.567   7.656 -1.9741 -0.5418  0.8142
 7173SOL    HW225436   7.802   8.715   7.671 -1.3630 -0.3081 -0.3041
 7174SOL     OW25437   3.546   4.171   2.332 -0.5035 -0.8287  0.0691
 7174SOL    HW125438   3.554   4.121   2.414 -1.6160  0.0112  0.7223
 7174SOL    HW225439   3.565   4.261   2.357  1.0751 -0.8258 -1.0239
 7175SOL     OW25440   5.259   7.520   9.713  0.2354 -1.2145  0.1843
 7175SOL    HW125441   5.335   7.501   9.659  0.1024 -0.9900 -0.0890
 7175SOL    HW225442   5.276   7.477   9.796  1.1759 -0.2397  0.5130
 7176SOL     OW25443   0.513   7.398   0.678 -0.6314 -0.3940 -0.2876
 7176SOL    HW125444   0.452   7.409   0.605  0.2033 -0.0337 -0.9527
 7176SOL    HW225445   0.499   7.308   0.708  0.3322 -1.2189 -2.1493
 7177SOL     OW25446   9.542   7.888   6.141 -0.2165  0.0298 -0.2088
 7177SOL    HW125447   9.561   7.797   6.164 -0.1265 -0.1349 -0.9250
 7177SOL    HW225448   9.451   7.886   6.110  0.0364  0.0444 -0.9610
 7178SOL     OW25449   4.095   1.690   4.188 -0.0114 -0.2432  0.4458
 7178SOL    HW125450   4.188   1.711   4.183 -0.2754  1.5320  2.0336
 7178SOL    HW225451   4.064   1.696   4.097  1.2893 -0.3601 -0.0258
 7179SOL     OW25452   8.742   5.316   5.530  0.1580 -0.5532  0.3544
 7179SOL    HW125453   8.799   5.351   5.461 -0.7175 -1.5518 -0.9322
 7179SOL    HW225454   8.670   5.274   5.482 -1.0364 -0.3570  1.9167
 7180SOL     OW25455   6.620   6.833  10.058 -0.3727  0.6705  0.0299
 7180SOL    HW125456   6.590   6.922  10.077 -1.2550  0.2987  0.4688
 7180SOL    HW225457   6.539   6.784  10.041  0.0648 -0.1490  0.2470
 7181SOL     OW25458   4.664   5.433   3.386 -0.0682 -0.4168 -0.6045
 7181SOL    HW125459   4.633   5.350   3.349 -0.9087 -0.3076 -0.1570
 7181SOL    HW225460   4.607   5.499   3.347  0.2410 -0.0979 -0.5241
 7182SOL     OW25461   0.284   8.156   4.591 -0.7195 -0.1101  0.4684
 7182SOL    HW125462   0.189   8.144   4.583 -0.5886 -1.4131  0.6572
 7182SOL    HW225463   0.295   8.248   4.614 -1.8680  0.3722 -0.7701
 7183SOL     OW25464  10.207   4.929   4.647 -1.5271  0.2779 -0.1845
 7183SOL    HW125465  10.202   4.869   4.573  0.4951  0.1043 -0.2298
 7183SOL    HW225466  10.157   5.006   4.619 -1.0172  0.1070 -1.6347
 7184SOL     OW25467   2.344   0.151   5.828 -0.0888 -0.3740 -0.6951
 7184SOL    HW125468   2.419   0.206   5.849 -0.1422 -1.0181  1.3959
 7184SOL    HW225469   2.273   0.213   5.810  0.3019  0.2407 -0.1709
 7185SOL     OW25470   2.724   4.607   9.797  0.6254  0.2771  0.1813
 7185SOL    HW125471   2.809   4.588   9.836 -0.2335 -0.6500  1.7119
 7185SOL    HW225472   2.690   4.522   9.771  0.1186  0.6216 -0.2993
 7186SOL     OW25473   1.808   2.262   7.009  0.0830  0.1810  0.2025
 7186SOL    HW125474   1.777   2.249   6.920  2.5404 -0.7296 -0.6103
 7186SOL    HW225475   1.731   2.247   7.064 -0.9027 -2.0924 -1.6122
 7187SOL     OW25476   4.304   4.303   2.490  0.0401 -0.1521 -0.2448
 7187SOL    HW125477   4.389   4.339   2.516 -0.7951  1.3676  0.4859
 7187SOL    HW225478   4.242   4.340   2.552 -1.4499  0.3954 -1.9676
 7188SOL     OW25479   0.940   6.338   9.205  0.6289  1.2816  0.1668
 7188SOL    HW125480   1.019   6.357   9.256  0.6215  0.1080  0.6247
 7188SOL    HW225481   0.972   6.315   9.118  0.9953 -1.3226  0.9079
 7189SOL     OW25482   8.488   1.238   3.675 -0.2746 -0.1128 -0.2168
 7189SOL    HW125483   8.395   1.237   3.655 -0.1904 -0.8177 -0.5937
 7189SOL    HW225484   8.498   1.310   3.738 -1.1812 -0.4703  0.3642
 7190SOL     OW25485   2.195   1.289   9.099 -0.3682 -0.5536  0.5366
 7190SOL    HW125486   2.241   1.350   9.041  0.6228 -0.8080  1.0364
 7190SOL    HW225487   2.250   1.285   9.178 -0.5117 -1.9334  0.5897
 7191SOL     OW25488   1.919   1.811   8.246 -0.1193  0.1602  0.1582
 7191SOL    HW125489   1.954   1.722   8.254  0.3196  0.3905  0.8646
 7191SOL    HW225490   1.994   1.864   8.218  0.3992  0.8222  2.5563
 7192SOL     OW25491   1.734   0.383   9.488  0.0480 -0.7099  0.1372
 7192SOL    HW125492   1.669   0.351   9.551 -1.8948  1.1398 -0.7907
 7192SOL    HW225493   1.784   0.450   9.535 -0.7916  0.0199  0.0171
 7193SOL     OW25494   8.822   6.967   5.355  0.2716  0.5724 -0.1535
 7193SOL    HW125495   8.875   7.045   5.339 -0.2927  1.1169  0.5624
 7193SOL    HW225496   8.886   6.900   5.379  0.8625  0.4904 -1.8200
 7194SOL     OW25497   5.203   6.133   6.319 -0.4067  0.3644 -0.0251
 7194SOL    HW125498   5.112   6.143   6.346  0.0343  1.0565  1.2937
 7194SOL    HW225499   5.252   6.124   6.401  0.6872 -0.2535 -0.7192
 7195SOL     OW25500   7.256   1.098   2.647 -0.2026  0.4716  0.4252
 7195SOL    HW125501   7.268   1.068   2.737  0.3663  0.2686  0.2909
 7195SOL    HW225502   7.335   1.068   2.602 -1.0867 -0.6243 -0.4541
 7196SOL     OW25503   5.230   3.458   0.174 -0.0291  0.0205 -0.3869
 7196SOL    HW125504   5.299   3.404   0.212  0.6529  1.3757  0.3700
 7196SOL    HW225505   5.167   3.396   0.139  0.7538 -1.2528  0.4047
 7197SOL     OW25506   5.230   6.713   7.256 -0.1663 -0.5004 -0.4241
 7197SOL    HW125507   5.291   6.641   7.269 -0.1744 -0.2212  1.3657
 7197SOL    HW225508   5.279   6.778   7.206  0.7159 -0.6527  0.2225
 7198SOL     OW25509   5.182   1.416   9.471  0.2208 -0.3012  0.4940
 7198SOL    HW125510   5.214   1.479   9.535 -0.4974 -0.5619  1.1135
 7198SOL    HW225511   5.203   1.330   9.508  0.0036 -0.4505  0.2773
 7199SOL     OW25512   8.142   2.322   5.400  0.7609 -0.1941  0.3327
 7199SOL    HW125513   8.179   2.288   5.482 -1.1062 -1.4395  0.7031
 7199SOL    HW225514   8.090   2.250   5.365  0.3916  0.7906 -1.2491
 7200SOL     OW25515   3.655   0.045   3.895  0.0889 -0.4180  0.6409
 7200SOL    HW125516   3.722   0.038   3.962  0.7682  0.2075  0.0465
 7200SOL    HW225517   3.624   0.136   3.903 -0.3461 -0.5606  0.5922
 7201SOL     OW25518   0.387   7.082   7.832  0.2752  0.1588 -0.2106
 7201SOL    HW125519   0.457   7.114   7.775 -0.6428 -0.8731 -1.9888
 7201SOL    HW225520   0.312   7.069   7.774 -0.8885 -0.3760  1.3484
 7202SOL     OW25521   9.059   7.340   4.355  0.3917  0.5312  0.7864
 7202SOL    HW125522   9.142   7.346   4.403  0.9358  0.2353 -0.0856
 7202SOL    HW225523   9.068   7.405   4.285  0.0714  0.1914  0.4242
 7203SOL     OW25524   2.345   2.153   0.255 -0.0184 -0.4056 -0.3451
 7203SOL    HW125525   2.422   2.174   0.203 -0.3567  0.2073 -0.6120
 7203SOL    HW225526   2.379   2.113   0.335  0.5388 -0.7562 -0.7520
 7204SOL     OW25527   4.629   4.085   0.366  0.3937  0.1800 -0.7044
 7204SOL    HW125528   4.696   4.034   0.320  1.2240  0.2857  0.3479
 7204SOL    HW225529   4.548   4.067   0.318  0.9108 -1.0608 -1.1628
 7205SOL     OW25530   2.097   8.453   9.796 -0.8170  0.5990 -0.1252
 7205SOL    HW125531   2.027   8.388   9.792 -2.4000  2.2502 -1.0596
 7205SOL    HW225532   2.065   8.525   9.742  2.5447  0.5915 -2.4404
 7206SOL     OW25533   5.468   6.559   1.676 -0.2414 -0.4306 -0.7880
 7206SOL    HW125534   5.373   6.565   1.674 -0.1948  0.5810 -0.5405
 7206SOL    HW225535   5.486   6.468   1.702 -1.1655 -0.2404  0.6452
 7207SOL     OW25536   0.677   6.806   4.495  0.2923  0.5938  0.3490
 7207SOL    HW125537   0.671   6.773   4.585 -0.0748 -1.5225 -0.3933
 7207SOL    HW225538   0.762   6.774   4.464 -1.0625 -1.9015 -1.1581
 7208SOL     OW25539   6.214   1.255   1.293  0.0150 -0.0776 -0.9251
 7208SOL    HW125540   6.160   1.190   1.249  2.0856 -0.7642 -2.6485
 7208SOL    HW225541   6.294   1.208   1.315  0.5455  1.2620  0.1510
 7209SOL     OW25542   6.399   8.190   9.712  0.6627 -0.0623 -0.5111
 7209SOL    HW125543   6.316   8.233   9.729  0.7647  0.1255 -0.4765
 7209SOL    HW225544   6.390   8.102   9.748  1.2911  0.6904  1.6315
 7210SOL     OW25545   5.854  10.194   9.154 -0.1642 -0.2128 -0.1514
 7210SOL    HW125546   5.910  10.253   9.204  0.2645  0.4220 -1.3616
 7210SOL    HW225547   5.914  10.147   9.096 -0.4332 -2.1325  1.0053
 7211SOL     OW25548   6.322   7.766   3.908  0.1290 -0.2818  0.1844
 7211SOL    HW125549   6.380   7.740   3.979 -0.0395 -0.2313  0.3417
 7211SOL    HW225550   6.361   7.728   3.829  0.0222 -0.7986  0.3784
 7212SOL     OW25551   2.209   3.464   5.671 -0.0956  0.0421 -0.0710
 7212SOL    HW125552   2.152   3.516   5.728 -1.1213  0.3719 -1.3413
 7212SOL    HW225553   2.151   3.400   5.630  0.7827 -0.7604 -0.0959
 7213SOL     OW25554   8.003   6.243  10.035 -0.1975 -0.6710  0.0622
 7213SOL    HW125555   7.985   6.178  10.103  0.1022 -0.6196  0.1922
 7213SOL    HW225556   8.089   6.278  10.057 -0.1489 -0.5721 -0.2819
 7214SOL     OW25557   3.443   1.973   1.597  0.1503  0.1469  0.0148
 7214SOL    HW125558   3.404   1.943   1.515 -0.8613 -4.2792  1.8506
 7214SOL    HW225559   3.369   1.982   1.657  1.1988 -4.2083  2.3628
 7215SOL     OW25560   1.001   5.253   8.594  0.1814  0.4317 -0.1225
 7215SOL    HW125561   0.924   5.294   8.632 -0.0501 -0.8512  0.8327
 7215SOL    HW225562   0.971   5.222   8.508 -0.7938 -1.2941  0.8014
 7216SOL     OW25563   5.061   2.812   7.034 -0.6326 -0.0218 -0.4105
 7216SOL    HW125564   5.025   2.803   7.122 -0.7609 -1.8268 -0.6069
 7216SOL    HW225565   4.988   2.844   6.982 -1.2902 -1.2723 -0.3083
 7217SOL     OW25566   1.485   3.478   3.701 -0.3847 -0.1093  0.2013
 7217SOL    HW125567   1.485   3.388   3.670 -1.4128 -0.6746  1.7050
 7217SOL    HW225568   1.564   3.486   3.754  0.5505  0.3889 -1.2148
 7218SOL     OW25569   6.938   0.172   3.026 -0.4765  0.2612 -0.4765
 7218SOL    HW125570   6.891   0.176   2.943  0.8246  0.4012 -1.2352
 7218SOL    HW225571   6.970   0.082   3.031 -1.0109  0.0996  0.1461
 7219SOL     OW25572   7.798   8.551   7.948 -0.0092  0.5569 -0.0074
 7219SOL    HW125573   7.735   8.480   7.947 -0.6970  1.1478 -1.2962
 7219SOL    HW225574   7.745   8.630   7.940  0.6588  1.3197  2.3775
 7220SOL     OW25575   3.906   8.243   3.081 -0.5572  0.5253  0.1028
 7220SOL    HW125576   3.992   8.230   3.120  0.3893  1.4865 -1.5511
 7220SOL    HW225577   3.891   8.165   3.028 -0.0398  0.9608 -0.7144
 7221SOL     OW25578   0.702   0.212   2.464 -0.0472 -0.2421 -0.0739
 7221SOL    HW125579   0.735   0.243   2.548 -2.1415 -1.1214  1.1544
 7221SOL    HW225580   0.728   0.120   2.459 -0.1913 -0.2752 -0.2480
 7222SOL     OW25581   6.385   1.231   8.052  0.1242 -0.0988  0.1446
 7222SOL    HW125582   6.373   1.277   7.968  0.1608 -0.6653 -0.1764
 7222SOL    HW225583   6.477   1.205   8.051  0.4257  0.8774  0.8774
 7223SOL     OW25584   2.169   9.593   7.338 -0.0113 -0.1016 -0.0876
 7223SOL    HW125585   2.167   9.683   7.372  0.8350 -0.0595 -0.1255
 7223SOL    HW225586   2.156   9.538   7.415 -0.0085  0.0362  0.0124
 7224SOL     OW25587   5.834   7.153   2.212 -0.2400 -0.0399 -0.1466
 7224SOL    HW125588   5.852   7.247   2.219 -0.0683 -0.1451  1.0761
 7224SOL    HW225589   5.738   7.148   2.207 -0.2359  0.2198 -0.4982
 7225SOL     OW25590   0.225   9.930   6.263 -0.3679 -0.2849 -0.3084
 7225SOL    HW125591   0.266   9.991   6.324 -0.9447  1.1355 -1.2712
 7225SOL    HW225592   0.140   9.910   6.303  0.5110 -1.8848  0.8563
 7226SOL     OW25593   8.039   7.067   9.771  0.6005  0.4900 -0.1533
 7226SOL    HW125594   8.128   7.104   9.767  0.1060  1.6937 -0.6720
 7226SOL    HW225595   8.000   7.108   9.848 -0.1570  1.5743 -1.0739
 7227SOL     OW25596   0.862   3.782   4.369  0.4102 -0.0808 -0.1635
 7227SOL    HW125597   0.777   3.762   4.328 -0.7947 -0.6429  2.4189
 7227SOL    HW225598   0.881   3.871   4.341 -0.9036 -0.0368 -1.0231
 7228SOL     OW25599   7.484   7.968   9.124  0.0186  0.1694  0.0774
 7228SOL    HW125600   7.519   7.879   9.113 -1.7228 -0.4657 -0.5678
 7228SOL    HW225601   7.439   7.965   9.208 -3.4198 -0.8147 -1.6337
 7229SOL     OW25602   7.733   9.358   7.541 -0.0588  0.4868 -0.0655
 7229SOL    HW125603   7.697   9.270   7.538 -0.5185  0.6654  0.1228
 7229SOL    HW225604   7.678   9.405   7.603  0.2270  0.8884 -0.1072
 7230SOL     OW25605   3.710   2.202   8.990  0.5310  0.3057 -0.4033
 7230SOL    HW125606   3.707   2.107   8.977 -1.8986  0.1618  0.6758
 7230SOL    HW225607   3.722   2.214   9.084  0.5955  1.0863 -0.4973
 7231SOL     OW25608   8.124   3.919   1.004 -0.6040 -0.7572 -0.1336
 7231SOL    HW125609   8.080   3.981   0.947  0.2105  0.0385  0.0830
 7231SOL    HW225610   8.054   3.880   1.057 -0.9031  2.0415  1.7534
 7232SOL     OW25611   9.086   9.277   2.802 -0.8107  0.2007 -0.0453
 7232SOL    HW125612   9.108   9.328   2.724  0.1439 -0.3949 -0.1820
 7232SOL    HW225613   9.138   9.197   2.794 -0.8045  0.0720  1.1356
 7233SOL     OW25614   4.117   8.805   4.176  0.4973  0.4285 -0.2067
 7233SOL    HW125615   4.204   8.805   4.215  1.0083  0.8309 -1.3171
 7233SOL    HW225616   4.116   8.728   4.119 -0.0995  0.0771  0.2611
 7234SOL     OW25617   0.412   8.260   6.335 -0.2846  0.2349 -0.4921
 7234SOL    HW125618   0.408   8.283   6.428 -0.4900  1.8838 -0.8872
 7234SOL    HW225619   0.322   8.263   6.305 -0.3097 -1.0012 -0.6200
 7235SOL     OW25620   1.074   4.133   4.758 -0.3290  0.5263  0.1696
 7235SOL    HW125621   1.048   4.188   4.685  0.0863 -0.1759 -0.5241
 7235SOL    HW225622   1.018   4.160   4.830 -1.2251  0.7496 -0.5993
 7236SOL     OW25623   4.748   3.185   0.648 -0.1043  0.5225  0.6035
 7236SOL    HW125624   4.702   3.223   0.573  0.9794 -1.0283 -0.9227
 7236SOL    HW225625   4.819   3.247   0.667  0.3828  0.3272 -0.5002
 7237SOL     OW25626   8.428   2.124   8.766  0.3199  0.1896 -0.3985
 7237SOL    HW125627   8.479   2.112   8.846  0.6104  1.0232 -0.4469
 7237SOL    HW225628   8.341   2.091   8.787  1.0901 -2.1178 -0.5933
 7238SOL     OW25629   9.649   0.853   3.945  0.0651  0.0758  0.0424
 7238SOL    HW125630   9.662   0.883   4.034  1.4268 -0.4696  0.0418
 7238SOL    HW225631   9.721   0.792   3.928 -0.8405 -0.7620 -1.0183
 7239SOL     OW25632   1.674   6.229   9.855  0.1244 -0.3035 -0.1126
 7239SOL    HW125633   1.659   6.136   9.871  0.8915 -0.2050  1.2918
 7239SOL    HW225634   1.613   6.251   9.785 -0.0180 -1.8748 -0.5089
 7240SOL     OW25635   4.961   2.080   2.558 -0.1257 -0.0767  0.2584
 7240SOL    HW125636   4.926   1.994   2.533 -0.5225 -0.0845  0.8153
 7240SOL    HW225637   5.038   2.060   2.611  0.7494 -0.0595 -0.9934
 7241SOL     OW25638   7.223   2.076   5.891  0.5456  0.2340  0.0396
 7241SOL    HW125639   7.230   2.100   5.984 -1.5856 -0.8120  0.5393
 7241SOL    HW225640   7.284   2.004   5.879  3.6190  2.6926 -0.3699
 7242SOL     OW25641   4.562   2.849   6.330 -0.0608 -0.4073 -0.0750
 7242SOL    HW125642   4.469   2.864   6.345  0.0447 -0.6244  0.7993
 7242SOL    HW225643   4.590   2.791   6.400  0.0058 -3.0894 -2.1527
 7243SOL     OW25644   6.280   4.563   7.962  0.3261 -0.3896  0.2968
 7243SOL    HW125645   6.218   4.523   7.901  0.5401 -0.6918  0.2688
 7243SOL    HW225646   6.361   4.572   7.911  0.4582 -0.4888  0.4853
 7244SOL     OW25647   9.353   6.037   8.724 -0.1617  0.2940  0.2358
 7244SOL    HW125648   9.415   5.983   8.675  0.7363  1.9141 -0.4919
 7244SOL    HW225649   9.357   6.003   8.814  2.5869  0.9847  0.4586
 7245SOL     OW25650  10.017   6.442   7.592 -0.4433  0.3392  1.0290
 7245SOL    HW125651   9.999   6.531   7.563 -1.1990  0.1615  0.9121
 7245SOL    HW225652  10.010   6.389   7.513 -1.6119 -0.0248  1.3459
 7246SOL     OW25653   4.143   6.698   4.324  0.1044  0.3029 -0.2600
 7246SOL    HW125654   4.232   6.687   4.291  0.5006  0.5594  0.6918
 7246SOL    HW225655   4.097   6.744   4.253  1.2074  1.7894 -0.0665
 7247SOL     OW25656   9.064   0.150   5.327  0.1041 -0.0076  0.4873
 7247SOL    HW125657   8.971   0.131   5.343 -0.4825  1.1042 -1.2619
 7247SOL    HW225658   9.078   0.235   5.369 -0.0806  0.4872 -0.4121
 7248SOL     OW25659   6.126   3.145   7.625  0.0174 -0.9734 -0.2511
 7248SOL    HW125660   6.172   3.153   7.708  2.3129  2.1910 -1.6495
 7248SOL    HW225661   6.192   3.114   7.563 -1.1852 -1.5622 -1.2900
 7249SOL     OW25662   1.252   4.902   2.675  0.4571  0.3746 -0.1593
 7249SOL    HW125663   1.206   4.818   2.676 -0.7559  0.9965 -0.8765
 7249SOL    HW225664   1.228   4.944   2.757  0.4060  0.3519 -0.1629
 7250SOL     OW25665   3.747   7.869   4.578  0.2514  0.0328  0.4268
 7250SOL    HW125666   3.813   7.871   4.509 -0.6822  2.7763 -0.5113
 7250SOL    HW225667   3.761   7.950   4.627  0.2409 -1.3613  2.9154
 7251SOL     OW25668   8.865   8.422   4.101 -0.0832 -0.3024 -0.5598
 7251SOL    HW125669   8.837   8.412   4.010  1.4122 -0.9619 -0.9710
 7251SOL    HW225670   8.889   8.514   4.108  2.3225 -0.7678 -1.6362
 7252SOL     OW25671   8.278   2.823   0.078  1.1046  0.0114  0.4029
 7252SOL    HW125672   8.251   2.888   0.143  0.3212  0.0968 -0.0055
 7252SOL    HW225673   8.232   2.743   0.102  2.7705 -0.6888  1.4555
 7253SOL     OW25674   6.044   4.018   3.118  1.0174  0.2564  0.0035
 7253SOL    HW125675   6.051   3.924   3.134 -0.2924  0.2035  0.4161
 7253SOL    HW225676   6.104   4.058   3.180  0.1736 -0.2327  1.1847
 7254SOL     OW25677   2.955   4.645   0.151 -0.2609  0.5139  0.0877
 7254SOL    HW125678   2.952   4.604   0.238  2.5447 -0.5483 -0.2314
 7254SOL    HW225679   2.979   4.736   0.168 -2.3945  1.0522  0.5265
 7255SOL     OW25680   3.817   0.398   6.466 -0.3619  0.0855 -0.4589
 7255SOL    HW125681   3.756   0.447   6.520  0.7177  0.9955 -0.0212
 7255SOL    HW225682   3.777   0.396   6.380 -1.0046  0.6665 -0.1849
 7256SOL     OW25683   8.360   1.509   5.711 -0.1378 -0.3755 -0.1294
 7256SOL    HW125684   8.401   1.423   5.708  1.5960  0.4298 -1.2988
 7256SOL    HW225685   8.418   1.565   5.659 -2.2507  1.0597 -1.1141
 7257SOL     OW25686   2.148   8.779   0.019 -0.3390 -0.2409 -0.3520
 7257SOL    HW125687   2.096   8.854   0.046  2.2365  0.3828  3.9039
 7257SOL    HW225688   2.202   8.811  -0.053  0.6877  2.1285  1.3525
 7258SOL     OW25689   9.308   6.574   4.856 -0.0962  0.5767  0.1810
 7258SOL    HW125690   9.354   6.598   4.936  0.9545  0.8217 -0.4776
 7258SOL    HW225691   9.306   6.654   4.804 -0.8374  0.4402 -0.0237
 7259SOL     OW25692   7.810   5.115   7.256 -0.6872  0.0351  0.2167
 7259SOL    HW125693   7.794   5.025   7.227  0.1554 -0.4277  1.1237
 7259SOL    HW225694   7.897   5.112   7.296  0.0274  1.5998 -1.1289
 7260SOL     OW25695   3.499   8.755   6.514 -0.0175 -0.2245  0.1193
 7260SOL    HW125696   3.523   8.834   6.465 -0.5129 -1.0682 -1.5762
 7260SOL    HW225697   3.407   8.741   6.493 -0.2991 -0.5326  1.4842
 7261SOL     OW25698   3.060   3.276   6.278 -0.5072  0.3701  0.0971
 7261SOL    HW125699   3.111   3.342   6.324  0.0519  0.6907 -0.9435
 7261SOL    HW225700   3.122   3.236   6.217 -1.3589  0.3740 -0.7948
 7262SOL     OW25701   8.275   6.027   3.734 -0.3814 -0.2287  0.2836
 7262SOL    HW125702   8.232   6.112   3.739 -0.6759 -0.3604 -0.0145
 7262SOL    HW225703   8.311   6.023   3.645 -1.4081 -0.9099 -0.1243
 7263SOL     OW25704   1.325   8.735   0.851  0.5725  0.3771 -0.3724
 7263SOL    HW125705   1.361   8.821   0.829 -0.1280  0.8311  0.1808
 7263SOL    HW225706   1.388   8.672   0.817  2.5064  1.1308  1.6350
 7264SOL     OW25707   2.397   6.834   1.403  0.4574  0.1511  0.0450
 7264SOL    HW125708   2.422   6.926   1.416 -0.2237  0.5065 -0.9737
 7264SOL    HW225709   2.346   6.812   1.480  0.2331  0.7809  0.0827
 7265SOL     OW25710   4.889   9.635   2.760  0.1315  0.2694  0.2778
 7265SOL    HW125711   4.816   9.585   2.796 -0.1117 -0.6871 -1.4382
 7265SOL    HW225712   4.851   9.718   2.732  0.1315  0.6181  1.3021
 7266SOL     OW25713   3.532   7.706   4.939  0.1114 -0.6309 -0.2608
 7266SOL    HW125714   3.593   7.634   4.924  0.6035 -0.0359 -1.1772
 7266SOL    HW225715   3.507   7.736   4.852  0.4537  0.7451  0.0791
 7267SOL     OW25716   0.251   9.719   4.674  0.0393  0.4660 -0.0644
 7267SOL    HW125717   0.274   9.778   4.602  0.0733  1.3724  0.6614
 7267SOL    HW225718   0.170   9.756   4.710 -0.3659 -0.3881 -0.0761
 7268SOL     OW25719   1.400   8.582   2.881  0.0589 -0.1350  0.8768
 7268SOL    HW125720   1.483   8.596   2.926  0.2412 -0.3332  0.6028
 7268SOL    HW225721   1.401   8.490   2.856 -0.0869 -0.0509  0.5573
 7269SOL     OW25722   4.291   9.946   7.563 -0.3635  0.8194 -0.2401
 7269SOL    HW125723   4.371   9.998   7.566  0.0479  0.1632  0.4293
 7269SOL    HW225724   4.308   9.881   7.494 -0.1651  0.4409  0.1616
 7270SOL     OW25725   5.834   0.924   8.632  0.7986 -0.1231  0.0179
 7270SOL    HW125726   5.760   0.863   8.638 -0.1277  0.9853  0.3151
 7270SOL    HW225727   5.909   0.869   8.610 -0.2388 -1.2068 -0.9872
 7271SOL     OW25728   4.386   9.834   9.590 -0.5840 -0.3047  0.1939
 7271SOL    HW125729   4.339   9.759   9.627  1.0484 -1.0364  0.8720
 7271SOL    HW225730   4.331   9.863   9.518 -1.7886 -1.4756  0.5944
 7272SOL     OW25731   0.954   1.615   9.210  0.3419  0.2153  0.3529
 7272SOL    HW125732   0.908   1.689   9.249  1.3777  0.4010  1.2690
 7272SOL    HW225733   0.967   1.641   9.118 -1.2702  0.1862  0.0853
 7273SOL     OW25734   4.652   4.244   3.008 -0.2331 -0.5041 -0.1883
 7273SOL    HW125735   4.611   4.182   3.069 -2.3324 -0.0013 -0.9976
 7273SOL    HW225736   4.653   4.198   2.924  0.7933 -0.4564 -0.2064
 7274SOL     OW25737   9.471   7.461   7.531 -0.1716 -0.2738  0.0310
 7274SOL    HW125738   9.490   7.379   7.485 -0.3813 -0.2612 -0.0797
 7274SOL    HW225739   9.515   7.529   7.480 -0.5806 -0.2348 -0.2696
 7275SOL     OW25740   2.273   4.092  10.023  0.1100 -0.1723  0.3196
 7275SOL    HW125741   2.203   4.114   9.960 -0.6335  1.2534  1.5840
 7275SOL    HW225742   2.320   4.020   9.982 -1.7856 -0.8249 -0.8230
 7276SOL     OW25743   3.438   8.700   9.808 -0.2241 -0.4184 -0.4695
 7276SOL    HW125744   3.397   8.616   9.827  0.8976 -0.8328  0.2659
 7276SOL    HW225745   3.464   8.694   9.716 -2.3566  0.1231 -1.1576
 7277SOL     OW25746   1.934   4.300   6.831 -0.5388 -0.3375 -0.5179
 7277SOL    HW125747   1.873   4.226   6.827  1.4458 -2.0256 -0.9866
 7277SOL    HW225748   1.924   4.343   6.746 -2.9688  1.1231  0.3739
 7278SOL     OW25749   5.225   2.259   6.914  0.5396  0.0814 -0.1493
 7278SOL    HW125750   5.212   2.295   7.002  0.3848  0.1942 -0.2171
 7278SOL    HW225751   5.139   2.224   6.890  0.1260  1.5196 -0.9140
 7279SOL     OW25752   7.864   8.797   3.377 -0.5528  0.0277  0.0750
 7279SOL    HW125753   7.922   8.752   3.438  0.5559  0.9088 -0.2854
 7279SOL    HW225754   7.788   8.821   3.429 -0.3388 -0.6542  0.7059
 7280SOL     OW25755   9.109   1.733   1.527 -0.5361  0.2549 -0.4046
 7280SOL    HW125756   9.034   1.773   1.482 -0.9243 -0.8304 -0.7659
 7280SOL    HW225757   9.092   1.749   1.620 -0.6631  0.9474 -0.5398
 7281SOL     OW25758   2.544   5.862   1.275  0.6414  0.4947  0.1224
 7281SOL    HW125759   2.539   5.915   1.355  1.4276  0.9106 -0.0991
 7281SOL    HW225760   2.477   5.900   1.217  0.1722  0.2850  0.5206
 7282SOL     OW25761   8.939   2.153   5.079  0.2988  0.0999  0.2158
 7282SOL    HW125762   9.031   2.179   5.074 -0.1534  2.1496  1.4945
 7282SOL    HW225763   8.923   2.139   5.172 -1.3848  2.7373  0.4111
 7283SOL     OW25764   3.447   5.955   8.648 -0.6613  0.2677 -0.5757
 7283SOL    HW125765   3.439   6.003   8.730 -0.0298 -0.0921 -0.2983
 7283SOL    HW225766   3.416   5.867   8.669  0.8154 -0.2208 -0.3432
 7284SOL     OW25767   4.138   7.908   7.684 -0.4196  0.3709  0.3175
 7284SOL    HW125768   4.167   7.983   7.736 -1.4183  1.0779 -0.1185
 7284SOL    HW225769   4.219   7.866   7.656  0.1447  0.4709  1.7206
 7285SOL     OW25770   7.943   0.605   5.257  0.0952  0.3739  0.0000
 7285SOL    HW125771   7.964   0.569   5.343 -1.4186 -0.4427  0.0644
 7285SOL    HW225772   8.028   0.626   5.218  0.7944  1.2117  1.8607
 7286SOL     OW25773   7.733   1.842   6.190 -0.1545  0.5248 -1.1986
 7286SOL    HW125774   7.660   1.895   6.160 -2.3124 -0.9737  0.9836
 7286SOL    HW225775   7.782   1.899   6.249 -2.7638  0.1579  1.5806
 7287SOL     OW25776   1.818   4.690   1.225  0.0100  0.5401 -0.9010
 7287SOL    HW125777   1.763   4.613   1.209 -1.8128  1.3921  0.8596
 7287SOL    HW225778   1.831   4.728   1.138 -1.4627 -0.1863 -1.4825
 7288SOL     OW25779   5.826   7.433   4.002  0.2072 -0.0016  0.0733
 7288SOL    HW125780   5.916   7.465   4.007  0.2904 -0.0285 -1.0185
 7288SOL    HW225781   5.781   7.499   3.949 -0.8655  0.9540  2.0558
 7289SOL     OW25782   4.698   6.024   6.778  0.5710  0.3200  0.3010
 7289SOL    HW125783   4.698   6.090   6.847 -0.6869 -0.8241  1.4653
 7289SOL    HW225784   4.743   5.948   6.816  1.7140  0.3521 -0.8986
 7290SOL     OW25785   4.794   1.401   4.857  0.2243 -0.1430 -0.2183
 7290SOL    HW125786   4.854   1.415   4.930 -0.5251 -0.2618  0.4270
 7290SOL    HW225787   4.742   1.481   4.852 -0.1549 -0.3873 -0.2193
 7291SOL     OW25788   0.636   6.163   0.622  0.0557 -0.4353 -0.0253
 7291SOL    HW125789   0.558   6.111   0.643  1.0224 -1.9857 -0.0768
 7291SOL    HW225790   0.709   6.110   0.655  1.0431  1.6789  1.4578
 7292SOL     OW25791   2.815   8.464   9.629  0.4585 -0.2973 -0.1770
 7292SOL    HW125792   2.775   8.437   9.712  2.8733  0.5712  1.3856
 7292SOL    HW225793   2.897   8.414   9.626  1.0736  0.7454 -1.3279
 7293SOL     OW25794   6.463   8.272   6.012 -0.1326 -0.5323 -0.0820
 7293SOL    HW125795   6.387   8.315   6.050 -1.0238 -1.5630 -0.6194
 7293SOL    HW225796   6.505   8.339   5.958  0.3455  0.5376  1.5536
 7294SOL     OW25797   4.510   8.037   5.328 -0.3108  0.7920 -0.4842
 7294SOL    HW125798   4.494   7.946   5.353  1.2434  0.6070 -0.0146
 7294SOL    HW225799   4.497   8.087   5.409  1.4864  0.6066 -0.0249
 7295SOL     OW25800   0.816   1.715   7.837 -0.0790  0.0737  0.2967
 7295SOL    HW125801   0.859   1.647   7.889  1.8437  0.9728 -0.0770
 7295SOL    HW225802   0.742   1.669   7.795  0.9351 -1.7021  0.3574
 7296SOL     OW25803   2.497   0.637   6.913  0.4339 -1.3604 -0.5004
 7296SOL    HW125804   2.582   0.660   6.952  0.4928 -0.4873 -1.1005
 7296SOL    HW225805   2.437   0.704   6.947 -0.0808 -2.1118  0.1088
 7297SOL     OW25806   9.187   2.264   4.215 -0.0163  0.1898 -0.1522
 7297SOL    HW125807   9.110   2.247   4.270 -1.0853 -0.3409 -1.7286
 7297SOL    HW225808   9.206   2.357   4.227 -1.7143  0.6371 -0.6772
 7298SOL     OW25809   0.309   8.670   2.156 -0.0170 -0.4475 -0.3511
 7298SOL    HW125810   0.256   8.660   2.077 -0.9050  2.2643 -0.2135
 7298SOL    HW225811   0.367   8.744   2.137 -0.3544  0.3663  1.5639
 7299SOL     OW25812   0.775   2.274   5.409  0.0395  0.2663  0.5034
 7299SOL    HW125813   0.802   2.350   5.460 -0.0359  0.2857  0.5146
 7299SOL    HW225814   0.817   2.199   5.453  1.6049  0.4687 -0.5601
 7300SOL     OW25815   8.968   6.910   7.700  0.1476 -0.8084 -0.5413
 7300SOL    HW125816   8.945   6.892   7.791  1.3905 -0.6198 -0.1755
 7300SOL    HW225817   9.054   6.951   7.704  0.0918 -0.5236 -1.7865
 7301SOL     OW25818   4.564   0.667   4.653 -0.0957  0.0575  0.1027
 7301SOL    HW125819   4.639   0.611   4.675  0.0352 -0.2785 -1.1476
 7301SOL    HW225820   4.590   0.754   4.683  1.2571  0.1549 -1.2267
 7302SOL     OW25821   7.683   6.971   7.839 -0.2319  0.5753  0.7030
 7302SOL    HW125822   7.709   7.060   7.866 -0.9926  0.6497  1.2077
 7302SOL    HW225823   7.762   6.919   7.854  0.9335  1.5103 -1.5576
 7303SOL     OW25824   5.938   0.265   8.977  0.6238 -0.3942  0.3938
 7303SOL    HW125825   5.980   0.222   9.052  0.1405 -0.8551  0.4048
 7303SOL    HW225826   5.880   0.198   8.941  0.5550 -0.0423 -0.1542
 7304SOL     OW25827   3.396   1.485   8.046  0.3297  0.2190 -0.3410
 7304SOL    HW125828   3.450   1.452   7.974  0.2854 -0.7210  0.0413
 7304SOL    HW225829   3.337   1.413   8.066  0.1967  0.5538  0.4981
 7305SOL     OW25830   6.684   2.578   5.907  0.0633  0.0041  0.2415
 7305SOL    HW125831   6.658   2.487   5.919  0.2087  0.1122  1.4532
 7305SOL    HW225832   6.652   2.623   5.985 -1.2211  1.2708 -0.9502
 7306SOL     OW25833   2.327   1.012   6.062  0.0026 -0.0458 -0.1936
 7306SOL    HW125834   2.292   1.054   6.141 -1.6199  0.2944 -1.0552
 7306SOL    HW225835   2.373   0.934   6.095 -1.1013 -0.2099  1.0585
 7307SOL     OW25836   3.944   0.211   7.985  0.0891  0.1995 -0.2649
 7307SOL    HW125837   3.849   0.214   7.997  0.0842 -1.6396  0.6346
 7307SOL    HW225838   3.961   0.268   7.910 -1.8085  0.0392 -0.8774
 7308SOL     OW25839   2.381   7.889   4.336  0.3604 -0.0267  0.1845
 7308SOL    HW125840   2.442   7.858   4.269  1.1337 -0.2749  0.9835
 7308SOL    HW225841   2.303   7.915   4.287  1.6551  1.8000 -1.0464
 7309SOL     OW25842   5.071   0.437   6.578  0.0491  0.2908  0.4739
 7309SOL    HW125843   5.007   0.498   6.542 -0.0692  0.3082  0.7152
 7309SOL    HW225844   5.098   0.476   6.661  0.5579  0.4110  0.2586
 7310SOL     OW25845   7.344   6.269   7.035 -0.1003 -0.1725  0.0254
 7310SOL    HW125846   7.358   6.237   6.946  0.2941  1.0712 -0.3715
 7310SOL    HW225847   7.362   6.363   7.031  1.2792 -0.2987  1.7011
 7311SOL     OW25848   2.286   8.763   5.888  0.3668  0.0736 -0.1725
 7311SOL    HW125849   2.307   8.819   5.963 -1.3755  0.8646 -0.2251
 7311SOL    HW225850   2.224   8.814   5.836 -0.4369 -1.4712 -0.8168
 7312SOL     OW25851   3.415   8.117   9.398  0.4574  0.0144 -0.5217
 7312SOL    HW125852   3.413   8.111   9.303  0.0258  0.0844 -0.5188
 7312SOL    HW225853   3.382   8.205   9.418 -1.2294 -0.6304 -0.2521
 7313SOL     OW25854   1.489   3.552   9.142 -0.3146  0.0749  0.2505
 7313SOL    HW125855   1.582   3.569   9.129 -0.2683 -1.3918 -1.8039
 7313SOL    HW225856   1.449   3.639   9.146  1.0914  0.7176  1.0783
 7314SOL     OW25857  10.115   1.050   3.954  0.7023 -0.4128  0.6478
 7314SOL    HW125858  10.168   1.018   3.880 -0.4553  0.1640 -0.4702
 7314SOL    HW225859  10.178   1.095   4.010  1.0462  4.0539 -2.7103
 7315SOL     OW25860   4.514   2.342   6.536  0.1392  0.0189 -0.5911
 7315SOL    HW125861   4.543   2.433   6.535 -0.3063  0.1828  0.2446
 7315SOL    HW225862   4.440   2.341   6.597  1.6060 -1.3416  1.2961
 7316SOL     OW25863   2.834   6.203   7.457 -0.1315  0.0843  0.1440
 7316SOL    HW125864   2.787   6.145   7.398  0.2693 -0.7406  0.6229
 7316SOL    HW225865   2.909   6.234   7.406  0.2239 -0.6394  0.2155
 7317SOL     OW25866   1.612   8.936   0.352 -0.2595 -0.5072  0.7523
 7317SOL    HW125867   1.522   8.926   0.382 -0.6611 -0.9570 -0.5381
 7317SOL    HW225868   1.608   8.916   0.258  0.8897  1.0668  0.3326
 7318SOL     OW25869   3.809   6.539   6.996 -0.2573 -0.0519 -0.0869
 7318SOL    HW125870   3.766   6.460   7.028 -0.9216  0.2083 -0.3065
 7318SOL    HW225871   3.739   6.604   6.991  0.0274  0.2071 -1.0755
 7319SOL     OW25872   1.728   5.488   0.063 -0.2992 -0.6248 -0.2802
 7319SOL    HW125873   1.741   5.574   0.025  3.6255 -1.4749 -1.2608
 7319SOL    HW225874   1.777   5.428   0.007 -2.4884 -3.5261  0.6091
 7320SOL     OW25875   4.689   7.575   3.070 -0.0845 -0.1960 -0.1712
 7320SOL    HW125876   4.647   7.493   3.095 -1.5569  0.6027  0.0661
 7320SOL    HW225877   4.743   7.599   3.146  0.2455 -0.8510 -0.1893
 7321SOL     OW25878   7.619   4.274   1.857  0.1168  0.0099  0.4022
 7321SOL    HW125879   7.674   4.230   1.921 -0.5570  0.3424  1.2421
 7321SOL    HW225880   7.537   4.225   1.858 -0.2786  0.6639  0.5930
 7322SOL     OW25881   5.194   4.053   5.250 -0.6137 -0.6535 -0.2823
 7322SOL    HW125882   5.209   4.083   5.160 -0.2617  0.1420  0.0309
 7322SOL    HW225883   5.120   4.105   5.280 -3.0295 -3.2728 -1.2014
 7323SOL     OW25884   7.846   7.695   4.858  0.5064  0.4024  0.0783
 7323SOL    HW125885   7.778   7.657   4.803 -1.1205  0.1309  2.1500
 7323SOL    HW225886   7.812   7.782   4.882  1.4043  0.7194  0.2377
 7324SOL     OW25887   8.575   8.240   8.513 -0.2263  0.5344 -0.0804
 7324SOL    HW125888   8.657   8.227   8.562 -0.1962  1.6663  0.2094
 7324SOL    HW225889   8.568   8.335   8.504 -0.8495  0.3943 -1.2516
 7325SOL     OW25890   3.365   0.944   1.577 -0.2170  0.3262  0.2606
 7325SOL    HW125891   3.292   0.895   1.615 -1.2587  0.3148 -1.6589
 7325SOL    HW225892   3.334   1.035   1.574 -0.1454  0.3294 -0.5180
 7326SOL     OW25893   5.230   9.975   3.286  0.2937 -0.1194 -0.1892
 7326SOL    HW125894   5.216  10.065   3.315 -0.2177 -0.7862  1.7655
 7326SOL    HW225895   5.148   9.950   3.243 -0.4994 -0.4137  1.4292
 7327SOL     OW25896   0.521  10.109   9.572 -0.1087  0.5201  0.3853
 7327SOL    HW125897   0.546  10.183   9.516  1.4152 -0.8914 -0.8894
 7327SOL    HW225898   0.429  10.095   9.552  0.4984 -0.2397 -2.2265
 7328SOL     OW25899   0.622   1.994   9.605 -0.0103 -0.2220  0.1703
 7328SOL    HW125900   0.707   1.974   9.566  0.6903  0.0615  1.5031
 7328SOL    HW225901   0.596   1.913   9.649 -1.1030 -0.7480 -1.3815
 7329SOL     OW25902   5.786   7.352   0.050  0.4375  0.4580  0.1486
 7329SOL    HW125903   5.881   7.343   0.045  0.5331  1.0738  0.7030
 7329SOL    HW225904   5.756   7.351  -0.041  0.8311 -1.0689  0.0104
 7330SOL     OW25905   1.722   5.867   5.565 -0.5173  0.7522 -0.0025
 7330SOL    HW125906   1.813   5.895   5.554 -0.7219  1.2058 -0.5631
 7330SOL    HW225907   1.728   5.790   5.621  0.4316 -0.7002 -1.9990
 7331SOL     OW25908   4.575   9.184   5.442 -0.5191 -0.0650 -0.3106
 7331SOL    HW125909   4.587   9.142   5.356 -0.8553  0.5043 -0.6386
 7331SOL    HW225910   4.481   9.177   5.459 -0.7012  1.1948 -0.7100
 7332SOL     OW25911  10.019   4.944   6.937  0.3094  0.1049  0.3928
 7332SOL    HW125912  10.051   4.859   6.907  0.2607  0.6503 -1.2771
 7332SOL    HW225913  10.073   4.963   7.014  0.9345 -1.0257  0.2590
 7333SOL     OW25914   6.494   3.209   2.363  0.1069  0.3842 -0.4426
 7333SOL    HW125915   6.455   3.280   2.313  1.0916 -0.3323 -2.3468
 7333SOL    HW225916   6.452   3.130   2.330  0.8546 -0.1191 -0.2278
 7334SOL     OW25917   0.121   3.975   5.668 -0.0739  0.3441 -0.5449
 7334SOL    HW125918   0.196   3.927   5.633  0.1218 -0.1188  0.4687
 7334SOL    HW225919   0.047   3.945   5.616 -0.0608 -1.5591  0.4250
 7335SOL     OW25920   1.759   3.024   6.934  0.1223  0.2803 -0.4045
 7335SOL    HW125921   1.781   3.026   6.841 -0.0433  1.1185 -0.4314
 7335SOL    HW225922   1.704   3.101   6.948 -1.6598 -1.0007 -0.0441
 7336SOL     OW25923   6.990   8.473   6.627 -0.0789  0.0792 -0.4694
 7336SOL    HW125924   7.066   8.452   6.681  0.2524 -0.0762 -0.9897
 7336SOL    HW225925   6.951   8.550   6.668 -0.2136 -0.4294  0.3705
 7337SOL     OW25926   7.375   2.249   0.314 -0.8031 -0.7673 -0.0845
 7337SOL    HW125927   7.411   2.264   0.227 -0.6609 -0.6237 -0.0005
 7337SOL    HW225928   7.356   2.337   0.348 -0.9064 -0.8250  0.0086
 7338SOL     OW25929   6.936   5.172   9.069 -0.4458 -0.0084 -0.5087
 7338SOL    HW125930   6.893   5.240   9.017  0.8969  1.3858  0.0951
 7338SOL    HW225931   7.027   5.202   9.075 -0.5770  0.0630  2.8169
 7339SOL     OW25932   4.687   1.472   8.430  0.1877  0.0523  0.1480
 7339SOL    HW125933   4.719   1.462   8.519  0.0317  1.6348  0.4083
 7339SOL    HW225934   4.593   1.489   8.440  0.1541  0.1591 -0.3229
 7340SOL     OW25935   7.435   6.323   1.883  0.2905  0.6307  0.3303
 7340SOL    HW125936   7.430   6.408   1.928  0.4799  1.9878 -2.0465
 7340SOL    HW225937   7.348   6.310   1.845  0.4955  0.1397  0.0175
 7341SOL     OW25938   5.287   0.774   0.311  0.0095  0.0346 -0.6430
 7341SOL    HW125939   5.328   0.688   0.312  0.8246  0.4016 -1.1211
 7341SOL    HW225940   5.321   0.817   0.390  0.2190  0.1901 -0.8167
 7342SOL     OW25941   0.834   2.015   6.706  0.1543  0.2575  0.5266
 7342SOL    HW125942   0.853   1.934   6.658 -1.5669 -0.8353  1.5850
 7342SOL    HW225943   0.868   1.999   6.794  0.8445  1.1743  0.4395
 7343SOL     OW25944   8.383   3.822   2.118  0.1796  0.6346 -0.5431
 7343SOL    HW125945   8.428   3.818   2.202  0.5235  1.3076 -0.6866
 7343SOL    HW225946   8.452   3.848   2.056  0.0806 -0.4599 -1.1464
 7344SOL     OW25947   6.252   7.627   7.165  0.3190  0.0725  0.3755
 7344SOL    HW125948   6.197   7.702   7.146  1.8700  1.4940  1.2256
 7344SOL    HW225949   6.290   7.603   7.081 -0.2673  0.1663  0.0827
 7345SOL     OW25950   7.478   3.064   4.495  0.0482  1.1102  0.6895
 7345SOL    HW125951   7.485   3.142   4.440 -1.4418 -0.2407 -1.5583
 7345SOL    HW225952   7.461   3.099   4.583 -0.8840  3.3239 -0.2874
 7346SOL     OW25953   9.890   8.580   7.105  0.2170 -0.1084  0.0240
 7346SOL    HW125954   9.922   8.665   7.077  1.9876 -1.5241 -2.6439
 7346SOL    HW225955   9.924   8.518   7.040 -1.5361 -2.7958  1.4545
 7347SOL     OW25956   5.583   4.795   3.829 -0.5818  0.0488 -0.0053
 7347SOL    HW125957   5.499   4.765   3.794 -0.1296 -2.6874  0.9852
 7347SOL    HW225958   5.559   4.863   3.892 -1.8993  0.5133 -0.9560
 7348SOL     OW25959   4.770   2.307   0.805  0.2172  0.9793  0.3626
 7348SOL    HW125960   4.828   2.231   0.793 -1.6478 -0.4169 -0.2858
 7348SOL    HW225961   4.767   2.318   0.900  0.5351  0.2412  0.4719
 7349SOL     OW25962   0.478   4.117   3.178 -0.3728  0.0244  0.8566
 7349SOL    HW125963   0.491   4.212   3.171  0.9624 -0.0276  2.1109
 7349SOL    HW225964   0.407   4.107   3.241 -0.4903  0.1951  0.7523
 7350SOL     OW25965   9.966   8.086   3.111  0.3376  0.4189 -0.5465
 7350SOL    HW125966   9.927   8.126   3.033  1.5485 -1.5689 -2.2970
 7350SOL    HW225967  10.053   8.125   3.117  1.4550 -1.5882 -2.1570
 7351SOL     OW25968   6.552   1.747   7.753 -0.5164  0.4963  0.4227
 7351SOL    HW125969   6.626   1.805   7.773 -0.9889  1.5240 -0.7111
 7351SOL    HW225970   6.570   1.668   7.804  1.6482  0.4904 -0.2470
 7352SOL     OW25971   7.835   4.756   5.895 -0.8460 -0.0893  0.2512
 7352SOL    HW125972   7.816   4.829   5.836  1.8212  0.6950  0.2443
 7352SOL    HW225973   7.846   4.681   5.836 -0.3339  0.2217 -0.0533
 7353SOL     OW25974   2.973   1.008  10.050  0.2486 -0.2590  0.4705
 7353SOL    HW125975   2.998   0.930  10.099 -1.3576 -0.8481  0.4241
 7353SOL    HW225976   3.005   0.992   9.961  0.2585 -0.7075  0.5526
 7354SOL     OW25977   4.405   5.870   9.549  0.2892  0.0490 -0.7189
 7354SOL    HW125978   4.314   5.894   9.567  0.3989  0.4528 -0.6896
 7354SOL    HW225979   4.423   5.909   9.464  1.1776  2.0597  0.3379
 7355SOL     OW25980   2.566   4.761   9.026  0.2504  0.8829  0.3378
 7355SOL    HW125981   2.540   4.846   8.990 -2.4904 -0.7079 -1.9437
 7355SOL    HW225982   2.524   4.757   9.111  0.4449  1.8109  0.4915
 7356SOL     OW25983   8.892   1.850   1.442  0.0379  0.1459  0.2990
 7356SOL    HW125984   8.817   1.823   1.388  1.9160 -0.9766 -1.9317
 7356SOL    HW225985   8.876   1.942   1.460 -0.9378  0.4645 -1.8563
 7357SOL     OW25986   5.182   3.149   4.707 -0.2700  0.3996 -0.2859
 7357SOL    HW125987   5.091   3.161   4.679  0.1983  0.2684 -1.9904
 7357SOL    HW225988   5.201   3.057   4.691  0.6015  0.7529 -1.4256
 7358SOL     OW25989   7.665   4.804   7.551  0.2221  0.1692  0.0784
 7358SOL    HW125990   7.584   4.798   7.501 -0.2098 -1.4087  0.8976
 7358SOL    HW225991   7.654   4.880   7.607  0.2073  1.2264 -1.2999
 7359SOL     OW25992   9.563   8.553   5.177  0.1756 -0.0778 -0.1773
 7359SOL    HW125993   9.468   8.546   5.187  0.3805 -0.6721  1.8529
 7359SOL    HW225994   9.592   8.601   5.254  1.2165  3.7838 -2.7053
 7360SOL     OW25995   1.970   4.635   8.491 -0.2259  0.0867  0.3790
 7360SOL    HW125996   1.889   4.676   8.521 -0.6565  0.1590 -0.8432
 7360SOL    HW225997   1.945   4.586   8.412  1.4308  2.5712 -1.8531
 7361SOL     OW25998   8.497   6.708   2.484 -0.0477  0.5159 -0.1481
 7361SOL    HW125999   8.533   6.735   2.400 -0.0591 -0.9367 -0.6477
 7361SOL    HW226000   8.419   6.656   2.462 -0.2406  0.3826  0.7654
 7362SOL     OW26001   6.581   9.904   9.426 -0.3962  0.1800  0.4606
 7362SOL    HW126002   6.543   9.986   9.394 -0.5284 -0.2025 -0.3989
 7362SOL    HW226003   6.642   9.931   9.494  1.3041  1.2023 -1.3739
 7363SOL     OW26004   9.848   6.805   2.835  0.4686  0.5862 -0.0972
 7363SOL    HW126005   9.913   6.746   2.796  0.5185  0.4763  0.1564
 7363SOL    HW226006   9.812   6.853   2.760 -0.1491 -0.3289 -0.4151
 7364SOL     OW26007   3.924   1.584   0.495  0.4546  0.1451 -0.1724
 7364SOL    HW126008   3.958   1.572   0.583 -2.7999  1.1427  1.4114
 7364SOL    HW226009   3.862   1.512   0.483  0.7594  0.0926 -1.6198
 7365SOL     OW26010   1.369   0.078   7.765  0.2057 -0.2926  0.4364
 7365SOL    HW126011   1.333   0.085   7.676 -2.0110 -0.8760  1.2067
 7365SOL    HW226012   1.402   0.166   7.784 -1.4509  0.5101 -0.1422
 7366SOL     OW26013   9.329   9.026   0.093  0.7191  0.4386 -0.2584
 7366SOL    HW126014   9.348   8.932   0.092 -1.0425  0.0464  0.3345
 7366SOL    HW226015   9.309   9.046   0.184  1.1218  1.4267 -0.3641
 7367SOL     OW26016   8.198   8.894   2.747  0.9377  0.1675 -0.0927
 7367SOL    HW126017   8.130   8.901   2.814 -0.5589 -2.5909 -1.1148
 7367SOL    HW226018   8.252   8.820   2.775  1.6490  0.4012 -0.8006
 7368SOL     OW26019   3.661   7.258   4.103  0.1528 -0.5088 -0.3614
 7368SOL    HW126020   3.744   7.228   4.141  1.0962  0.6229 -1.4490
 7368SOL    HW226021   3.658   7.218   4.016  0.8674  1.4576 -1.3684
 7369SOL     OW26022   2.095   7.429   7.519 -0.3301 -0.6857  0.3454
 7369SOL    HW126023   2.162   7.451   7.454 -0.9520  0.7846  0.1481
 7369SOL    HW226024   2.056   7.348   7.487  0.5342 -0.9052 -0.1805
 7370SOL     OW26025   6.945   6.521   2.283  0.4105 -0.5585 -0.2962
 7370SOL    HW126026   6.924   6.429   2.271  0.0965 -0.5365  0.0742
 7370SOL    HW226027   6.962   6.553   2.194  0.4089 -0.9437 -0.4371
 7371SOL     OW26028   7.386   1.270   2.058  0.3369 -0.8802  0.0294
 7371SOL    HW126029   7.355   1.197   2.003  0.2412 -1.1349  0.4174
 7371SOL    HW226030   7.479   1.277   2.037  0.2083 -0.6815 -0.4957
 7372SOL     OW26031   3.183   6.181   2.572  0.6907 -0.1660 -0.6799
 7372SOL    HW126032   3.107   6.214   2.525 -1.0104  0.1879  2.1202
 7372SOL    HW226033   3.183   6.087   2.556 -0.5577 -0.2177 -0.4329
 7373SOL     OW26034   7.403   1.946   3.928 -0.0179 -0.5422 -0.5560
 7373SOL    HW126035   7.439   1.946   4.016 -0.7535  0.0324 -0.2519
 7373SOL    HW226036   7.480   1.940   3.871  0.6600  1.5662  0.0644
 7374SOL     OW26037   8.030   1.363   0.743 -0.6718 -0.1586  0.0171
 7374SOL    HW126038   7.947   1.318   0.727 -1.7109  0.6724  2.5156
 7374SOL    HW226039   8.011   1.455   0.725  0.0773 -0.0980 -0.5262
 7375SOL     OW26040   5.819   6.406   7.062 -0.2476 -0.0543  0.1753
 7375SOL    HW126041   5.744   6.463   7.045 -0.2808 -0.6294 -1.7773
 7375SOL    HW226042   5.864   6.399   6.979  0.0110 -2.5038  0.4385
 7376SOL     OW26043   9.585   0.524   8.792  0.3252 -0.3305  0.1725
 7376SOL    HW126044   9.632   0.596   8.749 -1.4298  0.1773 -0.9841
 7376SOL    HW226045   9.655   0.468   8.827  1.7627  1.0545 -0.3369
 7377SOL     OW26046   4.101   1.110   8.093  1.0817  0.0231  0.1072
 7377SOL    HW126047   4.029   1.126   8.032 -0.9809 -0.2435  2.3347
 7377SOL    HW226048   4.131   1.198   8.117  0.7170  0.1786  0.0077
 7378SOL     OW26049   2.244   4.853   5.582 -0.2848 -0.1112  0.5716
 7378SOL    HW126050   2.333   4.840   5.548 -0.2588 -0.0804  0.6264
 7378SOL    HW226051   2.221   4.768   5.620 -0.3506 -0.1726  0.3941
 7379SOL     OW26052   3.284   7.561   8.578 -0.3869  0.4276 -0.6236
 7379SOL    HW126053   3.219   7.571   8.647 -0.1699  2.0254 -0.6261
 7379SOL    HW226054   3.332   7.644   8.577  1.2745 -0.4852 -1.0123
 7380SOL     OW26055   8.289   7.843   7.661 -0.7106  0.5177  0.7002
 7380SOL    HW126056   8.329   7.762   7.693 -0.4296  0.8394  1.1747
 7380SOL    HW226057   8.209   7.815   7.617 -2.4074  0.2170  3.6972
 7381SOL     OW26058   6.951   2.406   1.617  0.1021  0.9560 -0.3419
 7381SOL    HW126059   7.025   2.369   1.568  0.1409  1.7082 -0.8871
 7381SOL    HW226060   6.941   2.494   1.580 -2.4131  0.1742 -1.7863
 7382SOL     OW26061   6.759   3.098   5.899 -0.3497  0.1290 -0.2842
 7382SOL    HW126062   6.742   3.146   5.818 -0.1592  1.3004  0.3612
 7382SOL    HW226063   6.845   3.128   5.928 -0.8425  0.4629  0.8744
 7383SOL     OW26064   4.436   2.530   3.998  0.4767  0.1470 -0.3273
 7383SOL    HW126065   4.371   2.587   4.038 -1.4361  0.0807 -3.0519
 7383SOL    HW226066   4.385   2.465   3.950  2.5784 -1.0103 -1.1333
 7384SOL     OW26067   1.640   3.015   3.753 -0.2555 -0.1989 -0.1291
 7384SOL    HW126068   1.651   3.026   3.847 -0.2090  4.4014 -0.4472
 7384SOL    HW226069   1.725   3.037   3.716 -0.5344 -1.0064 -1.2949
 7385SOL     OW26070   6.617   9.384   8.655  0.4528 -0.1426 -0.6486
 7385SOL    HW126071   6.670   9.447   8.606  0.8130 -0.3346 -0.5107
 7385SOL    HW226072   6.548   9.437   8.695  1.7834  0.4679  0.9517
 7386SOL     OW26073   9.557   0.483   7.180 -0.6480  0.5094 -0.4046
 7386SOL    HW126074   9.596   0.544   7.242 -1.1771  0.4411 -0.0014
 7386SOL    HW226075   9.472   0.520   7.159 -1.3097 -0.4674  0.4423
 7387SOL     OW26076   7.878   2.346   3.557  0.5848 -0.0379  0.2514
 7387SOL    HW126077   7.971   2.368   3.556  0.2944  1.3541 -0.7899
 7387SOL    HW226078   7.875   2.251   3.567  2.0579  0.0344  1.7205
 7388SOL     OW26079   9.453   2.651   2.555 -0.0981 -0.0234 -0.3233
 7388SOL    HW126080   9.420   2.605   2.477 -1.4131 -0.4163  0.4270
 7388SOL    HW226081   9.373   2.677   2.602  0.6652  1.0635  0.4042
 7389SOL     OW26082   2.596   0.302   8.432  0.0994 -0.3709 -0.1429
 7389SOL    HW126083   2.605   0.335   8.343 -0.6526  0.0101 -0.0937
 7389SOL    HW226084   2.501   0.288   8.442  0.2446 -0.9986  0.3856
 7390SOL     OW26085   6.985   1.952   5.358 -0.0011 -0.3695  0.7291
 7390SOL    HW126086   7.062   1.897   5.350  0.3812  0.3875 -1.6334
 7390SOL    HW226087   7.010   2.035   5.317 -1.5035  0.5041  1.4862
 7391SOL     OW26088   8.697   8.993   2.590 -0.1366  0.1091  0.1282
 7391SOL    HW126089   8.706   9.043   2.671  0.7560  0.8476 -0.4084
 7391SOL    HW226090   8.767   8.928   2.593  1.4701  1.7068 -1.1269
 7392SOL     OW26091   1.435   5.493   3.142 -0.1967 -0.4051  0.1863
 7392SOL    HW126092   1.439   5.547   3.221 -1.1002 -1.0644  0.7037
 7392SOL    HW226093   1.348   5.510   3.105  0.3062  0.0712 -0.8066
 7393SOL     OW26094   6.384   8.805   0.944 -0.8306  0.5684 -0.6737
 7393SOL    HW126095   6.463   8.777   0.897 -0.3249 -0.0849  0.5278
 7393SOL    HW226096   6.323   8.733   0.932 -0.5547  0.2135 -0.0126
 7394SOL     OW26097   5.614   4.055   7.813 -0.1893 -0.0388  0.8196
 7394SOL    HW126098   5.681   4.120   7.795 -1.2109  0.7910 -0.1574
 7394SOL    HW226099   5.584   4.075   7.902  1.0229 -0.6090  1.3848
 7395SOL     OW26100   7.920   3.757   1.852  0.0936 -0.5759 -0.0797
 7395SOL    HW126101   7.873   3.674   1.847  0.3638 -0.7035 -0.6019
 7395SOL    HW226102   7.977   3.748   1.929 -0.3759 -0.6082  0.2648
 7396SOL     OW26103   6.674   1.662   0.985 -0.2695 -0.0128 -0.0138
 7396SOL    HW126104   6.612   1.694   0.920  1.0111  2.4217 -0.1464
 7396SOL    HW226105   6.754   1.645   0.935 -0.5960 -2.6433  0.2283
 7397SOL     OW26106   1.039   3.670   7.779  0.1695  0.5471 -0.1264
 7397SOL    HW126107   1.016   3.756   7.815 -1.9716  0.3443 -0.8729
 7397SOL    HW226108   1.038   3.611   7.854 -1.4581  0.6491 -0.0230
 7398SOL     OW26109   6.336   9.431   6.262  0.0878 -0.1051 -0.0489
 7398SOL    HW126110   6.424   9.394   6.257  0.0234 -0.0689 -2.0198
 7398SOL    HW226111   6.288   9.369   6.318  0.7287 -1.4967 -0.9728
 7399SOL     OW26112   2.810   6.920   3.933  0.0184  0.0438 -0.3027
 7399SOL    HW126113   2.901   6.924   3.959  0.5022 -0.1828 -1.8251
 7399SOL    HW226114   2.813   6.918   3.837 -1.6252  1.2030 -0.4183
 7400SOL     OW26115   9.322   9.023   7.336 -0.0937  0.1741 -0.2923
 7400SOL    HW126116   9.231   9.012   7.363 -0.2086 -1.7340 -1.2755
 7400SOL    HW226117   9.363   9.071   7.408 -1.0175 -2.1769  1.9601
 7401SOL     OW26118   6.920   5.787   2.966  0.4632  0.1168 -0.2328
 7401SOL    HW126119   6.880   5.812   3.049 -0.8043  1.8137 -1.2798
 7401SOL    HW226120   6.978   5.860   2.946  3.6920 -1.9261  0.8631
 7402SOL     OW26121   7.165   5.542   2.924 -0.3264  0.0487 -0.3763
 7402SOL    HW126122   7.100   5.600   2.885 -0.4568  0.2566  0.1463
 7402SOL    HW226123   7.118   5.459   2.938 -0.4452  0.1614 -0.1081
 7403SOL     OW26124  10.193   1.123   7.612 -0.6248  0.3170 -0.2996
 7403SOL    HW126125  10.266   1.184   7.599 -0.5239  0.1183 -0.6962
 7403SOL    HW226126  10.200   1.095   7.703  1.0836 -1.3254 -0.8632
 7404SOL     OW26127   7.595   9.083   8.703 -0.2915 -0.0462  0.4597
 7404SOL    HW126128   7.509   9.097   8.743 -0.1500  1.0327  0.3933
 7404SOL    HW226129   7.587   9.119   8.614 -0.1956 -1.2249 -0.0513
 7405SOL     OW26130   2.000   2.454   6.736 -0.1708 -0.3662  0.2479
 7405SOL    HW126131   1.960   2.391   6.676  0.6958 -0.9109  0.2269
 7405SOL    HW226132   1.935   2.524   6.744 -1.1020 -1.2014  0.1809
 7406SOL     OW26133   7.937   8.635   0.336  0.2581 -0.0895  0.1903
 7406SOL    HW126134   7.965   8.667   0.422 -0.4385  1.0518  0.0188
 7406SOL    HW226135   7.884   8.558   0.355  0.3859 -0.0429  0.7563
 7407SOL     OW26136   3.665   7.268   2.347  0.6574  0.2719 -0.0112
 7407SOL    HW126137   3.612   7.274   2.267  1.2049 -2.0644 -0.6168
 7407SOL    HW226138   3.713   7.186   2.338  2.6431  1.1633  1.5948
 7408SOL     OW26139   7.141   8.145   0.002  0.0424 -0.2382  0.4682
 7408SOL    HW126140   7.203   8.217  -0.010  1.2693 -1.3008  0.2745
 7408SOL    HW226141   7.195   8.070   0.026 -0.8515 -1.8653 -2.1734
 7409SOL     OW26142   7.218   1.131   7.032  0.3966 -0.8133 -0.2770
 7409SOL    HW126143   7.258   1.209   7.070  1.0219 -0.7408 -1.0741
 7409SOL    HW226144   7.164   1.164   6.961 -1.9384 -0.7957  1.3774
 7410SOL     OW26145   6.925   6.197   1.205 -0.0193  0.1410  0.3323
 7410SOL    HW126146   6.876   6.217   1.285  1.5618  1.8492  0.9648
 7410SOL    HW226147   6.932   6.282   1.161  0.9157 -0.3882 -0.5541
 7411SOL     OW26148   0.923   0.671   5.645 -0.1580  0.2023 -0.1189
 7411SOL    HW126149   0.932   0.577   5.656  1.4506  0.3141 -0.2962
 7411SOL    HW226150   0.852   0.695   5.705 -1.2840 -1.2405 -0.8278
 7412SOL     OW26151   6.724   6.178   3.011 -0.1226  0.3589 -0.3452
 7412SOL    HW126152   6.754   6.258   3.055 -0.2750  0.6223 -0.7122
 7412SOL    HW226153   6.634   6.198   2.984 -0.2080  0.0126 -0.3216
 7413SOL     OW26154   5.619   6.769   5.238  0.4015  0.4092 -0.2147
 7413SOL    HW126155   5.576   6.854   5.226 -0.7726 -0.0608  0.5186
 7413SOL    HW226156   5.606   6.748   5.331 -0.7715 -1.3125 -0.7174
 7414SOL     OW26157   3.182   7.922   6.960  0.1215 -0.1781  0.0644
 7414SOL    HW126158   3.174   7.873   7.042 -0.4703 -3.0280 -1.5386
 7414SOL    HW226159   3.275   7.942   6.954  0.3725 -0.9849  0.9115
 7415SOL     OW26160   5.287   4.737   2.554 -0.1914 -0.2056  0.0374
 7415SOL    HW126161   5.355   4.734   2.487 -0.0866  1.0638  0.0700
 7415SOL    HW226162   5.207   4.756   2.507 -0.9150 -3.3019 -0.2293
 7416SOL     OW26163   2.028   6.630   7.982  0.1286 -0.1565 -0.1288
 7416SOL    HW126164   2.000   6.683   7.908  0.4888 -0.3715 -0.4226
 7416SOL    HW226165   2.123   6.623   7.972  0.4453  1.3348  1.3541
 7417SOL     OW26166   3.284   5.810   6.853 -0.1648  0.8946  0.9309
 7417SOL    HW126167   3.370   5.811   6.810 -0.3641  0.3475  0.5019
 7417SOL    HW226168   3.223   5.839   6.785 -0.5961 -0.7904  0.5572
 7418SOL     OW26169   4.936   5.909   2.292  0.0157  0.2049 -0.0423
 7418SOL    HW126170   4.853   5.922   2.248 -0.2383 -0.2547  0.2887
 7418SOL    HW226171   4.923   5.831   2.346  0.7431 -0.0376 -0.1936
 7419SOL     OW26172   9.571   2.790   1.889 -0.1918  0.4849 -0.1420
 7419SOL    HW126173   9.492   2.736   1.893 -1.6650  2.5441  0.1922
 7419SOL    HW226174   9.608   2.786   1.977  1.2420 -2.0039 -0.7611
 7420SOL     OW26175   3.237   6.931   7.661 -0.7731  0.0597  0.1148
 7420SOL    HW126176   3.144   6.906   7.659 -1.4509  2.0882  2.2777
 7420SOL    HW226177   3.241   7.004   7.723  2.3387 -0.1604  0.3129
 7421SOL     OW26178   5.480   5.401   8.548  0.0415  0.1384  0.4777
 7421SOL    HW126179   5.460   5.327   8.606  0.4061 -1.3878 -1.2515
 7421SOL    HW226180   5.548   5.367   8.489 -1.7677  0.8823 -2.1947
 7422SOL     OW26181   6.861   1.362   4.087 -0.0201 -0.1440  0.1215
 7422SOL    HW126182   6.909   1.404   4.158 -0.4911  1.1882 -0.3171
 7422SOL    HW226183   6.882   1.269   4.095  0.8119  0.1301  1.3127
 7423SOL     OW26184   2.325   4.351   6.391 -0.0551  0.4216 -0.3573
 7423SOL    HW126185   2.279   4.327   6.310  0.6658  0.4756 -0.7894
 7423SOL    HW226186   2.382   4.277   6.409  0.4881  0.8195 -0.4305
 7424SOL     OW26187   8.004   7.448   2.697 -0.1393  0.6003 -0.5080
 7424SOL    HW126188   7.949   7.421   2.770 -0.4549  0.2839 -0.8608
 7424SOL    HW226189   8.087   7.474   2.738  0.1267 -0.7533 -0.1518
 7425SOL     OW26190   4.365   4.922   7.934  0.2681  0.2757  0.3271
 7425SOL    HW126191   4.449   4.968   7.930 -0.3836  1.4541 -0.3235
 7425SOL    HW226192   4.313   4.972   7.998 -0.8541  1.1978 -1.2349
 7426SOL     OW26193   6.343   6.703   9.939  0.0744 -0.1863 -0.0214
 7426SOL    HW126194   6.298   6.710  10.023 -0.2206 -2.0644  0.0258
 7426SOL    HW226195   6.274   6.682   9.876  0.5048 -0.4141 -0.4271
 7427SOL     OW26196   0.818   0.256   8.216 -0.0927 -0.2585  0.0957
 7427SOL    HW126197   0.781   0.259   8.128 -0.6261 -0.8953  0.2893
 7427SOL    HW226198   0.886   0.189   8.211  0.1768  0.0185  0.0565
 7428SOL     OW26199   3.941   2.843   1.920 -0.2512 -0.1137  0.1873
 7428SOL    HW126200   4.019   2.806   1.960  1.6289  3.0588 -0.1603
 7428SOL    HW226201   3.868   2.810   1.972  1.5634 -0.9567  2.3377
 7429SOL     OW26202   9.164   6.434   2.227  0.1293 -0.2685  0.3442
 7429SOL    HW126203   9.245   6.429   2.278 -0.0113 -2.3817  0.4707
 7429SOL    HW226204   9.100   6.383   2.278 -1.2005  1.0575  0.0759
 7430SOL     OW26205   1.494   0.203   0.578  0.1113 -0.7631  0.7063
 7430SOL    HW126206   1.403   0.184   0.599 -0.5052  1.6979  0.5123
 7430SOL    HW226207   1.513   0.286   0.621  1.0491  0.7563 -2.3126
 7431SOL     OW26208   2.140   9.652   5.147 -0.1220 -0.1007  0.4021
 7431SOL    HW126209   2.179   9.673   5.061  0.9606  0.3062  0.9672
 7431SOL    HW226210   2.141   9.736   5.194 -0.3174 -0.4100  0.9616
 7432SOL     OW26211   4.356   7.168   7.443 -0.3150  0.0324 -0.8409
 7432SOL    HW126212   4.424   7.107   7.414 -0.6344 -0.5536 -0.3876
 7432SOL    HW226213   4.319   7.127   7.522 -1.8645 -0.1523 -1.6274
 7433SOL     OW26214   3.427   8.348   8.771  0.3325 -0.5450  0.3019
 7433SOL    HW126215   3.469   8.301   8.843 -0.6155 -1.4973  0.2628
 7433SOL    HW226216   3.447   8.296   8.694 -1.4223 -1.4124  0.3717
 7434SOL     OW26217   8.273   8.868   9.691  0.2397  0.0290 -0.9232
 7434SOL    HW126218   8.226   8.825   9.619 -1.1660  1.8775 -1.2164
 7434SOL    HW226219   8.233   8.955   9.695  1.0011  0.3267  1.4482
 7435SOL     OW26220   4.135   9.023   1.704  0.2403 -0.1572  0.3335
 7435SOL    HW126221   4.115   8.981   1.787 -1.8670  0.5498  0.2523
 7435SOL    HW226222   4.085   8.973   1.639  2.6357 -1.3333 -0.7237
 7436SOL     OW26223   5.995   9.060   8.449  0.1331 -0.4023  0.4057
 7436SOL    HW126224   5.907   9.096   8.452  0.7926  1.3327  0.3549
 7436SOL    HW226225   6.045   9.113   8.512  1.7705  0.6435 -1.6173
 7437SOL     OW26226   7.230   9.983   1.395  0.3470  0.4025  0.2442
 7437SOL    HW126227   7.283   9.910   1.363  1.8046  0.8787  1.4556
 7437SOL    HW226228   7.276  10.061   1.364  0.9928  0.8452  2.1742
 7438SOL     OW26229   6.110   8.441   1.927 -0.0505 -0.0361  0.0008
 7438SOL    HW126230   6.021   8.438   1.962 -0.4649  0.1476 -1.0083
 7438SOL    HW226231   6.100   8.475   1.839  1.0029 -0.2277 -0.2060
 7439SOL     OW26232   7.853   8.374   4.333  0.1709 -0.1031 -0.2381
 7439SOL    HW126233   7.857   8.419   4.417  0.0201 -0.6166  0.0490
 7439SOL    HW226234   7.855   8.444   4.268  0.8129  0.2776  0.1796
 7440SOL     OW26235   0.461   9.142   9.461 -0.1959  0.0221  0.5427
 7440SOL    HW126236   0.543   9.187   9.480  1.1930 -0.7150 -2.9529
 7440SOL    HW226237   0.409   9.205   9.412  0.0889 -0.8028 -0.8844
 7441SOL     OW26238   4.489   1.408   3.294  0.0100  0.1145 -0.2676
 7441SOL    HW126239   4.487   1.502   3.311 -0.2190  0.7474 -3.1921
 7441SOL    HW226240   4.408   1.375   3.332  0.8667  0.7035  2.3075
 7442SOL     OW26241   3.360   5.589   5.701  0.9247  0.2719  0.1231
 7442SOL    HW126242   3.343   5.503   5.741  0.9075  0.0329 -0.3919
 7442SOL    HW226243   3.300   5.648   5.746 -0.1406 -0.2684 -0.5516
 7443SOL     OW26244   6.235   9.938   1.062 -0.4416  0.1124 -0.0989
 7443SOL    HW126245   6.149   9.926   1.023  0.5581 -1.2397 -2.0688
 7443SOL    HW226246   6.289   9.972   0.991  0.9476 -0.2210  0.7518
 7444SOL     OW26247   8.810   2.417   1.201 -0.2738 -0.2426 -0.0388
 7444SOL    HW126248   8.801   2.500   1.248  1.6886 -0.8045  1.4704
 7444SOL    HW226249   8.769   2.352   1.258  0.7904 -0.7059  0.2301
 7445SOL     OW26250   0.696   0.369   6.948  0.4056 -0.3800  0.2680
 7445SOL    HW126251   0.685   0.284   6.991  0.2366 -1.0030 -0.9763
 7445SOL    HW226252   0.738   0.349   6.865 -0.6743  0.6095 -0.5547
 7446SOL     OW26253   5.236   6.772   3.312 -0.5338 -0.0587  0.7655
 7446SOL    HW126254   5.300   6.779   3.382  0.5328 -3.1264  0.2469
 7446SOL    HW226255   5.265   6.835   3.246 -0.8996  2.0242  2.4754
 7447SOL     OW26256   7.765   0.560   5.052  0.0069  0.1380  0.3430
 7447SOL    HW126257   7.815   0.600   5.123 -0.8991 -0.7244  1.4978
 7447SOL    HW226258   7.756   0.468   5.078 -0.3993 -0.1801 -0.8624
 7448SOL     OW26259   5.477   6.159   5.253  0.1191 -0.0218 -0.1727
 7448SOL    HW126260   5.408   6.102   5.220  0.5026  0.2487 -1.4765
 7448SOL    HW226261   5.558   6.118   5.224  0.5214 -0.2479  1.2026
 7449SOL     OW26262   3.945   5.933   1.504  0.3163  0.4868 -0.0642
 7449SOL    HW126263   4.024   5.944   1.449  0.2971  1.7563  0.1364
 7449SOL    HW226264   3.969   5.971   1.588  0.2159 -1.1308  0.7214
 7450SOL     OW26265   3.069   3.462   5.611 -0.2976 -0.1717  0.2720
 7450SOL    HW126266   3.137   3.514   5.567 -0.4358 -0.1747  0.0544
 7450SOL    HW226267   3.116   3.387   5.647 -0.3726 -0.8668 -0.9947
 7451SOL     OW26268   2.206   2.509   4.417  0.2971  0.3677  0.0534
 7451SOL    HW126269   2.244   2.474   4.497  2.0473  0.2741 -0.7580
 7451SOL    HW226270   2.277   2.502   4.352 -1.4786 -0.8540 -1.8784
 7452SOL     OW26271   7.002   4.206   5.174 -0.2002  1.0239 -0.2605
 7452SOL    HW126272   6.948   4.278   5.143 -0.6407  0.3147 -1.1938
 7452SOL    HW226273   7.091   4.228   5.144 -0.1306  1.7190  0.4398
 7453SOL     OW26274   8.893   8.920   8.517  1.1043 -0.0722 -0.1809
 7453SOL    HW126275   8.872   8.966   8.598 -0.5030 -0.5087 -0.3268
 7453SOL    HW226276   8.901   8.989   8.451 -5.0873  0.1179 -1.2932
 7454SOL     OW26277   5.174   0.456   4.082 -0.1640 -0.0791 -0.1269
 7454SOL    HW126278   5.242   0.396   4.053  0.0886  0.2762 -0.2766
 7454SOL    HW226279   5.113   0.461   4.008 -0.7016 -0.8980  0.2487
 7455SOL     OW26280   0.082   8.252   4.045 -0.4618  0.4096 -0.4155
 7455SOL    HW126281   0.096   8.336   4.088 -2.5805  1.3808 -1.4562
 7455SOL    HW226282   0.041   8.196   4.112  2.0170 -0.2637  0.6345
 7456SOL     OW26283   3.603   9.252   8.725  0.4065  0.3713 -0.7586
 7456SOL    HW126284   3.621   9.240   8.818  3.4461 -0.0077 -1.2941
 7456SOL    HW226285   3.684   9.226   8.681 -0.4677  1.7866 -3.4418
 7457SOL     OW26286   7.698   9.140   4.610 -0.0084  0.4912  0.0579
 7457SOL    HW126287   7.720   9.228   4.578  1.3703  0.0957 -0.0939
 7457SOL    HW226288   7.694   9.086   4.531 -0.5004  0.3264  0.1902
 7458SOL     OW26289  10.147   8.625   5.381 -0.6542 -0.4807  0.1164
 7458SOL    HW126290  10.166   8.660   5.468  0.0697 -3.0180  1.0449
 7458SOL    HW226291  10.232   8.599   5.346 -0.5803  2.4832 -2.3973
 7459SOL     OW26292   0.633   7.464   8.914  0.1579  0.5700 -0.0146
 7459SOL    HW126293   0.635   7.560   8.915  0.5777  0.6375 -2.1238
 7459SOL    HW226294   0.685   7.439   8.990  1.4653  2.0460 -0.3598
 7460SOL     OW26295   7.525   7.748   3.717 -0.1433  0.0736 -0.7084
 7460SOL    HW126296   7.453   7.700   3.676  0.3297 -1.9358  0.6472
 7460SOL    HW226297   7.569   7.683   3.772  1.1339  1.8734  0.5271
 7461SOL     OW26298  10.044   5.788   9.151 -0.2034  0.6676 -0.4688
 7461SOL    HW126299   9.950   5.778   9.164 -0.2445  2.3450  1.0538
 7461SOL    HW226300  10.083   5.751   9.230  0.6074 -1.7881 -1.9201
 7462SOL     OW26301   1.291   8.422   9.893 -0.1735 -0.0472 -0.2852
 7462SOL    HW126302   1.227   8.364   9.933 -1.6704  1.1855 -0.7595
 7462SOL    HW226303   1.339   8.367   9.831 -1.9492 -0.6963 -1.1570
 7463SOL     OW26304   9.456   4.873   4.685 -0.4540 -0.0380 -0.0731
 7463SOL    HW126305   9.484   4.951   4.637 -1.8361  0.2265 -0.4985
 7463SOL    HW226306   9.362   4.865   4.665 -0.6814 -0.9012  1.2164
 7464SOL     OW26307   8.110   3.775   4.837 -0.4285 -0.0401 -0.1604
 7464SOL    HW126308   8.150   3.804   4.755 -0.4330  0.0437 -0.1321
 7464SOL    HW226309   8.016   3.774   4.819 -0.4641  0.4542 -0.0001
 7465SOL     OW26310   2.669   9.518   2.700  0.2986 -0.4481 -0.1025
 7465SOL    HW126311   2.751   9.550   2.738 -0.7809  0.8226  1.2519
 7465SOL    HW226312   2.645   9.585   2.636 -0.8193  0.3826  1.1397
 7466SOL     OW26313   0.930   7.383   0.286  0.5729  0.5926  0.2293
 7466SOL    HW126314   0.978   7.466   0.282  0.2239  0.7957  0.2177
 7466SOL    HW226315   0.912   7.370   0.379 -1.7968  1.9501  0.0363
 7467SOL     OW26316   2.455   3.583   4.792 -0.4002  0.1824 -0.2521
 7467SOL    HW126317   2.401   3.574   4.870  1.2325 -0.0428  0.9189
 7467SOL    HW226318   2.469   3.493   4.762  0.2598  0.1357  0.1589
 7468SOL     OW26319   8.802   9.713   2.766  0.2805 -0.3023 -0.3337
 7468SOL    HW126320   8.749   9.789   2.791 -0.7374 -1.0082 -0.2895
 7468SOL    HW226321   8.881   9.720   2.819 -0.3985 -0.0015  0.6603
 7469SOL     OW26322   7.406   2.100   2.663  0.2219  0.3711  0.8777
 7469SOL    HW126323   7.392   2.008   2.643  0.7066  0.6249 -0.7721
 7469SOL    HW226324   7.488   2.102   2.711  0.4758 -0.0151  0.4665
 7470SOL     OW26325   5.352   7.256   2.745  0.1526  0.2317 -0.0402
 7470SOL    HW126326   5.385   7.306   2.819  0.0069 -0.0754  0.2352
 7470SOL    HW226327   5.264   7.290   2.731  0.4539  0.8152 -0.5583
 7471SOL     OW26328   3.759   9.952   2.052  0.2802 -0.1125 -0.5996
 7471SOL    HW126329   3.825   9.903   2.003  1.1642  0.5329 -0.0720
 7471SOL    HW226330   3.719  10.009   1.987  1.3104  0.5973 -0.6273
 7472SOL     OW26331  10.143   4.738   0.647 -0.1127  0.2056  0.0122
 7472SOL    HW126332  10.072   4.801   0.658 -0.6472 -0.3491 -0.2201
 7472SOL    HW226333  10.099   4.653   0.641  0.4661 -0.0188 -1.5239
 7473SOL     OW26334   8.538   7.652   2.872  0.9235 -0.6354  0.4501
 7473SOL    HW126335   8.536   7.619   2.962  1.1260 -0.2104  0.6137
 7473SOL    HW226336   8.558   7.746   2.881 -1.5279 -0.0004  0.1253
 7474SOL     OW26337   6.653   1.154   2.795  0.3069 -0.3456  0.3834
 7474SOL    HW126338   6.605   1.233   2.771  3.3108  1.4799 -0.1373
 7474SOL    HW226339   6.707   1.135   2.719  1.0327 -1.8071  1.2272
 7475SOL     OW26340   0.510   4.008   6.973  0.2669  0.0812  0.2942
 7475SOL    HW126341   0.575   4.078   6.974  1.4198 -0.9495  1.4296
 7475SOL    HW226342   0.551   3.938   6.922 -1.5039  0.7229 -2.1924
 7476SOL     OW26343   5.424   4.673   5.616  0.0985 -0.2705  0.3457
 7476SOL    HW126344   5.403   4.634   5.700 -1.3548  0.3498  0.3027
 7476SOL    HW226345   5.506   4.721   5.632 -0.8124  0.8997  1.7730
 7477SOL     OW26346   0.182   5.470   8.792  0.0336  0.1940 -0.1569
 7477SOL    HW126347   0.144   5.398   8.740  1.7046 -0.8138 -0.0345
 7477SOL    HW226348   0.120   5.542   8.780 -0.0858 -0.2512 -2.8915
 7478SOL     OW26349   3.938   4.856   1.992  0.6826  0.6680 -0.0314
 7478SOL    HW126350   3.895   4.871   2.076  0.5607  1.2126 -0.1912
 7478SOL    HW226351   4.028   4.834   2.016  0.3401 -0.4377  0.2979
 7479SOL     OW26352   4.175   5.128   9.830 -0.7542  0.0108  0.8302
 7479SOL    HW126353   4.232   5.089   9.763 -1.3080  0.4273  0.0916
 7479SOL    HW226354   4.212   5.100   9.913  0.3832  0.0682  0.3625
 7480SOL     OW26355   8.619   2.684   8.295  0.6817  0.4596 -0.1654
 7480SOL    HW126356   8.585   2.612   8.242 -0.8118  0.9042  0.1470
 7480SOL    HW226357   8.636   2.645   8.380 -0.3979  0.5185  0.0891
 7481SOL     OW26358  10.022   5.711   1.036 -0.1964 -0.0020 -0.1722
 7481SOL    HW126359  10.085   5.761   1.087 -1.1337  1.0327 -0.0150
 7481SOL    HW226360  10.065   5.626   1.023  0.1230 -0.2804  2.2175
 7482SOL     OW26361   0.711   1.423   6.590  0.1563 -0.3907 -0.6850
 7482SOL    HW126362   0.723   1.512   6.621  0.2540 -1.0890  1.4503
 7482SOL    HW226363   0.672   1.377   6.664  1.3178 -2.4275 -1.2700
 7483SOL     OW26364   5.775   0.174   7.497 -0.2904  0.1157 -0.0236
 7483SOL    HW126365   5.784   0.257   7.450  0.8725 -0.1451 -0.3029
 7483SOL    HW226366   5.838   0.116   7.455  0.9185 -0.0822  1.9399
 7484SOL     OW26367   2.243   9.439   5.341  0.2434 -0.0326  0.6036
 7484SOL    HW126368   2.159   9.393   5.333  0.4890 -0.3539 -0.2858
 7484SOL    HW226369   2.267   9.459   5.251  0.5743  1.0825  0.9251
 7485SOL     OW26370   4.131   8.800   8.296  0.2907 -0.6355  0.4326
 7485SOL    HW126371   4.206   8.809   8.354 -1.0881 -1.6494  2.5322
 7485SOL    HW226372   4.070   8.869   8.324  0.6723  0.7075 -1.7722
 7486SOL     OW26373   5.137   9.422   7.185 -0.3914  0.0551 -0.0169
 7486SOL    HW126374   5.081   9.397   7.259 -0.0396 -0.4679  0.0776
 7486SOL    HW226375   5.222   9.442   7.225 -0.3490  0.2942 -0.2242
 7487SOL     OW26376   5.398   8.859   9.281  0.0594 -0.1471  0.0497
 7487SOL    HW126377   5.442   8.789   9.233 -0.2234  0.1361 -0.6474
 7487SOL    HW226378   5.306   8.831   9.285 -0.2909  0.7192 -1.2906
 7488SOL     OW26379   4.095   9.668   5.681  0.5795  0.1197 -0.2323
 7488SOL    HW126380   4.053   9.606   5.621  0.4533  0.1360 -0.1616
 7488SOL    HW226381   4.022   9.708   5.728  0.6478  0.4519 -0.4025
 7489SOL     OW26382   1.802   8.193   5.272 -0.0249  0.3123 -0.5952
 7489SOL    HW126383   1.710   8.194   5.248 -0.7233 -0.5775  1.7620
 7489SOL    HW226384   1.822   8.284   5.295 -0.7057  0.2735  0.1763
 7490SOL     OW26385   3.062   6.895   7.936  0.0001 -0.0261 -0.2076
 7490SOL    HW126386   3.111   6.977   7.927  0.9119 -0.4436  0.8347
 7490SOL    HW226387   3.125   6.832   7.969 -0.9123 -0.9303 -0.1382
 7491SOL     OW26388   3.574   3.817   5.374 -0.9841  0.1167  0.2105
 7491SOL    HW126389   3.507   3.814   5.442 -2.2851 -1.2978 -1.0682
 7491SOL    HW226390   3.636   3.748   5.398 -2.5894 -1.8833 -1.0887
 7492SOL     OW26391   4.351   3.599   5.407  0.0794  0.2202 -0.4373
 7492SOL    HW126392   4.305   3.519   5.381  0.6119 -0.2164 -0.0526
 7492SOL    HW226393   4.444   3.579   5.395  0.1615  1.7028 -2.9296
 7493SOL     OW26394   1.222   6.950   6.281  0.3339 -0.0433 -0.2449
 7493SOL    HW126395   1.271   7.029   6.304 -0.4645  0.0115  1.3984
 7493SOL    HW226396   1.131   6.973   6.298  0.0968 -1.3181  0.2770
 7494SOL     OW26397   1.346   9.322   7.242  0.6729 -0.2361  0.8215
 7494SOL    HW126398   1.421   9.379   7.227 -0.4060  0.4396 -3.7351
 7494SOL    HW226399   1.270   9.380   7.232 -0.4221 -1.9388 -1.8053
 7495SOL     OW26400   0.963   9.667   5.538  0.2575 -0.0066  0.1616
 7495SOL    HW126401   1.006   9.666   5.624 -1.6750  1.1048  1.2097
 7495SOL    HW226402   1.029   9.631   5.478  1.8515 -0.3401  2.0036
 7496SOL     OW26403   4.057   2.048   3.602  0.4432  0.7819  0.1272
 7496SOL    HW126404   3.973   2.076   3.564  0.7015  1.5989  0.1397
 7496SOL    HW226405   4.049   2.068   3.695  0.3838  0.1728  0.2608
 7497SOL     OW26406   9.018   2.055   0.391 -0.0884 -0.3507  0.5546
 7497SOL    HW126407   8.929   2.052   0.425  0.2624 -0.9171  1.4819
 7497SOL    HW226408   9.066   2.111   0.452  0.1622  0.0563 -0.0093
 7498SOL     OW26409   9.426   2.610   5.926  0.3520  0.0078  0.0866
 7498SOL    HW126410   9.367   2.672   5.968 -0.6282 -0.0513 -1.1292
 7498SOL    HW226411   9.422   2.632   5.833  1.4040 -0.7187 -0.1586
 7499SOL     OW26412   9.388   6.145   5.114  0.3103 -0.2901  0.7142
 7499SOL    HW126413   9.445   6.071   5.136  0.0034 -0.3798  1.2529
 7499SOL    HW226414   9.302   6.119   5.149  0.1271  0.1822  0.6184
 7500SOL     OW26415   6.735   4.595   7.965 -0.5237 -0.2494  0.8825
 7500SOL    HW126416   6.769   4.521   8.014  0.4811 -1.1665 -1.1019
 7500SOL    HW226417   6.804   4.661   7.970  0.6298 -1.2159 -1.1421
 7501SOL     OW26418   5.994   5.051   2.865  0.2062 -0.0719  0.2008
 7501SOL    HW126419   6.063   5.040   2.930  0.6610 -1.5640 -0.5056
 7501SOL    HW226420   5.915   5.021   2.909  0.1580  0.7674  0.7013
 7502SOL     OW26421   2.409   2.428   3.806  0.5836  0.7081  0.6734
 7502SOL    HW126422   2.423   2.517   3.772  1.7273  0.2566 -0.1125
 7502SOL    HW226423   2.443   2.371   3.737 -0.8600 -0.3820  0.8291
 7503SOL     OW26424   9.265   0.493   4.507 -0.5516 -0.3258 -0.3924
 7503SOL    HW126425   9.328   0.565   4.500 -0.1847 -0.6758 -0.7101
 7503SOL    HW226426   9.315   0.420   4.543 -1.1366 -0.1613  0.8042
 7504SOL     OW26427   4.124   9.357   6.096 -0.1457 -0.1159 -0.3194
 7504SOL    HW126428   4.098   9.346   6.005 -1.3094  2.2733 -0.3543
 7504SOL    HW226429   4.214   9.389   6.092 -0.4413  0.7084 -0.7177
 7505SOL     OW26430   4.789   4.220   7.943  0.4142 -0.5309  0.0551
 7505SOL    HW126431   4.695   4.239   7.941  0.4259 -0.4236  0.4470
 7505SOL    HW226432   4.803   4.178   8.027  0.2257 -3.2378 -1.1785
 7506SOL     OW26433  10.085   1.394   8.842  0.2716  0.0410  0.2623
 7506SOL    HW126434  10.111   1.460   8.778  0.4078  0.0354  0.3118
 7506SOL    HW226435  10.163   1.340   8.855  0.0676 -0.3277 -0.0190
 7507SOL     OW26436   2.756   5.001   3.495  0.4118 -0.2128 -0.0668
 7507SOL    HW126437   2.830   5.036   3.445  0.0105  0.5513 -0.1520
 7507SOL    HW226438   2.715   4.937   3.436 -0.3242  1.0012 -0.9387
 7508SOL     OW26439   5.398   7.548   7.072  0.2444  0.1041  0.3267
 7508SOL    HW126440   5.415   7.490   6.998  0.6230  0.3784  0.1929
 7508SOL    HW226441   5.484   7.565   7.110  0.2609  1.2617 -0.1641
 7509SOL     OW26442   3.203   5.921   4.542  0.0128  0.3548  0.1311
 7509SOL    HW126443   3.137   5.853   4.555 -0.3749  0.4013 -1.3704
 7509SOL    HW226444   3.213   5.962   4.628 -1.4255 -0.0957  0.5354
 7510SOL     OW26445   9.511   5.034   9.867  0.7233 -0.4709  0.0760
 7510SOL    HW126446   9.589   5.090   9.860  0.5029 -0.0826  0.6456
 7510SOL    HW226447   9.497   5.002   9.778 -0.6654  2.4817 -0.9008
 7511SOL     OW26448   0.823   0.643   9.389  0.3910  0.7337 -1.4251
 7511SOL    HW126449   0.899   0.585   9.387 -0.2217 -0.2766  0.8899
 7511SOL    HW226450   0.842   0.705   9.460 -1.4236 -0.3982  0.1782
 7512SOL     OW26451   2.697   9.516   1.033 -0.1334 -0.3188 -0.6671
 7512SOL    HW126452   2.603   9.534   1.026  0.1392  1.9408  0.5548
 7512SOL    HW226453   2.703   9.443   1.095 -1.0525  0.4753  0.4039
 7513SOL     OW26454   7.992   4.293   1.114  0.0221  0.4280 -0.3756
 7513SOL    HW126455   7.961   4.212   1.155 -0.5290  1.7539  1.9254
 7513SOL    HW226456   7.943   4.298   1.032 -2.9841  0.3991  1.2882
 7514SOL     OW26457   7.959   2.824   7.490  0.0314  0.5425 -0.3711
 7514SOL    HW126458   8.001   2.802   7.573  0.9991  0.9770 -0.7300
 7514SOL    HW226459   7.895   2.754   7.475 -1.3155  1.2938  1.5315
 7515SOL     OW26460   3.012   1.308   4.798 -0.1001 -0.6292  0.1227
 7515SOL    HW126461   2.945   1.310   4.866 -1.3597  0.3884 -1.0938
 7515SOL    HW226462   3.052   1.221   4.807  0.2001 -0.3279  2.5020
 7516SOL     OW26463   5.764   8.758   3.047 -0.1417  0.2780  0.0689
 7516SOL    HW126464   5.772   8.832   2.988  1.3808  0.4853  0.4993
 7516SOL    HW226465   5.841   8.763   3.103 -0.7276 -0.8329  1.0242
 7517SOL     OW26466   7.280   7.790   7.078 -0.0231  0.2068 -0.6628
 7517SOL    HW126467   7.372   7.765   7.069 -0.1503 -0.2232 -0.7514
 7517SOL    HW226468   7.268   7.858   7.011  0.3623  0.6361 -0.3054
 7518SOL     OW26469  10.155   0.780   2.015 -0.2732  0.0542  0.3508
 7518SOL    HW126470  10.199   0.865   2.010 -1.1007  0.4514 -0.4340
 7518SOL    HW226471  10.221   0.721   2.052  0.9098  0.6425 -0.7615
 7519SOL     OW26472   6.596   6.060   7.730  0.4609  0.3809  0.5158
 7519SOL    HW126473   6.532   6.033   7.664  1.3822 -0.7196  0.0300
 7519SOL    HW226474   6.626   5.978   7.769 -0.0226  1.0065  2.2869
 7520SOL     OW26475   8.993   9.020   3.748  0.3737 -0.0944 -0.2963
 7520SOL    HW126476   8.910   9.066   3.736 -0.1868 -1.0150 -0.0443
 7520SOL    HW226477   9.056   9.090   3.765 -0.1356  0.7085 -1.5146
 7521SOL     OW26478   4.390   3.038   7.786 -0.0959  0.1456 -0.2273
 7521SOL    HW126479   4.470   3.078   7.751  1.1792 -1.2826  0.8926
 7521SOL    HW226480   4.360   2.979   7.717  0.4342 -0.0937 -0.2613
 7522SOL     OW26481   3.256   8.971   2.024 -0.0223  0.6285 -0.0105
 7522SOL    HW126482   3.322   9.030   1.988  0.2351  0.7257  0.6062
 7522SOL    HW226483   3.300   8.886   2.028  0.3757  0.8584  1.1847
 7523SOL     OW26484   7.153   7.660   6.335  0.3919  0.6586  0.3184
 7523SOL    HW126485   7.229   7.713   6.360  3.2434 -1.9212 -2.0417
 7523SOL    HW226486   7.156   7.584   6.393 -0.6215  0.6732  0.4124
 7524SOL     OW26487   6.228   7.846   2.301  0.3743 -0.5339  0.2404
 7524SOL    HW126488   6.236   7.887   2.215  0.3615  0.0798  0.5270
 7524SOL    HW226489   6.144   7.878   2.335  0.3354 -0.8443  0.4439
 7525SOL     OW26490   0.722   5.243   0.795  0.0923  0.0315 -0.3107
 7525SOL    HW126491   0.659   5.174   0.815 -1.0214 -0.1367 -3.7670
 7525SOL    HW226492   0.721   5.299   0.872 -3.2640 -0.7477  0.3768
 7526SOL     OW26493   8.276   6.577   0.247  0.4165 -0.2481  0.4082
 7526SOL    HW126494   8.242   6.523   0.176  3.1789 -0.6325 -0.7556
 7526SOL    HW226495   8.216   6.651   0.252 -0.9712 -1.2183 -0.9220
 7527SOL     OW26496   9.125   9.135   1.174 -0.1242  0.1933  0.6261
 7527SOL    HW126497   9.038   9.168   1.150  0.7411  0.9820 -1.6932
 7527SOL    HW226498   9.182   9.211   1.168  1.3884 -1.0074 -1.8457
 7528SOL     OW26499   5.955   9.307   6.340  0.0727  0.1256  0.4947
 7528SOL    HW126500   5.954   9.402   6.343  1.6490  0.2104 -0.2134
 7528SOL    HW226501   5.915   9.285   6.256  2.3749  0.3817 -0.7820
 7529SOL     OW26502   2.077   2.065   3.381  0.4507  0.0957  0.3068
 7529SOL    HW126503   2.105   2.065   3.472  0.7569 -1.2925  0.2373
 7529SOL    HW226504   2.016   2.138   3.374  0.9997  0.6771  1.4363
 7530SOL     OW26505   1.249   4.496   4.955 -0.4023  0.7524 -0.3123
 7530SOL    HW126506   1.206   4.425   4.907 -1.5910  0.6493  0.8418
 7530SOL    HW226507   1.189   4.515   5.027  0.7424  1.7440  0.4041
 7531SOL     OW26508   5.949   8.081   4.792  0.2862 -0.0773  0.1151
 7531SOL    HW126509   6.005   8.029   4.734  0.0478 -0.8922  0.5899
 7531SOL    HW226510   5.861   8.071   4.754  0.3269  0.4574 -0.1194
 7532SOL     OW26511   5.864   1.851   6.806  0.0025 -0.1795 -0.3073
 7532SOL    HW126512   5.862   1.831   6.713  0.3261  0.3238 -0.4262
 7532SOL    HW226513   5.862   1.766   6.849  2.6043 -0.5815 -0.8126
 7533SOL     OW26514   6.952   7.910   4.974 -0.3607 -0.7418 -0.4444
 7533SOL    HW126515   7.008   7.855   4.920  0.7615 -0.7060  0.6135
 7533SOL    HW226516   6.937   7.859   5.054 -0.7174 -0.2047 -0.1560
 7534SOL     OW26517   6.831   1.856   1.220 -0.2068 -0.2250  0.1154
 7534SOL    HW126518   6.848   1.877   1.129 -0.2374 -1.3106 -0.1583
 7534SOL    HW226519   6.903   1.796   1.245  0.3126  0.7563  1.0735
 7535SOL     OW26520   1.269   8.101   0.769 -0.6359  0.5499  0.1495
 7535SOL    HW126521   1.290   8.101   0.862  0.2197  0.3853 -0.0334
 7535SOL    HW226522   1.254   8.193   0.748 -1.8347  0.4863  0.6535
 7536SOL     OW26523   4.428   3.861   8.981  0.0370 -0.4785 -0.3823
 7536SOL    HW126524   4.478   3.901   9.052  0.1231 -0.7454 -0.2910
 7536SOL    HW226525   4.484   3.868   8.904 -0.0857 -0.1248 -0.4415
 7537SOL     OW26526   9.921   0.522   2.742 -0.6864  0.3010 -0.9042
 7537SOL    HW126527   9.842   0.469   2.750  0.3078 -1.0669  0.3399
 7537SOL    HW226528   9.890   0.608   2.715 -2.5098 -0.4168 -1.2109
 7538SOL     OW26529   1.814   0.674   4.209 -0.6433 -0.1811 -0.5604
 7538SOL    HW126530   1.881   0.740   4.193  0.0566 -1.0030 -1.0880
 7538SOL    HW226531   1.780   0.652   4.122 -2.0272  0.6451 -0.2567
 7539SOL     OW26532   2.611   8.441   8.293  0.6340 -0.2581  0.4335
 7539SOL    HW126533   2.538   8.455   8.232  0.3389  0.9777  1.0346
 7539SOL    HW226534   2.629   8.347   8.287  2.4093  0.1015 -3.5965
 7540SOL     OW26535   5.206   2.831   0.911 -0.5646 -1.1056 -0.7172
 7540SOL    HW126536   5.253   2.795   0.986 -1.4472 -0.9435 -0.0688
 7540SOL    HW226537   5.157   2.756   0.875 -0.5077 -1.0824 -0.8425
 7541SOL     OW26538   3.081   7.669   3.707 -0.0280 -0.3453  0.3386
 7541SOL    HW126539   3.135   7.681   3.785  1.6856 -1.7424 -0.5742
 7541SOL    HW226540   3.132   7.708   3.636 -1.2527  0.2952 -0.2210
 7542SOL     OW26541   2.714   8.254   7.026  0.5339  0.1008 -0.2273
 7542SOL    HW126542   2.619   8.259   7.021  0.5826 -0.3725 -2.9267
 7542SOL    HW226543   2.730   8.182   7.087 -0.8576 -0.4890 -0.5161
 7543SOL     OW26544   4.139   7.707   8.886 -0.1112 -0.3582  0.3725
 7543SOL    HW126545   4.234   7.704   8.879 -0.0721  1.8127 -0.9033
 7543SOL    HW226546   4.111   7.763   8.813 -2.4177 -1.3245  0.4157
 7544SOL     OW26547   0.442   9.151   1.974  0.3036 -0.1585 -0.2186
 7544SOL    HW126548   0.457   9.141   1.880 -1.0538  0.9527 -0.5967
 7544SOL    HW226549   0.360   9.105   1.990 -0.4049  1.1181  0.0407
 7545SOL     OW26550   6.530   6.904   3.666  0.1739  0.1138 -0.8935
 7545SOL    HW126551   6.515   6.887   3.573  0.9298 -0.1058 -0.9784
 7545SOL    HW226552   6.480   6.984   3.684 -2.3285 -1.3683 -0.8100
 7546SOL     OW26553   3.496   7.404   8.194 -0.0888 -0.2328 -0.4990
 7546SOL    HW126554   3.413   7.401   8.146 -0.8396 -0.3069  0.7708
 7546SOL    HW226555   3.562   7.381   8.128 -1.1362 -0.9053 -1.3551
 7547SOL     OW26556   8.256   7.537   1.342  0.2542 -0.0578 -0.0883
 7547SOL    HW126557   8.234   7.524   1.250  2.8667 -1.5230 -0.6132
 7547SOL    HW226558   8.322   7.606   1.342 -1.3065  1.5317  0.9917
 7548SOL     OW26559   8.904   1.390   8.033  0.0460  0.3785  0.3068
 7548SOL    HW126560   8.932   1.394   7.942  1.2920 -0.7704  0.5899
 7548SOL    HW226561   8.838   1.321   8.035 -0.7331  1.1076  0.1164
 7549SOL     OW26562   8.690   6.847   4.684  0.0897 -0.4540  0.3935
 7549SOL    HW126563   8.714   6.877   4.596 -0.3713 -1.6096 -0.1443
 7549SOL    HW226564   8.614   6.900   4.707  0.6645  0.3864  0.4337
 7550SOL     OW26565   8.474   7.889   4.166  0.4109  0.0440 -0.3467
 7550SOL    HW126566   8.553   7.944   4.162 -0.6381  1.5894 -1.0635
 7550SOL    HW226567   8.426   7.913   4.087 -1.0879 -0.3627  0.4163
 7551SOL     OW26568   1.763   1.743   1.964  0.4322  0.4105 -0.0715
 7551SOL    HW126569   1.748   1.660   1.920  1.3014 -1.4871  2.9192
 7551SOL    HW226570   1.675   1.778   1.980  0.0367 -0.2034 -0.8299
 7552SOL     OW26571   8.202   8.075   8.226  0.4995 -0.1138  0.0465
 7552SOL    HW126572   8.133   8.141   8.240  0.3043  0.0731 -1.5998
 7552SOL    HW226573   8.275   8.125   8.189  1.6901 -0.2602  2.0542
 7553SOL     OW26574   7.158   1.238   1.254 -0.3368  0.2626 -0.2052
 7553SOL    HW126575   7.188   1.258   1.343  1.5544 -0.8152 -0.5456
 7553SOL    HW226576   7.127   1.147   1.259  0.1899  0.0490 -0.7346
 7554SOL     OW26577   3.463   3.328   6.448 -0.1247  0.3791  0.5448
 7554SOL    HW126578   3.528   3.373   6.394 -1.7012  0.9401 -0.9873
 7554SOL    HW226579   3.512   3.297   6.524  2.4016 -1.0507 -1.4935
 7555SOL     OW26580   7.746   0.213   9.113  0.6369  0.2595  0.0694
 7555SOL    HW126581   7.657   0.249   9.110  0.9007  0.9757  0.5328
 7555SOL    HW226582   7.801   0.286   9.141  1.2391 -0.4322  0.7459
 7556SOL     OW26583   0.329   0.351   6.273  0.1729  0.1793  0.5332
 7556SOL    HW126584   0.302   0.427   6.223  2.4223 -0.8952 -2.6563
 7556SOL    HW226585   0.249   0.299   6.283 -0.8176  1.6024  0.2766
 7557SOL     OW26586   2.288  10.158   6.220 -0.3965 -0.0589 -0.1062
 7557SOL    HW126587   2.215  10.211   6.189 -0.3345  1.2476  1.8314
 7557SOL    HW226588   2.351  10.160   6.148 -1.5586  0.1522 -1.1637
 7558SOL     OW26589   0.486   4.395   0.557  0.8281  0.0745  0.7761
 7558SOL    HW126590   0.428   4.360   0.489  0.4275  1.4510  0.3769
 7558SOL    HW226591   0.570   4.407   0.514  0.6930  0.5372  0.6396
 7559SOL     OW26592   9.759   3.824   8.124 -0.2837 -0.1613 -0.5865
 7559SOL    HW126593   9.706   3.754   8.085  1.8555 -0.9606 -2.2687
 7559SOL    HW226594   9.798   3.869   8.049  0.2207  1.3842  0.5424
 7560SOL     OW26595   1.169   9.241   4.479  0.3218 -0.3279  0.1961
 7560SOL    HW126596   1.200   9.323   4.516 -0.0560 -0.0510 -0.0966
 7560SOL    HW226597   1.092   9.265   4.428  0.1736 -0.8734  0.1603
 7561SOL     OW26598   2.002   7.750   8.073  0.4256  0.2001  0.2999
 7561SOL    HW126599   1.943   7.677   8.054 -0.4756  0.5116  1.6982
 7561SOL    HW226600   2.079   7.708   8.113  2.3417 -0.4581 -3.5886
 7562SOL     OW26601   2.743   0.783   6.977  0.3440  0.3469  0.3307
 7562SOL    HW126602   2.711   0.839   6.906 -1.5694 -1.8966 -0.7111
 7562SOL    HW226603   2.818   0.831   7.013 -0.4769  3.0061 -1.1841
 7563SOL     OW26604   2.327  10.089   0.589 -0.2196 -0.1481  0.0747
 7563SOL    HW126605   2.275  10.122   0.663 -0.5304  1.7816 -0.9408
 7563SOL    HW226606   2.268  10.097   0.514  0.8213  0.0599 -0.7445
 7564SOL     OW26607   8.359   0.825   7.022 -0.1703  0.3511  0.4786
 7564SOL    HW126608   8.289   0.760   7.013  0.5506 -0.2105 -1.5065
 7564SOL    HW226609   8.436   0.775   7.049  0.0274  0.6174  0.4143
 7565SOL     OW26610   1.916   1.781   3.277 -0.0346 -0.1611 -0.0764
 7565SOL    HW126611   1.851   1.816   3.338 -1.3539 -1.5388 -0.6343
 7565SOL    HW226612   1.878   1.699   3.245  0.1044  0.9549 -3.5157
 7566SOL     OW26613   4.429   7.896  10.008 -0.9099  0.4749 -0.1122
 7566SOL    HW126614   4.521   7.884  10.032 -0.6915 -0.4684 -1.2782
 7566SOL    HW226615   4.394   7.953  10.075  0.7117  1.4455 -0.0294
 7567SOL     OW26616   9.530   2.655   1.488  0.4475  0.2624 -0.2244
 7567SOL    HW126617   9.538   2.576   1.434  1.4480  1.4449 -1.9187
 7567SOL    HW226618   9.448   2.695   1.459 -0.8976 -0.8924  1.7625
 7568SOL     OW26619   6.079   6.947   6.957 -0.1118 -0.5872  0.4560
 7568SOL    HW126620   6.030   6.970   6.878  2.5052 -1.0099 -1.4382
 7568SOL    HW226621   6.017   6.897   7.010 -2.0256 -0.1569 -1.2575
 7569SOL     OW26622   1.032   0.395   5.719  0.0219 -0.3337 -0.1151
 7569SOL    HW126623   1.034   0.355   5.806 -1.4093  0.0215  0.1107
 7569SOL    HW226624   1.006   0.324   5.661  0.8653 -0.5437 -0.2392
 7570SOL     OW26625   4.413   1.037   0.120 -0.3484  0.4522 -0.0045
 7570SOL    HW126626   4.323   1.025   0.089  0.0385 -0.1826 -0.9246
 7570SOL    HW226627   4.467   1.025   0.042  0.7876 -2.8000  1.1113
 7571SOL     OW26628   4.637   4.713   8.931 -0.1347  0.3259  0.5058
 7571SOL    HW126629   4.605   4.623   8.936 -0.6687  0.5271  0.7524
 7571SOL    HW226630   4.726   4.709   8.967 -0.6836  0.1474  1.8975
 7572SOL     OW26631   1.202   6.612   5.538 -0.3932 -0.3092 -0.0527
 7572SOL    HW126632   1.195   6.600   5.633  0.4483  0.8499  0.1807
 7572SOL    HW226633   1.114   6.594   5.505 -0.6681 -0.8388  0.9299
 7573SOL     OW26634   7.596   3.596   5.711  0.4048  0.3972 -0.6738
 7573SOL    HW126635   7.505   3.616   5.733  0.9431  2.1677  0.1640
 7573SOL    HW226636   7.616   3.517   5.761 -0.0843  1.2057  0.9021
 7574SOL     OW26637   3.606   1.343   0.858 -0.5421 -0.1752  0.3579
 7574SOL    HW126638   3.661   1.414   0.890 -2.4301  1.6246 -0.1829
 7574SOL    HW226639   3.548   1.322   0.931  0.6677 -1.9474  0.8730
 7575SOL     OW26640   5.976   0.977   7.388  0.3051 -0.0548  0.4523
 7575SOL    HW126641   6.009   0.941   7.470  0.7141  0.6620  0.6069
 7575SOL    HW226642   5.887   1.006   7.408  0.1096 -0.6180  0.4238
 7576SOL     OW26643   4.295   9.408   8.031 -0.4035  0.0596  0.2988
 7576SOL    HW126644   4.240   9.415   8.109 -1.0331 -0.1612 -0.1067
 7576SOL    HW226645   4.275   9.488   7.981  1.1670  0.9746  1.0726
 7577SOL     OW26646   2.944   6.784   2.890  0.1950 -0.0229 -0.0532
 7577SOL    HW126647   2.961   6.690   2.888 -1.8535 -0.4966  1.3608
 7577SOL    HW226648   2.926   6.808   2.799  1.1646 -0.8861 -0.4896
 7578SOL     OW26649   2.249   6.194   0.279  0.0144  0.6409 -0.0099
 7578SOL    HW126650   2.205   6.209   0.363 -0.3489  0.1822 -0.1130
 7578SOL    HW226651   2.205   6.252   0.218  1.1803  1.9991  0.3798
 7579SOL     OW26652   5.320   2.015   7.125  0.1732 -0.1842  0.1237
 7579SOL    HW126653   5.323   1.997   7.031  1.1643 -0.4428  0.2004
 7579SOL    HW226654   5.392   1.964   7.162  1.0095  1.4032  0.7759
 7580SOL     OW26655   4.498   9.944  10.174  0.0914 -0.0190  0.1251
 7580SOL    HW126656   4.518  10.012  10.110 -0.7217  0.2796  0.1812
 7580SOL    HW226657   4.479   9.866  10.121  1.3467 -0.3054  0.0707
 7581SOL     OW26658   8.350   6.803   5.656  0.1635 -0.1209 -0.3230
 7581SOL    HW126659   8.326   6.895   5.671 -0.8724 -0.6096  1.2092
 7581SOL    HW226660   8.432   6.791   5.704 -1.0018 -0.6094  1.6298
 7582SOL     OW26661   9.497   0.054   3.793  0.2751 -0.0213 -0.5383
 7582SOL    HW126662   9.509  -0.014   3.727 -0.8804 -0.9148  0.1191
 7582SOL    HW226663   9.463   0.129   3.745  2.9832  0.6923 -1.5230
 7583SOL     OW26664   4.998   6.166   3.634 -0.3451  0.2061 -0.2260
 7583SOL    HW126665   4.910   6.127   3.639 -1.1710  2.1067  1.2559
 7583SOL    HW226666   5.012   6.204   3.720  1.4765  0.9435 -0.8118
 7584SOL     OW26667   0.117   0.629   0.889  0.4086 -0.2691 -0.0791
 7584SOL    HW126668   0.087   0.542   0.917  0.0332 -0.6181 -1.4600
 7584SOL    HW226669   0.184   0.654   0.953  0.0494 -1.2857  0.7141
 7585SOL     OW26670   6.822   6.633   3.360 -0.5702  0.1217 -0.5264
 7585SOL    HW126671   6.807   6.557   3.417 -0.1942  0.4277 -0.0035
 7585SOL    HW226672   6.888   6.685   3.407 -1.0519  0.9255 -0.7256
 7586SOL     OW26673   3.924   4.027   6.471  0.2697  0.4195  0.0775
 7586SOL    HW126674   3.979   4.034   6.394 -0.6346 -1.4064 -0.7855
 7586SOL    HW226675   3.854   4.090   6.456 -0.4843 -0.6599 -1.1433
 7587SOL     OW26676   4.800   6.735   9.984  0.0780  0.3166 -0.0963
 7587SOL    HW126677   4.872   6.779   9.939 -0.1279  0.1889 -0.5617
 7587SOL    HW226678   4.722   6.781   9.955 -0.1309 -0.2860 -0.5248
 7588SOL     OW26679   9.286   6.386   8.107 -0.1046  0.3564  0.0215
 7588SOL    HW126680   9.380   6.380   8.124 -0.1621  0.8524  0.5601
 7588SOL    HW226681   9.272   6.332   8.029  0.6533  0.4392 -0.1797
 7589SOL     OW26682   9.240   0.315   9.165 -0.0674 -0.3211 -0.4085
 7589SOL    HW126683   9.306   0.252   9.137 -0.1507 -0.9067  0.6473
 7589SOL    HW226684   9.274   0.400   9.137  1.9992 -0.4142  1.5740
 7590SOL     OW26685   2.096   4.914   9.846  0.1397 -0.4228 -0.1149
 7590SOL    HW126686   2.013   4.890   9.806  0.1239  0.6605 -0.7492
 7590SOL    HW226687   2.126   4.990   9.797 -0.1323  1.2963  2.2086
 7591SOL     OW26688   7.993   9.493   0.255  0.4513  0.3958  0.4608
 7591SOL    HW126689   7.933   9.426   0.224  0.4357  0.0267  1.2496
 7591SOL    HW226690   8.069   9.444   0.287  1.0332  0.8380 -0.2144
 7592SOL     OW26691   0.210   9.100   7.907 -0.1114  0.8804  0.0769
 7592SOL    HW126692   0.194   9.190   7.879 -0.3816  0.2404 -2.0180
 7592SOL    HW226693   0.140   9.049   7.867 -0.3761 -0.2101  1.8036
 7593SOL     OW26694   9.475   8.027   3.819  0.1209  0.1256  0.5433
 7593SOL    HW126695   9.459   7.934   3.831 -0.5666  0.2722  0.8237
 7593SOL    HW226696   9.567   8.033   3.793  0.2516 -0.5986  0.8291
 7594SOL     OW26697   7.452   8.622   8.992  0.4137  0.0021 -0.5511
 7594SOL    HW126698   7.467   8.675   9.071 -0.1295 -1.4296  0.5688
 7594SOL    HW226699   7.461   8.684   8.920  0.3096  1.5052  0.6546
 7595SOL     OW26700   5.936   7.037   6.739  0.2485  0.2722 -0.0493
 7595SOL    HW126701   5.924   6.964   6.678 -0.0718 -0.3021  0.6851
 7595SOL    HW226702   5.866   7.099   6.716 -0.0235 -0.0526 -0.1090
 7596SOL     OW26703   1.821   4.207   4.365  0.1253  0.2000  0.1458
 7596SOL    HW126704   1.882   4.142   4.331  0.1714  0.0085  0.5795
 7596SOL    HW226705   1.736   4.182   4.329 -0.0233 -0.6693  1.0424
 7597SOL     OW26706   0.162   5.483   3.432  0.1142  0.3660 -0.1042
 7597SOL    HW126707   0.241   5.516   3.389 -0.2438  2.3029  0.6182
 7597SOL    HW226708   0.194   5.426   3.502  0.7657 -0.6860 -1.2201
 7598SOL     OW26709   0.387   5.348   0.991  0.0587  0.3067  0.2407
 7598SOL    HW126710   0.462   5.370   1.048  0.1051 -0.9765  0.7180
 7598SOL    HW226711   0.321   5.414   1.011  0.1015 -0.0734  1.7748
 7599SOL     OW26712   8.794   9.845   1.402  0.1464  0.1096  0.2096
 7599SOL    HW126713   8.752   9.855   1.317  3.1333 -2.1597 -1.7378
 7599SOL    HW226714   8.726   9.869   1.465 -2.8201  0.0791 -2.6969
 7600SOL     OW26715   7.479   6.245   5.435  0.9163 -0.0960  0.3524
 7600SOL    HW126716   7.534   6.185   5.486  0.6561  0.4894  1.3654
 7600SOL    HW226717   7.449   6.309   5.500 -0.1592  0.1572 -0.3793
 7601SOL     OW26718   7.727   2.960   7.861  0.2285  0.4582 -0.9522
 7601SOL    HW126719   7.681   2.915   7.790  0.0115  1.3712 -1.4116
 7601SOL    HW226720   7.674   3.039   7.876 -1.5551 -1.1541  2.3573
 7602SOL     OW26721   9.780   2.003   7.665 -0.2613 -0.0998 -0.0594
 7602SOL    HW126722   9.773   1.924   7.611  1.2176 -1.0564  1.0477
 7602SOL    HW226723   9.871   2.030   7.657 -1.0829  2.5493 -1.7252
 7603SOL     OW26724   9.808   5.153   1.807  0.0303 -0.2723 -0.2912
 7603SOL    HW126725   9.721   5.143   1.845 -0.1053  1.1688 -0.1734
 7603SOL    HW226726   9.850   5.068   1.819 -1.8674 -1.4712 -1.6550
 7604SOL     OW26727   4.606   0.615   1.894 -0.1659 -0.2334 -0.6654
 7604SOL    HW126728   4.542   0.654   1.834  0.5321  1.9125 -0.1148
 7604SOL    HW226729   4.680   0.593   1.837  0.4673  1.7344 -0.6866
 7605SOL     OW26730   2.009   3.131   4.182  0.1177 -0.2702  0.5740
 7605SOL    HW126731   2.056   3.132   4.099  0.0354  0.6702  0.5215
 7605SOL    HW226732   2.064   3.183   4.241  0.8400 -2.0119  1.5038
 7606SOL     OW26733   4.880   9.833   7.630  0.0096 -0.4960  1.2983
 7606SOL    HW126734   4.927   9.894   7.574 -1.4432 -0.8271 -0.3638
 7606SOL    HW226735   4.787   9.850   7.613 -0.4537 -2.0438  2.0303
 7607SOL     OW26736   9.218   6.048   4.340  0.1035  0.1593 -0.2613
 7607SOL    HW126737   9.128   6.077   4.350  0.3002  0.8652 -0.4805
 7607SOL    HW226738   9.216   5.990   4.263 -0.3636 -0.7666  0.4328
 7608SOL     OW26739   3.293   7.942   5.253 -0.3306  0.5054 -0.4883
 7608SOL    HW126740   3.344   7.863   5.236  0.8141  0.9959  0.5285
 7608SOL    HW226741   3.208   7.911   5.283  0.7873 -0.4067  1.9606
 7609SOL     OW26742   5.110   4.270   7.463  0.9404  0.3066  0.1865
 7609SOL    HW126743   5.091   4.363   7.463 -0.4299  0.1347 -3.0374
 7609SOL    HW226744   5.025   4.227   7.455  1.7371 -1.0142 -2.1992
 7610SOL     OW26745   3.886   1.380   0.041  0.7209 -0.2249  0.1946
 7610SOL    HW126746   3.862   1.318  -0.028 -1.4063  1.3189 -0.5600
 7610SOL    HW226747   3.861   1.465   0.005  1.2308  0.8075  2.1869
 7611SOL     OW26748   0.193   3.907   9.865 -0.0709  0.2162  0.2349
 7611SOL    HW126749   0.177   3.853   9.943  1.7799 -1.2405 -0.3018
 7611SOL    HW226750   0.133   3.872   9.799 -1.6693  1.4762  0.9572
 7612SOL     OW26751   2.652   2.686   5.638  0.3120 -0.0114  0.1664
 7612SOL    HW126752   2.740   2.693   5.601 -0.4466 -0.4345 -1.8195
 7612SOL    HW226753   2.604   2.760   5.600 -0.7148 -0.9216 -0.3624
 7613SOL     OW26754   4.506   9.345   1.725 -0.3730 -0.2279  0.6166
 7613SOL    HW126755   4.585   9.363   1.674  0.6421 -1.2562  1.7527
 7613SOL    HW226756   4.454   9.288   1.669 -0.0267 -0.0593  0.1067
 7614SOL     OW26757   4.051   0.910   2.387  0.6358 -0.0428 -0.0309
 7614SOL    HW126758   3.982   0.972   2.365 -1.3451 -1.7721  1.0136
 7614SOL    HW226759   4.094   0.892   2.303 -0.1042  1.1185 -0.6994
 7615SOL     OW26760   5.299   2.813   5.129  0.0013 -0.1320 -0.4595
 7615SOL    HW126761   5.388   2.790   5.155  0.3162  0.3002 -1.1104
 7615SOL    HW226762   5.310   2.888   5.070 -0.6113 -1.3937 -2.2802
 7616SOL     OW26763   7.254   8.671   0.801  0.4979  0.0556  0.2786
 7616SOL    HW126764   7.232   8.632   0.716 -1.7163 -0.5041  1.0381
 7616SOL    HW226765   7.222   8.761   0.795 -0.5288 -0.2556  0.8004
 7617SOL     OW26766   7.203   8.244   5.468 -0.6155  0.3267  0.2788
 7617SOL    HW126767   7.144   8.203   5.531 -1.8729 -0.0960 -1.1148
 7617SOL    HW226768   7.291   8.218   5.496 -1.2114 -0.8236  1.1612
 7618SOL     OW26769   8.568   5.031   1.776  0.8077  0.2225 -0.0537
 7618SOL    HW126770   8.525   4.945   1.775  0.4770  0.3295  1.5496
 7618SOL    HW226771   8.662   5.011   1.778  0.7829 -0.0588 -1.3792
 7619SOL     OW26772   2.864   7.827   6.348 -0.0142 -0.2366  0.3627
 7619SOL    HW126773   2.872   7.801   6.440  1.0047 -0.5806  0.1931
 7619SOL    HW226774   2.798   7.769   6.312  0.4724 -0.9463  0.5886
 7620SOL     OW26775   3.398   0.399   4.058 -0.1641  0.4511  0.3357
 7620SOL    HW126776   3.377   0.461   4.128 -0.1525 -0.5463  1.2669
 7620SOL    HW226777   3.489   0.418   4.036 -0.6567  1.8787 -0.6178
 7621SOL     OW26778   9.169   2.228   0.545 -0.0593 -0.5108  0.0827
 7621SOL    HW126779   9.099   2.277   0.589 -0.7936 -2.2176  0.9121
 7621SOL    HW226780   9.216   2.184   0.616  1.8284  0.5021 -0.4781
 7622SOL     OW26781   6.455   1.988   4.895 -0.2600  0.3671 -0.1638
 7622SOL    HW126782   6.491   1.950   4.976  2.1360  0.7601 -0.9684
 7622SOL    HW226783   6.431   2.077   4.919 -1.3283 -0.0984  0.5504
 7623SOL     OW26784   8.074   5.758   6.108 -0.4782  0.0078 -0.2932
 7623SOL    HW126785   8.074   5.738   6.015  0.7238 -0.5580 -0.1849
 7623SOL    HW226786   8.035   5.846   6.114  2.1375  1.3818 -1.6587
 7624SOL     OW26787   7.838   7.056   0.685  0.5245  0.0632  0.4116
 7624SOL    HW126788   7.806   6.973   0.719  0.1604  0.0142 -0.0425
 7624SOL    HW226789   7.761   7.112   0.678  0.7552  0.4192  0.6503
 7625SOL     OW26790   7.982  10.098   0.702  0.6735  0.1122  0.1663
 7625SOL    HW126791   7.984  10.136   0.614  0.3283 -0.0092  0.1013
 7625SOL    HW226792   8.065  10.053   0.712  0.7037  0.1101 -0.1070
 7626SOL     OW26793   5.307   4.316   7.095 -0.0142 -0.1565  0.2185
 7626SOL    HW126794   5.383   4.257   7.089 -0.0623 -0.0997 -1.3409
 7626SOL    HW226795   5.336   4.387   7.152  1.0900 -0.1961 -0.2635
 7627SOL     OW26796   8.061   3.475   5.378  0.2097 -0.3039 -0.3556
 7627SOL    HW126797   8.065   3.533   5.454  1.9083  0.7816 -1.2085
 7627SOL    HW226798   8.019   3.527   5.310  1.8185  0.0147 -1.1531
 7628SOL     OW26799   2.213   0.631   4.842 -0.6198 -0.0806  0.0506
 7628SOL    HW126800   2.229   0.720   4.810 -0.4300  0.1984  0.8957
 7628SOL    HW226801   2.119   0.618   4.830 -1.2196  1.3058  2.4674
 7629SOL     OW26802   2.713   7.354   2.715 -0.2727  0.4461 -0.0910
 7629SOL    HW126803   2.777   7.379   2.648  1.1380 -1.8798  0.2606
 7629SOL    HW226804   2.750   7.387   2.797  1.2203 -1.8413  0.2736
 7630SOL     OW26805   1.188   5.865   3.353  0.0332  0.1689 -0.2942
 7630SOL    HW126806   1.150   5.838   3.269 -3.2038 -1.1075  1.4395
 7630SOL    HW226807   1.196   5.960   3.345 -1.9268  0.2961 -1.4369
 7631SOL     OW26808   3.644   0.725   1.092 -0.0124  0.0091  0.2903
 7631SOL    HW126809   3.633   0.817   1.117 -2.0582  0.1851 -1.0119
 7631SOL    HW226810   3.562   0.684   1.117  0.9412 -1.5538  1.0032
 7632SOL     OW26811   4.773   8.240   0.116 -0.0830  0.0511  0.6386
 7632SOL    HW126812   4.687   8.276   0.136  0.6066  2.9600 -1.0399
 7632SOL    HW226813   4.819   8.311   0.072  1.8912 -2.5720 -1.9196
 7633SOL     OW26814   9.098   7.590   6.355 -0.3565 -0.5023 -0.3623
 7633SOL    HW126815   9.006   7.605   6.334 -0.3328 -0.7159 -0.6290
 7633SOL    HW226816   9.107   7.495   6.359 -0.8114 -0.5020  2.7270
 7634SOL     OW26817   2.626   6.361   6.001  0.2395 -0.3609  0.0638
 7634SOL    HW126818   2.606   6.418   5.927 -0.1363  0.2320  0.6167
 7634SOL    HW226819   2.704   6.400   6.040 -0.5693  0.3488  1.0150
 7635SOL     OW26820   2.929   9.427   7.316  1.0564  0.2280 -0.3371
 7635SOL    HW126821   2.929   9.509   7.366  1.3593  0.8474 -1.3412
 7635SOL    HW226822   2.901   9.361   7.380  1.0092  1.0700  0.5402
 7636SOL     OW26823   5.187   0.594   1.473  0.0039  0.7561 -0.0692
 7636SOL    HW126824   5.140   0.584   1.556 -1.8658 -1.5107 -1.2821
 7636SOL    HW226825   5.128   0.644   1.417  0.5621  0.9151 -0.5266
 7637SOL     OW26826   0.387   1.754   8.687 -0.0337  0.4121 -0.2719
 7637SOL    HW126827   0.361   1.661   8.689  3.0970 -0.5843  1.8162
 7637SOL    HW226828   0.332   1.796   8.753 -0.6469 -0.2253 -0.3665
 7638SOL     OW26829   5.549   1.991   6.107  0.4100 -0.3624  0.4939
 7638SOL    HW126830   5.601   1.921   6.147 -1.1874 -1.0921  1.4154
 7638SOL    HW226831   5.458   1.965   6.123 -0.2424  1.6929  0.4345
 7639SOL     OW26832   4.493   2.017   0.697  0.6101  0.0791  0.1820
 7639SOL    HW126833   4.476   2.111   0.698  0.1992  0.0186 -0.5093
 7639SOL    HW226834   4.478   1.989   0.788 -0.3476  0.5005  0.1707
 7640SOL     OW26835   3.515   6.121   5.476 -0.5142  0.3642  0.8335
 7640SOL    HW126836   3.450   6.101   5.544 -0.6134  1.6603  1.1600
 7640SOL    HW226837   3.590   6.067   5.498 -0.9072  0.0264  1.3971
 7641SOL     OW26838   5.505   8.549   3.705 -0.0898 -0.1066  0.0725
 7641SOL    HW126839   5.547   8.498   3.775 -1.2849  0.9879  1.6620
 7641SOL    HW226840   5.448   8.610   3.751 -1.7697 -0.0662 -1.9266
 7642SOL     OW26841   7.818   4.665   8.244 -0.8318 -0.3290  0.1421
 7642SOL    HW126842   7.827   4.643   8.151 -0.1855 -0.3402  0.2018
 7642SOL    HW226843   7.745   4.727   8.247 -0.3660  0.2624 -0.4718
 7643SOL     OW26844   9.837   1.233   4.237  0.0886 -0.4346  0.4278
 7643SOL    HW126845   9.914   1.203   4.286  0.6550  2.2812  1.3931
 7643SOL    HW226846   9.866   1.314   4.195 -2.1520  0.5473  0.6333
 7644SOL     OW26847   3.124   6.047   8.842 -0.1601  0.6747  0.7040
 7644SOL    HW126848   3.214   6.076   8.856  0.5990 -0.3889 -1.4950
 7644SOL    HW226849   3.095   6.096   8.765 -1.1257  0.2760  0.8030
 7645SOL     OW26850   6.207   5.954   3.656  0.5377 -0.0141  0.7472
 7645SOL    HW126851   6.150   5.879   3.673  1.3117 -0.6883  0.4434
 7645SOL    HW226852   6.295   5.918   3.661  0.8924  0.5987 -0.6568
 7646SOL     OW26853   3.959   7.844   1.514 -0.1202  0.1320  0.3838
 7646SOL    HW126854   3.933   7.909   1.448 -0.3706  0.1393  0.4903
 7646SOL    HW226855   3.926   7.879   1.597 -0.6426 -0.3452  0.3833
 7647SOL     OW26856   8.334   1.263   2.295  0.4870 -0.7354 -0.5256
 7647SOL    HW126857   8.340   1.289   2.387 -0.2040 -0.6307 -0.5060
 7647SOL    HW226858   8.407   1.203   2.283  0.9665 -0.2590 -0.0751
 7648SOL     OW26859   7.026   8.117   3.411  0.4291 -0.3703  0.0862
 7648SOL    HW126860   6.958   8.131   3.346  0.7435 -2.2602 -0.7132
 7648SOL    HW226861   7.091   8.184   3.392 -0.9993  1.2291  0.6393
 7649SOL     OW26862   2.005   2.274   6.333 -0.0437 -0.4244 -0.4298
 7649SOL    HW126863   2.080   2.252   6.278  0.5406 -0.9305  0.5322
 7649SOL    HW226864   1.945   2.321   6.275  2.7204  3.7289 -0.3766
 7650SOL     OW26865   0.722   2.940   1.843  0.2927  0.5509  0.9370
 7650SOL    HW126866   0.782   3.014   1.851  0.9308  0.2551 -0.6676
 7650SOL    HW226867   0.778   2.863   1.856 -0.3499  0.3204  2.5114
 7651SOL     OW26868   9.482   4.879   7.384 -0.7522 -0.2281 -0.0317
 7651SOL    HW126869   9.558   4.917   7.341  0.2770 -0.7312  1.2698
 7651SOL    HW226870   9.439   4.827   7.316 -0.0762  0.2580 -0.8417
 7652SOL     OW26871   6.600   2.497   4.892  0.5760 -0.1440  0.2870
 7652SOL    HW126872   6.643   2.433   4.835  1.1476 -0.7130  1.3266
 7652SOL    HW226873   6.587   2.573   4.836  1.3887 -0.5828 -0.5347
 7653SOL     OW26874   6.116   5.806   2.447 -0.3126 -0.6188  0.5697
 7653SOL    HW126875   6.054   5.733   2.445 -0.3675 -0.5480 -1.2019
 7653SOL    HW226876   6.078   5.872   2.389  0.3140  0.3695  1.2379
 7654SOL     OW26877   8.590   1.136   0.134  0.0037 -0.1189 -0.3409
 7654SOL    HW126878   8.501   1.145   0.168 -0.8998 -1.5862 -2.1104
 7654SOL    HW226879   8.618   1.050   0.166  0.7571  0.2840  0.0967
 7655SOL     OW26880   2.054   3.096   1.462  0.4395 -0.0400  0.2320
 7655SOL    HW126881   2.063   3.004   1.488 -0.2954 -0.4102 -0.7914
 7655SOL    HW226882   2.137   3.136   1.489  0.1456 -0.6158  2.1565
 7656SOL     OW26883   5.872   6.328   2.777 -0.4839  0.4395 -0.6842
 7656SOL    HW126884   5.851   6.279   2.697 -0.0261  0.7758 -1.0188
 7656SOL    HW226885   5.794   6.381   2.794 -1.3173 -0.9807  0.1477
 7657SOL     OW26886   5.444   3.065   3.309  0.4057 -0.1199 -0.2519
 7657SOL    HW126887   5.411   3.024   3.228  2.4304 -1.0731 -0.6459
 7657SOL    HW226888   5.460   3.156   3.284 -0.2032 -0.0813 -0.5419
 7658SOL     OW26889   0.222   9.263   5.501  0.0809  0.6619 -0.0505
 7658SOL    HW126890   0.288   9.214   5.550  0.4049 -0.1222 -1.2351
 7658SOL    HW226891   0.143   9.258   5.556  0.6452  0.5275  0.7792
 7659SOL     OW26892   9.529   7.925   6.575 -0.3695  0.2205  0.0857
 7659SOL    HW126893   9.583   7.945   6.499 -0.0128  0.2454  0.3449
 7659SOL    HW226894   9.571   7.849   6.616  0.3148  1.1213  1.1100
 7660SOL     OW26895   0.171   4.948   3.140  0.0502 -0.0031  0.2448
 7660SOL    HW126896   0.253   4.899   3.140 -0.1455 -0.3356  1.0588
 7660SOL    HW226897   0.196   5.037   3.166  0.1886 -0.0342  0.2196
 7661SOL     OW26898   9.636   0.892   1.188 -0.3668 -0.3787  0.2519
 7661SOL    HW126899   9.591   0.966   1.147  1.1502  0.1229 -0.5570
 7661SOL    HW226900   9.724   0.924   1.206 -0.3401 -1.2787  1.9900
 7662SOL     OW26901   0.994   2.269   6.704  0.0758  0.2475 -0.3546
 7662SOL    HW126902   0.948   2.185   6.697  1.0386 -0.2725 -0.5076
 7662SOL    HW226903   0.945   2.327   6.645 -0.1118 -0.4236 -0.8750
 7663SOL     OW26904   4.396   3.279   7.090  0.7090  0.1943 -0.1162
 7663SOL    HW126905   4.330   3.329   7.043  1.6007  1.8004  0.2686
 7663SOL    HW226906   4.479   3.308   7.053  1.2888 -0.5278  0.5801
 7664SOL     OW26907   2.981   6.905   0.400  0.1788  0.1733  0.2260
 7664SOL    HW126908   2.895   6.900   0.442  0.2773 -0.3564  0.3730
 7664SOL    HW226909   2.981   6.831   0.339  1.1768 -0.8557  1.4425
 7665SOL     OW26910   3.382   4.184   6.096  0.2486 -0.3367  0.1501
 7665SOL    HW126911   3.423   4.189   6.010 -0.1712 -0.0674 -0.0393
 7665SOL    HW226912   3.369   4.276   6.122  0.2597 -0.4164  0.4470
 7666SOL     OW26913   0.650   0.392   0.004  0.3587  0.2973 -0.2312
 7666SOL    HW126914   0.579   0.332   0.025  0.3572  0.5415  0.5053
 7666SOL    HW226915   0.713   0.340  -0.046  0.9729 -0.6874  1.4950
 7667SOL     OW26916   7.443   7.363   1.479 -0.3319 -0.4447  0.6193
 7667SOL    HW126917   7.486   7.447   1.495 -0.7813 -0.1316  0.2058
 7667SOL    HW226918   7.350   7.380   1.494 -0.7027 -0.2936 -1.5702
 7668SOL     OW26919   2.613   7.898   8.899  0.0632  0.0764  0.2942
 7668SOL    HW126920   2.682   7.907   8.965  0.0144 -1.0256  0.5101
 7668SOL    HW226921   2.537   7.941   8.939 -0.3025 -1.5704  1.4957
 7669SOL     OW26922  10.119   6.338   2.300  0.5422  0.0493  0.5779
 7669SOL    HW126923  10.025   6.320   2.295  0.6474 -0.7588  1.1785
 7669SOL    HW226924  10.127   6.407   2.365  0.4793 -1.1309  1.8879
 7670SOL     OW26925   3.206   7.207   3.786 -0.8826  0.5077  0.1109
 7670SOL    HW126926   3.263   7.283   3.781 -0.9884  0.5256 -1.3236
 7670SOL    HW226927   3.119   7.243   3.804 -1.1371  0.8701 -1.6391
 7671SOL     OW26928   9.495   2.796   0.909 -0.1101 -0.4899  0.1449
 7671SOL    HW126929   9.431   2.806   0.839 -0.6055  1.1918  0.7890
 7671SOL    HW226930   9.573   2.842   0.878 -0.5786  0.9146  0.9506
 7672SOL     OW26931   2.570   1.646   2.214  0.0612 -0.2382  0.3307
 7672SOL    HW126932   2.488   1.600   2.196 -0.4729  0.7700  0.1327
 7672SOL    HW226933   2.557   1.687   2.299  0.0913  0.4968 -0.0093
 7673SOL     OW26934   1.427   6.047   3.560 -0.8146 -0.3254 -0.3989
 7673SOL    HW126935   1.379   6.070   3.481 -2.2199 -1.4700  0.0838
 7673SOL    HW226936   1.401   5.957   3.579  1.4684 -0.9837 -0.0437
 7674SOL     OW26937   3.436   1.054   7.901 -0.6813  0.3050 -0.0753
 7674SOL    HW126938   3.348   1.064   7.865 -0.9758 -1.7385 -0.0032
 7674SOL    HW226939   3.422   1.019   7.989  0.1083  3.4993  1.4915
 7675SOL     OW26940   9.360   7.240   9.272  0.6322 -0.0151 -0.5172
 7675SOL    HW126941   9.316   7.316   9.311  1.5946  1.6058 -2.4019
 7675SOL    HW226942   9.441   7.231   9.322  0.0120 -0.5358  0.4241
 7676SOL     OW26943   9.799   4.349   8.028  0.6854 -0.0833 -0.1790
 7676SOL    HW126944   9.781   4.406   7.953  2.3053  2.6753  1.3347
 7676SOL    HW226945   9.714   4.330   8.066  0.0916  1.8457 -0.4589
 7677SOL     OW26946   3.197   2.936   6.603 -0.5400 -0.3998 -0.2648
 7677SOL    HW126947   3.133   3.000   6.572 -0.8541 -0.7962 -0.4452
 7677SOL    HW226948   3.155   2.897   6.680  1.1770  2.2376  2.1993
 7678SOL     OW26949   9.475   8.264   9.714 -0.3021 -0.5433 -0.4780
 7678SOL    HW126950   9.523   8.197   9.667  0.5170 -0.2495 -0.0818
 7678SOL    HW226951   9.507   8.258   9.804 -0.8684 -0.2125 -0.2455
 7679SOL     OW26952   5.422   7.219   8.163  1.0647 -0.2759  0.0771
 7679SOL    HW126953   5.510   7.229   8.199  0.8668 -1.1431  0.8501
 7679SOL    HW226954   5.365   7.258   8.230  0.8285 -0.1564 -0.1933
 7680SOL     OW26955   0.151   0.363   7.714 -0.2726  0.3866  0.4009
 7680SOL    HW126956   0.095   0.438   7.736 -1.2082  0.5506 -2.1532
 7680SOL    HW226957   0.119   0.334   7.628  2.2492 -0.8454 -0.2098
 7681SOL     OW26958   1.621   5.612   9.760 -0.0608  0.3535  0.4246
 7681SOL    HW126959   1.695   5.585   9.706 -0.4682  0.2110 -0.0684
 7681SOL    HW226960   1.645   5.698   9.794 -0.0426  0.7017 -0.4487
 7682SOL     OW26961   4.488   2.731   6.987  0.5064 -0.0363 -0.3947
 7682SOL    HW126962   4.505   2.801   6.924 -0.6832  0.8630  0.2494
 7682SOL    HW226963   4.516   2.767   7.071 -1.7008  0.3776  0.2288
 7683SOL     OW26964   4.889   1.901   2.190 -1.0977 -0.0346  0.1745
 7683SOL    HW126965   4.924   1.987   2.169  2.0349 -1.3421 -0.5895
 7683SOL    HW226966   4.875   1.859   2.105  2.5237 -2.0234  0.3652
 7684SOL     OW26967   9.706   9.384   3.797  0.0317  0.0621  0.6009
 7684SOL    HW126968   9.760   9.400   3.874  0.1409 -0.6485  0.6823
 7684SOL    HW226969   9.717   9.290   3.779  2.7885  0.7326 -2.2946
 7685SOL     OW26970   6.108   3.226   4.325  0.1143 -0.4378 -0.5588
 7685SOL    HW126971   6.114   3.159   4.393  1.2063 -0.2200 -0.4328
 7685SOL    HW226972   6.052   3.294   4.363  0.6435 -0.3580  0.0920
 7686SOL     OW26973   7.847   2.754   3.991  0.2410 -0.7276  0.5473
 7686SOL    HW126974   7.886   2.720   3.911  0.4346  1.2624 -0.2817
 7686SOL    HW226975   7.755   2.770   3.968  0.3688  0.1344  0.6093
 7687SOL     OW26976   4.240   4.269   5.486 -0.0329  0.2085 -0.1260
 7687SOL    HW126977   4.289   4.230   5.558 -1.4362 -0.2536  0.6051
 7687SOL    HW226978   4.209   4.353   5.520 -0.3682  0.1675 -0.3212
 7688SOL     OW26979   5.951   9.231   8.910  0.0024 -0.1181 -0.1981
 7688SOL    HW126980   5.888   9.193   8.972 -0.5737  1.3712  0.1593
 7688SOL    HW226981   5.996   9.299   8.960  1.8945 -1.1235 -0.4680
 7689SOL     OW26982   3.114   8.843   5.705  0.1905  0.7266  0.3386
 7689SOL    HW126983   3.193   8.806   5.664 -0.4896  1.1964 -1.5026
 7689SOL    HW226984   3.051   8.772   5.703 -0.0502  0.9467 -0.0621
 7690SOL     OW26985   1.116   3.028   7.406  0.5665 -0.0601 -0.1138
 7690SOL    HW126986   1.192   3.083   7.420 -0.1202  0.7430  0.5831
 7690SOL    HW226987   1.072   3.025   7.491 -0.0948 -0.6308 -0.4651
 7691SOL     OW26988   8.343  10.129   8.167  0.1280 -0.2173  0.2517
 7691SOL    HW126989   8.375  10.039   8.153 -0.4715 -0.3815 -0.0700
 7691SOL    HW226990   8.405  10.165   8.231  1.0891 -0.4547 -0.5118
 7692SOL     OW26991   3.214   3.943   4.602  0.2416  0.6330 -0.4269
 7692SOL    HW126992   3.217   3.849   4.582 -0.3330  0.6886 -0.7866
 7692SOL    HW226993   3.192   3.985   4.518 -0.9802  0.9685  0.0433
 7693SOL     OW26994   5.489   4.240   2.356  0.1494  0.5627  0.3532
 7693SOL    HW126995   5.583   4.242   2.375 -0.0384 -0.3449  1.4730
 7693SOL    HW226996   5.455   4.321   2.392  0.2483  0.1277  1.4491
 7694SOL     OW26997   5.093   2.758   1.794 -0.0180 -0.5351  0.4145
 7694SOL    HW126998   5.167   2.817   1.808  0.1098 -0.7461  0.6330
 7694SOL    HW226999   5.019   2.816   1.779 -0.1284 -0.2961  1.7819
 7695SOL     OW27000   7.555   3.696   7.785  0.2157  0.0072  0.4163
 7695SOL    HW127001   7.532   3.779   7.742  1.1450  0.5694  0.9823
 7695SOL    HW227002   7.558   3.717   7.878  0.5520 -0.6492  0.5578
 7696SOL     OW27003   1.229   7.936   8.560  0.3148 -0.0596 -0.3222
 7696SOL    HW127004   1.243   7.878   8.486 -2.4557 -0.4115 -0.6506
 7696SOL    HW227005   1.175   7.886   8.621 -1.3469  1.7807 -0.1889
 7697SOL     OW27006   3.830   3.058   6.939  0.1681  0.0820  0.2990
 7697SOL    HW127007   3.890   3.129   6.962 -0.8717  0.6303  1.4093
 7697SOL    HW227008   3.744   3.099   6.938 -0.2082 -0.6595 -1.4240
 7698SOL     OW27009   5.716   5.998   5.592 -0.7859  0.4593 -0.2221
 7698SOL    HW127010   5.745   6.015   5.502 -1.7659  2.7010 -0.1650
 7698SOL    HW227011   5.790   5.950   5.632  0.5934  1.3723 -1.5766
 7699SOL     OW27012   3.621   8.886   0.143 -0.2309 -0.1648 -0.1573
 7699SOL    HW127013   3.660   8.890   0.055 -0.5325 -1.3727 -0.3695
 7699SOL    HW227014   3.696   8.884   0.202  0.0553 -1.9018 -0.5308
 7700SOL     OW27015   5.409   6.317   0.793  0.0979 -0.4512 -0.2849
 7700SOL    HW127016   5.487   6.323   0.737 -0.0900  0.9841 -0.4345
 7700SOL    HW227017   5.444   6.297   0.880  0.5500 -0.8151 -0.5446
 7701SOL     OW27018   1.561   4.904   5.241 -0.3009 -0.7627  0.0438
 7701SOL    HW127019   1.623   4.834   5.259  0.5742  0.0008  0.0763
 7701SOL    HW227020   1.600   4.954   5.170 -0.0449  0.7026  1.1484
 7702SOL     OW27021   9.248   1.067   8.565 -0.6578 -0.4481 -0.3349
 7702SOL    HW127022   9.194   1.037   8.492 -0.0280  1.1705 -1.5237
 7702SOL    HW227023   9.334   1.083   8.525  0.6163 -2.4308  1.3861
 7703SOL     OW27024   0.979   3.382   1.863  0.2061  0.2302  0.1184
 7703SOL    HW127025   1.048   3.447   1.880  2.1286 -1.0802 -2.1386
 7703SOL    HW227026   0.902   3.435   1.842  0.5669  1.7495  2.2157
 7704SOL     OW27027   2.899   5.844   5.307  0.2412 -0.0162  0.2900
 7704SOL    HW127028   2.889   5.870   5.215  0.9954  1.0187  0.4896
 7704SOL    HW227029   2.824   5.787   5.323 -0.7200  0.9476 -0.5633
 7705SOL     OW27030   5.387   4.160   8.263  0.4112 -0.0812  0.1809
 7705SOL    HW127031   5.473   4.200   8.275  0.3310 -0.3552  1.9985
 7705SOL    HW227032   5.390   4.081   8.317 -0.5789 -0.7582 -0.7141
 7706SOL     OW27033   7.958   0.010   5.962  0.5835  0.2127  0.1159
 7706SOL    HW127034   8.022   0.079   5.944  2.0500 -0.5125  2.1824
 7706SOL    HW227035   7.956  -0.041   5.881  2.0989  0.6742 -0.2569
 7707SOL     OW27036   2.097   2.497   3.980 -1.0599  0.5376  0.2151
 7707SOL    HW127037   2.015   2.523   4.021 -1.3649  0.5380 -0.3836
 7707SOL    HW227038   2.074   2.423   3.924 -1.1147  1.9529 -1.7213
 7708SOL     OW27039   7.870   9.286   3.243  0.4115 -0.3355 -0.2690
 7708SOL    HW127040   7.897   9.339   3.318 -0.8254  1.4422 -0.9938
 7708SOL    HW227041   7.907   9.332   3.167  1.6909 -2.1265 -0.8106
 7709SOL     OW27042   0.099   1.948   4.604 -0.5044  0.0229  0.2950
 7709SOL    HW127043   0.154   2.000   4.547 -0.9713 -0.4500 -0.6041
 7709SOL    HW227044   0.017   1.937   4.556 -0.2441 -1.9706  0.1960
 7710SOL     OW27045   3.763   4.969   1.264 -0.1542  0.0586 -0.4805
 7710SOL    HW127046   3.822   4.985   1.190 -0.2089 -1.0015 -0.7680
 7710SOL    HW227047   3.703   5.044   1.264 -0.3555 -0.0827 -1.7041
 7711SOL     OW27048   0.013   1.169   2.513  0.5679 -0.1832 -0.2324
 7711SOL    HW127049   0.042   1.180   2.604  0.3320  2.5469 -0.4160
 7711SOL    HW227050   0.066   1.097   2.480  1.8863 -0.1104  1.5738
 7712SOL     OW27051   1.865   2.989   1.721 -1.3294  0.0248 -0.1774
 7712SOL    HW127052   1.945   2.965   1.676 -1.2220  0.2776 -0.1251
 7712SOL    HW227053   1.809   2.912   1.715 -1.2775  0.0241 -0.6534
 7713SOL     OW27054   3.657   2.936   2.505 -0.4332  0.3381  0.3546
 7713SOL    HW127055   3.707   2.981   2.574  1.1627 -0.3290 -0.3254
 7713SOL    HW227056   3.594   3.001   2.475 -0.6031  0.9161  1.8566
 7714SOL     OW27057   3.815   7.605   9.965  0.3890 -0.2938  0.2602
 7714SOL    HW127058   3.745   7.566  10.017 -1.1380  1.0802 -0.6825
 7714SOL    HW227059   3.877   7.640  10.030  1.8558 -4.0747  1.1617
 7715SOL     OW27060   9.348   9.573   5.288 -0.3173 -0.3238 -0.1891
 7715SOL    HW127061   9.325   9.528   5.370  0.3892 -0.0831  0.1527
 7715SOL    HW227062   9.431   9.534   5.262  0.6509  1.2059  0.4692
 7716SOL     OW27063   6.640   1.890   2.459  0.2350 -0.0630 -0.2708
 7716SOL    HW127064   6.652   1.803   2.497 -1.1926  0.1386  0.7263
 7716SOL    HW227065   6.586   1.875   2.381 -1.6874  0.0607  0.9545
 7717SOL     OW27066   6.976   8.669   8.415 -0.2651 -0.5790 -0.1529
 7717SOL    HW127067   6.919   8.729   8.367  0.5375 -0.4190 -0.9275
 7717SOL    HW227068   6.960   8.584   8.374 -1.0222 -0.8212  0.6069
 7718SOL     OW27069   3.550   9.455   6.203 -0.2508  0.0610 -0.2514
 7718SOL    HW127070   3.627   9.443   6.258 -1.0845 -0.4421  0.8513
 7718SOL    HW227071   3.555   9.384   6.139 -0.4339 -0.7392  0.5961
 7719SOL     OW27072   2.041   7.021   1.159 -0.2123  0.3132 -0.3165
 7719SOL    HW127073   2.124   6.995   1.119 -0.8433  0.2889 -1.6489
 7719SOL    HW227074   2.044   6.982   1.247  1.1757  0.3192 -0.3431
 7720SOL     OW27075   9.725   6.788   2.287 -0.3338 -0.0891 -0.3883
 7720SOL    HW127076   9.634   6.816   2.288 -0.4063 -0.3379  0.8396
 7720SOL    HW227077   9.773   6.859   2.329 -0.3471 -1.1274  1.5000
 7721SOL     OW27078   8.994   6.094   5.028  0.7048 -0.2252  0.3971
 7721SOL    HW127079   9.061   6.055   5.083 -0.1324 -0.1343  1.5175
 7721SOL    HW227080   8.959   6.021   4.977  1.8666 -0.2136 -0.4587
 7722SOL     OW27081   5.262   1.407   9.204 -0.1675 -0.0165  0.1991
 7722SOL    HW127082   5.198   1.336   9.201  0.9467 -1.0452  0.4640
 7722SOL    HW227083   5.253   1.451   9.120 -2.2686  0.8193  0.7719
 7723SOL     OW27084   2.434   8.491   0.136  0.0885 -0.5307 -0.0507
 7723SOL    HW127085   2.389   8.433   0.076  0.2990 -0.8469  0.0928
 7723SOL    HW227086   2.365   8.541   0.179 -0.2736 -2.1792  1.3907
 7724SOL     OW27087   6.923   8.994   4.115  0.7349 -0.5467  0.0736
 7724SOL    HW127088   6.833   8.977   4.145  1.3807 -0.9662  1.9410
 7724SOL    HW227089   6.971   8.916   4.140  1.7444 -0.0803 -0.3703
 7725SOL     OW27090   9.102   7.505  10.207  0.0621 -0.7473  0.0641
 7725SOL    HW127091   9.046   7.538  10.137  0.2445 -0.2620  0.1480
 7725SOL    HW227092   9.106   7.410  10.191 -0.5289 -0.7465 -0.1210
 7726SOL     OW27093   9.786   0.601   1.429  0.2910 -0.3957 -0.1500
 7726SOL    HW127094   9.749   0.687   1.445 -0.1855 -0.3747 -1.2513
 7726SOL    HW227095   9.779   0.555   1.513 -1.2276 -0.0152 -0.0485
 7727SOL     OW27096   3.989   4.539   0.034  0.5642  0.2780  0.0347
 7727SOL    HW127097   3.982   4.567  -0.058 -2.4899  2.1375  0.6840
 7727SOL    HW227098   4.003   4.444   0.029 -0.1407  0.2301 -2.3804
 7728SOL     OW27099   1.954   7.865   6.222 -0.0177  0.2826 -0.2333
 7728SOL    HW127100   2.018   7.794   6.226  0.4174  0.7143  1.3883
 7728SOL    HW227101   1.876   7.825   6.183 -0.1123 -1.3951  1.4978
 7729SOL     OW27102   1.898   5.659   5.362  0.0305  0.0379  0.2690
 7729SOL    HW127103   1.918   5.750   5.383  0.7757 -0.3629  1.4943
 7729SOL    HW227104   1.815   5.642   5.406 -0.5953  0.3815 -0.7671
 7730SOL     OW27105   9.615   3.210   3.953 -0.0297  0.4554 -0.1332
 7730SOL    HW127106   9.591   3.124   3.918  0.4314  0.6940 -1.0618
 7730SOL    HW227107   9.681   3.243   3.893 -1.2345  2.0785 -0.6471
 7731SOL     OW27108   1.943   5.424   1.329 -0.6233 -0.8374 -0.2486
 7731SOL    HW127109   2.038   5.428   1.320 -0.6333  0.6515  0.0397
 7731SOL    HW227110   1.930   5.394   1.419 -0.3869  0.3424  0.2042
 7732SOL     OW27111   2.436   6.198   4.919  0.2281 -0.0209  0.4307
 7732SOL    HW127112   2.425   6.218   5.012 -2.0534  0.3314  0.1449
 7732SOL    HW227113   2.460   6.106   4.916 -1.2190 -0.4425  1.3196
 7733SOL     OW27114   1.904   9.371   2.825 -0.1662  0.3912  0.5125
 7733SOL    HW127115   1.964   9.303   2.793 -0.4358  0.0472  0.7326
 7733SOL    HW227116   1.820   9.349   2.786 -0.2723  0.5552  0.6474
 7734SOL     OW27117   6.097   7.333   7.548  0.2889 -0.0127 -0.5016
 7734SOL    HW127118   6.018   7.292   7.585 -0.0077  0.4152 -0.6567
 7734SOL    HW227119   6.131   7.268   7.487  1.0106 -0.9100  0.7995
 7735SOL     OW27120   7.414   0.231   1.885 -0.2153  0.1227 -0.2260
 7735SOL    HW127121   7.477   0.169   1.921  1.3667  0.3927 -2.2942
 7735SOL    HW227122   7.438   0.316   1.923  0.7515  0.2234 -0.9979
 7736SOL     OW27123   9.008   9.862   1.567  0.6158  0.4266 -0.4951
 7736SOL    HW127124   8.930   9.854   1.512  0.8453 -2.6418 -0.5440
 7736SOL    HW227125   8.975   9.899   1.649 -0.6427  0.5227 -1.0134
 7737SOL     OW27126   4.539   6.217  10.051  0.0826  0.6873 -0.2483
 7737SOL    HW127127   4.486   6.253   9.980  0.2725  1.7254  0.1129
 7737SOL    HW227128   4.545   6.288  10.115  1.2239  0.3204  0.0908
 7738SOL     OW27129   3.309   3.790   0.568 -0.2413  0.6118  0.4186
 7738SOL    HW127130   3.294   3.704   0.607 -1.5995  0.2207 -0.8820
 7738SOL    HW227131   3.288   3.852   0.638 -0.4962 -0.0831  0.9716
 7739SOL     OW27132   5.669   7.901   0.878 -0.2157  0.5245  0.1979
 7739SOL    HW127133   5.625   7.970   0.829 -1.6749  1.6480  2.8362
 7739SOL    HW227134   5.599   7.838   0.898  0.7936 -1.0477 -0.9185
 7740SOL     OW27135   5.429   2.725   6.475 -0.3546  0.0328  0.2755
 7740SOL    HW127136   5.493   2.789   6.443 -0.9562  0.5062  0.0110
 7740SOL    HW227137   5.475   2.678   6.545  0.1415  0.6590  0.3775
 7741SOL     OW27138   3.883   5.800   6.187  0.7617  0.2947  0.3077
 7741SOL    HW127139   3.879   5.895   6.177 -1.6794  0.3586  1.0223
 7741SOL    HW227140   3.879   5.766   6.098  1.6945  0.8549  0.0451
 7742SOL     OW27141   2.134   0.371   8.227 -0.2871  0.1700 -0.5183
 7742SOL    HW127142   2.211   0.329   8.189  0.1064  1.8972 -1.7540
 7742SOL    HW227143   2.062   0.342   8.171 -0.5888 -1.4673  0.6536
 7743SOL     OW27144   6.806   8.397   0.736  0.2486 -0.3671 -0.0442
 7743SOL    HW127145   6.828   8.436   0.651  0.4728 -1.0405 -0.3076
 7743SOL    HW227146   6.717   8.364   0.724 -0.2154  0.6889  0.4116
 7744SOL     OW27147   5.611   7.833   9.822 -0.5772 -0.1175 -0.1701
 7744SOL    HW127148   5.521   7.806   9.842 -1.1611  1.5523 -0.3958
 7744SOL    HW227149   5.606   7.866   9.732 -0.1101  1.4565  0.3498
 7745SOL     OW27150  10.043  10.015   6.877 -0.4266 -0.0488  0.2575
 7745SOL    HW127151  10.093  10.011   6.795  1.9067 -1.3721  1.6569
 7745SOL    HW227152  10.028  10.108   6.891  1.7177  0.4225 -0.2298
 7746SOL     OW27153   3.903   7.593   5.754  0.1000  0.5257  0.0521
 7746SOL    HW127154   3.819   7.629   5.781 -0.5181 -1.2517  0.6611
 7746SOL    HW227155   3.908   7.610   5.660 -0.4490  1.5604  0.1926
 7747SOL     OW27156   4.168   9.115   0.172  0.3015 -0.0320  0.0245
 7747SOL    HW127157   4.101   9.111   0.241  1.6241  1.4062  1.4896
 7747SOL    HW227158   4.247   9.082   0.214  1.4136  1.9436 -0.3950
 7748SOL     OW27159   8.911  10.167   9.386  0.0282 -0.8429 -0.6713
 7748SOL    HW127160   8.968  10.243   9.398 -0.1850 -0.4984 -1.7073
 7748SOL    HW227161   8.883  10.144   9.475 -0.0058  0.3731 -0.3409
 7749SOL     OW27162   8.838   2.821   2.194  0.1214  0.1113 -0.5155
 7749SOL    HW127163   8.917   2.820   2.248 -0.7641  2.1101  0.9334
 7749SOL    HW227164   8.871   2.812   2.104  1.6516 -3.1142  0.2051
 7750SOL     OW27165   1.179   6.372   9.323  0.4393  0.6674  0.1751
 7750SOL    HW127166   1.229   6.297   9.291 -0.4713  0.7443 -1.5774
 7750SOL    HW227167   1.228   6.448   9.291 -1.1189  0.7451 -2.3070
 7751SOL     OW27168   6.011   4.136   5.878 -0.1969  0.0784  0.1313
 7751SOL    HW127169   6.092   4.117   5.925  0.0418  0.2242 -0.2198
 7751SOL    HW227170   6.038   4.146   5.787 -0.8287 -1.4985 -0.2598
 7752SOL     OW27171   2.960   1.224   9.349  0.0021  0.3171  0.3200
 7752SOL    HW127172   3.034   1.282   9.332  0.9045 -1.3599 -1.9643
 7752SOL    HW227173   2.974   1.192   9.438  1.7842  0.4077  0.0994
 7753SOL     OW27174   5.157   7.617   7.377  0.1637  0.6037  0.6705
 7753SOL    HW127175   5.251   7.610   7.359 -0.0090  0.0414 -0.0492
 7753SOL    HW227176   5.123   7.675   7.309 -0.2792 -0.5252 -0.1051
 7754SOL     OW27177   5.127   8.742   8.072  0.2796  0.0396 -0.2813
 7754SOL    HW127178   5.172   8.826   8.062  0.3873  0.0349  0.1148
 7754SOL    HW227179   5.196   8.681   8.099  0.3549 -0.3628 -1.3315
 7755SOL     OW27180   5.669   6.134   1.762 -0.3478 -0.4455 -0.0260
 7755SOL    HW127181   5.582   6.174   1.772 -0.4307 -1.2391  4.7957
 7755SOL    HW227182   5.656   6.062   1.701 -2.2877  1.1707 -1.6860
 7756SOL     OW27183   6.684   2.815   4.141  0.0797 -0.3481  0.2062
 7756SOL    HW127184   6.671   2.823   4.046  0.0627 -0.2240  0.2179
 7756SOL    HW227185   6.632   2.886   4.178  0.4308 -0.1265  0.2806
 7757SOL     OW27186   0.226   6.644   1.174  0.0449 -0.2058 -0.2727
 7757SOL    HW127187   0.249   6.555   1.149 -0.9312 -0.8261  0.9202
 7757SOL    HW227188   0.302   6.676   1.223  0.0462 -0.7150  0.0625
 7758SOL     OW27189   9.331   8.489   5.527 -0.3807  0.0690 -0.1240
 7758SOL    HW127190   9.395   8.477   5.597 -0.3364  0.0132 -0.1732
 7758SOL    HW227191   9.253   8.443   5.558 -0.3518  0.0188 -0.1243
 7759SOL     OW27192   3.965   3.673   2.219  0.1072 -0.2079 -0.2436
 7759SOL    HW127193   4.055   3.668   2.185 -0.0581  0.0370 -0.7159
 7759SOL    HW227194   3.972   3.641   2.309  1.1251  2.2325  0.6253
 7760SOL     OW27195   7.772   8.658   5.743 -0.4391 -0.0712 -0.1560
 7760SOL    HW127196   7.741   8.719   5.810  0.9992  0.2278  0.2862
 7760SOL    HW227197   7.793   8.713   5.668 -0.4439 -0.1958 -0.2486
 7761SOL     OW27198   6.309   9.999   0.286 -0.2055  0.0599 -0.5037
 7761SOL    HW127199   6.320  10.085   0.246 -0.1466 -0.2002 -1.0449
 7761SOL    HW227200   6.397   9.975   0.317 -0.5806  1.1377  1.6184
 7762SOL     OW27201   8.451   3.862   7.541  0.0210  0.0949 -0.2561
 7762SOL    HW127202   8.519   3.836   7.603 -1.4959 -0.6630  1.1776
 7762SOL    HW227203   8.418   3.945   7.577  0.2540  0.5194 -1.0088
 7763SOL     OW27204   8.305   2.496   5.600 -0.1896  0.1805  0.2939
 7763SOL    HW127205   8.395   2.516   5.577 -0.6843  0.4855 -1.4702
 7763SOL    HW227206   8.297   2.402   5.587 -0.2060  0.1916  0.2288
 7764SOL     OW27207   1.279   0.483   9.476 -0.1821 -0.4324 -0.1690
 7764SOL    HW127208   1.274   0.515   9.566  0.0692 -1.3027  0.1602
 7764SOL    HW227209   1.266   0.561   9.422  2.4303  0.6327  0.5775
 7765SOL     OW27210   9.493   4.125   6.737 -0.4338 -0.0481 -0.5346
 7765SOL    HW127211   9.561   4.081   6.789 -1.2959  0.0245  0.6992
 7765SOL    HW227212   9.518   4.108   6.646  1.6590  0.6472 -0.1364
 7766SOL     OW27213   1.696   4.636  10.142 -0.1732  0.1739  0.5072
 7766SOL    HW127214   1.788   4.647  10.167 -0.5188  1.0616  1.4851
 7766SOL    HW227215   1.654   4.717  10.170 -1.0635  0.2277 -0.9057
 7767SOL     OW27216   7.225   3.887   8.848 -0.4018  0.1616 -0.0561
 7767SOL    HW127217   7.182   3.867   8.765 -0.0853  0.4852 -0.3046
 7767SOL    HW227218   7.235   3.803   8.892  0.0418 -0.1019 -0.6528
 7768SOL     OW27219   6.145  10.124   1.299  0.4886  0.1890  0.2706
 7768SOL    HW127220   6.144  10.063   1.225  0.9201  0.7120 -0.1786
 7768SOL    HW227221   6.149  10.068   1.377 -0.2938 -0.3770 -0.0837
 7769SOL     OW27222   9.660   6.366   3.005  0.6311  0.0374  0.0170
 7769SOL    HW127223   9.659   6.276   2.975 -1.8763 -0.3156  0.9489
 7769SOL    HW227224   9.584   6.374   3.062 -0.0830  3.1065 -1.1277
 7770SOL     OW27225   4.806   5.410   0.603 -0.0924 -0.3710 -0.7407
 7770SOL    HW127226   4.775   5.458   0.526 -2.6213 -0.4566  0.1273
 7770SOL    HW227227   4.843   5.477   0.660 -1.4913  0.2639 -0.5331
 7771SOL     OW27228   8.549   6.486   0.912 -0.3109  0.0271 -0.2596
 7771SOL    HW127229   8.551   6.561   0.972 -0.7482 -0.9838  1.0811
 7771SOL    HW227230   8.456   6.461   0.908 -0.3673  0.3550 -1.7640
 7772SOL     OW27231   2.920   5.312   4.388  0.0258  0.1336  0.4727
 7772SOL    HW127232   3.003   5.325   4.341 -0.8903 -0.4825 -1.3716
 7772SOL    HW227233   2.881   5.400   4.391 -0.8413 -0.1029 -1.8079
 7773SOL     OW27234   2.855   4.952   7.095  0.1088 -0.3201 -0.0028
 7773SOL    HW127235   2.814   5.035   7.121 -1.1547 -0.6225 -0.9332
 7773SOL    HW227236   2.940   4.952   7.140  0.8761  2.2423 -1.2684
 7774SOL     OW27237   4.021   8.546   3.386  0.1095 -0.9014  0.6123
 7774SOL    HW127238   4.009   8.587   3.301  0.3702 -1.3449  0.3602
 7774SOL    HW227239   3.934   8.514   3.409  0.3873 -2.3815 -0.3203
 7775SOL     OW27240   2.830   7.979   5.104 -0.0573 -0.1798  0.4159
 7775SOL    HW127241   2.776   7.954   5.178 -0.1659  0.8719  0.7135
 7775SOL    HW227242   2.860   8.067   5.126  0.2005  0.0011 -0.6285
 7776SOL     OW27243   2.476   1.295   3.034 -0.6407  0.0034  0.0159
 7776SOL    HW127244   2.518   1.266   3.115 -2.2248  0.4986  1.0719
 7776SOL    HW227245   2.485   1.390   3.034  0.5490 -0.0756 -1.1268
 7777SOL     OW27246   6.992   1.002   1.499 -0.2554 -0.0604  0.1786
 7777SOL    HW127247   6.919   1.037   1.448 -0.5123 -0.1654  0.4738
 7777SOL    HW227248   7.015   1.073   1.560  2.1190  1.3470 -2.1339
 7778SOL     OW27249   0.759   2.994   5.091 -0.0050 -0.4565  0.2930
 7778SOL    HW127250   0.724   2.973   5.004  1.4709  0.4433 -0.5611
 7778SOL    HW227251   0.848   3.025   5.074  0.9087 -1.7694  2.2929
 7779SOL     OW27252   4.280   5.316   5.793  0.0003  0.0939 -0.4326
 7779SOL    HW127253   4.309   5.404   5.768 -0.4339  0.0620 -1.0783
 7779SOL    HW227254   4.272   5.269   5.710  0.5714 -0.6668 -0.0730
 7780SOL     OW27255   2.504   7.729   3.410  1.0939 -0.5916  0.0285
 7780SOL    HW127256   2.571   7.662   3.401  1.2811 -0.5071  0.7253
 7780SOL    HW227257   2.551   7.805   3.443  0.7587 -0.3320 -0.0825
 7781SOL     OW27258   0.805   3.579   4.716  0.3717 -0.8503  0.7155
 7781SOL    HW127259   0.783   3.670   4.699  0.0371 -0.7820  1.4699
 7781SOL    HW227260   0.798   3.536   4.631  0.9778 -0.0926  0.2701
 7782SOL     OW27261   4.702   6.415   3.492  0.1033 -0.4349  0.0330
 7782SOL    HW127262   4.765   6.473   3.450 -0.5824  1.7290  1.7568
 7782SOL    HW227263   4.617   6.446   3.461 -0.3293  0.2269  1.7652
 7783SOL     OW27264  10.001   7.732   8.285  0.0670 -0.1812 -0.4330
 7783SOL    HW127265   9.920   7.692   8.253 -0.5570  1.4691 -1.0422
 7783SOL    HW227266   9.991   7.732   8.381 -1.0581  0.7520 -0.5278
 7784SOL     OW27267   6.244   2.618   5.876  0.0366  0.5587 -0.3003
 7784SOL    HW127268   6.262   2.592   5.966 -1.3891  0.5657  0.0096
 7784SOL    HW227269   6.162   2.666   5.881  0.0891  0.8146 -1.5708
 7785SOL     OW27270   2.993   5.452   3.498 -0.3089 -1.2092  0.6393
 7785SOL    HW127271   3.033   5.368   3.520 -0.5262 -1.8887 -1.3695
 7785SOL    HW227272   2.902   5.431   3.476 -0.3859 -0.4559  0.1880
 7786SOL     OW27273   0.637   6.997   6.058 -0.0337 -0.2899 -0.2834
 7786SOL    HW127274   0.651   7.085   6.094 -0.3851  0.0321 -0.9204
 7786SOL    HW227275   0.565   7.007   5.997 -0.3038 -1.1031 -0.1062
 7787SOL     OW27276   8.297   5.022   9.337  0.2725  0.3245 -0.2984
 7787SOL    HW127277   8.281   4.930   9.317 -0.4707  0.6791 -1.3936
 7787SOL    HW227278   8.212   5.056   9.365  0.0516  1.1451 -1.8552
 7788SOL     OW27279   2.495   8.135   4.829 -0.5944 -0.2325  0.0446
 7788SOL    HW127280   2.517   8.054   4.782 -1.7826 -2.2173  2.6678
 7788SOL    HW227281   2.579   8.168   4.860 -0.2618 -1.7547  0.8612
 7789SOL     OW27282  10.092  10.044   4.616 -0.1556 -0.5073 -0.0906
 7789SOL    HW127283  10.081   9.949   4.607  0.6384 -0.4934 -1.3853
 7789SOL    HW227284  10.087  10.077   4.527 -0.5741  0.7045  0.3630
 7790SOL     OW27285   0.733   8.706   8.393  0.2994 -0.0117  0.0896
 7790SOL    HW127286   0.777   8.626   8.367  3.1435  1.2866  0.5834
 7790SOL    HW227287   0.707   8.748   8.311  0.4068 -0.5778 -0.2348
 7791SOL     OW27288   3.479   4.758   4.303  0.2173  0.2003 -0.0788
 7791SOL    HW127289   3.570   4.776   4.328  0.1114  1.2689 -0.3974
 7791SOL    HW227290   3.427   4.791   4.377  0.1248 -2.0493  0.9425
 7792SOL     OW27291   1.640   6.077   7.677 -0.2795 -0.5105 -0.5821
 7792SOL    HW127292   1.571   6.136   7.706  0.5956 -0.1327  0.8120
 7792SOL    HW227293   1.720   6.111   7.718  0.5983 -1.4464 -1.4459
 7793SOL     OW27294   0.586   4.919   1.669  0.0141  0.0088  0.1926
 7793SOL    HW127295   0.614   4.998   1.714  0.4245 -0.4001  0.6693
 7793SOL    HW227296   0.643   4.850   1.704  0.8282 -0.1966 -1.4713
 7794SOL     OW27297  10.079   6.068   0.985 -0.3134  0.3264 -0.2127
 7794SOL    HW127298  10.064   6.108   1.071 -0.7366  1.1563 -0.6642
 7794SOL    HW227299   9.999   6.087   0.935  0.6008  1.3386 -1.3476
 7795SOL     OW27300   1.612   2.348   4.081 -0.3950 -0.1333  0.4041
 7795SOL    HW127301   1.567   2.264   4.073 -0.8056  0.2209 -2.0646
 7795SOL    HW227302   1.590   2.380   4.168 -0.8571 -2.2102  1.1040
 7796SOL     OW27303   7.767   1.231   3.238 -0.1031  0.3120 -0.1618
 7796SOL    HW127304   7.796   1.313   3.279  1.0031 -0.4102  0.5620
 7796SOL    HW227305   7.728   1.181   3.310  2.0195 -1.0436  0.1515
 7797SOL     OW27306   0.300   6.513   1.647 -0.1103  0.0938 -0.1532
 7797SOL    HW127307   0.332   6.589   1.598 -1.3567  1.0920  0.5292
 7797SOL    HW227308   0.315   6.439   1.589 -0.0004  1.0266 -1.3486
 7798SOL     OW27309   2.086   8.209   5.598  0.1878  0.2356 -0.0260
 7798SOL    HW127310   2.119   8.261   5.671  1.3830  0.3606 -0.6185
 7798SOL    HW227311   2.095   8.267   5.522 -0.4020 -0.1209 -0.3753
 7799SOL     OW27312   5.831   4.637   9.156  0.4811 -0.2777 -0.0204
 7799SOL    HW127313   5.895   4.707   9.143  2.0941 -1.7218 -0.1372
 7799SOL    HW227314   5.764   4.676   9.212 -0.4201  2.3932 -2.6869
 7800SOL     OW27315   9.645   8.064   9.118 -0.2113  0.6987  0.3783
 7800SOL    HW127316   9.643   8.151   9.079  1.2268  1.3903  1.7143
 7800SOL    HW227317   9.560   8.054   9.160 -0.3631  1.4835  0.2701
 7801SOL     OW27318   8.826  10.103   1.065 -0.2530 -0.2165  0.0991
 7801SOL    HW127319   8.787  10.188   1.042  1.2065  0.6704  0.7520
 7801SOL    HW227320   8.761  10.062   1.122 -0.4263  1.0466  0.8429
 7802SOL     OW27321   5.177   7.404   8.768  0.1672 -0.3418  0.3195
 7802SOL    HW127322   5.087   7.381   8.747 -0.4305  1.0014  1.2877
 7802SOL    HW227323   5.181   7.499   8.758  1.2146 -0.2723  1.1696
 7803SOL     OW27324   7.203   7.284   5.943  0.0301  0.1942 -0.1332
 7803SOL    HW127325   7.250   7.367   5.936 -0.6754  0.8754  2.2740
 7803SOL    HW227326   7.122   7.306   5.990 -0.6959 -1.6752 -0.4148
 7804SOL     OW27327   1.794   0.722   6.758 -0.5085  0.0342  0.4288
 7804SOL    HW127328   1.781   0.647   6.817  1.3263 -1.5057 -0.9751
 7804SOL    HW227329   1.844   0.785   6.810 -0.7855 -0.3488  1.1825
 7805SOL     OW27330   3.126   8.352   2.090  0.0170  0.6920  0.3850
 7805SOL    HW127331   3.123   8.281   2.154 -0.2965 -0.1399 -0.5211
 7805SOL    HW227332   3.059   8.414   2.118 -1.5294 -0.6433 -0.2311
 7806SOL     OW27333   3.256   7.775   2.651 -0.6401 -0.1182 -0.1715
 7806SOL    HW127334   3.202   7.851   2.628  2.5483  1.7363 -2.4803
 7806SOL    HW227335   3.332   7.813   2.695  0.7995 -2.0021 -0.8870
 7807SOL     OW27336   9.088   4.421   5.153  0.4808 -0.0567 -0.3323
 7807SOL    HW127337   9.018   4.383   5.101 -0.4052  1.6415 -0.4289
 7807SOL    HW227338   9.110   4.503   5.109 -0.1447  1.3252  1.7877
 7808SOL     OW27339   0.929   3.079   3.911 -0.4751 -0.0429  0.1698
 7808SOL    HW127340   0.861   3.031   3.863  0.1315  0.7209 -1.5627
 7808SOL    HW227341   1.010   3.059   3.864  0.1983  0.5442  1.0524
 7809SOL     OW27342   9.987   7.324   4.569  0.0595  0.0081 -0.0403
 7809SOL    HW127343   9.990   7.417   4.589 -2.5214 -0.2943  2.4625
 7809SOL    HW227344  10.035   7.282   4.640 -3.1290 -0.7095  1.9104
 7810SOL     OW27345   1.114   9.337   8.553  0.2487  0.1263 -0.2986
 7810SOL    HW127346   1.110   9.252   8.596  0.4979 -0.0087 -0.5342
 7810SOL    HW227347   1.028   9.348   8.513 -0.6143  1.0221  1.6463
 7811SOL     OW27348   9.883   8.773   2.189  0.0358 -0.0248 -0.1288
 7811SOL    HW127349   9.834   8.839   2.239  1.0139  0.6781 -0.0793
 7811SOL    HW227350   9.920   8.716   2.256  0.4219  0.2580 -0.0992
 7812SOL     OW27351   7.869   1.990   6.921 -0.2351  0.0082 -0.9088
 7812SOL    HW127352   7.920   2.005   7.001  1.1446  0.2135 -1.8023
 7812SOL    HW227353   7.801   1.928   6.948  0.2874 -0.0330  0.3973
 7813SOL     OW27354   2.318   6.787   7.693 -0.1120 -0.4990  0.3848
 7813SOL    HW127355   2.384   6.776   7.761  0.5538 -0.7338 -0.2829
 7813SOL    HW227356   2.240   6.742   7.727 -0.0687  0.1418  1.3580
 7814SOL     OW27357   4.977   8.089  10.019  0.0778 -0.6381 -0.2768
 7814SOL    HW127358   5.024   8.159  10.063  1.2247 -1.0039 -0.8962
 7814SOL    HW227359   4.887   8.096  10.052  0.6909 -0.3401  1.4313
 7815SOL     OW27360   6.257   7.926   2.049 -0.1509 -0.1176  0.0173
 7815SOL    HW127361   6.329   7.941   1.987  2.1897 -1.5237  2.1818
 7815SOL    HW227362   6.212   7.849   2.014  1.5215 -1.2763  0.2940
 7816SOL     OW27363   3.095   8.559   6.476 -0.6039  0.2181  0.1744
 7816SOL    HW127364   3.145   8.486   6.512 -2.9807 -1.2186  0.8095
 7816SOL    HW227365   3.160   8.627   6.458  1.8063 -2.2008 -0.9312
 7817SOL     OW27366   6.163   9.291   5.550  0.1612 -0.4570 -0.0118
 7817SOL    HW127367   6.132   9.201   5.541 -0.0568 -0.3411 -0.5031
 7817SOL    HW227368   6.236   9.297   5.488 -0.0672 -0.1964 -0.2632
 7818SOL     OW27369  10.023   4.561   1.248 -0.2734  0.2441  0.1231
 7818SOL    HW127370  10.116   4.573   1.232  0.0522 -1.4539  0.5930
 7818SOL    HW227371   9.980   4.598   1.170  0.8722 -0.5315 -0.9061
 7819SOL     OW27372   1.543   9.356   0.801 -0.0304  0.1458 -0.4104
 7819SOL    HW127373   1.496   9.286   0.757  1.2323 -0.2633 -1.1674
 7819SOL    HW227374   1.483   9.387   0.868 -1.2642 -0.5030 -1.1869
 7820SOL     OW27375   7.412   1.477   5.557 -0.1082  0.8263 -0.0283
 7820SOL    HW127376   7.447   1.527   5.632  0.5741 -0.6905  0.7191
 7820SOL    HW227377   7.345   1.421   5.596  0.9235 -0.6813 -0.3324
 7821SOL     OW27378   1.642   9.186  10.096 -0.0582 -0.1715  0.1587
 7821SOL    HW127379   1.662   9.185  10.190 -0.0426 -0.3809  0.1531
 7821SOL    HW227380   1.623   9.094  10.075 -1.0663  0.0138  0.1818
 7822SOL     OW27381   5.626   1.383   6.251  0.0485  0.6631 -0.0251
 7822SOL    HW127382   5.550   1.417   6.203  0.0787  0.0948 -0.4842
 7822SOL    HW227383   5.667   1.321   6.190  0.0437 -0.1284  0.7523
 7823SOL     OW27384   3.369   5.525   5.005  0.3752 -0.5348 -0.3923
 7823SOL    HW127385   3.339   5.579   5.078  1.3246 -0.9782  0.3438
 7823SOL    HW227386   3.290   5.481   4.974 -0.3984  1.1774 -0.9485
 7824SOL     OW27387   8.246   7.874   6.773 -0.0808  0.9899 -0.0261
 7824SOL    HW127388   8.327   7.885   6.724  0.2988  0.3872  0.4556
 7824SOL    HW227389   8.272   7.882   6.864 -0.1002 -1.6705  0.2839
 7825SOL     OW27390   7.396   1.744   2.886 -0.3636  0.0625 -0.1390
 7825SOL    HW127391   7.382   1.683   2.959  1.3256 -0.2271 -0.0310
 7825SOL    HW227392   7.318   1.801   2.888  0.6004  1.5368  3.3576
 7826SOL     OW27393   6.435   4.283   1.917  0.6273  0.0551 -0.2241
 7826SOL    HW127394   6.450   4.226   1.992  0.8180 -0.9665 -1.0085
 7826SOL    HW227395   6.340   4.288   1.908  0.5632  1.3300  0.9119
 7827SOL     OW27396   9.704   2.098   2.930  0.1424  0.1842 -0.2492
 7827SOL    HW127397   9.755   2.018   2.926  0.6024  0.4026  0.8635
 7827SOL    HW227398   9.751   2.159   2.874  0.3349 -0.0313 -0.3240
 7828SOL     OW27399   1.680   9.840   1.925  0.4010 -0.0107 -0.3883
 7828SOL    HW127400   1.667   9.918   1.979  1.3943  0.2297 -0.4653
 7828SOL    HW227401   1.758   9.860   1.874 -0.5703 -0.1918 -2.0076
 7829SOL     OW27402   4.109   9.760   0.834  0.3054 -0.3320 -0.0003
 7829SOL    HW127403   4.037   9.794   0.888 -1.1467 -2.8247 -0.2383
 7829SOL    HW227404   4.109   9.818   0.757  1.2107  2.1243  1.7086
 7830SOL     OW27405   8.233   1.533   8.929  0.1674  0.5649  0.0937
 7830SOL    HW127406   8.247   1.550   8.836 -1.9748  0.1458 -0.3493
 7830SOL    HW227407   8.138   1.532   8.940  0.3516 -0.3632  2.1194
 7831SOL     OW27408   1.610   6.650   8.841 -0.1390 -0.4108  0.2362
 7831SOL    HW127409   1.581   6.642   8.750 -1.6797 -0.8710  0.7355
 7831SOL    HW227410   1.675   6.719   8.840 -2.2267  1.6863 -0.7890
 7832SOL     OW27411   5.525   0.227   2.463 -0.3247  0.4689 -0.1764
 7832SOL    HW127412   5.546   0.266   2.547 -0.9415  1.3692 -0.4200
 7832SOL    HW227413   5.610   0.202   2.426 -0.0656 -0.1308  0.7841
 7833SOL     OW27414   1.621   2.400   1.819  0.0180  0.7492 -0.2695
 7833SOL    HW127415   1.641   2.422   1.910  0.2251 -0.0635 -0.1130
 7833SOL    HW227416   1.544   2.453   1.798  0.5838  1.7388  0.0384
 7834SOL     OW27417   7.204   5.420   7.261  0.2662 -0.2094  0.3839
 7834SOL    HW127418   7.265   5.390   7.194  1.5643 -0.2189  1.5164
 7834SOL    HW227419   7.168   5.501   7.226  0.5481 -0.4635 -0.5271
 7835SOL     OW27420   1.560   5.998   6.778  0.3326  0.0538 -0.0606
 7835SOL    HW127421   1.489   5.950   6.820 -0.0889  1.4512  0.8612
 7835SOL    HW227422   1.640   5.964   6.819 -0.0581  1.2644  1.7973
 7836SOL     OW27423   3.162   2.213   6.636 -0.0557 -0.0845 -0.6231
 7836SOL    HW127424   3.204   2.164   6.565  1.3360  1.8345 -1.1949
 7836SOL    HW227425   3.234   2.235   6.695 -0.7052  0.8603 -0.1608
 7837SOL     OW27426   2.178   2.411   7.313 -0.2301 -0.2654 -0.2254
 7837SOL    HW127427   2.250   2.465   7.282 -0.0324 -1.4360 -1.9634
 7837SOL    HW227428   2.194   2.400   7.407  2.2581 -1.0453 -0.6736
 7838SOL     OW27429   7.650   1.290   8.203  0.0466  0.1056 -0.5159
 7838SOL    HW127430   7.578   1.268   8.262  1.2209 -0.9998  0.5747
 7838SOL    HW227431   7.724   1.238   8.235  1.6268  1.9741 -0.9490
 7839SOL     OW27432   5.667   4.486   6.648  0.0851  0.2343 -0.1467
 7839SOL    HW127433   5.594   4.518   6.595  0.6820 -0.2183 -1.2866
 7839SOL    HW227434   5.743   4.491   6.589  1.3788  2.4692  1.5553
 7840SOL     OW27435   2.986   3.429   3.913  0.1931 -0.0969  0.6882
 7840SOL    HW127436   3.021   3.491   3.848  1.7747 -0.1955  1.4032
 7840SOL    HW227437   3.059   3.414   3.973 -1.2222 -0.0050  2.5132
 7841SOL     OW27438   3.040   7.512   9.417  0.1506  0.9232  0.2138
 7841SOL    HW127439   2.989   7.470   9.348 -0.5887  3.1712 -0.7068
 7841SOL    HW227440   2.976   7.558   9.470  0.8284  0.1097  1.8217
 7842SOL     OW27441   6.677   8.448   8.863  0.5704 -0.3220  0.5977
 7842SOL    HW127442   6.700   8.358   8.885 -0.5329 -0.8644 -0.3599
 7842SOL    HW227443   6.735   8.502   8.917  1.0902 -1.5983  1.3467
 7843SOL     OW27444   2.990   5.834   0.756 -0.3289 -0.5594 -0.3717
 7843SOL    HW127445   3.026   5.884   0.829  1.4037 -2.4743  0.1987
 7843SOL    HW227446   3.001   5.742   0.782 -1.6505 -1.2778 -2.1400
 7844SOL     OW27447   6.310   6.794   6.281 -0.4300 -0.1496  0.0961
 7844SOL    HW127448   6.363   6.746   6.217 -1.0381  1.8294 -2.0612
 7844SOL    HW227449   6.224   6.752   6.276  0.2929 -2.1470  2.2219
 7845SOL     OW27450   7.046   1.593   8.603 -0.1930  0.1406 -0.5479
 7845SOL    HW127451   7.055   1.516   8.547 -0.8641 -1.1812  1.0540
 7845SOL    HW227452   7.133   1.609   8.637 -0.3733 -1.1449  0.5998
 7846SOL     OW27453   7.357   7.533   5.877  0.3787  0.1922 -0.1440
 7846SOL    HW127454   7.318   7.595   5.815  1.1973  0.2957 -0.5686
 7846SOL    HW227455   7.347   7.576   5.963 -2.2532 -0.6885  0.0570
 7847SOL     OW27456   7.246   7.306   4.991  0.0314 -0.2007 -0.6178
 7847SOL    HW127457   7.155   7.310   5.018  0.1702  0.4949 -0.2490
 7847SOL    HW227458   7.293   7.360   5.054  0.7354 -0.7530 -0.6585
 7848SOL     OW27459   1.103   8.654   7.641 -0.4029  0.1108 -0.2432
 7848SOL    HW127460   1.024   8.606   7.615  0.0164  1.0709 -3.7191
 7848SOL    HW227461   1.175   8.595   7.621 -0.0628  0.8430 -1.2680
 7849SOL     OW27462   4.727   5.081   1.021 -0.1310 -0.7561  0.1947
 7849SOL    HW127463   4.699   5.150   0.961 -0.0290  1.2188  2.2500
 7849SOL    HW227464   4.648   5.058   1.069  0.1410 -0.9868  0.5386
 7850SOL     OW27465   7.652   7.051   9.381 -0.0452  0.7789  0.3048
 7850SOL    HW127466   7.743   7.062   9.409  0.7492  1.0076 -2.1461
 7850SOL    HW227467   7.629   7.136   9.344 -1.0052  0.4718  0.1928
 7851SOL     OW27468   5.315   5.830   4.440  0.3379  0.2638 -0.7126
 7851SOL    HW127469   5.302   5.858   4.350  0.0698 -0.1796 -0.8126
 7851SOL    HW227470   5.233   5.854   4.484  0.3461  0.1886 -0.6572
 7852SOL     OW27471   6.854   4.655   2.625  0.2445 -0.4238  0.5930
 7852SOL    HW127472   6.910   4.714   2.575 -1.6576  0.6368 -0.4160
 7852SOL    HW227473   6.890   4.656   2.713  1.1882  1.0144  0.2239
 7853SOL     OW27474   1.427   2.343   0.962  0.1535  0.1950 -0.1597
 7853SOL    HW127475   1.421   2.397   0.883 -1.3371 -0.4018 -0.4791
 7853SOL    HW227476   1.394   2.400   1.032 -0.9357 -0.1031 -0.4127
 7854SOL     OW27477   8.924   6.828   7.962 -0.3666 -0.5948  0.2478
 7854SOL    HW127478   8.849   6.770   7.969 -0.0751 -0.8238  1.7669
 7854SOL    HW227479   8.995   6.780   8.006  0.2766  0.2457  0.1433
 7855SOL     OW27480   0.261   9.121   2.746 -0.1459  0.3520  0.1641
 7855SOL    HW127481   0.169   9.098   2.755 -0.6862  1.4238 -2.0121
 7855SOL    HW227482   0.262   9.217   2.744  0.9526  0.3516 -0.2494
 7856SOL     OW27483   4.557   8.381   0.194  0.0167  0.7835 -0.0422
 7856SOL    HW127484   4.529   8.462   0.236 -1.6689 -0.2317  0.9236
 7856SOL    HW227485   4.571   8.320   0.266  0.2782 -0.0698 -0.7933
 7857SOL     OW27486   0.552   8.698   3.846  0.0858 -0.2292  0.1701
 7857SOL    HW127487   0.468   8.731   3.877  0.1668 -0.3501  0.5262
 7857SOL    HW227488   0.614   8.769   3.864 -0.0254  0.0531 -0.5436
 7858SOL     OW27489   1.514   2.687   4.781  0.6195  0.1177 -0.0901
 7858SOL    HW127490   1.453   2.615   4.799  0.5435 -0.1398 -1.2686
 7858SOL    HW227491   1.480   2.726   4.700  0.1391  2.0512  0.9859
 7859SOL     OW27492   4.583   2.106   9.887 -0.1824  0.2080 -0.2262
 7859SOL    HW127493   4.560   2.184   9.937  1.7625  0.0095  1.0694
 7859SOL    HW227494   4.540   2.118   9.802 -0.2019  2.4967  0.0632
 7860SOL     OW27495   8.899   3.670   2.088 -0.1333 -0.7752  0.7103
 7860SOL    HW127496   8.932   3.676   2.177  0.7824 -0.4265  0.3629
 7860SOL    HW227497   8.946   3.596   2.050  0.3783 -0.1808  0.1595
 7861SOL     OW27498   2.204   3.242   4.359  0.5118 -0.2477 -0.2275
 7861SOL    HW127499   2.155   3.303   4.414 -0.6542 -1.1593 -0.2237
 7861SOL    HW227500   2.296   3.265   4.373  0.2120 -0.0689  1.6190
 7862SOL     OW27501   2.146   3.166   6.245 -0.3722  0.3222  0.1402
 7862SOL    HW127502   2.231   3.206   6.224  0.0275 -0.3443  0.4633
 7862SOL    HW227503   2.165   3.106   6.317 -1.3462  1.0669  1.0458
 7863SOL     OW27504   8.159   7.591   7.043  0.0577  0.2846  0.2738
 7863SOL    HW127505   8.153   7.508   7.090  1.5283  0.2034  0.3702
 7863SOL    HW227506   8.099   7.650   7.089 -1.1524 -0.7692  0.0795
 7864SOL     OW27507   7.247   2.576   2.512  0.1852  0.0136 -0.4326
 7864SOL    HW127508   7.169   2.572   2.457  0.0336  1.6216 -0.3907
 7864SOL    HW227509   7.231   2.650   2.570  1.6735  0.2535 -0.3063
 7865SOL     OW27510   9.559   1.694   2.378 -0.0096  0.5896  0.1548
 7865SOL    HW127511   9.569   1.599   2.386 -0.4503  0.5467  0.2450
 7865SOL    HW227512   9.643   1.725   2.345 -0.3904 -0.0289 -1.4977
 7866SOL     OW27513   6.892   8.557   6.224 -0.5931 -0.1800  0.0700
 7866SOL    HW127514   6.942   8.618   6.279 -0.4226 -0.9781  0.8238
 7866SOL    HW227515   6.837   8.509   6.286 -1.0832 -0.4625 -0.5743
 7867SOL     OW27516   3.019   7.062   1.872 -0.3656 -0.4058 -0.1178
 7867SOL    HW127517   3.111   7.079   1.890 -0.1750 -1.5627  0.1179
 7867SOL    HW227518   2.975   7.146   1.884  0.4992 -0.0811  0.8402
 7868SOL     OW27519   6.192   0.758   0.395 -0.4148  0.5813 -0.0804
 7868SOL    HW127520   6.234   0.690   0.447  0.9631  2.1198  0.9166
 7868SOL    HW227521   6.228   0.747   0.307 -0.7567 -0.4039 -0.1056
 7869SOL     OW27522   3.131   4.873   0.750  0.3227  0.5435 -0.1281
 7869SOL    HW127523   3.078   4.794   0.766  1.1899 -0.3212 -1.3388
 7869SOL    HW227524   3.188   4.849   0.677  0.6358  2.3014 -0.4998
 7870SOL     OW27525   0.945   5.334   7.523  0.3576  0.6372  0.2124
 7870SOL    HW127526   1.039   5.346   7.522  0.5187 -0.1289  1.8809
 7870SOL    HW227527   0.925   5.293   7.439  1.3828  1.5600 -0.4994
 7871SOL     OW27528   6.000   8.558   8.172  0.0617  0.0056  0.3404
 7871SOL    HW127529   5.911   8.525   8.158 -0.2396  1.6602 -2.4306
 7871SOL    HW227530   5.989   8.628   8.237 -0.8131  0.6200 -0.4385
 7872SOL     OW27531   6.952   7.443   7.872  0.0648  0.3128  0.1276
 7872SOL    HW127532   6.922   7.514   7.929 -0.9410  2.1747 -2.5163
 7872SOL    HW227533   6.884   7.376   7.877  0.0792  0.3731  1.2139
 7873SOL     OW27534   3.836   4.036   8.442 -0.2486 -0.6071  0.2676
 7873SOL    HW127535   3.914   4.037   8.386 -0.2457  0.7440  0.2723
 7873SOL    HW227536   3.870   4.050   8.530 -0.4949  0.1432  0.2520
 7874SOL     OW27537   0.900   5.860   4.286  0.0238 -0.7755 -1.0052
 7874SOL    HW127538   0.991   5.869   4.258  0.3662 -1.0180  0.0001
 7874SOL    HW227539   0.851   5.917   4.226  0.8382 -0.5796 -1.5026
 7875SOL     OW27540   5.475   9.667   4.488  0.1142 -0.3417  0.1145
 7875SOL    HW127541   5.481   9.741   4.548 -0.7985  1.5789 -1.9974
 7875SOL    HW227542   5.469   9.707   4.401 -0.4021 -2.9116 -1.1402
 7876SOL     OW27543   7.622   3.863   5.890  0.2022 -0.1493  0.0732
 7876SOL    HW127544   7.643   3.828   5.803 -1.5980  1.0324 -0.9040
 7876SOL    HW227545   7.540   3.912   5.877 -1.2318 -1.5995  2.8632
 7877SOL     OW27546   3.245   1.181   1.589  0.0650 -0.4880  0.4604
 7877SOL    HW127547   3.180   1.165   1.521  2.5679  1.9919 -2.8660
 7877SOL    HW227548   3.198   1.227   1.658 -1.7483  1.4948 -1.9432
 7878SOL     OW27549   2.553  10.070   3.501 -0.2673 -0.1552  0.2860
 7878SOL    HW127550   2.466  10.110   3.498  0.2064  1.1076  1.8184
 7878SOL    HW227551   2.612  10.143   3.518  1.0198 -1.1001  0.0191
 7879SOL     OW27552   7.616   4.726   2.813  0.0203 -0.0570 -0.1820
 7879SOL    HW127553   7.629   4.774   2.731 -0.8448  0.8923  0.2028
 7879SOL    HW227554   7.635   4.791   2.881  2.3459 -1.2850  0.4204
 7880SOL     OW27555   8.486   7.693   4.385  0.1659  0.4244 -0.0624
 7880SOL    HW127556   8.428   7.692   4.461  1.0732  0.1383  0.6522
 7880SOL    HW227557   8.442   7.749   4.321 -1.6363 -1.0025 -0.1458
 7881SOL     OW27558   0.807   0.263   5.160 -0.1326  0.3299  0.3993
 7881SOL    HW127559   0.876   0.264   5.093 -0.5139  1.7660 -0.0085
 7881SOL    HW227560   0.850   0.227   5.237 -0.2297 -3.4199 -1.0930
 7882SOL     OW27561   8.623   5.114   8.535 -0.4888  0.4323  0.5028
 7882SOL    HW127562   8.719   5.120   8.541 -0.3670 -0.8510  0.1333
 7882SOL    HW227563   8.606   5.100   8.442 -0.6042 -4.4885  0.9928
 7883SOL     OW27564   6.315   3.892   6.366 -0.2839 -0.0589  0.5957
 7883SOL    HW127565   6.288   3.982   6.384  3.2761  0.9163  1.7389
 7883SOL    HW227566   6.370   3.898   6.288  0.0270 -1.2275  0.7087
 7884SOL     OW27567   3.478   1.465   1.641  0.1335  0.0643 -0.1837
 7884SOL    HW127568   3.405   1.424   1.688  1.2270 -4.7554 -2.1487
 7884SOL    HW227569   3.541   1.487   1.709 -1.6043  1.1080  1.2087
 7885SOL     OW27570   7.305   5.038   2.734 -0.4550 -0.1112 -0.4628
 7885SOL    HW127571   7.327   4.987   2.656 -2.1295 -1.4744 -0.1065
 7885SOL    HW227572   7.256   5.113   2.701  0.4227  0.3260 -0.8313
 7886SOL     OW27573   6.457   7.898   4.768 -0.5630  0.3937 -0.1223
 7886SOL    HW127574   6.367   7.898   4.734 -1.3371 -0.1195  1.8203
 7886SOL    HW227575   6.464   7.981   4.815  0.5159  1.1189 -1.4863
 7887SOL     OW27576   4.374   3.417   3.825 -0.0464 -0.6557 -0.2068
 7887SOL    HW127577   4.447   3.364   3.857  1.4873  1.4389  0.0501
 7887SOL    HW227578   4.313   3.420   3.898  0.3908 -1.1436  0.1887
 7888SOL     OW27579   1.918   4.672   3.052 -0.2198  0.3649  0.2733
 7888SOL    HW127580   2.007   4.639   3.068 -0.5061 -0.7495 -0.2741
 7888SOL    HW227581   1.910   4.669   2.956  0.5198  4.2614 -0.0544
 7889SOL     OW27582   2.326   3.039   2.603 -0.3689 -0.3954  0.1721
 7889SOL    HW127583   2.299   2.992   2.682  0.3704 -2.6237 -0.8391
 7889SOL    HW227584   2.311   2.977   2.531  0.5719  0.9552 -1.2581
 7890SOL     OW27585   7.707   2.939  10.054 -0.5971  0.2381 -0.7202
 7890SOL    HW127586   7.777   2.989  10.011 -0.6936 -0.1238 -1.3012
 7890SOL    HW227587   7.627   2.967  10.009 -0.7678  0.2862 -0.3860
 7891SOL     OW27588   0.878   5.815   4.673 -0.1155  0.0901 -0.0948
 7891SOL    HW127589   0.973   5.802   4.671 -0.2267 -0.7307 -1.3941
 7891SOL    HW227590   0.868   5.910   4.676  0.7312  0.1671  1.3787
 7892SOL     OW27591   9.463   8.772   7.459  0.4643  0.8005 -0.8459
 7892SOL    HW127592   9.456   8.766   7.554 -0.4969 -0.1412 -0.9473
 7892SOL    HW227593   9.429   8.859   7.438 -0.9645  0.3763 -0.4338
 7893SOL     OW27594   2.939   2.235   8.606  0.0120  0.0633  0.1187
 7893SOL    HW127595   2.874   2.187   8.657 -0.3554  0.3988 -0.0261
 7893SOL    HW227596   2.915   2.218   8.515  0.2205  0.0613  0.0647
 7894SOL     OW27597   6.473   3.626   6.674  0.2392 -0.0632 -0.2954
 7894SOL    HW127598   6.558   3.612   6.717 -0.1111 -2.1001 -0.1694
 7894SOL    HW227599   6.410   3.624   6.745 -0.0344  0.1805 -0.5293
 7895SOL     OW27600   8.590   7.505   0.781  0.0106 -0.3242  0.0108
 7895SOL    HW127601   8.555   7.495   0.869 -1.2539 -0.7148 -0.5075
 7895SOL    HW227602   8.512   7.507   0.725  0.6630  1.8271 -0.9357
 7896SOL     OW27603   1.029   0.263   9.220  0.7388  0.0167 -0.3187
 7896SOL    HW127604   0.975   0.238   9.146 -0.4681  0.4551  0.3801
 7896SOL    HW227605   1.112   0.216   9.207 -0.1193 -1.3832 -0.9619
 7897SOL     OW27606   5.096   3.541   3.647 -0.6592  0.2350  0.1518
 7897SOL    HW127607   5.175   3.526   3.700 -1.5816 -0.1886  1.4540
 7897SOL    HW227608   5.100   3.474   3.579 -0.0093  0.0822  0.3284
 7898SOL     OW27609   4.466   8.575   6.973  0.2242  0.3920 -0.1719
 7898SOL    HW127610   4.491   8.552   6.884 -0.0546 -0.4894 -0.0365
 7898SOL    HW227611   4.511   8.657   6.991  0.6593  0.3291 -0.9559
 7899SOL     OW27612   6.850   9.625   7.264  0.6731  0.4634 -0.4035
 7899SOL    HW127613   6.899   9.699   7.300  1.2532  0.4499 -1.1339
 7899SOL    HW227614   6.840   9.646   7.171 -0.9896  0.5960 -0.2151
 7900SOL     OW27615   0.723   0.741   8.423  0.0864  0.1394  0.0005
 7900SOL    HW127616   0.776   0.662   8.410  0.0893  0.3415 -1.3233
 7900SOL    HW227617   0.641   0.722   8.378 -0.5291  0.2912  1.0371
 7901SOL     OW27618   4.026   6.330   1.470 -0.2545 -0.6378 -0.6378
 7901SOL    HW127619   4.088   6.290   1.530  0.0584 -0.2767 -0.7138
 7901SOL    HW227620   4.016   6.266   1.399  0.1709 -0.6240 -0.7133
 7902SOL     OW27621   7.472   0.166   0.126  0.0718  0.0402 -0.6940
 7902SOL    HW127622   7.502   0.077   0.144 -2.4935 -0.4129  2.0262
 7902SOL    HW227623   7.425   0.159   0.043  0.7535 -0.8752 -1.0251
 7903SOL     OW27624   6.707   5.092   2.194 -0.4055 -0.3848 -0.2874
 7903SOL    HW127625   6.615   5.071   2.212 -0.2195 -0.2805  0.9033
 7903SOL    HW227626   6.755   5.053   2.268  0.4001  0.3923 -0.3828
 7904SOL     OW27627   7.893   2.156   5.996 -0.0499 -0.0286 -0.4012
 7904SOL    HW127628   7.981   2.148   6.034 -0.9527 -0.5553  1.6930
 7904SOL    HW227629   7.885   2.080   5.938  0.8877  0.0715 -0.6859
 7905SOL     OW27630   4.285   9.345   3.180 -0.0761  0.0021  0.4189
 7905SOL    HW127631   4.302   9.365   3.272  0.0661  0.1866  0.3547
 7905SOL    HW227632   4.192   9.366   3.168  0.2707  1.5123  0.1376
 7906SOL     OW27633   5.131   7.098   6.509 -0.4614  0.0775 -0.4512
 7906SOL    HW127634   5.060   7.146   6.553 -2.0509 -0.1574 -2.5549
 7906SOL    HW227635   5.136   7.015   6.556  0.1135  1.0252  1.2334
 7907SOL     OW27636   0.215   1.925   8.857 -0.3821  0.3351 -0.0093
 7907SOL    HW127637   0.276   1.968   8.917  2.1424 -1.2510 -1.2221
 7907SOL    HW227638   0.187   1.994   8.797 -0.3976  1.2605  1.0348
 7908SOL     OW27639   1.766   0.241   3.423 -0.1933  0.6150 -0.4008
 7908SOL    HW127640   1.823   0.175   3.382 -0.8430 -0.3153  0.1530
 7908SOL    HW227641   1.740   0.299   3.351  0.5119  0.3561 -0.8709
 7909SOL     OW27642   0.188   5.603   1.011 -0.0340  0.2795  0.9495
 7909SOL    HW127643   0.115   5.543   0.992  1.1290 -0.5761 -1.2374
 7909SOL    HW227644   0.163   5.686   0.971 -1.1111  0.9545  2.9161
 7910SOL     OW27645   3.519   8.034   7.031  0.3897  0.4245 -0.2009
 7910SOL    HW127646   3.515   7.939   7.022  0.0197  0.3376  0.7270
 7910SOL    HW227647   3.504   8.050   7.125 -2.2286  1.5233 -0.6900
 7911SOL     OW27648   8.967   4.464   3.841  0.1610 -0.0246 -0.6969
 7911SOL    HW127649   8.961   4.544   3.788  0.4221  0.2815 -0.2729
 7911SOL    HW227650   9.008   4.493   3.923 -0.3913 -0.4637 -0.2624
 7912SOL     OW27651   8.650   3.556   4.327  0.3120 -0.4732  0.1614
 7912SOL    HW127652   8.707   3.570   4.251 -1.7554  0.6695 -1.2985
 7912SOL    HW227653   8.600   3.477   4.305 -1.0206  0.4320 -0.2197
 7913SOL     OW27654   8.797   9.086   2.828  0.6810 -0.2366 -1.1346
 7913SOL    HW127655   8.831   9.002   2.861 -0.2343 -0.2401 -0.1128
 7913SOL    HW227656   8.871   9.146   2.833  0.8088 -0.4736  0.1361
 7914SOL     OW27657   7.686   7.183   3.729 -0.2732  0.1231 -0.7984
 7914SOL    HW127658   7.711   7.189   3.821 -0.5857 -0.3411 -0.6797
 7914SOL    HW227659   7.751   7.237   3.683  0.4479 -0.3862 -0.4098
 7915SOL     OW27660   6.278   4.769   0.252 -0.2624 -0.7480  0.0547
 7915SOL    HW127661   6.187   4.742   0.237 -0.2295 -0.2823 -1.1340
 7915SOL    HW227662   6.274   4.865   0.254  0.3009 -0.6966 -0.8248
 7916SOL     OW27663   0.634   2.194   6.526  0.2310  0.7461 -0.1236
 7916SOL    HW127664   0.671   2.141   6.596 -0.6659  0.7307  0.3480
 7916SOL    HW227665   0.707   2.249   6.496  0.9835 -0.2408 -0.1478
 7917SOL     OW27666   1.102   0.527   2.112  0.4327  0.1246  0.5103
 7917SOL    HW127667   1.045   0.587   2.160  0.2345  0.3664 -0.0257
 7917SOL    HW227668   1.051   0.446   2.105 -0.0387  0.4938 -0.3838
 7918SOL     OW27669   6.989   8.134   9.237 -0.4752 -0.4770  0.2001
 7918SOL    HW127670   6.914   8.076   9.221 -1.2949  0.0550  1.8929
 7918SOL    HW227671   6.949   8.217   9.263  0.6981 -0.2084  1.2099
 7919SOL     OW27672   6.323   0.139   2.916 -0.0142 -0.4168  0.2094
 7919SOL    HW127673   6.335   0.079   2.842  2.6385 -1.6287  1.4805
 7919SOL    HW227674   6.334   0.226   2.877 -0.4018 -0.9213 -1.1053
 7920SOL     OW27675   6.477   3.391   9.369  0.3708 -0.1048  0.3582
 7920SOL    HW127676   6.528   3.344   9.435  1.3575  1.0658  0.4903
 7920SOL    HW227677   6.419   3.326   9.331  0.7804 -1.1119  1.4115
 7921SOL     OW27678   6.644   5.239   4.048  0.0260 -0.4173 -0.2646
 7921SOL    HW127679   6.706   5.167   4.060  0.9028  0.2111 -0.9083
 7921SOL    HW227680   6.697   5.311   4.013 -1.2334 -0.1517 -1.6960
 7922SOL     OW27681   3.674   2.686   2.581 -0.3075 -0.1169  0.6160
 7922SOL    HW127682   3.646   2.623   2.514 -1.3211 -0.6229  1.4897
 7922SOL    HW227683   3.669   2.771   2.537 -0.4686 -0.4824 -0.0990
 7923SOL     OW27684   1.576  10.135   6.559 -0.6563 -0.0596  0.0877
 7923SOL    HW127685   1.588  10.055   6.507 -0.1237  0.4132 -0.5296
 7923SOL    HW227686   1.594  10.108   6.649 -1.7910 -0.9368  0.0762
 7924SOL     OW27687  10.006   0.656   8.278  0.2002 -0.2603 -0.2584
 7924SOL    HW127688  10.025   0.750   8.286  1.1585 -0.4966  0.4943
 7924SOL    HW227689  10.015   0.638   8.184 -0.6609  0.5253 -0.5026
 7925SOL     OW27690   5.933   9.228   7.962  0.6189  0.3112  0.2975
 7925SOL    HW127691   5.878   9.202   7.888  0.0796  0.9787  0.4461
 7925SOL    HW227692   5.924   9.324   7.966  0.7593  0.2982  1.1200
 7926SOL     OW27693   0.825   8.439   9.765  0.5865 -0.1388  0.1225
 7926SOL    HW127694   0.899   8.418   9.822  0.8009  0.2896  0.0039
 7926SOL    HW227695   0.860   8.434   9.676  0.8941  1.6350  0.1123
 7927SOL     OW27696   7.792   5.812   2.937  0.1681  0.0175  0.3711
 7927SOL    HW127697   7.858   5.817   2.868  0.9038 -0.9050  0.9977
 7927SOL    HW227698   7.832   5.855   3.012  0.5454 -1.5373  1.1047
 7928SOL     OW27699   9.150   9.618   3.464  0.4223 -0.4156 -0.3533
 7928SOL    HW127700   9.071   9.568   3.483  0.3900 -0.4493 -0.5732
 7928SOL    HW227701   9.218   9.577   3.518 -0.3554  1.6240  2.3340
 7929SOL     OW27702   6.584   5.892   8.162  0.1973 -0.5612  0.6388
 7929SOL    HW127703   6.664   5.896   8.111 -0.1638 -1.1449  0.0081
 7929SOL    HW227704   6.614   5.874   8.252  0.8926  1.5588  0.8765
 7930SOL     OW27705   3.514   8.513   1.916  0.7437  0.0802 -0.6322
 7930SOL    HW127706   3.536   8.459   1.991 -1.3009 -0.5499 -0.4058
 7930SOL    HW227707   3.431   8.476   1.883  1.5770  0.3118 -3.2295
 7931SOL     OW27708   8.173   3.117   2.085  0.6150 -0.2338 -0.4222
 7931SOL    HW127709   8.265   3.134   2.064  0.9134  0.2353  1.0990
 7931SOL    HW227710   8.168   3.130   2.180 -0.9277 -0.7207 -0.4134
 7932SOL     OW27711   6.414   7.685   5.747  0.0449 -0.1315  0.0798
 7932SOL    HW127712   6.437   7.765   5.698 -0.5857  0.0231  0.0263
 7932SOL    HW227713   6.447   7.702   5.835 -3.2120  1.7735  1.0889
 7933SOL     OW27714   5.500   3.656  10.103  0.1443 -0.5810 -0.0269
 7933SOL    HW127715   5.457   3.648  10.018 -1.8779  1.0800  0.7578
 7933SOL    HW227716   5.590   3.682  10.082  0.2282 -1.9653 -1.6613
 7934SOL     OW27717   6.819   0.785   4.592 -0.8074 -0.0916  0.3855
 7934SOL    HW127718   6.888   0.814   4.652 -1.1021 -0.7745  1.0841
 7934SOL    HW227719   6.862   0.777   4.507  0.1643 -1.1712  0.9435
 7935SOL     OW27720   1.307   9.237   8.998  0.8093 -0.1822 -0.4840
 7935SOL    HW127721   1.356   9.319   8.992 -0.5603  0.7596  0.6479
 7935SOL    HW227722   1.217   9.264   9.020  0.5376 -2.0242  0.8986
 7936SOL     OW27723   9.022   5.603   4.928  0.0764  0.2610 -0.8098
 7936SOL    HW127724   8.990   5.569   4.845  0.9600 -0.1840 -0.9758
 7936SOL    HW227725   9.045   5.694   4.910 -3.7048  1.5360 -0.0069
 7937SOL     OW27726   2.515   1.003   0.411  0.0806  0.5885 -0.3868
 7937SOL    HW127727   2.598   1.049   0.424 -0.6045  1.4304  1.2511
 7937SOL    HW227728   2.480   1.041   0.330  0.8380  0.9120 -0.5720
 7938SOL     OW27729   8.133   4.064   1.972 -0.4278  0.1525  0.3457
 7938SOL    HW127730   8.140   3.969   1.961 -0.7577  0.1058  0.5208
 7938SOL    HW227731   8.224   4.095   1.972 -0.3330 -0.1242 -0.0265
 7939SOL     OW27732   7.528   6.153   7.255  0.0192 -0.1652  0.2005
 7939SOL    HW127733   7.594   6.212   7.292 -0.5115 -0.5791  1.8997
 7939SOL    HW227734   7.503   6.195   7.173  1.9346  0.3172 -0.1977
 7940SOL     OW27735   2.059   7.707   3.813 -0.4629 -0.5681  0.5057
 7940SOL    HW127736   2.077   7.801   3.816 -0.4607 -0.5796  0.9118
 7940SOL    HW227737   2.046   7.688   3.720  0.8698 -0.4165  0.2734
 7941SOL     OW27738   9.675   6.753   3.998  0.1251 -0.1860  0.0664
 7941SOL    HW127739   9.605   6.793   4.049 -0.4611 -0.7267 -0.2965
 7941SOL    HW227740   9.718   6.826   3.954 -0.8430  0.0654 -0.4871
 7942SOL     OW27741   0.144   6.802   3.572 -0.0219  0.3492 -0.6811
 7942SOL    HW127742   0.136   6.893   3.601 -0.4938  0.2720 -0.5647
 7942SOL    HW227743   0.227   6.800   3.524  0.3329  0.6754 -0.0924
 7943SOL     OW27744   0.324   8.145   3.536 -0.0969 -0.0568 -0.5600
 7943SOL    HW127745   0.342   8.239   3.540  0.9267 -0.2635  0.5604
 7943SOL    HW227746   0.371   8.114   3.459  0.9765  0.1098 -0.0004
 7944SOL     OW27747   6.114   1.675   4.893  0.8319 -0.5694  0.3356
 7944SOL    HW127748   6.064   1.655   4.813  1.1878  0.1801 -0.0837
 7944SOL    HW227749   6.160   1.756   4.873 -1.7496  1.6182  2.4946
 7945SOL     OW27750   7.242   8.542   7.622  0.7459  0.6285  0.4170
 7945SOL    HW127751   7.202   8.598   7.555 -1.3182 -1.5633 -0.3083
 7945SOL    HW227752   7.176   8.537   7.691  0.8219 -0.9558  0.4072
 7946SOL     OW27753  10.199   3.285   0.318  0.0388  0.2857  0.1368
 7946SOL    HW127754  10.171   3.218   0.255  0.8725 -0.1748  0.2526
 7946SOL    HW227755  10.124   3.295   0.377 -1.1109  1.3563 -1.4209
 7947SOL     OW27756   7.664   9.129   0.059  0.3743  0.3540 -0.0966
 7947SOL    HW127757   7.698   9.054   0.010  0.5616  0.3199  0.0849
 7947SOL    HW227758   7.730   9.197   0.047 -0.0742  0.6803 -0.7424
 7948SOL     OW27759   2.782   2.133   5.799  0.2263 -0.7269 -0.3834
 7948SOL    HW127760   2.770   2.048   5.758 -0.4451 -0.5039 -0.6544
 7948SOL    HW227761   2.869   2.161   5.770 -1.1442  0.5531 -3.7528
 7949SOL     OW27762   5.211   7.949   4.059  0.2599 -0.3577  0.1590
 7949SOL    HW127763   5.120   7.922   4.045  0.5427 -1.8190  0.9871
 7949SOL    HW227764   5.211   7.988   4.147  0.7380 -1.9821  0.9196
 7950SOL     OW27765   6.285   0.574   0.586  0.2832  0.7437 -0.0277
 7950SOL    HW127766   6.327   0.625   0.655  3.1789 -0.4571 -0.7476
 7950SOL    HW227767   6.280   0.485   0.621 -0.1543  0.5425 -0.5883
 7951SOL     OW27768   0.923   1.960   4.797  0.1021  0.0474  0.2457
 7951SOL    HW127769   0.890   1.993   4.714  0.3931  1.3077  0.6020
 7951SOL    HW227770   0.911   2.033   4.858 -0.2275 -0.8939  1.3485
 7952SOL     OW27771   2.555   8.793   1.735  0.0684 -0.8135  0.7851
 7952SOL    HW127772   2.587   8.822   1.649 -1.3319 -0.8093  0.2442
 7952SOL    HW227773   2.515   8.871   1.773 -3.6565 -1.8203 -0.6515
 7953SOL     OW27774   7.518   9.950   0.165  0.3623  0.1640  0.4929
 7953SOL    HW127775   7.467   9.876   0.199  0.5743  0.3389  1.2082
 7953SOL    HW227776   7.537  10.003   0.242 -0.4541  1.3771 -0.1033
 7954SOL     OW27777   1.835   0.617   1.424 -0.0034  0.0767 -0.0360
 7954SOL    HW127778   1.767   0.580   1.481 -0.3143 -1.1308 -1.1402
 7954SOL    HW227779   1.878   0.683   1.478 -2.0150  0.8622  0.7261
 7955SOL     OW27780   9.848   3.417   3.392  0.3092  0.3155 -0.3176
 7955SOL    HW127781   9.880   3.507   3.390  1.2075  0.0951  1.7341
 7955SOL    HW227782   9.873   3.380   3.308 -0.2843  2.0333 -1.2911
 7956SOL     OW27783   3.868   0.903   7.645  0.4163  0.0094 -0.2669
 7956SOL    HW127784   3.889   0.966   7.576  1.0848 -0.5372 -0.5775
 7956SOL    HW227785   3.778   0.924   7.670 -0.1274 -0.2759 -1.8537
 7957SOL     OW27786   3.339   1.058   5.905 -0.0780 -0.5697  0.0526
 7957SOL    HW127787   3.256   1.012   5.918 -0.5559  0.0614 -0.6593
 7957SOL    HW227788   3.404   0.988   5.895 -0.3854 -1.0657  1.3524
 7958SOL     OW27789   8.875   8.209   3.610  0.3742  0.1088  0.3129
 7958SOL    HW127790   8.831   8.221   3.526 -0.7373  1.5346  1.0604
 7958SOL    HW227791   8.823   8.144   3.656  1.5833 -1.4842 -0.4519
 7959SOL     OW27792   1.499   3.240   2.113 -0.0519 -0.2688  0.0637
 7959SOL    HW127793   1.580   3.278   2.147  0.3968 -1.4660  0.3606
 7959SOL    HW227794   1.527   3.167   2.058 -0.9394 -1.3400  0.9757
 7960SOL     OW27795   3.657   9.664   0.534  0.5591 -0.0185 -0.2784
 7960SOL    HW127796   3.727   9.631   0.590  1.3782 -0.6038 -1.5955
 7960SOL    HW227797   3.667   9.759   0.535 -0.3047  0.1100  1.6171
 7961SOL     OW27798   5.946   2.751   9.917  0.1540 -0.0155 -0.2907
 7961SOL    HW127799   5.933   2.723   9.827 -0.9318  0.4119 -0.2818
 7961SOL    HW227800   5.917   2.677   9.971  1.4499 -0.5370 -0.2784
 7962SOL     OW27801   4.433   7.562   1.467  0.7068  0.4740 -0.0881
 7962SOL    HW127802   4.413   7.480   1.423  0.8784  0.5900 -0.3855
 7962SOL    HW227803   4.357   7.618   1.449  1.1389  0.8080 -0.9558
 7963SOL     OW27804   8.399   4.418   6.809  0.0894  0.6790 -0.1081
 7963SOL    HW127805   8.365   4.494   6.762  0.5993  0.9067 -0.1149
 7963SOL    HW227806   8.452   4.372   6.744 -0.6785 -0.0075 -0.2732
 7964SOL     OW27807   5.922   7.937   3.076  0.4418  0.0447 -0.4349
 7964SOL    HW127808   5.854   7.944   3.010 -1.5089 -0.2911  1.4250
 7964SOL    HW227809   5.933   7.842   3.088  2.5440  0.0355 -1.9072
 7965SOL     OW27810   0.856   1.749   4.368  0.5772  0.1946 -0.3171
 7965SOL    HW127811   0.767   1.783   4.362  1.2617  2.2303  0.3741
 7965SOL    HW227812   0.871   1.736   4.461  1.4845  1.2879 -0.2939
 7966SOL     OW27813   3.498   4.170   7.763  0.0233  0.1669 -0.1349
 7966SOL    HW127814   3.495   4.264   7.745 -0.1935  0.3389  0.7441
 7966SOL    HW227815   3.441   4.131   7.696  1.8802  0.3991 -1.9342
 7967SOL     OW27816   0.378   9.589   9.927  0.4892 -0.7396  0.1985
 7967SOL    HW127817   0.300   9.549   9.888  0.4333 -0.3686 -0.0760
 7967SOL    HW227818   0.351   9.610  10.017 -0.2185  0.7128 -0.3140
 7968SOL     OW27819   5.023   5.668   8.529 -0.9126  0.3280 -0.4082
 7968SOL    HW127820   4.937   5.628   8.516 -0.4638 -1.0903  0.7949
 7968SOL    HW227821   5.081   5.620   8.471 -0.9456  1.5056 -1.4705
 7969SOL     OW27822   5.300   0.093   7.254 -0.4774  0.1238  0.2747
 7969SOL    HW127823   5.253   0.152   7.314  0.6354  1.6838 -0.3022
 7969SOL    HW227824   5.281   0.128   7.167 -0.1366 -0.6450 -0.1100
 7970SOL     OW27825   7.283   1.556   6.528 -0.0271  0.3035 -0.2968
 7970SOL    HW127826   7.321   1.573   6.442 -1.8650  1.8665 -0.8785
 7970SOL    HW227827   7.358   1.548   6.586  1.2874 -1.1577 -2.0570
 7971SOL     OW27828   8.165   5.597   8.670  0.1732 -0.7437  0.8940
 7971SOL    HW127829   8.137   5.689   8.677 -0.0550 -0.8747  1.9393
 7971SOL    HW227830   8.210   5.580   8.753  0.1952 -1.5836  0.7122
 7972SOL     OW27831   1.030   7.238   4.122  0.2443  0.2137  0.5027
 7972SOL    HW127832   0.938   7.264   4.122  0.1004 -0.2784 -0.1478
 7972SOL    HW227833   1.060   7.258   4.211 -0.9917 -1.4069  1.3344
 7973SOL     OW27834   5.627   4.211   4.794  0.2483 -0.3712  0.0712
 7973SOL    HW127835   5.647   4.260   4.873 -0.6647  0.3987 -0.1470
 7973SOL    HW227836   5.576   4.135   4.824  0.4089 -0.3988  0.2720
 7974SOL     OW27837   5.179  10.045   7.672 -0.9120  0.3003  0.0171
 7974SOL    HW127838   5.227   9.974   7.630 -0.6557  0.0992  0.6409
 7974SOL    HW227839   5.231  10.067   7.749 -0.7510  1.4754 -0.4166
 7975SOL     OW27840   4.359   0.938   3.351 -0.3268 -0.0251 -0.1428
 7975SOL    HW127841   4.389   0.848   3.357  0.3992  0.2005 -0.3552
 7975SOL    HW227842   4.389   0.979   3.432 -2.3269 -0.4376  0.8920
 7976SOL     OW27843  10.133   5.189   4.130 -0.3656  0.6189 -0.1401
 7976SOL    HW127844  10.216   5.182   4.084 -1.6423 -1.0096 -2.3588
 7976SOL    HW227845  10.135   5.119   4.195  0.2542  1.0524  0.3243
 7977SOL     OW27846   8.868   3.078   1.175 -0.0839 -0.3151  0.6818
 7977SOL    HW127847   8.829   2.998   1.140  1.5006  0.4400 -3.4069
 7977SOL    HW227848   8.926   3.048   1.246  0.8447 -2.9120 -1.0322
 7978SOL     OW27849   5.906   2.480   8.803  0.1832  0.3655 -0.5863
 7978SOL    HW127850   5.998   2.500   8.821  0.0526 -0.4956  1.2639
 7978SOL    HW227851   5.884   2.412   8.866 -2.8852  3.3785  1.9904
 7979SOL     OW27852   1.223   8.069   9.942 -0.2172 -0.7342 -0.7415
 7979SOL    HW127853   1.232   7.981   9.977 -1.1526 -1.3161 -1.8702
 7979SOL    HW227854   1.222   8.126  10.019  0.8182 -1.6581 -0.0228
 7980SOL     OW27855   6.880   9.294   7.752  0.4748  0.1623 -0.9908
 7980SOL    HW127856   6.894   9.259   7.840 -1.3540  0.7095 -0.4404
 7980SOL    HW227857   6.876   9.389   7.764  1.0365  0.2978 -1.8077
 7981SOL     OW27858   0.877   1.269   3.596 -0.3471 -0.1443  0.2797
 7981SOL    HW127859   0.954   1.304   3.551  0.4521 -1.6640  0.4338
 7981SOL    HW227860   0.803   1.293   3.539  0.0971  1.9521  0.4787
 7982SOL     OW27861   1.337   8.704   6.412 -0.1642 -0.0758  0.3775
 7982SOL    HW127862   1.323   8.796   6.434  1.0528  0.3903 -0.7156
 7982SOL    HW227863   1.369   8.665   6.494 -0.9489  0.3991  0.9214
 7983SOL     OW27864   8.062   8.232   0.414 -0.0397  0.1747 -0.0511
 7983SOL    HW127865   8.125   8.301   0.434 -1.2145  1.1537  0.4277
 7983SOL    HW227866   8.096   8.155   0.458  0.7993  0.6952  0.2379
 7984SOL     OW27867   8.940   4.406   1.049 -0.0470  0.1000  0.1624
 7984SOL    HW127868   9.006   4.360   1.101  0.3463 -0.1989 -0.5761
 7984SOL    HW227869   8.935   4.494   1.087  1.4873  0.4429 -0.3668
 7985SOL     OW27870   7.229   0.795   3.737  0.3163 -0.7760  0.1553
 7985SOL    HW127871   7.147   0.755   3.766  0.3155 -0.2390  0.9162
 7985SOL    HW227872   7.289   0.782   3.811  0.0130  1.5493  0.8905
 7986SOL     OW27873   1.862   2.485   1.198 -0.2605 -0.2784  0.1042
 7986SOL    HW127874   1.931   2.525   1.145  0.2429 -0.3836  0.6604
 7986SOL    HW227875   1.800   2.450   1.135  0.4143 -0.5607 -0.4219
 7987SOL     OW27876   6.377   1.064   6.210 -0.3864  0.0155 -0.8161
 7987SOL    HW127877   6.323   1.013   6.271  0.0266  0.4831 -0.0423
 7987SOL    HW227878   6.437   1.000   6.172  1.2585  0.1368  1.3820
 7988SOL     OW27879   1.858   5.894   7.493 -0.1258  0.5472  1.0256
 7988SOL    HW127880   1.892   5.967   7.546  0.3948  0.0907  1.3309
 7988SOL    HW227881   1.765   5.913   7.485  0.0768  1.4888  0.7156
 7989SOL     OW27882   7.359   1.392   3.533  0.5366 -0.8553  0.5661
 7989SOL    HW127883   7.344   1.429   3.621  1.5805 -0.7990  0.7353
 7989SOL    HW227884   7.273   1.362   3.505 -0.3536  1.5904  0.4745
 7990SOL     OW27885   2.323   1.071   3.174 -0.2321  0.5327  0.4233
 7990SOL    HW127886   2.337   1.137   3.241 -0.9911  0.5475  0.5845
 7990SOL    HW227887   2.270   1.116   3.107 -2.1238 -0.3042  1.2695
 7991SOL     OW27888   6.969   4.040   5.895  0.4732  0.3772  0.0396
 7991SOL    HW127889   7.045   4.092   5.920  1.3813 -0.3586 -1.1234
 7991SOL    HW227890   6.981   4.022   5.802 -0.0942 -1.4206  0.2705
 7992SOL     OW27891   7.929   9.910   6.917 -0.2190 -0.0281  0.1606
 7992SOL    HW127892   8.013   9.876   6.947  0.2788 -1.1492 -2.2608
 7992SOL    HW227893   7.865   9.867   6.974  0.7292 -0.8126  0.6826
 7993SOL     OW27894   8.722   1.195   6.776 -0.2291 -0.1472  0.1869
 7993SOL    HW127895   8.729   1.104   6.803 -1.1017  0.5023  3.0755
 7993SOL    HW227896   8.628   1.212   6.774 -0.2045  0.1505 -2.7409
 7994SOL     OW27897   9.323   5.104   2.070  0.0413  0.0016  0.1749
 7994SOL    HW127898   9.235   5.122   2.102 -0.0041 -2.4533  1.7197
 7994SOL    HW227899   9.313   5.030   2.011  1.0126 -0.0015 -0.0029
 7995SOL     OW27900   1.749   0.469   4.610 -0.4498 -0.0939 -0.1069
 7995SOL    HW127901   1.725   0.559   4.587  2.5176  0.2564 -2.4577
 7995SOL    HW227902   1.710   0.416   4.540  1.8427  0.0334 -1.5898
 7996SOL     OW27903   4.585   1.489   3.610  0.1358 -0.4661 -0.1751
 7996SOL    HW127904   4.675   1.473   3.640 -0.1471 -0.1281  0.9378
 7996SOL    HW227905   4.590   1.485   3.515  0.6795 -3.8994 -0.1190
 7997SOL     OW27906   2.028   4.421   1.244  0.1359  0.1597 -0.7520
 7997SOL    HW127907   1.976   4.483   1.294 -2.0543 -1.5255 -0.7976
 7997SOL    HW227908   2.104   4.402   1.300  0.4258  2.1931 -0.4055
 7998SOL     OW27909   5.311   6.999   6.034 -0.3723 -0.6683 -0.1383
 7998SOL    HW127910   5.256   6.943   6.089  2.3056 -1.6744  1.7554
 7998SOL    HW227911   5.293   7.088   6.065 -1.5640 -0.8642 -0.2168
 7999SOL     OW27912   5.934   0.646   9.210 -0.3025  0.2018  0.3441
 7999SOL    HW127913   5.839   0.641   9.216 -0.3085  1.5667  2.8985
 7999SOL    HW227914   5.956   0.730   9.250  1.9297  0.5862 -1.4665
 8000SOL     OW27915  10.108   9.423   8.723 -0.4802 -0.5519  0.3249
 8000SOL    HW127916  10.105   9.447   8.631 -2.5564  0.4626  0.6162
 8000SOL    HW227917  10.150   9.336   8.723 -0.8248 -0.7718 -1.5925
 8001SOL     OW27918   3.165  10.172   7.682  0.0165  0.4042  0.3574
 8001SOL    HW127919   3.150  10.084   7.647 -0.3523  1.2880 -1.8651
 8001SOL    HW227920   3.254  10.169   7.716  0.4883 -0.4842 -0.8779
 8002SOL     OW27921   8.103   9.018   8.808  0.4613  0.2100  0.2918
 8002SOL    HW127922   8.083   8.981   8.894 -1.2842  0.8542  0.1917
 8002SOL    HW227923   8.036   8.983   8.750  1.6049 -0.1983 -0.8366
 8003SOL     OW27924   8.295   9.621   0.099  0.5285  0.3610 -0.5566
 8003SOL    HW127925   8.203   9.633   0.124  1.1711  0.4153  2.0482
 8003SOL    HW227926   8.292   9.603   0.005 -2.0167  1.8486 -0.8586
 8004SOL     OW27927   1.794   4.628   6.511 -0.2156 -0.2667 -0.4229
 8004SOL    HW127928   1.828   4.582   6.435 -0.4776 -0.3010 -0.5229
 8004SOL    HW227929   1.869   4.674   6.547  0.0575 -0.8163 -0.2883
 8005SOL     OW27930   8.515   3.945   0.920  0.5493  0.5636 -0.4418
 8005SOL    HW127931   8.598   3.950   0.873  0.6039  0.6694 -0.3306
 8005SOL    HW227932   8.471   4.028   0.902  1.0408  1.0540  0.5997
 8006SOL     OW27933   9.344   5.594   3.637 -0.6125  0.0244 -0.0889
 8006SOL    HW127934   9.352   5.689   3.649  0.2317 -0.1692  1.0609
 8006SOL    HW227935   9.398   5.557   3.706  0.9808 -1.3108 -1.9538
 8007SOL     OW27936   3.422   8.843   6.805  0.2860  0.3834  0.1148
 8007SOL    HW127937   3.402   8.783   6.733 -1.1921  0.9981 -0.0193
 8007SOL    HW227938   3.339   8.856   6.849  0.3781  2.9409 -0.3242
 8008SOL     OW27939   8.767   6.678   9.848  0.2692 -0.4124 -0.0458
 8008SOL    HW127940   8.757   6.639   9.761  1.0862 -1.3746  0.2803
 8008SOL    HW227941   8.704   6.751   9.849  0.1269 -0.5022 -1.3684
 8009SOL     OW27942   4.013   1.132   4.926 -0.3234  0.9628 -0.7462
 8009SOL    HW127943   4.102   1.121   4.894  0.3795  1.8469  0.8184
 8009SOL    HW227944   3.982   1.043   4.943 -0.0978  0.5912 -2.1451
 8010SOL     OW27945   4.223   2.125   8.385 -0.0114 -0.0378  0.4319
 8010SOL    HW127946   4.166   2.135   8.308 -0.2411  0.5340  0.6732
 8010SOL    HW227947   4.273   2.045   8.367 -0.4765 -0.2297 -0.0495
 8011SOL     OW27948   9.258   8.203   5.817  0.6234  0.3249  0.4040
 8011SOL    HW127949   9.331   8.143   5.797 -0.3530 -1.0095  0.6952
 8011SOL    HW227950   9.188   8.145   5.847 -0.9476  1.4649 -0.9461
 8012SOL     OW27951   6.565   0.236   4.958  0.6716 -0.8876 -0.3416
 8012SOL    HW127952   6.610   0.210   4.877 -1.6955 -1.6599 -1.5090
 8012SOL    HW227953   6.474   0.247   4.932  0.0676  0.2178  1.9838
 8013SOL     OW27954   0.300   1.499   8.711  0.4698 -0.0363 -0.1957
 8013SOL    HW127955   0.251   1.455   8.780  1.6619  0.7600  1.2319
 8013SOL    HW227956   0.239   1.506   8.637 -1.2303  0.1243  1.1751
 8014SOL     OW27957   2.366   2.368   4.245 -0.2733 -0.1681  0.1260
 8014SOL    HW127958   2.324   2.321   4.173  2.6438  0.4794 -2.1767
 8014SOL    HW227959   2.450   2.323   4.257  0.5265  1.5004  1.1510
 8015SOL     OW27960   1.384  10.075   9.692  0.1085 -0.1984 -0.2674
 8015SOL    HW127961   1.412   9.984   9.688  1.5899  0.2666 -2.1121
 8015SOL    HW227962   1.295  10.072   9.728  1.6520 -1.9351  4.1466
 8016SOL     OW27963   7.758   4.169   6.253 -0.0757  0.2801  0.1275
 8016SOL    HW127964   7.775   4.126   6.169 -1.4056  2.2234 -1.2242
 8016SOL    HW227965   7.844   4.200   6.282  0.5582 -1.3098  0.0601
 8017SOL     OW27966   3.658   8.656   4.446  0.5681  0.1418  0.2500
 8017SOL    HW127967   3.743   8.616   4.429 -0.2525 -0.8552 -1.7628
 8017SOL    HW227968   3.650   8.656   4.541  2.0282 -1.4602  0.4150
 8018SOL     OW27969   0.070   6.076   0.615 -0.0706 -0.3020  0.4372
 8018SOL    HW127970   0.118   6.002   0.654 -0.9601 -0.5902  1.0237
 8018SOL    HW227971  -0.019   6.043   0.604 -0.6318  0.8669  1.2484
 8019SOL     OW27972   2.786   1.850   1.820  0.3214  0.1169 -0.8013
 8019SOL    HW127973   2.862   1.837   1.762  1.1773 -2.2731  0.6881
 8019SOL    HW227974   2.793   1.779   1.884 -1.5915  1.5620  1.1501
 8020SOL     OW27975   3.940   7.280   8.836 -0.4325  0.2430  0.1010
 8020SOL    HW127976   3.974   7.347   8.896  0.1593  0.8465 -0.8882
 8020SOL    HW227977   3.984   7.298   8.753 -0.0903 -1.5292 -0.1325
 8021SOL     OW27978   5.200   1.983   5.715  0.1428  0.2620 -0.1524
 8021SOL    HW127979   5.211   1.907   5.772 -0.7265 -2.1235 -2.9206
 8021SOL    HW227980   5.290   2.012   5.697  0.5086 -0.3305  0.6541
 8022SOL     OW27981   2.636   1.771   9.859  0.1310 -0.2634  0.2686
 8022SOL    HW127982   2.562   1.793   9.803 -1.2817 -1.7943  1.4365
 8022SOL    HW227983   2.686   1.707   9.809 -0.8910 -1.3090  0.5346
 8023SOL     OW27984   9.956   2.742   7.390  0.3798 -0.0955 -0.1719
 8023SOL    HW127985   9.930   2.703   7.307 -1.1180  0.0903  0.1710
 8023SOL    HW227986   9.901   2.820   7.398 -2.1053 -1.8975  2.5518
 8024SOL     OW27987   4.522   6.036   2.854 -0.3762  0.6234 -0.5596
 8024SOL    HW127988   4.494   6.117   2.897  1.5347  0.8437  0.3787
 8024SOL    HW227989   4.533   6.061   2.762  0.8025  1.6487 -0.1749
 8025SOL     OW27990   2.597   0.684   3.359 -0.2178  0.2725  0.3915
 8025SOL    HW127991   2.526   0.647   3.306  1.0697 -1.3215 -0.3081
 8025SOL    HW227992   2.628   0.611   3.412  1.6529  0.5789 -0.1827
 8026SOL     OW27993   2.960   0.818   4.644 -0.1603 -0.4441  0.5645
 8026SOL    HW127994   2.891   0.795   4.706 -1.0309 -2.1331 -0.9364
 8026SOL    HW227995   2.945   0.761   4.569  0.8228  1.5377 -1.2449
 8027SOL     OW27996   1.724   5.076   7.673  0.2487 -0.1332  0.4822
 8027SOL    HW127997   1.710   5.111   7.762  1.1985 -1.0092  0.9897
 8027SOL    HW227998   1.807   5.114   7.645 -0.4446  0.8047 -0.3957
 8028SOL     OW27999   9.705   5.377   9.279 -0.7454  0.2495 -0.0478
 8028SOL    HW128000   9.686   5.351   9.189 -1.2159  1.1020 -0.1932
 8028SOL    HW228001   9.711   5.294   9.326 -0.6113 -0.2006 -0.8326
 8029SOL     OW28002   6.266   8.619   4.178  0.4036 -0.1680  0.1323
 8029SOL    HW128003   6.309   8.609   4.093  2.0901  1.4981  0.7095
 8029SOL    HW228004   6.212   8.541   4.187  0.8261 -0.7826 -2.0975
 8030SOL     OW28005   9.175   4.183   2.722 -0.5155 -0.8629  0.3651
 8030SOL    HW128006   9.167   4.266   2.675  0.6182 -1.1764 -0.4275
 8030SOL    HW228007   9.125   4.120   2.670  1.6355 -1.4524 -1.1051
 8031SOL     OW28008   8.451   5.756   6.798 -0.2448 -0.5295  0.3029
 8031SOL    HW128009   8.467   5.820   6.730  0.1730 -0.3656  0.5572
 8031SOL    HW228010   8.366   5.781   6.835  0.6334  0.8351  1.4665
 8032SOL     OW28011   0.330   7.366   9.492  0.5002  0.4406  0.2102
 8032SOL    HW128012   0.312   7.320   9.410  3.1720  1.2080 -0.9059
 8032SOL    HW228013   0.378   7.303   9.545 -0.7926  0.1156  1.0377
 8033SOL     OW28014   9.486   6.809   7.196 -0.2559  0.0337  0.3838
 8033SOL    HW128015   9.469   6.900   7.171 -0.9284 -0.3887 -0.8044
 8033SOL    HW228016   9.581   6.802   7.196 -0.2030  0.2834 -1.3835
 8034SOL     OW28017   0.032   6.947   9.962 -0.1133  0.0802  0.3984
 8034SOL    HW128018   0.087   6.983  10.031  0.7792 -0.9582  0.2564
 8034SOL    HW228019   0.073   6.976   9.880  1.2767 -2.0383  0.2467
 8035SOL     OW28020   1.574   8.607   1.112  0.3373  0.1252  0.0282
 8035SOL    HW128021   1.554   8.515   1.098  3.8750 -0.8599  0.5103
 8035SOL    HW228022   1.524   8.631   1.190  0.1236 -1.6784  0.4761
 8036SOL     OW28023   0.687   2.913   2.520 -0.3957  0.4156  0.0225
 8036SOL    HW128024   0.657   2.934   2.432 -0.4691  1.1239  0.2041
 8036SOL    HW228025   0.754   2.980   2.538  0.6665 -0.6020 -0.0450
 8037SOL     OW28026   1.250   5.469   6.429  0.2967 -0.4884 -0.1992
 8037SOL    HW128027   1.257   5.551   6.381 -0.5771  0.4610  1.2440
 8037SOL    HW228028   1.339   5.448   6.455  0.7237 -0.7729 -1.7703
 8038SOL     OW28029   9.414   4.019   3.754  0.4747 -0.0045 -0.0006
 8038SOL    HW128030   9.401   4.114   3.746  1.0395  0.0728 -0.0614
 8038SOL    HW228031   9.337   3.988   3.800  0.6757  0.6104  0.7800
 8039SOL     OW28032   3.870   4.203   7.174 -0.2850 -0.3907 -0.3274
 8039SOL    HW128033   3.786   4.246   7.157  1.0017  1.5625 -2.1927
 8039SOL    HW228034   3.861   4.116   7.134 -0.9513  0.3233 -1.8033
 8040SOL     OW28035   1.456   0.902   8.871  0.3514  0.1994  0.1267
 8040SOL    HW128036   1.445   0.848   8.949  0.4708  1.2652  0.8995
 8040SOL    HW228037   1.546   0.883   8.842  0.1171 -0.6263 -0.1064
 8041SOL     OW28038   1.961   8.187   1.730  0.2288 -0.1368  0.3592
 8041SOL    HW128039   1.876   8.154   1.758 -1.0502  0.9784 -1.8589
 8041SOL    HW228040   2.009   8.110   1.701 -1.3202 -0.5308 -1.3753
 8042SOL     OW28041   2.048   0.288   4.917 -0.7939 -0.0672 -0.5967
 8042SOL    HW128042   2.039   0.208   4.969  1.2915 -0.4153 -0.7030
 8042SOL    HW228043   2.053   0.359   4.982 -2.5968  0.0450 -0.5031
 8043SOL     OW28044  10.175   0.925   8.192  0.3018  0.1167  0.9265
 8043SOL    HW128045  10.173   0.864   8.119 -2.3163  2.5131 -1.2468
 8043SOL    HW228046  10.267   0.953   8.197  0.5216  0.0724 -1.6880
 8044SOL     OW28047   2.141   1.109   5.510 -0.0013 -0.5929 -0.1867
 8044SOL    HW128048   2.183   1.024   5.525 -0.1627 -0.8413 -1.0382
 8044SOL    HW228049   2.167   1.132   5.421 -1.2300 -0.4987 -0.5410
 8045SOL     OW28050   8.148   5.426   9.577  0.4007  0.0039  0.7373
 8045SOL    HW128051   8.061   5.416   9.538  0.4689  0.2365  0.5269
 8045SOL    HW228052   8.188   5.498   9.529  0.5824  0.1206  1.0646
 8046SOL     OW28053   6.272   0.502   9.519 -0.4527  0.3324  0.3111
 8046SOL    HW128054   6.239   0.486   9.430 -1.6048 -1.9610  1.0666
 8046SOL    HW228055   6.206   0.556   9.560 -0.3713  0.6269  0.0584
 8047SOL     OW28056   6.522   6.292   8.863 -0.5479  0.3846  0.2302
 8047SOL    HW128057   6.510   6.357   8.932  0.5254  0.8045  0.0480
 8047SOL    HW228058   6.454   6.227   8.878 -0.4958  0.6140  1.5237
 8048SOL     OW28059   3.084   7.992   2.610  0.5222  0.2977  0.0209
 8048SOL    HW128060   3.004   7.955   2.574  0.7131 -0.9241  0.7747
 8048SOL    HW228061   3.074   8.086   2.599 -1.1039  0.1875  0.2818
 8049SOL     OW28062   1.634   9.911   1.250 -0.3320  0.5985  0.2130
 8049SOL    HW128063   1.557   9.854   1.253 -1.7808  2.3975 -0.4335
 8049SOL    HW228064   1.636   9.954   1.335 -1.5940  2.3745 -0.5838
 8050SOL     OW28065   9.395   3.510   5.956  0.5419  0.6067 -0.0565
 8050SOL    HW128066   9.447   3.564   5.897  0.9918  1.9753  1.5161
 8050SOL    HW228067   9.441   3.516   6.040 -1.3732  0.6895  1.0301
 8051SOL     OW28068   3.096   8.146   2.261 -0.2291  0.4617  0.2944
 8051SOL    HW128069   3.025   8.089   2.231 -0.6812  0.3139  1.5886
 8051SOL    HW228070   3.069   8.173   2.349  0.9722  1.0045  0.5071
 8052SOL     OW28071   9.244   8.560   8.688 -0.6274  0.3443  0.3498
 8052SOL    HW128072   9.193   8.544   8.767 -0.8838 -0.1325  0.0928
 8052SOL    HW228073   9.262   8.472   8.653  0.4109  0.4934  0.4633
 8053SOL     OW28074   0.892   9.713   2.412 -0.2737  0.0007  0.1612
 8053SOL    HW128075   0.859   9.696   2.501 -1.7347 -0.8435 -0.5121
 8053SOL    HW228076   0.901   9.626   2.373 -0.3372  0.4030 -0.7646
 8054SOL     OW28077   7.217   1.210   2.976  0.2165  0.2347  0.4071
 8054SOL    HW128078   7.133   1.165   2.961 -0.0991  0.6947  0.7721
 8054SOL    HW228079   7.217   1.282   2.912  1.2952 -1.0146 -1.0737
 8055SOL     OW28080   6.357   3.122   2.855 -0.2267 -0.0851 -0.1142
 8055SOL    HW128081   6.386   3.188   2.918  3.4799 -1.1959 -0.4313
 8055SOL    HW228082   6.336   3.172   2.776  0.8501  0.9039  0.1869
 8056SOL     OW28083   8.210   8.933   1.263  0.5530  0.6977 -0.1171
 8056SOL    HW128084   8.223   8.913   1.170  0.5738  0.8902 -0.1550
 8056SOL    HW228085   8.119   8.962   1.269  0.5186  0.5809 -0.0587
 8057SOL     OW28086   5.145   9.707   0.088  0.0179 -0.3626  0.1808
 8057SOL    HW128087   5.201   9.785   0.093 -1.2385  0.6116 -0.2857
 8057SOL    HW228088   5.156   9.665   0.173  0.8142  0.2498  0.4055
 8058SOL     OW28089   9.189   1.263   4.203 -0.2312  0.0206 -0.4973
 8058SOL    HW128090   9.185   1.318   4.125  3.2589  2.0938  0.5344
 8058SOL    HW228091   9.252   1.194   4.181  0.2821  0.2374  0.2451
 8059SOL     OW28092   1.338   2.683   2.988 -0.6831 -0.1318 -0.4623
 8059SOL    HW128093   1.245   2.660   2.992 -0.8437  0.4483 -0.7661
 8059SOL    HW228094   1.374   2.625   2.921 -0.6371 -0.9672  0.2683
 8060SOL     OW28095   1.148   3.735   4.185 -0.0872  0.0614  0.1691
 8060SOL    HW128096   1.121   3.755   4.096 -0.1037  0.9484  0.3672
 8060SOL    HW228097   1.145   3.639   4.190  0.8787 -0.0561 -1.0831
 8061SOL     OW28098   3.835   5.766   6.575 -0.1516 -0.3171  0.2114
 8061SOL    HW128099   3.872   5.854   6.564 -0.5670 -0.3141 -1.3570
 8061SOL    HW228100   3.752   5.768   6.528 -1.1421 -0.9860  1.8324
 8062SOL     OW28101   6.528   9.996  10.074  0.3585  0.2413  0.0488
 8062SOL    HW128102   6.462   9.935  10.040 -0.1453  1.1015 -0.5431
 8062SOL    HW228103   6.480  10.076  10.092  0.7921  0.0973  1.9978
 8063SOL     OW28104   4.269   4.070   8.534  0.3842 -0.2647  0.3002
 8063SOL    HW128105   4.192   4.086   8.480  1.2874 -0.9184 -1.2644
 8063SOL    HW228106   4.295   3.981   8.513  0.3379 -0.8516  2.4556
 8064SOL     OW28107   6.431   6.347   3.692  0.1630  0.3250  0.1461
 8064SOL    HW128108   6.461   6.386   3.775 -0.0159 -0.0315  0.3805
 8064SOL    HW228109   6.344   6.314   3.712  0.8301 -1.4140  0.3481
 8065SOL     OW28110   7.998  10.028   6.262  0.2984  0.1731  0.0613
 8065SOL    HW128111   7.996   9.965   6.190  2.0702  0.3981 -0.2163
 8065SOL    HW228112   8.029   9.978   6.337 -0.9979  0.0790  0.5703
 8066SOL     OW28113   1.749   8.363   0.012  0.7855  0.0852  0.7910
 8066SOL    HW128114   1.836   8.401   0.003  1.4727 -1.1710  1.8184
 8066SOL    HW228115   1.718   8.395   0.097  0.9137 -0.7063  1.1480
 8067SOL     OW28116   2.286   8.933   1.574 -0.1008  0.0245  0.5128
 8067SOL    HW128117   2.277   8.890   1.489  1.9138 -2.8094  1.5837
 8067SOL    HW228118   2.208   8.907   1.623 -0.9776  1.1857 -0.2189
 8068SOL     OW28119   0.455   8.130   8.239 -0.8350 -0.4542 -0.5269
 8068SOL    HW128120   0.460   8.220   8.269 -0.9161 -0.9125  0.9026
 8068SOL    HW228121   0.383   8.130   8.177 -1.2513  0.3304 -0.0593
 8069SOL     OW28122   6.236   7.663   6.638 -0.1943  0.1655  0.7050
 8069SOL    HW128123   6.191   7.747   6.639 -0.7481 -0.1305  1.3864
 8069SOL    HW228124   6.209   7.621   6.556  3.4303  2.3906 -1.9292
 8070SOL     OW28125   9.881   0.031   5.530  0.1091 -1.0109 -0.2230
 8070SOL    HW128126   9.901  -0.015   5.449 -1.1131 -1.0153 -0.5275
 8070SOL    HW228127   9.938   0.108   5.529  0.9099 -1.5971 -0.5339
 8071SOL     OW28128   7.340   4.184   6.390 -0.2953  0.8689  0.0317
 8071SOL    HW128129   7.368   4.119   6.454 -0.0129  1.3564  0.4186
 8071SOL    HW228130   7.421   4.229   6.364 -0.0968 -0.5739 -2.1414
 8072SOL     OW28131   2.765   8.081   6.299 -0.1261 -0.5247  0.2165
 8072SOL    HW128132   2.818   8.002   6.292 -0.1550 -0.5579  0.3953
 8072SOL    HW228133   2.795   8.124   6.379  0.6409  0.1876 -0.4194
 8073SOL     OW28134   1.195   0.908   2.713  0.4303  0.3013  0.0181
 8073SOL    HW128135   1.196   0.896   2.618 -2.0037  1.4235 -0.2363
 8073SOL    HW228136   1.109   0.875   2.740  0.5149  1.2997  1.6148
 8074SOL     OW28137   0.615   4.064   4.308 -0.5111  0.3588 -0.4207
 8074SOL    HW128138   0.590   4.055   4.217 -0.5447  2.2966 -0.6582
 8074SOL    HW228139   0.711   4.064   4.307 -0.5007 -0.6857 -0.3049
 8075SOL     OW28140   1.128   8.564   0.951 -0.3192  0.2542  0.0533
 8075SOL    HW128141   1.062   8.611   0.900 -1.0236  0.6317  1.2601
 8075SOL    HW228142   1.200   8.627   0.960  0.2247 -0.1479 -1.2392
 8076SOL     OW28143   0.355   7.524   8.656 -0.0836  0.0319 -0.2775
 8076SOL    HW128144   0.422   7.514   8.723 -0.4190 -0.5581 -0.0255
 8076SOL    HW228145   0.376   7.459   8.589 -0.3372 -0.0828 -0.2496
 8077SOL     OW28146   9.730   9.852   1.075  0.1622 -0.4657 -0.7055
 8077SOL    HW128147   9.776   9.795   1.136 -0.0505 -1.4334 -1.4221
 8077SOL    HW228148   9.773   9.836   0.991 -0.1178  0.1875 -0.9747
 8078SOL     OW28149   6.191   3.419   3.588 -0.7547 -0.0828 -0.4107
 8078SOL    HW128150   6.266   3.431   3.647 -1.9086 -0.9888  1.3139
 8078SOL    HW228151   6.128   3.486   3.615 -0.2956  1.2451 -2.4252
 8079SOL     OW28152   9.039   2.790   2.357  0.3357 -0.1239  0.3413
 8079SOL    HW128153   9.127   2.828   2.352  0.3624 -0.2721 -0.5816
 8079SOL    HW228154   9.052   2.697   2.340 -0.3109  0.3131 -3.6430
 8080SOL     OW28155   5.427   7.470   6.800  0.0436  0.4320  0.2222
 8080SOL    HW128156   5.454   7.486   6.710 -0.1591  2.4718  0.4725
 8080SOL    HW228157   5.451   7.379   6.817 -0.6861 -0.2500 -2.1403
 8081SOL     OW28158   5.342   8.035   6.828 -0.4929 -0.1744  1.0763
 8081SOL    HW128159   5.359   7.964   6.766 -0.6815  0.3529  0.4086
 8081SOL    HW228160   5.407   8.022   6.898 -0.6276 -1.0884  1.0453
 8082SOL     OW28161  10.182   4.499   5.539  0.3658 -0.1314  0.0952
 8082SOL    HW128162  10.230   4.581   5.550  0.7914 -0.1865 -1.1364
 8082SOL    HW228163  10.198   4.451   5.620  1.1337  0.4868  0.3251
 8083SOL     OW28164   0.194   4.495   5.206  0.4682 -0.4924  0.5673
 8083SOL    HW128165   0.188   4.509   5.112 -0.1420 -0.8736  0.5424
 8083SOL    HW228166   0.287   4.502   5.226  0.5151  0.4842  0.0834
 8084SOL     OW28167   1.968   7.890   8.555  0.2036 -0.1801  0.3405
 8084SOL    HW128168   1.970   7.882   8.650  1.1606 -0.0530  0.3403
 8084SOL    HW228169   2.059   7.908   8.530  0.5872 -3.1524 -0.8302
 8085SOL     OW28170   3.790   2.019   1.579  0.1141 -0.0753  0.7740
 8085SOL    HW128171   3.739   1.951   1.536  1.7556 -1.7495  1.3183
 8085SOL    HW228172   3.844   2.057   1.509 -0.7517  0.6544  0.4835
 8086SOL     OW28173   0.936  10.122   7.649 -0.4499  0.3416 -0.3887
 8086SOL    HW128174   1.028  10.100   7.632 -0.3389 -0.7431  1.2698
 8086SOL    HW228175   0.899  10.140   7.563  1.0419 -0.3646 -1.2289
 8087SOL     OW28176   4.893   7.812   3.204  0.2630 -0.4118  0.2078
 8087SOL    HW128177   4.856   7.876   3.265 -0.1244 -0.7799  0.3675
 8087SOL    HW228178   4.913   7.863   3.125  0.9600  0.1046  0.7072
 8088SOL     OW28179   2.724   9.270   8.094  0.0647  0.8942  0.3609
 8088SOL    HW128180   2.650   9.330   8.089 -1.1538 -0.5641  0.3292
 8088SOL    HW228181   2.704   9.201   8.031  1.3154  0.3093  0.5691
 8089SOL     OW28182   3.853   9.737   5.818  0.3733 -0.5258  0.0591
 8089SOL    HW128183   3.825   9.828   5.805  2.4124  0.2524  0.6044
 8089SOL    HW228184   3.774   9.685   5.807 -0.4319  1.0969 -2.5616
 8090SOL     OW28185   5.344   5.741   3.215 -0.3228 -0.2142 -0.4015
 8090SOL    HW128186   5.264   5.794   3.211  0.0253  0.4837  1.0741
 8090SOL    HW228187   5.359   5.713   3.125 -2.6241 -0.9741 -0.6157
 8091SOL     OW28188   2.107   6.087   2.225 -0.4107  0.0083 -0.1171
 8091SOL    HW128189   2.180   6.136   2.262 -0.3238  0.4743 -0.8883
 8091SOL    HW228190   2.121   5.997   2.254  2.1576 -0.5680 -2.6568
 8092SOL     OW28191   3.770   9.578   6.528  0.3366  0.5987  0.1078
 8092SOL    HW128192   3.710   9.634   6.578 -0.2876 -0.6812  0.8163
 8092SOL    HW228193   3.798   9.634   6.455 -0.3624  1.7957  0.7141
 8093SOL     OW28194   6.459   3.308   3.021  0.5649 -0.4553  0.1032
 8093SOL    HW128195   6.403   3.347   3.088 -1.0652  0.1560 -1.5270
 8093SOL    HW228196   6.534   3.367   3.016 -0.1271  0.4615  0.2020
 8094SOL     OW28197   5.883   6.125   7.821 -0.1909 -0.0813  0.0320
 8094SOL    HW128198   5.865   6.149   7.730 -1.8159  1.1551  0.6293
 8094SOL    HW228199   5.799   6.094   7.854 -0.1351  1.3564  1.6415
 8095SOL     OW28200   0.997   4.340   9.952 -0.1319 -0.3530  0.4538
 8095SOL    HW128201   1.087   4.367   9.935 -0.4996  0.6022 -0.0334
 8095SOL    HW228202   0.983   4.267   9.891  0.2072 -0.2921  0.2977
 8096SOL     OW28203   8.445   1.188   8.446  0.7634 -0.3961  0.1582
 8096SOL    HW128204   8.537   1.183   8.419  0.9540  0.2208  0.6537
 8096SOL    HW228205   8.395   1.179   8.365  1.3353  2.4323 -0.5957
 8097SOL     OW28206   1.267   1.376   6.670  0.6666  0.1508 -0.0971
 8097SOL    HW128207   1.223   1.306   6.621  1.4372 -1.0373  0.8665
 8097SOL    HW228208   1.250   1.355   6.762  1.3526  0.9417  0.2165
 8098SOL     OW28209   9.985   7.780   8.548 -0.2053 -0.0215 -0.0600
 8098SOL    HW128210   9.903   7.826   8.567 -0.4099  0.1681 -1.3375
 8098SOL    HW228211  10.053   7.847   8.558 -0.4576  0.4545 -1.4564
 8099SOL     OW28212   7.990   3.373   0.464  0.1794  0.4176  0.0828
 8099SOL    HW128213   7.956   3.315   0.396  1.0218 -0.2485  0.2117
 8099SOL    HW228214   7.913   3.403   0.511 -0.3321  0.0816 -0.5298
 8100SOL     OW28215   4.851   6.916   5.351  0.1519  0.3604 -0.5621
 8100SOL    HW128216   4.828   6.893   5.441  2.1060  0.0640 -0.1001
 8100SOL    HW228217   4.939   6.880   5.338  0.9473  2.5253 -1.7669
 8101SOL     OW28218   4.591   7.556   7.393 -0.3235  0.3504  0.1655
 8101SOL    HW128219   4.522   7.508   7.439  0.5168  0.0279  1.1236
 8101SOL    HW228220   4.546   7.633   7.358 -1.1021  0.3536  1.1144
 8102SOL     OW28221   5.282   5.927   7.604  0.4047 -0.7290  0.0883
 8102SOL    HW128222   5.262   5.972   7.522 -1.1095 -1.6486 -0.0846
 8102SOL    HW228223   5.307   5.997   7.664 -2.3569  0.4862 -0.0298
 8103SOL     OW28224   9.564   0.886   2.448 -0.3481  0.6938  0.3199
 8103SOL    HW128225   9.479   0.924   2.469  0.2759  2.0579  0.4912
 8103SOL    HW228226   9.627   0.935   2.502  0.4739 -0.7978  0.7752
 8104SOL     OW28227   5.407   6.482   2.170 -0.0964  0.0574 -0.9279
 8104SOL    HW128228   5.348   6.539   2.120  0.8548  0.7827 -1.2612
 8104SOL    HW228229   5.360   6.465   2.251 -0.1701  1.8357 -0.5462
 8105SOL     OW28230   1.545   0.693   9.059  0.0279 -0.0833 -0.3782
 8105SOL    HW128231   1.545   0.743   9.140 -0.8551 -2.0835  0.9105
 8105SOL    HW228232   1.577   0.606   9.084  1.1410 -0.3478 -2.4650
 8106SOL     OW28233   1.457   5.084   6.984  0.1100 -0.0713  0.1686
 8106SOL    HW128234   1.479   5.048   7.070  1.9116 -1.0468 -0.6417
 8106SOL    HW228235   1.539   5.123   6.952 -0.3585 -0.2316 -1.3328
 8107SOL     OW28236   3.775   9.151   3.570  0.2124  0.0082 -1.1610
 8107SOL    HW128237   3.797   9.206   3.646 -1.9391 -0.8431  0.2045
 8107SOL    HW228238   3.679   9.150   3.569  0.1633 -2.6469 -1.9138
 8108SOL     OW28239   1.391   6.498   6.239  0.2255 -0.1684  0.1904
 8108SOL    HW128240   1.393   6.463   6.150 -0.6946  0.1024  0.0532
 8108SOL    HW228241   1.460   6.451   6.286  1.4984  0.4992 -0.9539
 8109SOL     OW28242  10.048   8.842   1.759  0.6666 -0.4151  0.1999
 8109SOL    HW128243  10.030   8.935   1.743  2.1257 -0.1044  0.2907
 8109SOL    HW228244  10.088   8.839   1.846  0.0802 -1.2143  0.4614
 8110SOL     OW28245   9.628   8.518   8.525 -0.0256  0.1581 -0.3774
 8110SOL    HW128246   9.668   8.582   8.583  0.9720 -0.2569 -0.5917
 8110SOL    HW228247   9.534   8.528   8.539  0.2034 -0.4331  1.8377
 8111SOL     OW28248   5.614   5.649   7.076 -0.1397 -0.2479 -0.0124
 8111SOL    HW128249   5.692   5.596   7.094  0.0207  0.5103  1.7400
 8111SOL    HW228250   5.645   5.717   7.016  0.3785 -0.3805  0.0960
 8112SOL     OW28251   8.623   3.616   9.307  0.1754 -0.2119 -0.5725
 8112SOL    HW128252   8.660   3.577   9.387  0.5669 -0.8772 -1.0685
 8112SOL    HW228253   8.622   3.710   9.325  1.1902 -0.2648 -0.1654
 8113SOL     OW28254   4.949   8.258   1.822 -0.3432  0.1008  0.4928
 8113SOL    HW128255   4.921   8.183   1.875  0.2522  0.3697  1.1970
 8113SOL    HW228256   5.044   8.249   1.816 -0.2680  0.7896  0.5722
 8114SOL     OW28257   2.905   7.056   6.947 -0.0957  0.0900  0.0651
 8114SOL    HW128258   2.953   7.026   7.024 -0.2031 -1.0611 -0.2970
 8114SOL    HW228259   2.827   6.999   6.944 -0.0662  0.0821 -0.9132
 8115SOL     OW28260   5.461   4.225   5.113 -0.3541  0.4786  0.1645
 8115SOL    HW128261   5.427   4.167   5.045 -0.9760  2.2173 -1.0886
 8115SOL    HW228262   5.383   4.263   5.153  0.0418  0.8202  0.6305
 8116SOL     OW28263   2.909   2.917   4.238  0.2812 -0.2527 -0.1837
 8116SOL    HW128264   2.927   2.855   4.167  0.3795  2.8726 -3.1605
 8116SOL    HW228265   2.818   2.941   4.226  1.0056  2.3154 -1.0884
 8117SOL     OW28266   7.047   9.850   2.157  0.4986  0.1893 -0.8092
 8117SOL    HW128267   7.069   9.927   2.210  1.8995 -0.6143 -0.1948
 8117SOL    HW228268   7.083   9.870   2.070 -3.2499  2.2601 -2.1362
 8118SOL     OW28269   1.561   0.960   0.242  0.1790 -0.6344 -0.2754
 8118SOL    HW128270   1.587   1.034   0.187  0.5476 -0.8003 -0.3297
 8118SOL    HW228271   1.643   0.917   0.264  0.2593  0.5163  1.9930
 8119SOL     OW28272   2.750   3.868   6.981  0.1352 -0.3072  0.1178
 8119SOL    HW128273   2.747   3.953   6.938  0.3088 -1.2706 -1.8865
 8119SOL    HW228274   2.675   3.869   7.041 -0.8163  0.6798 -1.0394
 8120SOL     OW28275   4.887   3.400   8.142  0.1528 -0.4213 -0.0682
 8120SOL    HW128276   4.812   3.396   8.200  0.1079 -2.8167 -0.2049
 8120SOL    HW228277   4.963   3.386   8.199  0.1531 -2.1552 -0.4475
 8121SOL     OW28278   6.279   6.730   0.240  0.2416 -0.1488 -0.4047
 8121SOL    HW128279   6.362   6.700   0.203  0.5971  1.0075 -0.5808
 8121SOL    HW228280   6.288   6.825   0.246 -1.3586  0.0978 -1.1724
 8122SOL     OW28281   6.291   1.794   2.527  0.0175  0.3275 -0.1541
 8122SOL    HW128282   6.318   1.737   2.599 -2.4642 -0.3022  0.3868
 8122SOL    HW228283   6.336   1.877   2.544  0.1056 -0.0581  1.7112
 8123SOL     OW28284   5.890   8.693   7.866 -0.8223  0.2489  0.2849
 8123SOL    HW128285   5.861   8.634   7.936 -1.6287 -1.3175 -1.2959
 8123SOL    HW228286   5.893   8.638   7.788  2.3217  1.3747 -0.5308
 8124SOL     OW28287   1.043   8.576   6.022 -0.3425  0.6049 -0.1673
 8124SOL    HW128288   1.041   8.508   6.090  0.7067  1.0381  0.3207
 8124SOL    HW228289   1.018   8.530   5.942  0.9024 -0.5277  0.0389
 8125SOL     OW28290   3.444   6.334   5.141 -0.3478 -0.2893 -0.2320
 8125SOL    HW128291   3.381   6.404   5.124  0.2417 -0.3513 -3.4296
 8125SOL    HW228292   3.393   6.263   5.177 -1.8258  0.2533 -1.1779
 8126SOL     OW28293   4.734   1.712   1.284 -0.5264  0.3649 -0.3264
 8126SOL    HW128294   4.647   1.736   1.253 -0.1217  0.9899 -1.0263
 8126SOL    HW228295   4.720   1.638   1.342 -1.6749  1.3651  0.7109
 8127SOL     OW28296   9.015   0.036   7.902 -0.2786 -0.0843 -0.2028
 8127SOL    HW128297   9.053  -0.050   7.921 -1.9554 -0.7957  0.1612
 8127SOL    HW228298   9.090   0.093   7.889  0.9079 -1.8203 -1.4795
 8128SOL     OW28299   3.549   2.818   4.175 -0.4692 -0.1337 -0.1789
 8128SOL    HW128300   3.633   2.852   4.207  0.6108 -1.7694 -1.1250
 8128SOL    HW228301   3.563   2.723   4.169 -2.0101 -0.3128 -1.4615
 8129SOL     OW28302   8.324   9.235   4.541  0.8414  0.3146  0.4133
 8129SOL    HW128303   8.354   9.275   4.623 -1.5003  1.5949  0.7441
 8129SOL    HW228304   8.357   9.293   4.472  2.0866 -0.2886  0.4754
 8130SOL     OW28305   7.633   9.148   0.631  0.4288 -0.8034  0.0754
 8130SOL    HW128306   7.599   9.236   0.648  0.9620 -1.0299  2.7691
 8130SOL    HW228307   7.697   9.161   0.561  0.8240  1.0533  0.7173
 8131SOL     OW28308   5.099   0.496   7.240 -0.8008 -0.3528  0.4005
 8131SOL    HW128309   5.155   0.564   7.278  0.2917 -1.3604  0.6611
 8131SOL    HW228310   5.029   0.544   7.196  1.0182  1.0360 -1.1495
 8132SOL     OW28311   7.306   5.814   2.755  0.1663 -0.1697 -0.3666
 8132SOL    HW128312   7.350   5.882   2.806  2.0786 -0.7791 -1.1328
 8132SOL    HW228313   7.352   5.733   2.778 -0.6453 -0.8579 -1.1032
 8133SOL     OW28314   5.590   4.027   4.366 -0.3133  0.0334  0.6708
 8133SOL    HW128315   5.523   3.977   4.413 -0.6513  0.4498  0.6388
 8133SOL    HW228316   5.559   4.029   4.275  0.4028 -0.8827  0.3883
 8134SOL     OW28317   1.638   2.710   1.970  0.3568  0.1909 -0.6122
 8134SOL    HW128318   1.698   2.780   1.995  0.2246 -0.4376  1.8144
 8134SOL    HW228319   1.555   2.754   1.951  0.5233  0.7739 -0.0231
 8135SOL     OW28320   2.364   9.277   2.151 -0.0942  0.6353  0.0049
 8135SOL    HW128321   2.355   9.215   2.079  0.1621 -1.0221  1.3139
 8135SOL    HW228322   2.422   9.345   2.118 -0.9637  0.5731 -1.7364
 8136SOL     OW28323   6.139   0.112   2.203  0.0809 -0.4249 -0.1026
 8136SOL    HW128324   6.066   0.161   2.241  1.5665 -0.0393  2.4515
 8136SOL    HW228325   6.182   0.175   2.144 -0.5487 -0.0575 -0.1721
 8137SOL     OW28326   8.044   4.575   2.270  0.1814  0.2421  0.0860
 8137SOL    HW128327   7.999   4.532   2.342 -1.5133  0.8352 -0.5761
 8137SOL    HW228328   8.038   4.512   2.197 -0.9402  0.9347 -0.4379
 8138SOL     OW28329   7.903   7.327   3.622 -0.3339 -0.2089 -0.2437
 8138SOL    HW128330   7.914   7.415   3.585  0.4383  0.1616  0.7921
 8138SOL    HW228331   7.954   7.329   3.703  0.1371 -1.7945 -0.4615
 8139SOL     OW28332   0.684   9.283   2.807  0.1868  0.5293  0.2339
 8139SOL    HW128333   0.616   9.242   2.860 -0.1810  0.1204 -0.5409
 8139SOL    HW228334   0.733   9.210   2.769  2.7915  0.7144  2.8201
 8140SOL     OW28335   5.842   4.861   0.794 -0.4777  0.2150  0.6360
 8140SOL    HW128336   5.839   4.888   0.702 -0.2650 -1.1231  0.2265
 8140SOL    HW228337   5.771   4.798   0.804  0.8564 -1.3319  0.8124
 8141SOL     OW28338   4.963   7.759   7.189  0.2283 -0.2237  0.9943
 8141SOL    HW128339   4.996   7.793   7.106 -0.4049  1.4410  1.3845
 8141SOL    HW228340   4.912   7.682   7.164  0.0890  0.2183 -0.1571
 8142SOL     OW28341   3.636   2.818   7.740 -0.0340 -0.5475 -0.3592
 8142SOL    HW128342   3.708   2.867   7.779 -1.0001 -0.9335  2.0557
 8142SOL    HW228343   3.659   2.812   7.647  1.4273  2.1322 -0.2734
 8143SOL     OW28344   8.842   8.534   7.172 -0.4526 -0.1473 -0.1427
 8143SOL    HW128345   8.772   8.575   7.222  0.6062  0.2895  1.0566
 8143SOL    HW228346   8.817   8.442   7.166  0.0992 -0.5611  2.6406
 8144SOL     OW28347   6.523   8.012   9.277 -0.3868 -0.0080  0.0586
 8144SOL    HW128348   6.465   8.088   9.268  1.5203  1.4080 -0.8887
 8144SOL    HW228349   6.484   7.946   9.218 -2.1978  0.0873  1.0707
 8145SOL     OW28350   7.843   3.075   8.550  1.2989 -0.0675  0.5405
 8145SOL    HW128351   7.774   3.040   8.606  0.3424  0.4818 -0.2694
 8145SOL    HW228352   7.910   3.007   8.549 -0.8206 -2.2994 -1.6155
 8146SOL     OW28353   6.588   4.164   6.162 -0.0759 -0.2816  0.1034
 8146SOL    HW128354   6.627   4.174   6.075 -3.1067  0.3214 -1.2907
 8146SOL    HW228355   6.582   4.253   6.195  0.8006 -0.4862  0.8661
 8147SOL     OW28356   9.263   9.889   8.580  0.0429 -0.2731 -0.0806
 8147SOL    HW128357   9.176   9.877   8.544  0.9837  0.2208 -2.7477
 8147SOL    HW228358   9.305   9.804   8.572 -0.0043 -0.3788  0.7097
 8148SOL     OW28359   6.310   6.193   6.386 -0.6788 -0.1509 -0.0185
 8148SOL    HW128360   6.351   6.274   6.358  0.7971 -1.2445 -1.2148
 8148SOL    HW228361   6.355   6.169   6.467  0.2729 -0.7346 -0.6966
 8149SOL     OW28362   3.296   9.293   0.175 -0.4739 -0.0979  0.0561
 8149SOL    HW128363   3.326   9.383   0.161 -0.5439 -0.4575 -3.1190
 8149SOL    HW228364   3.376   9.241   0.178 -0.4959 -0.1566 -0.3100
 8150SOL     OW28365   9.319   6.514   6.216 -0.6196 -0.1943 -0.1589
 8150SOL    HW128366   9.357   6.537   6.131 -1.1446 -1.1725 -0.6725
 8150SOL    HW228367   9.314   6.597   6.263  0.8925  0.1662 -0.5777
 8151SOL     OW28368   7.454   7.476   6.569  0.0670  0.0734  0.6731
 8151SOL    HW128369   7.478   7.567   6.587  0.3686 -0.0227  0.7625
 8151SOL    HW228370   7.377   7.483   6.513  0.0183  0.3841  0.7730
 8152SOL     OW28371   9.769   7.082   9.827  0.3456 -0.2413  0.1216
 8152SOL    HW128372   9.835   7.044   9.885  0.5423 -1.4281 -0.8528
 8152SOL    HW228373   9.809   7.081   9.740 -0.1784  0.9494 -0.1572
 8153SOL     OW28374   1.104   8.686   8.361  0.3120  0.3364  0.0691
 8153SOL    HW128375   1.139   8.768   8.396  1.3308  0.7669 -1.7894
 8153SOL    HW228376   1.175   8.651   8.308  0.3457 -2.4129  1.7406
 8154SOL     OW28377   2.126   7.966   3.817  0.2801 -0.3871 -0.0740
 8154SOL    HW128378   2.047   7.999   3.773 -0.3563 -0.2395  1.1549
 8154SOL    HW228379   2.197   7.988   3.757 -0.5347  0.0425 -0.9112
 8155SOL     OW28380   9.826   4.481   4.624  0.1663 -0.4477 -0.4680
 8155SOL    HW128381   9.895   4.547   4.620  1.2269 -1.5275 -0.5493
 8155SOL    HW228382   9.866   4.402   4.587 -0.7262 -1.4213  0.5673
 8156SOL     OW28383   7.356   9.089   9.263  0.3642  0.1107  0.5070
 8156SOL    HW128384   7.428   9.100   9.201 -0.3961 -2.3769 -0.9714
 8156SOL    HW228385   7.277   9.104   9.211 -0.2573  1.0762  1.6822
 8157SOL     OW28386   4.761   3.744   5.815  0.1226  0.2439  0.1682
 8157SOL    HW128387   4.787   3.829   5.780  1.0600  0.0279  0.2950
 8157SOL    HW228388   4.842   3.710   5.855  0.1119 -1.2880 -1.0642
 8158SOL     OW28389   3.374   6.872   8.178  0.2764  0.3474 -0.1559
 8158SOL    HW128390   3.366   6.963   8.148 -3.6791  0.2034 -0.0974
 8158SOL    HW228391   3.367   6.878   8.273  1.6401  0.0142 -0.0100
 8159SOL     OW28392   3.096   0.126   7.468 -0.4378 -0.2590 -0.1409
 8159SOL    HW128393   3.119   0.060   7.534 -0.6216  1.5003  1.7886
 8159SOL    HW228394   3.059   0.075   7.396  0.1363 -2.3133  0.9141
 8160SOL     OW28395   7.618   0.788   5.710 -0.1688 -0.1084 -0.1446
 8160SOL    HW128396   7.583   0.831   5.788 -1.7733  0.1074 -0.9626
 8160SOL    HW228397   7.672   0.854   5.668  0.8650 -0.2814  0.8437
 8161SOL     OW28398   0.037   1.676   6.092 -0.1306 -0.5009  0.4895
 8161SOL    HW128399   0.052   1.591   6.051  2.0294 -0.7510  1.6241
 8161SOL    HW228400   0.124   1.704   6.121 -0.8417  1.9319  0.5001
 8162SOL     OW28401   5.246   7.954  10.181  0.6506  0.1916  0.3986
 8162SOL    HW128402   5.327   7.907  10.199  0.2192 -0.8283 -0.2827
 8162SOL    HW228403   5.274   8.028  10.126  1.1745  0.0991  0.5292
 8163SOL     OW28404   2.527   8.716   2.662 -0.4293 -0.7661 -0.2257
 8163SOL    HW128405   2.563   8.627   2.658  1.7363  0.0002  0.5764
 8163SOL    HW228406   2.555   8.757   2.581  2.4190  0.4248  1.2082
 8164SOL     OW28407   6.766   2.372   9.211 -0.1113 -0.1880  0.5604
 8164SOL    HW128408   6.711   2.356   9.289 -0.3057  1.7575  0.8661
 8164SOL    HW228409   6.731   2.452   9.173  1.8386  0.5231  0.1436
 8165SOL     OW28410   0.019   0.748   8.617  0.7772 -0.1201 -0.5629
 8165SOL    HW128411   0.036   0.739   8.523 -2.2720 -1.2129 -1.1240
 8165SOL    HW228412   0.007   0.658   8.648  1.0136  0.2747  0.7218
 8166SOL     OW28413   2.177   6.347   1.468  0.2273  0.0008  0.0125
 8166SOL    HW128414   2.215   6.434   1.470 -1.8706  1.0169 -1.1561
 8166SOL    HW228415   2.091   6.359   1.428 -0.7659 -2.3645  1.2218
 8167SOL     OW28416   3.250   0.673   7.008  0.3542 -0.1112  0.5030
 8167SOL    HW128417   3.244   0.763   6.977 -1.1296 -0.6177 -0.8759
 8167SOL    HW228418   3.218   0.621   6.934  1.2891 -1.7760  1.2189
 8168SOL     OW28419   0.238   7.267   2.448 -0.1513 -0.2940  0.8159
 8168SOL    HW128420   0.190   7.306   2.521  0.9197  0.4122  1.1493
 8168SOL    HW228421   0.262   7.180   2.479  1.5807  0.5379  1.8896
 8169SOL     OW28422   8.104   3.033   4.956 -0.4833  0.3360  0.6923
 8169SOL    HW128423   8.049   3.110   4.961 -0.1950  0.4796  2.1335
 8169SOL    HW228424   8.173   3.056   4.893 -2.3184 -0.0744 -1.6070
 8170SOL     OW28425   0.350   3.675   5.720  0.3486 -0.8681 -0.2951
 8170SOL    HW128426   0.372   3.586   5.693  1.7933 -0.1134 -1.8296
 8170SOL    HW228427   0.371   3.729   5.644  0.5523  0.9148  0.9486
 8171SOL     OW28428   0.887   4.702   2.519 -0.1163 -0.0857 -0.3250
 8171SOL    HW128429   0.903   4.630   2.458 -0.9657 -0.1307 -0.5089
 8171SOL    HW228430   0.956   4.694   2.584  1.3956  0.5564 -1.7916
 8172SOL     OW28431   0.609   8.032   7.952 -0.6016 -1.0699 -0.3012
 8172SOL    HW128432   0.523   8.076   7.957  0.5702  1.6090 -1.5064
 8172SOL    HW228433   0.629   8.031   7.859  2.0892  1.5988  0.0926
 8173SOL     OW28434   8.625   3.983   6.341 -0.0564 -0.0828  0.0212
 8173SOL    HW128435   8.625   3.972   6.436  2.1000  0.7988  0.1596
 8173SOL    HW228436   8.628   3.894   6.307 -0.4142 -0.3935  0.7742
 8174SOL     OW28437   6.804   8.108   1.291  0.2007 -0.1577  0.6911
 8174SOL    HW128438   6.852   8.137   1.213  0.2507 -0.6156  0.5530
 8174SOL    HW228439   6.862   8.045   1.333 -0.4052 -0.9596  0.3540
 8175SOL     OW28440   7.466   0.504   7.224  0.2148  0.2941  0.1455
 8175SOL    HW128441   7.430   0.583   7.182  0.4152  0.4366  0.2405
 8175SOL    HW228442   7.521   0.465   7.156  3.3548  2.3827  1.3129
 8176SOL     OW28443   4.263   7.392   0.630  0.2016  0.5335 -0.1976
 8176SOL    HW128444   4.303   7.306   0.619  1.0088  0.8347  0.2537
 8176SOL    HW228445   4.335   7.454   0.617 -0.0551  1.0828  0.8738
 8177SOL     OW28446   0.444   4.868   3.149  0.2279  0.4789  0.1114
 8177SOL    HW128447   0.448   4.907   3.236  0.6931  1.4923 -0.3429
 8177SOL    HW228448   0.519   4.906   3.102  0.4350 -0.6311 -0.4959
 8178SOL     OW28449   0.427   5.780   8.381 -0.2902  0.3235 -0.1559
 8178SOL    HW128450   0.443   5.763   8.288  0.6655  0.8042 -0.0880
 8178SOL    HW228451   0.431   5.694   8.422  0.8714  0.2815 -0.3348
 8179SOL     OW28452   2.599   3.349   6.517 -0.7336 -0.3661 -0.1484
 8179SOL    HW128453   2.681   3.304   6.535 -0.9552 -0.7938 -0.1670
 8179SOL    HW228454   2.624   3.438   6.495 -0.4521  0.1873  2.2001
 8180SOL     OW28455   7.242   9.891   8.025  0.3994  0.1837  0.3752
 8180SOL    HW128456   7.244   9.902   7.930 -1.3213 -0.1378  0.2670
 8180SOL    HW228457   7.275   9.802   8.040  0.1191  0.0201  0.0226
 8181SOL     OW28458   4.479   9.646   0.055  0.2485  0.0479 -0.1105
 8181SOL    HW128459   4.509   9.679  -0.030  0.4948  1.2259  0.4176
 8181SOL    HW228460   4.384   9.653   0.052  0.1901 -0.7960 -0.6261
 8182SOL     OW28461   4.604   6.950   5.971  0.5607 -0.3779 -0.1155
 8182SOL    HW128462   4.523   6.944   5.920  0.0568  1.4798  0.3789
 8182SOL    HW228463   4.587   6.897   6.049  0.1574 -0.7232 -0.4312
 8183SOL     OW28464   0.412   3.084   2.653 -0.0393  0.0021  0.1207
 8183SOL    HW128465   0.416   3.023   2.579  2.8754 -0.6995  0.7334
 8183SOL    HW228466   0.504   3.099   2.677 -0.7452  2.8069  1.5186
 8184SOL     OW28467   1.248   7.798   0.465  0.2354 -0.5261  0.3200
 8184SOL    HW128468   1.308   7.846   0.408  1.7684 -0.9483  1.4993
 8184SOL    HW228469   1.184   7.863   0.494  0.2305 -0.0121 -0.7903
 8185SOL     OW28470   1.018   5.181   3.973  0.1599  0.7998  0.6829
 8185SOL    HW128471   0.927   5.175   4.002 -0.5037  1.5340 -1.1186
 8185SOL    HW228472   1.012   5.210   3.882  2.2112  0.9955  0.5751
 8186SOL     OW28473   9.267   3.264   2.053 -0.3935  0.5327  0.2341
 8186SOL    HW128474   9.209   3.281   2.127  0.4306  4.7184  0.1969
 8186SOL    HW228475   9.353   3.295   2.082  0.9018 -1.4556 -1.1907
 8187SOL     OW28476   0.079   5.319   8.576  0.0340  0.3843 -0.0774
 8187SOL    HW128477  -0.013   5.342   8.561  0.1794  0.9337 -0.1721
 8187SOL    HW228478   0.127   5.378   8.518  0.4549  0.2305  0.1138
 8188SOL     OW28479   3.221   2.197   7.337  0.6329  0.0128 -0.2071
 8188SOL    HW128480   3.125   2.195   7.328  0.7613  0.7834 -2.5863
 8188SOL    HW228481   3.253   2.180   7.248  2.6660  1.2156  0.2371
 8189SOL     OW28482   7.582   4.356   0.314 -0.2981  0.2805 -0.0369
 8189SOL    HW128483   7.584   4.260   0.321 -1.8464  0.0609 -1.8229
 8189SOL    HW228484   7.504   4.382   0.362 -2.9878  0.0308 -3.8258
 8190SOL     OW28485   5.164   9.327   3.346  0.0724 -0.2565  0.2240
 8190SOL    HW128486   5.258   9.330   3.366 -0.1175  0.4191  1.1145
 8190SOL    HW228487   5.158   9.275   3.266  1.3637  1.0463 -0.7793
 8191SOL     OW28488   6.534   8.288   0.972  0.0122 -0.1200 -0.5768
 8191SOL    HW128489   6.584   8.295   1.053  0.7766 -0.0017 -1.0479
 8191SOL    HW228490   6.456   8.238   0.996 -0.4511  1.0799  0.5283
 8192SOL     OW28491   0.442   5.049   6.935 -0.5075  0.1949  0.1794
 8192SOL    HW128492   0.418   5.097   6.856  1.0942  0.6465 -0.0660
 8192SOL    HW228493   0.471   4.963   6.904 -0.0085  0.3230  0.2861
 8193SOL     OW28494   5.886   1.522   3.438  0.5381 -0.2064 -0.9761
 8193SOL    HW128495   5.915   1.500   3.527  0.8243  1.8433 -0.5188
 8193SOL    HW228496   5.816   1.585   3.451 -1.8594 -2.4482 -2.1698
 8194SOL     OW28497   5.567  10.172   5.377 -0.4639  0.2394  0.1409
 8194SOL    HW128498   5.590  10.265   5.379 -0.2294  0.2407 -1.2940
 8194SOL    HW228499   5.564  10.150   5.284  2.2603 -1.8416  0.4132
 8195SOL     OW28500   5.011   1.359   1.409  0.0505  0.3233 -0.6114
 8195SOL    HW128501   5.005   1.339   1.502 -0.4627  3.5534  0.1599
 8195SOL    HW228502   5.103   1.382   1.395 -0.0605  0.7223 -0.6934
 8196SOL     OW28503   3.932  10.162   7.216 -0.3371 -0.6648 -0.2987
 8196SOL    HW128504   3.900  10.151   7.305 -0.6882 -0.0638 -0.3419
 8196SOL    HW228505   3.853  10.169   7.162 -0.1302 -1.6227 -0.7456
 8197SOL     OW28506   7.487   4.124   4.784 -0.3418 -0.2450  0.4363
 8197SOL    HW128507   7.477   4.162   4.696  0.5667 -0.2501  0.3287
 8197SOL    HW228508   7.530   4.192   4.835  2.2510 -1.4322 -0.0190
 8198SOL     OW28509   7.038   9.794   2.503 -0.4182  0.1964  0.0839
 8198SOL    HW128510   7.123   9.822   2.470  0.2456 -1.3032  0.4937
 8198SOL    HW228511   7.023   9.709   2.463 -1.4317  0.1400  0.5480
 8199SOL     OW28512   7.851   5.644   9.354  0.0310  0.0233  0.2682
 8199SOL    HW128513   7.803   5.684   9.282  1.1846  0.6051 -0.2007
 8199SOL    HW228514   7.930   5.698   9.363  0.6187 -0.9301  0.9875
 8200SOL     OW28515   4.880   3.292   9.178  0.0746 -0.3815 -0.2254
 8200SOL    HW128516   4.807   3.231   9.195  0.6227 -0.8647  0.4218
 8200SOL    HW228517   4.910   3.318   9.265  0.9975 -0.5798 -0.4766
 8201SOL     OW28518   3.897   2.380   4.314  0.5387 -0.0540 -0.2205
 8201SOL    HW128519   3.849   2.429   4.380  0.3981 -0.3070 -0.1348
 8201SOL    HW228520   3.852   2.399   4.232 -0.4269 -1.2021  0.0171
 8202SOL     OW28521   2.290   9.650   4.585 -0.9020  0.2692 -0.2655
 8202SOL    HW128522   2.211   9.658   4.532 -0.9046 -1.3365 -0.5556
 8202SOL    HW228523   2.340   9.730   4.565 -2.6482  1.5865  0.3470
 8203SOL     OW28524   7.511   7.746   6.659  0.0678 -0.1078  0.0417
 8203SOL    HW128525   7.489   7.729   6.751  1.2970  0.6066  0.4846
 8203SOL    HW228526   7.545   7.835   6.658  1.1364 -0.5022 -0.9189
 8204SOL     OW28527   0.124   5.367   2.423 -0.1135  0.1172  0.8058
 8204SOL    HW128528   0.171   5.339   2.345  0.2080  1.7310  0.3870
 8204SOL    HW228529   0.059   5.298   2.439  1.0185 -1.1254  0.1995
 8205SOL     OW28530   6.833   6.276   6.300 -0.4073  0.3509 -0.5828
 8205SOL    HW128531   6.797   6.235   6.379 -0.4679 -1.1158 -1.3517
 8205SOL    HW228532   6.795   6.227   6.228  0.3391  1.1061 -1.5099
 8206SOL     OW28533   3.711   9.915   5.655 -0.9021  0.1770  0.0513
 8206SOL    HW128534   3.639   9.961   5.697 -1.2999 -0.8226  0.5162
 8206SOL    HW228535   3.670   9.840   5.612 -0.0657 -0.8774  1.0211
 8207SOL     OW28536   8.873   8.006   7.146 -0.6437  0.2827  0.3705
 8207SOL    HW128537   8.799   7.946   7.151 -0.2768 -0.2693 -0.5942
 8207SOL    HW228538   8.835   8.093   7.158 -1.1773 -0.1222  1.7957
 8208SOL     OW28539   3.480   5.254   8.340 -0.1122 -0.2065  0.2794
 8208SOL    HW128540   3.429   5.186   8.297 -0.1987 -0.3245  0.5683
 8208SOL    HW228541   3.453   5.335   8.296 -1.1349 -0.1694  0.9596
 8209SOL     OW28542   0.452   5.756   2.762 -0.6226 -0.2178 -0.1158
 8209SOL    HW128543   0.464   5.835   2.815 -0.6316 -0.0658 -0.3340
 8209SOL    HW228544   0.486   5.685   2.815  2.1928  0.2894 -1.0698
 8210SOL     OW28545   2.021   2.295   4.379 -0.2306 -0.2883  0.1307
 8210SOL    HW128546   2.073   2.375   4.383 -0.2366 -0.2646 -0.2533
 8210SOL    HW228547   1.932   2.323   4.402 -0.1351 -0.2767  0.4964
 8211SOL     OW28548   4.821   7.687   7.878  0.4485 -0.1196 -0.7260
 8211SOL    HW128549   4.759   7.744   7.833  0.5519 -0.2276 -1.0094
 8211SOL    HW228550   4.907   7.712   7.844  0.6778  0.7602  0.4554
 8212SOL     OW28551   8.602   0.956   7.641  0.1973 -0.1742 -0.8104
 8212SOL    HW128552   8.685   1.001   7.627  0.7457 -0.0627  2.2568
 8212SOL    HW228553   8.604   0.882   7.579  1.6451  0.9503 -2.1638
 8213SOL     OW28554   0.952   5.563   8.519 -0.3524 -0.1009 -0.1910
 8213SOL    HW128555   1.014   5.505   8.563 -0.7604 -0.6959 -0.3871
 8213SOL    HW228556   0.959   5.540   8.427  0.0405  0.7042 -0.3738
 8214SOL     OW28557   1.852   5.995   1.643 -0.3914  0.0898  0.3109
 8214SOL    HW128558   1.757   5.996   1.640 -0.3831 -0.3233 -0.4586
 8214SOL    HW228559   1.879   6.037   1.562  0.1399  3.4050  2.0332
 8215SOL     OW28560   1.549   9.471   4.640 -0.0966 -0.9421  0.0117
 8215SOL    HW128561   1.598   9.532   4.695  0.4204 -0.9176 -0.4706
 8215SOL    HW228562   1.498   9.419   4.702 -2.0763  1.2404  0.3768
 8216SOL     OW28563   0.424   2.358   2.461  0.0467  0.0758  0.1182
 8216SOL    HW128564   0.473   2.383   2.383 -1.1387 -0.5564 -0.8468
 8216SOL    HW228565   0.373   2.281   2.435 -2.1317  1.1961  0.8008
 8217SOL     OW28566   3.092   2.160   5.774 -0.0904  0.3707  0.3966
 8217SOL    HW128567   3.120   2.083   5.824  0.9138  0.6053  0.2126
 8217SOL    HW228568   3.161   2.224   5.788  0.5677  0.2280 -1.7746
 8218SOL     OW28569   4.984   3.756   1.066  0.4791  0.2903 -0.5281
 8218SOL    HW128570   5.005   3.849   1.068  0.0095  0.3993  1.3786
 8218SOL    HW228571   4.890   3.753   1.081  0.8201 -0.5250  1.8257
 8219SOL     OW28572   8.897   4.884   3.994  0.4538 -0.1547  0.1085
 8219SOL    HW128573   8.985   4.914   4.015  0.7412 -1.1618  0.4167
 8219SOL    HW228574   8.888   4.801   4.040  0.0782 -1.0449 -1.4748
 8220SOL     OW28575   4.339   4.656   4.236  0.2338 -0.1767 -0.9320
 8220SOL    HW128576   4.415   4.712   4.248 -0.5289  1.0340 -1.5976
 8220SOL    HW228577   4.277   4.684   4.303  0.2603 -1.0004 -0.5463
 8221SOL     OW28578   2.371   2.082   4.419 -0.4442  0.0140  0.2200
 8221SOL    HW128579   2.341   2.041   4.499  2.0708  0.4685  1.4987
 8221SOL    HW228580   2.436   2.147   4.447  2.9439 -1.9645 -2.2285
 8222SOL     OW28581   0.171   8.245   6.638  0.2205  0.5639  0.1357
 8222SOL    HW128582   0.118   8.223   6.561 -1.3941  0.7412  1.1489
 8222SOL    HW228583   0.107   8.269   6.705  1.5899  0.4894  1.5235
 8223SOL     OW28584   4.095   8.236   5.871 -0.1518  0.2159  0.6084
 8223SOL    HW128585   4.063   8.146   5.878  0.1715  0.2065  3.4178
 8223SOL    HW228586   4.016   8.289   5.862 -0.4601 -0.2531  0.5187
 8224SOL     OW28587   3.532   3.202   2.571 -0.3265  0.0657  0.5773
 8224SOL    HW128588   3.487   3.142   2.512 -0.0943 -0.5793  1.0453
 8224SOL    HW228589   3.618   3.216   2.530 -1.2059  1.9849 -0.7714
 8225SOL     OW28590   7.199   0.482   8.005 -0.3944 -0.2703  0.8336
 8225SOL    HW128591   7.208   0.556   7.945 -1.2735 -0.3760  0.5467
 8225SOL    HW228592   7.207   0.405   7.949 -0.7560 -0.3730  0.9162
 8226SOL     OW28593   7.804   2.652   9.540  0.0490  0.5482 -0.2033
 8226SOL    HW128594   7.887   2.646   9.494 -0.3395  0.1269 -0.8647
 8226SOL    HW228595   7.783   2.562   9.564  0.8886  0.8688  2.0143
 8227SOL     OW28596   0.423   0.351   5.708 -0.5551  0.6596  0.4101
 8227SOL    HW128597   0.389   0.414   5.644  2.0947  2.4886  0.6399
 8227SOL    HW228598   0.428   0.400   5.790 -2.0618 -1.0812  1.6284
 8228SOL     OW28599   5.724   3.613   0.619  0.2511  0.1988  0.2011
 8228SOL    HW128600   5.813   3.645   0.632  0.1888 -0.1798  1.7426
 8228SOL    HW228601   5.668   3.684   0.651 -0.0038  0.3003 -0.4495
 8229SOL     OW28602   7.349   4.960   5.498  0.1529 -0.2077  0.2791
 8229SOL    HW128603   7.267   5.008   5.496 -0.6814 -1.6011 -0.1721
 8229SOL    HW228604   7.327   4.876   5.540  1.3858 -0.5088  0.3683
 8230SOL     OW28605   2.514   1.844   1.867  0.7407  0.5441 -0.2812
 8230SOL    HW128606   2.606   1.825   1.854  0.7481  0.1353  0.3451
 8230SOL    HW228607   2.502   1.932   1.831  1.5986  1.0230  0.5741
 8231SOL     OW28608   3.895   4.289   9.230 -0.4849  0.2692  0.1575
 8231SOL    HW128609   3.955   4.361   9.247  1.3196 -0.9864 -0.5967
 8231SOL    HW228610   3.880   4.293   9.135 -0.5137 -0.2363  0.1414
 8232SOL     OW28611   0.052   9.878   1.466  0.2473 -0.4428  0.0821
 8232SOL    HW128612  -0.014   9.926   1.416  1.0023 -1.5585 -2.1122
 8232SOL    HW228613   0.114   9.945   1.495  0.5179  0.1311 -1.7026
 8233SOL     OW28614   1.375   1.158   6.152  0.4805  0.0864  0.3145
 8233SOL    HW128615   1.377   1.162   6.056  0.2892 -2.8597  0.0721
 8233SOL    HW228616   1.453   1.205   6.180  0.5661  0.9636 -1.2975
 8234SOL     OW28617   9.834   8.235   2.910 -0.3609  0.1696 -0.0397
 8234SOL    HW128618   9.767   8.302   2.920  0.2511  0.9324 -0.8387
 8234SOL    HW228619   9.912   8.284   2.882  0.2775 -0.7947  0.0296
 8235SOL     OW28620   6.623   4.754   3.215  0.3207 -0.6859  0.0427
 8235SOL    HW128621   6.707   4.709   3.216  0.3238 -0.7387 -1.0067
 8235SOL    HW228622   6.563   4.694   3.170 -0.5773 -1.1240  1.7546
 8236SOL     OW28623   6.010   7.461   0.310 -0.1827 -1.0155 -0.4528
 8236SOL    HW128624   5.931   7.514   0.323 -0.0089 -0.4226 -1.6389
 8236SOL    HW228625   6.043   7.444   0.398  0.4433  1.9230 -0.0189
 8237SOL     OW28626   0.607   0.408   3.544  0.1241  0.2588  0.2474
 8237SOL    HW128627   0.556   0.474   3.591  1.3858  0.5947  1.2011
 8237SOL    HW228628   0.639   0.349   3.613  1.9364  0.7110 -0.1530
 8238SOL     OW28629   2.827   1.051   1.350 -0.3927  0.1642  0.0871
 8238SOL    HW128630   2.775   1.082   1.276  0.0300 -0.1582 -0.3545
 8238SOL    HW228631   2.774   0.983   1.390 -0.8963  0.7669  0.4674
 8239SOL     OW28632   6.977   3.099   1.079  0.8596 -0.3703  0.3559
 8239SOL    HW128633   6.896   3.093   1.029  1.8545  0.3752 -1.4669
 8239SOL    HW228634   6.949   3.098   1.170 -1.5411  3.1136 -0.1211
 8240SOL     OW28635   3.842   8.364   7.483 -0.2035  0.5244 -0.5463
 8240SOL    HW128636   3.935   8.346   7.469 -0.0623  1.5650 -1.0927
 8240SOL    HW228637   3.839   8.419   7.562 -0.4020  0.1174 -0.2661
 8241SOL     OW28638   1.572   7.026   4.120 -0.1428 -0.1379  0.0843
 8241SOL    HW128639   1.618   6.945   4.141  1.0714  1.0725  2.5558
 8241SOL    HW228640   1.637   7.082   4.077 -0.2429  0.3775  0.5824
 8242SOL     OW28641   7.487   0.769   7.942  0.8471  0.0133 -0.5081
 8242SOL    HW128642   7.533   0.853   7.943  0.1404  0.4481  1.7051
 8242SOL    HW228643   7.480   0.745   8.034  0.7496 -2.3448 -1.0812
 8243SOL     OW28644   9.990   5.355   5.753 -0.6523 -0.7600 -0.0762
 8243SOL    HW128645  10.058   5.324   5.812 -1.1739  2.2199  2.3412
 8243SOL    HW228646  10.003   5.449   5.748 -3.8043 -0.2271 -0.5382
 8244SOL     OW28647   1.807   7.203   1.204  0.3012  0.1330 -0.2524
 8244SOL    HW128648   1.892   7.189   1.163  0.6682 -0.1713  0.5806
 8244SOL    HW228649   1.827   7.209   1.298 -0.6291 -0.1939 -0.0280
 8245SOL     OW28650  10.026   8.554   9.384  0.0784 -0.0400  0.4119
 8245SOL    HW128651   9.968   8.537   9.310  2.3996 -0.4499 -1.4156
 8245SOL    HW228652  10.069   8.470   9.402  1.5668  0.6703  0.3610
 8246SOL     OW28653   5.603   8.537   9.675  0.9104 -0.2223  0.3621
 8246SOL    HW128654   5.599   8.485   9.594  2.1447 -2.0161  1.3946
 8246SOL    HW228655   5.689   8.579   9.673  0.1625  1.3806 -0.1637
 8247SOL     OW28656   7.663   9.031   2.185 -0.6617  0.5628  0.2430
 8247SOL    HW128657   7.651   8.936   2.196  0.5124  0.3782  0.0237
 8247SOL    HW228658   7.614   9.052   2.105  0.7317 -0.2377 -0.8602
 8248SOL     OW28659   6.341   6.224   5.169 -0.2460 -0.0383  0.5468
 8248SOL    HW128660   6.259   6.231   5.219 -1.3153 -0.0794 -1.1232
 8248SOL    HW228661   6.346   6.132   5.145 -0.5181  0.2396 -0.6275
 8249SOL     OW28662   3.719   5.914   8.843  0.2485  0.4347  0.1248
 8249SOL    HW128663   3.720   5.875   8.755  1.7565 -2.3123  1.2379
 8249SOL    HW228664   3.644   5.873   8.886 -0.1736  1.3765  0.2944
 8250SOL     OW28665   3.936   5.055   2.527 -0.2539 -0.2472 -0.3914
 8250SOL    HW128666   3.962   5.069   2.436  0.3950 -0.8932 -0.3225
 8250SOL    HW228667   4.006   5.000   2.563 -0.6198 -0.1871  0.4332
 8251SOL     OW28668   3.453   7.795   8.486 -0.2039 -1.0612 -0.2179
 8251SOL    HW128669   3.414   7.875   8.451 -0.1076 -1.2487 -0.7513
 8251SOL    HW228670   3.546   7.802   8.465 -0.5264 -2.3899 -2.3740
 8252SOL     OW28671   6.226   4.578   0.471  0.0257  0.3938  0.1830
 8252SOL    HW128672   6.266   4.633   0.404 -0.5638  0.2540 -0.2889
 8252SOL    HW228673   6.132   4.594   0.463 -0.3016 -1.7866 -0.9811
 8253SOL     OW28674   4.534   7.532   4.866  0.1159 -0.6110 -0.4088
 8253SOL    HW128675   4.486   7.527   4.783 -0.5815  2.8387 -0.3379
 8253SOL    HW228676   4.466   7.544   4.932  0.8480 -0.2867  0.2996
 8254SOL     OW28677   1.211  10.027   4.602  0.4514 -0.1589 -0.1315
 8254SOL    HW128678   1.296  10.043   4.641  0.8034  0.3056 -1.0638
 8254SOL    HW228679   1.178  10.114   4.580  0.5007 -0.4434 -1.3600
 8255SOL     OW28680   8.271   9.603   6.051  0.2244 -0.2351 -0.2489
 8255SOL    HW128681   8.235   9.527   6.006 -0.2401 -0.0061 -0.2648
 8255SOL    HW228682   8.310   9.656   5.981 -1.0087  0.4112 -0.4849
 8256SOL     OW28683   2.283   7.979   5.597  0.0105  0.5279  0.3827
 8256SOL    HW128684   2.237   8.062   5.584 -1.5361 -0.3566 -0.0664
 8256SOL    HW228685   2.333   7.967   5.517 -2.4890 -0.5851 -1.1340
 8257SOL     OW28686   8.901   3.816   2.600  0.1014 -0.1059  0.3031
 8257SOL    HW128687   8.808   3.819   2.622 -0.0682  2.4223 -0.4493
 8257SOL    HW228688   8.944   3.798   2.684 -1.0130 -0.4129  0.8334
 8258SOL     OW28689   3.502   8.735   7.835 -0.4459 -0.2398 -0.0806
 8258SOL    HW128690   3.502   8.655   7.782  0.3213 -0.6942  0.5705
 8258SOL    HW228691   3.535   8.803   7.777 -0.2812 -0.5826 -0.3899
 8259SOL     OW28692   6.460   1.924   4.149  0.2394  0.7055 -0.5290
 8259SOL    HW128693   6.466   1.853   4.212  0.3443 -0.3532 -1.6888
 8259SOL    HW228694   6.425   1.998   4.198  1.1361  0.1755  0.9553
 8260SOL     OW28695   2.928   9.344   8.596 -0.5297 -0.5929 -0.1911
 8260SOL    HW128696   3.012   9.389   8.604 -0.7341 -0.3667  0.8424
 8260SOL    HW228697   2.945   9.271   8.537  0.5696 -0.9484  0.5285
 8261SOL     OW28698   9.505   7.405   5.762 -0.6056 -0.0356  0.1240
 8261SOL    HW128699   9.416   7.399   5.797 -1.6840  2.2442 -1.8819
 8261SOL    HW228700   9.498   7.370   5.673  0.6916 -0.5419  0.1991
 8262SOL     OW28701   1.698   1.822   7.073  0.4916  0.1231  0.1149
 8262SOL    HW128702   1.698   1.892   7.138  2.6681 -0.0059  0.3421
 8262SOL    HW228703   1.646   1.752   7.112 -1.0933  1.2857  0.2023
 8263SOL     OW28704   5.167   9.360   5.856  0.0299  0.3244  0.3649
 8263SOL    HW128705   5.147   9.379   5.764 -0.5580  0.1416  0.4491
 8263SOL    HW228706   5.245   9.412   5.875 -0.6428  1.4444  0.1518
 8264SOL     OW28707   2.739   1.841   7.766  0.2761 -0.2128  0.0340
 8264SOL    HW128708   2.679   1.841   7.841  1.1754  0.6386  0.7816
 8264SOL    HW228709   2.824   1.820   7.803  0.6793 -0.1166 -0.8107
 8265SOL     OW28710   4.237   0.566   3.975 -0.2669  0.3433  0.5278
 8265SOL    HW128711   4.168   0.580   4.039  0.8197 -0.8343  2.0506
 8265SOL    HW228712   4.317   0.560   4.028  0.9314  1.1102 -1.1200
 8266SOL     OW28713   2.201   2.016   8.724  0.1309 -0.2166  0.3120
 8266SOL    HW128714   2.170   1.928   8.704 -0.2242  0.1733 -0.9447
 8266SOL    HW228715   2.176   2.068   8.648  2.2462  0.5072  0.0266
 8267SOL     OW28716   3.766   0.514   8.259  0.0281  1.0440  0.1672
 8267SOL    HW128717   3.680   0.493   8.224  0.6308 -0.8335 -0.2969
 8267SOL    HW228718   3.808   0.568   8.192  0.6595 -1.3784 -1.5198
 8268SOL     OW28719   3.029   2.990   5.183 -0.5922 -0.2222 -0.3448
 8268SOL    HW128720   2.965   3.061   5.177 -1.0972 -0.7285 -1.1265
 8268SOL    HW228721   3.100   3.027   5.235 -0.8647  0.8425 -0.6933
 8269SOL     OW28722   9.970   6.971   8.747 -0.0273 -0.3166  0.1775
 8269SOL    HW128723   9.942   7.062   8.743 -2.3970 -1.0021 -0.9868
 8269SOL    HW228724   9.900   6.926   8.794  0.5908 -1.6924 -0.1489
 8270SOL     OW28725   9.525   8.052   7.408 -0.1548 -0.1391  0.9031
 8270SOL    HW128726   9.556   8.108   7.336 -0.3027 -0.7551  0.3553
 8270SOL    HW228727   9.459   7.996   7.368  1.2887 -2.0032  0.9921
 8271SOL     OW28728   9.562   1.620   3.754 -0.1656  0.0520 -0.3198
 8271SOL    HW128729   9.583   1.558   3.823  1.7091  0.3266 -0.5769
 8271SOL    HW228730   9.643   1.627   3.703 -0.7729  1.6253 -1.1373
 8272SOL     OW28731   1.709   9.797   2.919 -0.4753 -0.5236  0.4805
 8272SOL    HW128732   1.680   9.708   2.900  0.3251 -0.7363  0.1889
 8272SOL    HW228733   1.667   9.819   3.003 -0.1561 -1.4280  0.8910
 8273SOL     OW28734   4.842   5.745   2.607 -1.0735  0.5203  0.3810
 8273SOL    HW128735   4.769   5.807   2.594 -1.0999  0.4717  0.2957
 8273SOL    HW228736   4.919   5.801   2.613 -1.2450  0.6532  1.6025
 8274SOL     OW28737   2.210   9.909   5.979 -0.0649  0.7379  0.4607
 8274SOL    HW128738   2.198   9.842   5.912 -2.8933  1.3579  0.2325
 8274SOL    HW228739   2.226   9.990   5.930 -3.2352  1.4087  0.3491
 8275SOL     OW28740   6.687   6.315   3.944 -0.8636 -0.4423 -0.2842
 8275SOL    HW128741   6.753   6.357   4.000 -0.6227  1.5264 -1.9222
 8275SOL    HW228742   6.739   6.263   3.883 -0.7334  1.2641 -1.7001
 8276SOL     OW28743   1.880   7.995   6.457 -0.7875  0.3765 -0.5324
 8276SOL    HW128744   1.928   7.952   6.387  0.5388  0.1775  0.4610
 8276SOL    HW228745   1.861   8.083   6.424 -0.2778  0.2467 -1.1779
 8277SOL     OW28746   8.527   6.714   1.370  0.0644 -0.2761  0.5359
 8277SOL    HW128747   8.498   6.747   1.285 -0.6299 -1.0760  0.4434
 8277SOL    HW228748   8.450   6.722   1.426 -0.0098 -1.3192  0.6132
 8278SOL     OW28749   5.777   3.054   0.967  0.1224 -0.0490 -0.2274
 8278SOL    HW128750   5.721   3.110   1.020  0.4420  0.8923 -0.8595
 8278SOL    HW228751   5.748   2.965   0.987 -1.5743  0.4071 -0.5146
 8279SOL     OW28752   4.122   3.700   1.123 -0.1908  0.0693  0.0752
 8279SOL    HW128753   4.212   3.675   1.101 -0.3589  0.7373 -1.5751
 8279SOL    HW228754   4.127   3.794   1.142 -0.8939  0.8227 -2.8919
 8280SOL     OW28755   1.688   7.774   1.381  0.1306  0.0393 -0.5441
 8280SOL    HW128756   1.677   7.692   1.429  0.1962  0.7901  0.8056
 8280SOL    HW228757   1.658   7.754   1.292  0.5502 -1.5516 -0.3562
 8281SOL     OW28758   6.705   7.118   6.709  0.3102  0.4605 -0.0805
 8281SOL    HW128759   6.778   7.110   6.649 -0.0109  0.5184 -0.4823
 8281SOL    HW228760   6.642   7.174   6.664 -0.7916 -1.0649 -0.5424
 8282SOL     OW28761   2.649   2.683   3.812 -0.2122 -0.1346 -0.0863
 8282SOL    HW128762   2.668   2.710   3.722  0.9943 -1.3373 -0.2129
 8282SOL    HW228763   2.734   2.670   3.853 -0.6838  1.8829  1.7496
 8283SOL     OW28764   2.217  10.070   1.452 -0.0642 -0.0316  0.2802
 8283SOL    HW128765   2.145  10.110   1.500 -1.7012 -0.4643 -1.6779
 8283SOL    HW228766   2.200  10.091   1.360  0.7970 -2.4285 -0.5064
 8284SOL     OW28767   6.904   9.157   1.823 -0.4358 -0.1124  0.6721
 8284SOL    HW128768   6.924   9.251   1.826  2.8336 -0.6646  0.2580
 8284SOL    HW228769   6.876   9.135   1.912  2.6577  0.6405  1.9700
 8285SOL     OW28770   5.898   5.345   6.104 -0.4246 -0.3794 -0.2708
 8285SOL    HW128771   5.929   5.319   6.017  0.6045  0.0541 -0.0563
 8285SOL    HW228772   5.959   5.414   6.131 -0.8253 -0.4022  0.7328
 8286SOL     OW28773   7.800   0.231   8.309  0.1206  0.2116 -0.3283
 8286SOL    HW128774   7.883   0.214   8.353 -0.2933 -1.7707 -0.2408
 8286SOL    HW228775   7.734   0.200   8.371 -1.2238  6.2420  1.9893
 8287SOL     OW28776   4.927   9.782   6.624  0.5648 -0.8982 -0.1412
 8287SOL    HW128777   4.897   9.782   6.533 -0.3244  0.7118  0.1019
 8287SOL    HW228778   4.953   9.873   6.640  2.0053 -1.4475  0.8273
 8288SOL     OW28779  10.194   3.023   3.373  0.2008  0.0552  0.5147
 8288SOL    HW128780  10.170   2.972   3.296 -0.3717  0.0354  0.7015
 8288SOL    HW228781  10.123   3.008   3.435  1.7910 -1.8625  1.9951
 8289SOL     OW28782   3.214   2.891   6.109 -0.1349  0.6593 -0.0023
 8289SOL    HW128783   3.122   2.909   6.127  0.1217  3.5345 -1.0888
 8289SOL    HW228784   3.212   2.821   6.044 -1.4958  0.0435  0.6638
 8290SOL     OW28785   5.758   7.455   6.788 -0.2048 -0.1472  0.2472
 8290SOL    HW128786   5.755   7.541   6.746 -1.2289  0.7510  2.0163
 8290SOL    HW228787   5.837   7.457   6.842 -0.4346 -0.1398  0.5911
 8291SOL     OW28788   1.454   8.564   5.623 -0.3634  0.0798  0.0999
 8291SOL    HW128789   1.363   8.542   5.603 -0.2184  0.1380 -0.6508
 8291SOL    HW228790   1.481   8.500   5.689 -1.1316  0.4476  0.7956
 8292SOL     OW28791   0.032   1.460   1.149 -0.0487  0.3165  0.4190
 8292SOL    HW128792   0.122   1.430   1.162 -0.1630 -0.4861 -0.5135
 8292SOL    HW228793   0.009   1.431   1.060 -0.3482  2.7916 -0.3837
 8293SOL     OW28794   7.790   4.356   0.937 -0.4374  0.5050  1.0503
 8293SOL    HW128795   7.730   4.427   0.915 -0.8675  0.2904  1.4964
 8293SOL    HW228796   7.768   4.286   0.875  0.9436  1.2454 -0.3206
 8294SOL     OW28797   6.237   9.499   5.210  0.2968 -0.0834 -0.2063
 8294SOL    HW128798   6.290   9.549   5.271  0.7537  0.7331 -1.2501
 8294SOL    HW228799   6.147   9.512   5.240  0.6238 -1.4629  1.5621
 8295SOL     OW28800   0.727   4.070   0.274 -0.2798 -0.1829  0.0684
 8295SOL    HW128801   0.782   4.092   0.350  0.2411  0.6725 -0.5366
 8295SOL    HW228802   0.696   4.154   0.242  0.2265 -0.4633 -1.1954
 8296SOL     OW28803   1.421   3.135   9.978 -0.1088  0.2222  0.0911
 8296SOL    HW128804   1.478   3.102   9.909 -0.0653  1.1559 -0.3389
 8296SOL    HW228805   1.397   3.058  10.029  0.2552 -0.4043 -0.6722
 8297SOL     OW28806   9.669   8.047   2.217  0.5119 -0.0195  0.0049
 8297SOL    HW128807   9.752   8.090   2.236  0.5496 -0.5343  1.1110
 8297SOL    HW228808   9.602   8.111   2.243  0.5516  0.3486 -0.7747
 8298SOL     OW28809   6.279   7.695   8.198 -0.1148 -0.1625  0.2062
 8298SOL    HW128810   6.256   7.657   8.113 -1.2794 -0.7524  0.7642
 8298SOL    HW228811   6.294   7.788   8.179 -0.9044 -0.1782 -0.5480
 8299SOL     OW28812   4.846   2.220   7.286 -0.2553 -0.0780 -0.4873
 8299SOL    HW128813   4.752   2.228   7.299 -0.1077 -1.4225  2.1126
 8299SOL    HW228814   4.858   2.222   7.191 -2.8994  0.0660 -0.8765
 8300SOL     OW28815   4.748   8.310  10.018 -0.1685 -0.2196  0.2968
 8300SOL    HW128816   4.776   8.377  10.081  1.0615 -1.4060  1.0806
 8300SOL    HW228817   4.830   8.283   9.976 -0.8004 -0.4744 -0.7923
 8301SOL     OW28818   2.860   1.503   3.762  0.4046 -0.2194 -0.1702
 8301SOL    HW128819   2.848   1.592   3.797  0.1685 -0.0782 -0.6033
 8301SOL    HW228820   2.878   1.516   3.669  1.1577 -0.5858 -0.0872
 8302SOL     OW28821   6.464  10.161   9.373  0.6144  0.3683  0.5675
 8302SOL    HW128822   6.474  10.222   9.300 -0.7162 -0.0907 -0.0353
 8302SOL    HW228823   6.435  10.216   9.446 -1.0222  0.4483 -0.0926
 8303SOL     OW28824   5.139   6.924   5.606  0.1316 -0.2859  0.1868
 8303SOL    HW128825   5.120   6.890   5.693 -1.5808 -0.2860 -0.1442
 8303SOL    HW228826   5.178   7.010   5.621  1.7117 -1.1081  0.9685
 8304SOL     OW28827   9.016   2.805   8.971 -0.8923 -0.3889  0.0581
 8304SOL    HW128828   8.998   2.839   8.883 -0.7670 -0.8005 -0.1271
 8304SOL    HW228829   8.940   2.831   9.023 -0.5611  0.6556  0.0578
 8305SOL     OW28830   0.388   8.989   2.310  0.1890  0.1563  0.6708
 8305SOL    HW128831   0.413   9.007   2.401 -0.6146  0.9931  0.7439
 8305SOL    HW228832   0.305   9.036   2.299 -0.8822 -1.7468  0.1739
 8306SOL     OW28833   9.165   3.634   9.656 -0.0637 -0.1003  0.1258
 8306SOL    HW128834   9.241   3.647   9.713 -0.5235  0.1515  0.6951
 8306SOL    HW228835   9.108   3.574   9.705 -0.4120  0.0277 -0.1197
 8307SOL     OW28836   0.326   6.037   7.937  0.1365 -0.1539  0.0032
 8307SOL    HW128837   0.308   5.946   7.912  0.5405  0.0889 -1.2607
 8307SOL    HW228838   0.279   6.089   7.872 -0.4604  0.5570  0.9856
 8308SOL     OW28839   0.638   8.558   1.276 -0.0752 -0.8273  0.4410
 8308SOL    HW128840   0.550   8.588   1.256 -0.0701  0.0069  1.5902
 8308SOL    HW228841   0.630   8.513   1.360  0.7683  0.1787  1.0808
 8309SOL     OW28842   9.087   3.361   2.255 -0.0682  0.1560 -0.1609
 8309SOL    HW128843   9.059   3.429   2.193  1.9909  0.0051 -1.3482
 8309SOL    HW228844   9.021   3.364   2.324 -1.1474  1.9811 -1.1609
 8310SOL     OW28845   0.831   1.250   7.165  0.4732  0.3462 -0.0453
 8310SOL    HW128846   0.748   1.268   7.121 -0.0065  0.6544  0.9669
 8310SOL    HW228847   0.835   1.313   7.236  1.2647 -0.1132  0.3298
 8311SOL     OW28848   6.024   4.389   8.547  0.3497  0.0977 -0.0576
 8311SOL    HW128849   6.022   4.407   8.641 -0.3395  1.1898 -0.2652
 8311SOL    HW228850   6.105   4.340   8.534  0.1021 -0.6754  1.2016
 8312SOL     OW28851   7.153   0.104   1.363  0.2561 -0.5392 -0.2152
 8312SOL    HW128852   7.089   0.120   1.433  0.0089  1.1166 -0.7700
 8312SOL    HW228853   7.099   0.079   1.288  0.2044  1.1667 -0.7711
 8313SOL     OW28854   9.877   9.761   4.562 -0.3902  0.0229 -0.5622
 8313SOL    HW128855   9.838   9.701   4.500  2.3058 -2.9256  0.3060
 8313SOL    HW228856   9.883   9.711   4.644 -0.4187  2.4444  1.0413
 8314SOL     OW28857   4.990   4.705   0.006  0.1224 -0.3748 -0.3968
 8314SOL    HW128858   4.913   4.683   0.059  0.8019 -0.5452  0.5494
 8314SOL    HW228859   5.010   4.795   0.029 -0.2078 -0.0976 -1.1765
 8315SOL     OW28860   3.123   1.014   4.114 -0.1347  0.3942 -0.7141
 8315SOL    HW128861   3.159   1.101   4.134  1.9497  0.8345 -5.2308
 8315SOL    HW228862   3.062   0.997   4.186  1.0294  4.5497  1.6101
 8316SOL     OW28863   2.768   0.323   0.028 -0.2301  0.1550  0.0047
 8316SOL    HW128864   2.738   0.305  -0.061 -1.0932 -0.2124  0.3602
 8316SOL    HW228865   2.848   0.375   0.016  0.7330 -1.4684 -0.9964
 8317SOL     OW28866   9.226   9.081   9.016 -0.7622  0.5410 -0.0140
 8317SOL    HW128867   9.138   9.062   9.050 -0.1688 -1.7014  0.4558
 8317SOL    HW228868   9.265   9.138   9.083 -0.7913 -1.0533  1.4254
 8318SOL     OW28869   0.189   2.858   4.401 -0.0923  0.2752  0.5730
 8318SOL    HW128870   0.103   2.816   4.404 -0.3268  0.7225  0.1930
 8318SOL    HW228871   0.250   2.790   4.431 -0.2099 -0.9562 -1.7845
 8319SOL     OW28872   8.695   6.372   3.309 -0.2958  0.1843 -0.6304
 8319SOL    HW128873   8.608   6.408   3.324 -0.3529 -0.0026 -0.5102
 8319SOL    HW228874   8.754   6.447   3.318 -0.5527  0.5659 -1.9601
 8320SOL     OW28875   2.101   2.875   1.625 -0.6499 -1.1248  0.4550
 8320SOL    HW128876   2.108   2.865   1.720 -0.0524 -1.0182  0.4281
 8320SOL    HW228877   2.170   2.818   1.590 -1.9121 -2.4285  0.0119
 8321SOL     OW28878   4.018   3.065   6.502  0.2789 -0.1263 -0.4930
 8321SOL    HW128879   3.939   3.013   6.513 -0.0869  0.4030 -0.5717
 8321SOL    HW228880   4.078   3.008   6.454  0.1043 -0.6852 -0.0513
 8322SOL     OW28881   5.726   4.659   7.482  0.5418  0.1678 -0.1566
 8322SOL    HW128882   5.700   4.580   7.528  0.3536  0.2533 -0.1169
 8322SOL    HW228883   5.645   4.706   7.466  0.8364  1.5157  1.9602
 8323SOL     OW28884   0.974   9.817   0.519 -0.5125  0.8248 -0.1731
 8323SOL    HW128885   0.968   9.878   0.446 -1.2761  1.1142  0.1261
 8323SOL    HW228886   0.883   9.801   0.545 -0.2237  1.9387  1.7121
 8324SOL     OW28887   7.179   9.446   7.401  0.5921  0.1375 -0.0418
 8324SOL    HW128888   7.144   9.512   7.460  0.1564 -0.2305  0.1215
 8324SOL    HW228889   7.204   9.495   7.322 -1.3530  0.3040 -0.6291
 8325SOL     OW28890   8.873   9.919   8.123  0.1082  0.2563  0.0400
 8325SOL    HW128891   8.881   9.882   8.036  0.9062 -0.3931  0.3747
 8325SOL    HW228892   8.859  10.013   8.109  0.6087  0.2151 -0.7770
 8326SOL     OW28893   8.235   1.124   1.856  0.4017 -0.1624 -0.2726
 8326SOL    HW128894   8.318   1.077   1.864  0.0894 -0.7561 -0.4617
 8326SOL    HW228895   8.205   1.136   1.946  1.8337  2.1724 -0.0161
 8327SOL     OW28896   4.528   6.401   8.970  0.0197  0.0607 -0.4679
 8327SOL    HW128897   4.446   6.354   8.981  0.0037 -0.1106 -1.2890
 8327SOL    HW228898   4.510   6.467   8.903  0.9322 -0.9725 -1.7901
 8328SOL     OW28899   8.082   5.834   9.426  0.6020 -0.4128 -0.2657
 8328SOL    HW128900   8.145   5.762   9.433  0.6638 -0.2325  1.2230
 8328SOL    HW228901   8.133   5.913   9.442 -0.2545 -0.3810  2.9700
 8329SOL     OW28902   1.556   6.280   1.293 -0.0588  0.0417 -0.1914
 8329SOL    HW128903   1.602   6.364   1.288  1.1402 -0.3637  2.1649
 8329SOL    HW228904   1.611   6.219   1.245  0.6728  0.0434  0.6150
 8330SOL     OW28905   9.178   4.395   4.130 -0.3086 -0.7874 -0.1754
 8330SOL    HW128906   9.127   4.469   4.098  0.3546 -0.2681 -0.0454
 8330SOL    HW228907   9.265   4.431   4.146 -0.4678 -1.1280  1.6977
 8331SOL     OW28908   0.497   0.039   3.717 -0.3150  0.4200 -0.3071
 8331SOL    HW128909   0.482  -0.010   3.637 -0.5402 -0.3850  0.2137
 8331SOL    HW228910   0.548   0.115   3.690  0.1052 -0.1384 -1.1258
 8332SOL     OW28911   6.778   1.176   3.162  0.1022  0.4824  0.8194
 8332SOL    HW128912   6.700   1.147   3.115  1.3827 -0.1734 -1.0172
 8332SOL    HW228913   6.794   1.265   3.130  0.4181  0.4065  0.7616
 8333SOL     OW28914   5.608   8.226   3.555 -0.5205  0.1047 -0.1130
 8333SOL    HW128915   5.582   8.312   3.522  1.4965  0.5667 -0.6771
 8333SOL    HW228916   5.681   8.245   3.615  1.8582 -1.3080 -2.3563
 8334SOL     OW28917   5.733   4.901   1.336  0.0127 -0.0732 -0.1238
 8334SOL    HW128918   5.726   4.996   1.326  1.3017 -0.0806 -1.5836
 8334SOL    HW228919   5.643   4.869   1.336 -0.4198  1.1067  0.0468
 8335SOL     OW28920   4.630   2.104   4.037  0.6419 -0.0297  0.6030
 8335SOL    HW128921   4.646   2.173   3.972  0.1100  0.2465  0.7564
 8335SOL    HW228922   4.535   2.103   4.047  0.4816 -1.9910 -0.7016
 8336SOL     OW28923   7.573   5.385   4.252  0.1494 -0.4988 -0.5538
 8336SOL    HW128924   7.660   5.411   4.221  1.0896 -1.2479  1.3037
 8336SOL    HW228925   7.568   5.291   4.235 -0.0332 -0.5766 -0.0906
 8337SOL     OW28926   1.029   4.288   1.481  0.0458  0.6862  0.0664
 8337SOL    HW128927   1.104   4.322   1.528  0.9261 -0.9289 -0.0894
 8337SOL    HW228928   0.977   4.243   1.548 -0.4520  1.2439  0.0606
 8338SOL     OW28929   7.775   4.076   4.264 -0.4000  0.2763  0.0384
 8338SOL    HW128930   7.700   4.094   4.208 -1.7044 -0.4242  1.4623
 8338SOL    HW228931   7.751   3.996   4.311  0.7305  0.6791  1.3839
 8339SOL     OW28932   9.964   6.613   5.227  0.0444 -0.2006 -0.4823
 8339SOL    HW128933  10.007   6.693   5.256 -1.6692  0.1199  1.4898
 8339SOL    HW228934   9.901   6.641   5.162  2.4321 -0.6375 -3.1831
 8340SOL     OW28935   6.824   6.827   1.469 -0.5726  0.1680 -0.1310
 8340SOL    HW128936   6.868   6.823   1.553  0.5342  0.8747 -0.6540
 8340SOL    HW228937   6.764   6.901   1.476 -0.1587  0.5036 -0.1025
 8341SOL     OW28938   6.577   4.316   4.335 -0.0535  0.5588  0.0323
 8341SOL    HW128939   6.568   4.397   4.286  1.1413 -0.7453 -2.5819
 8341SOL    HW228940   6.641   4.336   4.403 -0.3270  1.9757 -0.0940
 8342SOL     OW28941   5.687   9.219   0.888  0.4433 -0.2955 -0.4994
 8342SOL    HW128942   5.766   9.226   0.835 -0.3526 -0.6492 -1.7856
 8342SOL    HW228943   5.710   9.259   0.972  2.1568 -0.9108 -0.6300
 8343SOL     OW28944   5.458   6.550   1.190 -0.2041  0.6758  0.2966
 8343SOL    HW128945   5.371   6.588   1.177 -2.3870 -3.2397  1.6671
 8343SOL    HW228946   5.493   6.596   1.266 -2.3187  0.5843  1.4026
 8344SOL     OW28947   3.335   3.937   6.217 -0.8326  0.8056  0.6860
 8344SOL    HW128948   3.348   4.026   6.182  0.5458  0.4707  0.2894
 8344SOL    HW228949   3.301   3.888   6.142 -0.0695  0.6384  0.4338
 8345SOL     OW28950   5.885   7.643   7.692  0.6754  0.5964  0.1999
 8345SOL    HW128951   5.808   7.689   7.659  0.2431 -0.4515 -0.3232
 8345SOL    HW228952   5.953   7.659   7.627 -0.0162 -1.0125 -0.9789
 8346SOL     OW28953   8.736  10.197   4.867  0.4423 -0.3423 -0.2097
 8346SOL    HW128954   8.774  10.111   4.850 -0.2106 -0.5045 -0.8812
 8346SOL    HW228955   8.701  10.225   4.783 -0.5279 -0.0101  0.2893
 8347SOL     OW28956   8.612   6.322   9.991 -0.1141 -0.0668 -0.2093
 8347SOL    HW128957   8.666   6.398  10.011 -1.0598  0.4060  0.6933
 8347SOL    HW228958   8.644   6.255  10.051 -1.2119  0.5487  1.1161
 8348SOL     OW28959   0.377   9.100   9.925 -0.0567 -0.9409  0.3052
 8348SOL    HW128960   0.354   9.066  10.012  0.9728 -1.0060  0.5595
 8348SOL    HW228961   0.405   9.190   9.941 -1.0937 -0.5236 -0.1420
 8349SOL     OW28962   5.502   3.431   1.244  0.1984  0.0324 -0.7649
 8349SOL    HW128963   5.562   3.503   1.226  0.2513 -0.2022 -1.6255
 8349SOL    HW228964   5.513   3.412   1.337  0.4318  0.9040 -0.6090
 8350SOL     OW28965   3.954   1.231   7.136  0.0128  0.0820  0.0651
 8350SOL    HW128966   4.022   1.295   7.155 -0.9985  1.1160  0.3117
 8350SOL    HW228967   3.872   1.277   7.153 -0.8043 -0.7342 -1.4040
 8351SOL     OW28968   3.396   3.402   4.944  0.1243  0.1007 -0.0138
 8351SOL    HW128969   3.396   3.306   4.948 -0.2052  0.1530  3.1701
 8351SOL    HW228970   3.484   3.427   4.970  0.3850  0.7183 -1.3942
 8352SOL     OW28971   0.373   6.305   1.490 -0.1466  0.2042  0.0064
 8352SOL    HW128972   0.444   6.266   1.540  0.4089  0.3777 -0.6387
 8352SOL    HW228973   0.341   6.235   1.434  0.6632  0.5870 -0.9472
 8353SOL     OW28974   9.072   0.923   4.669 -0.0222 -0.2249  0.0409
 8353SOL    HW128975   9.146   0.938   4.610 -1.1173  1.8421 -0.9166
 8353SOL    HW228976   9.077   0.830   4.690  2.2804 -0.3453 -0.7273
 8354SOL     OW28977   3.782   9.329   8.225  0.1236  0.5886  0.1713
 8354SOL    HW128978   3.865   9.363   8.191 -0.3692  1.6826  0.0171
 8354SOL    HW228979   3.802   9.301   8.314  1.1867 -1.3344 -0.6098
 8355SOL     OW28980   6.256   0.255   4.904  0.3179 -0.8607  0.7457
 8355SOL    HW128981   6.296   0.332   4.945  0.7884 -0.4483 -0.4543
 8355SOL    HW228982   6.169   0.251   4.943 -0.5057  1.5299 -0.6085
 8356SOL     OW28983   5.347   8.899   4.605 -0.3440 -0.5353 -0.1363
 8356SOL    HW128984   5.331   8.864   4.692  0.5084  0.0227  0.2633
 8356SOL    HW228985   5.260   8.910   4.567 -0.6958 -1.4699  0.3568
 8357SOL     OW28986   8.453   0.506   9.637 -0.2040  0.1438  0.1504
 8357SOL    HW128987   8.434   0.583   9.690 -1.9289  0.0351 -0.2518
 8357SOL    HW228988   8.474   0.541   9.550  0.6081  0.2193  0.3682
 8358SOL     OW28989   6.190   3.378   8.398  0.5777  0.0575 -0.0455
 8358SOL    HW128990   6.138   3.425   8.464  0.7784  0.5789 -0.2560
 8358SOL    HW228991   6.187   3.286   8.426 -1.7799 -0.1998 -0.9041
 8359SOL     OW28992   8.830   1.757   1.059  0.8657 -0.4912  0.1117
 8359SOL    HW128993   8.859   1.843   1.090  0.2243  0.7314 -2.3836
 8359SOL    HW228994   8.875   1.745   0.975 -1.4872 -1.0379 -1.1936
 8360SOL     OW28995   4.940   2.502   3.251  0.4120 -0.0153  0.3351
 8360SOL    HW128996   4.961   2.511   3.344  1.0188  0.7284  0.1274
 8360SOL    HW228997   4.938   2.591   3.217 -0.6444 -0.2134 -0.1981
 8361SOL     OW28998   3.513   5.740   4.958  0.4759 -0.0038  0.2835
 8361SOL    HW128999   3.489   5.739   4.865  1.1058  0.5791  0.1030
 8361SOL    HW229000   3.499   5.650   4.987  0.9438 -0.3611 -0.5608
 8362SOL     OW29001   4.977   1.676   6.156  0.3331 -0.1624  0.4209
 8362SOL    HW129002   4.952   1.763   6.123 -2.3225 -0.7765  0.5577
 8362SOL    HW229003   4.931   1.615   6.098  2.2158 -1.5279  0.2742
 8363SOL     OW29004   2.326   0.202   0.547  0.3675  0.3558 -0.0076
 8363SOL    HW129005   2.282   0.267   0.492 -1.1013 -0.3632  0.2859
 8363SOL    HW229006   2.310   0.119   0.503  0.9848  0.0200  0.3925
 8364SOL     OW29007   6.355   9.193   3.615  0.4438  0.8356 -0.5032
 8364SOL    HW129008   6.406   9.116   3.590  2.1999  2.5138 -2.3764
 8364SOL    HW229009   6.292   9.205   3.544 -0.0812  0.9438 -0.0301
 8365SOL     OW29010   6.366   6.881   2.427  0.3017  0.0095  0.4920
 8365SOL    HW129011   6.285   6.834   2.406  0.0220  0.3187  0.8551
 8365SOL    HW229012   6.409   6.825   2.492  1.1751 -0.9535 -0.8665
 8366SOL     OW29013   4.258   7.636  10.146  0.5397  0.4629 -0.8557
 8366SOL    HW129014   4.282   7.679  10.063  1.4457 -1.0536 -1.4441
 8366SOL    HW229015   4.308   7.683  10.213 -0.7471  2.1616 -1.0444
 8367SOL     OW29016   4.653   4.059   1.107  0.0443 -0.1222 -0.3619
 8367SOL    HW129017   4.577   4.075   1.163 -0.2704 -0.8887 -0.5535
 8367SOL    HW229018   4.715   4.128   1.130 -1.0444  1.0693 -0.8165
 8368SOL     OW29019   9.808   8.986   8.079 -0.0357  0.3960 -0.1374
 8368SOL    HW129020   9.734   9.046   8.070 -0.6202 -0.0131  1.5842
 8368SOL    HW229021   9.797   8.947   8.166  0.8595 -1.5081 -0.8216
 8369SOL     OW29022   0.305   9.112   4.007 -0.4159  0.0897 -0.1402
 8369SOL    HW129023   0.327   9.197   3.969 -0.8029  0.4684  0.4614
 8369SOL    HW229024   0.261   9.133   4.089 -1.7770 -0.6573 -0.6317
 8370SOL     OW29025   5.855   1.842   3.661 -0.2008  0.2120 -0.0582
 8370SOL    HW129026   5.857   1.924   3.613  2.1441 -0.1409 -0.7167
 8370SOL    HW229027   5.947   1.816   3.668 -0.8238 -2.1532  0.4683
 8371SOL     OW29028   4.573   5.290   9.427 -0.2112 -0.8480 -0.3546
 8371SOL    HW129029   4.583   5.216   9.368 -0.0117 -1.6913  0.7027
 8371SOL    HW229030   4.508   5.261   9.491 -1.5827  0.6050 -1.0030
 8372SOL     OW29031   5.164   7.545   8.112  0.1954 -0.6090 -0.1485
 8372SOL    HW129032   5.113   7.570   8.035 -0.7255 -1.1687  0.2749
 8372SOL    HW229033   5.100   7.533   8.181  0.8677 -1.5294  0.3356
 8373SOL     OW29034   0.970   4.258   2.779  0.1706 -0.0430 -0.0486
 8373SOL    HW129035   0.904   4.260   2.849  0.1501  0.7020 -0.0829
 8373SOL    HW229036   0.922   4.282   2.700  0.5717  0.9614  0.0058
 8374SOL     OW29037   0.148   8.711   6.062 -0.3990  0.1270 -0.0192
 8374SOL    HW129038   0.058   8.694   6.035 -0.5005  0.0739  0.3513
 8374SOL    HW229039   0.141   8.771   6.136 -0.1572 -0.3178  0.3720
 8375SOL     OW29040   3.322   7.918   1.730  0.3900 -0.9521  0.0199
 8375SOL    HW129041   3.241   7.895   1.685  0.1457 -0.1741  0.0496
 8375SOL    HW229042   3.315   7.876   1.816 -0.3081 -0.3004  0.2875
 8376SOL     OW29043   4.081   0.234   7.101  0.2884 -0.3551 -0.1230
 8376SOL    HW129044   4.163   0.199   7.066  0.3592 -0.1407 -0.1709
 8376SOL    HW229045   4.066   0.184   7.181 -0.3094 -1.4611 -0.8803
 8377SOL     OW29046  10.156   8.530   5.807 -0.0708 -0.2041  0.1399
 8377SOL    HW129047  10.120   8.475   5.876  1.8251 -0.9186  0.6133
 8377SOL    HW229048  10.249   8.509   5.805  0.0673  0.3029 -2.1762
 8378SOL     OW29049   1.466   9.926   7.585 -0.1845  0.4907 -0.6215
 8378SOL    HW129050   1.546   9.967   7.551 -0.3194  1.3427  0.0487
 8378SOL    HW229051   1.447   9.856   7.523  1.6816 -0.4428 -0.2134
 8379SOL     OW29052   2.636   7.397   5.895  0.3799  0.6830 -0.1915
 8379SOL    HW129053   2.618   7.370   5.985 -0.8179  0.9528 -0.3329
 8379SOL    HW229054   2.689   7.476   5.903  2.0632 -0.4249  0.2394
 8380SOL     OW29055   9.062   7.661   5.954  0.7977  0.3918 -0.2417
 8380SOL    HW129056   9.024   7.732   5.902 -1.3449  0.7375  1.6726
 8380SOL    HW229057   8.988   7.607   5.980  2.1388 -1.3607  0.1699
 8381SOL     OW29058   2.954   0.018   5.992  0.1068  0.0411  0.0222
 8381SOL    HW129059   3.039  -0.016   6.022  0.2377  1.1837  1.0014
 8381SOL    HW229060   2.976   0.079   5.922 -0.1430 -1.9274 -1.8913
 8382SOL     OW29061   5.006   7.946   9.125 -0.0749 -0.0456 -0.2367
 8382SOL    HW129062   5.067   7.978   9.059  1.3014 -0.6066  0.7036
 8382SOL    HW229063   5.043   7.978   9.208 -1.2359 -0.1477  0.3346
 8383SOL     OW29064   8.282   1.782   9.879  0.0800 -0.6076 -0.5976
 8383SOL    HW129065   8.208   1.804   9.823 -0.1941 -0.4272 -0.1680
 8383SOL    HW229066   8.341   1.858   9.873 -1.7050  1.2116  2.3247
 8384SOL     OW29067   4.399   1.814   9.706 -0.5228 -0.1675 -0.1260
 8384SOL    HW129068   4.380   1.834   9.797  1.8967 -1.6493  0.7919
 8384SOL    HW229069   4.474   1.754   9.709 -1.0825 -1.1846 -3.0411
 8385SOL     OW29070   4.373   0.865   1.098 -0.0022 -0.1252  0.1292
 8385SOL    HW129071   4.327   0.948   1.087 -0.1006 -0.3487 -1.4941
 8385SOL    HW229072   4.377   0.828   1.009  3.2982 -0.0997  0.1205
 8386SOL     OW29073   0.348   8.833   1.904 -0.1900  0.0531  0.2469
 8386SOL    HW129074   0.300   8.910   1.875 -1.2115 -0.6488  0.0121
 8386SOL    HW229075   0.309   8.760   1.855  1.3076 -0.5083 -0.1454
 8387SOL     OW29076   9.153   8.850   8.472  0.1382 -0.6561 -0.8719
 8387SOL    HW129077   9.064   8.868   8.503  0.8294  3.3902 -0.7038
 8387SOL    HW229078   9.205   8.843   8.552  0.5988  1.4204 -0.9456
 8388SOL     OW29079   4.794   2.621   6.787  0.8263 -0.2511  0.0937
 8388SOL    HW129080   4.802   2.716   6.800  3.6336  0.0747 -2.6151
 8388SOL    HW229081   4.736   2.612   6.711 -0.0083 -0.7886  0.7780
 8389SOL     OW29082   9.985   4.237   3.025 -0.7738 -0.2327 -0.0900
 8389SOL    HW129083  10.034   4.319   3.028  0.6705 -1.0556 -0.3108
 8389SOL    HW229084  10.002   4.196   3.109  0.3893 -1.3332 -0.8392
 8390SOL     OW29085  10.138   1.698   5.122 -0.2803  0.0657  0.1991
 8390SOL    HW129086  10.080   1.622   5.114  1.7098 -1.4268 -0.8804
 8390SOL    HW229087  10.140   1.736   5.034  0.1862  0.2477  0.2861
 8391SOL     OW29088   2.145   5.733   6.425 -0.2063  0.0834 -0.2579
 8391SOL    HW129089   2.179   5.822   6.415 -1.2386  0.6391  0.8471
 8391SOL    HW229090   2.066   5.744   6.479 -0.4643 -1.4822 -0.2773
 8392SOL     OW29091   7.122   6.670   7.402  0.5664 -0.3105  0.3425
 8392SOL    HW129092   7.119   6.603   7.333 -1.8144 -0.5946  0.6544
 8392SOL    HW229093   7.101   6.751   7.357 -0.0960 -0.3497  0.5826
 8393SOL     OW29094   0.237   3.628   2.057 -0.2975 -0.1785 -0.1000
 8393SOL    HW129095   0.223   3.562   2.126 -1.0929 -1.3280 -1.3110
 8393SOL    HW229096   0.163   3.687   2.067  0.2693  0.4017  0.8174
 8394SOL     OW29097   1.902   8.530   6.346 -0.0724  0.2196 -0.0575
 8394SOL    HW129098   1.846   8.556   6.273 -2.1517 -0.2865  1.2715
 8394SOL    HW229099   1.962   8.465   6.309  0.1826  1.3294 -1.6907
 8395SOL     OW29100   1.402   5.427   5.419  0.4037  0.8004  0.6807
 8395SOL    HW129101   1.407   5.437   5.514 -0.5432 -0.2033  0.8446
 8395SOL    HW229102   1.373   5.337   5.405  3.3570 -0.0904 -0.6287
 8396SOL     OW29103   2.139   5.010   2.428 -0.5610 -0.3249  0.0888
 8396SOL    HW129104   2.102   5.028   2.514  0.4687  1.4578  0.1968
 8396SOL    HW229105   2.082   4.941   2.392 -0.1294 -2.2468  2.7535
 8397SOL     OW29106   2.663   2.808   9.610 -0.4932  0.3962  0.3458
 8397SOL    HW129107   2.672   2.901   9.633  1.5802 -0.2609  2.6718
 8397SOL    HW229108   2.648   2.764   9.693 -0.2326 -1.4758 -0.5487
 8398SOL     OW29109   3.905   7.854   3.520 -0.2936  0.3581 -0.4034
 8398SOL    HW129110   3.902   7.946   3.491  2.5189  0.3848 -0.9283
 8398SOL    HW229111   3.954   7.809   3.451  2.3639 -0.5789  1.9257
 8399SOL     OW29112   5.401   3.656   1.662  0.2558 -0.3092 -0.3055
 8399SOL    HW129113   5.341   3.610   1.720 -0.2498 -1.0616 -1.4070
 8399SOL    HW229114   5.414   3.597   1.588  1.6750  0.2060 -0.5112
 8400SOL     OW29115   9.264   2.014   4.327  0.5153 -0.3123 -0.0662
 8400SOL    HW129116   9.265   2.095   4.276  0.7146  0.5318  1.2205
 8400SOL    HW229117   9.185   2.021   4.381  1.5632 -0.0000  1.4963
 8401SOL     OW29118   9.489   9.086   7.551  0.7249  0.1946 -0.1902
 8401SOL    HW129119   9.553   9.017   7.567 -1.8245 -2.7912 -1.6595
 8401SOL    HW229120   9.443   9.096   7.635 -0.3686 -1.6774 -0.5137
 8402SOL     OW29121   6.784   3.405   8.416  0.3456  0.2582  0.0958
 8402SOL    HW129122   6.768   3.433   8.326 -0.8197 -1.9275 -0.4342
 8402SOL    HW229123   6.724   3.458   8.469 -0.2438  0.2998 -0.6064
 8403SOL     OW29124   0.312   7.622   6.217 -0.0133  0.0730  0.1995
 8403SOL    HW129125   0.390   7.576   6.249 -0.5185 -1.0953 -0.2077
 8403SOL    HW229126   0.290   7.683   6.288  0.2619 -0.7999  1.0591
 8404SOL     OW29127   3.712   8.126   6.837  0.2573  0.0695  0.0104
 8404SOL    HW129128   3.635   8.093   6.883  1.3969 -1.5652  0.8348
 8404SOL    HW229129   3.681   8.204   6.791 -1.4301  0.5320  1.8214
 8405SOL     OW29130   3.102   9.419   7.686  0.3870  0.0070 -0.2444
 8405SOL    HW129131   3.147   9.433   7.602  0.5918 -1.9629 -0.4984
 8405SOL    HW229132   3.021   9.374   7.663 -0.9354  1.9275  0.3946
 8406SOL     OW29133   7.154   0.886   9.264  0.5906  0.2064  0.3221
 8406SOL    HW129134   7.179   0.921   9.349 -1.0554 -0.0864  0.9460
 8406SOL    HW229135   7.074   0.837   9.280  1.1179 -1.2092 -1.1103
 8407SOL     OW29136   6.240   5.809   9.282 -0.0078  0.0666 -0.0859
 8407SOL    HW129137   6.159   5.857   9.302 -0.9190 -1.5834  0.3742
 8407SOL    HW229138   6.299   5.831   9.354 -0.7629 -0.2723  0.6568
 8408SOL     OW29139   4.925   7.035   9.188  0.1163 -0.0349 -0.3571
 8408SOL    HW129140   4.932   6.996   9.101  0.8157 -0.4197 -0.1376
 8408SOL    HW229141   4.973   7.117   9.183  0.9255 -0.4820 -0.1005
 8409SOL     OW29142   9.528   9.963   6.719  0.5241  0.1396 -0.4161
 8409SOL    HW129143   9.586  10.034   6.748  1.2255 -1.8225  3.7218
 8409SOL    HW229144   9.588   9.895   6.688  0.1192 -0.1542 -0.5611
 8410SOL     OW29145   4.200   5.087   5.658  0.2923 -0.3928  0.0326
 8410SOL    HW129146   4.188   5.032   5.581  1.4544 -1.0656  0.3106
 8410SOL    HW229147   4.134   5.057   5.720  0.9508 -1.5419  0.2063
 8411SOL     OW29148   6.850   4.835   9.739  0.0648 -0.2111  0.3936
 8411SOL    HW129149   6.848   4.877   9.825  1.6832 -0.4557  0.5802
 8411SOL    HW229150   6.884   4.747   9.757  1.8988  0.2476 -0.6665
 8412SOL     OW29151   0.458   3.491   7.827 -0.5982 -0.4579  0.6034
 8412SOL    HW129152   0.386   3.470   7.886 -1.2298 -1.5122 -0.4881
 8412SOL    HW229153   0.536   3.458   7.871 -0.5125  1.9907  2.4751
 8413SOL     OW29154   3.944   4.061   2.697  0.4480 -0.2380  0.2454
 8413SOL    HW129155   3.903   3.994   2.752  0.2481  0.2371  0.6869
 8413SOL    HW229156   3.883   4.135   2.701 -0.5538 -0.8163 -2.1320
 8414SOL     OW29157   1.336   7.140   6.980 -0.2422  0.0883 -0.0597
 8414SOL    HW129158   1.298   7.183   6.903  0.1997  0.9920  0.2096
 8414SOL    HW229159   1.429   7.164   6.978  0.1154 -1.2509 -0.1451
 8415SOL     OW29160   5.878   5.708   9.015  0.5308 -0.1692 -0.0751
 8415SOL    HW129161   5.859   5.773   8.947 -0.5207  0.4307  0.7595
 8415SOL    HW229162   5.842   5.746   9.095 -0.3764 -1.8994  0.3889
 8416SOL     OW29163   4.388   2.029   2.137  0.3473  0.3262 -0.6954
 8416SOL    HW129164   4.293   2.022   2.130  0.3568  0.1999 -0.7091
 8416SOL    HW229165   4.404   2.121   2.160  0.0659 -0.2319  2.0562
 8417SOL     OW29166   4.260   0.558   9.262  0.1108  0.2604 -0.2511
 8417SOL    HW129167   4.183   0.517   9.302 -1.0381  3.0643  0.6852
 8417SOL    HW229168   4.305   0.486   9.217 -2.6630 -1.6484 -0.2605
 8418SOL     OW29169   8.900   6.009   7.974 -0.2408  0.0865  0.0073
 8418SOL    HW129170   8.817   6.049   7.949  0.0670  0.3004 -0.6778
 8418SOL    HW229171   8.892   5.918   7.944  0.3250  0.4691 -1.3575
 8419SOL     OW29172   3.403   6.689   0.541 -0.4028 -0.1014  0.2169
 8419SOL    HW129173   3.410   6.784   0.538 -0.5334 -0.0883  0.2911
 8419SOL    HW229174   3.454   6.658   0.467  0.4895 -0.0151  0.7895
 8420SOL     OW29175   7.127   1.609   6.934  0.9819 -0.0697  0.1131
 8420SOL    HW129176   7.072   1.561   6.996  2.5953  0.8706  2.4027
 8420SOL    HW229177   7.066   1.646   6.871 -0.6491 -1.8066  0.5909
 8421SOL     OW29178   5.819   6.703   9.031  0.2863 -0.2288  0.1794
 8421SOL    HW129179   5.832   6.788   9.074 -2.0705  0.4650 -0.3335
 8421SOL    HW229180   5.898   6.654   9.052  0.7690  1.3061  2.3700
 8422SOL     OW29181   7.904   4.815   4.555 -0.1065 -0.7176  0.2497
 8422SOL    HW129182   7.872   4.735   4.514 -1.5318 -0.5049  0.8881
 8422SOL    HW229183   7.992   4.826   4.520 -0.0208 -2.3524 -0.1321
 8423SOL     OW29184   6.896   6.038   9.265  0.5115 -0.1734 -0.2664
 8423SOL    HW129185   6.851   6.048   9.349 -1.3944  0.4412 -1.2966
 8423SOL    HW229186   6.869   6.115   9.214  2.8730  0.2781 -0.9323
 8424SOL     OW29187   4.930   9.876   5.238  0.4745  0.9121 -0.2385
 8424SOL    HW129188   4.955   9.877   5.331  0.8319 -0.5141 -0.2848
 8424SOL    HW229189   4.835   9.887   5.239  0.3981  0.2762  0.3491
 8425SOL     OW29190   6.669   7.801   5.371 -0.7843 -0.1181  0.0162
 8425SOL    HW129191   6.699   7.757   5.451 -1.2393 -0.2296  0.1303
 8425SOL    HW229192   6.587   7.756   5.348 -0.2654 -0.5938 -0.9506
 8426SOL     OW29193   8.784   6.224   9.313 -0.0083 -0.2337  0.2759
 8426SOL    HW129194   8.869   6.259   9.337  0.5521 -0.3875 -1.3311
 8426SOL    HW229195   8.803   6.153   9.251 -1.2858 -0.3491 -0.0270
 8427SOL     OW29196   7.182   9.572   5.194 -0.0318  0.4734 -0.0329
 8427SOL    HW129197   7.196   9.484   5.229  0.9803  1.0561  1.1318
 8427SOL    HW229198   7.257   9.589   5.138 -0.7939  0.1985 -1.1812
 8428SOL     OW29199   3.896   9.146   7.573 -0.2783 -0.5563 -0.6028
 8428SOL    HW129200   3.845   9.066   7.562 -1.0746 -0.2851  0.8576
 8428SOL    HW229201   3.987   9.118   7.565 -0.5919 -1.2342 -2.1594
 8429SOL     OW29202   4.243   4.386   4.239  0.0417  0.5776 -0.4959
 8429SOL    HW129203   4.296   4.324   4.188 -0.3214  1.5481 -2.1395
 8429SOL    HW229204   4.282   4.471   4.219 -1.6451  1.2384 -1.1638
 8430SOL     OW29205   7.692   7.863   2.637  0.2969 -0.0286 -0.0600
 8430SOL    HW129206   7.735   7.836   2.555  2.1847 -0.3684  0.9892
 8430SOL    HW229207   7.721   7.954   2.650 -0.4432  0.2106 -0.0301
 8431SOL     OW29208   6.062   4.832   9.622 -0.6925 -0.2478  0.1337
 8431SOL    HW129209   6.034   4.794   9.706 -1.1636 -1.3521 -0.5044
 8431SOL    HW229210   6.082   4.756   9.567  1.1269  0.4772 -0.2722
 8432SOL     OW29211   2.051   9.850  10.063 -0.0780 -0.2574  0.4377
 8432SOL    HW129212   1.968   9.818  10.028 -1.5853  3.0142  0.6432
 8432SOL    HW229213   2.038   9.851  10.158  0.6576 -0.8055  0.5506
 8433SOL     OW29214   4.146   4.060   2.494  0.8337 -0.0959 -0.4219
 8433SOL    HW129215   4.167   4.151   2.472 -1.5308  0.4548 -0.6576
 8433SOL    HW229216   4.073   4.066   2.555  1.5790 -1.8513  0.7321
 8434SOL     OW29217   0.174   0.970   3.211  0.4257  0.5989 -0.4399
 8434SOL    HW129218   0.089   0.999   3.244  0.0611 -1.2089  0.3156
 8434SOL    HW229219   0.195   1.033   3.141 -0.9572  1.7745  0.1443
 8435SOL     OW29220   1.085   0.471   7.002  0.2428  0.0376  0.4368
 8435SOL    HW129221   1.156   0.501   6.946 -0.3739 -1.4789 -1.2663
 8435SOL    HW229222   1.011   0.528   6.979 -0.3722 -1.3772 -1.3416
 8436SOL     OW29223   9.554   6.092   0.140 -0.1533 -0.0193  0.2872
 8436SOL    HW129224   9.584   6.078   0.230 -1.0297  1.1488  0.7861
 8436SOL    HW229225   9.509   6.176   0.143  0.6380  0.5115 -1.4704
 8437SOL     OW29226   7.542   9.122   5.712 -0.3350 -0.1064  0.5022
 8437SOL    HW129227   7.560   9.105   5.619  0.5927  0.7156  0.5050
 8437SOL    HW229228   7.565   9.214   5.724 -2.8527  0.5339  1.0048
 8438SOL     OW29229   7.830   0.070   8.086 -0.1032 -0.3985  0.5400
 8438SOL    HW129230   7.827   0.140   8.152 -2.6743  1.1379 -1.0153
 8438SOL    HW229231   7.766   0.006   8.116 -1.0419  0.1501 -0.2060
 8439SOL     OW29232   0.646   3.178   6.981 -0.5557  0.1454  0.0198
 8439SOL    HW129233   0.613   3.133   6.903 -1.2132 -0.2192  0.4983
 8439SOL    HW229234   0.592   3.257   6.988 -1.1330 -0.2851  0.6146
 8440SOL     OW29235   3.794   0.824   9.335  0.5223 -0.0166 -0.3253
 8440SOL    HW129236   3.820   0.916   9.343 -0.0024  0.0749  0.4096
 8440SOL    HW229237   3.866   0.782   9.288  1.6522  0.3734  1.0167
 8441SOL     OW29238   9.486   7.321   1.079 -0.0191 -0.0994  0.4598
 8441SOL    HW129239   9.396   7.293   1.062 -0.2126 -0.4895  1.9527
 8441SOL    HW229240   9.505   7.383   1.009 -1.7786  0.6790  0.5974
 8442SOL     OW29241   5.068   8.355  10.017 -0.7387 -0.2682  0.1412
 8442SOL    HW129242   5.067   8.448   9.995 -0.8317 -0.3051 -0.0085
 8442SOL    HW229243   5.148   8.344  10.069 -1.9989  0.4055  2.3748
 8443SOL     OW29244   2.266   8.989   5.721  0.5685 -0.4621 -0.2503
 8443SOL    HW129245   2.184   9.000   5.674 -0.2370 -1.6267  0.8275
 8443SOL    HW229246   2.334   9.010   5.657 -0.5338 -0.2158 -1.3670
 8444SOL     OW29247   9.248   6.804   7.358  0.4571  0.1720 -0.3139
 8444SOL    HW129248   9.199   6.868   7.306 -0.7008 -0.2189  0.2654
 8444SOL    HW229249   9.325   6.784   7.305  0.7126  1.8402 -0.6235
 8445SOL     OW29250   8.477   6.599   0.021  0.4852 -0.3114  0.3629
 8445SOL    HW129251   8.442   6.606   0.110 -1.1940  0.8441 -0.3409
 8445SOL    HW229252   8.431   6.524  -0.017  0.7059 -0.3919  0.2517
 8446SOL     OW29253   9.454   4.715   3.702  0.8272  0.0630  0.1337
 8446SOL    HW129254   9.368   4.684   3.731  0.7642 -0.1925 -0.3121
 8446SOL    HW229255   9.468   4.796   3.751  1.0615 -0.7430  1.4412
 8447SOL     OW29256   8.029  10.071   9.584  0.1087 -0.2406 -0.1820
 8447SOL    HW129257   8.018  10.151   9.533  1.8222 -0.3386 -0.7559
 8447SOL    HW229258   8.032  10.001   9.519  0.7615 -0.5302  0.1473
 8448SOL     OW29259   4.093   9.065   4.114  0.0419  0.0149 -0.5144
 8448SOL    HW129260   4.006   9.094   4.087  0.6212  1.0735 -1.2925
 8448SOL    HW229261   4.087   8.970   4.115 -0.6256  0.0089 -2.3017
 8449SOL     OW29262   1.587   9.438   7.152 -0.5574 -0.4025 -0.3104
 8449SOL    HW129263   1.618   9.355   7.117  0.5071 -0.8354  1.5414
 8449SOL    HW229264   1.653   9.502   7.124 -0.8366 -0.3444 -0.8580
 8450SOL     OW29265  10.093   8.877   2.047 -0.3471  1.1758 -0.2919
 8450SOL    HW129266  10.013   8.840   2.084  0.3730  0.0987  0.2565
 8450SOL    HW229267  10.092   8.969   2.073 -0.7711  0.8730  0.8199
 8451SOL     OW29268   4.046   4.614   9.967  0.3392 -0.4043  0.1186
 8451SOL    HW129269   4.137   4.600   9.994  0.2497 -0.1804  0.5497
 8451SOL    HW229270   4.048   4.606   9.872  0.8132 -0.3986  0.1235
 8452SOL     OW29271   3.562   3.114   6.156  0.1521  0.3051 -1.0496
 8452SOL    HW129272   3.619   3.190   6.140  1.5418  0.0308  1.9982
 8452SOL    HW229273   3.605   3.067   6.227 -2.8325 -1.1078 -0.0575
 8453SOL     OW29274   1.230   7.379   0.429 -0.0626  0.3451 -0.1272
 8453SOL    HW129275   1.302   7.361   0.490  2.0795 -1.1322 -2.8567
 8453SOL    HW229276   1.180   7.298   0.426 -0.4024  0.5478 -0.0873
 8454SOL     OW29277   8.467   5.936   1.758 -0.7434  0.0042  0.1728
 8454SOL    HW129278   8.431   5.855   1.795 -0.2957 -0.0188  0.5753
 8454SOL    HW229279   8.562   5.924   1.763 -0.6330  1.2750  1.8658
 8455SOL     OW29280   4.892   6.060   8.023 -0.3238  0.0763 -0.2583
 8455SOL    HW129281   4.849   6.014   7.951 -0.5553 -0.0611 -0.0346
 8455SOL    HW229282   4.917   6.145   7.986 -1.6071  0.5244 -0.1383
 8456SOL     OW29283   2.445   3.198   3.334  0.0767 -0.7310  0.1050
 8456SOL    HW129284   2.503   3.239   3.270 -0.1623 -0.4256  0.0821
 8456SOL    HW229285   2.465   3.243   3.417  0.4588 -1.1967  0.2644
 8457SOL     OW29286   4.969   7.549   8.335 -0.5611  0.3098  0.1021
 8457SOL    HW129287   4.991   7.594   8.416  1.0531 -2.1732  1.1928
 8457SOL    HW229288   4.897   7.599   8.298 -0.5430  2.2494  2.4280
 8458SOL     OW29289  10.107   7.182   5.412  0.4429  0.4358  0.2784
 8458SOL    HW129290  10.083   7.272   5.392 -0.4140  0.5552  1.6675
 8458SOL    HW229291  10.196   7.172   5.379 -0.2822  1.0370 -2.0497
 8459SOL     OW29292   3.980   8.583   0.898 -0.1524  0.0811 -0.0607
 8459SOL    HW129293   4.059   8.629   0.871 -1.5449  3.2942  0.8039
 8459SOL    HW229294   3.930   8.571   0.817  0.5412 -0.6461 -0.3948
 8460SOL     OW29295   2.638   6.806   5.190 -0.2142 -0.1328  0.1621
 8460SOL    HW129296   2.700   6.807   5.117  0.1683 -0.3989  0.4763
 8460SOL    HW229297   2.607   6.896   5.196  0.0498 -0.0223 -0.0810
 8461SOL     OW29298   2.094   1.668   2.334 -0.0795 -0.2066 -0.2283
 8461SOL    HW129299   2.077   1.577   2.358  1.3150  0.0291  2.0627
 8461SOL    HW229300   2.145   1.663   2.253  1.3072 -1.5924  0.6802
 8462SOL     OW29301   7.156   3.750   4.291 -0.3279 -0.0848 -0.1305
 8462SOL    HW129302   7.075   3.705   4.266 -2.2708  2.6172  0.9047
 8462SOL    HW229303   7.155   3.831   4.240  1.3381  0.3700  0.5000
 8463SOL     OW29304   8.515   7.426   6.483  0.3083  0.1572 -0.0081
 8463SOL    HW129305   8.488   7.358   6.545 -2.2401 -0.1791 -1.3361
 8463SOL    HW229306   8.507   7.384   6.397  1.2239  1.3925 -0.7231
 8464SOL     OW29307   2.325   1.860   7.295 -0.0688  0.2929  0.1926
 8464SOL    HW129308   2.343   1.954   7.302  0.0889  0.5889 -2.9568
 8464SOL    HW229309   2.243   1.854   7.246  0.6177 -1.1813 -0.8576
 8465SOL     OW29310   7.682   9.432   2.569 -0.0278  0.3595 -0.3105
 8465SOL    HW129311   7.593   9.431   2.605  0.0477 -0.3635 -0.1185
 8465SOL    HW229312   7.700   9.340   2.549  0.7994  0.4580 -0.0399
 8466SOL     OW29313   9.482   4.042   4.008 -0.0057 -0.0856  0.1856
 8466SOL    HW129314   9.530   4.119   4.038  0.0813 -0.3409  0.7200
 8466SOL    HW229315   9.485   4.047   3.913  3.0969 -1.2924  0.1239
 8467SOL     OW29316   7.102   2.745   9.535  0.1032 -0.2932  0.1103
 8467SOL    HW129317   7.146   2.830   9.523  0.2783 -0.6405 -2.1240
 8467SOL    HW229318   7.108   2.703   9.450  1.5284 -3.3221  1.5686
 8468SOL     OW29319   5.173   9.145   7.059  0.1450 -0.7580 -0.4372
 8468SOL    HW129320   5.167   9.232   7.098 -2.5315 -0.7601 -0.6330
 8468SOL    HW229321   5.249   9.149   7.001 -0.1614  1.5970 -0.7597
 8469SOL     OW29322   1.119   3.890   5.667 -0.4657  0.2687  0.3126
 8469SOL    HW129323   1.115   3.847   5.582 -0.2378  1.0473 -0.1069
 8469SOL    HW229324   1.109   3.983   5.647 -2.0019  0.3394  1.2910
 8470SOL     OW29325   9.412   8.252   7.842  0.3113  0.2588 -0.1712
 8470SOL    HW129326   9.355   8.182   7.810  0.7613 -0.1605 -0.0663
 8470SOL    HW229327   9.495   8.209   7.860 -0.4065  0.0810  3.3553
 8471SOL     OW29328   4.585   0.419   7.160 -0.2301 -0.5129 -0.8773
 8471SOL    HW129329   4.536   0.342   7.134  0.7127 -0.6764 -2.3535
 8471SOL    HW229330   4.669   0.411   7.113  1.1041 -0.1075  1.2755
 8472SOL     OW29331   9.112   8.422   0.989 -0.0188 -0.8339  0.0183
 8472SOL    HW129332   9.037   8.408   1.047 -1.2413  2.0593 -0.6959
 8472SOL    HW229333   9.079   8.477   0.919  2.6944  0.2964 -0.5179
 8473SOL     OW29334   2.163   1.867   0.621 -0.2431  0.0851  0.2968
 8473SOL    HW129335   2.085   1.813   0.609  0.4203 -0.8670  0.1653
 8473SOL    HW229336   2.201   1.874   0.533  1.1783 -1.5841  0.7236
 8474SOL     OW29337   6.048   7.377   0.055 -0.2467 -1.0771 -0.5466
 8474SOL    HW129338   6.036   7.399   0.148  1.0853 -0.3290 -0.5312
 8474SOL    HW229339   6.095   7.452   0.019  1.2576 -2.3361 -1.3152
 8475SOL     OW29340   7.249   5.593   0.458  0.5991 -0.2398  0.0399
 8475SOL    HW129341   7.298   5.523   0.501  1.1957 -0.3043 -0.7262
 8475SOL    HW229342   7.292   5.604   0.373 -1.1849 -0.7960 -0.9737
 8476SOL     OW29343   1.289   2.497   2.751 -0.3598  0.1653  0.6953
 8476SOL    HW129344   1.382   2.477   2.756 -0.0726  1.1526 -0.2191
 8476SOL    HW229345   1.246   2.431   2.805  1.0035  0.6068  2.3880
 8477SOL     OW29346   6.810   9.717   7.010 -0.1013 -0.3365  0.1216
 8477SOL    HW129347   6.879   9.782   6.999  0.8869 -1.3521  0.1587
 8477SOL    HW229348   6.763   9.717   6.927 -0.3631  0.6803  0.2536
 8478SOL     OW29349   7.779   5.284   9.113 -0.3134  0.5328  0.4547
 8478SOL    HW129350   7.762   5.252   9.201 -0.9892 -0.9649 -0.1974
 8478SOL    HW229351   7.873   5.305   9.113 -0.3449  0.7070  1.5703
 8479SOL     OW29352   8.284   4.278   1.048 -0.0028 -0.3481  0.2994
 8479SOL    HW129353   8.207   4.308   1.097  0.0408  0.0572  0.1270
 8479SOL    HW229354   8.271   4.314   0.960  0.0529 -0.8432  0.0862
 8480SOL     OW29355   1.545   2.750   5.653  0.2563 -0.0205  0.2735
 8480SOL    HW129356   1.456   2.743   5.619  0.0660  0.8841  0.5500
 8480SOL    HW229357   1.601   2.729   5.579 -0.1848 -0.6403  0.1077
 8481SOL     OW29358   1.286   6.258  10.046 -0.7109 -0.3636  0.0799
 8481SOL    HW129359   1.311   6.196   9.978  2.2353 -1.5599  2.0223
 8481SOL    HW229360   1.294   6.208  10.127  0.9387  2.2273  1.6655
 8482SOL     OW29361   3.002   1.128   2.351  0.0609 -0.4573  0.4072
 8482SOL    HW129362   2.996   1.033   2.338  0.0834 -0.7308  2.0999
 8482SOL    HW229363   3.076   1.155   2.298 -0.9684 -1.0870 -1.4481
 8483SOL     OW29364   4.214   7.703   3.862  0.2033  0.2367 -0.4497
 8483SOL    HW129365   4.282   7.635   3.862  0.1704  0.1937  0.5641
 8483SOL    HW229366   4.213   7.736   3.952 -0.5204  0.8429 -0.6724
 8484SOL     OW29367   7.096   0.868   8.078  0.5462 -0.2833  0.4225
 8484SOL    HW129368   7.135   0.786   8.047  0.4305 -0.2160  0.0846
 8484SOL    HW229369   7.170   0.927   8.092  0.6705 -0.6138  1.1902
 8485SOL     OW29370   0.619   2.302   2.656 -0.1035 -0.1455  0.5724
 8485SOL    HW129371   0.685   2.369   2.643  0.0144 -0.1701  1.0382
 8485SOL    HW229372   0.551   2.322   2.591  0.8404 -0.7452 -0.6423
 8486SOL     OW29373   1.164   5.748   0.093 -0.1536  0.2372  0.2853
 8486SOL    HW129374   1.245   5.729   0.141 -1.3841  2.5641  3.5797
 8486SOL    HW229375   1.095   5.745   0.158 -2.3181  1.3552 -1.7881
 8487SOL     OW29376   9.175   1.740   1.197 -0.2062  0.4148  0.2347
 8487SOL    HW129377   9.143   1.820   1.156  0.3864 -0.6603 -2.5715
 8487SOL    HW229378   9.106   1.714   1.258 -1.3464  1.9494 -0.3428
 8488SOL     OW29379   8.658   7.226   5.658 -1.0230 -0.3988  0.5441
 8488SOL    HW129380   8.639   7.241   5.565  0.5450  0.5070  0.3285
 8488SOL    HW229381   8.661   7.313   5.696 -0.0782 -0.6581  1.0973
 8489SOL     OW29382   2.487   6.638   0.670  0.4151 -0.0265  0.5167
 8489SOL    HW129383   2.424   6.710   0.678  1.9175  1.3773  0.1998
 8489SOL    HW229384   2.504   6.611   0.761 -1.1641 -0.9370  0.5717
 8490SOL     OW29385   0.400   1.147   6.686  0.2921  0.0049  0.4257
 8490SOL    HW129386   0.401   1.070   6.629  0.9443 -0.6649  1.3184
 8490SOL    HW229387   0.380   1.220   6.627  0.0258 -0.7959 -0.4967
 8491SOL     OW29388   5.137   1.208   3.143 -0.2961 -0.2556  0.4333
 8491SOL    HW129389   5.106   1.290   3.104  1.3200 -0.2276 -0.9583
 8491SOL    HW229390   5.060   1.171   3.186 -2.0486  0.1788 -2.0689
 8492SOL     OW29391   0.595   9.406   0.249  0.2905  0.7944 -0.0893
 8492SOL    HW129392   0.554   9.385   0.333  1.8622 -0.3955  0.4248
 8492SOL    HW229393   0.538   9.364   0.184  0.8075 -1.1390  0.6264
 8493SOL     OW29394   8.228   8.771   8.661 -0.3034 -0.2839  0.0763
 8493SOL    HW129395   8.302   8.722   8.696 -0.3823 -0.1070  0.4899
 8493SOL    HW229396   8.185   8.809   8.737  1.0853  2.3299 -0.3132
 8494SOL     OW29397   0.035   5.841   5.110 -0.3346 -0.3565 -0.0870
 8494SOL    HW129398   0.049   5.825   5.203  1.6371 -1.1720 -0.4678
 8494SOL    HW229399  -0.013   5.924   5.107  1.1237  0.6169  1.6188
 8495SOL     OW29400   6.484   2.851   9.909  0.4164  0.6120  0.1172
 8495SOL    HW129401   6.560   2.879   9.858 -0.8770  2.2608 -1.0382
 8495SOL    HW229402   6.432   2.799   9.848  0.1403  0.3196  0.5927
 8496SOL     OW29403   6.805   0.058   1.344 -0.1269  0.2676 -0.1184
 8496SOL    HW129404   6.810   0.121   1.273 -0.5505  1.8519  1.1831
 8496SOL    HW229405   6.726   0.082   1.393  0.3931 -0.4591  1.1565
 8497SOL     OW29406   6.283   8.425   3.578 -0.2735  0.2479 -0.1974
 8497SOL    HW129407   6.270   8.330   3.573  0.3518  0.1467 -0.0538
 8497SOL    HW229408   6.200   8.459   3.610 -1.0269 -0.0866 -1.7208
 8498SOL     OW29409   4.481   4.661   2.068  0.2194  0.2765  0.5435
 8498SOL    HW129410   4.474   4.725   1.997  1.4188  1.6456  1.5840
 8498SOL    HW229411   4.575   4.647   2.079 -0.0112 -1.4899  0.5403
 8499SOL     OW29412   0.107   5.398   9.064 -0.4111  0.0550 -0.2656
 8499SOL    HW129413   0.127   5.429   8.976 -1.0043 -1.0437 -0.7999
 8499SOL    HW229414   0.013   5.407   9.073 -0.3116  0.5424  0.4226
 8500SOL     OW29415   4.763   2.525   0.122  0.5682  0.1467 -0.1024
 8500SOL    HW129416   4.805   2.475   0.052 -1.4558 -3.0323  0.7049
 8500SOL    HW229417   4.798   2.488   0.202  0.9756  1.9819  0.6058
 8501SOL     OW29418   3.677   3.731   2.249  0.2102 -0.1625 -0.3870
 8501SOL    HW129419   3.671   3.651   2.196  0.0744 -0.2857 -0.1917
 8501SOL    HW229420   3.635   3.707   2.332 -0.8421  0.4526 -0.7256
 8502SOL     OW29421   8.075   9.571   1.130 -0.2521  0.0786  0.5631
 8502SOL    HW129422   8.036   9.659   1.132  0.1798  0.3237 -0.7214
 8502SOL    HW229423   8.028   9.523   1.198  0.7437  1.8030  2.5925
 8503SOL     OW29424   0.379   3.275   2.394  0.0443  0.9588  0.2201
 8503SOL    HW129425   0.350   3.187   2.371 -0.3588  1.1844 -0.1433
 8503SOL    HW229426   0.474   3.273   2.380 -0.1755  1.0913 -1.5049
 8504SOL     OW29427   2.261   9.829   4.940  0.1629 -0.0824  0.6757
 8504SOL    HW129428   2.328   9.789   4.884  0.1555  0.8851 -0.0382
 8504SOL    HW229429   2.310   9.871   5.010  0.4241  1.7546 -0.5586
 8505SOL     OW29430  10.019   4.956   3.434 -0.2037 -0.2668  0.4191
 8505SOL    HW129431  10.054   4.876   3.396 -0.5631 -0.7451  1.0812
 8505SOL    HW229432   9.983   4.929   3.518  1.6070  0.9480  1.6757
 8506SOL     OW29433   7.661   6.276   9.373  0.4305  0.5547  0.0408
 8506SOL    HW129434   7.609   6.327   9.311  0.4064  0.8508  0.3053
 8506SOL    HW229435   7.685   6.197   9.324 -0.2570  0.4185 -0.0840
 8507SOL     OW29436   6.332   6.450   7.513 -0.2118 -0.3131  0.0409
 8507SOL    HW129437   6.305   6.405   7.433 -0.4175  0.5540 -0.3893
 8507SOL    HW229438   6.418   6.414   7.534  0.0256 -0.2502 -0.8077
 8508SOL     OW29439   8.701   3.309   3.317  0.0913  0.2775  0.1068
 8508SOL    HW129440   8.791   3.277   3.330  1.0558  0.9578 -3.5721
 8508SOL    HW229441   8.712   3.403   3.301 -1.2145  0.2999 -0.7385
 8509SOL     OW29442   0.273   4.065   8.030  0.2240  0.2527 -0.6314
 8509SOL    HW129443   0.291   3.972   8.025  0.3747 -0.0705  3.1283
 8509SOL    HW229444   0.179   4.072   8.010  0.1742 -0.7011 -0.7767
 8510SOL     OW29445   2.658   7.766   0.906 -0.2940  0.1172  0.5072
 8510SOL    HW129446   2.726   7.807   0.852  0.2688 -2.1310 -0.6572
 8510SOL    HW229447   2.580   7.818   0.890  0.4442  0.9514 -0.5763
 8511SOL     OW29448   1.073   5.066   0.055  0.0111  0.1912 -0.1700
 8511SOL    HW129449   1.135   5.128   0.092  0.3687 -1.3215  1.9264
 8511SOL    HW229450   1.128   5.003   0.007 -0.2103  0.5712 -0.9399
 8512SOL     OW29451   0.493   4.828   3.642  0.1729  0.0715  0.1338
 8512SOL    HW129452   0.442   4.799   3.718  0.1257  0.7327  0.3597
 8512SOL    HW229453   0.579   4.850   3.678  0.1686  0.3300 -0.0106
 8513SOL     OW29454   3.136   5.770   2.970  0.3241  0.3790 -0.9324
 8513SOL    HW129455   3.219   5.787   3.015  0.5315 -1.4394 -0.5449
 8513SOL    HW229456   3.160   5.764   2.877  0.3000  1.7127 -1.0361
 8514SOL     OW29457   8.760   4.045   7.816 -0.6435 -0.0144  0.7624
 8514SOL    HW129458   8.710   3.967   7.842  0.3221 -0.3495  1.7081
 8514SOL    HW229459   8.707   4.086   7.747 -1.3645 -1.2881  0.5246
 8515SOL     OW29460   9.533   8.576   9.845 -0.2222  0.3219  0.0038
 8515SOL    HW129461   9.614   8.537   9.813 -0.5515  0.0764 -0.5495
 8515SOL    HW229462   9.500   8.513   9.910 -0.7327 -0.3322 -0.8583
 8516SOL     OW29463   7.842   1.529   1.465 -0.0864  0.4731 -0.5668
 8516SOL    HW129464   7.926   1.575   1.459 -0.8136  1.8615 -0.3621
 8516SOL    HW229465   7.865   1.437   1.450  1.4713  0.8171 -0.5136
 8517SOL     OW29466   7.600   9.094   7.246  0.0377 -0.1114  0.2626
 8517SOL    HW129467   7.602   9.183   7.210  0.0329  0.4607  1.6031
 8517SOL    HW229468   7.606   9.107   7.340 -3.2565 -1.3686  0.7513
 8518SOL     OW29469   3.353   7.444   4.360 -0.7095  1.0380  0.1361
 8518SOL    HW129470   3.418   7.487   4.304  0.0835 -0.0304  0.2208
 8518SOL    HW229471   3.402   7.379   4.409 -2.4477 -3.9523 -3.8126
 8519SOL     OW29472   6.760   4.614   3.538 -0.1964 -0.2680  0.8570
 8519SOL    HW129473   6.774   4.538   3.593 -0.8504  0.0781  1.5267
 8519SOL    HW229474   6.820   4.603   3.464 -0.7216 -1.7273  0.6298
 8520SOL     OW29475   3.017   4.045   6.180 -0.2916  0.5335  0.1903
 8520SOL    HW129476   3.027   4.065   6.087 -0.2698 -1.0016 -0.1710
 8520SOL    HW229477   3.004   3.950   6.182  2.0674  0.1539  1.9168
 8521SOL     OW29478   4.207   8.116   8.877 -0.2620  0.0599  0.6218
 8521SOL    HW129479   4.178   8.207   8.879  1.2771  0.6848 -1.4219
 8521SOL    HW229480   4.253   8.104   8.960  0.8466  1.7003  0.3095
 8522SOL     OW29481   3.913   9.145   4.722 -0.0997 -0.4486 -0.6007
 8522SOL    HW129482   3.863   9.073   4.763 -0.8099  0.9517  1.1362
 8522SOL    HW229483   3.852   9.184   4.660 -0.0077 -0.7953 -0.9140
 8523SOL     OW29484   3.563   1.047   3.823  0.7953 -0.0813  0.2074
 8523SOL    HW129485   3.597   1.094   3.747  1.4613  0.1106  0.6098
 8523SOL    HW229486   3.639   1.001   3.859  0.2413 -1.1430  0.0708
 8524SOL     OW29487   7.409   6.720   0.866 -0.4632 -0.0093  0.1832
 8524SOL    HW129488   7.497   6.714   0.826  0.5337  0.7957  2.1396
 8524SOL    HW229489   7.370   6.796   0.824  0.6804  1.0022  0.8880
 8525SOL     OW29490   3.970   3.537   1.906 -0.0328  0.1114  0.0191
 8525SOL    HW129491   4.038   3.497   1.961 -0.9343 -1.2586  0.1840
 8525SOL    HW229492   3.892   3.539   1.962 -0.6509 -0.1982 -0.8137
 8526SOL     OW29493   8.259   3.655   0.392 -0.2707 -0.0729  0.8106
 8526SOL    HW129494   8.354   3.646   0.387 -0.0414  1.5935  1.4213
 8526SOL    HW229495   8.224   3.571   0.361  1.3722 -0.4022 -0.2079
 8527SOL     OW29496   9.303   1.467   7.361  0.1282 -0.2120  0.1261
 8527SOL    HW129497   9.257   1.407   7.419  1.3187 -1.1131  0.1747
 8527SOL    HW229498   9.364   1.412   7.312  2.5260  1.1398  1.4035
 8528SOL     OW29499   9.989   1.335   6.732 -0.0499 -0.0322  0.3871
 8528SOL    HW129500   9.937   1.338   6.812 -1.2931 -0.8551 -0.3711
 8528SOL    HW229501   9.934   1.374   6.665  1.2791  1.3829  0.0439
 8529SOL     OW29502   9.014   0.778   6.141  0.0429 -0.3672 -1.1075
 8529SOL    HW129503   8.976   0.833   6.209  1.3945  0.5081 -1.0312
 8529SOL    HW229504   8.956   0.702   6.137 -2.2720  1.2966 -1.6558
 8530SOL     OW29505   6.237   8.776   8.760  0.0356  0.1011 -0.1978
 8530SOL    HW129506   6.276   8.696   8.795  0.5032  0.4947  0.1879
 8530SOL    HW229507   6.208   8.752   8.672  1.0123 -0.2454 -0.4361
 8531SOL     OW29508   1.851   4.191   3.628  0.3660  0.0834  0.6180
 8531SOL    HW129509   1.845   4.174   3.534 -0.2984 -1.6654  0.9379
 8531SOL    HW229510   1.765   4.225   3.651  0.1032 -0.6556  0.7768
 8532SOL     OW29511   6.996   9.716   8.024  0.2523  0.2917  0.4887
 8532SOL    HW129512   7.088   9.733   8.043  0.8566  0.5650 -2.2581
 8532SOL    HW229513   6.959   9.803   8.005 -0.0957  0.0081 -0.1796
 8533SOL     OW29514  10.096   5.244   5.479 -0.1677  0.4193  0.0630
 8533SOL    HW129515  10.065   5.281   5.561 -0.6698  0.8911 -0.3266
 8533SOL    HW229516  10.156   5.175   5.504 -0.3702  0.5173  0.8249
 8534SOL     OW29517  10.077   8.246   6.567 -1.1091  0.6703 -0.0903
 8534SOL    HW129518  10.061   8.258   6.661 -1.4061 -0.6638  0.0454
 8534SOL    HW229519  10.036   8.162   6.546  1.1587 -0.3152 -0.8668
 8535SOL     OW29520   4.082   6.379   8.164 -0.2012 -0.6206  0.9047
 8535SOL    HW129521   4.016   6.445   8.143 -0.2454 -0.5794  1.1659
 8535SOL    HW229522   4.149   6.427   8.212 -0.4632 -0.8536  1.5219
 8536SOL     OW29523   9.082   8.334   5.650  0.3353 -0.1071 -0.1045
 8536SOL    HW129524   9.050   8.255   5.606 -3.2748 -0.0331  1.9814
 8536SOL    HW229525   9.143   8.302   5.717  0.7859 -0.8343 -0.8452
 8537SOL     OW29526   8.101   0.893   5.377  0.3808  0.3988 -0.5918
 8537SOL    HW129527   8.122   0.837   5.302  2.3061  0.6337 -0.2938
 8537SOL    HW229528   8.139   0.978   5.355  0.4782  0.6258  0.4068
 8538SOL     OW29529   1.000   0.500   8.509  0.3532  0.2011 -0.3115
 8538SOL    HW129530   0.930   0.436   8.498  0.4245  0.0361  0.1683
 8538SOL    HW229531   1.073   0.464   8.459  0.5005 -0.2659  0.2252
 8539SOL     OW29532   4.467   0.565   8.247 -0.1685 -0.2806 -0.5816
 8539SOL    HW129533   4.515   0.515   8.313 -0.4135 -1.8915 -1.5570
 8539SOL    HW229534   4.531   0.628   8.213  0.0141  0.4312  1.0031
 8540SOL     OW29535   8.341   1.407   5.358 -0.0447 -0.1242 -0.1922
 8540SOL    HW129536   8.324   1.499   5.339  1.4432  0.4487  1.0762
 8540SOL    HW229537   8.436   1.397   5.351 -0.1388 -1.4778  0.0620
 8541SOL     OW29538   1.152   2.460   4.745 -0.2707 -0.1500  0.1807
 8541SOL    HW129539   1.124   2.544   4.779  0.3902 -0.2322  0.9663
 8541SOL    HW229540   1.237   2.444   4.787 -0.2515 -1.0681 -0.1772
 8542SOL     OW29541   5.703   4.194   3.857 -0.0554 -0.3316  0.5276
 8542SOL    HW129542   5.644   4.269   3.865 -0.4958 -0.8387  5.2513
 8542SOL    HW229543   5.784   4.230   3.822 -1.0006  1.8316  0.4160
 8543SOL     OW29544   8.208   2.992   5.716 -0.4939 -0.1226  0.2122
 8543SOL    HW129545   8.202   3.014   5.624  2.9141 -0.4226 -0.2017
 8543SOL    HW229546   8.184   2.899   5.720  0.0118 -0.2824 -0.4712
 8544SOL     OW29547   1.291   3.656   1.353 -0.0623 -0.0967 -0.3478
 8544SOL    HW129548   1.273   3.694   1.267 -1.7408  1.7871  0.7514
 8544SOL    HW229549   1.205   3.630   1.387  0.2533  1.1293  1.5640
 8545SOL     OW29550   1.629   2.935   2.298  0.2691  0.0594 -0.1561
 8545SOL    HW129551   1.546   2.940   2.250  0.9373  0.0494 -1.3224
 8545SOL    HW229552   1.687   2.995   2.252  0.7808  0.4572  0.9620
 8546SOL     OW29553   3.825   5.768   2.554  0.2797  0.0286 -0.3900
 8546SOL    HW129554   3.819   5.792   2.461  0.4735 -0.8295 -0.6291
 8546SOL    HW229555   3.775   5.687   2.562 -1.4488  1.1406  0.6757
 8547SOL     OW29556   7.249  10.169   7.927 -0.1348 -0.4100 -0.2642
 8547SOL    HW129557   7.176  10.217   7.889  2.0347  2.2829 -1.3068
 8547SOL    HW229558   7.308  10.152   7.854  1.3893 -0.4355  0.9136
 8548SOL     OW29559   7.858   1.260   7.131  0.2609  0.5885 -0.1805
 8548SOL    HW129560   7.885   1.254   7.039 -2.9626 -2.4044 -1.1367
 8548SOL    HW229561   7.862   1.353   7.151  2.3612  1.2101 -2.8595
 8549SOL     OW29562   6.986   1.970   5.857  0.1113 -0.2188  0.2655
 8549SOL    HW129563   6.925   2.040   5.878 -0.9388 -0.6702 -1.0915
 8549SOL    HW229564   7.072   2.012   5.854 -0.3954  0.8380  0.2509
 8550SOL     OW29565   1.751   3.571   2.338 -0.2963 -0.0333 -0.1252
 8550SOL    HW129566   1.703   3.638   2.388 -0.1235 -0.2498  0.3346
 8550SOL    HW229567   1.826   3.618   2.302  1.7674 -0.6121  2.9759
 8551SOL     OW29568   3.497   9.605   2.067 -0.5182  0.4085  0.0732
 8551SOL    HW129569   3.574   9.585   2.013 -0.4680 -0.0714  0.3146
 8551SOL    HW229570   3.464   9.687   2.031  0.0992  0.6132 -0.0450
 8552SOL     OW29571   5.427   1.614   6.406 -0.5046  0.2701  0.6622
 8552SOL    HW129572   5.412   1.524   6.377  1.2621  0.9068 -2.7677
 8552SOL    HW229573   5.366   1.666   6.355  0.8815  1.2717 -0.0441
 8553SOL     OW29574   1.272   0.326   2.218  0.1054  0.8389  0.2803
 8553SOL    HW129575   1.240   0.405   2.176  0.6590  2.2381  2.3610
 8553SOL    HW229576   1.238   0.329   2.307  0.9836 -0.7367  0.7320
 8554SOL     OW29577   2.962   4.670   4.974  0.1515 -0.0185 -0.0861
 8554SOL    HW129578   3.046   4.675   5.019 -0.5627  0.5890  1.2864
 8554SOL    HW229579   2.958   4.749   4.921  0.2454  0.2163  0.2523
 8555SOL     OW29580   3.992   8.143   4.954  0.0091  0.2484  0.9673
 8555SOL    HW129581   4.052   8.142   4.880 -3.6512  1.4915 -2.3968
 8555SOL    HW229582   3.983   8.051   4.980  1.1898 -0.2640 -0.3498
 8556SOL     OW29583   0.069   5.950   1.817  0.6626  0.1937  0.4552
 8556SOL    HW129584   0.128   5.903   1.759  1.3365  1.6987 -0.1462
 8556SOL    HW229585   0.101   5.932   1.905  0.8507 -0.5096  0.2471
 8557SOL     OW29586   6.285   7.588   2.228 -0.6321 -0.2308  0.1024
 8557SOL    HW129587   6.241   7.671   2.245 -2.4960 -0.8363 -1.3444
 8557SOL    HW229588   6.293   7.546   2.314 -0.9155  0.8505  0.6691
 8558SOL     OW29589   7.988   4.057   0.828  0.3093 -0.8214  0.1712
 8558SOL    HW129590   7.897   4.086   0.824  0.0200 -1.5436  1.2735
 8558SOL    HW229591   8.004   4.016   0.743  0.6432  2.1469 -1.3356
 8559SOL     OW29592   1.094   5.697   5.941  0.2628 -0.3793 -1.0003
 8559SOL    HW129593   1.012   5.662   5.906 -0.2321  0.2182 -0.4733
 8559SOL    HW229594   1.156   5.624   5.936 -0.2495 -0.7832 -1.5780
 8560SOL     OW29595   3.745   1.038   0.480 -0.2620 -0.0790  0.2646
 8560SOL    HW129596   3.690   1.115   0.497  0.7437  1.1400 -1.6341
 8560SOL    HW229597   3.834   1.072   0.478  0.3632 -1.5916  0.8369
 8561SOL     OW29598   3.059   9.815   0.257  0.3665 -0.7395  0.3448
 8561SOL    HW129599   3.023   9.736   0.216 -1.7042  0.8960 -1.2381
 8561SOL    HW229600   3.002   9.830   0.332  0.7390 -0.7269  0.6239
 8562SOL     OW29601   2.604   4.027   1.107 -0.2950 -0.0591  0.3442
 8562SOL    HW129602   2.672   4.069   1.056 -0.7937 -1.9555 -2.0400
 8562SOL    HW229603   2.522   4.055   1.067 -0.8579  0.3259  1.6884
 8563SOL     OW29604   3.006   5.944   5.671  0.3903  0.3923  0.4273
 8563SOL    HW129605   3.040   5.957   5.760  2.0447  0.2741 -0.1480
 8563SOL    HW229606   2.943   6.014   5.659 -2.6205 -1.6281  2.9277
 8564SOL     OW29607   5.125   5.079   8.074  0.6302  0.0382  0.2384
 8564SOL    HW129608   5.144   5.094   7.981 -0.0943 -0.5430 -0.0053
 8564SOL    HW229609   5.179   5.004   8.097  0.7129  0.1028  0.2554
 8565SOL     OW29610   9.574   5.818   4.580  0.1018  0.3360 -0.0802
 8565SOL    HW129611   9.626   5.801   4.501  0.5576  1.3055  0.0019
 8565SOL    HW229612   9.483   5.812   4.551  0.2633  1.3254 -0.8251
 8566SOL     OW29613   4.011   8.647   3.126  0.1059  0.3450 -0.2752
 8566SOL    HW129614   4.094   8.661   3.080  0.7597 -0.4474  0.6182
 8566SOL    HW229615   3.994   8.731   3.169  0.3583  0.5699 -0.6059
 8567SOL     OW29616   2.338   5.064   2.724  0.3863 -0.1562  1.1925
 8567SOL    HW129617   2.323   4.970   2.728  0.2272 -0.0943  3.1688
 8567SOL    HW229618   2.420   5.074   2.675 -1.3603 -1.0411 -2.2149
 8568SOL     OW29619   3.802   9.602   4.050 -0.3831 -0.3349 -0.3263
 8568SOL    HW129620   3.886   9.647   4.040 -0.2564 -0.3753  0.4775
 8568SOL    HW229621   3.739   9.672   4.066 -0.5490 -0.2843 -1.1988
 8569SOL     OW29622   9.266   4.216   0.575  0.0091 -0.0925  0.1175
 8569SOL    HW129623   9.177   4.211   0.611  0.4498  1.0386  1.4598
 8569SOL    HW229624   9.320   4.172   0.640  0.8537  2.1728  1.0688
 8570SOL     OW29625   2.720   9.958   3.893  0.0536  0.0916  0.1144
 8570SOL    HW129626   2.669   9.994   3.821  1.0851  0.6029 -0.3843
 8570SOL    HW229627   2.798   9.922   3.852  1.7393  2.3515  1.1128
 8571SOL     OW29628   6.932   4.834   5.446  0.3808  0.0542 -0.2683
 8571SOL    HW129629   6.907   4.751   5.487 -2.9865  0.6211 -0.9077
 8571SOL    HW229630   6.938   4.813   5.353  1.5753  0.1404 -0.2262
 8572SOL     OW29631   3.331   8.142   3.955  0.0851  0.5798  0.1875
 8572SOL    HW129632   3.266   8.140   4.026  0.6290  1.0758  0.7013
 8572SOL    HW229633   3.349   8.234   3.941  0.0878  0.4789 -0.5173
 8573SOL     OW29634   0.834   0.584   2.861 -0.1466  0.5657  0.0419
 8573SOL    HW129635   0.878   0.499   2.864 -0.2529  0.5250  2.4316
 8573SOL    HW229636   0.905   0.647   2.877 -0.4208  0.7339  0.6241
 8574SOL     OW29637   0.591   8.568   9.792  0.2706  0.0347  0.2678
 8574SOL    HW129638   0.677   8.528   9.786  0.5499  0.6612  0.0304
 8574SOL    HW229639   0.606   8.661   9.774 -0.1922  0.4656  1.8979
 8575SOL     OW29640   4.730   7.637   3.776  0.5774  0.1607  0.2657
 8575SOL    HW129641   4.718   7.668   3.866  0.7323 -1.6367  0.9588
 8575SOL    HW229642   4.742   7.542   3.785  1.1525  0.0107 -1.6105
 8576SOL     OW29643   7.032   5.033   6.179  0.1142  0.1388 -0.2313
 8576SOL    HW129644   7.119   5.070   6.195  0.6747 -0.8377 -0.8841
 8576SOL    HW229645   6.985   5.103   6.135 -0.6987  2.0140  3.2872
 8577SOL     OW29646   8.438   2.122   4.060 -0.1866 -0.3426  0.1232
 8577SOL    HW129647   8.364   2.105   4.002  0.3229  0.0938 -0.6798
 8577SOL    HW229648   8.495   2.179   4.009 -0.6111  1.6462  1.7546
 8578SOL     OW29649   1.077   6.421   8.547  0.2991 -0.0923  0.1454
 8578SOL    HW129650   1.040   6.476   8.617  0.4337  0.6923 -0.3949
 8578SOL    HW229651   1.093   6.336   8.590 -1.5715 -0.2885  0.5578
 8579SOL     OW29652   6.647   7.039   0.976  0.0214  0.5030 -0.3747
 8579SOL    HW129653   6.645   6.966   1.038 -2.4076 -0.6917 -1.7218
 8579SOL    HW229654   6.629   7.116   1.029  0.4288 -0.1384  0.7359
 8580SOL     OW29655   2.400   0.099   0.811 -0.1888 -0.3757  0.3558
 8580SOL    HW129656   2.320   0.046   0.815  0.1273 -1.0071 -1.0211
 8580SOL    HW229657   2.386   0.158   0.737  0.4295 -0.1642  0.4034
 8581SOL     OW29658   2.252   1.938   4.631 -0.6622  0.2194  0.5961
 8581SOL    HW129659   2.207   2.023   4.637  0.2629  0.6046  4.0407
 8581SOL    HW229660   2.208   1.883   4.696 -1.0355 -1.9525 -1.3434
 8582SOL     OW29661   8.944   1.047   1.958 -0.3775  0.3385  0.2912
 8582SOL    HW129662   9.028   1.051   1.911  0.4720 -1.1924  1.5930
 8582SOL    HW229663   8.883   1.010   1.894  0.4415 -0.4748 -0.0396
 8583SOL     OW29664   5.142   1.784   8.065 -0.8384 -0.4972  0.5464
 8583SOL    HW129665   5.059   1.827   8.087 -1.4871 -1.6398  0.4201
 8583SOL    HW229666   5.209   1.840   8.104 -1.7702 -0.6699  2.5320
 8584SOL     OW29667   8.827   0.891   4.808  0.6046  0.0669  0.3865
 8584SOL    HW129668   8.851   0.821   4.747 -0.5608 -0.9181  1.0087
 8584SOL    HW229669   8.732   0.894   4.805  0.6350  2.0942 -0.0889
 8585SOL     OW29670   6.662   6.287   7.201 -0.3734  0.0458 -0.3947
 8585SOL    HW129671   6.676   6.381   7.188 -0.9493  0.3998  1.2439
 8585SOL    HW229672   6.737   6.258   7.252 -1.8922  0.4681  2.3117
 8586SOL     OW29673   5.479   8.030   7.049  0.5993  0.4532  0.0245
 8586SOL    HW129674   5.473   8.122   7.074 -2.6606  0.0862  1.1087
 8586SOL    HW229675   5.433   7.984   7.120  0.6519 -1.8126 -1.3458
 8587SOL     OW29676  10.148   1.634   1.348 -0.3568  0.0959  0.3064
 8587SOL    HW129677  10.158   1.575   1.273 -0.3272  0.0457  0.3498
 8587SOL    HW229678  10.057   1.623   1.375 -1.1677  2.0438 -1.3408
 8588SOL     OW29679   5.744   7.619   3.813 -0.6413 -1.0309 -0.7610
 8588SOL    HW129680   5.691   7.594   3.737 -2.0140  0.4439 -0.3389
 8588SOL    HW229681   5.743   7.714   3.812  0.4370 -0.9844  0.3814
 8589SOL     OW29682   3.965   7.366   2.552  0.2607 -0.2892  0.1334
 8589SOL    HW129683   3.884   7.337   2.510 -0.6492 -0.0179  1.6367
 8589SOL    HW229684   4.027   7.294   2.537  0.0162 -0.1598 -1.7047
 8590SOL     OW29685   6.022   4.252   0.773 -0.4139 -0.8921  0.1305
 8590SOL    HW129686   5.959   4.213   0.835 -2.3061  1.5198 -0.1327
 8590SOL    HW229687   6.086   4.295   0.828 -1.8588  0.8890  0.5106
 8591SOL     OW29688   9.416   1.513   5.623 -0.0082 -0.4743  0.0031
 8591SOL    HW129689   9.488   1.465   5.664 -1.0739 -1.8841  0.3215
 8591SOL    HW229690   9.379   1.567   5.693  1.1092  0.7524 -0.3215
 8592SOL     OW29691   5.090   2.452   6.071  0.8835  0.5568 -0.4444
 8592SOL    HW129692   5.022   2.498   6.023  1.7062  0.8535 -1.3783
 8592SOL    HW229693   5.156   2.431   6.005  0.5347 -2.0292 -0.0874
 8593SOL     OW29694   4.676   0.817   0.758 -0.0749  0.0623  0.0166
 8593SOL    HW129695   4.759   0.833   0.714  0.3661 -0.0107  0.8097
 8593SOL    HW229696   4.612   0.869   0.709  0.3609 -0.1733 -0.8266
 8594SOL     OW29697   4.689   1.292   4.130  0.0758  0.0859 -0.1908
 8594SOL    HW129698   4.717   1.355   4.197  0.3928 -0.3429  0.0909
 8594SOL    HW229699   4.711   1.207   4.168 -1.0855 -0.2397 -0.2134
 8595SOL     OW29700   4.148   0.247   2.128 -0.1007  0.1643  0.7768
 8595SOL    HW129701   4.093   0.186   2.080 -0.1644 -0.0161  1.0739
 8595SOL    HW229702   4.090   0.319   2.151  0.3004  1.0299 -0.7969
 8596SOL     OW29703   8.856   4.993   3.325  0.6039 -0.9391  0.2244
 8596SOL    HW129704   8.768   4.980   3.361 -0.6243  2.6746 -0.9766
 8596SOL    HW229705   8.841   5.018   3.234  2.6265  1.4830  0.4336
 8597SOL     OW29706  10.084   9.733   6.583  0.7606  0.2111 -0.4791
 8597SOL    HW129707  10.051   9.647   6.610 -1.5674  1.2489  0.1858
 8597SOL    HW229708  10.121   9.718   6.496  1.2393 -1.6194 -0.0071
 8598SOL     OW29709   3.292   4.271   0.378 -0.3787 -0.2072 -0.3050
 8598SOL    HW129710   3.237   4.194   0.360  0.0779 -0.4662 -0.6083
 8598SOL    HW229711   3.345   4.281   0.299  0.2703 -0.1831  0.1339
 8599SOL     OW29712   6.032   1.902   8.152 -0.5733  0.2680 -0.0197
 8599SOL    HW129713   6.027   1.969   8.084 -0.9522 -0.3793 -0.6358
 8599SOL    HW229714   5.941   1.884   8.175 -0.6501 -1.9956 -1.8188
 8600SOL     OW29715   2.380   5.123   2.982 -0.7106  0.3311 -0.0668
 8600SOL    HW129716   2.360   5.101   2.891  0.2404 -1.0186  0.0178
 8600SOL    HW229717   2.321   5.196   3.003 -0.0073  1.5863 -2.1663
 8601SOL     OW29718   5.172   0.906   1.180  0.0061  0.6874 -0.2550
 8601SOL    HW129719   5.137   0.866   1.259  0.0518  0.7131 -0.2218
 8601SOL    HW229720   5.231   0.840   1.143 -0.7555  0.2978 -0.7868
 8602SOL     OW29721   4.782   7.205   4.037 -0.5997 -0.3928  0.0428
 8602SOL    HW129722   4.743   7.120   4.019  1.7843 -2.0060  1.9744
 8602SOL    HW229723   4.805   7.203   4.129  1.7419  1.3846 -0.3993
 8603SOL     OW29724   6.025   8.756   9.367 -0.3298  0.1613 -0.0411
 8603SOL    HW129725   6.063   8.834   9.328 -2.1666  0.0417 -2.2880
 8603SOL    HW229726   5.962   8.789   9.431 -1.2405  0.5812 -1.1192
 8604SOL     OW29727   8.792   3.726   5.711  0.2651  0.2141 -0.5863
 8604SOL    HW129728   8.882   3.733   5.743  1.4668 -1.5929 -3.2269
 8604SOL    HW229729   8.801   3.718   5.616 -2.7035  0.0978 -0.9362
 8605SOL     OW29730   9.320   1.087   6.939  0.6940 -0.4632  0.2899
 8605SOL    HW129731   9.320   1.174   6.979 -0.7582 -0.8678  1.2776
 8605SOL    HW229732   9.252   1.039   6.986  0.5788 -1.7436 -1.0856
 8606SOL     OW29733   2.277   7.827   6.481 -0.2300 -0.3615  0.0832
 8606SOL    HW129734   2.223   7.905   6.497  0.4361 -0.0203  0.7077
 8606SOL    HW229735   2.263   7.771   6.557 -0.2367 -0.5850 -0.0803
 8607SOL     OW29736   3.988   1.694   3.670 -0.3258 -0.1539  0.4369
 8607SOL    HW129737   4.073   1.733   3.651  0.0862 -2.1418 -2.3582
 8607SOL    HW229738   3.930   1.729   3.602 -0.2245 -3.2533 -1.4051
 8608SOL     OW29739   6.604   0.898   6.523  0.0097 -0.1767  0.4043
 8608SOL    HW129740   6.647   0.983   6.525 -0.1162 -0.1237  1.0852
 8608SOL    HW229741   6.643   0.849   6.596 -0.1770 -0.5695  0.2429
 8609SOL     OW29742   7.080   1.418  10.086  0.2531 -0.9423  0.4025
 8609SOL    HW129743   7.018   1.487  10.107  0.5684 -0.5315 -0.0012
 8609SOL    HW229744   7.070   1.405   9.991 -1.1061 -2.7206  0.7242
 8610SOL     OW29745   4.892   9.543   2.235  0.3802 -0.0549  0.5481
 8610SOL    HW129746   4.973   9.568   2.279 -0.0077  0.3054  1.0825
 8610SOL    HW229747   4.917   9.472   2.176  1.1754  0.3835  0.3412
 8611SOL     OW29748   5.127   3.806   9.155 -0.1465 -0.1135 -0.0279
 8611SOL    HW129749   5.109   3.870   9.086 -0.2974  0.5866  0.6560
 8611SOL    HW229750   5.052   3.746   9.153  0.0235 -0.3213 -0.7055
 8612SOL     OW29751   6.016   5.137   0.414  0.4933 -0.0851  0.7028
 8612SOL    HW129752   6.063   5.165   0.336 -1.2888 -0.4597 -0.5549
 8612SOL    HW229753   5.942   5.087   0.381 -1.3831  1.3068  2.5340
 8613SOL     OW29754   5.077   1.457   4.485  0.3156  0.6040  0.3039
 8613SOL    HW129755   4.997   1.407   4.504 -0.5720  1.9120  0.1839
 8613SOL    HW229756   5.133   1.442   4.561  1.0757 -2.3680 -0.7147
 8614SOL     OW29757   4.617   6.717   7.775  0.2424 -0.2552 -0.5968
 8614SOL    HW129758   4.559   6.704   7.701 -1.6133 -0.1029  0.7432
 8614SOL    HW229759   4.620   6.812   7.787 -0.7823 -0.3197  0.4348
 8615SOL     OW29760   9.192   4.019   1.862  0.0596  0.0904 -0.5082
 8615SOL    HW129761   9.248   4.044   1.788 -1.2246 -1.6491 -2.1589
 8615SOL    HW229762   9.114   3.982   1.822  1.1090 -5.1269  1.5316
 8616SOL     OW29763   5.575   1.749   6.586  0.0834  0.2020 -0.2234
 8616SOL    HW129764   5.648   1.697   6.620 -0.5174 -0.4042  0.1569
 8616SOL    HW229765   5.521   1.686   6.540  1.0969  1.0549 -2.7634
 8617SOL     OW29766   6.522   6.130   9.506 -0.2120  0.1160 -0.0044
 8617SOL    HW129767   6.481   6.063   9.452  0.4927 -0.8447  0.6149
 8617SOL    HW229768   6.452   6.192   9.525 -1.1331 -0.9618  0.2096
 8618SOL     OW29769   9.506   0.716   4.552  0.1561 -0.2406 -0.1070
 8618SOL    HW129770   9.600   0.737   4.555 -0.1387  1.1405  0.1787
 8618SOL    HW229771   9.491   0.663   4.631  0.8963 -1.4475 -0.7480
 8619SOL     OW29772   6.095   5.041   6.691  0.0946  0.0038  0.7801
 8619SOL    HW129773   6.139   4.957   6.682  1.3643  0.8571 -1.8865
 8619SOL    HW229774   6.019   5.036   6.634  1.2332  1.2500 -0.9376
 8620SOL     OW29775   3.816   5.575   8.830  0.2939  0.6106 -0.4742
 8620SOL    HW129776   3.805   5.659   8.787 -1.1188  0.5031 -0.3821
 8620SOL    HW229777   3.726   5.543   8.844  0.7844 -0.6579 -0.0312
 8621SOL     OW29778   5.926   0.680   5.816 -0.0730  0.4166 -0.0812
 8621SOL    HW129779   5.874   0.654   5.741 -0.4025  0.3787  0.1593
 8621SOL    HW229780   5.888   0.762   5.845  0.1713  0.5274 -0.0674
 8622SOL     OW29781   1.095   6.720   1.182  0.3661 -0.7361 -0.5414
 8622SOL    HW129782   1.191   6.723   1.181  0.3565  0.4828 -1.6354
 8622SOL    HW229783   1.073   6.631   1.209  1.7680 -0.2488  2.6415
 8623SOL     OW29784   6.757   0.553   6.229 -0.4256  0.0307 -0.1975
 8623SOL    HW129785   6.842   0.581   6.197 -0.5675  1.2336  0.4150
 8623SOL    HW229786   6.771   0.464   6.260  0.1898 -0.4152 -1.6592
 8624SOL     OW29787   2.202   8.748   9.420 -0.2054 -0.0373 -0.0319
 8624SOL    HW129788   2.152   8.688   9.474 -0.2965 -1.1783 -1.3260
 8624SOL    HW229789   2.148   8.760   9.341  0.2953  0.9078 -0.2428
 8625SOL     OW29790   4.071   1.295   4.663 -0.5514  0.1308 -0.1846
 8625SOL    HW129791   4.119   1.218   4.635  0.7586  0.9929 -0.4186
 8625SOL    HW229792   4.032   1.330   4.583  3.6134  2.8849 -1.3133
 8626SOL     OW29793   5.435   5.050   9.529 -0.6022 -0.8653  0.6624
 8626SOL    HW129794   5.355   5.054   9.581 -1.5493  1.0134 -0.8118
 8626SOL    HW229795   5.411   4.997   9.452 -0.7809  0.4744 -0.2435
 8627SOL     OW29796   6.788   1.706   2.863  0.3888  0.2259  0.3369
 8627SOL    HW129797   6.865   1.732   2.913  0.2771  1.5642 -0.1592
 8627SOL    HW229798   6.782   1.770   2.792 -0.1777 -0.8899 -0.6600
 8628SOL     OW29799   3.762   1.927   7.407  0.0153  0.5016 -0.9499
 8628SOL    HW129800   3.785   1.958   7.320  2.4745  1.0667 -0.1621
 8628SOL    HW229801   3.809   1.984   7.467 -0.3017 -0.8911  0.7159
 8629SOL     OW29802   1.247   4.771   6.088 -0.2656 -0.0192 -0.3329
 8629SOL    HW129803   1.331   4.747   6.127 -0.3206 -2.4640 -1.4719
 8629SOL    HW229804   1.191   4.792   6.163  0.6747 -0.8106  0.6347
 8630SOL     OW29805   9.028   2.357   0.798 -0.2740 -0.1181  0.0135
 8630SOL    HW129806   9.091   2.428   0.812 -0.0411 -0.2743 -0.2392
 8630SOL    HW229807   8.951   2.383   0.849 -0.4368  0.6394 -0.6128
 8631SOL     OW29808   6.811   3.876   8.145 -0.0406 -0.3382  0.4167
 8631SOL    HW129809   6.801   3.962   8.105  0.1374  1.0154  3.0311
 8631SOL    HW229810   6.901   3.875   8.177 -0.7990 -0.3376  2.7581
 8632SOL     OW29811   0.732   8.615   1.000 -0.3467 -0.0695  0.5234
 8632SOL    HW129812   0.719   8.562   1.078 -1.6069  0.3395  0.6122
 8632SOL    HW229813   0.673   8.690   1.011  0.4007  0.6654 -0.2239
 8633SOL     OW29814   4.521   7.033   8.981 -0.2284  0.2441  0.2741
 8633SOL    HW129815   4.593   7.038   8.917  0.3306 -0.8590  0.7829
 8633SOL    HW229816   4.445   7.007   8.929 -0.0705  0.6081 -0.1423
 8634SOL     OW29817   1.910   9.814   6.758  0.2112  0.8018  0.1715
 8634SOL    HW129818   1.977   9.782   6.819 -0.0481  2.1040  1.1811
 8634SOL    HW229819   1.952   9.808   6.672  1.0768  0.1877  0.6127
 8635SOL     OW29820   9.855   8.703   9.728 -0.6122 -0.4576  0.1491
 8635SOL    HW129821   9.802   8.623   9.734 -0.4905 -0.5817 -0.3907
 8635SOL    HW229822   9.795   8.769   9.695 -0.6902 -0.3457  0.5128
 8636SOL     OW29823   9.882   2.256   2.774  0.5805  0.5113 -0.5099
 8636SOL    HW129824   9.966   2.301   2.766  1.0351 -0.0306  0.9235
 8636SOL    HW229825   9.880   2.195   2.701  0.8224  1.4796 -1.3419
 8637SOL     OW29826   3.431   8.134   1.143 -0.1049  0.1898 -0.1086
 8637SOL    HW129827   3.415   8.050   1.101  0.5525  0.6167 -1.2730
 8637SOL    HW229828   3.405   8.121   1.235 -0.5372 -1.0971 -0.3961
 8638SOL     OW29829   6.313   9.244   9.140  0.3570 -0.3210 -0.0393
 8638SOL    HW129830   6.383   9.204   9.089 -0.9054 -0.3859 -1.7872
 8638SOL    HW229831   6.319   9.337   9.121 -0.4656 -0.4069 -0.8210
 8639SOL     OW29832   9.468   7.211   2.515 -0.2678 -0.1663  0.3894
 8639SOL    HW129833   9.454   7.291   2.565 -0.3742 -0.8212  1.4223
 8639SOL    HW229834   9.555   7.222   2.476  0.5830 -0.3869  2.1492
 8640SOL     OW29835   4.692   9.388   2.365  0.0139  0.3077  0.3747
 8640SOL    HW129836   4.661   9.424   2.448  1.6509 -0.9155  1.5684
 8640SOL    HW229837   4.766   9.443   2.341  0.1215  0.0870  0.1966
 8641SOL     OW29838   4.686   3.751   2.694  0.1976 -0.1026 -0.0516
 8641SOL    HW129839   4.597   3.716   2.690 -0.5538  1.7418 -0.8592
 8641SOL    HW229840   4.716   3.750   2.603  1.3375 -1.4124  0.3026
 8642SOL     OW29841   2.065   9.559   6.191  0.5375 -0.1263  0.3762
 8642SOL    HW129842   2.048   9.566   6.285  0.6910 -0.3911  0.4257
 8642SOL    HW229843   2.061   9.465   6.173 -0.7049  0.0094 -0.1157
 8643SOL     OW29844   7.703   3.142   0.037 -0.2718 -0.1581  0.1627
 8643SOL    HW129845   7.740   3.054   0.027  1.0617  0.2723  1.0508
 8643SOL    HW229846   7.611   3.127   0.061 -0.2255 -1.2861 -0.3058
 8644SOL     OW29847   1.469   2.850   0.302  0.2581 -0.0094 -0.3474
 8644SOL    HW129848   1.499   2.881   0.387 -0.6555 -0.1012  0.0247
 8644SOL    HW229849   1.518   2.902   0.239 -0.1717  1.1686  0.2562
 8645SOL     OW29850   7.699   3.779   7.443  0.1362  0.4517  0.4000
 8645SOL    HW129851   7.636   3.741   7.382  0.6515  0.6417 -0.2597
 8645SOL    HW229852   7.784   3.768   7.400  0.5531  0.2327  1.2612
 8646SOL     OW29853   6.076   3.352  10.042  0.2018 -0.4359  0.0293
 8646SOL    HW129854   6.080   3.321   9.952 -0.3505  2.0516 -0.9448
 8646SOL    HW229855   6.005   3.416  10.043  1.1862  0.7376  1.8406
 8647SOL     OW29856   9.206   1.820   0.887  0.4943  0.4850  0.0186
 8647SOL    HW129857   9.161   1.905   0.890 -1.4489 -0.5221  1.6336
 8647SOL    HW229858   9.153   1.768   0.826  0.6146 -0.1119  0.4179
 8648SOL     OW29859   6.942   2.736   8.169 -0.2743 -0.0221  0.9318
 8648SOL    HW129860   7.027   2.770   8.138 -0.6550  0.9906  0.9758
 8648SOL    HW229861   6.896   2.711   8.089  1.3172 -3.8588  0.9725
 8649SOL     OW29862   3.144   8.011   1.166 -0.0405 -0.1070 -0.0551
 8649SOL    HW129863   3.183   8.042   1.248  0.8030 -0.6571 -0.2404
 8649SOL    HW229864   3.132   8.091   1.113  1.5618 -0.0036 -0.2953
 8650SOL     OW29865   5.860  10.178   3.518  0.5145 -0.9866  0.3006
 8650SOL    HW129866   5.799  10.249   3.498  3.2271  1.1592 -1.0696
 8650SOL    HW229867   5.854  10.119   3.443  0.8490 -0.2091 -0.3556
 8651SOL     OW29868   0.597   9.538   4.500 -0.1474 -0.2488 -0.1380
 8651SOL    HW129869   0.642   9.598   4.440 -2.6955  0.6046 -1.3366
 8651SOL    HW229870   0.604   9.579   4.586 -2.1291  2.0781 -0.9836
 8652SOL     OW29871   4.182   1.581   2.707  0.0491 -0.1317  0.4149
 8652SOL    HW129872   4.258   1.634   2.681 -0.7248  1.1751  0.7275
 8652SOL    HW229873   4.176   1.513   2.639  0.2365  1.0282 -0.8061
 8653SOL     OW29874   6.022   7.365   2.318 -0.0918  0.2005 -0.4802
 8653SOL    HW129875   6.089   7.417   2.360 -0.7993  1.0044 -0.3217
 8653SOL    HW229876   6.059   7.340   2.234  0.9286 -0.5353  0.1640
 8654SOL     OW29877   6.504   0.186   3.208  0.0669  0.4869  0.2468
 8654SOL    HW129878   6.508   0.206   3.114 -1.5446  2.8165  0.5892
 8654SOL    HW229879   6.512   0.271   3.251 -1.5375 -0.2288  2.1196
 8655SOL     OW29880   1.978   8.017   4.752  0.3400 -0.0352 -0.0415
 8655SOL    HW129881   1.928   8.061   4.683  1.0465 -0.7690 -1.0498
 8655SOL    HW229882   1.931   8.039   4.833 -2.4281 -1.7145 -1.0232
 8656SOL     OW29883   7.270   2.290   6.111 -0.0522 -0.3069 -0.3428
 8656SOL    HW129884   7.203   2.339   6.063  0.1094  1.2359  0.9266
 8656SOL    HW229885   7.246   2.301   6.203  2.5161  1.2770  0.2519
 8657SOL     OW29886   1.723   7.732   8.815  0.3386  0.0628 -0.0878
 8657SOL    HW129887   1.679   7.660   8.860  0.4077 -1.0683 -1.7618
 8657SOL    HW229888   1.781   7.770   8.881 -0.4510 -0.7616  1.1072
 8658SOL     OW29889   8.653   4.136   4.978 -0.3533 -0.4218  0.1594
 8658SOL    HW129890   8.687   4.075   5.044 -0.0455 -0.3864  0.0323
 8658SOL    HW229891   8.565   4.158   5.010 -0.6880 -1.3520 -0.0688
 8659SOL     OW29892   2.602   4.384   6.887  0.3067 -0.6684 -0.0946
 8659SOL    HW129893   2.532   4.419   6.941  0.3403 -2.5385  1.2362
 8659SOL    HW229894   2.642   4.462   6.847  0.8885  0.9671  3.2911
 8660SOL     OW29895   0.623   5.063   6.350  0.0114  0.7266  0.1142
 8660SOL    HW129896   0.615   4.984   6.297 -1.1849  0.3170  0.8548
 8660SOL    HW229897   0.575   5.130   6.301 -0.7423  0.4528  0.4595
 8661SOL     OW29898   0.366   7.598   0.809 -0.2372 -0.3268  0.2711
 8661SOL    HW129899   0.391   7.527   0.749 -1.9376  0.2391 -1.2102
 8661SOL    HW229900   0.435   7.663   0.800 -0.5971 -0.1222 -1.3748
 8662SOL     OW29901   6.033   5.785   9.888  0.2757  0.2000 -0.1281
 8662SOL    HW129902   6.078   5.729   9.824  0.9243 -0.0772  0.5579
 8662SOL    HW229903   5.954   5.815   9.842  0.0368 -1.0751 -0.6030
 8663SOL     OW29904   9.079   1.426   5.795 -0.0428  0.4953  0.3970
 8663SOL    HW129905   8.991   1.424   5.833 -0.6228 -1.6193 -0.8749
 8663SOL    HW229906   9.084   1.346   5.742  2.4602  0.8432 -0.0165
 8664SOL     OW29907   1.069   7.828   7.704 -0.0998  0.2102 -0.0888
 8664SOL    HW129908   1.146   7.804   7.652 -0.7396  0.8872 -1.3941
 8664SOL    HW229909   1.049   7.917   7.677 -1.7593 -0.1996 -0.3172
 8665SOL     OW29910   4.763   0.438   1.512  0.0503  0.5975 -0.4060
 8665SOL    HW129911   4.670   0.462   1.507 -0.3641 -0.9042 -0.2775
 8665SOL    HW229912   4.764   0.343   1.505  1.5038  0.4904  0.6975
 8666SOL     OW29913   6.771   2.076   4.357 -0.7648 -0.0693  0.2819
 8666SOL    HW129914   6.836   2.021   4.313 -1.0078 -0.6912  0.6858
 8666SOL    HW229915   6.794   2.166   4.332  0.4578 -0.2525  0.7128
 8667SOL     OW29916   4.159   7.557   4.318 -0.3328  0.4813 -0.2574
 8667SOL    HW129917   4.065   7.550   4.302 -0.3096 -0.1939 -0.1282
 8667SOL    HW229918   4.166   7.592   4.407 -0.4826 -1.2778  0.4912
 8668SOL     OW29919   0.907   7.697   0.064 -0.3235  0.2415  0.2536
 8668SOL    HW129920   0.930   7.663  -0.023 -0.4899 -1.3070  0.7884
 8668SOL    HW229921   0.815   7.673   0.075  0.0988 -0.9060  1.4462
 8669SOL     OW29922   6.974   7.378   5.286  0.4766 -0.4043  0.0283
 8669SOL    HW129923   6.948   7.459   5.330  1.1780  0.7404 -1.5604
 8669SOL    HW229924   6.898   7.321   5.293 -0.8395  1.1910 -0.6138
 8670SOL     OW29925  10.196   3.534   4.973 -0.3670  0.0535 -0.2397
 8670SOL    HW129926  10.199   3.551   4.879  0.4762 -0.8018 -0.3825
 8670SOL    HW229927  10.287   3.534   5.001 -0.6565  1.3529  0.7975
 8671SOL     OW29928   8.041   0.029   2.593 -0.1196  0.2603 -0.0431
 8671SOL    HW129929   7.947   0.043   2.606 -0.3492  1.0012 -2.0755
 8671SOL    HW229930   8.047  -0.061   2.561 -0.2285  0.4202 -0.5288
 8672SOL     OW29931   6.495   9.317   9.439  0.0794 -0.0094  0.0758
 8672SOL    HW129932   6.521   9.350   9.353 -0.0542 -0.3449 -0.0952
 8672SOL    HW229933   6.559   9.249   9.459  0.3797  0.3744  0.4474
 8673SOL     OW29934   6.597   6.244   9.183 -0.0126 -0.1708 -0.4054
 8673SOL    HW129935   6.542   6.316   9.155  0.3318 -0.2248 -1.2741
 8673SOL    HW229936   6.539   6.185   9.231 -1.3828 -1.4975 -3.4231
 8674SOL     OW29937   7.916   7.558   9.581  0.8864 -0.2598  0.3672
 8674SOL    HW129938   7.966   7.604   9.514  0.5605  2.8233  2.0551
 8674SOL    HW229939   7.954   7.587   9.664 -2.2958  0.6616  1.6584
 8675SOL     OW29940   1.590   8.152   5.857 -0.0464  0.0425 -0.1957
 8675SOL    HW129941   1.647   8.216   5.816  0.8796  0.6699  1.9362
 8675SOL    HW229942   1.527   8.203   5.908 -0.6378 -0.7106 -0.1357
 8676SOL     OW29943   3.657   8.366   2.107  0.9432  0.0041 -0.5362
 8676SOL    HW129944   3.661   8.415   2.189  0.2150 -1.9345  0.7193
 8676SOL    HW229945   3.747   8.336   2.092  0.7558 -1.2449  0.6303
 8677SOL     OW29946   0.313   4.784   0.616  0.8837  0.2332 -0.1969
 8677SOL    HW129947   0.324   4.876   0.592  1.6970  0.5837  1.3939
 8677SOL    HW229948   0.384   4.738   0.570  1.6982  0.7036  0.5846
 8678SOL     OW29949   8.140   3.976   8.949 -0.3064 -0.5192  0.2672
 8678SOL    HW129950   8.232   3.975   8.974  0.2164 -0.5802 -1.5484
 8678SOL    HW229951   8.110   4.064   8.970  0.1448 -0.5134  0.9105
 8679SOL     OW29952   3.154   1.593   6.759 -0.0306 -0.0847  0.0065
 8679SOL    HW129953   3.189   1.594   6.848 -0.6434 -0.2476  0.2570
 8679SOL    HW229954   3.069   1.637   6.766 -1.1785 -2.1640 -0.0029
 8680SOL     OW29955   0.192   7.226   7.977 -0.8732  0.5909  0.2679
 8680SOL    HW129956   0.269   7.279   8.000  0.1581  0.0989 -1.8137
 8680SOL    HW229957   0.223   7.167   7.910 -2.5224 -1.3020  1.0688
 8681SOL     OW29958   6.777   3.950   0.825  0.1691  0.1216  0.1936
 8681SOL    HW129959   6.796   3.998   0.905 -1.7743 -0.1288  0.8590
 8681SOL    HW229960   6.858   3.904   0.805  1.0433  1.0851  1.3739
 8682SOL     OW29961   2.741   9.447   6.672 -0.2228 -0.1049 -0.7945
 8682SOL    HW129962   2.658   9.478   6.707  0.6878  0.0923  1.3388
 8682SOL    HW229963   2.717   9.379   6.609 -1.9785 -0.2064 -0.0706
 8683SOL     OW29964   0.641   9.046   0.541 -0.0302  0.4582  0.0565
 8683SOL    HW129965   0.580   9.052   0.467  1.9543  0.0139 -1.7128
 8683SOL    HW229966   0.727   9.063   0.503  1.0588  0.5072  2.3506
 8684SOL     OW29967   6.610  10.057   5.765  0.6970 -0.3940 -0.0208
 8684SOL    HW129968   6.699  10.047   5.731  0.7734 -1.8986  0.5535
 8684SOL    HW229969   6.554  10.026   5.694  0.5508  1.3550 -0.7133
 8685SOL     OW29970   6.537   1.984   5.951  0.5604 -0.6529 -0.0333
 8685SOL    HW129971   6.525   2.076   5.929  1.7802 -0.7931 -1.3933
 8685SOL    HW229972   6.598   1.985   6.025 -0.5206 -0.3448  0.8899
 8686SOL     OW29973   3.433   7.909   6.339 -0.2969 -0.0332  0.6172
 8686SOL    HW129974   3.525   7.885   6.342  0.4562  2.4227 -0.4886
 8686SOL    HW229975   3.417   7.934   6.248 -2.5423 -1.9612  0.3707
 8687SOL     OW29976   1.339   2.997   3.492 -0.2543 -0.0200  0.2912
 8687SOL    HW129977   1.337   2.935   3.564  2.2379 -0.0386  0.4205
 8687SOL    HW229978   1.399   2.959   3.429 -1.7992  0.3612 -1.5043
 8688SOL     OW29979   1.665   6.226   1.796 -0.0856  0.0915  0.0322
 8688SOL    HW129980   1.590   6.262   1.843  0.3346  0.8671  0.1190
 8688SOL    HW229981   1.692   6.151   1.849 -0.7796 -0.1863  0.0085
 8689SOL     OW29982   4.620   5.640   8.176  0.1250  0.1354  0.0457
 8689SOL    HW129983   4.567   5.695   8.119 -0.5071 -2.2790 -1.8673
 8689SOL    HW229984   4.709   5.652   8.146 -0.2203 -1.2683 -1.7576
 8690SOL     OW29985   7.419   7.571   4.656 -0.1980  0.2176  0.7213
 8690SOL    HW129986   7.429   7.617   4.739  1.0261  0.6749  0.3373
 8690SOL    HW229987   7.379   7.636   4.597  0.4198  0.4096  0.5115
 8691SOL     OW29988  10.203   7.932   7.343 -0.4063  0.8532  0.7268
 8691SOL    HW129989  10.156   7.876   7.281 -0.2379  1.9276 -0.4232
 8691SOL    HW229990  10.211   7.879   7.422 -0.6957 -0.5444 -0.1406
 8692SOL     OW29991   4.423   6.235   2.997  0.5578 -0.0724 -0.2781
 8692SOL    HW129992   4.429   6.330   2.999 -0.3944 -0.0149  1.0701
 8692SOL    HW229993   4.443   6.207   3.086  2.8216 -1.3169 -1.0827
 8693SOL     OW29994   9.359   7.989   3.398  0.4792  0.0368  0.3819
 8693SOL    HW129995   9.339   7.990   3.492 -1.1286 -0.1765  0.0704
 8693SOL    HW229996   9.425   7.921   3.388 -0.0512 -0.6237  1.2406
 8694SOL     OW29997   1.026   0.189   6.870 -0.2874  0.1749  0.1823
 8694SOL    HW129998   1.085   0.160   6.800 -0.2383 -1.4588  0.8631
 8694SOL    HW229999   1.070   0.264   6.909 -0.2561  1.0507 -1.4308
 8695SOL     OW30000   5.809   4.798   3.963  0.0984  0.4175 -0.3928
 8695SOL    HW130001   5.755   4.805   3.884  1.1393 -0.0135 -1.1677
 8695SOL    HW230002   5.790   4.710   3.997  0.3133  0.2633 -0.6687
 8696SOL     OW30003   9.627   4.426   5.570 -0.0053  0.1922  0.0148
 8696SOL    HW130004   9.608   4.402   5.479 -0.9988  2.0760 -0.3374
 8696SOL    HW230005   9.722   4.434   5.574 -0.0681  2.5432 -1.5882
 8697SOL     OW30006   9.796   3.517   2.913 -0.3864  0.0808 -0.1836
 8697SOL    HW130007   9.856   3.584   2.879  0.0783 -0.6923 -0.9249
 8697SOL    HW230008   9.801   3.447   2.848 -0.3943 -0.9401  0.9112
 8698SOL     OW30009   0.492   5.540   8.542 -0.5531  0.0324 -0.5232
 8698SOL    HW130010   0.501   5.498   8.628 -0.6233 -0.5944 -0.8149
 8698SOL    HW230011   0.547   5.488   8.484 -0.2385  0.6615 -0.7908
 8699SOL     OW30012   3.588   7.218   0.762  0.0352 -0.2042 -0.1975
 8699SOL    HW130013   3.586   7.268   0.844  1.2762 -1.5844  0.7318
 8699SOL    HW230014   3.667   7.247   0.717 -0.6829  0.6033 -0.9728
 8700SOL     OW30015   8.796   4.551   4.797  0.1392  0.1951 -0.2831
 8700SOL    HW130016   8.825   4.540   4.707 -1.2338  1.3113 -0.8980
 8700SOL    HW230017   8.812   4.644   4.817  1.3533 -0.2478  0.9872
 8701SOL     OW30018   2.260   8.486   7.456  0.8823 -0.7306 -0.2561
 8701SOL    HW130019   2.174   8.506   7.417  0.2589 -0.5036  1.1516
 8701SOL    HW230020   2.322   8.540   7.406 -0.2165  1.5302  0.6727
 8702SOL     OW30021   1.431   0.837   5.077  0.4155 -0.1938 -0.1820
 8702SOL    HW130022   1.458   0.923   5.044 -3.1826  1.3195  0.4150
 8702SOL    HW230023   1.340   0.828   5.048  0.9668 -4.4149 -1.2384
 8703SOL     OW30024   2.645   4.624   0.502  0.4194 -0.0741 -0.2855
 8703SOL    HW130025   2.626   4.570   0.425  0.6975 -2.2924  1.1095
 8703SOL    HW230026   2.674   4.562   0.568 -0.3116  1.6862  1.8057
 8704SOL     OW30027   1.457   4.231   4.440 -0.4675  0.2534 -0.0504
 8704SOL    HW130028   1.459   4.186   4.525 -0.5439  0.2193 -0.0665
 8704SOL    HW230029   1.477   4.162   4.377  1.5161  0.6413  0.0792
 8705SOL     OW30030   9.516   3.029   7.406 -0.1518 -0.6121 -0.5406
 8705SOL    HW130031   9.490   3.027   7.314  1.6089 -2.0815 -1.0422
 8705SOL    HW230032   9.494   2.942   7.439  0.4143 -0.5277  0.0802
 8706SOL     OW30033   8.530   3.727   3.357 -0.5507  0.0724 -0.3433
 8706SOL    HW130034   8.532   3.821   3.376  0.7515 -0.1868  1.0184
 8706SOL    HW230035   8.441   3.700   3.379 -0.8392  0.9259 -0.4270
 8707SOL     OW30036   7.304   9.283   4.574 -0.6317  0.0230 -0.1667
 8707SOL    HW130037   7.228   9.244   4.616 -0.6826 -2.1097 -2.0642
 8707SOL    HW230038   7.305   9.246   4.486  1.6449  1.3047 -0.7698
 8708SOL     OW30039   7.723   3.953   0.533 -0.4179  0.2509 -0.3001
 8708SOL    HW130040   7.811   3.915   0.540  0.6101  2.1935 -1.6494
 8708SOL    HW230041   7.699   3.973   0.623  0.9282  0.5086  0.0244
 8709SOL     OW30042   4.904   3.604   9.206  0.7956  0.6066 -0.0512
 8709SOL    HW130043   4.818   3.645   9.203  1.5715  2.3747  0.1403
 8709SOL    HW230044   4.902   3.548   9.283 -0.0820  0.8942  0.1414
 8710SOL     OW30045   5.992   7.777   9.217  0.0941 -0.6207 -0.2885
 8710SOL    HW130046   5.901   7.802   9.233  0.4243  0.1838  0.3760
 8710SOL    HW230047   5.989   7.730   9.134 -0.5601  1.7313 -1.7028
 8711SOL     OW30048   3.352   7.053   6.021  0.3510 -0.0101  0.0680
 8711SOL    HW130049   3.304   7.133   6.045 -1.4600 -0.5399 -1.5722
 8711SOL    HW230050   3.421   7.083   5.961 -0.4840  0.3054 -0.7462
 8712SOL     OW30051   7.600   2.892   7.382 -0.1107 -0.1318  0.2178
 8712SOL    HW130052   7.632   2.900   7.472 -0.2949 -1.2160  0.4051
 8712SOL    HW230053   7.560   2.976   7.362  0.3654  0.2846  0.9750
 8713SOL     OW30054   9.694   0.980   3.663 -0.2574 -0.1440  0.0600
 8713SOL    HW130055   9.738   1.055   3.705 -1.1072  0.1919  0.3705
 8713SOL    HW230056   9.632   0.949   3.729  0.5885 -1.5944  0.2159
 8714SOL     OW30057   2.496   8.517   6.527 -0.0934  0.0429  0.4625
 8714SOL    HW130058   2.460   8.533   6.614  1.0214  1.2597  0.7237
 8714SOL    HW230059   2.566   8.454   6.540  0.1757  0.3410  0.4817
 8715SOL     OW30060   9.562   8.975   3.176 -0.1312 -0.1940 -0.0670
 8715SOL    HW130061   9.563   9.029   3.254  2.2343 -1.5179  0.9163
 8715SOL    HW230062   9.482   8.922   3.184 -1.0791  1.2494  0.2688
 8716SOL     OW30063   9.376   3.509   3.353  0.3616  0.0111  0.3056
 8716SOL    HW130064   9.465   3.502   3.318 -0.0645 -0.6910 -0.6878
 8716SOL    HW230065   9.375   3.593   3.399  1.2369  0.5122 -0.5522
 8717SOL     OW30066   9.030   9.269   6.417  0.0273 -0.1416 -0.3956
 8717SOL    HW130067   8.947   9.316   6.403 -0.2933  0.3637  2.5814
 8717SOL    HW230068   9.008   9.200   6.480  1.5733 -0.9784 -0.7296
 8718SOL     OW30069   3.607   6.577   7.611 -0.3418  0.5318  0.1393
 8718SOL    HW130070   3.701   6.562   7.602 -0.5666 -0.5363 -0.7579
 8718SOL    HW230071   3.600   6.666   7.645  0.9775  0.9527 -0.5962
 8719SOL     OW30072   4.573   0.322   9.495 -0.5421  0.3757  0.0147
 8719SOL    HW130073   4.581   0.280   9.409 -1.2023  1.7613 -0.7575
 8719SOL    HW230074   4.485   0.360   9.495 -0.4014  0.7343  1.1516
 8720SOL     OW30075   3.653   8.735   3.325 -0.5932 -0.2129 -1.1854
 8720SOL    HW130076   3.586   8.801   3.341 -0.1089  0.0587 -0.1364
 8720SOL    HW230077   3.706   8.771   3.254 -1.0007  0.0038 -1.3811
 8721SOL     OW30078   0.357   9.951   3.245 -0.3394  0.5371  0.0050
 8721SOL    HW130079   0.375   9.883   3.181 -1.5505  0.8868 -0.7189
 8721SOL    HW230080   0.328   9.904   3.323 -2.3231  0.2296 -0.8652
 8722SOL     OW30081   6.079   8.411   8.454  0.7276  0.1746  0.3229
 8722SOL    HW130082   5.984   8.412   8.461  0.7728  0.2663  1.0067
 8722SOL    HW230083   6.109   8.383   8.540  1.3413  0.9196  0.3612
 8723SOL     OW30084   1.487   4.509   4.820 -0.1150  0.1600 -0.3797
 8723SOL    HW130085   1.401   4.498   4.860 -0.0291 -1.1193 -0.4970
 8723SOL    HW230086   1.468   4.539   4.731 -0.3689  1.2670  0.0298
 8724SOL     OW30087   9.671   7.386   3.223 -0.4622 -0.0984 -0.1308
 8724SOL    HW130088   9.709   7.382   3.310  2.1864  3.1239 -0.9319
 8724SOL    HW230089   9.583   7.350   3.233 -0.5104  0.7385  3.9993
 8725SOL     OW30090   6.909   8.780   4.876 -0.1397  0.5084  0.0832
 8725SOL    HW130091   6.823   8.784   4.918 -0.5923 -0.0416 -0.7714
 8725SOL    HW230092   6.907   8.699   4.824  1.0908  0.1996  0.4791
 8726SOL     OW30093   7.249   4.256   4.858  0.3593  0.2566 -0.5987
 8726SOL    HW130094   7.201   4.266   4.776 -0.9540  0.0614  0.1161
 8726SOL    HW230095   7.316   4.189   4.839  0.0113  0.1470 -1.4728
 8727SOL     OW30096   1.519   3.871   0.118  0.2192 -0.6520 -0.2504
 8727SOL    HW130097   1.424   3.883   0.113  0.3719  0.5037 -0.5065
 8727SOL    HW230098   1.537   3.865   0.212  0.2148  2.1336 -0.0006
 8728SOL     OW30099   2.715   5.017   8.909 -0.1683 -0.6074  0.0349
 8728SOL    HW130100   2.709   4.937   8.963 -1.2988  0.3351  1.3762
 8728SOL    HW230101   2.626   5.052   8.908  0.4556  1.0688  0.1572
 8729SOL     OW30102   7.550   3.784   9.633 -0.2944  0.1567  0.1622
 8729SOL    HW130103   7.557   3.735   9.715 -0.0905 -0.5682 -0.2840
 8729SOL    HW230104   7.587   3.870   9.654  0.8753 -0.4125  0.5120
 8730SOL     OW30105   3.504  10.094   6.222 -0.8545 -0.2554  0.7546
 8730SOL    HW130106   3.578  10.039   6.193 -1.6024 -1.1165  0.4404
 8730SOL    HW230107   3.471  10.051   6.300 -1.6996 -0.4924  0.2784
 8731SOL     OW30108   9.768   8.371   0.633  0.1293  0.1497 -0.5731
 8731SOL    HW130109   9.825   8.330   0.568 -0.1688  1.7691 -1.9125
 8731SOL    HW230110   9.827   8.400   0.702  0.4886 -1.2880 -0.2392
 8732SOL     OW30111   8.145   5.508   3.266 -0.0505 -0.1253 -0.2830
 8732SOL    HW130112   8.061   5.505   3.312  0.4217  2.1995  0.8506
 8732SOL    HW230113   8.122   5.525   3.175 -0.8396  2.1472  0.2667
 8733SOL     OW30114   5.809   0.370   2.638  0.0224  0.4910  0.8773
 8733SOL    HW130115   5.895   0.379   2.680  0.2381 -1.0214  0.8215
 8733SOL    HW230116   5.774   0.288   2.673 -1.0527  0.6809  0.2781
 8734SOL     OW30117   0.230   9.267   5.876 -0.3771 -0.5507 -0.1759
 8734SOL    HW130118   0.154   9.267   5.933 -1.4157 -0.0650 -1.4999
 8734SOL    HW230119   0.194   9.276   5.788  1.2094 -0.3977 -0.8486
 8735SOL     OW30120   1.654   2.760   6.604  0.1122  0.3753  0.1484
 8735SOL    HW130121   1.585   2.738   6.667  0.8029  1.2513  1.2430
 8735SOL    HW230122   1.620   2.835   6.556 -0.8324 -0.8972 -1.2582
 8736SOL     OW30123   0.963   8.451   9.534  0.3814  0.0585 -0.1715
 8736SOL    HW130124   1.048   8.485   9.559  0.6300 -0.6035 -0.0952
 8736SOL    HW230125   0.967   8.444   9.438 -0.3876  2.1076 -0.3897
 8737SOL     OW30126   9.395   1.095   7.555  0.0693  0.2220 -0.1455
 8737SOL    HW130127   9.368   1.108   7.465  3.0279  0.7138 -1.0797
 8737SOL    HW230128   9.443   1.175   7.578  1.6766 -0.9494  0.8750
 8738SOL     OW30129   5.502   6.751   1.898 -0.5310 -0.6777  0.1970
 8738SOL    HW130130   5.555   6.820   1.860 -0.8674 -0.8659 -0.6229
 8738SOL    HW230131   5.498   6.684   1.830 -1.6623 -0.7446  0.3225
 8739SOL     OW30132   4.477   8.326   3.888  0.1095 -0.4918  0.4517
 8739SOL    HW130133   4.444   8.305   3.801  0.8182 -0.1133  0.0818
 8739SOL    HW230134   4.537   8.399   3.873  0.3499 -0.5256  1.2390
 8740SOL     OW30135   8.599   8.181   6.649  0.3159 -0.3610 -0.2174
 8740SOL    HW130136   8.576   8.097   6.688  0.8443  0.0167  0.9552
 8740SOL    HW230137   8.690   8.195   6.676  0.3670  0.3873 -0.7611
 8741SOL     OW30138   9.563   0.058   6.445  0.5451  0.0633 -0.0656
 8741SOL    HW130139   9.531   0.134   6.493  1.3931  0.3571  0.0602
 8741SOL    HW230140   9.631   0.020   6.502 -2.3409 -3.0609  1.6655
 8742SOL     OW30141   2.984   0.206   5.801 -0.2608 -0.1702  0.4056
 8742SOL    HW130142   2.907   0.207   5.744  0.5833  1.1161 -0.7963
 8742SOL    HW230143   3.056   0.180   5.743  0.4481  0.0924  1.1462
 8743SOL     OW30144   3.021   2.209   9.434  0.6189 -0.2484  0.2093
 8743SOL    HW130145   2.934   2.181   9.405 -0.3947  1.3430  1.5468
 8743SOL    HW230146   3.053   2.264   9.363 -1.7364  3.4060  1.6804
 8744SOL     OW30147   2.880   1.360   5.925 -1.0616 -0.5489 -0.3651
 8744SOL    HW130148   2.824   1.402   5.991 -1.3658 -1.3109 -0.1155
 8744SOL    HW230149   2.916   1.284   5.971  0.6031  0.2094 -0.3716
 8745SOL     OW30150   3.328   3.200   3.384 -0.1954 -0.3689  0.0425
 8745SOL    HW130151   3.408   3.193   3.437 -1.4703 -2.1608  1.8844
 8745SOL    HW230152   3.359   3.219   3.296  2.2322 -0.4680  0.8095
 8746SOL     OW30153   9.934   9.097   7.452 -0.4442 -0.2304  0.0497
 8746SOL    HW130154   9.972   9.180   7.482  0.2932 -0.5825  0.1097
 8746SOL    HW230155   9.847   9.120   7.421 -0.7133  0.3708  1.2113
 8747SOL     OW30156   4.889   1.233   2.621 -0.3042  0.4895  0.1406
 8747SOL    HW130157   4.836   1.180   2.561  1.1535 -0.2398 -0.5642
 8747SOL    HW230158   4.826   1.273   2.680 -1.8530  1.4741 -2.0455
 8748SOL     OW30159   4.999   7.678   9.730  0.1024 -0.0117  0.2349
 8748SOL    HW130160   5.067   7.612   9.715  0.1493  0.3846 -1.4286
 8748SOL    HW230161   5.046   7.760   9.741 -0.0290  0.9676 -4.4842
 8749SOL     OW30162   1.040   3.470   7.964 -0.1479  0.1703 -0.1443
 8749SOL    HW130163   1.067   3.399   8.022 -2.3690 -1.2766 -0.7089
 8749SOL    HW230164   0.946   3.456   7.952 -0.6036  3.0021 -0.6419
 8750SOL     OW30165   4.358   6.594   0.211 -0.5545 -0.0314  0.0585
 8750SOL    HW130166   4.385   6.531   0.278  0.1673 -0.0591 -0.2474
 8750SOL    HW230167   4.411   6.671   0.228  0.7294 -0.5523 -1.3613
 8751SOL     OW30168   1.003   6.109   2.241  0.2196  0.2422  0.7331
 8751SOL    HW130169   1.086   6.114   2.289  0.3889  2.1923  0.3044
 8751SOL    HW230170   1.005   6.184   2.182 -0.8682 -0.9702 -0.9209
 8752SOL     OW30171   6.907   6.167   3.620  0.2205  0.2061  0.1444
 8752SOL    HW130172   6.924   6.107   3.692  0.3656  0.6146  0.4533
 8752SOL    HW230173   6.958   6.133   3.547 -0.7021 -0.7775 -0.0665
 8753SOL     OW30174   5.876   6.780   5.970 -0.1049  0.4418  0.4739
 8753SOL    HW130175   5.894   6.688   5.947  0.6138  1.0133 -1.4515
 8753SOL    HW230176   5.955   6.827   5.944 -1.0953  1.8243 -0.1288
 8754SOL     OW30177   6.055   0.519   1.053  0.1145  0.2332 -0.3953
 8754SOL    HW130178   6.041   0.547   0.963  0.8853 -1.4468 -1.0748
 8754SOL    HW230179   6.102   0.591   1.094 -1.1925  1.4713 -1.0059
 8755SOL     OW30180   0.126   0.688   3.774  0.0624  0.4485 -0.4363
 8755SOL    HW130181   0.154   0.625   3.709  1.7543 -1.4931  1.9757
 8755SOL    HW230182   0.031   0.678   3.780 -0.1694  0.8808 -2.6828
 8756SOL     OW30183   0.733   5.444   0.075 -0.7150 -0.6756  0.1176
 8756SOL    HW130184   0.655   5.414   0.122 -1.1575  0.0916 -0.1048
 8756SOL    HW230185   0.729   5.539   0.080 -0.9610 -0.5454 -1.7566
 8757SOL     OW30186   4.528   8.675   2.023 -0.3740 -0.2886 -0.5582
 8757SOL    HW130187   4.561   8.731   2.093  2.4287 -2.7578  0.2975
 8757SOL    HW230188   4.554   8.587   2.049 -1.3329 -1.5925 -3.6071
 8758SOL     OW30189   9.792  10.123   8.396  0.3529  0.2335  0.0832
 8758SOL    HW130190   9.772  10.146   8.486  1.2540  0.4382  0.2443
 8758SOL    HW230191   9.873  10.072   8.402 -0.2644 -0.8367 -0.4997
 8759SOL     OW30192   9.929   0.273   0.115  0.0898 -0.4863  0.2895
 8759SOL    HW130193  10.013   0.302   0.151  1.4980 -1.1187 -2.2410
 8759SOL    HW230194   9.895   0.350   0.071  1.2232 -1.1283 -1.8457
 8760SOL     OW30195   9.017   5.596   6.830 -0.0269 -0.5778  0.3711
 8760SOL    HW130196   9.030   5.624   6.920  0.8946 -1.6130  0.5846
 8760SOL    HW230197   9.088   5.637   6.781  0.2261 -1.0258  0.3544
 8761SOL     OW30198   7.947   3.835   9.144 -0.5740  0.3328 -0.0342
 8761SOL    HW130199   8.042   3.822   9.149 -0.7919 -1.6638 -0.2591
 8761SOL    HW230200   7.929   3.841   9.050 -0.5834  1.7691  0.0344
 8762SOL     OW30201   5.602   4.024   1.100 -0.2647 -0.4131 -0.0738
 8762SOL    HW130202   5.660   3.966   1.051 -0.6516 -0.1844 -0.8198
 8762SOL    HW230203   5.545   3.965   1.150 -0.3228 -0.6660 -0.4348
 8763SOL     OW30204   2.348   2.318   1.478 -0.1569  0.1977 -0.1305
 8763SOL    HW130205   2.439   2.319   1.507 -0.1760  1.0940 -0.0980
 8763SOL    HW230206   2.351   2.341   1.386 -0.3647  0.3278 -0.1045
 8764SOL     OW30207   5.875   0.912   9.791  0.4828 -0.5002  0.0254
 8764SOL    HW130208   5.912   0.976   9.731  0.1789  0.1585  0.5300
 8764SOL    HW230209   5.936   0.910   9.865  0.7758 -1.1947 -0.2238
 8765SOL     OW30210   2.885   1.160   4.580  0.0456 -0.4238 -0.0568
 8765SOL    HW130211   2.879   1.180   4.487  0.6537 -0.6675 -0.1557
 8765SOL    HW230212   2.943   1.228   4.616  0.8212 -1.0396 -0.0993
 8766SOL     OW30213   4.071   0.565   9.685 -0.2292 -0.1994 -0.2404
 8766SOL    HW130214   4.153   0.603   9.715  0.7836 -0.9980 -1.8477
 8766SOL    HW230215   4.031   0.633   9.631  0.9831 -0.8829 -2.0966
 8767SOL     OW30216   2.746   3.490   9.801 -0.4556 -0.0080  0.0198
 8767SOL    HW130217   2.796   3.412   9.824  0.3006  0.5196  0.1958
 8767SOL    HW230218   2.739   3.539   9.883 -1.7161 -0.3094  0.1214
 8768SOL     OW30219   3.327   1.778   0.369 -0.5574  0.0757  0.9947
 8768SOL    HW130220   3.417   1.751   0.391 -0.1849  1.1926  0.9108
 8768SOL    HW230221   3.307   1.730   0.288  0.2063  0.2784  0.6714
 8769SOL     OW30222   5.716   3.025   0.312 -0.3736 -0.5073  0.1046
 8769SOL    HW130223   5.674   3.015   0.397 -1.4877 -0.2402 -0.4063
 8769SOL    HW230224   5.758   2.940   0.295  1.2749 -0.0554  1.6419
 8770SOL     OW30225   3.970   8.889   1.545 -0.2518 -0.4899  0.3915
 8770SOL    HW130226   3.875   8.879   1.557 -0.2811 -0.1676  0.4283
 8770SOL    HW230227   3.998   8.804   1.510 -0.3417 -1.0602  1.6638
 8771SOL     OW30228   7.625   2.896   9.755 -0.1603  0.3482 -0.2254
 8771SOL    HW130229   7.542   2.919   9.796 -0.1744  1.8349 -1.0207
 8771SOL    HW230230   7.627   2.800   9.756 -0.4416  0.2838  2.5992
 8772SOL     OW30231   8.480   4.007   4.534  0.4468  0.2029  0.3627
 8772SOL    HW130232   8.527   4.038   4.457 -1.6785 -0.4957 -1.3288
 8772SOL    HW230233   8.538   3.942   4.572  0.7984 -0.8691 -1.8172
 8773SOL     OW30234   9.300   3.141   1.752  0.0911 -0.1499  0.4800
 8773SOL    HW130235   9.288   3.236   1.753  0.8698 -0.0176 -0.7589
 8773SOL    HW230236   9.380   3.126   1.802 -0.3038 -0.2151  1.1074
 8774SOL     OW30237   2.644   0.095   6.203  0.3383 -0.2422 -0.4231
 8774SOL    HW130238   2.736   0.075   6.182  0.2677 -0.9380 -0.0897
 8774SOL    HW230239   2.597   0.014   6.185 -0.4567  0.4933 -1.8965
 8775SOL     OW30240   8.213   3.049   2.639  0.1339 -0.7495 -0.0588
 8775SOL    HW130241   8.289   3.015   2.592  0.9714  0.1368  0.6016
 8775SOL    HW230242   8.246   3.068   2.727 -0.3907  1.2607 -0.2412
 8776SOL     OW30243   1.201   4.305   6.533  0.0452  0.5347  0.7885
 8776SOL    HW130244   1.196   4.354   6.615 -0.4974  0.7742  0.6111
 8776SOL    HW230245   1.278   4.341   6.488 -1.0074  2.0278  0.1401
 8777SOL     OW30246   4.213   6.386   6.472 -0.0944  0.3054 -0.2082
 8777SOL    HW130247   4.302   6.349   6.477 -0.7117 -1.4254 -1.3318
 8777SOL    HW230248   4.197   6.420   6.560  1.3143 -0.2355  0.2906
 8778SOL     OW30249   0.687   9.841   3.130 -0.6956 -0.5552 -0.4204
 8778SOL    HW130250   0.764   9.896   3.115  0.3031 -2.2386 -1.7331
 8778SOL    HW230251   0.694   9.813   3.222  0.9135 -1.6106 -0.8318
 8779SOL     OW30252   8.432   4.549   1.875 -0.5842  0.3406 -0.5563
 8779SOL    HW130253   8.459   4.458   1.857 -0.8265  0.1042  0.2289
 8779SOL    HW230254   8.473   4.570   1.958 -1.5359  0.5171 -0.1174
 8780SOL     OW30255   6.411   2.970   3.891  0.0864 -0.1320  0.4390
 8780SOL    HW130256   6.504   2.969   3.913  0.7484  0.3259 -2.0618
 8780SOL    HW230257   6.372   3.030   3.955  1.6130  0.1207  1.1719
 8781SOL     OW30258   9.480   6.602   5.997  0.7878 -0.9712 -0.1746
 8781SOL    HW130259   9.553   6.663   5.984 -0.1156  0.3609  0.7002
 8781SOL    HW230260   9.445   6.588   5.909 -0.3801  1.6213 -0.2043
 8782SOL     OW30261   3.326   9.556   1.145 -0.2574 -0.5648  0.3203
 8782SOL    HW130262   3.315   9.635   1.199 -0.6357 -0.0938 -0.4221
 8782SOL    HW230263   3.418   9.532   1.156 -0.3202 -0.4639  1.1439
 8783SOL     OW30264   9.912  10.074   8.712  0.1542 -0.6924  0.7117
 8783SOL    HW130265   9.891   9.984   8.736  0.3681 -0.4523  1.8840
 8783SOL    HW230266  10.006  10.082   8.729  0.4876 -0.6864 -0.9113
 8784SOL     OW30267   8.319   7.826   8.314  0.1255  0.1060 -0.7378
 8784SOL    HW130268   8.413   7.839   8.320  0.1304  0.3780 -1.3679
 8784SOL    HW230269   8.286   7.907   8.276 -0.4329  0.2410  0.0126
 8785SOL     OW30270   4.816   9.895   2.697 -0.3698  0.4477  0.1772
 8785SOL    HW130271   4.901   9.924   2.663 -0.2205 -0.6412 -0.4174
 8785SOL    HW230272   4.758   9.970   2.684  0.7329  1.6282  1.6025
 8786SOL     OW30273   2.640   8.810   1.443 -0.3345  0.0196  0.1882
 8786SOL    HW130274   2.703   8.777   1.379  0.8315  0.4070  1.0978
 8786SOL    HW230275   2.568   8.747   1.440 -0.3210  0.0392 -1.4961
 8787SOL     OW30276   6.307   6.977   2.889  0.3654 -0.0339 -0.9049
 8787SOL    HW130277   6.376   6.925   2.930 -0.0861 -0.0434 -0.1435
 8787SOL    HW230278   6.236   6.916   2.872 -0.1901  0.3393  0.0482
 8788SOL     OW30279   0.667   7.383   1.772 -0.5136 -0.1612  0.2829
 8788SOL    HW130280   0.627   7.410   1.855  0.4085  1.3709  0.2720
 8788SOL    HW230281   0.593   7.378   1.711 -0.8345  2.0220  0.4046
 8789SOL     OW30282   9.366   8.038   0.652  0.1680  0.2620 -0.5994
 8789SOL    HW130283   9.449   8.069   0.688  0.1787  1.5119 -1.6107
 8789SOL    HW230284   9.299   8.076   0.709  0.2575 -3.0628  1.9740
 8790SOL     OW30285   1.023   1.237   2.259 -0.0031 -0.1075 -0.4769
 8790SOL    HW130286   1.042   1.182   2.184 -1.2353  0.7468 -1.4470
 8790SOL    HW230287   1.067   1.194   2.333 -1.5343 -2.7968 -1.0191
 8791SOL     OW30288   6.687   7.829   4.270 -0.0070 -0.1380 -0.5708
 8791SOL    HW130289   6.657   7.837   4.180  1.5155  1.7985 -0.9790
 8791SOL    HW230290   6.780   7.807   4.262  0.6863  2.0728  0.3875
 8792SOL     OW30291   1.677   5.356   9.273 -0.9058  0.4064  0.0921
 8792SOL    HW130292   1.740   5.300   9.229 -0.9911 -0.3574  0.9205
 8792SOL    HW230293   1.591   5.326   9.242 -0.8894  1.4390 -1.0278
 8793SOL     OW30294   7.050   1.427   9.803  0.4493 -0.0890 -0.7164
 8793SOL    HW130295   7.113   1.464   9.742  0.3929 -0.6673 -1.1394
 8793SOL    HW230296   7.000   1.364   9.751 -0.2867  0.1526 -0.3189
 8794SOL     OW30297   9.615   2.290   4.135 -0.3988  0.5243  0.1573
 8794SOL    HW130298   9.691   2.348   4.147 -0.4614  0.5287  0.5684
 8794SOL    HW230299   9.565   2.301   4.216 -0.0998 -0.5700  0.5140
 8795SOL     OW30300   1.437   4.918   4.092  0.1424  0.3432  0.0378
 8795SOL    HW130301   1.520   4.965   4.087  2.7142 -3.8014 -1.3370
 8795SOL    HW230302   1.404   4.919   4.002  0.2579 -0.4665 -0.0187
 8796SOL     OW30303   9.046   8.342   9.542  0.1916 -0.0619 -0.2719
 8796SOL    HW130304   9.140   8.353   9.532  0.2888 -0.8126 -0.2719
 8796SOL    HW230305   9.010   8.430   9.535  0.8927  0.2261 -0.2832
 8797SOL     OW30306   6.386   3.577   9.059  0.0355 -0.4709  0.0380
 8797SOL    HW130307   6.365   3.612   9.145 -0.1949  0.6410 -0.4509
 8797SOL    HW230308   6.306   3.532   9.031 -0.5308  0.7247 -0.3354
 8798SOL     OW30309   1.068   7.237   1.511 -0.7242 -0.2566  0.0941
 8798SOL    HW130310   1.126   7.313   1.510 -0.9671 -0.0744 -0.2724
 8798SOL    HW230311   1.020   7.244   1.594 -0.5728 -0.1467  0.1724
 8799SOL     OW30312   7.191   3.574   1.257  0.1901  0.4418 -0.0528
 8799SOL    HW130313   7.196   3.509   1.188  0.6809 -1.0731  1.3434
 8799SOL    HW230314   7.100   3.603   1.257 -0.3615 -1.2280  0.1447
 8800SOL     OW30315   4.032   5.789   2.139  0.4063  0.3576  0.0309
 8800SOL    HW130316   4.092   5.717   2.160  0.2054  0.5448  1.3376
 8800SOL    HW230317   4.024   5.837   2.222 -1.0249  0.7190 -0.3063
 8801SOL     OW30318   7.106   8.460   9.963  0.0119  0.0557 -0.2372
 8801SOL    HW130319   7.142   8.535  10.010  1.0453 -0.9310  0.6169
 8801SOL    HW230320   7.046   8.419  10.025  0.2708 -0.4316 -0.3033
 8802SOL     OW30321   6.988   7.544   5.001 -0.2171 -0.3057  0.4930
 8802SOL    HW130322   6.990   7.563   5.094  2.6582 -1.8575  0.8758
 8802SOL    HW230323   7.054   7.601   4.963  1.0024 -1.9704  0.0055
 8803SOL     OW30324   9.982   1.539   9.696 -0.0275 -0.0399 -0.0040
 8803SOL    HW130325  10.038   1.466   9.721 -0.2117  0.0477  0.6775
 8803SOL    HW230326   9.954   1.519   9.607 -1.4157 -1.6344  0.7482
 8804SOL     OW30327   9.243   2.537   4.221  0.2000  0.0141 -0.0421
 8804SOL    HW130328   9.254   2.591   4.143  0.4700  0.5004  0.3210
 8804SOL    HW230329   9.298   2.579   4.287  0.7712 -0.9755  0.1254
 8805SOL     OW30330   5.786   1.880   8.288 -0.0096 -0.1482  0.3269
 8805SOL    HW130331   5.743   1.965   8.298 -3.3511 -1.3828 -1.8358
 8805SOL    HW230332   5.717   1.816   8.300  2.0756 -2.5559  0.3710
 8806SOL     OW30333   0.266  10.109   6.459 -0.4552  0.1580  0.0150
 8806SOL    HW130334   0.231  10.109   6.548 -1.8990 -2.1614 -0.4665
 8806SOL    HW230335   0.359  10.088   6.469 -0.7436 -0.7509  0.9808
 8807SOL     OW30336   7.825   9.096   4.272 -0.2118  0.3932  0.0418
 8807SOL    HW130337   7.916   9.098   4.304  0.5847  0.3554 -2.0574
 8807SOL    HW230338   7.778   9.044   4.337  1.5307 -0.5868  0.5885
 8808SOL     OW30339   2.482   6.305   0.188  0.0159  0.0472 -0.2315
 8808SOL    HW130340   2.406   6.276   0.237 -1.0827  1.8454 -0.7818
 8808SOL    HW230341   2.448   6.367   0.124  2.0337  1.6646  0.1428
 8809SOL     OW30342   0.789   4.796   0.661  0.4767  0.2997  0.0603
 8809SOL    HW130343   0.720   4.737   0.693  0.2565  0.7574  0.4410
 8809SOL    HW230344   0.846   4.809   0.736  2.0048 -1.4572 -0.6878
 8810SOL     OW30345   6.182   3.784   6.037 -0.0478  0.4392  0.1060
 8810SOL    HW130346   6.221   3.708   5.993  1.2813  1.5552 -0.7448
 8810SOL    HW230347   6.170   3.756   6.127  0.5826 -0.7307 -0.1581
 8811SOL     OW30348   8.117   1.216   7.233 -0.2155 -0.3836  0.2510
 8811SOL    HW130349   8.139   1.124   7.221 -0.8959 -0.4701 -0.3552
 8811SOL    HW230350   8.036   1.229   7.184  0.1157  0.6437 -0.0559
 8812SOL     OW30351   5.789   1.776  10.037 -0.8395 -0.2248 -0.3109
 8812SOL    HW130352   5.874   1.733  10.025 -1.4196 -1.1322 -1.2614
 8812SOL    HW230353   5.777   1.778  10.132  1.0900  1.6573 -0.0193
 8813SOL     OW30354   4.222   5.028   6.195  0.5726  0.7939 -0.6207
 8813SOL    HW130355   4.168   5.106   6.203 -0.0997  0.1522  1.7179
 8813SOL    HW230356   4.160   4.958   6.175  0.5717  0.1686  1.4117
 8814SOL     OW30357   2.637   9.906   7.094 -0.3311 -0.0780 -0.2008
 8814SOL    HW130358   2.587   9.932   7.018 -0.1673 -1.3520 -0.7743
 8814SOL    HW230359   2.725   9.942   7.079 -0.5782  0.5866 -0.0786
 8815SOL     OW30360   2.659   2.172   6.478  0.9742  0.0144 -0.0666
 8815SOL    HW130361   2.651   2.132   6.565  1.2603  0.3801  0.1314
 8815SOL    HW230362   2.600   2.121   6.423  0.5137  0.0001  0.4208
 8816SOL     OW30363   8.431   7.765   3.265 -0.1589  0.4637  0.6716
 8816SOL    HW130364   8.369   7.837   3.264 -0.5209  0.1533 -0.3505
 8816SOL    HW230365   8.497   7.788   3.199 -0.3785 -0.2073  0.1977
 8817SOL     OW30366   3.262   4.520   0.502  0.5826 -0.2444 -0.1635
 8817SOL    HW130367   3.238   4.483   0.587 -2.1239 -0.4156 -0.8888
 8817SOL    HW230368   3.251   4.446   0.441  1.5744  0.1066 -0.7768
 8818SOL     OW30369   2.762   8.878   0.220  0.1177  0.0397  0.0140
 8818SOL    HW130370   2.683   8.865   0.272  2.4517 -0.2710  3.9088
 8818SOL    HW230371   2.806   8.793   0.222  0.4811  0.1026 -2.3764
 8819SOL     OW30372   3.343   3.849   0.118  0.0745  0.1065  0.4690
 8819SOL    HW130373   3.381   3.769   0.083  0.1806 -0.5135  1.9197
 8819SOL    HW230374   3.414   3.890   0.168 -0.1915  0.7095  0.3611
 8820SOL     OW30375   3.759   7.736   1.340 -0.4212  0.0394 -0.4809
 8820SOL    HW130376   3.844   7.726   1.383  0.2208  1.6095 -1.2771
 8820SOL    HW230377   3.736   7.828   1.356 -1.7346 -0.2480 -0.6829
 8821SOL     OW30378   7.779   3.378   5.277 -0.0466  0.1139  0.1532
 8821SOL    HW130379   7.833   3.356   5.352  0.5954  3.4764  0.8490
 8821SOL    HW230380   7.701   3.419   5.314 -1.2102 -0.9660 -0.9729
 8822SOL     OW30381   0.271   3.750   0.679  0.4155 -0.7350  0.0166
 8822SOL    HW130382   0.198   3.811   0.684  2.0466  1.4477 -1.0366
 8822SOL    HW230383   0.316   3.759   0.763  0.5583 -0.5946 -0.0735
 8823SOL     OW30384  10.087   4.451   2.401  0.5228 -0.0450  0.2882
 8823SOL    HW130385  10.177   4.479   2.384  0.4977 -0.5026 -0.6620
 8823SOL    HW230386  10.033   4.506   2.344  0.0030  1.4493  2.1020
 8824SOL     OW30387   0.205   8.644   1.746 -0.1896  0.3540 -0.3163
 8824SOL    HW130388   0.153   8.651   1.666 -1.0214  0.1856  0.1967
 8824SOL    HW230389   0.143   8.663   1.817  0.4740  0.2621  0.2998
 8825SOL     OW30390  10.206   1.542   6.718  0.3599  0.3093  0.1526
 8825SOL    HW130391  10.208   1.447   6.705 -2.5358  0.3713 -2.0021
 8825SOL    HW230392  10.115   1.566   6.699  0.8109  3.4480  1.3822
 8826SOL     OW30393   1.509   3.305   0.820  0.0582  0.1278 -0.0370
 8826SOL    HW130394   1.474   3.392   0.800  0.9456  0.1568 -1.6388
 8826SOL    HW230395   1.604   3.317   0.820  0.1526 -0.4108  1.9730
 8827SOL     OW30396   1.035   2.292   6.999 -0.1180 -0.0919  0.0357
 8827SOL    HW130397   0.987   2.233   7.056  0.9204 -0.3080  0.7060
 8827SOL    HW230398   0.999   2.276   6.912 -2.4160  0.9336  0.7273
 8828SOL     OW30399   4.353   7.531   6.001  0.3123 -0.6204 -0.4659
 8828SOL    HW130400   4.379   7.539   6.092  2.3398 -2.0481 -0.8701
 8828SOL    HW230401   4.358   7.438   5.981  1.7261 -0.1786 -2.5137
 8829SOL     OW30402   9.650   8.383   6.967 -0.1771 -0.3976  0.5965
 8829SOL    HW130403   9.648   8.462   7.021  1.2033 -0.2034  0.4022
 8829SOL    HW230404   9.587   8.399   6.897 -1.1510 -0.1839  1.4932
 8830SOL     OW30405   5.300   3.197   7.911 -0.0742 -0.5368 -0.0357
 8830SOL    HW130406   5.396   3.197   7.905 -0.0043 -0.1261  0.9800
 8830SOL    HW230407   5.273   3.276   7.863  0.3412  1.3866  2.6573
 8831SOL     OW30408   8.210   8.746   2.030 -0.0327  0.3358 -0.3224
 8831SOL    HW130409   8.187   8.816   2.092 -2.5795 -0.4074 -0.3195
 8831SOL    HW230410   8.199   8.786   1.944 -0.7599  0.1584 -0.3149
 8832SOL     OW30411   6.650   3.339   1.375 -0.4856 -0.1329 -0.1176
 8832SOL    HW130412   6.595   3.273   1.416  0.3267 -0.3198  0.7187
 8832SOL    HW230413   6.739   3.305   1.386 -0.0640  1.0393  0.2337
 8833SOL     OW30414   0.785   9.114   9.886 -0.6036 -0.3139  0.6058
 8833SOL    HW130415   0.775   9.188   9.947  0.6694  0.5939 -0.2368
 8833SOL    HW230416   0.797   9.038   9.942 -2.5798 -0.0200  1.5111
 8834SOL     OW30417   5.138   9.193   6.348  0.2316  0.3438  0.2650
 8834SOL    HW130418   5.104   9.108   6.376  1.0182  0.2654  1.0324
 8834SOL    HW230419   5.163   9.181   6.257  1.0318 -0.4801  0.5736
 8835SOL     OW30420   6.822   4.979   1.824  0.5887 -0.5597  0.3686
 8835SOL    HW130421   6.808   4.903   1.880 -2.0875 -0.0091  0.5705
 8835SOL    HW230422   6.818   5.054   1.883 -1.4332 -0.0247 -0.3682
 8836SOL     OW30423   5.865   8.871  10.088  0.4539  0.2829 -0.3311
 8836SOL    HW130424   5.831   8.862  10.178 -0.7778 -1.1251 -0.8960
 8836SOL    HW230425   5.955   8.903  10.100  0.2269  0.3943  1.3916
 8837SOL     OW30426   2.696   2.731   0.275 -0.0762  0.1835  0.0071
 8837SOL    HW130427   2.727   2.803   0.220 -0.1856 -0.1647 -0.5201
 8837SOL    HW230428   2.727   2.753   0.363  0.6458  0.4350 -0.2996
 8838SOL     OW30429   5.909   5.740   7.403  0.1907  0.5672 -0.2337
 8838SOL    HW130430   5.928   5.763   7.313  2.0748  0.5010  0.1034
 8838SOL    HW230431   5.850   5.809   7.434  0.2118  1.0616 -1.2657
 8839SOL     OW30432   0.817   0.104   0.312 -0.4024  0.0453 -0.3273
 8839SOL    HW130433   0.905   0.110   0.274 -0.8162  1.0970 -1.2023
 8839SOL    HW230434   0.759   0.119   0.237 -1.3108 -0.0454  0.3520
 8840SOL     OW30435   5.164   7.323   3.750  0.5746  0.1075  0.5844
 8840SOL    HW130436   5.119   7.369   3.679  0.2706  0.2895  0.8873
 8840SOL    HW230437   5.175   7.234   3.718 -0.8156 -0.1830  0.8419
 8841SOL     OW30438   3.665   7.086   7.663 -0.1932 -0.0026  0.3635
 8841SOL    HW130439   3.707   7.055   7.743  1.1282 -0.7873 -0.6037
 8841SOL    HW230440   3.614   7.011   7.632 -0.0784  0.0506  0.0482
 8842SOL     OW30441   4.892   8.486   2.137  0.0483 -0.4860  0.0205
 8842SOL    HW130442   4.931   8.540   2.206 -0.5703  2.7119 -1.9056
 8842SOL    HW230443   4.953   8.493   2.063 -1.3467 -0.1071 -1.1607
 8843SOL     OW30444  10.129   1.111   7.337 -0.3805  0.1684 -0.5314
 8843SOL    HW130445  10.154   1.092   7.427 -1.2373 -0.0881 -0.3364
 8843SOL    HW230446  10.039   1.143   7.343 -1.2421 -1.9033 -1.4715
 8844SOL     OW30447   0.630   1.623   3.364  0.3832 -0.6491  0.3401
 8844SOL    HW130448   0.713   1.608   3.410  1.3743  0.3624 -1.0360
 8844SOL    HW230449   0.567   1.640   3.434  2.0739  2.0174  1.3844
 8845SOL     OW30450   1.924   5.001   8.946 -0.0408 -0.0863 -0.0605
 8845SOL    HW130451   1.913   4.914   8.907  0.9109 -0.0196 -0.5092
 8845SOL    HW230452   1.909   5.061   8.872  0.9178  0.0690 -0.1403
 8846SOL     OW30453   2.968   5.521   7.099 -1.0163  0.2314  0.0952
 8846SOL    HW130454   3.030   5.561   7.039  1.2202 -0.3601  1.8553
 8846SOL    HW230455   2.926   5.595   7.143  0.8614  0.7229  1.1645
 8847SOL     OW30456   5.981   2.422   4.918 -0.1114 -0.0596  0.0732
 8847SOL    HW130457   5.959   2.514   4.930 -0.0931  0.0603 -0.7129
 8847SOL    HW230458   6.001   2.414   4.824  0.2623 -0.7835  0.2051
 8848SOL     OW30459   2.232   8.083   7.500 -0.1134 -0.5406  0.2328
 8848SOL    HW130460   2.172   8.144   7.457 -1.4343 -1.3388  0.8497
 8848SOL    HW230461   2.281   8.042   7.429  0.9178  1.3188 -0.1754
 8849SOL     OW30462   0.135   3.251   2.024  0.4251 -0.3401 -0.2068
 8849SOL    HW130463   0.067   3.195   2.061  0.2397 -0.1179 -0.2112
 8849SOL    HW230464   0.140   3.326   2.083  0.2873 -0.0964 -0.5020
 8850SOL     OW30465   4.156   2.965   3.872  0.4980  0.6605  0.1159
 8850SOL    HW130466   4.225   3.029   3.850  1.0350  0.2079  0.4730
 8850SOL    HW230467   4.140   2.918   3.790  1.4095  0.0177  0.2920
 8851SOL     OW30468   2.322   8.288  10.136 -0.2686 -0.5408 -0.1093
 8851SOL    HW130469   2.344   8.229  10.208 -0.8929 -1.1309 -0.3915
 8851SOL    HW230470   2.282   8.231  10.070  1.7952 -0.3202 -1.6477
 8852SOL     OW30471   2.331   2.872   5.391  0.1669  0.7541  0.2179
 8852SOL    HW130472   2.316   2.936   5.321  1.4538  0.3364 -0.4770
 8852SOL    HW230473   2.307   2.788   5.351  1.4990  0.4374  0.0437
 8853SOL     OW30474   2.017   6.618   5.720 -0.6915 -0.2145 -0.0295
 8853SOL    HW130475   2.009   6.559   5.645 -0.5702  0.7118 -0.7862
 8853SOL    HW230476   2.003   6.706   5.683 -0.8676  0.2344  1.0729
 8854SOL     OW30477   0.453   3.162   7.920  0.0782  0.0316 -0.3584
 8854SOL    HW130478   0.478   3.085   7.868  0.6276  0.7805 -1.2414
 8854SOL    HW230479   0.436   3.230   7.855  2.0251  1.3744  0.4438
 8855SOL     OW30480   4.776   4.904   5.371  0.2544  0.0864 -0.1026
 8855SOL    HW130481   4.786   4.944   5.285  1.3750  0.7231  0.3079
 8855SOL    HW230482   4.691   4.935   5.402  0.1994  0.4928 -0.6482
 8856SOL     OW30483   8.856   9.365   9.248  0.0286  0.3428  0.4213
 8856SOL    HW130484   8.832   9.413   9.327 -1.4983  1.5255 -0.6940
 8856SOL    HW230485   8.805   9.406   9.178  0.4678 -1.3791 -1.0058
 8857SOL     OW30486   5.918   0.204   0.112 -0.0014 -0.2409 -0.1728
 8857SOL    HW130487   5.862   0.240   0.181  0.7727  1.3957 -0.3556
 8857SOL    HW230488   6.001   0.251   0.121  0.9728 -1.7899 -0.6463
 8858SOL     OW30489   5.868   8.103   9.344 -0.0720 -0.0665 -0.4174
 8858SOL    HW130490   5.815   8.040   9.294 -0.5093  0.1110 -0.1871
 8858SOL    HW230491   5.805   8.169   9.372  0.4633  0.7357 -1.0633
 8859SOL     OW30492   7.651   8.680   6.013  0.0651 -0.0885 -0.0095
 8859SOL    HW130493   7.632   8.766   5.976  1.8045  0.5194  0.3923
 8859SOL    HW230494   7.732   8.693   6.064  0.0247 -1.8165  0.5769
 8860SOL     OW30495   4.868   3.745   4.095 -0.3706  0.7013 -0.0303
 8860SOL    HW130496   4.891   3.711   4.009 -2.0421  0.8149 -0.5448
 8860SOL    HW230497   4.818   3.675   4.136 -0.7906  1.1833  0.2937
 8861SOL     OW30498   2.149   7.308   3.616 -0.3004 -0.0775  0.3936
 8861SOL    HW130499   2.124   7.400   3.606 -2.7152 -0.6220  0.7830
 8861SOL    HW230500   2.170   7.299   3.709  0.5200  0.1939  0.2404
 8862SOL     OW30501   7.656   4.881   8.276 -0.4569  0.4329 -0.1427
 8862SOL    HW130502   7.563   4.882   8.297 -0.3482  1.6325  0.3629
 8862SOL    HW230503   7.659   4.882   8.180 -0.9824  1.4002 -0.1617
 8863SOL     OW30504   1.795   0.284   6.103  0.4272 -0.0792 -0.7142
 8863SOL    HW130505   1.730   0.341   6.061  0.8129  0.6735 -0.3024
 8863SOL    HW230506   1.867   0.342   6.125 -0.1496 -0.2347  1.8590
 8864SOL     OW30507   4.559   5.989   3.906 -0.2087 -0.5964  0.2744
 8864SOL    HW130508   4.640   5.984   3.855 -1.0927 -1.7659 -1.0781
 8864SOL    HW230509   4.543   5.899   3.934 -0.0804 -0.0808  2.1540
 8865SOL     OW30510   5.698   5.068   9.405 -0.3052  0.2947 -0.1144
 8865SOL    HW130511   5.608   5.081   9.436  0.1999  0.9202  1.1642
 8865SOL    HW230512   5.700   5.107   9.318 -1.0890  0.9175  0.1430
 8866SOL     OW30513   3.336   1.304   3.163  0.2422  0.2299 -0.9086
 8866SOL    HW130514   3.350   1.265   3.077  0.2127 -2.0537  0.0729
 8866SOL    HW230515   3.424   1.315   3.199  0.1750 -1.5849 -0.0965
 8867SOL     OW30516  10.062   4.506   3.871  0.4358 -0.1635  0.0749
 8867SOL    HW130517  10.047   4.462   3.954 -0.3727 -0.4500 -0.2137
 8867SOL    HW230518  10.090   4.595   3.895  3.2922 -1.1171  0.6841
 8868SOL     OW30519   6.680   1.693   6.335  0.4811  0.1552  0.1268
 8868SOL    HW130520   6.593   1.734   6.334  0.0050 -0.8093  0.4168
 8868SOL    HW230521   6.699   1.679   6.428  0.8518  0.1758  0.0552
 8869SOL     OW30522   4.665   6.171   3.589  0.1309 -0.4205 -0.3662
 8869SOL    HW130523   4.689   6.105   3.524  0.1972 -0.6788 -0.0787
 8869SOL    HW230524   4.670   6.254   3.542 -0.1366 -0.6361 -0.7813
 8870SOL     OW30525   1.618   4.767   3.508 -0.3560  0.0647  0.2626
 8870SOL    HW130526   1.685   4.723   3.456  0.7754  1.5879  0.3669
 8870SOL    HW230527   1.625   4.859   3.484 -3.1320  0.1817 -0.4843
 8871SOL     OW30528   8.449   6.402   5.565  0.1551  0.5750 -0.1638
 8871SOL    HW130529   8.478   6.312   5.552 -1.7776  0.1206 -1.7756
 8871SOL    HW230530   8.529   6.450   5.588  1.3131 -1.4152  0.1871
 8872SOL     OW30531   6.915   0.760   7.857 -0.4398 -0.2484 -0.4189
 8872SOL    HW130532   7.003   0.749   7.895 -1.1468 -0.8330  1.1178
 8872SOL    HW230533   6.871   0.677   7.873 -1.9264  0.6940  0.5804
 8873SOL     OW30534   6.917   0.313   6.356  0.6169 -0.5088 -0.2488
 8873SOL    HW130535   7.010   0.332   6.344  1.0169 -1.4060  1.2148
 8873SOL    HW230536   6.914   0.259   6.435 -1.0115 -1.7194 -1.1012
 8874SOL     OW30537   0.529   7.717   4.090  0.1536  0.3566  0.4395
 8874SOL    HW130538   0.517   7.697   4.183  1.6749 -1.8456  0.2438
 8874SOL    HW230539   0.605   7.775   4.087  1.7970 -1.6758  0.4933
 8875SOL     OW30540   9.747   5.784   6.964  0.1105  0.0134  0.2360
 8875SOL    HW130541   9.753   5.721   6.892 -0.1594  0.9670 -0.6600
 8875SOL    HW230542   9.703   5.737   7.034 -1.8600 -0.2658 -1.0929
 8876SOL     OW30543   0.175   7.550   7.102  0.0151  0.2569  0.4244
 8876SOL    HW130544   0.259   7.537   7.147  0.0194  1.2799  0.7207
 8876SOL    HW230545   0.148   7.461   7.077 -1.0061 -0.6900  4.2452
 8877SOL     OW30546   4.076   1.528  10.055  0.0155 -0.1341 -0.5161
 8877SOL    HW130547   4.125   1.610  10.049  0.6126 -0.2947  1.3983
 8877SOL    HW230548   3.984   1.554  10.058  0.1951  0.4647 -0.0922
 8878SOL     OW30549   5.601   9.693   7.225 -0.1874 -0.3490  0.4175
 8878SOL    HW130550   5.557   9.706   7.141  3.0653  0.5659 -1.3205
 8878SOL    HW230551   5.588   9.600   7.245 -0.3958 -0.7650 -1.4944
 8879SOL     OW30552   7.687   6.806   5.062  0.0343  0.0499  0.1825
 8879SOL    HW130553   7.604   6.800   5.109  0.4525 -0.5338  0.8656
 8879SOL    HW230554   7.664   6.795   4.970 -0.5439 -1.0329  0.4428
 8880SOL     OW30555   9.632   0.854   4.921  0.6092 -0.3078  0.2350
 8880SOL    HW130556   9.671   0.786   4.977  1.0093  2.1004  3.1272
 8880SOL    HW230557   9.540   0.857   4.947  1.2270  2.3198  2.6902
 8881SOL     OW30558   3.721   2.867   6.332  0.2220  0.0555 -0.0007
 8881SOL    HW130559   3.763   2.815   6.264  1.3176  1.7032 -0.6777
 8881SOL    HW230560   3.659   2.808   6.374  0.7695 -1.4977 -1.2826
 8882SOL     OW30561   1.433   1.596   3.782  0.0223  0.6477 -0.0148
 8882SOL    HW130562   1.512   1.556   3.818  0.0180 -0.0897 -0.7983
 8882SOL    HW230563   1.460   1.685   3.759 -0.1632  1.4112  2.4430
 8883SOL     OW30564   8.295   2.941   4.727 -0.0078  0.3915  0.1721
 8883SOL    HW130565   8.322   2.917   4.816 -2.1771  0.1622  0.8405
 8883SOL    HW230566   8.297   3.036   4.727 -0.6820  0.4154  0.7275
 8884SOL     OW30567   6.703   2.669   6.991  0.0858 -0.1166  0.1630
 8884SOL    HW130568   6.715   2.749   7.042  2.4562 -0.3832  0.1367
 8884SOL    HW230569   6.712   2.598   7.054 -0.3458 -0.4041 -0.0899
 8885SOL     OW30570   1.251   8.215   9.175  0.3271  0.3856 -0.0153
 8885SOL    HW130571   1.279   8.136   9.128 -1.5357 -0.6055  0.4563
 8885SOL    HW230572   1.256   8.192   9.267  0.7393  1.1825  0.1734
 8886SOL     OW30573   0.944   3.276   6.454  0.0337  0.0332 -0.0281
 8886SOL    HW130574   0.973   3.199   6.405  1.5767  1.4579 -1.4708
 8886SOL    HW230575   0.849   3.265   6.460 -0.0878 -0.8229 -2.3093
 8887SOL     OW30576   3.395   7.448   8.913 -0.0087 -0.8945  1.0470
 8887SOL    HW130577   3.412   7.521   8.972  2.0046 -1.1041  0.8134
 8887SOL    HW230578   3.475   7.396   8.916 -1.3075 -2.9887  1.0296
 8888SOL     OW30579   0.821   5.319   8.793 -0.3021  0.1330 -0.0951
 8888SOL    HW130580   0.854   5.331   8.881 -0.2824  0.0154 -0.0851
 8888SOL    HW230581   0.758   5.390   8.781  0.7377  1.0126 -0.5116
 8889SOL     OW30582   0.057   1.136   5.464 -0.0377  0.5726  0.4371
 8889SOL    HW130583  -0.018   1.125   5.522 -0.7475  0.2244 -0.5214
 8889SOL    HW230584   0.131   1.099   5.513 -1.0008 -1.7046  0.3142
 8890SOL     OW30585   7.155   7.295   2.172 -0.4927  0.2818 -0.1519
 8890SOL    HW130586   7.243   7.310   2.136 -0.1474  1.0676  0.9439
 8890SOL    HW230587   7.169   7.233   2.244 -0.4006  2.1914  1.5913
 8891SOL     OW30588   6.273   3.945   7.473  0.0563  0.4566 -0.6467
 8891SOL    HW130589   6.306   3.857   7.493  0.7963  1.0046  0.7139
 8891SOL    HW230590   6.273   3.990   7.558  1.1898  2.2561 -1.5326
 8892SOL     OW30591   3.113   5.700   2.508 -0.4079 -0.3886 -0.2296
 8892SOL    HW130592   3.170   5.721   2.434 -0.5188  1.5559  0.2017
 8892SOL    HW230593   3.037   5.756   2.498 -1.2860 -1.4327  0.3678
 8893SOL     OW30594   7.798   1.196   6.842 -0.5353 -0.8396 -0.0496
 8893SOL    HW130595   7.787   1.281   6.800  0.8258 -0.1968  0.7972
 8893SOL    HW230596   7.709   1.166   6.859 -1.0592  1.0401  0.8223
 8894SOL     OW30597   6.596   1.914   7.052  0.0427  0.7096  0.5940
 8894SOL    HW130598   6.624   1.965   6.976  0.2870  1.2200  1.0162
 8894SOL    HW230599   6.579   1.827   7.017  0.9227  0.7217  0.0898
 8895SOL     OW30600   5.032   8.446   9.195  0.1971 -0.2340 -0.1170
 8895SOL    HW130601   4.949   8.429   9.151 -0.6775  2.2132  0.4113
 8895SOL    HW230602   5.033   8.388   9.271 -0.9255 -0.4424 -0.2550
 8896SOL     OW30603   7.863   7.865   2.417 -0.4419 -0.5049  0.1944
 8896SOL    HW130604   7.785   7.857   2.363  0.1827 -1.3671 -0.6159
 8896SOL    HW230605   7.913   7.785   2.399 -0.2374 -0.8525  2.1074
 8897SOL     OW30606   1.903   2.192   5.502 -0.6797 -0.2745  0.4613
 8897SOL    HW130607   1.937   2.111   5.541  0.7228  0.3364  0.5968
 8897SOL    HW230608   1.937   2.191   5.413 -0.1972  0.4134  0.6316
 8898SOL     OW30609   2.416   3.849   1.288  1.2053 -0.0345  0.1120
 8898SOL    HW130610   2.413   3.764   1.242  2.4487  0.3290 -0.6772
 8898SOL    HW230611   2.440   3.912   1.220 -0.9319  1.1998  0.4046
 8899SOL     OW30612   9.747   7.141   4.918  0.4355 -0.0823 -0.4518
 8899SOL    HW130613   9.781   7.229   4.904  0.6240  0.0547  0.7009
 8899SOL    HW230614   9.822   7.084   4.903  1.3661  0.2345  2.3192
 8900SOL     OW30615   6.470   6.275   5.783 -0.7510  0.6410 -0.1537
 8900SOL    HW130616   6.528   6.290   5.857  0.2226 -1.4731 -0.4360
 8900SOL    HW230617   6.503   6.333   5.715  1.9183 -1.3712 -0.7237
 8901SOL     OW30618   0.472   2.930   7.752 -0.1675  0.2286  0.0976
 8901SOL    HW130619   0.497   2.889   7.669 -1.5210  1.1466 -0.7995
 8901SOL    HW230620   0.387   2.891   7.773 -1.3557  2.2795 -0.6287
 8902SOL     OW30621   3.628   3.507   7.702  0.7527 -0.2150 -0.3655
 8902SOL    HW130622   3.567   3.557   7.648  0.4724 -1.1982 -0.9815
 8902SOL    HW230623   3.629   3.555   7.786 -0.5798  0.0412 -0.4602
 8903SOL     OW30624  10.088   0.289   2.635  0.1148 -0.3552  0.3105
 8903SOL    HW130625  10.020   0.330   2.688  1.7364  0.6063  1.7686
 8903SOL    HW230626  10.042   0.256   2.558 -2.0241 -0.0261  1.3646
 8904SOL     OW30627   4.669   2.091   6.844  0.2415  0.1151 -0.6738
 8904SOL    HW130628   4.605   2.161   6.857 -1.0502 -0.6802 -2.3661
 8904SOL    HW230629   4.746   2.134   6.807  0.6098  1.0341  1.0523
 8905SOL     OW30630   7.323   0.315   3.024 -0.4982  0.1209 -0.6658
 8905SOL    HW130631   7.287   0.367   3.095 -2.4088  0.2457 -1.6567
 8905SOL    HW230632   7.395   0.266   3.064 -1.6421  0.0183  1.4155
 8906SOL     OW30633   4.545   7.340   2.369 -0.0823 -0.0229 -0.4412
 8906SOL    HW130634   4.581   7.315   2.454  2.2082  0.1252 -1.2961
 8906SOL    HW230635   4.585   7.279   2.307 -0.3224  0.9870 -1.6299
 8907SOL     OW30636   4.428   0.032   2.605 -0.1499  0.2765 -0.2657
 8907SOL    HW130637   4.407   0.053   2.514 -1.6317  0.5271  0.1074
 8907SOL    HW230638   4.361  -0.031   2.632  0.4334 -0.0123  0.5706
 8908SOL     OW30639   4.130   0.996   0.631 -0.2967  0.1263  0.2470
 8908SOL    HW130640   4.170   0.912   0.608 -0.2418  0.5567 -1.3117
 8908SOL    HW230641   4.046   0.972   0.670  0.6555 -0.7135  1.9583
 8909SOL     OW30642   9.933   0.477   2.263  0.5041 -0.2132 -0.1961
 8909SOL    HW130643   9.912   0.552   2.319 -0.5007 -0.7612  0.1859
 8909SOL    HW230644   9.937   0.403   2.324  1.2246 -0.5141 -0.6072
 8910SOL     OW30645   4.807   1.708   5.060 -0.3070  0.2992 -0.5937
 8910SOL    HW130646   4.796   1.627   5.111 -2.5392  0.7527 -0.2738
 8910SOL    HW230647   4.802   1.778   5.126  3.4774  0.7931 -0.5593
 8911SOL     OW30648   3.046   3.924   2.688  0.1521  0.7436 -0.0095
 8911SOL    HW130649   2.977   3.986   2.709  0.6527  1.1077  0.5896
 8911SOL    HW230650   3.004   3.838   2.694 -0.2061  0.9524  0.5134
 8912SOL     OW30651   0.598   1.745   4.130 -0.5344  0.1835  0.2497
 8912SOL    HW130652   0.516   1.787   4.154 -0.0882  2.3030 -1.5693
 8912SOL    HW230653   0.621   1.784   4.046  0.1419 -3.5489 -1.5273
 8913SOL     OW30654   3.055   4.822   9.799 -0.0212  0.0736  0.0553
 8913SOL    HW130655   2.990   4.798   9.865  1.4190  0.9121  1.8991
 8913SOL    HW230656   3.043   4.917   9.788 -0.5673 -0.1400 -1.2839
 8914SOL     OW30657   1.084   7.148   0.455 -0.5494  0.7546 -0.0589
 8914SOL    HW130658   0.995   7.121   0.430 -0.3682  2.0144 -2.2499
 8914SOL    HW230659   1.141   7.080   0.420 -0.6381 -0.5913  2.2187
 8915SOL     OW30660   4.711   3.566   0.525 -0.1691  0.5764 -0.3283
 8915SOL    HW130661   4.677   3.625   0.457 -0.1761  0.2101 -0.6504
 8915SOL    HW230662   4.768   3.505   0.477  0.0997  0.5292  0.0501
 8916SOL     OW30663   5.942   3.711   6.254  0.3643 -0.2205  0.1744
 8916SOL    HW130664   5.859   3.681   6.291  0.6827 -0.1647  0.9415
 8916SOL    HW230665   5.938   3.683   6.162  0.5720 -2.4850  0.7862
 8917SOL     OW30666   1.553   9.223   3.530  0.0465 -0.7091  0.2906
 8917SOL    HW130667   1.534   9.276   3.607  1.0789 -0.1168  0.1528
 8917SOL    HW230668   1.599   9.283   3.470  1.3004 -1.7592  0.1584
 8918SOL     OW30669   2.613   2.549   6.782  0.8689 -0.2213 -0.4096
 8918SOL    HW130670   2.604   2.483   6.851  0.8654 -0.8700 -1.0177
 8918SOL    HW230671   2.607   2.499   6.700  2.9113  0.2419 -0.8980
 8919SOL     OW30672   8.874  10.185   3.297 -0.2938 -0.5726 -0.5808
 8919SOL    HW130673   8.813  10.115   3.319 -1.3954  0.1461 -1.2784
 8919SOL    HW230674   8.896  10.225   3.382 -0.3884 -1.1645 -0.2757
 8920SOL     OW30675   6.397   1.398   0.263  0.1153  0.2452 -0.2076
 8920SOL    HW130676   6.375   1.330   0.200 -2.4612  0.9883 -0.2097
 8920SOL    HW230677   6.470   1.445   0.223  0.1440 -0.8128 -1.4564
 8921SOL     OW30678   1.357   2.369   2.484 -0.0795 -0.2009  0.2863
 8921SOL    HW130679   1.337   2.441   2.424  1.0107 -0.7180 -0.7191
 8921SOL    HW230680   1.303   2.387   2.561 -0.6645  1.0811 -0.3954
 8922SOL     OW30681   8.435   8.648   9.142  0.2089 -0.0068  0.1600
 8922SOL    HW130682   8.414   8.735   9.110 -2.7370 -0.9278 -0.6948
 8922SOL    HW230683   8.377   8.635   9.217 -1.3034 -2.1249 -1.2699
 8923SOL     OW30684   6.493   8.040   0.789  0.0265 -0.6495 -0.4736
 8923SOL    HW130685   6.462   8.091   0.864  1.3080 -0.5241 -0.0065
 8923SOL    HW230686   6.515   8.106   0.723  0.0484 -0.6879 -0.5046
 8924SOL     OW30687   2.059   9.888   2.300 -0.3826 -0.7504  0.2198
 8924SOL    HW130688   2.060   9.870   2.394 -0.5061  0.0817  0.3843
 8924SOL    HW230689   1.984   9.838   2.267  0.4146 -2.0881  0.3306
 8925SOL     OW30690   4.133   0.808   1.625 -0.3872 -0.1998  1.1361
 8925SOL    HW130691   4.038   0.799   1.623 -0.6618  2.1936  0.8057
 8925SOL    HW230692   4.157   0.832   1.535  0.2853  1.0133  1.6103
 8926SOL     OW30693   0.912   9.344   4.368  0.1661  0.0332  0.4478
 8926SOL    HW130694   0.911   9.436   4.397  0.9980  0.2834 -0.2603
 8926SOL    HW230695   0.835   9.305   4.409  0.2395  0.8497  1.3937
 8927SOL     OW30696   9.352   5.353   2.509  0.1542 -0.9213 -0.0744
 8927SOL    HW130697   9.447   5.342   2.509  0.2224 -0.3661 -0.1925
 8927SOL    HW230698   9.336   5.422   2.444 -0.1556  0.3716  1.3339
 8928SOL     OW30699   7.691   5.830   6.866  0.0548  0.5283 -0.3443
 8928SOL    HW130700   7.724   5.783   6.789  1.8978  1.3315 -0.0895
 8928SOL    HW230701   7.709   5.922   6.848 -0.0155  0.7815  0.8075
 8929SOL     OW30702   8.126   8.731   3.491 -0.2033 -0.2732 -0.2899
 8929SOL    HW130703   8.194   8.726   3.558 -1.1691  1.2926  0.9052
 8929SOL    HW230704   8.151   8.806   3.436  0.5605 -1.5215 -1.7059
 8930SOL     OW30705   2.534   0.738   0.684  0.3951  0.6320  0.0221
 8930SOL    HW130706   2.544   0.670   0.751  1.4040  0.4867 -0.2527
 8930SOL    HW230707   2.545   0.693   0.601  0.5831  1.0479 -0.1840
 8931SOL     OW30708   8.033   6.840   1.216 -0.0506 -0.7319 -0.0871
 8931SOL    HW130709   7.947   6.801   1.231  0.2941 -1.0565  1.1598
 8931SOL    HW230710   8.033   6.920   1.269 -0.2346  0.2623 -1.5217
 8932SOL     OW30711   4.180   6.267   8.717 -0.2799 -0.0401  0.6874
 8932SOL    HW130712   4.086   6.252   8.724 -0.2104 -0.4694  0.7125
 8932SOL    HW230713   4.215   6.185   8.681  0.3605 -0.6946  2.6532
 8933SOL     OW30714   0.476   6.806   6.878 -0.4892 -0.0328 -0.3443
 8933SOL    HW130715   0.548   6.862   6.910 -0.4407 -1.3963  2.2058
 8933SOL    HW230716   0.506   6.776   6.793  1.1454  0.8950 -0.1626
 8934SOL     OW30717   3.249   2.156   2.378 -0.3375 -0.8620  0.2469
 8934SOL    HW130718   3.277   2.192   2.463 -0.9663 -0.8442  0.4521
 8934SOL    HW230719   3.161   2.122   2.394 -0.4528 -0.8793 -0.3960
 8935SOL     OW30720   1.233  10.190   8.369 -0.3672  0.1238 -0.3429
 8935SOL    HW130721   1.325  10.172   8.348 -0.5860 -0.9706 -0.4460
 8935SOL    HW230722   1.219  10.142   8.451 -1.0679 -0.4366 -0.7819
 8936SOL     OW30723   6.845   3.834   8.782 -0.7649 -0.0213  0.4967
 8936SOL    HW130724   6.824   3.742   8.794  1.0906 -0.7000 -0.9288
 8936SOL    HW230725   6.871   3.865   8.869 -0.8569 -1.0004  0.8795
 8937SOL     OW30726   0.015   8.341   2.611  0.2146 -0.6271 -0.6072
 8937SOL    HW130727   0.065   8.421   2.625  2.6601 -2.2244  0.4999
 8937SOL    HW230728  -0.047   8.338   2.683  0.6761 -0.1405 -0.1834
 8938SOL     OW30729   9.146   4.091   6.126 -1.1606 -0.0485  0.3333
 8938SOL    HW130730   9.218   4.036   6.158 -1.7528 -0.5661  0.7906
 8938SOL    HW230731   9.190   4.169   6.092 -0.2259 -1.1322 -1.0742
 8939SOL     OW30732   6.427   1.640   3.235 -0.1452  0.1579 -0.6803
 8939SOL    HW130733   6.496   1.639   3.169  0.4437 -0.0045 -0.0715
 8939SOL    HW230734   6.436   1.557   3.281 -1.6396 -0.4953 -1.4861
 8940SOL     OW30735   2.246   4.002   4.287 -0.1920  0.6801  0.1378
 8940SOL    HW130736   2.297   4.072   4.246  0.2727  1.1464  1.4777
 8940SOL    HW230737   2.240   4.027   4.379 -1.0699 -0.4323  0.4047
 8941SOL     OW30738   7.927   6.968   2.373 -0.1496  0.1486  0.2855
 8941SOL    HW130739   8.000   7.029   2.381 -0.7669  0.8190  0.8260
 8941SOL    HW230740   7.877   7.000   2.298 -0.0938 -0.0945  0.1441
 8942SOL     OW30741   4.028   8.878   3.807 -0.0660 -0.6535 -0.1503
 8942SOL    HW130742   4.034   8.827   3.726 -2.7722 -1.0899 -0.1590
 8942SOL    HW230743   4.104   8.937   3.804  0.6080 -1.5399 -2.3677
 8943SOL     OW30744   2.288   1.708   3.029 -0.1794 -0.0730  0.3130
 8943SOL    HW130745   2.209   1.712   2.976 -0.5711  1.3729  0.9620
 8943SOL    HW230746   2.260   1.671   3.112  0.6076 -3.2362 -0.6711
 8944SOL     OW30747   6.106   0.001   0.073  0.0695  0.4571 -0.0101
 8944SOL    HW130748   6.034   0.064   0.062 -0.2403  0.0699 -0.2586
 8944SOL    HW230749   6.074  -0.078   0.029  0.8309  0.4218 -0.5054
 8945SOL     OW30750   0.562   6.680   2.973 -0.0792 -0.2234 -0.4586
 8945SOL    HW130751   0.494   6.614   2.965 -0.9900  0.3386  1.8106
 8945SOL    HW230752   0.644   6.630   2.975 -0.4072 -0.9507 -2.5734
 8946SOL     OW30753   0.247   8.390   7.239  0.0444 -0.5134 -0.5373
 8946SOL    HW130754   0.293   8.462   7.198 -1.0738  1.6948  1.8048
 8946SOL    HW230755   0.154   8.405   7.220 -0.6681  1.2809  3.3708
 8947SOL     OW30756   5.686   3.602   6.338 -0.2605  0.2831 -0.0800
 8947SOL    HW130757   5.637   3.608   6.257  1.0949  1.2179 -0.8722
 8947SOL    HW230758   5.620   3.584   6.405 -1.4818  0.1189 -1.2851
 8948SOL     OW30759   7.227   4.758   5.293 -0.6074 -0.4274 -0.1748
 8948SOL    HW130760   7.223   4.851   5.272  0.8239 -0.1991  0.4264
 8948SOL    HW230761   7.241   4.755   5.388 -0.6553 -1.2544 -0.1852
 8949SOL     OW30762   3.929   0.595   6.907  0.3353 -0.2125 -0.7681
 8949SOL    HW130763   3.875   0.550   6.972  1.0457 -1.3182 -0.9068
 8949SOL    HW230764   3.989   0.527   6.875 -0.1410  0.2344 -2.7394
 8950SOL     OW30765   0.822  10.176   7.894  0.2101 -0.2681 -0.0072
 8950SOL    HW130766   0.796  10.268   7.903  0.9545 -0.1375  0.9655
 8950SOL    HW230767   0.851  10.168   7.803 -2.8480 -0.3613 -1.0909
 8951SOL     OW30768   8.176   1.728   7.051  0.6839  0.0282  0.5490
 8951SOL    HW130769   8.220   1.743   7.135 -3.5515 -1.0148  3.2649
 8951SOL    HW230770   8.178   1.633   7.040 -0.2038  0.0208  0.3888
 8952SOL     OW30771   0.259   7.246   4.453  0.2416 -0.1593  0.2662
 8952SOL    HW130772   0.308   7.173   4.414 -0.4460 -0.4759 -0.0271
 8952SOL    HW230773   0.257   7.226   4.546 -3.1954 -2.6236 -0.1372
 8953SOL     OW30774   6.329   7.411   6.740 -0.2027 -0.3882 -0.0138
 8953SOL    HW130775   6.252   7.355   6.734 -0.2547 -0.4882  1.2370
 8953SOL    HW230776   6.305   7.492   6.696 -1.3117 -0.1261  1.0408
 8954SOL     OW30777   2.369   1.676   1.557  0.2607 -0.1137  0.0896
 8954SOL    HW130778   2.415   1.611   1.610  1.2458  2.0010  2.0278
 8954SOL    HW230779   2.298   1.628   1.515  0.9932 -2.4249  1.3357
 8955SOL     OW30780   4.076  10.108   1.810 -0.2477 -0.1065 -0.0392
 8955SOL    HW130781   3.984  10.091   1.791 -0.6338  1.2135  0.5469
 8955SOL    HW230782   4.076  10.148   1.897  0.9152 -0.3801  0.1042
 8956SOL     OW30783   8.048   1.481   5.165  0.5913  0.0039 -0.0377
 8956SOL    HW130784   7.980   1.415   5.149  0.5707  0.1691 -0.6556
 8956SOL    HW230785   8.025   1.554   5.107  0.9301  0.3247  0.2295
 8957SOL     OW30786   6.648   4.588   9.095  0.2641  0.1345 -0.5480
 8957SOL    HW130787   6.585   4.660   9.103 -1.0632 -0.8386 -1.8012
 8957SOL    HW230788   6.707   4.615   9.025 -0.2556  0.0090 -1.0436
 8958SOL     OW30789   6.011   8.364   7.860 -0.2199  0.0634  0.0070
 8958SOL    HW130790   6.000   8.380   7.766  1.2560 -2.7825 -0.7681
 8958SOL    HW230791   6.070   8.434   7.889 -2.0015  1.9741 -0.7273
 8959SOL     OW30792   8.710   9.146   6.824  0.2484 -0.5764  0.0819
 8959SOL    HW130793   8.663   9.184   6.898 -0.1989  1.1958 -1.0569
 8959SOL    HW230794   8.700   9.210   6.753 -2.1798 -3.5981 -2.6298
 8960SOL     OW30795  10.159   0.435   8.749  0.0169 -0.0940 -0.3663
 8960SOL    HW130796  10.106   0.443   8.670  0.6020 -0.4588 -0.8035
 8960SOL    HW230797  10.248   0.450   8.720  0.0760  1.4773  0.5354
 8961SOL     OW30798   4.592   0.608   7.797 -0.1455  0.1208  0.2391
 8961SOL    HW130799   4.541   0.628   7.876 -1.3222  2.4076 -0.9849
 8961SOL    HW230800   4.678   0.582   7.830 -1.6254 -2.6114  2.3473
 8962SOL     OW30801   4.539  10.175   9.740 -0.6391 -0.5458 -0.0455
 8962SOL    HW130802   4.538  10.162   9.645 -0.0987 -0.7293 -0.0325
 8962SOL    HW230803   4.485  10.104   9.774  0.8487 -1.7480 -0.0948
 8963SOL     OW30804   4.511   1.741   1.135  0.3111  0.5068  0.2475
 8963SOL    HW130805   4.512   1.767   1.043  3.5291  1.7657  0.5078
 8963SOL    HW230806   4.474   1.817   1.180 -0.9082  0.0384  0.0804
 8964SOL     OW30807   0.472   8.944   5.953 -0.1081 -0.7277  0.2482
 8964SOL    HW130808   0.563   8.916   5.967  0.4186  1.1984  1.0341
 8964SOL    HW230809   0.463   9.023   6.006 -2.0925 -0.5536 -0.2671
 8965SOL     OW30810   5.042   9.250   0.436  0.0568  0.0566  0.8341
 8965SOL    HW130811   5.003   9.190   0.500 -0.2048  0.0527  0.6728
 8965SOL    HW230812   5.039   9.335   0.479 -0.8281  0.1873  0.5268
 8966SOL     OW30813   2.583   6.507   4.374 -0.3384  0.4673  0.0865
 8966SOL    HW130814   2.508   6.462   4.413 -0.5145 -0.7265 -1.5438
 8966SOL    HW230815   2.653   6.496   4.439 -0.9982 -0.2359  0.6977
 8967SOL     OW30816   4.264   6.140   5.015 -0.5499  0.9053  0.0376
 8967SOL    HW130817   4.246   6.119   4.923  1.1188 -0.0403 -0.1219
 8967SOL    HW230818   4.202   6.088   5.065 -1.0111  0.8864 -0.5430
 8968SOL     OW30819   6.680   0.695   3.573 -0.1097  0.0366  0.1309
 8968SOL    HW130820   6.685   0.768   3.634 -0.6964 -0.4714  0.8076
 8968SOL    HW230821   6.767   0.655   3.576  0.2951  0.8665 -0.4540
 8969SOL     OW30822   3.088   0.094   2.774  0.3309  0.4310  0.0322
 8969SOL    HW130823   3.067   0.170   2.828  0.9631  0.7829 -0.2008
 8969SOL    HW230824   3.184   0.092   2.772  0.3207 -0.3265 -0.0306
 8970SOL     OW30825   2.677   0.916   9.277  0.0367 -0.5850 -0.2082
 8970SOL    HW130826   2.745   0.915   9.210 -0.7337 -1.3752 -0.9889
 8970SOL    HW230827   2.725   0.912   9.360  0.9145 -1.9876 -0.7648
 8971SOL     OW30828   0.404   3.252   7.589 -0.0322  0.2339  0.3601
 8971SOL    HW130829   0.411   3.347   7.600  0.3410  0.0862  1.6462
 8971SOL    HW230830   0.437   3.235   7.501  0.8949  1.1926  0.5043
 8972SOL     OW30831   1.424   3.259   1.142 -0.3010  0.5122  0.0398
 8972SOL    HW130832   1.421   3.333   1.082 -2.1262  0.9961  0.6702
 8972SOL    HW230833   1.392   3.294   1.225  0.2918 -0.6215  0.7756
 8973SOL     OW30834   9.298   7.453   7.238  0.2808 -0.0392 -0.9339
 8973SOL    HW130835   9.372   7.443   7.178  2.0662  3.6465  0.3938
 8973SOL    HW230836   9.234   7.503   7.188  0.6874  0.8110 -0.6167
 8974SOL     OW30837   8.862   4.318   8.972  0.3011 -0.2561  0.2994
 8974SOL    HW130838   8.767   4.314   8.982  0.2570 -0.7221 -0.2713
 8974SOL    HW230839   8.875   4.343   8.880  0.7369 -0.7122  0.2357
 8975SOL     OW30840   3.037  10.146   8.810  0.5266 -0.4063  0.3374
 8975SOL    HW130841   3.016  10.167   8.719  0.8359  1.9268  0.7471
 8975SOL    HW230842   3.121  10.102   8.806  1.8249  1.9750 -0.3931
 8976SOL     OW30843   7.474   0.954   9.958 -0.6234 -0.4937 -0.0763
 8976SOL    HW130844   7.561   0.967   9.997 -0.4791 -0.4860 -0.4010
 8976SOL    HW230845   7.413   0.988  10.024 -0.2871  1.2919 -0.6273
 8977SOL     OW30846   8.673   3.010   4.179  0.2091  0.1655 -0.3893
 8977SOL    HW130847   8.634   2.939   4.230 -1.5692  1.2874 -0.0864
 8977SOL    HW230848   8.742   3.045   4.236  1.1018 -1.2522 -0.5407
 8978SOL     OW30849   1.548   9.850   0.005  0.5423  0.5682 -0.0246
 8978SOL    HW130850   1.497   9.918  -0.040  1.6995  1.0216 -0.6704
 8978SOL    HW230851   1.563   9.783  -0.062  1.7140  0.9425 -0.1483
 8979SOL     OW30852   7.783   0.744   9.984  0.3383 -0.1348 -0.5935
 8979SOL    HW130853   7.782   0.649   9.994 -0.1014  0.1187  2.6490
 8979SOL    HW230854   7.832   0.776  10.060 -0.2640  2.2878 -1.1519
 8980SOL     OW30855  10.060   9.503   2.529  0.3348 -0.1354 -0.3383
 8980SOL    HW130856  10.143   9.535   2.495  1.0630 -0.6717  0.8558
 8980SOL    HW230857  10.080   9.475   2.619 -0.8437 -1.4263 -0.4347
 8981SOL     OW30858   2.071   5.461   3.474  0.6352  0.4228 -0.1394
 8981SOL    HW130859   2.041   5.442   3.385 -0.8995 -0.7480  0.5689
 8981SOL    HW230860   2.163   5.432   3.475  1.0977  1.6909 -1.6695
 8982SOL     OW30861   0.796   4.380   9.707  0.0282  0.0976  0.1420
 8982SOL    HW130862   0.796   4.446   9.777 -1.0678  1.6481 -1.2288
 8982SOL    HW230863   0.875   4.328   9.722 -0.0011  0.5927  2.3123
 8983SOL     OW30864   1.225   2.018   4.103 -0.2254  0.1842 -0.0837
 8983SOL    HW130865   1.201   1.926   4.115  0.0342  0.2319  0.7974
 8983SOL    HW230866   1.150   2.066   4.139 -0.1615  0.3216 -0.1372
 8984SOL     OW30867   3.420   7.221   7.690 -0.0384  0.6263 -0.3027
 8984SOL    HW130868   3.509   7.186   7.702  0.6200  2.5378  0.7699
 8984SOL    HW230869   3.394   7.190   7.603  1.6329 -0.0545 -0.6040
 8985SOL     OW30870   2.821   4.373   4.297 -0.7081  0.2565  0.3742
 8985SOL    HW130871   2.788   4.345   4.212 -0.9876  1.1532  0.1679
 8985SOL    HW230872   2.746   4.365   4.356 -0.9426  1.0200  0.1998
 8986SOL     OW30873   0.166   3.497   7.668  0.4102 -0.0071 -0.3106
 8986SOL    HW130874   0.256   3.510   7.639  1.1354 -1.8865  0.9473
 8986SOL    HW230875   0.173   3.463   7.757 -1.6351  1.8209  0.6579
 8987SOL     OW30876   3.518   8.732   2.105 -0.5621 -0.0910  0.1803
 8987SOL    HW130877   3.507   8.681   2.024  0.3161 -0.6294  0.3866
 8987SOL    HW230878   3.589   8.792   2.086 -1.7265  1.2454 -0.1260
 8988SOL     OW30879   5.794   4.684   1.983 -0.3336  0.3823  0.2537
 8988SOL    HW130880   5.716   4.725   1.946  0.7301  2.0480 -0.2574
 8988SOL    HW230881   5.823   4.622   1.916 -1.2001 -0.2586  0.4549
 8989SOL     OW30882   2.203   0.207   1.899 -0.2107  0.7225  0.2463
 8989SOL    HW130883   2.206   0.173   1.988  1.0337 -0.6347 -0.2598
 8989SOL    HW230884   2.246   0.292   1.903  0.3815  0.3951  0.8342
 8990SOL     OW30885   9.903   5.390   2.653 -0.0299 -0.2925  0.1589
 8990SOL    HW130886   9.925   5.458   2.591 -1.1497  0.2891  0.3808
 8990SOL    HW230887   9.918   5.429   2.739 -0.9976 -0.1930  0.2951
 8991SOL     OW30888   8.173   5.413   7.286  0.3634  0.0282 -0.2437
 8991SOL    HW130889   8.214   5.397   7.371 -1.5087  0.1533  0.7468
 8991SOL    HW230890   8.244   5.405   7.222  1.9036  0.3670  1.3632
 8992SOL     OW30891   2.779   9.409  10.175 -0.5362  0.7161  0.0885
 8992SOL    HW130892   2.825   9.390  10.093 -0.2997  0.5881  0.2503
 8992SOL    HW230893   2.701   9.458  10.148 -2.0230 -1.7868 -0.5016
 8993SOL     OW30894   0.834   7.727   8.802  0.1618 -0.4571 -0.7260
 8993SOL    HW130895   0.756   7.744   8.748  0.7898  2.8883 -0.7940
 8993SOL    HW230896   0.882   7.660   8.753 -2.6159 -2.7374 -0.6202
 8994SOL     OW30897   1.637   4.992   1.311 -0.1270 -0.0776  0.2360
 8994SOL    HW130898   1.723   5.001   1.354  0.9254  1.3034 -1.9463
 8994SOL    HW230899   1.590   4.929   1.364  1.7482  0.1432  2.3054
 8995SOL     OW30900   2.096   9.102   0.552 -0.2463 -0.2449 -0.1758
 8995SOL    HW130901   2.009   9.070   0.530 -0.9391  1.8343 -0.7022
 8995SOL    HW230902   2.084   9.151   0.634  0.7188 -1.0615  0.4840
 8996SOL     OW30903   1.771   3.421   1.014  0.6250 -0.3954  0.2051
 8996SOL    HW130904   1.797   3.399   0.924 -1.3431  0.3814 -0.6114
 8996SOL    HW230905   1.807   3.508   1.028  0.4753 -0.2943 -0.0327
 8997SOL     OW30906   3.718   0.451   7.012 -0.0429  0.6831  0.1874
 8997SOL    HW130907   3.701   0.434   6.919 -0.0091 -1.6590  0.5394
 8997SOL    HW230908   3.636   0.488   7.044 -1.0002 -0.9191 -0.2729
 8998SOL     OW30909   7.367   8.156   6.100 -0.3421 -0.0556 -0.0848
 8998SOL    HW130910   7.413   8.198   6.028 -1.4231  1.8814  0.2764
 8998SOL    HW230911   7.436   8.121   6.156  0.7472  2.6396  0.3855
 8999SOL     OW30912   7.110   8.389   4.722 -0.5447 -0.1579 -0.0267
 8999SOL    HW130913   7.162   8.363   4.798 -1.8534 -0.9751  0.6235
 8999SOL    HW230914   7.152   8.345   4.648  0.0709 -0.2605  0.3728
 9000SOL     OW30915   0.516   4.247   7.934  0.2990  0.0643  0.4648
 9000SOL    HW130916   0.501   4.297   8.014 -2.7821  0.0378  0.0200
 9000SOL    HW230917   0.435   4.255   7.885  0.2868 -3.8181 -0.4982
 9001SOL     OW30918   8.529   8.452   7.033 -0.4889  0.7499  0.4819
 9001SOL    HW130919   8.576   8.372   7.058  1.5515  1.9073  0.5432
 9001SOL    HW230920   8.454   8.455   7.093 -0.9415 -1.3624  0.1187
 9002SOL     OW30921   5.332   8.196   9.726 -0.7900  0.9600 -0.8964
 9002SOL    HW130922   5.245   8.226   9.699 -1.4491 -0.8330 -0.8953
 9002SOL    HW230923   5.347   8.240   9.809 -1.7132  1.2730 -0.8763
 9003SOL     OW30924   3.596   0.489   3.158  0.1975  1.0700 -0.7393
 9003SOL    HW130925   3.633   0.432   3.091 -1.3770  1.4888 -2.0058
 9003SOL    HW230926   3.545   0.430   3.214  1.5432  0.7156  0.1889
 9004SOL     OW30927   2.598   5.827   7.463 -0.7759 -0.6101  0.2720
 9004SOL    HW130928   2.569   5.744   7.502 -0.9009 -0.4375  0.5498
 9004SOL    HW230929   2.519   5.865   7.425 -0.7372 -0.5726  0.2287
 9005SOL     OW30930   7.180   3.858   7.578  0.1181 -0.1617 -0.2636
 9005SOL    HW130931   7.210   3.827   7.493 -3.4986 -1.6306 -1.1715
 9005SOL    HW230932   7.094   3.818   7.590 -1.1970  2.9509  2.3952
 9006SOL     OW30933   6.988   3.180   3.988 -0.0784  0.3459  0.5740
 9006SOL    HW130934   6.960   3.270   3.970  0.0992  0.3762  0.4467
 9006SOL    HW230935   6.921   3.125   3.947 -0.0009  0.4181  0.3509
 9007SOL     OW30936   8.684   2.513   3.348  0.2642 -0.1820  0.3368
 9007SOL    HW130937   8.629   2.590   3.334  0.4781 -0.3543 -1.7322
 9007SOL    HW230938   8.773   2.547   3.345  0.3702 -0.5179 -0.9114
 9008SOL     OW30939   6.559   7.911   7.920  0.3261  0.2174 -0.5346
 9008SOL    HW130940   6.590   7.890   8.008 -0.9967  1.6782  0.3326
 9008SOL    HW230941   6.491   7.845   7.903 -0.5902  0.9382  0.2561
 9009SOL     OW30942   1.916   8.591   9.629 -0.5925 -0.3537  0.3685
 9009SOL    HW130943   1.863   8.670   9.621  2.2964  1.6641 -0.9209
 9009SOL    HW230944   1.939   8.568   9.539 -0.4837 -2.0574  0.7909
 9010SOL     OW30945   4.115   5.477   9.807  0.1590  0.1454  0.4186
 9010SOL    HW130946   4.151   5.402   9.759  1.1360  0.5584  0.4836
 9010SOL    HW230947   4.041   5.441   9.855 -0.3839 -0.4287 -0.8225
 9011SOL     OW30948   1.911   2.168   1.860  0.4128  0.4682  0.1561
 9011SOL    HW130949   1.963   2.197   1.934  0.3342 -1.9919  1.2640
 9011SOL    HW230950   1.916   2.072   1.862  0.6302  0.2832 -3.1914
 9012SOL     OW30951   8.265  10.173   1.752  0.3206  0.0268  0.8766
 9012SOL    HW130952   8.177  10.139   1.736  0.3372 -0.1723  1.1787
 9012SOL    HW230953   8.268  10.185   1.847  1.1486 -1.4801  1.0661
 9013SOL     OW30954   8.961   2.676   5.528  0.4854  0.2028  0.0425
 9013SOL    HW130955   8.881   2.663   5.478 -0.4665  2.1192  0.9652
 9013SOL    HW230956   9.000   2.755   5.490  0.5818  0.7523  1.2531
 9014SOL     OW30957   1.109   8.770   5.662 -0.5343  0.3282 -0.9935
 9014SOL    HW130958   1.143   8.860   5.668 -1.6214  0.7798 -1.2755
 9014SOL    HW230959   1.140   8.727   5.742 -1.1970  1.3948 -0.1292
 9015SOL     OW30960   0.329   3.489   0.967  0.0268 -0.2874  0.3165
 9015SOL    HW130961   0.404   3.463   1.021  0.4920  0.9926  0.3214
 9015SOL    HW230962   0.367   3.543   0.898 -1.0389  2.2109  1.5282
 9016SOL     OW30963   2.026   8.219  10.055  0.4803  0.2573  0.0306
 9016SOL    HW130964   2.098   8.178  10.007  0.2584  0.5162 -0.5301
 9016SOL    HW230965   1.975   8.145  10.090  1.9815  0.0425  1.9648
 9017SOL     OW30966   8.674   4.427   3.354 -0.5272 -0.4643 -0.1483
 9017SOL    HW130967   8.733   4.366   3.308 -0.3717 -0.8204  0.5159
 9017SOL    HW230968   8.733   4.492   3.393 -0.6605 -0.1543 -0.4561
 9018SOL     OW30969   0.164   5.185   8.046  0.1827 -0.5064 -0.5572
 9018SOL    HW130970   0.184   5.244   8.119 -0.6369 -0.9476  0.0459
 9018SOL    HW230971   0.213   5.221   7.972 -0.1034  0.7944 -0.1464
 9019SOL     OW30972   1.518   7.034   6.617 -0.5309 -0.2629 -0.6083
 9019SOL    HW130973   1.540   6.971   6.549  2.4778  0.0280 -0.0832
 9019SOL    HW230974   1.473   6.984   6.684 -0.4282 -1.3117 -1.3072
 9020SOL     OW30975   7.740   9.439   8.685  0.3854 -0.0432  0.5406
 9020SOL    HW130976   7.738   9.420   8.779  1.1254  1.5844  0.9228
 9020SOL    HW230977   7.833   9.435   8.662  0.1742 -0.8279 -0.2382
 9021SOL     OW30978   9.269   5.336   6.834  0.5057 -0.0044 -0.4032
 9021SOL    HW130979   9.334   5.359   6.767 -1.2968  0.6662 -2.0056
 9021SOL    HW230980   9.265   5.241   6.831 -1.2638  0.0565 -3.0750
 9022SOL     OW30981   9.766   5.045   9.388 -0.0328  0.3846  0.2295
 9022SOL    HW130982   9.705   4.991   9.338 -0.7744  0.9225  0.5277
 9022SOL    HW230983   9.834   5.068   9.325 -0.1227 -0.2360 -0.1071
 9023SOL     OW30984   8.781   6.395   7.228 -0.1190 -0.3923  0.0018
 9023SOL    HW130985   8.858   6.368   7.179  0.5407  0.7987  0.3577
 9023SOL    HW230986   8.779   6.490   7.220 -0.0405 -0.1606  2.1827
 9024SOL     OW30987   2.524   1.795   0.944 -0.4309  0.6431 -0.0082
 9024SOL    HW130988   2.490   1.721   0.994 -0.9787  0.6391 -0.3708
 9024SOL    HW230989   2.605   1.762   0.905  0.3441  0.8465  1.3629
 9025SOL     OW30990   2.764   8.432   5.384 -0.4720  0.0635 -0.0825
 9025SOL    HW130991   2.716   8.515   5.383 -0.2960  0.1647 -0.1250
 9025SOL    HW230992   2.700   8.368   5.415 -0.1519  0.4976  1.5773
 9026SOL     OW30993   2.127   5.568  10.067 -0.1681 -0.0117  0.4702
 9026SOL    HW130994   2.111   5.600  10.156  0.0515  0.6195  0.2860
 9026SOL    HW230995   2.053   5.601  10.016  1.0716  2.0160 -0.1592
 9027SOL     OW30996   3.266   8.762   6.361  0.9321  0.6854 -0.1818
 9027SOL    HW130997   3.236   8.853   6.355 -0.6001  0.1469 -0.9478
 9027SOL    HW230998   3.243   8.723   6.277  1.4810 -0.4538  0.1721
 9028SOL     OW30999   0.581   9.828   7.991 -0.1198 -0.0481  0.1501
 9028SOL    HW131000   0.648   9.760   7.990  0.6103  0.6727 -0.3912
 9028SOL    HW231001   0.622   9.902   8.036 -0.5658  0.3807 -0.1363
 9029SOL     OW31002   5.121   6.897   5.871 -0.7083  0.2019 -0.1884
 9029SOL    HW131003   5.044   6.937   5.912  0.5371  1.1897  1.3547
 9029SOL    HW231004   5.194   6.951   5.901  0.8358 -1.9331  0.1507
 9030SOL     OW31005   9.934   4.549   1.639  0.8996 -0.3712  0.0409
 9030SOL    HW131006   9.917   4.598   1.720 -0.8540 -1.2693  0.2748
 9030SOL    HW231007   9.956   4.617   1.575  1.2375  0.4584  0.9993
 9031SOL     OW31008   6.932   6.593   5.985  0.2893  0.1548  0.1492
 9031SOL    HW131009   6.884   6.652   5.926  2.2351  0.3281 -1.3525
 9031SOL    HW231010   7.014   6.639   6.003  0.8761 -1.1169  0.8031
 9032SOL     OW31011   8.601   1.711   6.637 -0.3447  0.5124  0.4206
 9032SOL    HW131012   8.589   1.655   6.714  0.4585  0.5033  0.5515
 9032SOL    HW231013   8.571   1.658   6.563  1.8899 -0.7448  0.3403
 9033SOL     OW31014   5.149   7.436   6.606 -0.2921 -0.3587  0.6720
 9033SOL    HW131015   5.219   7.430   6.671  1.4660  0.3895 -1.0413
 9033SOL    HW231016   5.140   7.530   6.590 -1.5678 -0.4601  0.6969
 9034SOL     OW31017   8.116   9.095   4.239  0.1958 -0.1844 -0.1395
 9034SOL    HW131018   8.124   9.190   4.250  0.5610 -0.2198 -0.0867
 9034SOL    HW231019   8.077   9.085   4.151  0.2503  0.0092 -0.1866
 9035SOL     OW31020   4.663   5.453   1.820 -0.7364  0.3943  0.6023
 9035SOL    HW131021   4.733   5.458   1.754 -1.7214 -0.2831 -0.5326
 9035SOL    HW231022   4.618   5.371   1.801 -0.3567 -0.4162  2.8848
 9036SOL     OW31023   2.096   9.089   6.642 -0.6511 -0.5734 -0.2941
 9036SOL    HW131024   2.166   9.102   6.579 -1.5898  2.3864 -0.9192
 9036SOL    HW231025   2.047   9.014   6.609  1.1141 -1.5510 -0.8397
 9037SOL     OW31026   9.643   4.215   4.111  0.0445  0.4595  0.4263
 9037SOL    HW131027   9.627   4.289   4.170 -3.0022  0.0759  0.2781
 9037SOL    HW231028   9.681   4.148   4.166 -1.1452  0.7091  1.6189
 9038SOL     OW31029   4.755   6.078   6.515 -0.1886 -0.4966 -0.1715
 9038SOL    HW131030   4.738   6.079   6.609  0.2971  0.1744 -0.0791
 9038SOL    HW231031   4.668   6.074   6.475 -0.4358 -0.0989  0.3058
 9039SOL     OW31032   3.728   6.235   5.823 -0.0700  0.2492  0.2124
 9039SOL    HW131033   3.664   6.177   5.781  0.1041 -0.2668  0.6412
 9039SOL    HW231034   3.812   6.194   5.804  0.1830  1.1720 -0.7377
 9040SOL     OW31035   2.366  10.183   4.342 -0.0327  0.1471  0.2265
 9040SOL    HW131036   2.330  10.152   4.259  0.9987  0.0479 -0.2044
 9040SOL    HW231037   2.293  10.179   4.403 -1.0768  1.1941 -0.9038
 9041SOL     OW31038   9.156   9.098   9.415  0.0027 -0.1160 -0.1262
 9041SOL    HW131039   9.218   9.026   9.427 -0.3568 -0.6271 -1.2120
 9041SOL    HW231040   9.197   9.153   9.348 -0.3557 -0.0556 -0.2977
 9042SOL     OW31041   3.730   4.442   4.425 -0.3668  0.2552 -0.6871
 9042SOL    HW131042   3.784   4.438   4.346  2.5881 -1.0711  1.2286
 9042SOL    HW231043   3.772   4.508   4.479  0.3840 -1.8345  1.4708
 9043SOL     OW31044   3.969   3.775   6.585  0.2892 -0.3125  0.5469
 9043SOL    HW131045   3.967   3.702   6.523  0.9752  0.3102 -0.2279
 9043SOL    HW231046   3.969   3.853   6.530  2.3577  0.2403  1.2702
 9044SOL     OW31047   2.947   2.104   2.226 -0.0123  0.1647  0.8977
 9044SOL    HW131048   2.991   2.053   2.294  0.4220  1.3685  1.5598
 9044SOL    HW231049   2.872   2.050   2.199  1.0377 -1.2721  0.7833
 9045SOL     OW31050   1.857   1.215   1.297 -0.3400 -0.1215  0.1733
 9045SOL    HW131051   1.918   1.192   1.227 -0.0669  0.9891  0.0428
 9045SOL    HW231052   1.908   1.267   1.358 -0.5602 -1.1252  1.2482
 9046SOL     OW31053   1.170   4.005   9.484  0.0763  0.4268  0.3814
 9046SOL    HW131054   1.226   4.007   9.562  0.7954 -0.0686 -0.1052
 9046SOL    HW231055   1.081   4.003   9.518  0.4006 -0.7689  1.2137
 9047SOL     OW31056   8.666   8.335   0.294  0.3728 -0.1903  0.1276
 9047SOL    HW131057   8.602   8.280   0.248 -0.4082 -0.7208  1.7806
 9047SOL    HW231058   8.661   8.420   0.249  0.6850 -1.0513 -1.6524
 9048SOL     OW31059   7.168   7.027   9.349  0.2611 -0.1531 -0.0149
 9048SOL    HW131060   7.169   7.061   9.439 -0.1149 -0.3125  0.0518
 9048SOL    HW231061   7.102   6.958   9.351  0.9146 -0.7937 -0.1788
 9049SOL     OW31062   5.283   6.385   5.120 -0.4893 -0.2513  0.0352
 9049SOL    HW131063   5.266   6.306   5.170 -0.3755 -1.7869 -2.2062
 9049SOL    HW231064   5.378   6.399   5.128 -0.9263  1.8347  3.3426
 9050SOL     OW31065   6.831   0.763   0.318 -0.6124 -0.0074  0.2117
 9050SOL    HW131066   6.742   0.760   0.282 -0.4385 -0.5931 -0.1892
 9050SOL    HW231067   6.838   0.850   0.357 -1.1965  0.2296 -0.1897
 9051SOL     OW31068   7.971   8.554   4.545  0.1517 -0.2780 -0.2618
 9051SOL    HW131069   8.036   8.534   4.613  0.4970 -0.4072 -0.6249
 9051SOL    HW231070   8.022   8.555   4.464 -0.2997 -0.3512 -0.5450
 9052SOL     OW31071   0.273   5.099   7.446 -0.0920 -0.1714 -0.0217
 9052SOL    HW131072   0.264   5.130   7.356  0.2786 -1.3449 -0.4805
 9052SOL    HW231073   0.368   5.100   7.462 -0.1577  0.0822  0.3862
 9053SOL     OW31074   3.368   3.548   6.755 -0.1850 -0.3041 -0.6119
 9053SOL    HW131075   3.333   3.470   6.712  0.5768 -1.5068  0.8553
 9053SOL    HW231076   3.434   3.514   6.815  0.4896  1.5309 -0.2626
 9054SOL     OW31077   9.680   2.327   6.003 -0.1009 -0.2087 -0.2848
 9054SOL    HW131078   9.764   2.286   5.981  0.4796 -1.0916  3.0103
 9054SOL    HW231079   9.700   2.420   6.014  0.5650 -0.4683  0.8194
 9055SOL     OW31080   6.525   6.443   3.461 -0.2482 -0.7286  0.4625
 9055SOL    HW131081   6.482   6.402   3.536  0.9079  0.5646  1.8936
 9055SOL    HW231082   6.618   6.429   3.476  0.0784  0.8976  0.0864
 9056SOL     OW31083   3.138   8.864   9.150 -0.3911 -0.2922 -0.0431
 9056SOL    HW131084   3.063   8.895   9.099  0.0662 -0.5445 -0.8775
 9056SOL    HW231085   3.208   8.851   9.086  0.0812 -0.9766  0.5904
 9057SOL     OW31086   1.672   8.158   7.140 -0.0064 -0.0121  0.2815
 9057SOL    HW131087   1.695   8.111   7.059  0.8652 -0.7506  0.9369
 9057SOL    HW231088   1.637   8.090   7.197 -0.4034  0.4669  0.6048
 9058SOL     OW31089   2.555  10.143   9.389  0.6795 -0.0637  0.1214
 9058SOL    HW131090   2.466  10.175   9.403  0.9719  1.9646 -2.0671
 9058SOL    HW231091   2.549  10.089   9.311  1.2151 -0.7351  0.5381
 9059SOL     OW31092   5.290   1.291   8.889 -0.4412 -0.5629 -0.5276
 9059SOL    HW131093   5.199   1.280   8.861  0.3916 -1.6770 -3.0473
 9059SOL    HW231094   5.328   1.204   8.883  0.5203 -0.3596  1.7345
 9060SOL     OW31095   4.671   3.895   3.727 -0.2864  0.1899  0.4814
 9060SOL    HW131096   4.616   3.872   3.802  0.2202  0.2064  0.8654
 9060SOL    HW231097   4.761   3.883   3.758 -0.0524  0.8447  0.0891
 9061SOL     OW31098   7.979   3.216   5.429 -0.0735  0.1375  0.3430
 9061SOL    HW131099   8.029   3.296   5.413  2.3085 -0.8772  2.1380
 9061SOL    HW231100   8.028   3.147   5.383 -1.3015 -0.5367 -0.0111
 9062SOL     OW31101   0.960   5.985   9.957 -0.3073  0.2309 -0.1886
 9062SOL    HW131102   1.023   5.990  10.028  0.0763 -1.7772 -0.3372
 9062SOL    HW231103   0.900   5.915   9.982 -1.3773  0.8464 -0.9234
 9063SOL     OW31104   4.277   0.159   2.960  0.2609 -0.4658  0.0391
 9063SOL    HW131105   4.296   0.197   3.046 -2.4937  1.5919 -0.1167
 9063SOL    HW231106   4.209   0.095   2.977  0.0205 -0.3658 -0.5400
 9064SOL     OW31107   3.084   8.916   3.908  0.1417 -0.1341  0.4548
 9064SOL    HW131108   3.013   8.860   3.877  0.7397 -0.5808 -0.1630
 9064SOL    HW231109   3.161   8.860   3.906  0.5693  0.4278  0.8085
 9065SOL     OW31110   9.929   6.286   6.555  0.1751 -0.1185 -0.4235
 9065SOL    HW131111   9.883   6.212   6.515  0.4571 -1.0917  0.9830
 9065SOL    HW231112   9.872   6.361   6.538 -1.5041 -1.1161  0.4316
 9066SOL     OW31113   6.138   0.447   9.300 -0.0932 -0.6428 -0.2344
 9066SOL    HW131114   6.117   0.357   9.275 -0.4733 -0.6200 -0.0057
 9066SOL    HW231115   6.084   0.501   9.242  1.3636 -0.5123 -1.5271
 9067SOL     OW31116   1.608   3.940   8.893 -0.3511  0.0431 -0.3613
 9067SOL    HW131117   1.514   3.927   8.882 -0.3871 -1.4581  1.1684
 9067SOL    HW231118   1.627   3.901   8.979  1.4792  1.3382 -0.1090
 9068SOL     OW31119   1.600   0.778   7.956  0.2265  0.3843  0.0138
 9068SOL    HW131120   1.683   0.825   7.971  0.3594 -0.3858  2.0133
 9068SOL    HW231121   1.562   0.768   8.044 -0.1545 -2.5582 -0.3829
 9069SOL     OW31122   0.576   2.297   8.526 -0.5923 -0.0422 -0.1218
 9069SOL    HW131123   0.668   2.272   8.536 -0.5644  0.4010  0.9022
 9069SOL    HW231124   0.535   2.221   8.486  0.0598 -0.5791  0.2046
 9070SOL     OW31125   8.179   8.483   1.575 -0.1755 -0.2285 -0.6282
 9070SOL    HW131126   8.187   8.406   1.631 -1.4348  0.2670  0.2864
 9070SOL    HW231127   8.120   8.455   1.504 -1.5421  0.1663  0.3037
 9071SOL     OW31128   9.541   2.253   7.500 -0.6962 -0.1134  0.5098
 9071SOL    HW131129   9.561   2.160   7.492 -0.8372 -0.1166  0.1530
 9071SOL    HW231130   9.555   2.288   7.412 -0.8578  0.1590  0.5915
 9072SOL     OW31131   0.812   2.432   6.588 -0.1954  0.0602  0.0641
 9072SOL    HW131132   0.853   2.487   6.654  0.3616  0.0948 -0.3066
 9072SOL    HW231133   0.791   2.491   6.516  1.0983 -0.3213 -0.6555
 9073SOL     OW31134   1.678   0.045  10.094  0.1954 -0.4156  0.3772
 9073SOL    HW131135   1.610   0.107  10.068 -0.6100 -2.0836 -1.7080
 9073SOL    HW231136   1.743   0.099  10.140 -1.5478  1.5485  0.6666
 9074SOL     OW31137   9.584   5.252   4.852  0.2021  0.3497 -0.1155
 9074SOL    HW131138   9.501   5.294   4.827  0.2545  0.4830 -0.0643
 9074SOL    HW231139   9.640   5.324   4.880  0.1143  0.1929  0.4693
 9075SOL     OW31140   2.380   4.175   4.696 -0.0437 -0.2199 -0.3751
 9075SOL    HW131141   2.413   4.247   4.749 -1.1228 -0.1583  0.2426
 9075SOL    HW231142   2.458   4.136   4.656  0.8890 -0.6654  1.7507
 9076SOL     OW31143   4.497   2.446   7.080  0.5054  0.8186 -0.6212
 9076SOL    HW131144   4.427   2.446   7.146 -0.1712 -1.2589 -1.2504
 9076SOL    HW231145   4.496   2.534   7.044 -0.9758  1.1973  0.2312
 9077SOL     OW31146   8.236   1.780   9.255  0.0672 -0.1922  0.3597
 9077SOL    HW131147   8.163   1.796   9.194  0.9158  1.4081 -0.3049
 9077SOL    HW231148   8.201   1.718   9.319 -2.3220  1.4875  0.8116
 9078SOL     OW31149   8.889   6.870   3.569  0.1495  0.2067  0.3070
 9078SOL    HW131150   8.818   6.854   3.631  0.8713 -0.3275  1.0317
 9078SOL    HW231151   8.884   6.798   3.507 -0.7368  0.8830 -0.4378
 9079SOL     OW31152   8.432   2.063   2.721 -0.4186 -0.0426 -0.7590
 9079SOL    HW131153   8.366   2.125   2.754 -0.8504 -1.2537  0.7496
 9079SOL    HW231154   8.469   2.107   2.644 -0.7278  2.0685  0.2256
 9080SOL     OW31155   4.673   9.051   7.404 -0.1765  0.4277 -0.2720
 9080SOL    HW131156   4.674   9.128   7.347 -1.3366  1.8747  1.5662
 9080SOL    HW231157   4.717   9.079   7.484 -0.7737 -0.7591  0.5026
 9081SOL     OW31158   7.002   6.695   4.500  0.1947  0.5464  0.1011
 9081SOL    HW131159   7.026   6.753   4.427  1.1003  0.1853  0.0985
 9081SOL    HW231160   7.067   6.624   4.497 -0.5185 -0.1324  0.4950
 9082SOL     OW31161   9.791   4.147   2.836  0.1643 -0.0098 -0.2530
 9082SOL    HW131162   9.772   4.056   2.861  1.7597 -0.3324 -0.1253
 9082SOL    HW231163   9.856   4.176   2.900  1.1357  0.5625 -1.4702
 9083SOL     OW31164   9.543   5.157   2.677  0.3990  0.1728 -0.0994
 9083SOL    HW131165   9.507   5.090   2.617  1.3912 -0.3827 -0.0901
 9083SOL    HW231166   9.500   5.139   2.761 -1.8627  1.6547 -0.8396
 9084SOL     OW31167  10.053   5.693   3.577  0.6856 -0.5056  0.0393
 9084SOL    HW131168   9.992   5.764   3.557 -0.7424 -1.4022  0.9832
 9084SOL    HW231169  10.043   5.632   3.504 -1.2648 -1.7030  1.2351
 9085SOL     OW31170   2.602   7.903   9.456  0.1772 -0.1874 -0.2189
 9085SOL    HW131171   2.537   7.924   9.388  0.1856  0.4296 -0.0418
 9085SOL    HW231172   2.562   7.832   9.506  0.0894 -0.5193 -0.7478
 9086SOL     OW31173   7.554   5.693   9.506  0.3061  0.2281  0.4598
 9086SOL    HW131174   7.561   5.608   9.462 -1.3894  0.5071 -0.4380
 9086SOL    HW231175   7.632   5.741   9.478  0.5248 -0.4995 -0.2244
 9087SOL     OW31176   4.662   1.563   0.692 -0.8919  0.1093  0.4426
 9087SOL    HW131177   4.602   1.551   0.618 -1.4434  1.8326  0.5728
 9087SOL    HW231178   4.622   1.513   0.763 -0.1845 -1.8554 -0.4483
 9088SOL     OW31179   8.086   4.557   2.905  0.5146 -0.3636 -0.1057
 9088SOL    HW131180   8.106   4.481   2.960  1.8450  0.6056  0.7977
 9088SOL    HW231181   7.992   4.549   2.887 -0.1224 -0.4401  2.7676
 9089SOL     OW31182   4.710   0.577   4.970  0.1644  0.0568  0.4137
 9089SOL    HW131183   4.663   0.526   5.036 -0.1304  0.3125  0.4035
 9089SOL    HW231184   4.704   0.523   4.890 -3.0111  1.5017 -0.5095
 9090SOL     OW31185   1.673   5.250   2.881  0.4027  0.3283 -0.3838
 9090SOL    HW131186   1.617   5.231   2.956 -0.2749  0.7004 -0.7836
 9090SOL    HW231187   1.704   5.339   2.896  2.0956 -0.3842  0.5699
 9091SOL     OW31188   7.835   8.030   5.310  0.4288 -0.0816 -0.1503
 9091SOL    HW131189   7.860   8.119   5.333  1.3693 -0.5122  0.5860
 9091SOL    HW231190   7.750   8.017   5.351  0.7796  0.1264  0.6658
 9092SOL     OW31191   8.523   1.777   4.840  0.0272  0.7935  0.5395
 9092SOL    HW131192   8.441   1.741   4.806  1.1822 -0.7660 -0.7405
 9092SOL    HW231193   8.520   1.870   4.816 -2.0128  1.1578  1.9108
 9093SOL     OW31194   0.415   1.614   4.760 -0.2322 -0.1237 -0.0699
 9093SOL    HW131195   0.357   1.639   4.687  1.7060 -0.2741 -1.7388
 9093SOL    HW231196   0.390   1.524   4.780  0.7504 -0.9378 -2.2028
 9094SOL     OW31197   3.967   4.594   9.143  0.0272  0.3429 -0.4022
 9094SOL    HW131198   4.063   4.602   9.144 -0.0817  2.0552 -0.2502
 9094SOL    HW231199   3.949   4.539   9.067  1.1491 -0.6820  0.0225
 9095SOL     OW31200   9.829   5.454   0.533  0.4967 -0.5261  0.1380
 9095SOL    HW131201   9.797   5.544   0.526  0.5487 -0.5433 -0.3677
 9095SOL    HW231202   9.873   5.451   0.617  0.7560  0.0109  0.0281
 9096SOL     OW31203   4.225   8.369   4.240  0.1369  0.1940 -0.1870
 9096SOL    HW131204   4.151   8.322   4.277 -0.7370  2.2089  0.8232
 9096SOL    HW231205   4.283   8.386   4.314  1.4591 -1.0126 -0.8959
 9097SOL     OW31206   8.802   5.306   9.468  0.2972  0.4331  0.1922
 9097SOL    HW131207   8.850   5.375   9.514  1.8324 -0.6646  0.3159
 9097SOL    HW231208   8.711   5.336   9.469  1.0067  2.8445 -0.4955
 9098SOL     OW31209   5.665   2.260   8.094 -0.7433  0.4704  0.4141
 9098SOL    HW131210   5.657   2.193   8.026 -0.3664  0.4076  0.4309
 9098SOL    HW231211   5.752   2.298   8.080 -0.3348 -0.0913  1.3586
 9099SOL     OW31212   8.489   6.419   7.184  0.4565 -0.3548  0.1752
 9099SOL    HW131213   8.518   6.470   7.107  0.4335  0.4431  0.6860
 9099SOL    HW231214   8.568   6.411   7.237  0.4716 -0.9113  0.0679
 9100SOL     OW31215   4.943   7.688  10.037 -0.0835  0.4806 -0.2329
 9100SOL    HW131216   4.970   7.679   9.945 -1.8596  0.1523 -0.7570
 9100SOL    HW231217   5.017   7.654  10.087  1.7406  2.4913 -1.4368
 9101SOL     OW31218   8.137   2.856   6.665  0.6702  0.1428  0.4034
 9101SOL    HW131219   8.149   2.946   6.632 -1.0152  0.3196  0.1824
 9101SOL    HW231220   8.161   2.800   6.591 -2.4303  0.5283 -1.0790
 9102SOL     OW31221   9.001   5.861   8.949 -0.1562  0.4782 -0.0180
 9102SOL    HW131222   8.981   5.772   8.979 -2.7558  0.9082 -0.2190
 9102SOL    HW231223   9.037   5.849   8.862 -2.3642 -0.3761 -0.8897
 9103SOL     OW31224   1.390   6.122   8.736  0.0755  0.1739  0.0144
 9103SOL    HW131225   1.303   6.130   8.697  0.1123  0.8844  0.0714
 9103SOL    HW231226   1.413   6.211   8.763 -0.0337 -0.3251  1.8524
 9104SOL     OW31227   6.893   6.845   4.774  0.4116  0.3938  0.1620
 9104SOL    HW131228   6.915   6.770   4.830  1.2671  0.1278 -0.5177
 9104SOL    HW231229   6.929   6.823   4.689  0.3603  1.4282 -0.1400
 9105SOL     OW31230   7.849   6.569   1.519 -0.2866  0.2164 -0.1980
 9105SOL    HW131231   7.858   6.659   1.550 -1.1316 -0.2230  1.4511
 9105SOL    HW231232   7.813   6.522   1.594 -2.7546 -0.8650 -1.9383
 9106SOL     OW31233   1.933   6.952   5.286 -0.0897  0.7383  0.3295
 9106SOL    HW131234   1.921   6.867   5.243  0.9844  0.8053 -0.1544
 9106SOL    HW231235   1.878   6.948   5.364 -0.2417 -0.3074  0.1827
 9107SOL     OW31236   8.125   2.471   7.256  0.0601 -0.2073 -0.0998
 9107SOL    HW131237   8.067   2.417   7.310 -0.0969 -0.6896 -0.7373
 9107SOL    HW231238   8.211   2.460   7.295 -0.1303 -0.1810  0.3332
 9108SOL     OW31239   7.553   9.767   1.937 -0.4825 -0.7183 -0.6143
 9108SOL    HW131240   7.504   9.687   1.922 -0.8130 -0.6669  0.1180
 9108SOL    HW231241   7.599   9.752   2.020  0.5395 -0.6636 -1.1554
 9109SOL     OW31242   4.183   3.986   7.362  0.4822  0.1394 -0.3547
 9109SOL    HW131243   4.210   3.896   7.345 -0.0202  0.1542 -1.2739
 9109SOL    HW231244   4.094   3.979   7.398  1.2591  0.1541  1.7197
 9110SOL     OW31245   4.408   6.679   7.565 -0.6141  0.1999 -0.1041
 9110SOL    HW131246   4.353   6.621   7.514 -1.1028 -0.4440  1.1235
 9110SOL    HW231247   4.350   6.715   7.632 -1.2116  4.6382 -2.5932
 9111SOL     OW31248   5.630   5.947   2.619 -0.3794  0.1130  0.0967
 9111SOL    HW131249   5.722   5.969   2.605 -0.9868  2.1625 -1.0784
 9111SOL    HW231250   5.629   5.903   2.704  1.7260 -0.3332 -0.0499
 9112SOL     OW31251   3.900   6.961   5.762  0.1120 -0.0919 -0.5562
 9112SOL    HW131252   3.865   7.045   5.733  1.9758  1.0453  0.2992
 9112SOL    HW231253   3.828   6.921   5.811 -0.1720  2.0261  0.9279
 9113SOL     OW31254   4.424   9.300   1.173  0.1205 -0.3853  0.2711
 9113SOL    HW131255   4.386   9.280   1.259 -0.0081 -0.3885  0.2143
 9113SOL    HW231256   4.378   9.380   1.145 -0.7362 -1.0637 -0.3421
 9114SOL     OW31257   3.174   0.021   4.588  0.6344  0.0409  0.1794
 9114SOL    HW131258   3.236   0.074   4.637  0.6641 -0.1815  0.3864
 9114SOL    HW231259   3.120   0.084   4.541 -0.5260  0.3542  1.8253
 9115SOL     OW31260   8.281   0.970   6.523 -0.0750 -0.3536 -0.0728
 9115SOL    HW131261   8.288   0.902   6.590  1.5481  0.3295  0.4881
 9115SOL    HW231262   8.214   1.030   6.558 -0.3225 -0.7814  0.2062
 9116SOL     OW31263   0.829   9.310   2.085 -0.1038 -0.1489  0.3571
 9116SOL    HW131264   0.745   9.322   2.040  0.0319  1.4741  0.4792
 9116SOL    HW231265   0.808   9.317   2.178 -0.1220 -1.7970  0.5018
 9117SOL     OW31266   3.325   1.225   5.098 -0.4492  0.1091 -0.1355
 9117SOL    HW131267   3.363   1.170   5.167 -1.9332 -0.7250  0.0519
 9117SOL    HW231268   3.327   1.313   5.135 -0.9615 -0.2837  0.8704
 9118SOL     OW31269   1.215   8.639   8.698  0.6841 -0.2731 -0.0830
 9118SOL    HW131270   1.271   8.715   8.687 -1.1894  1.1673 -0.1710
 9118SOL    HW231271   1.230   8.610   8.789 -0.1648  1.5972  0.7088
 9119SOL     OW31272   7.490   3.705   2.005 -0.1537 -0.0739 -0.3385
 9119SOL    HW131273   7.459   3.644   2.072  0.4624  0.1868  0.1925
 9119SOL    HW231274   7.506   3.650   1.928  0.7121 -0.6471  0.2336
 9120SOL     OW31275   9.771   6.842   5.142  0.7353  0.0307 -0.4666
 9120SOL    HW131276   9.857   6.882   5.155  0.0504  1.1646  0.8461
 9120SOL    HW231277   9.712   6.916   5.132 -0.1286 -0.7382 -1.2031
 9121SOL     OW31278   4.289   2.193   2.786 -0.6296 -0.4703  0.7607
 9121SOL    HW131279   4.201   2.168   2.812 -1.8386  2.7450  0.2953
 9121SOL    HW231280   4.293   2.172   2.692 -0.8416 -0.7609  0.8161
 9122SOL     OW31281   4.353   4.411   2.010  0.2579  0.6850 -0.3579
 9122SOL    HW131282   4.402   4.493   2.021  0.3532  0.5965 -0.1176
 9122SOL    HW231283   4.342   4.377   2.099 -1.1679  1.2434 -0.2896
 9123SOL     OW31284   8.505   7.823   0.245 -0.0559  0.0811 -0.0101
 9123SOL    HW131285   8.453   7.743   0.253 -2.0285  1.4541  2.5117
 9123SOL    HW231286   8.580   7.809   0.303  0.5066 -0.5441 -0.8732
 9124SOL     OW31287   0.366   8.760   8.990  0.4656 -0.0811 -0.1076
 9124SOL    HW131288   0.314   8.822   8.939  1.4603  1.2762  0.4580
 9124SOL    HW231289   0.301   8.708   9.037 -0.7017 -3.2573 -4.5688
 9125SOL     OW31290   3.576   1.036   8.545 -0.2674  0.1492 -0.5964
 9125SOL    HW131291   3.489   1.065   8.573 -0.3138  1.6329 -2.1152
 9125SOL    HW231292   3.635   1.107   8.571  0.4350 -0.6391  0.0102
 9126SOL     OW31293   2.668   5.427   2.766 -0.0010 -0.3089 -0.1423
 9126SOL    HW131294   2.575   5.422   2.743 -0.2343  1.5683  0.2333
 9126SOL    HW231295   2.688   5.520   2.760  1.8391 -0.6810 -0.0782
 9127SOL     OW31296   9.301   2.295   2.810 -0.0810 -0.4713  0.1226
 9127SOL    HW131297   9.277   2.259   2.725  2.8250 -0.4024 -0.8375
 9127SOL    HW231298   9.335   2.221   2.860  0.7854 -0.0393  0.1917
 9128SOL     OW31299   2.020   8.314   8.895 -0.1971  0.0772  0.0947
 9128SOL    HW131300   2.012   8.405   8.868  2.0297  0.4409  0.4166
 9128SOL    HW231301   2.079   8.275   8.830 -2.1126 -1.5088 -0.7779
 9129SOL     OW31302   0.711   6.953   6.923 -0.5328 -0.1831  0.3260
 9129SOL    HW131303   0.781   6.954   6.988 -0.6152 -1.1525  0.4332
 9129SOL    HW231304   0.705   7.044   6.894  1.5387 -0.2390 -0.5011
 9130SOL     OW31305   3.075   5.049   2.636 -0.2835 -0.3087 -0.4551
 9130SOL    HW131306   3.081   5.102   2.715 -0.8275 -0.0384 -0.5859
 9130SOL    HW231307   3.153   4.993   2.638  2.4958  3.0898 -2.2180
 9131SOL     OW31308   0.900   7.052   4.597 -0.2025  0.1583 -0.1487
 9131SOL    HW131309   0.849   7.033   4.676 -0.9914 -2.0049 -1.1134
 9131SOL    HW231310   0.989   7.067   4.629 -0.5678 -0.3993  1.1883
 9132SOL     OW31311   5.937   2.337   8.084 -0.0533  0.1675  0.4594
 9132SOL    HW131312   5.977   2.281   8.151  0.7396  0.0077 -0.1284
 9132SOL    HW231313   5.891   2.405   8.133  0.5442  0.0737  1.1656
 9133SOL     OW31314   9.448   2.012   8.854  0.0457 -0.2053  0.4836
 9133SOL    HW131315   9.517   1.950   8.874  0.3045 -0.1418 -0.1691
 9133SOL    HW231316   9.494   2.089   8.820 -0.3610 -0.4147 -0.6089
 9134SOL     OW31317   9.376   0.587   2.423  0.1402  0.4313  0.3402
 9134SOL    HW131318   9.401   0.592   2.330 -1.3656 -2.4672 -0.3294
 9134SOL    HW231319   9.305   0.651   2.431 -1.4821 -1.0490 -1.2416
 9135SOL     OW31320   5.806   5.845   9.247  0.3182  0.3623 -0.0648
 9135SOL    HW131321   5.741   5.907   9.281 -0.3522  0.1543 -0.9512
 9135SOL    HW231322   5.886   5.897   9.239  1.0198  0.0624  3.3712
 9136SOL     OW31323   7.613   8.764   8.444  0.5788 -0.6841  0.4114
 9136SOL    HW131324   7.573   8.684   8.410  1.2250 -0.4620 -0.9432
 9136SOL    HW231325   7.705   8.757   8.421  0.8249  0.0369  1.1063
 9137SOL     OW31326   8.286   6.417   1.842  0.1071  0.1065 -0.0819
 9137SOL    HW131327   8.334   6.474   1.902 -0.0367 -0.1222  0.2520
 9137SOL    HW231328   8.298   6.329   1.877  1.5773 -0.2624 -1.4274
 9138SOL     OW31329   0.064   0.974   8.883  0.0520 -0.5137 -0.2252
 9138SOL    HW131330   0.105   1.060   8.883 -0.5577 -0.2106 -0.8367
 9138SOL    HW231331   0.135   0.913   8.862  0.0437  0.1097 -2.3333
 9139SOL     OW31332   6.941   7.841   1.367 -0.7592  0.1059 -0.0416
 9139SOL    HW131333   7.016   7.806   1.415 -0.9880  1.0234  1.0268
 9139SOL    HW231334   6.888   7.764   1.346 -0.0923 -0.4304  0.1968
 9140SOL     OW31335   9.016   3.303   9.348  0.7722 -0.5013  0.1277
 9140SOL    HW131336   8.981   3.231   9.296 -1.2914  0.3313  0.2521
 9140SOL    HW231337   8.979   3.382   9.308  2.4771  0.4554  0.3705
 9141SOL     OW31338   3.483   4.441   4.310 -0.3998  0.4586  0.0101
 9141SOL    HW131339   3.557   4.458   4.368  0.1401  1.3635 -0.8960
 9141SOL    HW231340   3.448   4.357   4.338  0.1775  0.6271  1.2817
 9142SOL     OW31341   6.276   3.643   0.898  0.7269  0.3076  0.5881
 9142SOL    HW131342   6.288   3.553   0.867 -1.2719  0.4593 -0.8250
 9142SOL    HW231343   6.319   3.697   0.831  1.9483  0.4456  1.4482
 9143SOL     OW31344   1.516   7.374   3.946 -0.0537 -0.0593  0.0525
 9143SOL    HW131345   1.484   7.457   3.912 -0.2895 -0.9554 -2.0281
 9143SOL    HW231346   1.456   7.354   4.019  1.2973  2.5536  2.0509
 9144SOL     OW31347   2.929   6.560   3.101  0.0310 -0.3005  0.4663
 9144SOL    HW131348   2.890   6.614   3.169 -0.0423  2.4463 -1.5824
 9144SOL    HW231349   2.856   6.510   3.064 -0.3015 -0.1970  0.9767
 9145SOL     OW31350   8.374   4.241   4.569 -0.3721  0.2444 -0.8681
 9145SOL    HW131351   8.459   4.264   4.530  1.1409 -0.0777  1.9500
 9145SOL    HW231352   8.372   4.145   4.565  0.2757  0.1416  0.6344
 9146SOL     OW31353   9.353   0.441   3.533  0.4965  0.1796  1.0612
 9146SOL    HW131354   9.382   0.350   3.531 -0.4407 -0.1183 -0.0747
 9146SOL    HW231355   9.299   0.447   3.611  0.5739 -0.2386  1.1509
 9147SOL     OW31356   9.845   0.199   5.129 -0.1450 -0.1661 -0.0537
 9147SOL    HW131357   9.828   0.274   5.071 -0.6841  0.1613  0.5170
 9147SOL    HW231358   9.899   0.141   5.076 -2.0157 -0.6861 -1.5313
 9148SOL     OW31359  10.127   9.713   9.891  0.2125  0.4329  0.7322
 9148SOL    HW131360  10.103   9.718   9.984  0.1360 -0.6315  0.7756
 9148SOL    HW231361  10.046   9.732   9.844 -0.7872 -2.8902  0.8802
 9149SOL     OW31362   0.337   2.884   7.415  0.0749  0.6418 -0.0792
 9149SOL    HW131363   0.430   2.900   7.432  0.2119 -0.7501  0.5706
 9149SOL    HW231364   0.336   2.809   7.356 -0.6343  0.9097 -0.4181
 9150SOL     OW31365   1.306   0.484   1.841  0.3632 -0.1804 -0.5249
 9150SOL    HW131366   1.233   0.502   1.900 -1.0592  1.1580 -2.5247
 9150SOL    HW231367   1.337   0.571   1.815  1.3914 -0.7280 -1.2147
 9151SOL     OW31368   9.941   8.847   7.051  0.4373  0.2119 -0.0321
 9151SOL    HW131369   9.846   8.858   7.046  0.4249 -0.4528 -1.9784
 9151SOL    HW231370   9.975   8.901   6.980  1.3691 -0.9078 -0.4769
 9152SOL     OW31371   6.433   6.042   6.855 -0.3379 -0.0857  0.1885
 9152SOL    HW131372   6.512   5.992   6.836 -1.3143 -1.4081 -0.5382
 9152SOL    HW231373   6.465   6.129   6.880  1.3709 -0.8811  0.9082
 9153SOL     OW31374   2.389   8.275   7.764 -0.1582  0.0122 -0.0480
 9153SOL    HW131375   2.443   8.227   7.700  0.2778  0.8241 -0.3054
 9153SOL    HW231376   2.330   8.208   7.800  0.6623 -0.7864 -0.1427
 9154SOL     OW31377   9.256   6.726   4.093  0.0819  0.2041  0.2155
 9154SOL    HW131378   9.267   6.772   4.010 -0.8739 -0.9145 -0.5678
 9154SOL    HW231379   9.294   6.640   4.078  0.0806  0.0557  1.0160
 9155SOL     OW31380   0.898   7.829   8.106 -0.2768 -0.2819 -0.0256
 9155SOL    HW131381   0.898   7.802   8.014  0.9612  1.2263 -0.5035
 9155SOL    HW231382   0.832   7.773   8.147  0.6950 -2.5356 -1.3626
 9156SOL     OW31383   8.174   9.502   1.509  0.5512 -0.6639 -0.0283
 9156SOL    HW131384   8.268   9.519   1.499  0.6731 -1.8579 -1.1670
 9156SOL    HW231385   8.140   9.503   1.419 -0.8458  1.3458  0.4566
 9157SOL     OW31386   4.756   0.932   4.324  0.4524 -0.1648 -0.7260
 9157SOL    HW131387   4.802   0.988   4.261 -0.6151  0.7143 -0.7434
 9157SOL    HW231388   4.755   0.982   4.405 -1.6286  0.4632 -1.0736
 9158SOL     OW31389   9.294   3.361   9.531 -0.2499  0.2651 -0.4611
 9158SOL    HW131390   9.262   3.452   9.527 -0.0152  0.3177 -1.4942
 9158SOL    HW231391   9.285   3.329   9.441 -0.0881 -0.6599 -0.1556
 9159SOL     OW31392   9.748   7.492   8.429  0.7134 -0.5121  0.3627
 9159SOL    HW131393   9.676   7.430   8.414  0.9224 -0.8928  0.8838
 9159SOL    HW231394   9.756   7.540   8.346  0.1136 -0.7282  0.1729
 9160SOL     OW31395   9.918   3.795   1.827  0.4314 -0.2250  0.7472
 9160SOL    HW131396   9.876   3.752   1.901  1.4531 -0.3658  1.2615
 9160SOL    HW231397   9.925   3.887   1.853 -0.4347 -0.0093  0.2519
 9161SOL     OW31398   9.503   0.181   0.465 -0.2642  0.1027  0.2555
 9161SOL    HW131399   9.508   0.180   0.561  0.5971 -1.8347  0.2527
 9161SOL    HW231400   9.576   0.237   0.438 -0.3684  0.4746  0.7229
 9162SOL     OW31401   6.372   6.305   7.979  0.4535 -0.2871  0.4053
 9162SOL    HW131402   6.314   6.298   7.903  0.9244 -0.1414  0.0332
 9162SOL    HW231403   6.459   6.320   7.943  0.7184 -0.4226  0.9661
 9163SOL     OW31404   9.415   5.618   6.581  0.6923  0.9767 -0.1632
 9163SOL    HW131405   9.497   5.625   6.631  0.2307 -2.2618  1.3222
 9163SOL    HW231406   9.441   5.631   6.490  2.5657  1.6422  0.4219
 9164SOL     OW31407   0.750   7.933   3.134 -0.2606 -0.2797  0.4008
 9164SOL    HW131408   0.844   7.947   3.119 -0.5533 -0.2284 -1.6265
 9164SOL    HW231409   0.732   7.978   3.217  1.5540 -0.5792  1.0008
 9165SOL     OW31410   5.761   5.662   2.620  0.1114 -0.0226  0.2673
 9165SOL    HW131411   5.722   5.703   2.542  0.3386 -0.7285 -0.2228
 9165SOL    HW231412   5.843   5.623   2.589  1.5949  1.9790  1.4040
 9166SOL     OW31413   0.584  10.052   3.883  0.4513  0.6780  0.1322
 9166SOL    HW131414   0.560  10.120   3.821  1.7844  0.2440 -0.8877
 9166SOL    HW231415   0.581   9.971   3.833  0.3816  0.1644  0.9381
 9167SOL     OW31416   3.800   1.926   8.705  0.5732  0.2924 -0.2793
 9167SOL    HW131417   3.882   1.967   8.733 -1.0694  3.3515  0.4704
 9167SOL    HW231418   3.770   1.877   8.781  0.4458  1.3059  0.3324
 9168SOL     OW31419   0.565   7.442   3.210  0.1090  0.3622 -0.0729
 9168SOL    HW131420   0.596   7.399   3.290 -0.1687 -0.0602 -0.1880
 9168SOL    HW231421   0.644   7.473   3.167  0.2764  0.3947  0.2547
 9169SOL     OW31422   4.537   0.195   3.788  0.6169 -0.4618 -0.2154
 9169SOL    HW131423   4.551   0.280   3.830  0.7125 -0.3510 -0.4674
 9169SOL    HW231424   4.529   0.216   3.695 -0.1680 -0.6372 -0.1957
 9170SOL     OW31425   4.432   8.356   4.696 -0.3534 -0.0861 -0.4081
 9170SOL    HW131426   4.498   8.303   4.741  0.2288  1.7174  0.9676
 9170SOL    HW231427   4.349   8.311   4.714  0.3621 -2.1546 -1.8202
 9171SOL     OW31428   3.517   2.549   7.390  0.3721  0.0839  0.1130
 9171SOL    HW131429   3.609   2.547   7.416  1.2138 -0.4933 -2.6049
 9171SOL    HW231430   3.494   2.457   7.375 -0.2963  0.3157 -0.3222
 9172SOL     OW31431   5.123  10.010   1.539  0.0716 -0.3546  0.4631
 9172SOL    HW131432   5.086   9.924   1.518 -0.2921 -0.1259  0.1459
 9172SOL    HW231433   5.055  10.054   1.590 -0.6523  0.5508 -1.1949
 9173SOL     OW31434  10.006   7.619   4.613 -0.3016  0.3798  0.2370
 9173SOL    HW131435  10.044   7.602   4.526 -0.0902  1.7007  0.0444
 9173SOL    HW231436   9.925   7.667   4.595 -0.2579  0.6574  0.7642
 9174SOL     OW31437  10.111   4.485   2.113 -0.2765  0.0312  0.1629
 9174SOL    HW131438  10.125   4.479   2.018  2.0101  0.1482  0.4188
 9174SOL    HW231439  10.029   4.532   2.123  0.1669  1.3273 -1.7841
 9175SOL     OW31440   0.731   1.580   5.831 -0.5457 -0.5872 -0.3607
 9175SOL    HW131441   0.783   1.661   5.828 -3.3577  1.7195  3.2982
 9175SOL    HW231442   0.790   1.515   5.868  1.1225  0.4946 -1.0052
 9176SOL     OW31443   9.762   4.834   0.761  0.0702  0.1760 -0.0707
 9176SOL    HW131444   9.795   4.919   0.789 -0.4556  0.8199 -1.3331
 9176SOL    HW231445   9.807   4.817   0.678 -2.2852  0.8198 -1.5694
 9177SOL     OW31446   0.462   4.863   2.376  0.6792 -0.1780 -0.3896
 9177SOL    HW131447   0.435   4.917   2.450 -0.7634  1.2633 -1.8933
 9177SOL    HW231448   0.447   4.773   2.406 -0.2744  0.3897  0.9178
 9178SOL     OW31449   7.245   6.476   2.723 -0.1590 -0.2871 -0.6729
 9178SOL    HW131450   7.304   6.535   2.676  1.4284  0.3276  1.8616
 9178SOL    HW231451   7.210   6.530   2.795 -0.7933 -1.7019  0.1270
 9179SOL     OW31452   1.350   8.801   9.971 -0.0353  0.0775  0.1218
 9179SOL    HW131453   1.411   8.755  10.029 -0.2148 -1.3452 -0.7684
 9179SOL    HW231454   1.267   8.756   9.984 -0.8641  1.7493  1.0347
 9180SOL     OW31455   1.946   8.237   9.191  0.9033  0.0085 -0.6168
 9180SOL    HW131456   1.907   8.239   9.103  0.4647  1.6007 -0.4260
 9180SOL    HW231457   2.003   8.161   9.190 -0.4468 -1.0431 -1.6869
 9181SOL     OW31458   8.540   9.026   0.771 -0.1718  0.2766 -0.2049
 9181SOL    HW131459   8.580   9.112   0.787 -0.3343  0.4944 -0.9281
 9181SOL    HW231460   8.461   9.027   0.825  0.2163  0.2873  0.3639
 9182SOL     OW31461   0.209   6.314   6.365 -0.4257  0.0469 -0.1992
 9182SOL    HW131462   0.139   6.302   6.429 -0.4663 -0.3390 -0.3155
 9182SOL    HW231463   0.274   6.247   6.386 -0.4319 -0.0725 -0.5534
 9183SOL     OW31464   8.502   8.426   3.640 -0.7361  0.2515 -0.3735
 9183SOL    HW131465   8.567   8.489   3.610 -0.3122  0.3581  0.7459
 9183SOL    HW231466   8.515   8.350   3.583  1.5679 -0.3988  0.9209
 9184SOL     OW31467   8.119   2.443   1.951 -0.3403 -0.0790  0.0884
 9184SOL    HW131468   8.198   2.406   1.911 -0.6975  0.1584 -0.8787
 9184SOL    HW231469   8.152   2.509   2.012  0.2244 -0.2241 -0.0512
 9185SOL     OW31470   4.903   3.319   1.888  0.8089  0.5567  0.1468
 9185SOL    HW131471   4.918   3.344   1.797  2.5513 -0.2667  0.1653
 9185SOL    HW231472   4.955   3.240   1.900 -0.4610 -0.1305  1.5018
 9186SOL     OW31473   4.887   9.884   6.326  0.2573 -0.6665 -0.3316
 9186SOL    HW131474   4.812   9.887   6.267 -0.0317 -1.3700 -0.0081
 9186SOL    HW231475   4.960   9.857   6.270  0.3253  0.2224 -0.6896
 9187SOL     OW31476   6.650   1.887   3.957  0.5226 -0.1539 -0.0370
 9187SOL    HW131477   6.565   1.892   4.001  0.2466  1.5283 -0.6887
 9187SOL    HW231478   6.698   1.964   3.988  1.4531 -0.5598 -0.4212
 9188SOL     OW31479   6.856   9.495   2.991 -0.3246 -0.3917  0.6123
 9188SOL    HW131480   6.779   9.442   3.008 -1.1274 -0.2319 -2.0556
 9188SOL    HW231481   6.899   9.453   2.916  0.7892  0.9202  0.4570
 9189SOL     OW31482   4.597   8.947   5.616  0.5053 -0.1849  0.4200
 9189SOL    HW131483   4.596   9.036   5.581 -1.4718 -0.0763  0.6266
 9189SOL    HW231484   4.523   8.903   5.573 -0.0079 -1.0113  2.0491
 9190SOL     OW31485   5.627   7.059   7.166  0.1244 -0.2666 -0.4738
 9190SOL    HW131486   5.691   6.993   7.137  0.9372 -0.0116  0.6514
 9190SOL    HW231487   5.679   7.139   7.174  0.3775 -0.6561  3.1655
 9191SOL     OW31488   7.718   0.914   1.411  0.0303  0.1303 -0.7987
 9191SOL    HW131489   7.747   0.841   1.466  0.2335 -1.1482 -2.4787
 9191SOL    HW231490   7.733   0.992   1.463 -2.4060 -1.0939  2.0880
 9192SOL     OW31491   8.930   3.520   1.000 -0.4870  0.0371 -0.1695
 9192SOL    HW131492   8.902   3.604   0.965  0.4080  1.0923  1.5076
 9192SOL    HW231493   8.849   3.475   1.022 -0.9579  0.8829 -0.1484
 9193SOL     OW31494   3.475   5.094   3.983 -0.1840 -0.0295 -0.1309
 9193SOL    HW131495   3.562   5.125   3.956  0.3078 -1.0141  0.2696
 9193SOL    HW231496   3.455   5.023   3.922 -1.3030  0.9963 -1.0383
 9194SOL     OW31497   5.503   3.734   1.928  0.3110 -0.0873  0.1556
 9194SOL    HW131498   5.576   3.672   1.934  1.0798  0.8190  0.3796
 9194SOL    HW231499   5.436   3.697   1.986 -0.4770 -2.2863 -2.0330
 9195SOL     OW31500   3.353   7.616   1.071  0.8305  0.1377 -0.4516
 9195SOL    HW131501   3.279   7.657   1.027 -2.1685 -1.7967  2.2962
 9195SOL    HW231502   3.363   7.666   1.153  2.2861  0.0593 -0.5589
 9196SOL     OW31503   0.107   2.573   6.072  0.9507  0.2254 -0.3044
 9196SOL    HW131504   0.148   2.561   6.157 -0.2138 -2.2556  0.0051
 9196SOL    HW231505   0.013   2.566   6.090  0.7026 -0.8298 -1.8062
 9197SOL     OW31506   4.706   7.828   9.984  0.5040  0.0135  0.0963
 9197SOL    HW131507   4.791   7.793   9.957  0.6619  1.2016 -1.0377
 9197SOL    HW231508   4.725   7.881  10.061  0.7995  0.2959 -0.1694
 9198SOL     OW31509   7.474   2.708   0.242  0.0383  0.2576 -0.2175
 9198SOL    HW131510   7.547   2.724   0.301  0.8316  0.7988 -1.3290
 9198SOL    HW231511   7.513   2.700   0.155 -1.3618  2.2957 -1.1203
 9199SOL     OW31512   6.471   9.046   0.344 -0.0271  0.1143 -0.0464
 9199SOL    HW131513   6.392   9.018   0.390 -1.7937  1.9722 -1.7182
 9199SOL    HW231514   6.540   9.046   0.410 -2.1189  1.4047  2.2699
 9200SOL     OW31515   8.118   4.182   3.744  0.3569  0.7937 -0.0621
 9200SOL    HW131516   8.200   4.163   3.697  0.4728  0.4523  0.2765
 9200SOL    HW231517   8.089   4.265   3.708 -0.2138 -0.0471 -1.6600
 9201SOL     OW31518   1.549   2.667   4.391  0.1612  0.2646 -0.2229
 9201SOL    HW131519   1.489   2.672   4.465  0.3149 -1.3281  0.0546
 9201SOL    HW231520   1.507   2.718   4.322 -0.2981  1.2353  0.7455
 9202SOL     OW31521   4.710   5.646   8.446  0.3005 -0.8194  0.2948
 9202SOL    HW131522   4.712   5.554   8.472  1.1696 -1.9995 -3.3298
 9202SOL    HW231523   4.659   5.647   8.365  0.2149  1.9376  0.2972
 9203SOL     OW31524   0.540   2.493   1.769 -0.7399  0.3709  0.2816
 9203SOL    HW131525   0.460   2.480   1.821 -1.0200  0.9000 -0.0114
 9203SOL    HW231526   0.557   2.407   1.729 -1.3187  0.3269  0.1247
 9204SOL     OW31527   1.922   7.631   6.685  0.1438  0.1160  0.5971
 9204SOL    HW131528   1.836   7.621   6.646  0.4945  1.4170 -0.5797
 9204SOL    HW231529   1.910   7.606   6.777 -0.6841 -3.1345 -0.2754
 9205SOL     OW31530   4.058   3.340   3.321  0.8209 -0.0242  0.4330
 9205SOL    HW131531   4.042   3.434   3.323  1.4981  0.0925  2.2724
 9205SOL    HW231532   3.976   3.301   3.290  0.5545  1.1545 -0.3969
 9206SOL     OW31533   8.299   5.389   5.908  0.1544 -0.0940  0.5717
 9206SOL    HW131534   8.393   5.371   5.896  0.2803  0.4579  0.6871
 9206SOL    HW231535   8.276   5.446   5.835 -0.2837 -0.8733  0.0926
 9207SOL     OW31536   1.637   0.142   0.356  0.3527 -0.2010 -0.3680
 9207SOL    HW131537   1.585   0.161   0.434 -0.5270  0.4160 -1.0850
 9207SOL    HW231538   1.573   0.140   0.284  1.0187 -1.6803 -0.9448
 9208SOL     OW31539   0.855   2.446   8.399  0.2177  0.4448 -0.2273
 9208SOL    HW131540   0.856   2.388   8.475 -1.1711  0.3439 -0.2628
 9208SOL    HW231541   0.818   2.393   8.328  1.4696  0.5445 -0.9937
 9209SOL     OW31542   1.890   5.698   4.205 -0.1480  0.3869  0.4481
 9209SOL    HW131543   1.905   5.693   4.111 -0.8615  0.5997  0.3102
 9209SOL    HW231544   1.971   5.668   4.245  0.0987  0.1307 -0.2383
 9210SOL     OW31545   8.365   9.055   8.368  0.0685 -0.1997  0.4993
 9210SOL    HW131546   8.384   9.137   8.414 -0.4885 -0.9779  2.2309
 9210SOL    HW231547   8.273   9.038   8.387 -0.5236 -0.0144 -1.9027
 9211SOL     OW31548   1.526   9.519   9.702  0.5422 -0.0829  0.3626
 9211SOL    HW131549   1.563   9.462   9.769  0.8543  1.2342  1.3527
 9211SOL    HW231550   1.602   9.558   9.659  0.3724  1.5348  1.4421
 9212SOL     OW31551   4.222   5.852   5.038 -0.7443  0.0691 -0.6134
 9212SOL    HW131552   4.245   5.779   5.095  1.3030 -0.1735 -1.6690
 9212SOL    HW231553   4.136   5.827   5.002 -0.7601 -1.1069  0.1805
 9213SOL     OW31554   4.154   8.804   2.443 -0.4879 -0.6668 -0.2217
 9213SOL    HW131555   4.129   8.717   2.475 -2.3049 -0.2431 -0.4182
 9213SOL    HW231556   4.197   8.787   2.359  1.7202 -1.5523  0.9949
 9214SOL     OW31557   4.675   8.105   9.741  0.1033  0.5668  0.5539
 9214SOL    HW131558   4.611   8.108   9.670 -0.5102  1.2046  1.1159
 9214SOL    HW231559   4.655   8.025   9.789 -1.1663  1.4192  1.5131
 9215SOL     OW31560   4.939   8.882   0.046  0.2796 -0.0579  0.1266
 9215SOL    HW131561   4.988   8.926   0.116  0.3923  0.5766 -0.3361
 9215SOL    HW231562   4.863   8.938   0.031  2.0179  1.8799 -2.6686
 9216SOL     OW31563   6.035   4.893   4.080  0.6666  0.6632 -0.2552
 9216SOL    HW131564   5.957   4.859   4.038  0.6590  0.9425 -0.4707
 9216SOL    HW231565   6.105   4.881   4.016  0.6922  0.9113 -0.2768
 9217SOL     OW31566   2.963   4.419   3.221  0.1071 -0.8194  0.1262
 9217SOL    HW131567   2.928   4.462   3.299 -1.2592 -0.4700 -0.6409
 9217SOL    HW231568   2.946   4.326   3.235  1.1969 -0.9180  0.8773
 9218SOL     OW31569   1.167   8.186   7.435 -0.2484 -0.0767  0.0446
 9218SOL    HW131570   1.129   8.198   7.348  0.0756  0.9429  0.0262
 9218SOL    HW231571   1.262   8.182   7.419 -0.1441  0.7679  0.3965
 9219SOL     OW31572   0.072   7.643   6.745 -0.6148  0.2129 -0.3499
 9219SOL    HW131573   0.150   7.635   6.690 -0.4122  0.5433 -0.1144
 9219SOL    HW231574   0.100   7.696   6.819 -0.9634  0.0025 -0.0662
 9220SOL     OW31575   2.002   0.040   1.466  0.1702 -0.0567 -0.3101
 9220SOL    HW131576   2.029   0.126   1.499 -0.7676  0.0328  0.2739
 9220SOL    HW231577   1.971   0.058   1.377  0.0766  0.1927 -0.2294
 9221SOL     OW31578   1.637   8.551   5.906  0.1545  0.2064  0.1553
 9221SOL    HW131579   1.645   8.595   5.990  0.0656 -0.4148  0.4933
 9221SOL    HW231580   1.661   8.618   5.842 -0.2520  0.8262  0.6407
 9222SOL     OW31581   2.121   1.206   9.763 -0.4563 -0.2904 -0.0871
 9222SOL    HW131582   2.029   1.222   9.786 -0.5636  0.3999 -0.9689
 9222SOL    HW231583   2.138   1.265   9.689  1.1949  0.9195  1.1686
 9223SOL     OW31584   0.130   0.424   4.144 -0.6419  0.3288  0.5019
 9223SOL    HW131585   0.071   0.385   4.080  0.1283 -0.1401  0.0648
 9223SOL    HW231586   0.179   0.350   4.180 -1.8231  0.4236  2.4624
 9224SOL     OW31587   1.081   6.140   6.701  0.1655  0.0139 -0.1592
 9224SOL    HW131588   1.157   6.197   6.717 -1.1763  2.4449 -1.7912
 9224SOL    HW231589   1.117   6.065   6.653  1.6218  0.7575 -0.3003
 9225SOL     OW31590   8.356   5.418   8.206  0.2936 -0.3340  0.5682
 9225SOL    HW131591   8.420   5.456   8.147  1.2815 -1.7110  0.6881
 9225SOL    HW231592   8.366   5.466   8.288  1.1492 -0.4903  0.5630
 9226SOL     OW31593   4.165   9.889   4.464 -0.4296 -0.2879 -0.4385
 9226SOL    HW131594   4.210   9.907   4.382 -0.3082 -0.2178 -0.3571
 9226SOL    HW231595   4.085   9.941   4.460 -1.1150 -1.3400 -1.1156
 9227SOL     OW31596   4.237   7.774   2.585 -0.1433  0.3994 -0.0131
 9227SOL    HW131597   4.309   7.737   2.636 -1.4635 -1.1529  0.8301
 9227SOL    HW231598   4.166   7.711   2.595 -0.9900  0.8602 -2.4933
 9228SOL     OW31599   5.381   0.457   8.565 -0.0509 -0.1370 -0.7395
 9228SOL    HW131600   5.292   0.466   8.599  0.1491  0.8331 -0.4523
 9228SOL    HW231601   5.369   0.428   8.475 -0.5961 -2.1431 -0.0812
 9229SOL     OW31602   8.964   8.901   9.479  0.0764 -0.4714  0.7443
 9229SOL    HW131603   9.031   8.970   9.483 -0.6890  0.2636  1.2670
 9229SOL    HW231604   8.933   8.893   9.569 -2.9414  1.6676  0.0554
 9230SOL     OW31605   6.146   7.057   9.179 -0.2901  0.0856 -0.3505
 9230SOL    HW131606   6.108   6.982   9.224 -0.3878 -0.4515 -1.3069
 9230SOL    HW231607   6.239   7.036   9.170 -0.1759  0.4118  0.0241
 9231SOL     OW31608   0.188   9.318   2.090 -0.7505 -0.3438 -0.1490
 9231SOL    HW131609   0.093   9.319   2.078 -0.9538 -0.0419  1.3488
 9231SOL    HW231610   0.222   9.278   2.010 -2.0594  0.4823 -1.1577
 9232SOL     OW31611   6.900   9.995   4.440 -0.3244  0.0624  0.1243
 9232SOL    HW131612   6.835   9.951   4.496 -0.9314 -0.2798 -0.8280
 9232SOL    HW231613   6.984   9.976   4.482 -0.6197 -1.5522  0.0617
 9233SOL     OW31614   5.549   0.111   0.273 -0.0950  0.0724 -0.0733
 9233SOL    HW131615   5.505   0.176   0.218  0.8134 -0.0405 -0.9701
 9233SOL    HW231616   5.557   0.034   0.217  0.5404 -0.1646  0.3349
 9234SOL     OW31617   0.297   5.223   9.251 -0.0512 -0.2087  0.5301
 9234SOL    HW131618   0.336   5.310   9.243 -1.9076  0.5788 -0.5703
 9234SOL    HW231619   0.205   5.240   9.271 -0.7592 -1.8884 -1.0339
 9235SOL     OW31620   5.407   0.275   9.709 -0.2917  0.1990 -0.3240
 9235SOL    HW131621   5.366   0.192   9.684 -1.0706 -0.8220  3.7519
 9235SOL    HW231622   5.483   0.250   9.761 -1.3882  1.9370  2.3003
 9236SOL     OW31623   9.262   4.590   4.389  0.0070  0.0530  0.3646
 9236SOL    HW131624   9.240   4.681   4.370 -2.5245 -0.8007 -1.1040
 9236SOL    HW231625   9.339   4.572   4.334  1.2043  1.5268  1.4542
 9237SOL     OW31626   6.337   9.875   6.432  0.7018 -0.3515 -0.1705
 9237SOL    HW131627   6.246   9.907   6.431  1.9289  3.6224 -0.9812
 9237SOL    HW231628   6.342   9.822   6.511 -1.6697  1.6011  1.4534
 9238SOL     OW31629   3.786   9.282   4.312 -0.1444  0.0819  0.3519
 9238SOL    HW131630   3.775   9.189   4.333 -1.9735  0.0510 -0.5779
 9238SOL    HW231631   3.768   9.288   4.218  0.4266  1.3172  0.3023
 9239SOL     OW31632   3.869   9.465   8.775  0.4205 -0.2986 -0.4520
 9239SOL    HW131633   3.803   9.436   8.712 -0.9707 -0.3344  0.9712
 9239SOL    HW231634   3.883   9.390   8.832  0.8196  0.0907 -0.0263
 9240SOL     OW31635   2.705   7.431   3.723  0.5951  0.6391  0.0423
 9240SOL    HW131636   2.673   7.365   3.661 -1.1217  1.8473 -0.4053
 9240SOL    HW231637   2.774   7.476   3.674 -0.5935  1.4366 -0.9607
 9241SOL     OW31638   7.361   9.872   8.424 -0.1967 -0.2186  0.2203
 9241SOL    HW131639   7.317   9.788   8.431  1.1754 -1.0007 -0.1299
 9241SOL    HW231640   7.448   9.856   8.461 -0.3165  1.3823  1.3258
 9242SOL     OW31641   4.075   7.871   9.084 -0.1878  0.1167  0.1629
 9242SOL    HW131642   4.076   7.825   9.000 -1.5855  0.0974  0.1345
 9242SOL    HW231643   4.150   7.836   9.131  0.3294 -0.2322 -0.8931
 9243SOL     OW31644   4.985   4.028   7.677 -0.0035 -0.1095  0.3999
 9243SOL    HW131645   4.932   4.095   7.721 -1.7918 -1.0185 -0.3000
 9243SOL    HW231646   5.000   4.064   7.589 -1.0119 -0.6163  0.0050
 9244SOL     OW31647   0.165   3.666   4.739  0.6769 -0.8750 -0.7815
 9244SOL    HW131648   0.219   3.713   4.676  1.5013  0.2118  0.6920
 9244SOL    HW231649   0.209   3.582   4.751  0.9068 -0.8028 -1.1270
 9245SOL     OW31650   0.856   6.111   4.677  0.3912 -0.6804  0.9758
 9245SOL    HW131651   0.920   6.119   4.748  0.5304 -1.3406  0.9351
 9245SOL    HW231652   0.908   6.119   4.597  0.5100 -1.7107  0.9368
 9246SOL     OW31653   3.844   6.007   4.651 -0.6898  0.7899  0.1769
 9246SOL    HW131654   3.906   6.079   4.665 -0.5023  0.9888 -1.4486
 9246SOL    HW231655   3.761   6.051   4.634 -0.9510  0.5624  0.8470
 9247SOL     OW31656   8.931   8.309   9.032  0.0376 -0.6812  0.5392
 9247SOL    HW131657   8.935   8.402   9.009 -0.0607 -0.6905  0.4807
 9247SOL    HW231658   8.853   8.277   8.987 -0.6742 -0.5045  1.6168
 9248SOL     OW31659   4.608   2.319  10.060  0.0032  0.2632  0.1929
 9248SOL    HW131660   4.635   2.270  10.138  2.5611  0.8817 -0.2075
 9248SOL    HW231661   4.689   2.357  10.027 -1.0850  0.4439 -2.5056
 9249SOL     OW31662   8.681   5.680   4.782  0.9805 -0.0378  0.1240
 9249SOL    HW131663   8.723   5.615   4.726  2.6508  1.1692 -0.1152
 9249SOL    HW231664   8.602   5.705   4.736  2.5548  1.2896 -2.0182
 9250SOL     OW31665   9.525  10.199   1.006  0.2847 -0.1006 -0.3516
 9250SOL    HW131666   9.603  10.242   1.042 -0.4773 -0.9896  2.6373
 9250SOL    HW231667   9.452  10.250   1.039 -0.4913 -0.9166 -0.7640
 9251SOL     OW31668   8.869   6.244   8.956 -0.5748  0.3430  0.3054
 9251SOL    HW131669   8.942   6.287   9.001 -1.3296  1.3032  0.6260
 9251SOL    HW231670   8.844   6.173   9.014  1.5412 -1.4830 -0.8238
 9252SOL     OW31671   0.239   0.580   7.235 -0.1538  0.0115 -0.8930
 9252SOL    HW131672   0.174   0.512   7.247 -0.5473  0.3336 -1.1859
 9252SOL    HW231673   0.191   0.654   7.198  0.1420  0.6607 -0.0349
 9253SOL     OW31674  10.162   0.476   7.878  0.3956 -0.3562  0.7217
 9253SOL    HW131675  10.121   0.392   7.898 -1.3585 -0.0973 -1.4261
 9253SOL    HW231676  10.097   0.541   7.906 -0.0863  0.1029 -1.2663
 9254SOL     OW31677   7.372   1.814   0.646 -0.0134  0.0233  0.5198
 9254SOL    HW131678   7.381   1.749   0.715 -0.2966 -1.2101 -0.5586
 9254SOL    HW231679   7.348   1.895   0.691 -1.2596 -0.9971  1.7501
 9255SOL     OW31680   7.711   3.091   5.350  0.0343  0.5197 -0.6074
 9255SOL    HW131681   7.776   3.161   5.356  0.1926  0.2456  1.5746
 9255SOL    HW231682   7.762   3.012   5.333  0.0775  0.6102 -0.8950
 9256SOL     OW31683   8.675   8.182   0.946 -0.4311  0.2552 -0.2178
 9256SOL    HW131684   8.591   8.218   0.919 -0.3477  0.0304 -0.7745
 9256SOL    HW231685   8.691   8.109   0.887  0.3060  0.4923 -0.3231
 9257SOL     OW31686   2.448   4.727   4.954  0.0950  0.2817  0.6997
 9257SOL    HW131687   2.369   4.708   4.902  0.6413  0.2605 -0.1460
 9257SOL    HW231688   2.519   4.686   4.904  0.5141 -0.5930  1.9828
 9258SOL     OW31689   1.857   6.814   4.855  0.1374  0.4980  0.8009
 9258SOL    HW131690   1.919   6.877   4.892  0.6456  0.4663  0.0309
 9258SOL    HW231691   1.784   6.813   4.917  1.3330 -0.1972  2.2679
 9259SOL     OW31692   8.744   6.223   2.940 -0.3066  0.1904 -0.1816
 9259SOL    HW131693   8.831   6.263   2.944 -0.8781  1.6021 -0.9199
 9259SOL    HW231694   8.757   6.133   2.970  1.0533  0.9281  1.6494
 9260SOL     OW31695   3.906   0.115   9.644  0.5944 -0.3114 -0.6912
 9260SOL    HW131696   3.817   0.150   9.648  0.3343 -1.0507  1.2864
 9260SOL    HW231697   3.942   0.132   9.731  1.4582 -2.2971 -0.6061
 9261SOL     OW31698   7.582   7.608   8.148 -0.0699  0.0359 -0.0387
 9261SOL    HW131699   7.562   7.680   8.208  0.0847 -0.2281  0.3348
 9261SOL    HW231700   7.531   7.628   8.069 -0.4824  0.2521  0.2736
 9262SOL     OW31701   7.057   6.719   3.881  0.1468 -0.1419  0.2200
 9262SOL    HW131702   7.144   6.681   3.896 -0.4586 -0.8017  2.4416
 9262SOL    HW231703   7.075   6.801   3.835  1.8473 -0.8398 -0.4487
 9263SOL     OW31704   7.617   0.546   0.694  0.4364  0.0594  0.0503
 9263SOL    HW131705   7.675   0.479   0.731  1.4933  0.7247 -0.3371
 9263SOL    HW231706   7.630   0.539   0.600  0.0889  0.4103 -0.0248
 9264SOL     OW31707   1.023   3.948   6.830 -0.1136  0.3412 -0.0797
 9264SOL    HW131708   1.086   3.877   6.841 -0.0630  0.7332  2.9695
 9264SOL    HW231709   1.041   3.982   6.742  2.3314 -1.0426 -0.2101
 9265SOL     OW31710   7.657   8.476   1.578  0.0763 -0.0984 -0.4982
 9265SOL    HW131711   7.630   8.558   1.536  1.4173  0.0080 -1.2058
 9265SOL    HW231712   7.739   8.496   1.622  0.9579 -1.2680 -1.5151
 9266SOL     OW31713   7.378   5.652   8.267  0.2919 -0.4323  0.0449
 9266SOL    HW131714   7.324   5.731   8.269  0.9243  0.0356 -0.5317
 9266SOL    HW231715   7.335   5.591   8.327  0.1786  0.6046  1.0501
 9267SOL     OW31716   4.608   8.330   5.349  0.2074 -0.2316 -0.2248
 9267SOL    HW131717   4.603   8.283   5.265 -0.2662 -0.6434  0.0233
 9267SOL    HW231718   4.692   8.304   5.386  0.1370 -0.5551 -0.2856
 9268SOL     OW31719   0.666   6.723   1.511  0.8158 -0.0635  0.1384
 9268SOL    HW131720   0.697   6.632   1.515 -0.7405 -0.6488 -0.4621
 9268SOL    HW231721   0.736   6.770   1.466  0.9679 -1.2889 -0.9570
 9269SOL     OW31722   8.248   3.240   1.028 -0.4389  0.0807  0.0332
 9269SOL    HW131723   8.314   3.193   0.976  0.9851 -0.6244  2.3188
 9269SOL    HW231724   8.284   3.329   1.036 -0.8273  0.2856 -0.4247
 9270SOL     OW31725   3.866   6.654   9.667 -0.2830  0.6312 -0.1047
 9270SOL    HW131726   3.868   6.575   9.720  1.3189 -0.4332 -1.6238
 9270SOL    HW231727   3.823   6.720   9.722  0.7966 -0.5345  2.2673
 9271SOL     OW31728   3.835   2.332   4.786 -0.2095  0.0045 -0.2564
 9271SOL    HW131729   3.768   2.309   4.721 -1.3936  0.0801  0.9021
 9271SOL    HW231730   3.807   2.287   4.866 -0.7969  2.7687  1.2099
 9272SOL     OW31731   3.432   2.399   3.800  0.9894 -0.5231 -0.9236
 9272SOL    HW131732   3.508   2.456   3.810  0.1943  0.5163 -0.6607
 9272SOL    HW231733   3.420   2.392   3.705  1.2733 -0.5034 -0.9618
 9273SOL     OW31734   8.057   9.862   6.466  0.2666  0.4368 -0.7774
 9273SOL    HW131735   7.985   9.828   6.519  0.1571  0.4745 -0.9001
 9273SOL    HW231736   8.116   9.788   6.454 -0.2636  0.1223 -1.5433
 9274SOL     OW31737   1.112   0.544   1.140 -0.0160  0.6317  0.4825
 9274SOL    HW131738   1.045   0.476   1.131 -0.5855  1.1593  0.7785
 9274SOL    HW231739   1.193   0.494   1.155 -0.2673 -0.0178 -0.1994
 9275SOL     OW31740   8.629   2.611   3.737  0.1707  0.0341  0.0391
 9275SOL    HW131741   8.683   2.533   3.728 -0.7586 -0.7088  0.7126
 9275SOL    HW231742   8.540   2.578   3.747 -0.7828  1.2310 -3.0762
 9276SOL     OW31743   9.592   6.311   9.007  0.0369 -0.1935 -0.3768
 9276SOL    HW131744   9.665   6.250   9.005  1.0777  0.9898 -2.2178
 9276SOL    HW231745   9.587   6.346   8.917 -2.6959 -0.0928 -0.2824
 9277SOL     OW31746   7.409   8.015   0.987 -0.6002  0.2075 -0.1673
 9277SOL    HW131747   7.490   8.032   1.035 -2.1798  2.1004  2.0437
 9277SOL    HW231748   7.367   7.944   1.035 -0.5852 -0.3081 -0.9012
 9278SOL     OW31749   9.831   0.430   5.542 -0.3326 -0.2716  0.8392
 9278SOL    HW131750   9.750   0.380   5.552 -0.9475  0.2610 -1.0782
 9278SOL    HW231751   9.900   0.364   5.541 -0.9199 -0.8951  0.5978
 9279SOL     OW31752   6.468   4.252   0.637 -0.1675  0.2450  0.0575
 9279SOL    HW131753   6.376   4.229   0.623 -0.3983  0.4643  1.1097
 9279SOL    HW231754   6.510   4.170   0.662  0.2046 -0.1094 -1.6620
 9280SOL     OW31755   6.992   0.551   7.056 -0.0648  0.1635 -0.1001
 9280SOL    HW131756   7.008   0.645   7.059 -1.2704  0.4853 -1.8862
 9280SOL    HW231757   6.931   0.535   7.128  1.4762  0.3970  1.3159
 9281SOL     OW31758   8.735   4.635   6.806  0.6568  0.3839  0.4395
 9281SOL    HW131759   8.768   4.724   6.799  0.5941  0.3760  0.0086
 9281SOL    HW231760   8.684   4.622   6.726  0.6449 -0.0311  0.5122
 9282SOL     OW31761   5.003   8.871   7.601 -0.0680 -0.6204 -0.5001
 9282SOL    HW131762   5.030   8.792   7.648 -0.9017 -2.0785 -2.3302
 9282SOL    HW231763   5.056   8.871   7.522 -1.0077 -0.0901 -1.1455
 9283SOL     OW31764   5.691   0.115   2.218  0.0742 -0.0927  0.2909
 9283SOL    HW131765   5.601   0.103   2.188  0.2226 -0.8137  0.1310
 9283SOL    HW231766   5.725   0.027   2.229  0.5222  0.1697  1.0904
 9284SOL     OW31767   4.452   7.575   0.897  0.4818  0.6121 -0.4066
 9284SOL    HW131768   4.528   7.621   0.933 -0.7069  3.7568 -1.5016
 9284SOL    HW231769   4.458   7.591   0.802 -0.2836 -1.2231 -0.8140
 9285SOL     OW31770   6.302   9.154   5.936 -0.1160 -0.0160  0.5001
 9285SOL    HW131771   6.254   9.180   6.015  0.9872  0.4095  1.0652
 9285SOL    HW231772   6.324   9.062   5.952  0.4109  0.1670  0.8645
 9286SOL     OW31773   1.914   4.635   0.392 -0.1490 -0.0808  0.3362
 9286SOL    HW131774   1.933   4.592   0.475  1.3465 -2.4231 -1.1036
 9286SOL    HW231775   1.914   4.728   0.413  3.5783 -0.3448  2.3853
 9287SOL     OW31776   1.962   3.249   1.183  0.3232 -0.0029  0.0850
 9287SOL    HW131777   1.982   3.195   1.260  1.2656 -1.0642 -0.8731
 9287SOL    HW231778   1.871   3.228   1.162 -0.3946  1.2969  1.6615
 9288SOL     OW31779   2.553   2.400   5.150 -0.3656 -0.0856  0.4238
 9288SOL    HW131780   2.629   2.387   5.206 -0.2355  0.3877  0.3619
 9288SOL    HW231781   2.526   2.312   5.125 -0.2530 -0.2854  1.0017
 9289SOL     OW31782   5.500   2.690   8.463  0.4685 -0.3089 -0.3839
 9289SOL    HW131783   5.568   2.670   8.400 -0.5869 -1.9677 -1.0456
 9289SOL    HW231784   5.491   2.610   8.515  0.4255  0.5918  1.0531
 9290SOL     OW31785   0.246   6.822   0.099 -0.1586  0.4717 -0.5421
 9290SOL    HW131786   0.306   6.769   0.047 -0.5667  0.5943 -1.1534
 9290SOL    HW231787   0.225   6.896   0.042 -0.4783  0.6991 -0.1323
 9291SOL     OW31788   6.358   3.054   7.474  0.4277 -0.5636  0.4201
 9291SOL    HW131789   6.384   3.142   7.445  0.0367 -0.3456  0.7188
 9291SOL    HW231790   6.308   3.019   7.401  0.2837 -0.4008  0.4400
 9292SOL     OW31791   3.628   4.010   2.550  0.1595 -0.1404  0.0488
 9292SOL    HW131792   3.615   4.015   2.645 -3.8512  0.8414 -0.3717
 9292SOL    HW231793   3.624   3.916   2.530  0.2616 -0.3050  0.7694
 9293SOL     OW31794   5.400   4.892   6.739 -0.4527 -0.5512  0.5365
 9293SOL    HW131795   5.375   4.905   6.647  1.0821 -0.5728  0.0796
 9293SOL    HW231796   5.486   4.850   6.734 -0.4446 -0.7609  1.9986
 9294SOL     OW31797   8.480   6.779   1.112 -0.2751  0.4814 -0.0673
 9294SOL    HW131798   8.432   6.696   1.113  1.2092 -0.4675 -1.5139
 9294SOL    HW231799   8.448   6.824   1.034 -0.6445  1.0223  0.3867
 9295SOL     OW31800   9.802   2.271   5.054  0.5502 -0.1067  0.4250
 9295SOL    HW131801   9.775   2.212   5.124 -1.0769  1.2857  1.0294
 9295SOL    HW231802   9.757   2.237   4.976  0.4280 -0.2443  0.5540
 9296SOL     OW31803   3.373   3.981   1.699  0.5460  0.1211 -0.5990
 9296SOL    HW131804   3.291   3.973   1.651  0.0764 -3.8359  0.5092
 9296SOL    HW231805   3.432   3.920   1.654  0.3241 -3.1396  3.0188
 9297SOL     OW31806   4.581   4.184   8.783 -0.5950  0.2462  0.7390
 9297SOL    HW131807   4.488   4.160   8.788 -0.8392  0.8222 -0.5180
 9297SOL    HW231808   4.604   4.170   8.691  0.3371  0.9375  0.8538
 9298SOL     OW31809   8.202   2.899   1.013 -0.4649  1.3480 -0.5417
 9298SOL    HW131810   8.177   2.844   0.939 -0.6219  1.8107 -0.8451
 9298SOL    HW231811   8.121   2.911   1.062 -0.1983  0.4085  0.1440
 9299SOL     OW31812   4.557   2.940  10.128 -0.3294  0.4452  0.5985
 9299SOL    HW131813   4.632   2.895  10.168  0.1916  0.5758 -0.2136
 9299SOL    HW231814   4.532   2.885  10.054  0.7267  1.7530 -0.8154
 9300SOL     OW31815   6.596   2.534   4.473  0.2926 -0.5038  0.2005
 9300SOL    HW131816   6.680   2.577   4.463  0.3559 -0.4681  0.8112
 9300SOL    HW231817   6.552   2.583   4.543 -0.1083 -0.7076  0.0947
 9301SOL     OW31818   2.849   1.954   0.945  0.3265 -0.3662  0.0261
 9301SOL    HW131819   2.824   1.870   0.985 -3.5565 -0.3716 -1.9752
 9301SOL    HW231820   2.925   1.932   0.891 -1.2065 -2.9392 -1.2685
 9302SOL     OW31821   6.168   8.819   2.656 -0.1052 -0.1074 -0.1013
 9302SOL    HW131822   6.125   8.825   2.571 -0.2855  2.1838  0.0751
 9302SOL    HW231823   6.128   8.889   2.708  0.2266 -1.2323  1.7768
 9303SOL     OW31824   2.068   1.415   5.809  0.1885  0.0432 -0.1007
 9303SOL    HW131825   1.976   1.434   5.825  0.0148 -0.0662 -0.9064
 9303SOL    HW231826   2.097   1.484   5.750  0.6017  0.0215  0.0722
 9304SOL     OW31827   2.011   7.014   0.630  0.1036 -0.3155  0.5118
 9304SOL    HW131828   2.027   7.040   0.720 -0.8786  2.3982  0.0202
 9304SOL    HW231829   2.040   7.089   0.578  0.9442 -1.9237 -1.4928
 9305SOL     OW31830   6.824   4.360   8.090  0.4063 -0.1643  0.2136
 9305SOL    HW131831   6.771   4.281   8.097  1.0016 -0.5876  0.0493
 9305SOL    HW231832   6.800   4.412   8.166 -0.4139 -0.2369  0.0195
 9306SOL     OW31833   1.871   9.955   2.766  0.8549  0.0383 -0.1195
 9306SOL    HW131834   1.813  10.001   2.705 -0.0173  0.6444  1.1248
 9306SOL    HW231835   1.812   9.902   2.820  1.5860 -0.3152  0.3439
 9307SOL     OW31836   1.498  10.124   3.379  0.1730 -0.7686  0.3872
 9307SOL    HW131837   1.424  10.063   3.375 -1.7610  1.4987 -0.4713
 9307SOL    HW231838   1.470  10.193   3.438  0.5953  1.3073 -1.6896
 9308SOL     OW31839   8.200   1.960   1.943 -0.2375  0.3609 -0.6455
 9308SOL    HW131840   8.219   1.883   1.890 -2.8337 -1.3190  0.6775
 9308SOL    HW231841   8.128   2.003   1.899  0.6724  1.6494 -0.9390
 9309SOL     OW31842   7.909   3.883   8.836  0.2933 -0.7745 -0.4633
 9309SOL    HW131843   7.878   3.953   8.779 -0.0984 -1.4926 -1.1544
 9309SOL    HW231844   7.983   3.921   8.883 -0.5965  0.4412 -0.0028
 9310SOL     OW31845   8.070   7.419   7.633  0.4581 -0.0552 -0.2583
 9310SOL    HW131846   8.165   7.422   7.641  0.4133  1.3437 -0.1382
 9310SOL    HW231847   8.043   7.510   7.620 -0.8243 -0.4852 -0.7772
 9311SOL     OW31848   7.887   6.654   6.960  0.3439  0.3744 -0.2224
 9311SOL    HW131849   7.863   6.746   6.958  1.7759  0.7659 -1.0076
 9311SOL    HW231850   7.960   6.650   7.022  0.7826 -0.0867 -0.7520
 9312SOL     OW31851   5.944   0.921   0.849  0.0884  0.1354 -0.3376
 9312SOL    HW131852   5.877   0.864   0.811  1.4100 -1.2996 -0.5799
 9312SOL    HW231853   6.009   0.862   0.885  0.7433  1.5021  0.8291
 9313SOL     OW31854   5.629   0.844   9.104  0.3899 -0.0978  1.1768
 9313SOL    HW131855   5.568   0.790   9.054 -1.3334  1.4309  1.5095
 9313SOL    HW231856   5.667   0.903   9.039 -0.5634  0.7463  1.3577
 9314SOL     OW31857   7.039   2.195   3.359  0.5990 -0.0940  0.8266
 9314SOL    HW131858   7.096   2.119   3.373  0.4994 -0.3605 -0.1059
 9314SOL    HW231859   7.100   2.269   3.353  0.8727 -0.3724 -0.1298
 9315SOL     OW31860   1.370   4.588   2.757  0.2573 -0.2036  0.0759
 9315SOL    HW131861   1.402   4.498   2.750  1.2763  0.1069  0.5379
 9315SOL    HW231862   1.431   4.639   2.704 -0.4730  0.1848 -0.3938
 9316SOL     OW31863   3.170   6.065   6.465  1.1194  0.1364 -0.1595
 9316SOL    HW131864   3.115   6.062   6.387  1.0839  0.7300 -0.1615
 9316SOL    HW231865   3.167   6.157   6.493 -0.4695 -0.4139  1.6975
 9317SOL     OW31866   0.475   0.990   3.208 -0.3209  0.0565 -0.5244
 9317SOL    HW131867   0.507   1.005   3.119 -0.6040 -1.3591 -0.8786
 9317SOL    HW231868   0.381   1.008   3.203 -0.3575 -0.1379 -0.5431
 9318SOL     OW31869   5.011   6.489   2.909  0.5090 -0.1523  0.8139
 9318SOL    HW131870   5.029   6.565   2.965 -0.0398  2.3562 -2.1207
 9318SOL    HW231871   5.096   6.463   2.875  0.5278  0.5089  0.3143
 9319SOL     OW31872   6.100   5.268   6.878 -0.0353  1.1658  0.0399
 9319SOL    HW131873   6.023   5.223   6.910 -0.8570  2.2424 -0.3406
 9319SOL    HW231874   6.135   5.211   6.810  0.8154 -0.3779  1.7068
 9320SOL     OW31875   4.879   9.542   4.761 -0.3882  0.2505 -0.3708
 9320SOL    HW131876   4.948   9.500   4.812  0.9437  1.0070 -1.4684
 9320SOL    HW231877   4.804   9.484   4.770  0.4017 -0.6336  0.8230
 9321SOL     OW31878   7.204   7.041   3.070  0.6563  0.9027  0.4062
 9321SOL    HW131879   7.200   7.133   3.042 -0.8474  0.9753  0.7892
 9321SOL    HW231880   7.182   7.043   3.163 -0.1751  0.0852  0.2390
 9322SOL     OW31881   9.921   5.729   5.423  0.2747  0.1969 -0.0916
 9322SOL    HW131882   9.933   5.637   5.397 -0.0298  0.8362 -2.7980
 9322SOL    HW231883   9.884   5.724   5.511  1.1787 -2.2342  0.2319
 9323SOL     OW31884   6.343   5.126   8.746 -0.6310 -0.1071 -0.3757
 9323SOL    HW131885   6.430   5.103   8.779 -0.8397  0.1677  0.4050
 9323SOL    HW231886   6.351   5.217   8.717 -1.0548  0.4839  1.2557
 9324SOL     OW31887   7.801   1.621   5.980 -0.2583  0.4278  0.0659
 9324SOL    HW131888   7.870   1.680   6.010  0.7424 -0.9786  0.6614
 9324SOL    HW231889   7.810   1.620   5.885 -1.0841  2.1340 -0.0614
 9325SOL     OW31890   4.026   6.202   5.169  0.1111  0.2814  0.0338
 9325SOL    HW131891   4.036   6.208   5.074  0.2706  0.0720  0.0366
 9325SOL    HW231892   3.931   6.193   5.182 -0.1501  2.5251  0.0212
 9326SOL     OW31893   5.741   5.878   0.843 -0.4183 -0.1761  0.5406
 9326SOL    HW131894   5.756   5.940   0.772  0.6639  1.0894  1.8146
 9326SOL    HW231895   5.709   5.799   0.799 -0.8697  0.9236 -1.2284
 9327SOL     OW31896   6.745   9.838   5.106  0.0019  0.6939 -0.3014
 9327SOL    HW131897   6.764   9.897   5.178  2.1439  0.4771 -0.6352
 9327SOL    HW231898   6.710   9.759   5.149  1.1450  0.6076  0.5209
 9328SOL     OW31899   0.548   0.141   3.150 -0.0411 -0.4389 -0.1920
 9328SOL    HW131900   0.457   0.121   3.130  0.2661  0.1738 -2.5937
 9328SOL    HW231901   0.555   0.235   3.137  1.1684 -0.6492 -1.3425
 9329SOL     OW31902   1.234   9.633  10.182 -0.7979 -0.1174  0.0189
 9329SOL    HW131903   1.268   9.568  10.121 -1.4054 -0.5825  0.1687
 9329SOL    HW231904   1.253   9.717  10.140 -0.0769 -0.3859 -0.2112
 9330SOL     OW31905   7.004   7.862   8.987 -0.1980  0.3084  0.3684
 9330SOL    HW131906   7.010   7.861   9.083 -1.8400 -0.7619  0.5046
 9330SOL    HW231907   6.922   7.816   8.968 -0.0588  0.7755 -1.5510
 9331SOL     OW31908   8.217   2.216   8.934 -0.1588  0.2919 -0.3723
 9331SOL    HW131909   8.144   2.173   8.978 -0.6629  0.6450 -0.8523
 9331SOL    HW231910   8.179   2.254   8.855  0.4199  0.9970 -0.3284
 9332SOL     OW31911  10.127   2.437   5.777  0.0796 -0.1234 -0.4117
 9332SOL    HW131912  10.195   2.474   5.721  0.0880  0.9024  0.2678
 9332SOL    HW231913  10.175   2.391   5.846  0.0830  0.5856  0.0580
 9333SOL     OW31914   7.676   5.332   3.169  0.2881  0.3301  0.2553
 9333SOL    HW131915   7.664   5.407   3.228 -0.0318 -0.6610  1.4995
 9333SOL    HW231916   7.676   5.256   3.227  3.1536 -0.4927 -0.6902
 9334SOL     OW31917   8.721  10.088   6.318  0.0430 -0.4620 -0.2922
 9334SOL    HW131918   8.814  10.067   6.308  0.5684  0.7347  1.5656
 9334SOL    HW231919   8.709  10.098   6.413 -2.4619 -2.5582 -0.2975
 9335SOL     OW31920   4.162   3.177   4.210 -0.1425  0.2964 -0.0368
 9335SOL    HW131921   4.222   3.120   4.258 -0.6656 -0.0527  0.2071
 9335SOL    HW231922   4.109   3.219   4.278 -1.1836 -0.5216 -0.3105
 9336SOL     OW31923   8.464   9.058   5.000 -0.6143  0.2937 -0.2425
 9336SOL    HW131924   8.439   9.037   4.910 -1.8437 -1.5135  0.4475
 9336SOL    HW231925   8.522   8.986   5.025 -0.8294  0.4117  0.6144
 9337SOL     OW31926   9.647   4.672   5.380  0.1149 -0.1857  0.1935
 9337SOL    HW131927   9.658   4.757   5.339  2.1908 -0.4060  0.2101
 9337SOL    HW231928   9.573   4.632   5.335  0.6826  0.6363 -1.5225
 9338SOL     OW31929   8.430   5.910   3.519  0.2739  0.2104 -0.0971
 9338SOL    HW131930   8.521   5.924   3.492 -0.0628  1.0570 -0.8234
 9338SOL    HW231931   8.391   5.858   3.449 -0.0981  0.8102 -0.3456
 9339SOL     OW31932   2.012   3.606   2.510 -0.1390 -0.0779 -0.2445
 9339SOL    HW131933   1.954   3.537   2.476  0.9800 -0.5038 -1.3694
 9339SOL    HW231934   1.960   3.649   2.578 -1.5413 -0.8421 -0.7798
 9340SOL     OW31935   6.065   0.142   7.752  0.3439  0.2849  0.4308
 9340SOL    HW131936   6.067   0.237   7.759  0.2170  0.3630 -0.5158
 9340SOL    HW231937   5.972   0.120   7.752  0.2279  0.4262 -2.3056
 9341SOL     OW31938   3.238   3.391   4.046 -0.1304 -0.0148 -0.0415
 9341SOL    HW131939   3.314   3.345   4.080 -0.3760 -0.1794  0.2774
 9341SOL    HW231940   3.247   3.480   4.080 -0.3550 -0.1682  0.4262
 9342SOL     OW31941   2.437   8.842   8.219  0.2216  0.4801  0.1678
 9342SOL    HW131942   2.465   8.878   8.303 -0.9449  0.9173  0.3775
 9342SOL    HW231943   2.447   8.915   8.158 -1.2973  0.9249  0.4213
 9343SOL     OW31944   1.609   7.781   8.561 -0.4933  0.6356 -0.3495
 9343SOL    HW131945   1.662   7.776   8.641 -0.1515  0.6010 -0.5757
 9343SOL    HW231946   1.636   7.863   8.520 -2.3598  1.8630  0.7511
 9344SOL     OW31947   1.214   9.804   0.675 -0.3317 -0.4822  0.0348
 9344SOL    HW131948   1.139   9.847   0.635  0.2624  0.4565 -0.1150
 9344SOL    HW231949   1.190   9.793   0.767 -0.5570  0.0153  0.0352
 9345SOL     OW31950   2.866   2.169   1.104 -0.3934 -0.3137  0.1492
 9345SOL    HW131951   2.866   2.079   1.071 -0.0698  0.1064 -1.0612
 9345SOL    HW231952   2.898   2.221   1.030 -2.3921  1.0361  0.1572
 9346SOL     OW31953   7.255   0.011   9.472  0.0833  0.6085  0.6898
 9346SOL    HW131954   7.246  -0.084   9.484  0.1690  0.4463 -0.4200
 9346SOL    HW231955   7.268   0.045   9.560 -2.2500 -0.1580  1.4270
 9347SOL     OW31956   3.642   0.416   6.267  0.5563 -0.7210 -1.1687
 9347SOL    HW131957   3.581   0.347   6.244  0.9165 -0.9534 -1.4331
 9347SOL    HW231958   3.679   0.444   6.184  0.5488 -0.3367 -1.0454
 9348SOL     OW31959   0.898   1.001   3.501 -0.3798  0.6659  0.2917
 9348SOL    HW131960   0.881   1.093   3.523  2.2288  1.3683 -0.3172
 9348SOL    HW231961   0.818   0.972   3.458 -2.0802  1.9838  2.3143
 9349SOL     OW31962   4.860   6.100   1.547 -0.4992  0.0250 -0.1101
 9349SOL    HW131963   4.921   6.096   1.474 -0.6874  0.2924 -0.2818
 9349SOL    HW231964   4.869   6.189   1.581  0.1249 -0.3121  0.6561
 9350SOL     OW31965   4.252   3.394   0.408  0.0518  0.1144 -0.3863
 9350SOL    HW131966   4.266   3.447   0.486  0.4892  0.7840 -0.9104
 9350SOL    HW231967   4.158   3.377   0.406  0.2578 -1.4544  1.2701
 9351SOL     OW31968   5.941   8.449   2.756  0.2885  0.7886  0.3747
 9351SOL    HW131969   6.010   8.391   2.786  1.9594  1.6580 -1.5275
 9351SOL    HW231970   5.978   8.537   2.764 -0.5614  1.2780 -0.7022
 9352SOL     OW31971   2.599   6.790   4.295  0.5427 -0.1380  0.9754
 9352SOL    HW131972   2.632   6.702   4.311  1.0142  0.0484  1.0416
 9352SOL    HW231973   2.554   6.814   4.376  2.3607  0.5475  1.8324
 9353SOL     OW31974   1.659   0.634   2.464 -0.3189  0.5523  0.1955
 9353SOL    HW131975   1.742   0.673   2.494  0.5098 -0.0814 -1.1804
 9353SOL    HW231976   1.669   0.541   2.483 -0.6258  0.4384 -0.2001
 9354SOL     OW31977   8.207   0.237   8.889  0.0243  0.3645  0.0577
 9354SOL    HW131978   8.190   0.153   8.931  1.1231  0.0313 -0.1498
 9354SOL    HW231979   8.297   0.259   8.914 -0.0037  1.1321 -0.4773
 9355SOL     OW31980   1.665   2.247   6.766  0.1706 -0.9059 -0.2094
 9355SOL    HW131981   1.741   2.220   6.715  1.0226 -0.8127  0.9627
 9355SOL    HW231982   1.644   2.334   6.732 -1.6089 -2.2804 -2.9068
 9356SOL     OW31983   5.105   2.203   1.488  0.0023 -0.3562  0.4116
 9356SOL    HW131984   5.139   2.170   1.571 -1.2394  0.4052  1.2561
 9356SOL    HW231985   5.167   2.271   1.462 -0.2947  0.3159  1.4073
 9357SOL     OW31986   3.503   6.373   8.793 -0.5605  0.6392 -0.3229
 9357SOL    HW131987   3.487   6.466   8.807 -0.2150  0.4916  1.3522
 9357SOL    HW231988   3.587   6.370   8.747  0.4949  1.1460  1.4654
 9358SOL     OW31989   0.034   1.174   2.769 -0.3438  0.4173  0.5254
 9358SOL    HW131990   0.075   1.238   2.828 -0.4040  0.7030  0.2622
 9358SOL    HW231991  -0.019   1.119   2.826 -0.6368  0.8754  0.7059
 9359SOL     OW31992   8.766   7.705   3.945  0.1134  0.5311  0.4984
 9359SOL    HW131993   8.857   7.676   3.933 -0.6575 -2.1520  0.2713
 9359SOL    HW231994   8.738   7.664   4.027 -1.7031 -1.2508 -0.8981
 9360SOL     OW31995   9.286   0.775   1.435  0.0228  0.0829  0.5909
 9360SOL    HW131996   9.346   0.716   1.480 -1.2882 -0.3063  1.9106
 9360SOL    HW231997   9.314   0.863   1.461 -0.1110 -0.1079  1.4014
 9361SOL     OW31998   3.879   0.378   3.688  0.6619 -0.0622 -0.4130
 9361SOL    HW131999   3.959   0.328   3.673  0.7409 -0.2473  0.5637
 9361SOL    HW232000   3.892   0.419   3.773 -0.9347 -1.4203  0.5402
 9362SOL     OW32001   5.691   0.441   9.015 -0.1446 -0.3336  0.7794
 9362SOL    HW132002   5.639   0.472   8.941 -0.0216  0.4079  0.9922
 9362SOL    HW232003   5.769   0.402   8.974  0.1876  0.5711  0.5237
 9363SOL     OW32004  10.087   9.837   5.292 -0.3523  0.1959 -0.0088
 9363SOL    HW132005  10.161   9.833   5.352 -1.1141 -0.6430  0.9035
 9363SOL    HW232006  10.011   9.813   5.345 -1.2560  0.8211 -0.9764
 9364SOL     OW32007   6.637   8.739   4.987  0.3195  0.3237  0.0261
 9364SOL    HW132008   6.560   8.683   4.983 -0.4497  1.2222  1.3097
 9364SOL    HW232009   6.608   8.821   4.947  0.3737  0.8865  1.1055
 9365SOL     OW32010   0.985   9.817   3.976 -0.8047  0.5359 -0.2853
 9365SOL    HW132011   1.020   9.904   3.957  0.1337 -0.0259 -1.1898
 9365SOL    HW232012   0.948   9.787   3.893 -2.2885  0.5658  0.3236
 9366SOL     OW32013   6.177  10.020   4.879  0.4005  0.1351  0.4730
 9366SOL    HW132014   6.255  10.011   4.824 -0.0621  0.9374 -0.3349
 9366SOL    HW232015   6.203   9.983   4.963  0.8826 -1.8530 -0.4881
 9367SOL     OW32016   6.636  10.056   4.319 -0.0622  0.2272  0.4431
 9367SOL    HW132017   6.706   9.993   4.337 -0.5403  0.1692  2.3247
 9367SOL    HW232018   6.555  10.008   4.336 -0.4622  1.0523  0.9272
 9368SOL     OW32019   5.888   1.229   0.905  0.2350  0.2782 -0.2038
 9368SOL    HW132020   5.822   1.187   0.850  1.0434  1.3546 -2.1251
 9368SOL    HW232021   5.906   1.312   0.861 -1.0215  2.5417  3.2080
 9369SOL     OW32022   1.221   8.785   4.517  0.6394 -0.6048 -0.2843
 9369SOL    HW132023   1.192   8.699   4.485 -1.7828 -0.0558  0.2325
 9369SOL    HW232024   1.240   8.771   4.610 -1.0295 -0.3707  0.1289
 9370SOL     OW32025   7.099   2.466   7.746  0.0808  0.3906  0.3824
 9370SOL    HW132026   7.011   2.493   7.718 -0.5912 -2.4162 -0.5226
 9370SOL    HW232027   7.143   2.438   7.666  0.6800 -1.1126  1.1792
 9371SOL     OW32028   6.360  10.052   8.209  0.2787  0.2244 -0.4621
 9371SOL    HW132029   6.401  10.135   8.234  1.4013  0.6036 -3.1883
 9371SOL    HW232030   6.267  10.072   8.201  0.4350  1.0179 -0.3718
 9372SOL     OW32031   4.657   8.057   4.560  0.1873 -0.0713  0.5265
 9372SOL    HW132032   4.696   8.142   4.538  0.3777 -0.6814 -1.8101
 9372SOL    HW232033   4.729   7.994   4.551 -0.5124 -0.7798 -0.4430
 9373SOL     OW32034   7.753   3.703   3.651 -0.2096  0.4313 -0.7328
 9373SOL    HW132035   7.686   3.693   3.719  0.9954  0.9318  0.5646
 9373SOL    HW232036   7.747   3.795   3.625 -0.1031  0.4457 -0.7041
 9374SOL     OW32037   2.250   1.820   9.427 -0.9229 -0.0375 -0.2158
 9374SOL    HW132038   2.312   1.778   9.367 -0.8609 -0.7506  0.3304
 9374SOL    HW232039   2.293   1.814   9.513 -0.9923  1.0048 -0.1031
 9375SOL     OW32040   1.143   5.858   4.491 -0.1692 -0.1711 -0.0329
 9375SOL    HW132041   1.189   5.808   4.559 -0.1271 -1.4398 -0.9520
 9375SOL    HW232042   1.177   5.823   4.409 -0.1033  1.4371 -0.7341
 9376SOL     OW32043   3.115   7.186   4.480 -0.4506  0.0479 -0.3707
 9376SOL    HW132044   3.137   7.238   4.403  3.3175  0.9749  1.0981
 9376SOL    HW232045   3.093   7.250   4.547  2.0910 -0.1980  0.8396
 9377SOL     OW32046   5.612   2.535   6.687  0.4162  0.1222  0.0401
 9377SOL    HW132047   5.580   2.616   6.724  0.4916  0.2067 -0.0791
 9377SOL    HW232048   5.594   2.469   6.754  0.6256  0.2851  0.2568
 9378SOL     OW32049   1.897   6.868   5.645 -0.1818  0.0142  0.2562
 9378SOL    HW132050   1.835   6.853   5.573 -0.4174  1.4981  0.1154
 9378SOL    HW232051   1.846   6.917   5.709  0.5452  0.2967  0.6224
 9379SOL     OW32052   0.114   9.019   0.153 -0.0416  0.4405  0.1801
 9379SOL    HW132053   0.027   8.981   0.165 -0.4129  1.4976  1.1284
 9379SOL    HW232054   0.164   8.990   0.230 -0.4648  2.1204  1.1507
 9380SOL     OW32055   4.659   8.157   8.432  0.4348  0.7565 -0.2840
 9380SOL    HW132056   4.702   8.201   8.359 -0.0272  2.3842  0.3611
 9380SOL    HW232057   4.566   8.176   8.420  0.2168 -0.1032 -0.0072
 9381SOL     OW32058   1.179   9.513   1.930 -0.1652 -0.1947  0.0733
 9381SOL    HW132059   1.175   9.453   1.856 -0.5622 -0.8110  0.5797
 9381SOL    HW232060   1.216   9.594   1.894  0.9273 -0.9236 -0.4979
 9382SOL     OW32061   8.365   3.376   5.193 -0.3203 -0.5136 -0.3485
 9382SOL    HW132062   8.424   3.301   5.202  0.2026 -0.5559 -3.3198
 9382SOL    HW232063   8.421   3.452   5.210 -0.6610 -0.6678  1.8187
 9383SOL     OW32064   4.914   0.635   6.476 -0.0067  0.5458  0.1397
 9383SOL    HW132065   4.970   0.648   6.400  0.1152  0.5386  0.2284
 9383SOL    HW232066   4.931   0.710   6.532 -1.2357  1.3488 -0.5340
 9384SOL     OW32067   2.632   9.799   2.274  0.4601 -0.3973 -0.2057
 9384SOL    HW132068   2.721   9.769   2.287  0.4855  0.6429  2.4235
 9384SOL    HW232069   2.581   9.753   2.341 -0.7048  0.1995 -0.6544
 9385SOL     OW32070   9.839   3.341   3.112 -0.2821  0.3627  0.6697
 9385SOL    HW132071   9.905   3.282   3.073  0.9163  1.2555  1.2872
 9385SOL    HW232072   9.811   3.396   3.039 -0.8456 -0.4398  0.2592
 9386SOL     OW32073   4.513   6.791   6.194 -1.0409  0.6878 -0.5137
 9386SOL    HW132074   4.421   6.767   6.207 -0.7370 -0.0649  0.3948
 9386SOL    HW232075   4.558   6.707   6.179 -0.4615  1.0165 -0.6639
 9387SOL     OW32076   7.862   5.772   3.480  0.0061 -0.5198 -0.6614
 9387SOL    HW132077   7.927   5.838   3.457 -0.5928  0.0156 -0.8554
 9387SOL    HW232078   7.782   5.801   3.435 -1.5367  1.1551  2.7484
 9388SOL     OW32079   4.853   4.627   1.063  0.0315 -0.6807 -0.7315
 9388SOL    HW132080   4.869   4.719   1.042 -1.6580 -0.0448  0.6359
 9388SOL    HW232081   4.761   4.622   1.088  0.0224 -2.7963 -0.9358
 9389SOL     OW32082   2.430   8.568   7.251 -0.3604  0.5985 -0.2149
 9389SOL    HW132083   2.493   8.640   7.253  1.7151 -1.1163  1.9970
 9389SOL    HW232084   2.391   8.573   7.164  3.0949  1.5968 -1.8974
 9390SOL     OW32085   7.031   1.521   2.896  0.3613 -0.6131 -0.9042
 9390SOL    HW132086   7.067   1.449   2.845  0.0062 -0.8407 -0.8311
 9390SOL    HW232087   7.063   1.506   2.985  1.8994  0.3811 -1.2405
 9391SOL     OW32088   9.153   1.909   4.958 -0.4068 -0.0565 -0.8210
 9391SOL    HW132089   9.178   1.991   5.000 -1.8062  0.8045 -1.5878
 9391SOL    HW232090   9.212   1.844   4.995 -0.7425  0.8733  1.5286
 9392SOL     OW32091   2.343   3.982   0.068 -0.3853 -0.7031 -0.7034
 9392SOL    HW132092   2.258   3.993   0.110 -0.0714  1.6208 -0.5606
 9392SOL    HW232093   2.330   4.013  -0.021  0.2928 -0.3805 -0.6934
 9393SOL     OW32094   7.824   3.266   9.654 -0.3744  0.1645  0.3896
 9393SOL    HW132095   7.892   3.333   9.652 -0.5998  0.4310  1.0752
 9393SOL    HW232096   7.835   3.217   9.573  0.4977  0.3345  0.3997
 9394SOL     OW32097   1.158   6.508   7.369  0.4668  0.1745 -0.4112
 9394SOL    HW132098   1.179   6.591   7.412  1.3611 -0.1412 -0.2310
 9394SOL    HW232099   1.241   6.461   7.366  0.1716 -0.2920 -1.4417
 9395SOL     OW32100   2.464   4.607   6.572  0.5508 -0.0466 -0.7915
 9395SOL    HW132101   2.503   4.675   6.627 -1.3112 -1.8118  3.1078
 9395SOL    HW232102   2.387   4.649   6.533  0.4309  0.5687  0.0839
 9396SOL     OW32103   0.201   4.194   2.437 -0.1298 -0.4870 -0.6750
 9396SOL    HW132104   0.144   4.213   2.362 -1.2721  0.6189  0.4484
 9396SOL    HW232105   0.162   4.116   2.477 -0.0595 -0.5228 -0.6762
 9397SOL     OW32106   5.184  10.114   3.681 -0.3517  0.6768  0.6736
 9397SOL    HW132107   5.269  10.146   3.651 -0.2471 -1.1409 -1.1839
 9397SOL    HW232108   5.205  10.060   3.757 -0.1617  2.1656  1.7203
 9398SOL     OW32109   3.193   1.818   6.554  0.4574  0.6834  0.4619
 9398SOL    HW132110   3.223   1.861   6.634  0.0877 -0.6954  1.3767
 9398SOL    HW232111   3.236   1.733   6.554  0.6046  0.7303 -0.9251
 9399SOL     OW32112   1.450   8.587   8.146  0.4852 -0.2528  1.0038
 9399SOL    HW132113   1.449   8.538   8.063 -0.7235 -1.1387  1.5032
 9399SOL    HW232114   1.432   8.677   8.121 -1.3259 -0.7309  0.3806
 9400SOL     OW32115   1.283   9.193   2.854 -0.0951  0.3348 -0.2218
 9400SOL    HW132116   1.262   9.264   2.915  0.2310  1.5302 -1.4605
 9400SOL    HW232117   1.204   9.183   2.802 -0.5229 -0.9741  0.6342
 9401SOL     OW32118   3.843   1.441   2.847  0.3194  0.1697  0.2879
 9401SOL    HW132119   3.924   1.429   2.896  0.7841  0.3556 -0.4119
 9401SOL    HW232120   3.779   1.384   2.891  0.8682 -0.0947  0.7516
 9402SOL     OW32121   4.974   6.514   5.635 -0.2766 -0.5920  0.1986
 9402SOL    HW132122   4.985   6.445   5.569 -1.2601 -1.4725  0.9134
 9402SOL    HW232123   5.060   6.553   5.643 -0.1844 -0.3061 -1.7683
 9403SOL     OW32124   0.037   8.041   1.959  0.3039 -0.0013  0.2585
 9403SOL    HW132125   0.087   7.970   1.998  0.2977  0.1789  0.5955
 9403SOL    HW232126  -0.028   8.064   2.025 -0.1291 -0.1279 -0.1114
 9404SOL     OW32127   1.587   0.891   2.385  0.2544 -0.5747 -0.1630
 9404SOL    HW132128   1.584   0.959   2.452 -0.3859 -0.3710 -0.3845
 9404SOL    HW232129   1.630   0.817   2.428  0.7941 -0.0922  0.1343
 9405SOL     OW32130   2.281   3.539   4.999 -0.9621 -0.1130 -0.3851
 9405SOL    HW132131   2.303   3.449   5.022 -1.6984  0.3924  2.7137
 9405SOL    HW232132   2.220   3.567   5.066  0.1753  3.0865 -0.5176
 9406SOL     OW32133   3.153   2.165   3.648  0.0021 -0.4906 -0.1486
 9406SOL    HW132134   3.134   2.254   3.616 -1.6683 -0.3628  1.0713
 9406SOL    HW232135   3.236   2.142   3.606 -0.3809  0.9690 -1.8500
 9407SOL     OW32136   8.044   9.092   7.598  0.5271 -0.5895 -0.1695
 9407SOL    HW132137   7.985   9.020   7.621 -0.5266  0.4862  0.6177
 9407SOL    HW232138   8.042   9.096   7.502 -0.9902 -0.3421 -0.1465
 9408SOL     OW32139   3.154   4.058   7.073 -0.5341 -0.3557 -0.2637
 9408SOL    HW132140   3.123   4.068   7.163 -0.3117 -0.2210 -0.1994
 9408SOL    HW232141   3.176   4.147   7.046  0.5076 -0.5343 -0.0476
 9409SOL     OW32142   8.501   7.004   3.598 -0.7855  0.0456 -0.0196
 9409SOL    HW132143   8.575   7.034   3.546 -1.3478  1.7975  0.1058
 9409SOL    HW232144   8.532   6.925   3.642  0.3682 -0.3054 -1.4033
 9410SOL     OW32145   8.697   3.818   3.121  0.2746 -0.1901  0.5116
 9410SOL    HW132146   8.615   3.801   3.169  0.2722  0.7625  0.8700
 9410SOL    HW232147   8.709   3.913   3.128  0.9982 -0.2227 -0.2194
 9411SOL     OW32148   6.318   6.844   4.257 -0.8468  0.1731  0.0842
 9411SOL    HW132149   6.330   6.793   4.336  0.9248  1.3697  0.6584
 9411SOL    HW232150   6.250   6.908   4.280 -0.8156  0.0918  0.4098
 9412SOL     OW32151   1.316   5.049   1.161  0.2833  0.7034 -0.0827
 9412SOL    HW132152   1.307   4.971   1.216  0.8717  0.3331 -0.4955
 9412SOL    HW232153   1.239   5.046   1.103 -0.6377  1.3957  1.0618
 9413SOL     OW32154   7.795   2.406   3.307 -0.0246 -0.3463  0.1230
 9413SOL    HW132155   7.885   2.402   3.275 -0.1146  0.3723 -0.2362
 9413SOL    HW232156   7.799   2.369   3.396  0.5426 -0.7092 -0.0507
 9414SOL     OW32157   3.223   8.053   0.770 -0.1472 -1.1537  0.5154
 9414SOL    HW132158   3.144   8.034   0.821 -0.2580 -3.7728 -0.4950
 9414SOL    HW232159   3.211   8.006   0.688  1.5429  0.1673 -0.5612
 9415SOL     OW32160   7.348   5.400   8.534  0.0573  0.0953 -0.5696
 9415SOL    HW132161   7.298   5.473   8.569  0.3756  0.5369 -1.0201
 9415SOL    HW232162   7.439   5.422   8.553  0.0813 -0.8241  0.4690
 9416SOL     OW32163   3.426   8.473   0.244 -0.9017 -0.3251  0.0994
 9416SOL    HW132164   3.436   8.568   0.233  1.6424 -0.6744 -1.5007
 9416SOL    HW232165   3.460   8.436   0.163  0.0666 -2.6902  1.4822
 9417SOL     OW32166   9.712   0.052   8.725 -0.5525  0.0816  0.4385
 9417SOL    HW132167   9.661  -0.004   8.784  0.0821 -2.1918 -1.0701
 9417SOL    HW232168   9.790   0.000   8.704 -1.3723  0.1690 -3.4556
 9418SOL     OW32169   8.778   0.683   8.752  1.0649 -0.4424 -0.6979
 9418SOL    HW132170   8.847   0.716   8.810 -0.5444 -1.5066  2.0049
 9418SOL    HW232171   8.729   0.760   8.726 -0.0618 -0.1557  2.0071
 9419SOL     OW32172   4.303   0.908   6.498  0.1490 -0.1094 -0.3989
 9419SOL    HW132173   4.260   0.872   6.576  0.1530  1.7611  0.5091
 9419SOL    HW232174   4.307   0.834   6.437  1.2946 -1.9990  1.8108
 9420SOL     OW32175   9.820   8.466   9.186 -0.0255 -0.8732  0.6036
 9420SOL    HW132176   9.804   8.536   9.123  2.0627 -1.8056 -1.0612
 9420SOL    HW232177   9.819   8.386   9.134 -2.9397 -2.2977  2.5297
 9421SOL     OW32178   2.690   3.103   7.695  0.5963 -0.4311 -0.2256
 9421SOL    HW132179   2.770   3.108   7.643  0.2504  1.3646 -0.6269
 9421SOL    HW232180   2.630   3.051   7.642  0.3133  1.2140 -1.5783
 9422SOL     OW32181   5.213   6.191   7.910 -0.6859  0.5072 -0.0618
 9422SOL    HW132182   5.119   6.203   7.898 -1.3618 -0.5831  3.2403
 9422SOL    HW232183   5.231   6.224   7.998  1.8226 -0.2259 -0.2210
 9423SOL     OW32184   3.098   0.316   0.861  0.0631  0.3399 -0.4801
 9423SOL    HW132185   3.061   0.404   0.850 -0.6255  0.3148  1.2927
 9423SOL    HW232186   3.023   0.261   0.882  0.8542 -0.0169  1.6589
 9424SOL     OW32187   0.790   7.355   9.169 -0.6451  0.0089 -0.1208
 9424SOL    HW132188   0.811   7.437   9.214 -1.3731 -0.2774  0.7693
 9424SOL    HW232189   0.831   7.287   9.221 -0.7804 -0.2646 -0.3657
 9425SOL     OW32190   5.752   7.026   3.743  0.5436  0.1751  0.3425
 9425SOL    HW132191   5.830   7.080   3.757  1.6808 -0.8596 -1.5867
 9425SOL    HW232192   5.780   6.957   3.683 -1.6331 -0.7950  0.3188
 9426SOL     OW32193   2.860   9.796   3.698  0.3480 -0.5464 -0.2005
 9426SOL    HW132194   2.914   9.874   3.713  1.1761 -1.1182 -0.1236
 9426SOL    HW232195   2.772   9.831   3.680  0.5355  0.3718  0.5626
 9427SOL     OW32196   5.407   7.185   7.873 -0.2172  0.1487  0.0926
 9427SOL    HW132197   5.388   7.185   7.967  0.9361  0.9134  0.3512
 9427SOL    HW232198   5.502   7.174   7.868 -0.4339 -1.7178 -1.0677
 9428SOL     OW32199   9.591   6.476   8.793 -0.1300 -0.0298  0.2469
 9428SOL    HW132200   9.558   6.419   8.723  0.6552 -0.0808 -0.0834
 9428SOL    HW232201   9.558   6.563   8.770 -0.1285 -0.0994 -0.0231
 9429SOL     OW32202   4.580   6.624   5.323  0.7165 -0.8147  0.0956
 9429SOL    HW132203   4.623   6.575   5.393  0.4542 -1.1090  0.0531
 9429SOL    HW232204   4.527   6.558   5.277 -2.5898  0.0712  2.2316
 9430SOL     OW32205   5.351   7.095   6.349 -0.1247 -0.2921  0.0697
 9430SOL    HW132206   5.270   7.106   6.399 -0.0785  2.0527 -0.2674
 9430SOL    HW232207   5.420   7.104   6.414 -0.0098 -3.8806  0.6581
 9431SOL     OW32208   7.884   3.490   1.447 -0.5743  0.5354  0.0520
 9431SOL    HW132209   7.863   3.458   1.359  1.0572  0.4275 -0.3161
 9431SOL    HW232210   7.976   3.470   1.459 -0.9413 -0.1574  2.1124
 9432SOL     OW32211   4.809   2.059   2.899 -0.3858 -0.3174  0.4770
 9432SOL    HW132212   4.721   2.078   2.868 -0.3695 -1.4104 -0.3014
 9432SOL    HW232213   4.830   1.974   2.860  1.4459  0.4337 -0.2945
 9433SOL     OW32214   0.706   0.510   6.412  0.7405 -0.8986 -0.3589
 9433SOL    HW132215   0.624   0.468   6.436  0.6514  0.3671  1.7524
 9433SOL    HW232216   0.765   0.493   6.485  0.4443  3.1747  1.0842
 9434SOL     OW32217   6.740   2.260  10.104 -0.2664 -0.8133  0.6967
 9434SOL    HW132218   6.751   2.225  10.015  1.7405 -0.8705  0.9070
 9434SOL    HW232219   6.779   2.347  10.099 -0.4308 -0.7004  1.4380
 9435SOL     OW32220   4.934   4.142   3.787 -0.7466 -0.2149 -0.1450
 9435SOL    HW132221   4.997   4.070   3.777 -3.1477 -2.1176 -3.4800
 9435SOL    HW232222   4.902   4.133   3.876  1.6545 -0.9037  0.7318
 9436SOL     OW32223   4.358   9.035   6.577  0.1129  0.7305  0.0735
 9436SOL    HW132224   4.276   9.070   6.543 -0.1545 -0.2654 -0.3479
 9436SOL    HW232225   4.389   8.977   6.508  0.5810  0.2045  0.7151
 9437SOL     OW32226  10.200   7.532   0.391 -0.2099  0.0446 -0.3697
 9437SOL    HW132227  10.288   7.570   0.390  0.4818 -1.4712  0.2672
 9437SOL    HW232228  10.152   7.583   0.326  1.4574  0.1297 -1.6058
 9438SOL     OW32229   1.115   2.929   5.218 -0.2129  0.1153 -0.8477
 9438SOL    HW132230   1.156   2.993   5.160  0.7699 -1.4347 -1.9162
 9438SOL    HW232231   1.128   2.845   5.175 -2.7574 -0.6819 -0.2072
 9439SOL     OW32232   2.994   8.702   8.800 -0.3106 -0.5311 -0.4890
 9439SOL    HW132233   2.937   8.698   8.723  0.4650 -1.2062 -1.0368
 9439SOL    HW232234   3.025   8.793   8.802 -0.6922 -0.3933 -0.7046
 9440SOL     OW32235   7.985   8.752   5.176  0.0625 -1.1554  0.7726
 9440SOL    HW132236   8.047   8.790   5.114  0.8064 -2.7835  0.4670
 9440SOL    HW232237   7.923   8.704   5.120 -1.2207  0.0300  1.1085
 9441SOL     OW32238   4.723   3.873   7.294 -0.0630 -0.2809  0.4628
 9441SOL    HW132239   4.653   3.935   7.313 -0.4189 -1.0971  1.9903
 9441SOL    HW232240   4.682   3.805   7.241  0.3694  0.8102 -1.3725
 9442SOL     OW32241   8.122   0.520   6.743 -0.4407  0.3733  0.0572
 9442SOL    HW132242   8.101   0.427   6.741  0.0682  0.2546 -0.0836
 9442SOL    HW232243   8.148   0.537   6.834  1.9162 -0.2157 -0.4212
 9443SOL     OW32244   2.649   2.949   6.586 -0.2427 -0.3015  0.2781
 9443SOL    HW132245   2.671   3.018   6.649  1.8092 -0.3598 -0.3177
 9443SOL    HW232246   2.599   2.885   6.637  0.4276  0.1818  1.5941
 9444SOL     OW32247   6.561   7.294   6.561 -0.3750 -0.4118  0.4653
 9444SOL    HW132248   6.618   7.371   6.556  0.1159 -0.8138 -0.3096
 9444SOL    HW232249   6.497   7.316   6.629  1.1675 -0.2617  1.9282
 9445SOL     OW32250   2.520   4.342   2.078 -0.3885 -0.6851  0.7089
 9445SOL    HW132251   2.489   4.293   2.154 -0.9321 -0.4285  0.6508
 9445SOL    HW232252   2.484   4.430   2.089 -1.8465 -1.0778 -0.6916
 9446SOL     OW32253   5.501   0.816   4.514  0.6915  0.2283 -0.3218
 9446SOL    HW132254   5.505   0.805   4.419 -0.7545 -3.0613 -0.1226
 9446SOL    HW232255   5.575   0.767   4.548 -0.0268 -0.4822  0.2814
 9447SOL     OW32256   6.738   6.010   2.271  0.2156  0.3252 -0.0828
 9447SOL    HW132257   6.741   5.985   2.179 -1.1908 -0.8229  0.1332
 9447SOL    HW232258   6.810   5.961   2.312 -0.0634 -0.3229 -0.3461
 9448SOL     OW32259   8.015   7.394   0.635 -0.5491  0.3519 -0.0330
 9448SOL    HW132260   7.931   7.438   0.628 -0.7226 -0.1410 -1.5967
 9448SOL    HW232261   7.996   7.302   0.618  0.3420  0.2913 -0.8180
 9449SOL     OW32262   9.999   7.851   7.026 -0.0222 -0.0061  0.4310
 9449SOL    HW132263  10.052   7.785   7.072 -1.2620 -2.0351 -0.8832
 9449SOL    HW232264   9.949   7.895   7.095  1.1646 -0.1096  1.3858
 9450SOL     OW32265   8.425   3.310   6.287 -0.2957  0.0260  1.0489
 9450SOL    HW132266   8.467   3.384   6.243  1.4658 -2.0860 -1.0671
 9450SOL    HW232267   8.340   3.345   6.316 -0.8067  2.1548 -2.4225
 9451SOL     OW32268   6.623   7.610   7.304 -0.5263  0.9100  0.3479
 9451SOL    HW132269   6.576   7.691   7.325 -0.7423  0.5692  1.2285
 9451SOL    HW232270   6.702   7.613   7.357 -1.0614  0.0466  1.2390
 9452SOL     OW32271   0.174   6.496   3.502 -0.7159  0.1690  0.2825
 9452SOL    HW132272   0.119   6.443   3.560  0.4329  0.7862  2.0039
 9452SOL    HW232273   0.135   6.484   3.415 -0.5235 -3.5356  0.5241
 9453SOL     OW32274   6.381   5.707  10.033  0.9284 -0.6006  0.1173
 9453SOL    HW132275   6.377   5.786   9.979  3.1304 -0.4526  0.0823
 9453SOL    HW232276   6.289   5.680  10.044  0.1662  1.6409 -0.3083
 9454SOL     OW32277   4.311  10.130   2.158 -0.3711 -0.3030 -0.3026
 9454SOL    HW132278   4.387  10.080   2.129 -0.4525 -0.0673 -0.9336
 9454SOL    HW232279   4.291  10.095   2.245  0.8431  0.0652  0.1477
 9455SOL     OW32280   2.343   8.939   7.051  0.7640  0.2295  0.0167
 9455SOL    HW132281   2.435   8.961   7.066  0.2196  0.9995  2.6734
 9455SOL    HW232282   2.305   9.018   7.012  1.0582  0.1448 -0.4530
 9456SOL     OW32283   5.080   1.433   0.137 -0.0902 -0.1442 -0.1668
 9456SOL    HW132284   5.057   1.385   0.217  0.7851 -0.7372 -0.2684
 9456SOL    HW232285   5.002   1.426   0.082 -0.7382  0.3383  0.6539
 9457SOL     OW32286   2.006   9.551   7.826  0.0912  0.1034  0.3204
 9457SOL    HW132287   1.929   9.596   7.860 -0.8311  0.8716 -2.5180
 9457SOL    HW232288   1.988   9.538   7.733  2.9878 -0.5584 -0.2676
 9458SOL     OW32289   7.078   2.988   4.635 -0.1189  0.1131 -0.1483
 9458SOL    HW132290   7.096   3.075   4.673 -0.1194  0.5147 -1.0373
 9458SOL    HW232291   7.086   3.002   4.540 -0.2074 -0.8444 -0.2999
 9459SOL     OW32292   8.706   3.646   6.327  0.0661 -0.3785 -0.4456
 9459SOL    HW132293   8.723   3.670   6.236 -1.5912  1.9961 -0.1861
 9459SOL    HW232294   8.672   3.557   6.322 -0.4253 -0.1200 -2.1939
 9460SOL     OW32295   6.358   2.153   8.321  0.1393 -0.1613  0.5328
 9460SOL    HW132296   6.407   2.199   8.389 -0.5596  0.7293  0.4549
 9460SOL    HW232297   6.423   2.136   8.253  0.4946  0.3742  0.7262
 9461SOL     OW32298   8.317   4.361   7.859  0.8227 -0.2996  0.3618
 9461SOL    HW132299   8.285   4.280   7.819 -0.7186  0.6654 -0.4754
 9461SOL    HW232300   8.251   4.382   7.926  0.9135  0.5161  0.2082
 9462SOL     OW32301   5.791   6.923   9.194  0.2819 -0.1954 -0.3751
 9462SOL    HW132302   5.816   7.013   9.213 -0.8585  0.2384 -0.8666
 9462SOL    HW232303   5.833   6.871   9.263 -0.3898  0.8862  0.8892
 9463SOL     OW32304   4.287   9.696   2.976  0.0603 -0.5546 -0.5899
 9463SOL    HW132305   4.291   9.791   2.991  2.7068 -0.5602 -0.8986
 9463SOL    HW232306   4.231   9.663   3.047  0.5689  1.0277  0.5964
 9464SOL     OW32307   4.114   5.576   5.422 -0.4647  0.0978  0.7148
 9464SOL    HW132308   4.146   5.491   5.392  1.4545  1.3054 -0.9070
 9464SOL    HW232309   4.053   5.555   5.492  0.4531 -2.5963  0.8257
 9465SOL     OW32310   3.162   6.491  10.069  0.7212  0.2116  0.0587
 9465SOL    HW132311   3.082   6.541  10.053  1.1660  1.0357  0.3883
 9465SOL    HW232312   3.130   6.404  10.096 -0.0489  0.0304 -1.3218
 9466SOL     OW32313   8.093   9.025   7.953 -0.1602  0.5762 -0.3199
 9466SOL    HW132314   8.052   8.978   8.026 -0.1801 -0.6300 -1.0755
 9466SOL    HW232315   8.100   9.116   7.983 -0.9379  0.2668  0.8447
 9467SOL     OW32316   4.498   6.486   1.375 -0.7062 -0.0497  0.2125
 9467SOL    HW132317   4.452   6.494   1.291  2.5660  0.5352 -1.6993
 9467SOL    HW232318   4.463   6.406   1.414 -1.8432 -0.7611 -2.0611
 9468SOL     OW32319   6.715   5.535   6.831 -0.1150 -0.6099 -0.1579
 9468SOL    HW132320   6.748   5.592   6.900  0.1156 -1.6601  0.6164
 9468SOL    HW232321   6.787   5.475   6.812  0.4765  0.7269 -2.5632
 9469SOL     OW32322   6.926   8.189   1.036 -0.0214  0.4982  0.1921
 9469SOL    HW132323   6.903   8.277   1.007 -0.7311  0.0360 -0.6951
 9469SOL    HW232324   7.021   8.193   1.051  0.1192  1.1574 -0.7868
 9470SOL     OW32325   6.244   5.684   5.653  0.7149 -0.4362 -0.3379
 9470SOL    HW132326   6.317   5.738   5.683  0.0779  0.9982 -1.2195
 9470SOL    HW232327   6.197   5.741   5.592 -0.9299 -1.4355 -0.0639
 9471SOL     OW32328   7.387   1.089  10.191 -0.7023 -0.2724 -0.3822
 9471SOL    HW132329   7.383   1.184  10.182 -2.9591 -0.3398 -0.7923
 9471SOL    HW232330   7.371   1.072  10.284  0.8470 -0.2524 -0.0856
 9472SOL     OW32331   2.867   9.861   9.635 -0.3404  0.5386 -0.1547
 9472SOL    HW132332   2.798   9.861   9.569  0.0725 -1.2670 -0.6242
 9472SOL    HW232333   2.914   9.943   9.620 -0.5244  0.3656 -1.8258
 9473SOL     OW32334   6.638   9.451   1.900  0.2911  0.3075 -0.2050
 9473SOL    HW132335   6.579   9.377   1.886 -2.4172  1.7165  2.3841
 9473SOL    HW232336   6.718   9.412   1.936 -0.7609 -1.4455  0.3646
 9474SOL     OW32337   3.244   0.250   1.616  0.1590  0.4348 -0.7065
 9474SOL    HW132338   3.237   0.192   1.541  1.3993 -1.3151  0.4648
 9474SOL    HW232339   3.154   0.260   1.647 -0.2268  0.2852 -1.7423
 9475SOL     OW32340   4.910   5.239   7.146 -0.3309 -0.5451 -0.0859
 9475SOL    HW132341   4.970   5.230   7.072  1.2680  0.5425  1.0299
 9475SOL    HW232342   4.843   5.172   7.130  0.0002 -0.3988 -2.4606
 9476SOL     OW32343   7.661   0.301   9.921  0.1654  0.4421 -0.2642
 9476SOL    HW132344   7.595   0.250   9.968  0.2111  0.7998  0.1970
 9476SOL    HW232345   7.630   0.303   9.831 -1.1730  1.6972  0.1717
 9477SOL     OW32346   2.216   7.316   5.928 -0.4919 -0.8748  0.3014
 9477SOL    HW132347   2.235   7.251   5.996 -2.7173 -0.6975  1.1607
 9477SOL    HW232348   2.175   7.388   5.974  1.2872  0.9230 -0.7449
 9478SOL     OW32349   6.667   5.859   3.545 -0.3271 -0.2544  0.3150
 9478SOL    HW132350   6.597   5.824   3.491  0.7423 -0.1342 -1.1999
 9478SOL    HW232351   6.628   5.937   3.587 -1.1849 -0.3805 -0.2288
 9479SOL     OW32352   0.479   7.832   0.409  0.1763  0.0493 -0.1188
 9479SOL    HW132353   0.565   7.871   0.392  0.2426  0.2813  0.7212
 9479SOL    HW232354   0.424   7.862   0.336  0.5316  0.7485 -0.1060
 9480SOL     OW32355   8.578   5.697   1.557  0.4849 -0.5796  0.0938
 9480SOL    HW132356   8.509   5.633   1.541 -0.5707  0.4276  0.4467
 9480SOL    HW232357   8.609   5.677   1.646  0.1939 -0.6290  0.1844
 9481SOL     OW32358   5.392   7.783   4.446 -0.1056 -0.5331  0.4623
 9481SOL    HW132359   5.485   7.800   4.457 -0.1752 -0.6050  1.2481
 9481SOL    HW232360   5.372   7.719   4.514 -1.5274  2.3602  3.0251
 9482SOL     OW32361   6.744   3.727   2.690 -0.5928 -0.1016 -0.1063
 9482SOL    HW132362   6.775   3.800   2.636  0.9067 -2.3158 -2.4255
 9482SOL    HW232363   6.795   3.735   2.771  1.2849  0.1623 -1.2412
 9483SOL     OW32364   2.106   0.561   8.691 -0.2255  0.6420 -0.3034
 9483SOL    HW132365   2.039   0.622   8.723 -1.1663  0.4626 -1.8235
 9483SOL    HW232366   2.169   0.617   8.646  0.4352  0.7654  0.7524
 9484SOL     OW32367   1.777   4.906   3.035 -0.1439 -0.3317  0.3494
 9484SOL    HW132368   1.825   4.824   3.026 -0.6230 -0.5745 -0.1140
 9484SOL    HW232369   1.838   4.966   3.078  0.9808 -0.2802 -1.2308
 9485SOL     OW32370   6.951   0.314   7.918 -0.0031  0.6412  0.4022
 9485SOL    HW132371   6.917   0.400   7.891 -0.5646  0.4414  0.4751
 9485SOL    HW232372   6.946   0.315   8.013  0.6932  0.8135  0.4405
 9486SOL     OW32373   1.184   8.142   2.915 -0.2272 -0.4069 -0.0710
 9486SOL    HW132374   1.144   8.124   2.829 -1.3370 -0.4786  0.4443
 9486SOL    HW232375   1.114   8.125   2.978  0.5786 -0.3656  0.8615
 9487SOL     OW32376   1.392   6.581   6.506  0.2741  0.2354 -0.4149
 9487SOL    HW132377   1.374   6.563   6.414 -0.5009 -0.7069 -0.0940
 9487SOL    HW232378   1.306   6.605   6.542  0.5421  0.4355  0.0964
 9488SOL     OW32379   7.901   7.956   1.885  0.5213  0.1862  0.5884
 9488SOL    HW132380   7.991   7.937   1.912  0.6783 -1.0810 -0.7048
 9488SOL    HW232381   7.853   7.875   1.902  0.2873 -0.1292 -1.3769
 9489SOL     OW32382   7.928   8.102   8.846 -0.5484 -0.4881  0.3836
 9489SOL    HW132383   7.889   8.109   8.759 -0.2654  2.2961  0.3906
 9489SOL    HW232384   7.853   8.090   8.905 -0.9964  0.3714  0.0004
 9490SOL     OW32385   4.548   2.854   9.704  0.2252 -0.2706 -0.0527
 9490SOL    HW132386   4.632   2.847   9.749 -0.0892 -2.0545  0.3233
 9490SOL    HW232387   4.492   2.902   9.764  0.4253 -0.7713  0.5413
 9491SOL     OW32388   1.889   9.562   9.210  0.1711  0.5818 -0.1958
 9491SOL    HW132389   1.902   9.512   9.290 -3.8730 -1.1517 -0.3694
 9491SOL    HW232390   1.883   9.496   9.141 -0.2905  1.7269 -1.2961
 9492SOL     OW32391   5.155   3.269   5.576  0.0856  1.2247 -0.2487
 9492SOL    HW132392   5.236   3.320   5.571 -0.2843  1.9976  1.0011
 9492SOL    HW232393   5.180   3.190   5.624  0.0072  1.7307  0.6615
 9493SOL     OW32394   8.418   4.902   5.858  0.0759  0.7357  0.8150
 9493SOL    HW132395   8.448   4.814   5.834 -1.7598  0.2503  0.1260
 9493SOL    HW232396   8.402   4.897   5.952 -0.3463  0.2241  0.7183
 9494SOL     OW32397   2.811   7.205   3.018  0.0689  0.6175 -0.3542
 9494SOL    HW132398   2.813   7.300   3.004 -0.9110  0.7907  0.5119
 9494SOL    HW232399   2.725   7.178   2.986  0.5074 -0.0525 -0.9821
 9495SOL     OW32400   7.748   2.047  10.128 -0.2034 -0.5172 -0.3579
 9495SOL    HW132401   7.761   2.011  10.216 -1.2283 -0.0219  0.0176
 9495SOL    HW232402   7.804   1.994  10.072  1.3337 -0.1352  0.7479
 9496SOL     OW32403   8.942   8.678   4.140 -0.5330  0.0826 -0.2981
 9496SOL    HW132404   9.024   8.641   4.107 -0.7594 -0.5588 -0.1451
 9496SOL    HW232405   8.969   8.758   4.186  0.1277 -0.6215  0.5805
 9497SOL     OW32406   0.865   3.982   2.720  0.2724  0.3210 -0.0313
 9497SOL    HW132407   0.922   4.057   2.700  0.7591  0.0253  0.2321
 9497SOL    HW232408   0.785   3.999   2.670  0.1084  1.3677  0.5564
 9498SOL     OW32409   6.968   1.819   5.595  0.1648  0.2326  0.3506
 9498SOL    HW132410   6.948   1.892   5.536  2.9406 -0.2339 -1.3356
 9498SOL    HW232411   6.995   1.861   5.677  1.6050  1.1499 -0.5547
 9499SOL     OW32412   3.318   1.669   9.365 -0.1335 -0.4465 -0.1404
 9499SOL    HW132413   3.344   1.580   9.341  1.8806  0.2748 -0.8944
 9499SOL    HW232414   3.374   1.691   9.439  0.0117  0.4794 -0.5086
 9500SOL     OW32415   9.974   6.952   5.459 -0.3859  0.2591  0.5559
 9500SOL    HW132416   9.884   6.962   5.430 -1.1718 -0.2551  2.7031
 9500SOL    HW232417  10.006   7.042   5.468 -1.1866  0.4842  1.2496
 9501SOL     OW32418   2.143   7.343   8.650 -0.0208 -0.0014 -0.1238
 9501SOL    HW132419   2.187   7.282   8.592  0.4788  0.8352 -0.6416
 9501SOL    HW232420   2.169   7.317   8.738  1.3535  0.3478 -0.4107
 9502SOL     OW32421   4.765   7.075   6.598 -0.0568 -0.2398  0.0230
 9502SOL    HW132422   4.705   7.136   6.554 -0.9757  0.2987  1.9349
 9502SOL    HW232423   4.846   7.126   6.610 -0.2882  0.0860  0.2226
 9503SOL     OW32424   9.084   7.932   0.949 -0.2900  0.3723 -0.4693
 9503SOL    HW132425   9.173   7.944   0.982 -0.1779 -0.0627 -0.6164
 9503SOL    HW232426   9.073   8.004   0.886 -0.1333  0.5731 -0.2706
 9504SOL     OW32427   0.868   8.997   5.260  0.1158 -0.1699 -0.2210
 9504SOL    HW132428   0.873   8.902   5.254  0.3736 -0.0566 -2.1744
 9504SOL    HW232429   0.782   9.019   5.223 -0.1004  0.3571  0.5572
 9505SOL     OW32430   1.514   8.808   3.546 -0.5675 -0.3180  0.3989
 9505SOL    HW132431   1.491   8.723   3.584 -1.8481 -0.6599 -1.0315
 9505SOL    HW232432   1.598   8.793   3.502 -1.5863 -1.3908 -1.3249
 9506SOL     OW32433   4.134   7.265   9.206 -0.9967 -0.3706 -0.0496
 9506SOL    HW132434   4.053   7.231   9.244 -0.9153 -2.8218 -1.7961
 9506SOL    HW232435   4.107   7.341   9.155 -1.9574 -0.3557  0.4591
 9507SOL     OW32436   1.426   8.300   6.246 -0.6760  0.4138 -0.0777
 9507SOL    HW132437   1.486   8.225   6.250  1.5560  1.8643 -2.4961
 9507SOL    HW232438   1.341   8.262   6.228  0.2896 -1.5896 -0.6797
 9508SOL     OW32439   4.074   9.561   7.603  0.3254  0.5557 -0.3748
 9508SOL    HW132440   4.086   9.604   7.519  1.4402  1.6720  0.3229
 9508SOL    HW232441   4.130   9.483   7.598 -1.3097 -0.6086 -1.4505
 9509SOL     OW32442   5.030   1.605   9.136  0.1373 -0.3125 -0.2748
 9509SOL    HW132443   5.039   1.544   9.209  0.8112 -0.3475 -0.3753
 9509SOL    HW232444   5.041   1.691   9.176 -0.6625 -0.2622 -0.1563
 9510SOL     OW32445   5.057   8.247   8.808  0.7750  0.1111 -0.0066
 9510SOL    HW132446   5.046   8.248   8.712  0.4474 -0.0880  0.0246
 9510SOL    HW232447   4.973   8.214   8.840  0.5676  1.0190  0.3994
 9511SOL     OW32448   1.909   9.276   0.966 -0.4365  0.1764  0.2578
 9511SOL    HW132449   1.992   9.271   1.014 -0.5260  1.1512  0.5326
 9511SOL    HW232450   1.935   9.297   0.876 -0.4018  1.0070  0.4541
 9512SOL     OW32451   4.354   2.267   6.915  0.2670  0.2538 -0.0231
 9512SOL    HW132452   4.310   2.304   6.839 -2.0770 -0.3670  0.9437
 9512SOL    HW232453   4.395   2.342   6.959 -0.3051  0.9602 -0.6751
 9513SOL     OW32454   9.164   8.054   9.383  0.6290 -0.3330 -0.2496
 9513SOL    HW132455   9.134   7.990   9.319  0.3323  0.8858 -1.3874
 9513SOL    HW232456   9.109   8.131   9.368  0.5557 -0.0007  1.4854
 9514SOL     OW32457   6.870   1.287   5.436  0.1577 -0.5690 -0.1295
 9514SOL    HW132458   6.876   1.336   5.354  0.2516 -1.0039 -0.3905
 9514SOL    HW232459   6.905   1.346   5.503  1.8268 -0.8636 -0.6872
 9515SOL     OW32460   1.871   4.190   1.770 -0.4627  0.2504  0.5756
 9515SOL    HW132461   1.856   4.235   1.853  1.1120  0.1515  0.9533
 9515SOL    HW232462   1.852   4.256   1.703 -2.0727  0.2248  0.9810
 9516SOL     OW32463   7.056   8.911   3.227 -0.1791 -0.5071  0.2065
 9516SOL    HW132464   7.018   8.876   3.307  1.6699 -1.0688  0.8868
 9516SOL    HW232465   7.006   8.870   3.156  0.0856 -2.3414  1.0331
 9517SOL     OW32466   9.594   1.457   0.907 -0.0926 -0.6453 -0.6606
 9517SOL    HW132467   9.619   1.425   0.820  0.7006 -0.2773 -0.5772
 9517SOL    HW232468   9.536   1.390   0.942  0.9392 -1.6327 -0.7916
 9518SOL     OW32469   9.345   6.337   5.762  0.6251 -0.0162  0.3885
 9518SOL    HW132470   9.343   6.432   5.752 -0.8916 -0.2232 -2.5696
 9518SOL    HW232471   9.437   6.314   5.757  0.8925  1.1806 -0.7919
 9519SOL     OW32472   3.188   9.426   3.039 -0.5162 -0.3448 -0.5842
 9519SOL    HW132473   3.190   9.466   3.126  0.0838 -0.4126 -0.5676
 9519SOL    HW232474   3.211   9.497   2.980  1.7810 -0.9242 -0.4542
 9520SOL     OW32475   3.302   5.226   7.344  0.0512  0.2882  0.4241
 9520SOL    HW132476   3.232   5.289   7.359  0.8220  1.0064  1.1379
 9520SOL    HW232477   3.297   5.167   7.420  1.0457  1.1541  1.1953
 9521SOL     OW32478   7.950   8.117   3.919  0.6527  0.5883 -0.8153
 9521SOL    HW132479   7.998   8.190   3.879 -0.1133  1.6830  0.1917
 9521SOL    HW232480   7.869   8.157   3.951  1.2267 -0.2360  1.8457
 9522SOL     OW32481   9.217   1.092   8.164 -0.6155 -0.0269  0.4356
 9522SOL    HW132482   9.181   1.062   8.248  0.3172  2.0205  1.6578
 9522SOL    HW232483   9.297   1.040   8.153 -1.2648 -1.0187  0.2736
 9523SOL     OW32484   0.373   3.469   4.333  0.5916 -0.3107  0.0958
 9523SOL    HW132485   0.449   3.441   4.282 -0.3419 -1.5142 -0.6981
 9523SOL    HW232486   0.312   3.395   4.328 -0.2678  0.2523  1.4835
 9524SOL     OW32487   2.378   6.199   1.702 -0.4660  0.0775  0.1840
 9524SOL    HW132488   2.313   6.189   1.632 -0.4211 -0.0279  0.1586
 9524SOL    HW232489   2.419   6.113   1.710  0.9369  0.6057 -1.0230
 9525SOL     OW32490   0.839   8.022   6.584  0.0243  0.7002  0.0154
 9525SOL    HW132491   0.816   7.970   6.662 -1.5141  0.1379 -0.7661
 9525SOL    HW232492   0.934   8.026   6.585  0.0590  0.6296  1.8751
 9526SOL     OW32493   1.758   8.106   0.904  0.2448 -0.6357 -0.0743
 9526SOL    HW132494   1.788   8.029   0.951 -0.1153  0.5227  2.1866
 9526SOL    HW232495   1.830   8.169   0.913 -1.0469  0.6961  1.7650
 9527SOL     OW32496   3.419   1.660   4.104  0.2660 -0.9127  0.1999
 9527SOL    HW132497   3.399   1.734   4.162 -1.5332 -2.4477  1.6778
 9527SOL    HW232498   3.459   1.594   4.161  0.1898 -1.7699 -0.6982
 9528SOL     OW32499   1.800   5.128   1.761 -0.0136 -0.2212 -0.1980
 9528SOL    HW132500   1.761   5.165   1.839 -1.2223  1.1565 -1.4087
 9528SOL    HW232501   1.883   5.090   1.791  0.3949  1.8172  1.4369
 9529SOL     OW32502   2.265   6.237   7.187  0.8893 -0.5627  0.0211
 9529SOL    HW132503   2.201   6.173   7.220 -0.1890 -0.1342 -1.1803
 9529SOL    HW232504   2.260   6.309   7.250  0.5759 -0.7701  0.2412
 9530SOL     OW32505   1.506   0.007   5.001 -0.1997  0.0614  0.3976
 9530SOL    HW132506   1.562  -0.070   4.996  0.0509  0.2819 -0.3908
 9530SOL    HW232507   1.566   0.078   5.027 -0.1341  0.2700 -0.3096
 9531SOL     OW32508   1.561   6.360   6.418  0.0798 -0.2493  0.4304
 9531SOL    HW132509   1.541   6.429   6.481  1.0683 -0.8358  1.4368
 9531SOL    HW232510   1.550   6.279   6.468 -0.9929 -0.8366 -0.7113
 9532SOL     OW32511   9.224   9.565   5.783 -0.4663  0.5091  0.0929
 9532SOL    HW132512   9.278   9.601   5.853 -2.2035  1.1282  1.1698
 9532SOL    HW232513   9.140   9.544   5.825 -0.2438 -3.0575 -0.8513
 9533SOL     OW32514   5.669   4.010   0.251 -0.3396 -0.4009 -0.2521
 9533SOL    HW132515   5.589   4.015   0.198  0.1772 -1.6347 -1.1833
 9533SOL    HW232516   5.684   4.100   0.280 -0.6405  0.3118 -2.2019
 9534SOL     OW32517   8.837   1.574   6.946 -0.4152 -0.4417  0.0909
 9534SOL    HW132518   8.745   1.555   6.934 -0.0671 -2.3044  0.1697
 9534SOL    HW232519   8.879   1.543   6.866 -0.0813  2.7494 -1.1519
 9535SOL     OW32520   2.875   1.856   5.434 -0.1988 -0.2217  0.4602
 9535SOL    HW132521   2.923   1.800   5.494 -1.3709  0.5632  2.2309
 9535SOL    HW232522   2.941   1.893   5.376  1.3758  0.7593  2.7425
 9536SOL     OW32523   2.502   3.744   8.158  0.3107 -0.2099  0.5202
 9536SOL    HW132524   2.467   3.685   8.225 -0.6726 -0.3205 -0.0660
 9536SOL    HW232525   2.441   3.735   8.084  1.6149 -0.4373 -0.5672
 9537SOL     OW32526   9.165   8.791  10.113  0.4720 -0.2502  0.8917
 9537SOL    HW132527   9.223   8.820  10.042 -0.1080  1.1968  0.9781
 9537SOL    HW232528   9.203   8.829  10.192 -0.3741  0.4315  0.9893
 9538SOL     OW32529   3.309   8.837   8.301 -0.0376 -0.6238  0.0184
 9538SOL    HW132530   3.274   8.892   8.372  2.0113  1.0407 -0.1886
 9538SOL    HW232531   3.243   8.843   8.232 -0.3040  0.8030  0.3650
 9539SOL     OW32532   4.653   0.861   8.401  0.0609 -0.1953  0.4647
 9539SOL    HW132533   4.703   0.942   8.411 -1.7404  1.2866 -1.6652
 9539SOL    HW232534   4.704   0.810   8.338 -0.1291  0.4501 -0.2185
 9540SOL     OW32535   3.322   0.960   9.883  0.0856 -0.1823 -0.2749
 9540SOL    HW132536   3.331   0.913   9.966  1.3316 -0.6174 -0.6316
 9540SOL    HW232537   3.252   0.914   9.837 -0.1864 -0.3273  0.2731
 9541SOL     OW32538   2.900   8.674   5.829  0.0636 -0.2618  0.1987
 9541SOL    HW132539   2.842   8.599   5.817 -1.9822  1.3589 -0.6333
 9541SOL    HW232540   2.859   8.725   5.899  1.5984 -0.0475  0.9869
 9542SOL     OW32541   7.189   7.753   3.510  0.0528 -0.2868 -0.1467
 9542SOL    HW132542   7.167   7.666   3.544 -0.5539 -0.1178 -0.1052
 9542SOL    HW232543   7.207   7.739   3.417 -0.4944 -0.3839 -0.2385
 9543SOL     OW32544   1.373   8.251   4.331 -0.1126 -0.0012 -0.1223
 9543SOL    HW132545   1.421   8.265   4.413 -1.8774 -0.1290  0.9761
 9543SOL    HW232546   1.339   8.337   4.308  0.0669 -0.0370 -0.5155
 9544SOL     OW32547   1.095   1.393   9.330 -0.0064  0.6180  0.1716
 9544SOL    HW132548   1.057   1.476   9.302 -2.0977 -0.1923  0.4243
 9544SOL    HW232549   1.020   1.339   9.353  1.2822 -1.5270 -0.4290
 9545SOL     OW32550   4.706   7.988   2.582 -0.6411  0.0171 -0.2469
 9545SOL    HW132551   4.628   8.018   2.536 -1.1289  1.0868  1.1977
 9545SOL    HW232552   4.672   7.948   2.663  0.2377 -0.8019 -0.2551
 9546SOL     OW32553   2.724   0.299   9.009 -0.0560  0.0533 -0.1807
 9546SOL    HW132554   2.636   0.289   8.975  0.3192 -0.8317 -0.9280
 9546SOL    HW232555   2.744   0.215   9.049  0.8447 -0.1248 -0.9772
 9547SOL     OW32556   7.151   3.666   4.566  0.5471 -0.6281  0.5668
 9547SOL    HW132557   7.233   3.677   4.613  0.0285  1.0422  1.1579
 9547SOL    HW232558   7.170   3.691   4.476  1.1692 -2.3546  0.1715
 9548SOL     OW32559   1.957   5.943   6.665 -0.2823 -0.2591  0.3650
 9548SOL    HW132560   2.035   5.908   6.708 -0.0255 -0.5036 -0.2898
 9548SOL    HW232561   1.966   6.038   6.674  1.3800 -0.1187 -1.8148
 9549SOL     OW32562   3.127   9.668   6.908  0.2153 -0.5687 -0.1693
 9549SOL    HW132563   3.035   9.643   6.912 -0.1693  0.7968 -0.1973
 9549SOL    HW232564   3.129   9.744   6.850  1.4181 -0.8062 -0.4717
 9550SOL     OW32565   0.770   1.945   2.923 -0.3219 -0.0236 -0.5023
 9550SOL    HW132566   0.676   1.939   2.908 -0.4646 -0.1350  0.3602
 9550SOL    HW232567   0.778   1.990   3.007  0.3597 -0.7131 -0.1791
 9551SOL     OW32568   7.628   6.247   4.324 -0.1840 -0.1682 -0.0376
 9551SOL    HW132569   7.692   6.194   4.371  1.0891  0.3663 -1.0811
 9551SOL    HW232570   7.665   6.336   4.326 -1.4566  0.3773  0.2820
 9552SOL     OW32571   7.921   4.626   7.214 -0.4362  0.1167 -0.4734
 9552SOL    HW132572   8.000   4.627   7.267  0.6449 -0.7335 -2.0123
 9552SOL    HW232573   7.906   4.534   7.194 -2.7782  0.0586  1.0935
 9553SOL     OW32574   7.686   8.470   2.833 -0.2458  0.0109  0.8181
 9553SOL    HW132575   7.767   8.434   2.870 -0.4174 -0.4248  0.7739
 9553SOL    HW232576   7.616   8.416   2.869 -0.5628  0.6816  1.2231
 9554SOL     OW32577   3.092   2.233   4.613  0.5138  0.0737  0.1229
 9554SOL    HW132578   2.998   2.228   4.629  0.3225 -1.2397 -1.1754
 9554SOL    HW232579   3.103   2.313   4.561  0.0101 -0.1032 -0.2661
 9555SOL     OW32580   7.069   9.727   1.637  0.4692 -0.0706 -0.2738
 9555SOL    HW132581   7.012   9.782   1.690 -1.0128 -0.5548 -1.2922
 9555SOL    HW232582   7.034   9.734   1.548  2.1653 -0.1957 -1.0016
 9556SOL     OW32583   0.810   5.695   4.976  0.2658  0.7571 -0.3537
 9556SOL    HW132584   0.901   5.674   4.997  0.1061 -0.5454 -0.9054
 9556SOL    HW232585   0.784   5.631   4.910 -1.1757  0.8599  0.0711
 9557SOL     OW32586   9.625   8.377   4.189  0.2086  0.4044 -0.2408
 9557SOL    HW132587   9.628   8.441   4.118 -0.8060  1.5702  0.7184
 9557SOL    HW232588   9.710   8.383   4.232  1.0099 -0.6558 -1.6198
 9558SOL     OW32589   2.760   2.143   3.307 -0.7320 -0.7396 -0.3823
 9558SOL    HW132590   2.788   2.167   3.219 -2.7895  2.2864 -0.3612
 9558SOL    HW232591   2.680   2.093   3.294 -2.1733  1.4315 -0.2962
 9559SOL     OW32592   7.343   2.488   4.443  1.1437  0.6273  0.4195
 9559SOL    HW132593   7.422   2.542   4.437  0.7801  1.0184 -1.7940
 9559SOL    HW232594   7.284   2.525   4.377 -0.4757 -0.3397  1.2634
 9560SOL     OW32595   0.562   3.317   1.875 -0.1564  0.0569  0.1775
 9560SOL    HW132596   0.609   3.392   1.911 -0.3314  0.1938  0.1255
 9560SOL    HW232597   0.472   3.348   1.865  0.2784  0.7383 -2.3684
 9561SOL     OW32598   2.499   2.583   8.378  0.4572  0.1035  0.3209
 9561SOL    HW132599   2.473   2.647   8.311  0.3832 -0.0547  0.1982
 9561SOL    HW232600   2.417   2.556   8.418  0.4346 -0.3372 -0.0146
 9562SOL     OW32601   9.466   8.195   2.300  0.4677  1.1102 -0.1535
 9562SOL    HW132602   9.419   8.142   2.364  3.1192  0.6124  1.5539
 9562SOL    HW232603   9.417   8.276   2.294 -1.2300  0.1768  0.5798
 9563SOL     OW32604   4.183   3.799   4.588  0.6068 -0.7774 -1.1198
 9563SOL    HW132605   4.103   3.749   4.606 -0.0505  0.1886 -1.2464
 9563SOL    HW232606   4.156   3.864   4.524  1.6155 -0.7216 -1.4993
 9564SOL     OW32607   5.052   7.137   1.674 -0.2401  0.2768  1.0616
 9564SOL    HW132608   5.057   7.111   1.582  1.0722 -0.3075  1.2769
 9564SOL    HW232609   4.963   7.173   1.684 -0.3689  0.4401 -0.4414
 9565SOL     OW32610   6.008   2.437   6.408 -0.1538 -0.5853  0.3668
 9565SOL    HW132611   6.021   2.531   6.401 -1.1605 -0.4194  0.4837
 9565SOL    HW232612   5.921   2.428   6.448  0.6614 -1.5442  2.0654
 9566SOL     OW32613   9.632   5.143   5.823 -0.1396  0.0908  0.5233
 9566SOL    HW132614   9.627   5.236   5.804 -0.8584 -0.1057 -0.2823
 9566SOL    HW232615   9.592   5.134   5.909 -0.0588  0.5218  0.6080
 9567SOL     OW32616   6.922   6.059   5.063  0.6764 -0.5936 -0.1035
 9567SOL    HW132617   6.895   6.151   5.069  0.8074 -0.4281 -1.7159
 9567SOL    HW232618   6.890   6.020   5.144 -0.9794  0.4603 -0.2117
 9568SOL     OW32619   1.449   6.253   9.674 -0.1046 -0.1227 -0.0134
 9568SOL    HW132620   1.375   6.303   9.639 -0.4265 -0.0958  0.6808
 9568SOL    HW232621   1.499   6.227   9.597  0.4595  1.8358 -0.3572
 9569SOL     OW32622   5.219   0.005   0.559  0.6094  0.0875  0.1741
 9569SOL    HW132623   5.303   0.046   0.577  1.1320 -1.5242  1.5581
 9569SOL    HW232624   5.165   0.025   0.636  0.4470 -0.7235  0.2753
 9570SOL     OW32625   5.302   0.458   3.649  0.0722  0.2813 -0.1156
 9570SOL    HW132626   5.327   0.548   3.668 -0.6512  0.8405 -1.6400
 9570SOL    HW232627   5.239   0.465   3.578 -1.3520 -1.3220  0.8930
 9571SOL     OW32628   2.520   9.284   5.103  0.6683 -0.4983  0.5258
 9571SOL    HW132629   2.525   9.371   5.064 -1.1703  0.2493  1.7779
 9571SOL    HW232630   2.595   9.280   5.163  0.0675  0.7870  1.4218
 9572SOL     OW32631   4.625   0.387   8.463  0.1294  0.0301 -0.0236
 9572SOL    HW132632   4.694   0.332   8.500  1.2568  0.9826 -0.6174
 9572SOL    HW232633   4.595   0.442   8.536 -0.8936 -1.2263  0.5317
 9573SOL     OW32634   0.387   3.003   6.320  0.6021 -0.0635 -0.1328
 9573SOL    HW132635   0.300   2.964   6.315  1.3607 -1.7813 -0.5241
 9573SOL    HW232636   0.418   3.006   6.230  1.2946 -0.2913  0.0889
 9574SOL     OW32637   7.126   2.653   0.635  0.2230 -0.2495 -0.0525
 9574SOL    HW132638   7.136   2.748   0.637 -0.5536 -0.1442 -0.4845
 9574SOL    HW232639   7.078   2.631   0.715  0.1681 -0.2393 -0.0822
 9575SOL     OW32640   8.100   9.062   8.427 -0.1290  0.4454  0.3088
 9575SOL    HW132641   8.004   9.062   8.420 -0.0317  1.3341 -1.8011
 9575SOL    HW232642   8.118   9.114   8.505 -1.3695  2.5546 -0.7102
 9576SOL     OW32643   6.097   5.433   7.832  0.6203  0.1122 -0.1112
 9576SOL    HW132644   6.142   5.486   7.766  0.9789 -0.2390 -0.1537
 9576SOL    HW232645   6.077   5.494   7.903  0.4784  0.4327 -0.4298
 9577SOL     OW32646   4.222   1.239   1.104 -0.0906 -0.1381  0.0197
 9577SOL    HW132647   4.190   1.158   1.065 -0.3251  0.3097 -0.7413
 9577SOL    HW232648   4.143   1.284   1.135  0.1002 -0.5351  1.1247
 9578SOL     OW32649   9.831   3.695   5.033 -0.0671  0.1744 -0.3326
 9578SOL    HW132650   9.894   3.766   5.043  2.0201 -1.7265  0.9945
 9578SOL    HW232651   9.773   3.703   5.109  0.8433 -0.1471  0.4138
 9579SOL     OW32652   1.450   0.226   8.595 -0.4466  0.0819 -0.4615
 9579SOL    HW132653   1.358   0.208   8.612 -0.0109 -1.7347  0.2585
 9579SOL    HW232654   1.452   0.270   8.510 -1.9969  0.6219 -0.2353
 9580SOL     OW32655   8.843   3.603   5.159 -0.5409  0.2599  0.2451
 9580SOL    HW132656   8.898   3.540   5.112 -1.7281 -2.2381  2.0053
 9580SOL    HW232657   8.782   3.636   5.092  0.3960 -0.0984 -0.8209
 9581SOL     OW32658   6.681   0.164   6.611 -0.0704  1.0842 -0.1921
 9581SOL    HW132659   6.707   0.255   6.597  0.7794  0.7376 -0.9045
 9581SOL    HW232660   6.676   0.126   6.524 -0.7678  0.5234  0.0755
 9582SOL     OW32661   6.398   1.996   0.585 -0.0365  0.1545  0.0277
 9582SOL    HW132662   6.418   1.929   0.650 -0.0832  0.0965 -0.0181
 9582SOL    HW232663   6.481   2.011   0.539  0.0845  0.4499  0.3359
 9583SOL     OW32664   6.335   3.957   1.654  0.4834 -0.4728  0.8318
 9583SOL    HW132665   6.381   3.925   1.577  2.3658  0.5819  1.4508
 9583SOL    HW232666   6.370   4.045   1.668 -1.4797  0.2518  1.5816
 9584SOL     OW32667   6.716   2.899   7.176  0.1411  0.2945 -0.5678
 9584SOL    HW132668   6.800   2.934   7.149  1.1732 -0.3430  1.5419
 9584SOL    HW232669   6.717   2.906   7.272 -1.7871 -0.6389 -0.4266
 9585SOL     OW32670   2.329   0.108   0.189  0.1049 -0.3200  0.6696
 9585SOL    HW132671   2.274   0.089   0.265 -0.8330  0.2540  0.1468
 9585SOL    HW232672   2.286   0.064   0.116 -0.0326  0.6685  0.1375
 9586SOL     OW32673   2.563   6.371   1.123  0.9839  0.3884  0.0211
 9586SOL    HW132674   2.628   6.425   1.167  0.0058  1.8336 -0.2687
 9586SOL    HW232675   2.478   6.403   1.154  0.3345 -2.2313  1.3190
 9587SOL     OW32676   3.142   8.446   4.254  0.2493 -0.3022  0.3604
 9587SOL    HW132677   3.158   8.445   4.160 -0.8420 -1.8663  0.1633
 9587SOL    HW232678   3.204   8.511   4.288  0.0108  0.9909 -1.5218
 9588SOL     OW32679   2.008   8.888   0.796 -0.6884 -0.8341 -0.0910
 9588SOL    HW132680   2.053   8.807   0.820 -2.5953 -1.9941 -0.2058
 9588SOL    HW232681   2.078   8.948   0.771  0.8017 -2.3438  0.2588
 9589SOL     OW32682   5.514   0.694   7.014  0.1258 -0.4278 -0.1277
 9589SOL    HW132683   5.530   0.786   6.993  1.4702 -0.5535  0.2148
 9589SOL    HW232684   5.492   0.654   6.931 -0.4457  0.1940 -0.2850
 9590SOL     OW32685   6.899   2.884   4.804 -0.7590 -0.3361 -0.2293
 9590SOL    HW132686   6.957   2.923   4.738 -1.5175 -0.7652 -1.1746
 9590SOL    HW232687   6.956   2.824   4.853  0.7363  2.6892  2.0627
 9591SOL     OW32688   7.917   9.962   7.713 -0.1488  0.1386  0.0460
 9591SOL    HW132689   7.943   9.873   7.739  2.1207  0.5166 -0.7227
 9591SOL    HW232690   7.984  10.019   7.752 -1.5394  1.5459  0.4766
 9592SOL     OW32691   6.926  10.120   4.201 -0.2202  0.4994 -0.9666
 9592SOL    HW132692   6.880  10.204   4.200 -0.2133  0.5462  0.6255
 9592SOL    HW232693   6.911  10.086   4.289  1.3746 -0.2848 -0.9753
 9593SOL     OW32694   5.630  10.125   6.317  0.6343  0.1168 -0.2728
 9593SOL    HW132695   5.558  10.159   6.264 -1.1388 -0.6718  1.5122
 9593SOL    HW232696   5.589  10.061   6.376  2.9075 -0.8462  0.3799
 9594SOL     OW32697  10.128   0.800   3.399 -0.3216  0.2680  0.2298
 9594SOL    HW132698  10.194   0.861   3.432 -0.3373 -0.4145  1.5867
 9594SOL    HW232699  10.121   0.820   3.306  1.1235  0.9757  0.2505
 9595SOL     OW32700   9.098   5.204   1.547  0.1946 -0.3805  0.7535
 9595SOL    HW132701   9.167   5.204   1.613  1.0359  0.4814 -0.0984
 9595SOL    HW232702   9.093   5.294   1.516 -0.7812 -0.5875  0.2505
 9596SOL     OW32703   7.520   2.019   6.071 -0.1778  0.1192 -0.4846
 9596SOL    HW132704   7.534   2.061   5.986 -2.8032  1.5096 -0.3411
 9596SOL    HW232705   7.523   2.090   6.135 -1.3167 -0.3878  0.1733
 9597SOL     OW32706   6.779   8.277   9.372  0.3355 -0.3579 -0.3322
 9597SOL    HW132707   6.799   8.339   9.442  1.0340 -1.4285  0.4469
 9597SOL    HW232708   6.684   8.262   9.380  0.3860 -0.3778  0.3241
 9598SOL     OW32709   4.755   1.136   1.074  0.2383 -0.0965  0.7779
 9598SOL    HW132710   4.848   1.124   1.091  0.3928  1.7088  1.4007
 9598SOL    HW232711   4.719   1.047   1.075  2.3179 -1.1346 -2.0107
 9599SOL     OW32712   7.627   9.158   7.845  0.1267 -0.3252 -0.0254
 9599SOL    HW132713   7.564   9.093   7.813 -0.4242 -0.5563  1.4245
 9599SOL    HW232714   7.572   9.226   7.883  0.6851  1.1911 -1.8089
 9600SOL     OW32715   0.033   4.661   2.795  0.4113  0.3837  0.0290
 9600SOL    HW132716   0.014   4.713   2.717  0.0035 -0.2061 -0.2701
 9600SOL    HW232717   0.056   4.726   2.862 -0.0495  0.9427 -0.3459
 9601SOL     OW32718   6.966   7.406   6.082  0.1261 -0.2897 -0.4163
 9601SOL    HW132719   7.003   7.493   6.070 -0.4286 -0.0958 -0.7696
 9601SOL    HW232720   6.874   7.422   6.104  0.1089 -0.7743 -0.1239
 9602SOL     OW32721   0.946   2.081   4.179 -0.3402 -0.4033  0.4618
 9602SOL    HW132722   0.907   2.161   4.144 -0.4020 -0.6984 -0.1486
 9602SOL    HW232723   0.894   2.061   4.257 -1.7084 -1.0182 -0.5732
 9603SOL     OW32724   9.169   2.861   3.630  0.3012  0.0186 -0.6364
 9603SOL    HW132725   9.191   2.821   3.547 -1.7073 -1.0680 -0.7063
 9603SOL    HW232726   9.140   2.789   3.685 -0.1554  0.9437  0.3792
 9604SOL     OW32727   9.176   8.193   3.336 -0.0394  0.9586 -0.0281
 9604SOL    HW132728   9.252   8.140   3.311  0.4594  1.1434  1.0582
 9604SOL    HW232729   9.115   8.129   3.373 -0.7224  0.7051 -1.5166
 9605SOL     OW32730   2.372   0.264   2.645  0.1328  0.3687  0.1133
 9605SOL    HW132731   2.467   0.272   2.652  0.3621  0.7881 -2.5377
 9605SOL    HW232732   2.356   0.169   2.651  1.1325 -0.0553 -2.5337
 9606SOL     OW32733   6.523   9.126   4.407 -0.0285 -0.2938  0.1233
 9606SOL    HW132734   6.584   9.069   4.359  2.8467  1.9158  0.8911
 9606SOL    HW232735   6.527   9.095   4.497 -0.4470 -0.4202  0.1022
 9607SOL     OW32736   2.921   1.360   5.050  0.7229 -0.2095  0.1505
 9607SOL    HW132737   2.844   1.304   5.043  2.3595 -2.7165  0.5219
 9607SOL    HW232738   2.963   1.332   5.131  1.2669  2.1727  0.7624
 9608SOL     OW32739  10.139   7.985   9.092  0.1788  0.4622  0.1282
 9608SOL    HW132740  10.224   7.961   9.056 -0.5642 -0.9167 -0.7917
 9608SOL    HW232741  10.076   7.965   9.023 -1.0667 -0.1066  1.3625
 9609SOL     OW32742   7.022   7.069   3.321 -0.1987  0.7055 -0.1313
 9609SOL    HW132743   6.930   7.081   3.347 -0.0292 -0.4087  1.1217
 9609SOL    HW232744   7.037   6.975   3.331  0.0284  0.1821 -4.0710
 9610SOL     OW32745   7.548   9.291   9.990  0.3537  0.2683 -0.1852
 9610SOL    HW132746   7.497   9.267   9.912 -0.1923  1.4729 -0.2273
 9610SOL    HW232747   7.613   9.222   9.999  0.1780 -0.0889 -1.4968
 9611SOL     OW32748   2.050   5.631   0.541 -0.3083  0.3337  0.6788
 9611SOL    HW132749   2.034   5.723   0.519  3.0466  0.8424 -0.1490
 9611SOL    HW232750   2.078   5.633   0.632 -1.7522 -0.1453  1.1685
 9612SOL     OW32751   0.234   5.717   5.693  0.2217  0.1817 -0.5172
 9612SOL    HW132752   0.157   5.773   5.704 -1.3451 -1.8992 -0.3280
 9612SOL    HW232753   0.300   5.755   5.751 -0.7500  1.8357 -0.4349
 9613SOL     OW32754   4.133   0.400   1.656  0.3325 -0.9520  0.0202
 9613SOL    HW132755   4.174   0.448   1.583  1.4120  0.2327  1.3588
 9613SOL    HW232756   4.051   0.368   1.619  0.9587 -0.5954 -1.7969
 9614SOL     OW32757   5.395   4.920   0.684 -0.4480 -0.4464 -0.0276
 9614SOL    HW132758   5.312   4.915   0.732  0.1718 -0.2350  1.1010
 9614SOL    HW232759   5.377   4.877   0.600 -1.7787 -0.1305  0.0743
 9615SOL     OW32760   5.267   8.234   9.157 -0.3617 -0.2272  0.2181
 9615SOL    HW132761   5.186   8.283   9.169 -0.5983 -0.3242 -0.9168
 9615SOL    HW232762   5.336   8.293   9.188 -0.6985  0.5667 -0.5201
 9616SOL     OW32763   4.501   4.688   6.127 -0.0461  0.5254 -0.1158
 9616SOL    HW132764   4.417   4.668   6.168  0.0959  1.1202  0.4752
 9616SOL    HW232765   4.536   4.761   6.177  0.6307  0.5671 -0.6278
 9617SOL     OW32766   2.048   7.651   9.804 -0.1876 -0.1367 -0.1651
 9617SOL    HW132767   2.097   7.569   9.802  0.9232  0.5157 -1.1237
 9617SOL    HW232768   2.006   7.656   9.718 -1.1222 -0.1816  0.2680
 9618SOL     OW32769   1.049   4.701   3.196 -0.2047  0.0167 -0.2582
 9618SOL    HW132770   0.967   4.711   3.147 -0.4715  0.8591  0.3364
 9618SOL    HW232771   1.029   4.736   3.283  0.9453  0.7848 -0.2752
 9619SOL     OW32772   3.446   5.986   6.406  0.5366 -0.2051  0.0274
 9619SOL    HW132773   3.463   5.993   6.312 -1.4638  0.9551 -0.3078
 9619SOL    HW232774   3.364   6.033   6.419  1.2186  0.4449  2.5207
 9620SOL     OW32775   4.837   3.879   4.596 -0.1782  0.0241  0.2374
 9620SOL    HW132776   4.802   3.889   4.508 -0.5696 -2.0722  0.0997
 9620SOL    HW232777   4.886   3.796   4.594  1.4665  0.9001  1.4885
 9621SOL     OW32778   6.299   2.812   6.417 -0.1618 -0.6197  0.6351
 9621SOL    HW132779   6.218   2.864   6.409  0.1147  0.2398  2.6430
 9621SOL    HW232780   6.276   2.742   6.479 -0.0721 -1.9838 -0.8263
 9622SOL     OW32781   8.798   6.025   9.097 -0.0575  0.0029 -0.5999
 9622SOL    HW132782   8.871   5.974   9.061 -0.7069 -0.6104 -1.0934
 9622SOL    HW232783   8.722   5.966   9.090 -0.8176  1.0154 -1.1211
 9623SOL     OW32784   7.782   3.273   6.558 -0.1477 -0.1266  1.1193
 9623SOL    HW132785   7.833   3.294   6.636  0.1617  0.2361  0.8252
 9623SOL    HW232786   7.769   3.178   6.562  1.4884 -0.4012  0.6466
 9624SOL     OW32787   6.115   9.907   7.935 -0.3355 -0.3439 -0.0092
 9624SOL    HW132788   6.198   9.863   7.954  3.1368  3.8534 -3.3226
 9624SOL    HW232789   6.099   9.963   8.011  0.9398  0.1002 -0.0441
 9625SOL     OW32790   5.221   8.992   2.246  0.0827  0.0634  0.1165
 9625SOL    HW132791   5.171   9.061   2.291  1.1730  0.6724  0.4370
 9625SOL    HW232792   5.312   9.011   2.267  0.5503 -0.2936 -1.4808
 9626SOL     OW32793   5.017   4.785   2.411 -0.6459  0.6840 -0.3675
 9626SOL    HW132794   4.972   4.711   2.452 -1.7101  1.3299 -0.3223
 9626SOL    HW232795   4.947   4.847   2.391  0.1243  1.3191 -1.1747
 9627SOL     OW32796   5.695   3.997   0.771  0.3146  0.5840  0.8596
 9627SOL    HW132797   5.617   4.034   0.811 -1.5621 -2.6554  0.6141
 9627SOL    HW232798   5.725   3.931   0.833  1.5565  0.2771 -0.0286
 9628SOL     OW32799   8.154   8.799   0.259  0.2623 -0.1329  0.6822
 9628SOL    HW132800   8.082   8.741   0.233 -0.1265  0.4406  0.4423
 9628SOL    HW232801   8.199   8.820   0.177  0.4881 -0.2092  0.7865
 9629SOL     OW32802   5.098   3.638   7.652 -0.2569  0.0113  0.5361
 9629SOL    HW132803   5.088   3.550   7.618 -1.3387 -0.2911  1.5602
 9629SOL    HW232804   5.069   3.695   7.581  2.0855 -0.3139 -0.7906
 9630SOL     OW32805   8.139   9.984   9.851 -0.5929  0.1848  0.7033
 9630SOL    HW132806   8.067   9.982   9.913 -0.4495 -0.5840  0.8465
 9630SOL    HW232807   8.103  10.027   9.773 -1.0247  0.3412  0.9894
 9631SOL     OW32808   9.361   0.048   3.310 -0.3215 -0.1701 -0.4918
 9631SOL    HW132809   9.275   0.085   3.289  0.9654  2.4898 -1.6964
 9631SOL    HW232810   9.360  -0.039   3.270 -2.4277 -0.2292 -0.4435
 9632SOL     OW32811   6.194   7.879   4.695 -0.2259 -0.0730  0.0451
 9632SOL    HW132812   6.145   7.873   4.613  2.0218 -0.6978 -1.3443
 9632SOL    HW232813   6.139   7.834   4.759 -0.8080 -2.1266 -1.7802
 9633SOL     OW32814   6.831   5.154   3.414  0.2108 -0.4568 -0.2479
 9633SOL    HW132815   6.869   5.156   3.502  1.1360 -0.3438 -0.6369
 9633SOL    HW232816   6.879   5.084   3.369 -0.4235 -0.6798 -0.5948
 9634SOL     OW32817   0.063   1.106   4.182  0.5333  0.7671  0.6783
 9634SOL    HW132818   0.079   1.029   4.235 -0.4919 -1.3130 -1.8263
 9634SOL    HW232819   0.127   1.171   4.213  1.9221 -1.2890  2.3751
 9635SOL     OW32820   7.388   5.468   5.407  0.3746  0.1986 -0.3312
 9635SOL    HW132821   7.409   5.400   5.343 -2.3164  0.5667 -1.7909
 9635SOL    HW232822   7.468   5.481   5.457  2.1550 -1.2256 -2.6330
 9636SOL     OW32823   9.620   8.347   8.302  0.1549 -0.5348 -0.1119
 9636SOL    HW132824   9.528   8.332   8.322  0.0967  0.8454  0.8300
 9636SOL    HW232825   9.651   8.403   8.373  1.9133 -1.5379 -0.0198
 9637SOL     OW32826   5.820   9.850   7.975 -0.0496 -0.0436 -1.0042
 9637SOL    HW132827   5.864   9.927   8.010  1.4756 -1.0741 -0.5439
 9637SOL    HW232828   5.846   9.847   7.883  0.7364 -0.5505 -0.7761
 9638SOL     OW32829   7.106   0.010   8.719  0.2047  0.2361 -0.0745
 9638SOL    HW132830   7.133  -0.079   8.696 -0.3553  0.3475 -1.2914
 9638SOL    HW232831   7.137   0.064   8.646 -0.8470  0.7818 -0.1457
 9639SOL     OW32832   7.697   2.708   7.184  0.1798 -0.1383  0.4336
 9639SOL    HW132833   7.684   2.778   7.248  1.8838 -0.6018  1.3462
 9639SOL    HW232834   7.620   2.712   7.128 -1.1295  0.6063  2.2060
 9640SOL     OW32835   9.034   7.412   8.748 -0.1243 -0.3763 -0.0269
 9640SOL    HW132836   8.941   7.408   8.724  0.2082  0.8430 -1.6967
 9640SOL    HW232837   9.078   7.357   8.683  0.7668  2.7356 -2.2629
 9641SOL     OW32838   1.437   8.173   0.485 -0.0990  0.2348  0.0118
 9641SOL    HW132839   1.477   8.139   0.565  1.5625  0.3109 -0.7480
 9641SOL    HW232840   1.374   8.238   0.515 -0.6563 -0.8697  1.3110
 9642SOL     OW32841   5.159   4.954   3.885  0.0118 -0.3463  0.0136
 9642SOL    HW132842   5.128   4.947   3.795 -0.7685  1.9996  0.0317
 9642SOL    HW232843   5.132   5.042   3.913  1.1244 -0.6320  2.2023
 9643SOL     OW32844   1.882   2.394  10.052  0.1287 -0.0074  0.6718
 9643SOL    HW132845   1.838   2.402   9.967  0.1821  1.0865  0.7374
 9643SOL    HW232846   1.831   2.328  10.099  0.1867 -0.7446 -0.2600
 9644SOL     OW32847   9.001   6.041   5.583 -0.5371  0.1496 -0.2553
 9644SOL    HW132848   9.003   5.959   5.631 -0.1455 -0.0046 -0.5290
 9644SOL    HW232849   9.050   6.102   5.638 -0.5557  0.1165 -0.2022
 9645SOL     OW32850   6.624   0.162   7.872  0.0483 -0.1521 -0.4241
 9645SOL    HW132851   6.560   0.106   7.829 -0.0997 -1.5577  1.5072
 9645SOL    HW232852   6.698   0.104   7.890 -0.8032 -0.3287  3.2274
 9646SOL     OW32853   6.067   8.782   0.439 -0.1465 -0.1666 -0.2834
 9646SOL    HW132854   5.983   8.738   0.452 -0.1144 -0.1912 -0.1554
 9646SOL    HW232855   6.132   8.720   0.471 -0.2030  0.6340  1.5583
 9647SOL     OW32856   4.910   6.249   8.890 -0.0336  0.6460  0.0574
 9647SOL    HW132857   4.874   6.286   8.971 -0.1556  0.1322  0.2401
 9647SOL    HW232858   4.981   6.192   8.919 -2.8011 -3.0495  0.2410
 9648SOL     OW32859   1.102   5.832   2.236 -0.7935 -0.3924  0.3107
 9648SOL    HW132860   1.187   5.815   2.275 -1.3855 -1.6055  1.1621
 9648SOL    HW232861   1.068   5.908   2.283 -0.5085 -0.3891  0.5131
 9649SOL     OW32862   6.217   1.519   1.752 -0.0731 -0.1874  0.1208
 9649SOL    HW132863   6.181   1.465   1.822 -0.9398 -0.1535 -0.2911
 9649SOL    HW232864   6.143   1.571   1.720  0.2404 -0.4002 -1.0031
 9650SOL     OW32865   2.125   3.339   2.835  0.5927  0.1247  0.2562
 9650SOL    HW132866   2.043   3.388   2.837 -0.9691 -2.2671 -0.1069
 9650SOL    HW232867   2.132   3.308   2.744  1.5176 -0.2916  0.4512
 9651SOL     OW32868   4.992  10.198   9.457 -0.2172  0.3350 -0.3892
 9651SOL    HW132869   4.925  10.134   9.481  0.7308 -0.9991 -1.1316
 9651SOL    HW232870   4.949  10.283   9.466 -1.0924 -0.2857  2.0443
 9652SOL     OW32871   8.617   8.542   8.539 -0.2257  0.4716  0.4720
 9652SOL    HW132872   8.696   8.551   8.486 -0.8135 -0.3253 -0.5645
 9652SOL    HW232873   8.563   8.618   8.516 -0.1648  0.5244  0.5027
 9653SOL     OW32874   3.227   5.528   4.302 -0.0259  0.0726  0.4401
 9653SOL    HW132875   3.155   5.576   4.262  0.4961 -0.0543 -0.6780
 9653SOL    HW232876   3.301   5.589   4.302  0.6333 -0.6697 -0.9685
 9654SOL     OW32877   1.180   5.610   0.451 -0.1603  0.3767  0.1836
 9654SOL    HW132878   1.257   5.568   0.412 -0.7581 -0.5624 -0.0026
 9654SOL    HW232879   1.211   5.698   0.475  2.0443 -1.0578  3.3139
 9655SOL     OW32880   3.834   5.691   1.298 -0.4230 -0.5458  0.1665
 9655SOL    HW132881   3.896   5.651   1.359  1.7819  1.1339 -0.8307
 9655SOL    HW232882   3.888   5.745   1.241 -2.7367  0.2544 -1.4169
 9656SOL     OW32883   0.342   9.976   7.680  0.0962  0.4008 -0.2747
 9656SOL    HW132884   0.426   9.991   7.724  1.2246 -1.4164 -1.6247
 9656SOL    HW232885   0.283   9.950   7.749  0.8641  0.9221  0.6068
 9657SOL     OW32886   1.457   8.149   1.595 -0.7215  0.4517  0.0632
 9657SOL    HW132887   1.540   8.103   1.607  0.1489  1.9211 -0.0956
 9657SOL    HW232888   1.398   8.082   1.559  1.0355 -0.1186 -2.0363
 9658SOL     OW32889   7.558   6.469   6.292 -0.1161 -0.4532 -0.0133
 9658SOL    HW132890   7.651   6.462   6.315 -0.4768 -2.1753  1.1222
 9658SOL    HW232891   7.545   6.562   6.274  1.6527 -0.0453  0.6034
 9659SOL     OW32892   4.883   8.248   5.312 -0.4679  0.1093  0.3386
 9659SOL    HW132893   4.924   8.182   5.368  0.5068 -0.7155 -1.2591
 9659SOL    HW232894   4.947   8.318   5.307  0.7716 -1.0667 -1.9500
 9660SOL     OW32895   5.164   8.614   0.271  0.3590  0.1990 -0.7623
 9660SOL    HW132896   5.071   8.635   0.283  0.6018  0.1943  1.5837
 9660SOL    HW232897   5.172   8.523   0.300  1.2719  0.5652  0.1993
 9661SOL     OW32898   2.368   0.887   1.207  0.2291  0.3939 -0.3058
 9661SOL    HW132899   2.396   0.801   1.174 -1.2489 -0.8325  1.4161
 9661SOL    HW232900   2.367   0.943   1.130 -0.6400 -1.6712 -1.9045
 9662SOL     OW32901   8.934   3.082   8.196 -0.5498 -0.6017 -0.5278
 9662SOL    HW132902   8.950   3.076   8.102  2.1258  1.2025 -0.2771
 9662SOL    HW232903   8.878   3.159   8.207  1.3104  0.8079 -0.5188
 9663SOL     OW32904   4.037  10.017   3.310  0.0179 -0.5743  0.4078
 9663SOL    HW132905   4.116  10.035   3.361 -1.9913  2.9237  2.7782
 9663SOL    HW232906   4.051  10.061   3.227  1.0254 -1.0916  0.2897
 9664SOL     OW32907   2.039   5.854   0.131  0.2872 -0.4219 -0.1299
 9664SOL    HW132908   2.133   5.874   0.136 -0.0116  1.4978 -1.3729
 9664SOL    HW232909   2.031   5.770   0.177  2.7539 -1.1562 -0.8563
 9665SOL     OW32910   3.083   8.124   9.430 -0.0971 -0.4499 -0.7600
 9665SOL    HW132911   3.080   8.217   9.407 -1.7627 -0.4786 -0.8286
 9665SOL    HW232912   3.008   8.086   9.383  0.2580 -1.7270 -0.3348
 9666SOL     OW32913   0.799   2.873   4.826  0.0472 -0.0207  0.3595
 9666SOL    HW132914   0.755   2.800   4.868  1.1547 -0.8091  0.1987
 9666SOL    HW232915   0.891   2.862   4.849  0.3535  0.8174 -0.3913
 9667SOL     OW32916   4.531   3.642   5.076  0.0408  0.0047 -0.6193
 9667SOL    HW132917   4.595   3.624   5.007  1.2312  0.8806  0.2108
 9667SOL    HW232918   4.476   3.711   5.040  0.4662  0.2463 -0.8206
 9668SOL     OW32919   5.162   4.896   1.343  0.0255  0.3825 -0.6948
 9668SOL    HW132920   5.181   4.951   1.419  2.3392 -0.5696 -0.5141
 9668SOL    HW232921   5.217   4.931   1.273  0.3762 -0.7493 -1.0052
 9669SOL     OW32922   8.079   2.229   3.985  0.3296  0.2989  0.1561
 9669SOL    HW132923   8.070   2.142   4.025 -1.4562 -0.1818 -1.1475
 9669SOL    HW232924   8.082   2.211   3.891 -0.4428  1.6750 -0.1474
 9670SOL     OW32925   8.622   7.949   8.703  0.7572 -0.6599  0.0942
 9670SOL    HW132926   8.616   7.876   8.641  0.3146 -0.4908 -0.0615
 9670SOL    HW232927   8.691   8.005   8.667 -0.4322  0.1472 -1.0016
 9671SOL     OW32928   2.855   9.214   2.457  0.4122 -0.4076  0.0206
 9671SOL    HW132929   2.934   9.188   2.411  0.9693  0.6684  0.3437
 9671SOL    HW232930   2.790   9.148   2.431  0.7224  0.0625 -2.1997
 9672SOL     OW32931   2.418   5.583   1.830 -0.0034  0.2576  0.2071
 9672SOL    HW132932   2.355   5.623   1.770 -0.4826 -0.1082  0.4665
 9672SOL    HW232933   2.384   5.602   1.917 -0.6097 -1.2846  0.3328
 9673SOL     OW32934   8.641   9.568   7.326 -0.3867  0.8011 -0.7791
 9673SOL    HW132935   8.580   9.561   7.253 -1.7358 -1.0392  0.4309
 9673SOL    HW232936   8.715   9.513   7.301 -0.7336  0.3692 -0.8637
 9674SOL     OW32937   9.522   2.998   2.180 -0.4181 -0.4442  0.0432
 9674SOL    HW132938   9.474   3.045   2.113 -0.7321  0.0596  0.6068
 9674SOL    HW232939   9.533   3.062   2.251 -0.7344 -1.1809  0.7740
 9675SOL     OW32940   3.781   0.292   5.040  0.1194  0.0588  0.7044
 9675SOL    HW132941   3.743   0.220   5.090  2.0021 -0.7994  1.0067
 9675SOL    HW232942   3.736   0.370   5.072 -2.2885 -0.9576  0.0593
 9676SOL     OW32943   6.020   4.277   5.650 -0.5586 -0.0257 -0.8129
 9676SOL    HW132944   6.030   4.345   5.717 -1.0669 -1.1061  0.4022
 9676SOL    HW232945   5.935   4.294   5.610  0.0027  0.9761 -1.6281
 9677SOL     OW32946   8.073   4.544   4.126  0.4237  0.1520  0.3006
 9677SOL    HW132947   8.077   4.476   4.059 -1.4492 -0.3979  0.6844
 9677SOL    HW232948   7.982   4.574   4.125  1.2617  2.9246 -0.0714
 9678SOL     OW32949   3.741  10.107   8.834 -0.2491  0.0951 -0.1602
 9678SOL    HW132950   3.772  10.025   8.797 -3.0536 -0.7357 -0.9383
 9678SOL    HW232951   3.674  10.138   8.772  1.1405  3.3568 -0.2508
 9679SOL     OW32952   4.087   5.428   8.585  0.1302 -0.3736  0.0541
 9679SOL    HW132953   4.104   5.435   8.679  2.0782 -1.2849 -0.1771
 9679SOL    HW232954   4.079   5.519   8.556  0.1357 -0.0546  0.9995
 9680SOL     OW32955   2.912   8.709   5.324  0.0988 -0.3173 -0.7451
 9680SOL    HW132956   3.000   8.687   5.355  0.1137 -0.3795 -0.8319
 9680SOL    HW232957   2.854   8.657   5.379  0.0633  0.4720 -0.0075
 9681SOL     OW32958   6.120   6.520   0.219 -0.2690  0.0976  0.3731
 9681SOL    HW132959   6.184   6.589   0.238 -2.5400  2.6579 -0.6575
 9681SOL    HW232960   6.051   6.533   0.284 -1.3265 -0.3512 -0.6353
 9682SOL     OW32961   3.906   7.349   4.960 -0.0422  0.1106  0.2859
 9682SOL    HW132962   3.921   7.298   4.880  1.5823 -0.1423  0.7114
 9682SOL    HW232963   3.950   7.299   5.029 -0.2304  1.0253  1.0846
 9683SOL     OW32964   0.551   3.264   3.886 -0.1593 -0.2831 -0.4210
 9683SOL    HW132965   0.606   3.190   3.861 -0.5123 -0.5827 -0.3186
 9683SOL    HW232966   0.463   3.239   3.857 -0.4920 -0.4304  0.6801
 9684SOL     OW32967   5.678   1.118   0.187 -0.0554  0.5481 -0.4930
 9684SOL    HW132968   5.766   1.153   0.194 -0.2901  0.8555  2.4813
 9684SOL    HW232969   5.621   1.195   0.184 -0.3036  0.3762 -0.2903
 9685SOL     OW32970   4.940   5.129   2.213 -0.4306  0.5189 -0.0609
 9685SOL    HW132971   4.855   5.104   2.251  0.0621 -0.4343  0.4431
 9685SOL    HW232972   4.946   5.077   2.133  0.4324 -0.7604  0.7981
 9686SOL     OW32973   5.517   6.323   2.787  0.2460  0.5528 -0.5944
 9686SOL    HW132974   5.490   6.306   2.696  1.4711  0.1184 -0.8955
 9686SOL    HW232975   5.474   6.254   2.838  0.8765 -0.2225 -1.0839
 9687SOL     OW32976   7.292   4.471   1.358  0.5064 -0.3857  0.0712
 9687SOL    HW132977   7.379   4.504   1.337  0.5589 -0.6652 -0.1552
 9687SOL    HW232978   7.232   4.522   1.304  0.4486  0.4225  0.8804
 9688SOL     OW32979   7.973   7.341   1.886  0.4337 -0.3918  0.1559
 9688SOL    HW132980   8.023   7.415   1.920 -0.9650  0.0930  1.2447
 9688SOL    HW232981   7.959   7.363   1.794 -0.5686  1.0828  0.6247
 9689SOL     OW32982   7.410   1.741   1.585 -0.0458  0.0629 -0.0980
 9689SOL    HW132983   7.414   1.792   1.504 -0.1278  1.8285  0.9566
 9689SOL    HW232984   7.320   1.750   1.616  0.2236  0.2320  0.6742
 9690SOL     OW32985   1.636   3.323   5.905 -0.7838  0.4618 -0.0145
 9690SOL    HW132986   1.582   3.373   5.967  0.6373  1.1128  0.7562
 9690SOL    HW232987   1.609   3.232   5.918 -3.2463  0.9276 -1.2643
 9691SOL     OW32988   3.805   8.806  10.065  0.1740 -0.7144  0.4371
 9691SOL    HW132989   3.824   8.852   9.983 -1.6511  0.1543  0.4428
 9691SOL    HW232990   3.840   8.863  10.133 -0.2818 -0.3294  0.3512
 9692SOL     OW32991   2.728   0.890   0.905  0.2421 -0.3589  0.6593
 9692SOL    HW132992   2.770   0.814   0.944 -1.6095 -2.5070 -1.2265
 9692SOL    HW232993   2.698   0.859   0.819 -1.7476  2.1159  0.3554
 9693SOL     OW32994   4.044   2.179   1.079 -0.3119 -0.2248  0.2782
 9693SOL    HW132995   4.080   2.091   1.094  0.5649  0.0727 -0.0135
 9693SOL    HW232996   4.011   2.177   0.990 -2.6369 -1.0221  1.0889
 9694SOL     OW32997  10.144   5.147   5.186 -0.4232 -0.6755 -0.8316
 9694SOL    HW132998  10.190   5.220   5.228 -2.0325 -0.9050  1.5100
 9694SOL    HW232999  10.113   5.183   5.103 -0.3841  1.0380 -0.1367
 9695SOL     OW33000   5.176   3.623   2.960 -0.0396  0.0095  0.4856
 9695SOL    HW133001   5.232   3.650   2.887 -1.1313 -0.0419 -0.4078
 9695SOL    HW233002   5.087   3.645   2.931 -0.6773 -1.6743  1.0141
 9696SOL     OW33003   3.605   2.511   2.384 -0.5439  0.1467  0.2595
 9696SOL    HW133004   3.560   2.530   2.302 -1.4462 -2.3047  0.0862
 9696SOL    HW233005   3.643   2.424   2.371  0.5638  0.3271  1.9382
 9697SOL     OW33006   2.784   8.361   1.560  0.7112  0.4295  0.3621
 9697SOL    HW133007   2.754   8.271   1.547 -0.4061  0.3784  2.6907
 9697SOL    HW233008   2.781   8.401   1.474  1.8978 -1.9288 -0.8705
 9698SOL     OW33009   7.769   0.044   1.171 -0.3418 -0.0796 -0.0589
 9698SOL    HW133010   7.841   0.095   1.207 -0.6838 -0.5365  1.3186
 9698SOL    HW233011   7.778  -0.043   1.211 -0.5341 -0.7300 -1.3532
 9699SOL     OW33012   7.908   2.187   5.543  0.0139 -0.1532 -0.3684
 9699SOL    HW133013   7.813   2.171   5.542  0.0377 -0.3860  0.5896
 9699SOL    HW233014   7.942   2.132   5.473 -0.3793 -1.2884  0.3067
 9700SOL     OW33015   7.152   0.081   1.089  0.1032 -0.0097 -0.1014
 9700SOL    HW133016   7.152  -0.011   1.065 -1.7808 -0.0365 -0.1080
 9700SOL    HW233017   7.189   0.125   1.012 -0.7098 -0.5986 -0.8495
 9701SOL     OW33018   2.445   7.450   7.800  0.5309  0.3897 -0.7060
 9701SOL    HW133019   2.487   7.487   7.722  0.8358  0.3138 -0.5783
 9701SOL    HW233020   2.516   7.412   7.850  0.3099  0.2685 -0.4806
 9702SOL     OW33021   8.485   8.813   8.822 -0.0516  0.4225  1.0546
 9702SOL    HW133022   8.515   8.722   8.820  3.2043  1.3621 -0.1187
 9702SOL    HW233023   8.499   8.844   8.732  2.6732  3.0299  2.2065
 9703SOL     OW33024   7.267   5.673   1.363 -0.3195  0.0194 -0.0520
 9703SOL    HW133025   7.277   5.714   1.277  1.8972 -0.1328  0.0618
 9703SOL    HW233026   7.217   5.736   1.415 -0.9057  0.5034 -1.1766
 9704SOL     OW33027   3.729   4.504   0.209 -0.4596 -0.6171  0.7452
 9704SOL    HW133028   3.811   4.537   0.171 -0.8330 -0.1240  0.3611
 9704SOL    HW233029   3.729   4.410   0.187 -0.0018 -0.6183  0.7377
 9705SOL     OW33030   8.173   5.032   6.476  0.2129 -0.5413  0.2284
 9705SOL    HW133031   8.097   5.086   6.457  0.5387 -0.2620 -0.3204
 9705SOL    HW233032   8.239   5.061   6.413  0.7170 -0.8946  0.5852
 9706SOL     OW33033   8.408   4.433   2.577  0.7368  0.3113  0.4815
 9706SOL    HW133034   8.377   4.484   2.652  0.8675 -1.3180  1.6914
 9706SOL    HW233035   8.352   4.461   2.504 -0.0684  1.1942  1.4107
 9707SOL     OW33036   5.808   6.894   3.261  0.3221 -0.0064  0.4978
 9707SOL    HW133037   5.819   6.855   3.174  1.6562 -1.3095  1.2101
 9707SOL    HW233038   5.860   6.975   3.258  0.4852 -0.1223  0.1321
 9708SOL     OW33039   3.251   7.657   9.284  0.1508 -0.6870  0.2516
 9708SOL    HW133040   3.258   7.752   9.286  1.0910 -0.7702  1.1634
 9708SOL    HW233041   3.182   7.636   9.346 -0.4238 -0.5835 -0.3372
 9709SOL     OW33042   3.687   3.503   5.353  0.1324 -0.1211  0.0493
 9709SOL    HW133043   3.749   3.467   5.290 -0.9986 -0.4788 -0.8949
 9709SOL    HW233044   3.728   3.488   5.438  0.5368 -1.9712 -0.4300
 9710SOL     OW33045   4.385   3.882   0.893  0.3761 -0.4755 -0.2870
 9710SOL    HW133046   4.317   3.822   0.862 -0.3297 -0.3549  0.9346
 9710SOL    HW233047   4.372   3.961   0.842 -0.1436 -0.6000 -0.3523
 9711SOL     OW33048   4.917   7.907   5.281  0.1236 -0.2963  0.2173
 9711SOL    HW133049   4.842   7.848   5.294 -0.4805  0.6923  1.3761
 9711SOL    HW233050   4.913   7.929   5.188  0.4265 -2.1373 -0.2743
 9712SOL     OW33051   0.433   7.719   3.366 -0.0089  0.0529  0.1022
 9712SOL    HW133052   0.425   7.661   3.442  0.7089 -1.1220 -0.6905
 9712SOL    HW233053   0.461   7.803   3.403  1.5718 -0.8432  1.0346
 9713SOL     OW33054   4.281   1.374   3.934  0.1205  0.3210  0.3236
 9713SOL    HW133055   4.273   1.325   3.853 -2.3794 -1.3278  1.4409
 9713SOL    HW233056   4.341   1.445   3.913  2.0636 -1.8289 -2.0465
 9714SOL     OW33057   4.038   1.164   6.227  0.1752  0.1095  0.3102
 9714SOL    HW133058   3.995   1.136   6.146 -0.0766  1.3107  0.0046
 9714SOL    HW233059   4.013   1.098   6.292 -1.3628  0.2479 -0.0875
 9715SOL     OW33060   1.786   7.756   0.315  1.0537 -0.5241 -0.4556
 9715SOL    HW133061   1.740   7.673   0.323  3.0511 -1.7583 -1.2006
 9715SOL    HW233062   1.772   7.799   0.400 -3.5215  0.4158 -1.4060
 9716SOL     OW33063   0.223   5.158   1.214 -0.7704  0.5997 -0.1071
 9716SOL    HW133064   0.228   5.252   1.196 -0.0948  0.3806 -1.1307
 9716SOL    HW233065   0.297   5.120   1.167 -1.4753 -0.5405 -0.3435
 9717SOL     OW33066   3.612   7.806   2.585 -0.2255 -0.3280 -0.0189
 9717SOL    HW133067   3.566   7.774   2.507 -0.2622  1.1536 -0.6399
 9717SOL    HW233068   3.679   7.864   2.550  1.0460 -1.1538  0.9717
 9718SOL     OW33069   5.919   7.086   2.643 -0.0311  0.3775 -0.8035
 9718SOL    HW133070   5.839   7.138   2.645 -0.4396 -0.2568 -0.0105
 9718SOL    HW233071   5.917   7.042   2.558 -1.7067 -1.3956  0.0790
 9719SOL     OW33072   5.006   4.756   6.397 -0.5147 -0.2217  0.4027
 9719SOL    HW133073   4.922   4.718   6.371 -0.6521 -0.1267  0.6946
 9719SOL    HW233074   4.997   4.849   6.379  0.6526 -0.5718 -2.5090
 9720SOL     OW33075   1.945   0.730   9.841 -0.2483  0.0818  0.2571
 9720SOL    HW133076   1.899   0.743   9.758 -1.2388 -0.5779  0.6879
 9720SOL    HW233077   2.013   0.665   9.822  0.1062  0.5870 -0.2313
 9721SOL     OW33078   3.952   9.168   2.359 -0.0180 -0.4216 -0.3784
 9721SOL    HW133079   4.015   9.145   2.428 -0.5703 -1.8765 -0.3357
 9721SOL    HW233080   3.966   9.262   2.346  1.3621 -0.4722  0.4328
 9722SOL     OW33081   2.664   0.626   2.937  0.3664 -0.1368 -0.3196
 9722SOL    HW133082   2.641   0.706   2.985 -1.3462 -1.0234  0.4437
 9722SOL    HW233083   2.646   0.647   2.846 -0.6422  0.1879 -0.0653
 9723SOL     OW33084   7.637   6.665   5.714  0.1025 -0.1985 -0.3790
 9723SOL    HW133085   7.621   6.589   5.658  0.4456 -0.3668 -0.2539
 9723SOL    HW233086   7.674   6.731   5.655  0.7740 -0.4884 -0.3015
 9724SOL     OW33087   6.030   4.984   3.425  0.3912  0.5725 -0.0420
 9724SOL    HW133088   6.084   5.052   3.466 -0.1061  0.9556 -0.0145
 9724SOL    HW233089   5.993   4.935   3.498 -0.6410  1.3698 -0.0151
 9725SOL     OW33090   3.513   9.143   0.069 -0.0226  0.6439 -0.1663
 9725SOL    HW133091   3.545   9.060   0.104 -1.1566  0.3155  0.1426
 9725SOL    HW233092   3.551   9.149  -0.018 -1.4448 -1.1723 -0.9767
 9726SOL     OW33093   5.839   0.976   3.507  0.4556  0.0339 -0.2266
 9726SOL    HW133094   5.866   1.022   3.587 -1.7037  0.7229  0.1819
 9726SOL    HW233095   5.794   1.043   3.455 -0.2689 -0.9614 -0.9215
 9727SOL     OW33096   7.186   7.129   6.444 -0.1540  0.0032 -0.2261
 9727SOL    HW133097   7.258   7.091   6.493 -0.0152 -1.0377 -1.1763
 9727SOL    HW233098   7.224   7.150   6.358 -0.7429  0.3434 -0.4082
 9728SOL     OW33099   9.860   4.609   6.805 -0.4539  0.1350  0.4903
 9728SOL    HW133100   9.927   4.587   6.741  0.7919  3.5619  0.4598
 9728SOL    HW233101   9.783   4.558   6.778  0.5084  0.2083 -2.7228
 9729SOL     OW33102   2.907   9.516   6.965 -0.5061 -0.3533  0.8887
 9729SOL    HW133103   2.825   9.534   7.012 -0.3899  0.2405  0.8713
 9729SOL    HW233104   2.880   9.461   6.891 -0.8594 -0.3259  0.9939
 9730SOL     OW33105   2.682   0.374   7.153 -0.0860  0.1247 -0.0215
 9730SOL    HW133106   2.770   0.411   7.142  0.2791 -0.7220 -0.0436
 9730SOL    HW233107   2.642   0.427   7.222 -0.4460  2.0788 -1.6267
 9731SOL     OW33108   3.062   5.001   7.264  0.4657  0.1740  0.0466
 9731SOL    HW133109   3.062   5.095   7.245  1.4486  0.6210  1.9990
 9731SOL    HW233110   3.143   4.986   7.313 -0.0125 -1.5681  0.3898
 9732SOL     OW33111   7.162   6.121   6.821  0.2449  0.0086  0.2568
 9732SOL    HW133112   7.118   6.133   6.737 -0.3812 -0.1518  0.5590
 9732SOL    HW233113   7.256   6.120   6.799  0.1364  0.9541 -0.3205
 9733SOL     OW33114   3.347  10.103   5.984 -0.2872  0.7157 -0.4468
 9733SOL    HW133115   3.398  10.094   6.065  0.7043  0.6124 -1.0702
 9733SOL    HW233116   3.296  10.183   5.997  0.2574  0.9901  0.0773
 9734SOL     OW33117  10.161   0.377   3.791 -0.7035 -0.3066 -0.4279
 9734SOL    HW133118  10.244   0.404   3.752 -1.3142 -0.1664 -1.7145
 9734SOL    HW233119  10.146   0.289   3.756  0.7138 -2.0174  2.8329
 9735SOL     OW33120   7.249   2.396   3.419 -0.0867 -0.0388  1.1310
 9735SOL    HW133121   7.235   2.490   3.415 -0.2816 -0.0933  0.0971
 9735SOL    HW233122   7.342   2.386   3.440  1.1394  0.4851 -3.0994
 9736SOL     OW33123   0.798   2.091   5.729 -0.6960  0.5940  0.4937
 9736SOL    HW133124   0.764   2.031   5.663 -3.2093 -0.3478  2.4755
 9736SOL    HW233125   0.817   2.036   5.804  1.2553  1.7514  0.9144
 9737SOL     OW33126   6.269   4.759   8.580 -0.3307 -0.2132  0.5198
 9737SOL    HW133127   6.242   4.686   8.524 -0.2535 -1.2549  1.7793
 9737SOL    HW233128   6.307   4.716   8.658  1.2601  1.1834  0.5681
 9738SOL     OW33129   1.366   8.993   4.392 -0.3298 -0.5989  0.6594
 9738SOL    HW133130   1.301   8.933   4.429  0.7074 -1.0745  1.7937
 9738SOL    HW233131   1.318   9.073   4.373 -1.7662 -1.7593 -0.9285
 9739SOL     OW33132   0.301   8.600   5.438 -0.0738 -0.4912  0.3944
 9739SOL    HW133133   0.249   8.521   5.449  0.8779 -1.2660 -0.4413
 9739SOL    HW233134   0.338   8.617   5.525 -2.0464  0.3582  1.1251
 9740SOL     OW33135   9.067   1.771   1.803  0.4139 -0.0437 -0.0151
 9740SOL    HW133136   9.009   1.847   1.813  1.9774  1.3066 -0.7070
 9740SOL    HW233137   9.092   1.748   1.892 -0.1497  0.1996  0.2072
 9741SOL     OW33138   5.403   2.108   8.932  0.0080  0.3211 -0.3016
 9741SOL    HW133139   5.355   2.035   8.893 -2.0059  0.9376  0.9219
 9741SOL    HW233140   5.484   2.113   8.881 -0.5952 -1.6311 -1.5414
 9742SOL     OW33141   4.584   1.336   2.413  0.0051 -0.2959  0.3177
 9742SOL    HW133142   4.663   1.370   2.455  0.3828  1.2962 -1.5421
 9742SOL    HW233143   4.568   1.252   2.456  2.4484 -0.4614  1.0483
 9743SOL     OW33144   4.195   3.139   9.782  0.4148 -0.0756 -0.0086
 9743SOL    HW133145   4.154   3.052   9.790 -0.3142  0.2457 -0.0984
 9743SOL    HW233146   4.183   3.162   9.690  2.0703 -0.5598 -0.3785
 9744SOL     OW33147   7.100   9.971   1.922  0.3900  0.9263 -0.3047
 9744SOL    HW133148   7.146   9.973   1.838 -0.3915  1.2275 -0.7350
 9744SOL    HW233149   7.108  10.060   1.956 -0.6609  1.2338 -0.8259
 9745SOL     OW33150   3.767   2.357   8.605 -0.2507 -0.4155 -0.3165
 9745SOL    HW133151   3.787   2.361   8.698  0.7382  1.2435 -0.5655
 9745SOL    HW233152   3.839   2.307   8.567 -0.1450 -0.2756 -0.3029
 9746SOL     OW33153   1.008   7.363   3.628 -0.8068 -0.2580 -0.5467
 9746SOL    HW133154   1.038   7.385   3.716  1.1368  3.0434 -1.8341
 9746SOL    HW233155   0.967   7.277   3.637  1.4387 -1.1711  3.0977
 9747SOL     OW33156   9.032   7.541   2.099  0.1237  0.0312  0.0872
 9747SOL    HW133157   9.053   7.618   2.047 -0.9224  0.1413 -0.1975
 9747SOL    HW233158   9.112   7.488   2.097 -0.1313 -0.3704 -2.3870
 9748SOL     OW33159   3.773   8.378   7.108 -0.1474 -0.6137 -0.3265
 9748SOL    HW133160   3.796   8.467   7.138  0.7963 -0.6551 -0.8885
 9748SOL    HW233161   3.857   8.337   7.090 -0.5781 -1.6685  0.0257
 9749SOL     OW33162   3.426   0.680   9.298 -0.6361 -0.0224 -0.2537
 9749SOL    HW133163   3.348   0.631   9.271 -0.4868  0.8932 -2.5750
 9749SOL    HW233164   3.499   0.621   9.279 -0.6130  0.1011 -0.5506
 9750SOL     OW33165   8.772   7.298   6.473 -0.1021 -0.1339 -0.1727
 9750SOL    HW133166   8.738   7.369   6.418  1.8624  0.4184 -0.7805
 9750SOL    HW233167   8.738   7.317   6.560 -2.8388 -0.7120 -1.0188
 9751SOL     OW33168   6.498   9.159   0.735  0.4031 -0.1792  0.6630
 9751SOL    HW133169   6.568   9.149   0.800 -1.0358  1.1180  2.5396
 9751SOL    HW233170   6.427   9.103   0.768 -0.5911  1.0100  0.5988
 9752SOL     OW33171   7.038   2.779   2.618  0.0288  0.4907  0.3295
 9752SOL    HW133172   6.959   2.816   2.658 -0.3660 -1.1406  1.1535
 9752SOL    HW233173   7.105   2.845   2.631 -0.6460  0.9420  1.7387
 9753SOL     OW33174   4.282   4.340   9.512  0.1580 -0.4000 -0.0681
 9753SOL    HW133175   4.302   4.427   9.478  0.6879  0.2842  1.8309
 9753SOL    HW233176   4.341   4.330   9.587 -2.2241 -0.9430  1.8765
 9754SOL     OW33177   1.793   6.845   7.752 -0.4550  0.0185  0.3166
 9754SOL    HW133178   1.703   6.830   7.781 -0.5095 -0.0911  0.0906
 9754SOL    HW233179   1.784   6.892   7.669 -0.3528 -1.7399 -0.7339
 9755SOL     OW33180   7.504   7.332   6.136 -0.2072 -0.5756  0.4626
 9755SOL    HW133181   7.508   7.420   6.098 -1.6653  0.6658  2.9422
 9755SOL    HW233182   7.572   7.332   6.202  0.9293 -1.9759 -0.6597
 9756SOL     OW33183   8.366   2.764   0.749 -0.3084 -0.2961 -0.0671
 9756SOL    HW133184   8.352   2.818   0.672 -0.7984  0.5851  0.6174
 9756SOL    HW233185   8.457   2.778   0.773  0.1437 -1.3996 -1.0876
 9757SOL     OW33186   1.409   0.135   3.190 -0.0360  0.2329 -0.4833
 9757SOL    HW133187   1.468   0.085   3.246 -0.8761 -1.2515 -0.8536
 9757SOL    HW233188   1.383   0.210   3.244 -2.5797 -2.2534  2.1385
 9758SOL     OW33189   8.411   0.373   6.311  0.1306 -0.1482 -0.1652
 9758SOL    HW133190   8.432   0.466   6.325 -1.0235  0.0442  0.3985
 9758SOL    HW233191   8.494   0.327   6.326  0.4359  0.6794  0.8217
 9759SOL     OW33192   2.772   4.054   8.432  0.2094  0.3008  0.2052
 9759SOL    HW133193   2.834   4.127   8.436  0.6834 -0.1360  1.6333
 9759SOL    HW233194   2.810   3.993   8.369  0.4196  0.7508 -0.1057
 9760SOL     OW33195   2.385   3.539   8.316  0.0279 -0.3011  0.2709
 9760SOL    HW133196   2.306   3.517   8.267 -0.3867  0.2208  0.6757
 9760SOL    HW233197   2.389   3.474   8.386  0.4014 -0.8074 -0.2181
 9761SOL     OW33198   0.007   3.648   8.441  0.4209  0.2306  0.1245
 9761SOL    HW133199   0.005   3.573   8.501 -3.1260 -2.4601 -2.8605
 9761SOL    HW233200  -0.070   3.700   8.466 -0.6356 -0.4964 -1.4413
 9762SOL     OW33201   9.289   1.607   5.857 -0.6119 -0.4745  0.0145
 9762SOL    HW133202   9.298   1.607   5.952 -0.9811  1.7774  0.0952
 9762SOL    HW233203   9.240   1.527   5.837 -1.1718 -0.6054  1.7755
 9763SOL     OW33204   4.483   6.136   0.267 -0.0148 -0.4013 -0.2757
 9763SOL    HW133205   4.404   6.189   0.277 -1.3884 -1.7180 -3.1650
 9763SOL    HW233206   4.460   6.070   0.201  3.7330 -0.3551 -1.8545
 9764SOL     OW33207   8.656   6.737   4.121 -0.2553  0.5239  0.4179
 9764SOL    HW133208   8.635   6.715   4.030  2.5964 -1.1433  0.0463
 9764SOL    HW233209   8.613   6.669   4.172  1.3109 -0.8963 -0.0608
 9765SOL     OW33210   7.207   8.281   1.035  0.4727 -0.3449 -0.0530
 9765SOL    HW133211   7.256   8.236   0.966  0.7216 -1.4030  0.7861
 9765SOL    HW233212   7.192   8.369   1.000  1.7546 -0.4305 -0.9026
 9766SOL     OW33213   5.791   1.291   7.570  0.4168  0.0924 -0.0956
 9766SOL    HW133214   5.746   1.277   7.654 -0.5889 -0.0426 -0.6505
 9766SOL    HW233215   5.884   1.279   7.591  0.0028 -3.0342  0.4208
 9767SOL     OW33216   6.564   4.001   7.469 -0.1711 -0.2243  0.0912
 9767SOL    HW133217   6.546   3.977   7.378 -0.5108 -0.7025  0.2793
 9767SOL    HW233218   6.479   3.995   7.513 -0.1668  0.8089  0.2694
 9768SOL     OW33219   2.420   6.605   2.175 -0.3827 -0.4084 -0.1643
 9768SOL    HW133220   2.453   6.620   2.264 -1.8401 -1.5323  0.6010
 9768SOL    HW233221   2.333   6.646   2.175 -0.6231 -0.9074 -0.9012
 9769SOL     OW33222   3.428   9.070   5.512 -0.4919 -0.9632  0.3072
 9769SOL    HW133223   3.508   9.042   5.557  0.8874 -0.5691 -1.7289
 9769SOL    HW233224   3.379   9.119   5.578  0.6985 -1.6539  1.7664
 9770SOL     OW33225   3.514   4.849   2.114  0.5824 -0.0225 -0.1561
 9770SOL    HW133226   3.605   4.839   2.086  0.2351 -0.6233 -1.1313
 9770SOL    HW233227   3.462   4.820   2.039 -0.4200 -0.0200  0.5066
 9771SOL     OW33228   3.755   3.887   9.207  0.3267  0.3104  0.3819
 9771SOL    HW133229   3.775   3.794   9.206 -0.4324  0.1311 -0.7221
 9771SOL    HW233230   3.831   3.928   9.250  1.1127 -0.7174  0.0198
 9772SOL     OW33231   0.303   6.071   1.334 -0.1390 -0.2391 -0.2502
 9772SOL    HW133232   0.371   6.017   1.375  1.5230  0.2461 -2.2226
 9772SOL    HW233233   0.308   6.050   1.241 -3.0271 -0.4762 -0.4380
 9773SOL     OW33234   6.521   9.770   7.307  0.4403 -0.3112 -0.8424
 9773SOL    HW133235   6.427   9.753   7.302 -0.0445  1.5203  0.9859
 9773SOL    HW233236   6.561   9.685   7.286 -1.5243 -0.7637 -3.2365
 9774SOL     OW33237   0.697   9.691   1.151  0.3679 -0.7221  0.1590
 9774SOL    HW133238   0.674   9.598   1.154  0.8391 -0.8985 -1.1709
 9774SOL    HW233239   0.618   9.735   1.121  1.0077 -1.0669 -2.1796
 9775SOL     OW33240   8.729   3.483   7.762 -0.1632 -0.3927 -0.2398
 9775SOL    HW133241   8.770   3.485   7.676  1.2373  0.5989  0.4101
 9775SOL    HW233242   8.684   3.567   7.769  1.8089  0.6470  0.9052
 9776SOL     OW33243   3.266   2.311   0.085 -0.3366 -0.3031  0.3057
 9776SOL    HW133244   3.334   2.289   0.022 -2.6319 -1.7424 -1.8633
 9776SOL    HW233245   3.194   2.345   0.032 -1.3902  1.0753  2.4790
 9777SOL     OW33246   1.431   1.732   2.519 -0.0904 -0.2268 -0.4519
 9777SOL    HW133247   1.486   1.655   2.531 -1.1271 -1.0376 -0.8453
 9777SOL    HW233248   1.351   1.713   2.567 -0.4672  0.4922 -0.7782
 9778SOL     OW33249   1.654   4.444   5.247  0.0749 -0.2926 -0.3774
 9778SOL    HW133250   1.580   4.384   5.259 -0.1396  0.2276  1.0897
 9778SOL    HW233251   1.711   4.400   5.185 -1.9625 -0.2387 -2.4363
 9779SOL     OW33252   0.495   4.035   0.421 -0.3270  0.0935 -0.3054
 9779SOL    HW133253   0.541   3.954   0.445  0.4885  0.1752 -1.4942
 9779SOL    HW233254   0.559   4.084   0.369 -1.6642  0.3178 -1.8131
 9780SOL     OW33255   2.435   8.588   1.428 -0.1967 -0.4662 -0.5987
 9780SOL    HW133256   2.391   8.535   1.494 -1.2458  0.1469 -0.7785
 9780SOL    HW233257   2.366   8.644   1.392  0.9792  1.5218  0.0737
 9781SOL     OW33258   8.200   3.435   1.344  0.1515 -0.0346 -0.0926
 9781SOL    HW133259   8.172   3.346   1.320 -1.0335  0.6084 -1.2325
 9781SOL    HW233260   8.189   3.439   1.439 -0.2482 -0.9531 -0.0900
 9782SOL     OW33261   4.682   6.887   0.149 -0.3253 -0.0440 -0.6400
 9782SOL    HW133262   4.683   6.938   0.230 -0.5316  0.6766 -1.0793
 9782SOL    HW233263   4.693   6.952   0.079 -1.3811 -0.5013 -1.2604
 9783SOL     OW33264   1.390   0.417   5.006  0.0709  0.6945  0.2172
 9783SOL    HW133265   1.310   0.437   4.956 -0.7050 -0.5452  0.8851
 9783SOL    HW233266   1.441   0.361   4.947 -1.1385 -1.3035  0.9451
 9784SOL     OW33267   2.812   5.790   6.141  0.1013  0.6229 -0.2731
 9784SOL    HW133268   2.739   5.833   6.097 -0.4955 -0.6745 -0.5809
 9784SOL    HW233269   2.840   5.721   6.081 -1.7585 -2.2437  1.9143
 9785SOL     OW33270   0.429   0.916   1.284  0.0643 -0.6557 -0.1211
 9785SOL    HW133271   0.465   0.839   1.328 -2.4506 -1.4871  0.6664
 9785SOL    HW233272   0.450   0.903   1.192  1.4475 -1.2253  0.2455
 9786SOL     OW33273   5.432   3.168   6.341  0.0886  0.2413  0.0505
 9786SOL    HW133274   5.432   3.111   6.263  0.7606  0.7449 -0.3289
 9786SOL    HW233275   5.402   3.111   6.412  0.8039 -0.6050 -0.3108
 9787SOL     OW33276   6.740   8.290   2.067  0.4620 -0.6500 -0.6608
 9787SOL    HW133277   6.669   8.287   2.132  1.6176 -0.1951  0.6685
 9787SOL    HW233278   6.708   8.350   2.000 -0.5986 -0.8011 -0.3099
 9788SOL     OW33279   7.009   7.659   5.896 -0.2360  0.4774  0.1138
 9788SOL    HW133280   6.933   7.703   5.934  1.0995  3.0449  0.0470
 9788SOL    HW233281   7.069   7.730   5.874  1.5187 -1.3388 -1.3512
 9789SOL     OW33282   5.556   1.487   6.688 -0.1633 -0.4002  0.3609
 9789SOL    HW133283   5.587   1.419   6.747 -3.1502 -3.3627 -1.1678
 9789SOL    HW233284   5.602   1.471   6.606  1.0016  1.1464  0.6704
 9790SOL     OW33285   3.807   5.814   6.861  0.1207  0.3306 -0.2389
 9790SOL    HW133286   3.743   5.745   6.875 -0.7350  0.7696 -1.8310
 9790SOL    HW233287   3.825   5.812   6.767  1.9688  0.6434  0.0721
 9791SOL     OW33288   5.785   3.970   3.977  0.4452  0.1068 -0.4832
 9791SOL    HW133289   5.755   4.046   3.927 -1.3531 -0.4891 -0.4099
 9791SOL    HW233290   5.815   4.007   4.060  0.9274  0.8529 -0.9765
 9792SOL     OW33291   0.087   0.412   6.663 -0.2817  0.3164  0.7864
 9792SOL    HW133292   0.115   0.320   6.656  0.6536  0.5923  0.7202
 9792SOL    HW233293   0.165   0.458   6.694 -0.0520  1.4576 -1.3408
 9793SOL     OW33294   8.568   9.736   5.141 -0.1532  0.1186 -0.5498
 9793SOL    HW133295   8.519   9.727   5.223  2.6838  2.1635  1.5804
 9793SOL    HW233296   8.652   9.694   5.159  1.3869  2.5841 -1.5290
 9794SOL     OW33297   6.322   9.699   0.148  0.3229 -0.1928 -0.2113
 9794SOL    HW133298   6.284   9.613   0.164  2.1432 -0.8992  0.5574
 9794SOL    HW233299   6.388   9.685   0.080  0.7681  0.5524  0.0497
 9795SOL     OW33300   9.873   6.663   6.395 -0.6663  0.2128 -0.4162
 9795SOL    HW133301   9.958   6.621   6.404 -0.7831  0.2720  1.3731
 9795SOL    HW233302   9.814   6.592   6.368 -0.0459  0.2111 -1.8369
 9796SOL     OW33303   6.685   1.478   8.804 -0.0582 -0.3298  0.3968
 9796SOL    HW133304   6.780   1.489   8.802 -0.2527  2.8642 -2.9552
 9796SOL    HW233305   6.656   1.527   8.881  0.9368 -1.5499  1.5942
 9797SOL     OW33306   5.144   0.208   6.724 -0.3633 -0.6496 -0.3701
 9797SOL    HW133307   5.106   0.287   6.688  0.2761  0.0538  0.4435
 9797SOL    HW233308   5.193   0.169   6.651 -0.5215 -0.1925 -0.7232
 9798SOL     OW33309   7.355   5.999   9.329  0.6897 -0.2729 -0.0302
 9798SOL    HW133310   7.449   5.991   9.313  0.7595  0.0728  0.1998
 9798SOL    HW233311   7.315   5.983   9.243  1.0132  0.6776 -0.3769
 9799SOL     OW33312   0.448   4.812   7.496 -0.0078 -0.4439  0.0649
 9799SOL    HW133313   0.381   4.744   7.502 -1.5832  1.1339  1.7391
 9799SOL    HW233314   0.423   4.863   7.419 -0.3434 -0.2767  0.2800
 9800SOL     OW33315   5.468   0.722   8.632  0.0570 -0.0268 -0.8667
 9800SOL    HW133316   5.453   0.632   8.604 -0.7889  0.4116 -1.8593
 9800SOL    HW233317   5.529   0.757   8.567  1.4640 -0.2488  0.2620
 9801SOL     OW33318   9.236   2.084   8.018  0.2739  0.5228 -0.2117
 9801SOL    HW133319   9.267   2.128   7.939  1.1870 -3.1227 -2.1155
 9801SOL    HW233320   9.315   2.049   8.059 -0.4770 -0.3986  0.5060
 9802SOL     OW33321   3.987   7.941   3.880  0.4321  0.0083 -0.3398
 9802SOL    HW133322   3.972   7.915   3.789  0.9005  0.1181 -0.4530
 9802SOL    HW233323   4.080   7.965   3.882 -0.1579  2.6098 -0.5018
 9803SOL     OW33324   6.822   2.659   6.741  0.3974  0.1600 -0.1303
 9803SOL    HW133325   6.847   2.566   6.736  1.1600  0.2604  1.4508
 9803SOL    HW233326   6.780   2.668   6.826  0.6626  1.3526 -0.1108
 9804SOL     OW33327   0.390   5.148   6.680  0.5750  0.0333  0.1897
 9804SOL    HW133328   0.333   5.127   6.606  0.7345 -0.1361  0.1154
 9804SOL    HW233329   0.471   5.101   6.662  0.6522  0.0780  0.4205
 9805SOL     OW33330   7.608   8.257   0.461  0.2844  0.1198  0.2309
 9805SOL    HW133331   7.687   8.306   0.439 -0.0357  0.1022 -1.0422
 9805SOL    HW233332   7.539   8.324   0.465  0.3931  0.1743  1.6081
 9806SOL     OW33333   0.369   4.427   4.010  0.0040 -0.5162  0.5510
 9806SOL    HW133334   0.313   4.459   4.081  1.2444  1.8785  0.5427
 9806SOL    HW233335   0.322   4.451   3.930  0.6504  0.8634  0.5547
 9807SOL     OW33336   9.510   4.622   5.999 -0.4586 -0.1454 -0.7961
 9807SOL    HW133337   9.502   4.551   5.935 -0.7733 -1.0735  0.2330
 9807SOL    HW233338   9.425   4.667   5.995 -0.9646 -1.0160 -0.1211
 9808SOL     OW33339   1.577   5.757   1.259 -0.2278 -0.2292  0.0942
 9808SOL    HW133340   1.491   5.792   1.236  1.2227  2.5978 -1.6454
 9808SOL    HW233341   1.626   5.833   1.290  1.7767 -1.6899  0.6796
 9809SOL     OW33342   4.054   9.031   5.422 -0.2155 -0.3861 -0.1213
 9809SOL    HW133343   3.967   8.992   5.409 -1.1668  1.5558  0.0862
 9809SOL    HW233344   4.055   9.107   5.365  0.7477  0.5050  1.0245
 9810SOL     OW33345   7.241   1.984   3.715 -0.4245  0.0619 -0.6274
 9810SOL    HW133346   7.296   2.043   3.664 -1.3694  1.4447 -0.1279
 9810SOL    HW233347   7.295   1.962   3.791  0.0334  0.0939 -0.9372
 9811SOL     OW33348   1.125   8.513   0.055  0.0046  0.0136  0.3207
 9811SOL    HW133349   1.032   8.494   0.042  0.0487  0.4651 -0.7548
 9811SOL    HW233350   1.148   8.465   0.134 -0.9516 -0.7697  0.1491
 9812SOL     OW33351   6.485   6.675   2.619 -0.2507  0.6183 -0.0345
 9812SOL    HW133352   6.522   6.598   2.575 -1.6026 -1.2806  1.9303
 9812SOL    HW233353   6.419   6.639   2.678 -1.8089  3.4334  0.1137
 9813SOL     OW33354   1.605   7.110   8.929 -0.2522 -0.7300 -0.1993
 9813SOL    HW133355   1.557   7.037   8.968 -0.6283 -0.0642  0.6090
 9813SOL    HW233356   1.660   7.144   9.000  0.2389 -0.4914 -0.6845
 9814SOL     OW33357   2.517   6.797   3.894  0.1773 -0.1461  0.4034
 9814SOL    HW133358   2.598   6.847   3.904 -1.0268  1.6770  1.5343
 9814SOL    HW233359   2.477   6.832   3.814  0.2030 -0.6366  0.1678
 9815SOL     OW33360   1.033   9.871   1.520 -0.4119 -0.1095  0.3988
 9815SOL    HW133361   1.116   9.842   1.559  1.1951  1.2503 -1.7690
 9815SOL    HW233362   1.002   9.794   1.471 -0.6079 -0.7066  1.4255
 9816SOL     OW33363   3.584   5.787   3.716 -0.3062  0.5270 -1.1878
 9816SOL    HW133364   3.553   5.789   3.807 -0.4241  1.1549 -1.2342
 9816SOL    HW233365   3.629   5.703   3.708 -2.8434 -0.9062 -1.4122
 9817SOL     OW33366   5.061   1.171   9.191 -0.4744  0.2609 -0.0461
 9817SOL    HW133367   4.990   1.204   9.246 -0.3622  2.3725 -1.0597
 9817SOL    HW233368   5.021   1.163   9.104 -0.1415 -1.1075 -0.0903
 9818SOL     OW33369   7.355   9.643   9.078  0.1810 -0.1104  0.1344
 9818SOL    HW133370   7.386   9.578   9.142  1.4378  0.1295 -0.2228
 9818SOL    HW233371   7.333   9.720   9.131  3.0359  0.7760  0.1478
 9819SOL     OW33372   5.459   7.976   3.532  0.6998  0.1810 -0.1684
 9819SOL    HW133373   5.527   8.029   3.574 -0.9707  2.1335  0.2105
 9819SOL    HW233374   5.458   8.005   3.441 -0.0561  0.6278 -0.0210
 9820SOL     OW33375   9.175   6.261   2.009  0.2633  0.7658  0.7627
 9820SOL    HW133376   9.183   6.299   2.097  0.0758  0.0210  1.1045
 9820SOL    HW233377   9.200   6.170   2.020  1.1669  0.8835 -0.1480
 9821SOL     OW33378   1.452   4.318   8.649  0.4707 -0.1922 -0.3663
 9821SOL    HW133379   1.393   4.247   8.624  1.5549 -1.0133 -0.7081
 9821SOL    HW233380   1.438   4.385   8.582 -1.6363  0.5892  0.7942
 9822SOL     OW33381   9.646   4.657   1.699 -0.4818 -0.2104  0.6215
 9822SOL    HW133382   9.579   4.607   1.745 -1.7019  0.4336 -0.4034
 9822SOL    HW233383   9.710   4.680   1.766 -0.4341 -2.2083  1.3194
 9823SOL     OW33384   3.549   4.121   5.886 -0.0266  0.5204  0.7435
 9823SOL    HW133385   3.524   4.031   5.867  2.1383  0.3965 -2.3163
 9823SOL    HW233386   3.614   4.113   5.956  1.2452 -0.5124 -0.5011
 9824SOL     OW33387   0.303   9.730   7.968 -0.4355 -0.0316  0.2559
 9824SOL    HW133388   0.385   9.778   7.957 -0.4289 -0.1573 -0.2881
 9824SOL    HW233389   0.326   9.655   8.023 -0.0749 -0.3275 -0.2874
 9825SOL     OW33390   1.489   1.837   4.745 -0.3434 -0.0454 -0.1199
 9825SOL    HW133391   1.535   1.900   4.690 -0.9888 -0.7357 -1.5058
 9825SOL    HW233392   1.485   1.879   4.831  0.1911  1.3254 -0.7328
 9826SOL     OW33393   6.906   6.789   0.163  0.2089  0.1502  0.0601
 9826SOL    HW133394   6.930   6.784   0.256  1.5218 -2.2505 -0.3225
 9826SOL    HW233395   6.813   6.811   0.163  0.0677 -0.2695  1.9706
 9827SOL     OW33396   6.095   2.908   2.404  0.2389  0.4179 -0.0081
 9827SOL    HW133397   6.039   2.954   2.467  1.1758  0.5074  0.7776
 9827SOL    HW233398   6.033   2.864   2.346 -0.6775 -0.9547  1.9021
 9828SOL     OW33399   2.064   3.321   9.968  0.4092  1.3103 -0.2624
 9828SOL    HW133400   2.113   3.268   9.905  2.0343 -0.6205  2.4435
 9828SOL    HW233401   2.129   3.379  10.007  0.0817  0.4743  1.6151
 9829SOL     OW33402   2.206   0.747   0.238  0.5730 -0.1358  0.8447
 9829SOL    HW133403   2.160   0.824   0.272  0.5466  0.3921 -0.3366
 9829SOL    HW233404   2.241   0.775   0.153  1.6755 -1.0319  0.9687
 9830SOL     OW33405   6.048   6.649   6.293 -0.0245  0.5907  0.9431
 9830SOL    HW133406   6.043   6.615   6.382 -0.0045  0.1504  0.7796
 9830SOL    HW233407   5.980   6.717   6.289 -1.3023 -0.6575  0.7493
 9831SOL     OW33408   8.113   0.979   4.700 -0.2058 -0.0321  0.5695
 9831SOL    HW133409   8.201   0.999   4.734 -0.2900  3.3028 -0.8168
 9831SOL    HW233410   8.106   1.030   4.620 -2.3242 -2.7211 -1.1330
 9832SOL     OW33411   4.032   5.927   2.429 -0.2999 -0.1785 -0.3597
 9832SOL    HW133412   3.963   5.958   2.488  1.1523 -0.5608  1.6260
 9832SOL    HW233413   4.089   6.002   2.417 -0.8888  0.0769 -1.8395
 9833SOL     OW33414   8.390   1.395   2.536  0.3938  0.3374 -0.5531
 9833SOL    HW133415   8.426   1.483   2.541  0.9735  0.0468  0.6319
 9833SOL    HW233416   8.456   1.339   2.578 -0.2635 -0.5717 -0.6948
 9834SOL     OW33417   9.026   0.820   5.869 -0.4035  0.1738  0.0434
 9834SOL    HW133418   9.011   0.800   5.961  0.5435  0.3487  0.2484
 9834SOL    HW233419   8.949   0.870   5.842 -0.8312 -0.1477  0.6493
 9835SOL     OW33420   4.129   1.553   8.428 -0.4437 -0.0547 -0.8617
 9835SOL    HW133421   4.077   1.632   8.438  0.8061  0.6852  0.1490
 9835SOL    HW233422   4.092   1.491   8.491  0.2449  0.6811  0.3068
 9836SOL     OW33423   8.376   8.539   6.766  0.2265 -0.2318  0.2375
 9836SOL    HW133424   8.426   8.511   6.842 -0.6537  0.4337  1.0870
 9836SOL    HW233425   8.367   8.460   6.713  0.5271 -0.7937  1.0079
 9837SOL     OW33426   4.063   6.043   8.428 -0.6407  0.5899 -0.1278
 9837SOL    HW133427   4.153   6.073   8.425 -1.3612  2.8053 -1.8632
 9837SOL    HW233428   4.030   6.076   8.512 -0.4421  1.7390 -0.4869
 9838SOL     OW33429   2.483   6.024   5.703  0.1920 -0.4325 -0.0078
 9838SOL    HW133430   2.440   5.949   5.662 -1.1071 -0.8443  1.9453
 9838SOL    HW233431   2.419   6.056   5.767  0.2942  2.9682 -1.3683
 9839SOL     OW33432   3.377   2.275   8.093 -0.2961  0.6215 -0.7464
 9839SOL    HW133433   3.289   2.298   8.122  0.1347  0.6570  0.6188
 9839SOL    HW233434   3.400   2.198   8.145  0.2189  0.1809 -1.6024
 9840SOL     OW33435   4.425   7.514   3.867 -0.5047 -0.2740 -0.3571
 9840SOL    HW133436   4.456   7.465   3.791  0.0774  1.6607 -1.4437
 9840SOL    HW233437   4.499   7.517   3.927 -1.0190 -1.9551  0.4271
 9841SOL     OW33438   2.929   3.595   4.671  0.3851  0.4267  0.2314
 9841SOL    HW133439   2.987   3.543   4.725  1.1906  0.6783 -0.3714
 9841SOL    HW233440   2.880   3.531   4.618 -1.6275  0.0615  2.3592
 9842SOL     OW33441   1.151   0.525   4.932 -0.3789  0.2366  0.3639
 9842SOL    HW133442   1.136   0.543   4.839  0.3757 -0.0246  0.1839
 9842SOL    HW233443   1.178   0.610   4.969 -2.9917  0.9307  0.8785
 9843SOL     OW33444   2.289   6.624   7.945 -0.5380  0.7594  0.1326
 9843SOL    HW133445   2.365   6.675   7.974  1.4694 -2.0626  0.2742
 9843SOL    HW233446   2.326   6.540   7.917 -3.6208 -0.7468  0.1574
 9844SOL     OW33447   6.908   5.661   5.705 -0.2159  0.5515  0.5301
 9844SOL    HW133448   6.850   5.736   5.721 -0.5098  0.0501  2.0517
 9844SOL    HW233449   6.989   5.684   5.749 -0.4960 -0.2260  1.5022
 9845SOL     OW33450   8.315   2.437   8.375  0.3999 -0.4421  0.1576
 9845SOL    HW133451   8.343   2.468   8.461 -0.7731  1.7376 -0.1572
 9845SOL    HW233452   8.239   2.382   8.393 -0.8018  1.2374  0.5088
 9846SOL     OW33453   2.295   9.738   6.190 -0.1024 -0.0534  0.2817
 9846SOL    HW133454   2.251   9.663   6.151  0.2822  0.7157 -1.7854
 9846SOL    HW233455   2.275   9.811   6.131  0.0317  1.3556  1.8858
 9847SOL     OW33456   6.321   4.242   7.395 -0.2852  0.0966  0.1467
 9847SOL    HW133457   6.230   4.213   7.397  0.0460 -1.0503  2.1784
 9847SOL    HW233458   6.372   4.162   7.380  0.4264  0.5712 -0.0509
 9848SOL     OW33459   7.836   6.691   9.226  0.4044  0.2596  0.1696
 9848SOL    HW133460   7.800   6.679   9.138  1.6092 -0.6698 -0.2314
 9848SOL    HW233461   7.857   6.784   9.230  0.8110  0.2225 -0.7353
 9849SOL     OW33462   4.607   2.276   0.573  0.2061 -0.3405  0.2864
 9849SOL    HW133463   4.641   2.340   0.511 -1.0206  2.5495  2.3568
 9849SOL    HW233464   4.628   2.312   0.659 -2.7623 -1.3692  1.5907
 9850SOL     OW33465   7.531   1.955   2.224 -0.2536 -0.2720 -0.7140
 9850SOL    HW133466   7.624   1.977   2.220 -0.2394 -0.4707 -1.9257
 9850SOL    HW233467   7.526   1.880   2.284  0.1321  0.7599  0.6619
 9851SOL     OW33468   6.188   3.446   1.986 -0.2337  0.3207 -0.1086
 9851SOL    HW133469   6.111   3.402   1.951  1.1877 -2.4711 -0.0252
 9851SOL    HW233470   6.215   3.506   1.917 -1.6574  0.2931 -0.7210
 9852SOL     OW33471   8.279   8.306   4.898 -0.0894 -0.0696 -0.1537
 9852SOL    HW133472   8.215   8.303   4.826  0.1326 -1.2277 -0.3198
 9852SOL    HW233473   8.255   8.233   4.955 -0.4093  0.9785  1.1119
 9853SOL     OW33474   0.791   4.315   3.901 -0.3204  0.5005 -0.1865
 9853SOL    HW133475   0.771   4.358   3.984 -0.0731 -0.0153  0.1457
 9853SOL    HW233476   0.726   4.350   3.840 -0.0993  1.3800  0.0553
 9854SOL     OW33477   8.031   5.080   6.190  0.2213 -0.4313  0.3560
 9854SOL    HW133478   8.091   5.155   6.186  1.5148 -1.4767 -0.5389
 9854SOL    HW233479   8.069   5.016   6.130 -0.8880 -1.7966  1.0711
 9855SOL     OW33480   0.569   0.070   7.714 -0.4017 -0.1476  0.3436
 9855SOL    HW133481   0.551   0.138   7.779 -0.8081  0.4422 -0.3616
 9855SOL    HW233482   0.599  -0.005   7.765 -1.4090  0.0472  1.2725
 9856SOL     OW33483   2.398   1.380   2.016 -0.2920 -0.1255 -0.0048
 9856SOL    HW133484   2.307   1.380   1.988  0.4328  0.5781 -2.6687
 9856SOL    HW233485   2.438   1.451   1.965  1.9407 -1.0429  0.3668
 9857SOL     OW33486   1.676   3.097   2.853 -0.0667 -0.4622  0.3784
 9857SOL    HW133487   1.731   3.135   2.922 -0.6007  0.7253  0.1802
 9857SOL    HW233488   1.599   3.064   2.900 -0.5696  0.6116  0.3637
 9858SOL     OW33489   1.030   2.320   7.631  0.4205 -0.0285 -0.5154
 9858SOL    HW133490   1.020   2.325   7.536 -0.0404  1.6921 -0.3961
 9858SOL    HW233491   1.087   2.244   7.645  0.7123 -0.1438 -2.1734
 9859SOL     OW33492   2.248   5.018   8.729  0.2368  0.6996 -0.2737
 9859SOL    HW133493   2.306   5.019   8.804 -0.5591  0.7754  0.3621
 9859SOL    HW233494   2.195   5.098   8.739 -1.1521 -0.2355  0.1419
 9860SOL     OW33495   5.829   0.641   9.709 -0.4016 -0.1178 -0.5310
 9860SOL    HW133496   5.847   0.726   9.750 -1.1289 -0.0739 -0.2851
 9860SOL    HW233497   5.781   0.662   9.629 -1.0419 -0.3178 -0.2048
 9861SOL     OW33498   9.543   6.713   3.609 -0.0254  0.8302  0.4673
 9861SOL    HW133499   9.570   6.805   3.610  0.4791  0.6765  0.8677
 9861SOL    HW233500   9.600   6.672   3.544 -1.8113  1.2628 -1.4812
 9862SOL     OW33501   9.797   1.631   2.152 -0.7511  0.2608 -0.1206
 9862SOL    HW133502   9.828   1.563   2.212 -0.2648  0.8824  0.3434
 9862SOL    HW233503   9.704   1.610   2.140 -1.0000  0.4279  1.2803
 9863SOL     OW33504   3.193   9.407   6.823 -0.3501 -0.1102 -0.3448
 9863SOL    HW133505   3.105   9.387   6.790 -0.0819  0.3653 -1.3677
 9863SOL    HW233506   3.196   9.502   6.829  0.3246 -0.0811 -0.9880
 9864SOL     OW33507   1.963   8.469   1.728  0.4638  0.2082 -0.1723
 9864SOL    HW133508   1.918   8.501   1.806 -1.0407 -1.8687 -0.1195
 9864SOL    HW233509   1.933   8.379   1.718  0.0497  0.5935 -3.5534
 9865SOL     OW33510   4.047   6.722   1.576 -0.0759  0.0574 -0.2692
 9865SOL    HW133511   4.072   6.790   1.639 -0.1913  0.1895 -0.3665
 9865SOL    HW233512   4.060   6.763   1.491  1.6470 -0.6361 -0.3957
 9866SOL     OW33513   5.490   7.055   8.603 -0.2347 -0.2622  0.3264
 9866SOL    HW133514   5.516   7.085   8.690  1.0339 -0.9902  0.2168
 9866SOL    HW233515   5.508   6.961   8.603 -0.5587 -0.3372 -0.6077
 9867SOL     OW33516   7.271   2.878   6.837  0.6948  0.0430 -0.2996
 9867SOL    HW133517   7.308   2.849   6.921 -2.2249 -0.2630  1.0198
 9867SOL    HW233518   7.327   2.839   6.771  0.9744 -2.9405  1.4890
 9868SOL     OW33519   1.972   0.168   8.121  0.5244  0.4906 -0.4725
 9868SOL    HW133520   1.915   0.134   8.190  0.4853  2.9763  0.8247
 9868SOL    HW233521   2.055   0.121   8.134  0.0580 -0.1554  0.2966
 9869SOL     OW33522   3.539   8.248   4.575 -0.5507 -0.2607 -0.5678
 9869SOL    HW133523   3.613   8.200   4.611 -0.9452  0.1331  0.8776
 9869SOL    HW233524   3.489   8.183   4.526 -0.9313 -1.3060  1.1160
 9870SOL     OW33525   2.920   2.167   4.349  0.0827  0.3319  0.5147
 9870SOL    HW133526   2.895   2.237   4.409 -0.9719  1.0342 -0.6801
 9870SOL    HW233527   2.862   2.094   4.371  0.9350 -0.0545  1.5217
 9871SOL     OW33528   8.797   1.463   5.083  0.1320  0.0072 -0.0882
 9871SOL    HW133529   8.747   1.523   5.138 -0.0091  0.1157 -0.3368
 9871SOL    HW233530   8.888   1.491   5.095 -0.0601  1.4491 -1.5969
 9872SOL     OW33531   7.058   4.982   1.643 -0.3094  0.5367  0.0732
 9872SOL    HW133532   7.118   4.949   1.709 -0.1185 -1.9900 -1.2245
 9872SOL    HW233533   6.971   4.976   1.683 -0.0465  0.6354  0.6576
 9873SOL     OW33534   7.192   9.641   2.813 -0.6501 -0.2158  0.3003
 9873SOL    HW133535   7.187   9.547   2.828 -0.0049 -0.4422 -0.7539
 9873SOL    HW233536   7.223   9.649   2.723  0.6969  0.9935  0.8230
 9874SOL     OW33537   3.619   3.435   0.317  0.1973 -0.0882  0.1242
 9874SOL    HW133538   3.609   3.475   0.231 -0.1986  0.8185  0.5723
 9874SOL    HW233539   3.713   3.438   0.335  0.0407  2.3275  0.8911
 9875SOL     OW33540   4.579   0.019   4.130  0.1419  0.1162  0.5376
 9875SOL    HW133541   4.601  -0.062   4.176  1.3051  0.7468  1.1146
 9875SOL    HW233542   4.651   0.033   4.069  0.5351  1.2819  1.2236
 9876SOL     OW33543   8.901   3.148   5.601  0.0366  0.3064 -0.3029
 9876SOL    HW133544   8.954   3.210   5.651 -1.2266  1.1885 -0.0149
 9876SOL    HW233545   8.818   3.192   5.588 -0.2871 -0.6222 -1.6580
 9877SOL     OW33546   9.437   6.317   8.597 -0.2222  0.1338 -0.1668
 9877SOL    HW133547   9.367   6.338   8.534  0.6910 -0.6953 -1.5159
 9877SOL    HW233548   9.394   6.263   8.663 -0.7047 -1.1653 -1.4846
 9878SOL     OW33549   8.798   0.367   2.977 -0.1199  0.1033  0.1264
 9878SOL    HW133550   8.794   0.388   3.071 -1.6127 -1.4840  0.4762
 9878SOL    HW233551   8.859   0.431   2.941  1.2929  0.1362  2.3483
 9879SOL     OW33552   4.049   7.639   4.801  0.0751 -0.2923 -0.3503
 9879SOL    HW133553   4.127   7.593   4.835  0.9160  0.7950 -0.7468
 9879SOL    HW233554   4.035   7.601   4.715  0.7693  0.1736 -0.6781
 9880SOL     OW33555   6.348   3.885   0.749 -0.3060  0.0042 -0.7648
 9880SOL    HW133556   6.266   3.893   0.798  0.5027  1.4310  0.4360
 9880SOL    HW233557   6.321   3.890   0.657 -1.6560 -0.6159 -0.4198
 9881SOL     OW33558   8.500   7.026   4.684 -0.1607  0.4799 -0.2340
 9881SOL    HW133559   8.462   7.085   4.749  1.0506 -0.4806  1.4333
 9881SOL    HW233560   8.561   7.081   4.634  0.8364  0.7448  1.1878
 9882SOL     OW33561   9.845   8.087   3.458 -0.2587 -0.2336 -0.5910
 9882SOL    HW133562   9.883   8.116   3.541  0.6522 -1.7289 -0.4606
 9882SOL    HW233563   9.917   8.094   3.395 -1.1333  1.5926 -1.4628
 9883SOL     OW33564   3.312   1.922   4.986  0.0499 -0.2709  0.2033
 9883SOL    HW133565   3.294   1.943   5.078 -1.8588  2.2824 -0.6216
 9883SOL    HW233566   3.315   2.007   4.942  0.8850 -1.4059 -2.1410
 9884SOL     OW33567   2.823   2.432   9.776  0.2504  0.1935 -0.4343
 9884SOL    HW133568   2.761   2.376   9.729 -1.7026  1.7884  0.0527
 9884SOL    HW233569   2.891   2.452   9.712 -0.6161 -0.2976 -1.5511
 9885SOL     OW33570   0.673   9.469   3.141  0.1877  0.0753 -0.2312
 9885SOL    HW133571   0.694   9.375   3.144  0.6774  0.2066  0.6925
 9885SOL    HW233572   0.652   9.491   3.232 -1.7051  0.4691 -0.7137
 9886SOL     OW33573   6.650   5.401   0.182  0.1653  0.1176  0.3666
 9886SOL    HW133574   6.559   5.398   0.213  0.0053  1.8104  0.1599
 9886SOL    HW233575   6.653   5.334   0.113 -0.0706 -2.1078  2.3823
 9887SOL     OW33576   8.478   0.631   6.371 -0.2466  0.4264  0.2610
 9887SOL    HW133577   8.404   0.671   6.324 -0.5148  0.5412  0.7783
 9887SOL    HW233578   8.468   0.660   6.462  0.0694 -0.0875  0.4653
 9888SOL     OW33579   0.849   0.113   1.867  0.3287 -0.1672  0.1546
 9888SOL    HW133580   0.823   0.153   1.785  1.5750  0.1788 -0.1006
 9888SOL    HW233581   0.775   0.126   1.926 -0.6257 -0.5120 -0.9276
 9889SOL     OW33582   6.462   0.571   3.939  0.1471  0.2862 -0.8079
 9889SOL    HW133583   6.492   0.481   3.951  1.0364  0.6553 -0.1551
 9889SOL    HW233584   6.465   0.586   3.844 -0.5205 -0.5267 -0.9704
 9890SOL     OW33585   5.117   3.369   3.454  0.6051  0.3680 -0.2292
 9890SOL    HW133586   5.063   3.339   3.381  1.2272  3.0895 -1.9325
 9890SOL    HW233587   5.207   3.347   3.429  0.6793 -0.3701  0.6332
 9891SOL     OW33588   0.632   0.728   2.098  0.4440 -0.1145  0.4469
 9891SOL    HW133589   0.586   0.786   2.160  0.4339  0.8219 -0.4085
 9891SOL    HW233590   0.569   0.659   2.078 -0.8292  1.3941 -1.0531
 9892SOL     OW33591   8.836   4.505   7.198 -0.6004  0.3605 -0.0076
 9892SOL    HW133592   8.845   4.451   7.120 -0.6578 -2.1844  1.6156
 9892SOL    HW233593   8.917   4.556   7.201 -0.0923 -0.3428 -1.1140
 9893SOL     OW33594   5.582   1.059   9.861 -0.2782 -0.2601  0.1925
 9893SOL    HW133595   5.603   1.007   9.939  0.3612 -0.1963  0.0681
 9893SOL    HW233596   5.508   1.014   9.821  0.0031 -0.8330  0.3178
 9894SOL     OW33597   1.804   9.027   3.203  0.8727  0.6726 -0.0499
 9894SOL    HW133598   1.840   9.096   3.259 -0.5712  0.2351  1.5054
 9894SOL    HW233599   1.709   9.036   3.211  0.6346  0.1399 -1.9068
 9895SOL     OW33600   2.994   7.196   8.791  0.8313 -0.3504 -0.1479
 9895SOL    HW133601   2.918   7.254   8.785 -1.0885 -2.5362  1.5231
 9895SOL    HW233602   3.060   7.249   8.836 -0.9660  0.4819  1.6505
 9896SOL     OW33603   9.554   3.296   5.366  0.1196  0.3844 -0.0488
 9896SOL    HW133604   9.479   3.271   5.420  0.7305  1.0802  1.1738
 9896SOL    HW233605   9.629   3.258   5.411  0.6643  1.1596 -0.2758
 9897SOL     OW33606   1.220   9.381   3.128  0.0329  0.4558  0.2503
 9897SOL    HW133607   1.250   9.316   3.191 -0.1675  0.3519  0.2394
 9897SOL    HW233608   1.125   9.370   3.126  0.1507 -0.5400 -1.1577
 9898SOL     OW33609   8.068   3.173   0.676 -0.0343 -0.1349  0.4828
 9898SOL    HW133610   7.994   3.112   0.681  1.0108 -1.4475  0.3048
 9898SOL    HW233611   8.057   3.217   0.591  0.3861 -1.6708 -0.4007
 9899SOL     OW33612   3.104   2.685   1.665 -0.0602  0.6576 -0.0029
 9899SOL    HW133613   3.125   2.735   1.744 -0.1964  0.4622  0.1587
 9899SOL    HW233614   3.189   2.656   1.632 -0.0358  0.2505  0.3976
 9900SOL     OW33615   1.480   6.002  10.084  0.1727 -0.1693 -0.2944
 9900SOL    HW133616   1.517   6.081  10.121 -0.1041  0.0625 -0.5067
 9900SOL    HW233617   1.436   6.031  10.004  0.0782 -0.5359 -0.3789
 9901SOL     OW33618   1.092   6.967   2.584 -0.0291  0.2728 -0.3549
 9901SOL    HW133619   1.106   6.956   2.490 -0.7149 -0.0794 -0.4262
 9901SOL    HW233620   1.136   6.893   2.624  0.5815  0.6241 -0.3643
 9902SOL     OW33621   7.077   3.122   5.379 -0.7889 -0.4345  0.1642
 9902SOL    HW133622   7.138   3.050   5.362 -0.0539  0.4907 -1.3023
 9902SOL    HW233623   7.040   3.102   5.465  0.3363 -1.8967  0.3477
 9903SOL     OW33624   2.118   4.535   3.639 -0.1215 -0.2911  0.2624
 9903SOL    HW133625   2.198   4.579   3.610  1.0500 -1.8982  0.8672
 9903SOL    HW233626   2.100   4.470   3.570  1.2456 -2.4195  1.7991
 9904SOL     OW33627   2.750   8.725   8.098  0.3264 -0.1850  0.3763
 9904SOL    HW133628   2.654   8.734   8.101  0.4255  0.8479  0.7897
 9904SOL    HW233629   2.769   8.655   8.161 -0.2135 -0.9922 -0.3348
 9905SOL     OW33630   2.951   0.677   9.090 -0.6807  0.0883 -0.0085
 9905SOL    HW133631   3.027   0.648   9.140 -0.1274  1.8214  0.2187
 9905SOL    HW233632   2.941   0.612   9.021 -1.0357 -2.0041  1.8900
 9906SOL     OW33633   7.539   8.710   1.500 -0.4432 -0.2276  0.2459
 9906SOL    HW133634   7.552   8.747   1.588 -1.3214  1.8118 -0.4247
 9906SOL    HW233635   7.549   8.784   1.441 -0.3111 -1.4811 -1.3676
 9907SOL     OW33636   4.436   2.061   0.386  0.1458 -0.4378 -0.7917
 9907SOL    HW133637   4.359   2.005   0.387 -0.6857  0.6847  0.0553
 9907SOL    HW233638   4.402   2.150   0.390  1.4776  0.0537  0.8160
 9908SOL     OW33639   8.984   4.512   5.454 -0.0496  0.0769  0.7088
 9908SOL    HW133640   8.999   4.442   5.517 -0.1337 -0.8571 -0.2725
 9908SOL    HW233641   8.983   4.468   5.369 -0.9733  1.1550  0.1326
 9909SOL     OW33642   6.533   0.400   3.355 -0.0444 -0.5468  0.3152
 9909SOL    HW133643   6.604   0.409   3.419  0.1084 -1.8716  0.3657
 9909SOL    HW233644   6.503   0.490   3.339  0.9718 -0.0577  1.0473
 9910SOL     OW33645   8.845   7.766   1.462  0.1940  0.1694 -0.2681
 9910SOL    HW133646   8.921   7.750   1.517 -0.8099 -2.7882  0.4142
 9910SOL    HW233647   8.790   7.824   1.514  0.5002 -0.3635  0.6589
 9911SOL     OW33648   5.805   8.844   3.869  0.0392 -0.7118  0.9036
 9911SOL    HW133649   5.806   8.773   3.805  0.2897 -0.2982  0.4509
 9911SOL    HW233650   5.897   8.855   3.893  0.4341  1.4543 -1.2419
 9912SOL     OW33651   4.097   4.402   1.325  0.3450  0.3210 -0.3135
 9912SOL    HW133652   4.135   4.318   1.348  0.5461  0.7847  1.1280
 9912SOL    HW233653   4.006   4.396   1.354  0.5956  0.9052  0.6428
 9913SOL     OW33654   1.568   9.642  10.035  0.2775 -0.1234  0.2191
 9913SOL    HW133655   1.616   9.589  10.098  1.2494  1.1129  0.5664
 9913SOL    HW233656   1.635   9.673   9.974 -0.1876  1.0608  0.2874
 9914SOL     OW33657   5.023   0.835   2.091 -0.2146  0.5009  0.0986
 9914SOL    HW133658   5.011   0.790   2.175 -1.3805  0.4718 -0.0727
 9914SOL    HW233659   5.077   0.775   2.039  0.5962  0.5606  0.8385
 9915SOL     OW33660   8.454   1.971   9.601  0.1516  0.0264 -0.2692
 9915SOL    HW133661   8.505   2.033   9.550 -0.2466  0.5702 -0.0086
 9915SOL    HW233662   8.444   1.895   9.544  0.7653  0.1355 -0.5327
 9916SOL     OW33663   4.429   5.803   4.429  0.3456  0.2737 -0.2835
 9916SOL    HW133664   4.420   5.870   4.496 -1.8169  0.1943 -0.4197
 9916SOL    HW233665   4.426   5.720   4.477 -0.6320  0.2300 -0.3932
 9917SOL     OW33666   9.061   3.471   1.990  0.2734 -0.2687  0.6983
 9917SOL    HW133667   9.151   3.437   1.979  0.0359 -0.6707 -0.1195
 9917SOL    HW233668   9.005   3.399   1.960 -0.2921  0.3114  0.3388
 9918SOL     OW33669   5.556   4.551   9.354 -0.2412 -0.1048  0.0564
 9918SOL    HW133670   5.611   4.478   9.384 -0.7395 -1.4638 -2.1142
 9918SOL    HW233671   5.591   4.627   9.399  0.6304 -1.5832  2.0475
 9919SOL     OW33672   6.867   2.273   3.544  0.6397 -0.6505 -0.1312
 9919SOL    HW133673   6.826   2.192   3.573  1.7625 -0.7467  1.3309
 9919SOL    HW233674   6.921   2.247   3.469  0.1980 -1.0560 -0.3109
 9920SOL     OW33675   6.734   8.434   6.434 -0.2519 -0.4098  0.4444
 9920SOL    HW133676   6.719   8.510   6.491 -0.6196 -1.1242  1.3373
 9920SOL    HW233677   6.674   8.367   6.468 -0.4735 -0.8638 -0.7925
 9921SOL     OW33678   7.012   9.155   2.248 -0.2031 -0.6670 -0.5228
 9921SOL    HW133679   7.070   9.092   2.205  0.8782  0.7445 -1.2166
 9921SOL    HW233680   7.070   9.201   2.309 -0.3954  1.2313 -1.7078
 9922SOL     OW33681   8.207   3.407   8.679  0.0679 -0.1143 -0.7723
 9922SOL    HW133682   8.154   3.426   8.601  0.1784 -0.0545 -0.8332
 9922SOL    HW233683   8.251   3.325   8.659 -0.4475 -0.4618 -0.4874
 9923SOL     OW33684   1.765   3.829   4.430  0.1243  0.5041 -0.8111
 9923SOL    HW133685   1.830   3.877   4.379 -1.4556  0.0997 -3.3965
 9923SOL    HW233686   1.794   3.738   4.426  0.4167  0.5630 -0.2400
 9924SOL     OW33687   7.194   5.301   9.661  0.0825 -0.0906  0.5734
 9924SOL    HW133688   7.112   5.259   9.637  0.5369 -0.9366  0.4688
 9924SOL    HW233689   7.187   5.389   9.625 -0.4157 -0.4391 -0.2174
 9925SOL     OW33690   8.874   0.994   2.943  0.5850  0.0839  0.3276
 9925SOL    HW133691   8.923   1.063   2.897  0.7692  0.6911  1.4047
 9925SOL    HW233692   8.842   1.037   3.022 -0.3565 -0.7430  0.4133
 9926SOL     OW33693   5.735   7.645   9.452  0.7845  0.3795  0.1416
 9926SOL    HW133694   5.649   7.686   9.453  0.6538  0.2721 -1.9462
 9926SOL    HW233695   5.770   7.659   9.541 -1.3076  0.5186  0.9852
 9927SOL     OW33696   2.764   3.309   7.097 -0.1760  0.1329 -0.1079
 9927SOL    HW133697   2.823   3.297   7.022 -1.0257  0.0555 -0.7818
 9927SOL    HW233698   2.802   3.255   7.166  1.6088  1.5754  0.1159
 9928SOL     OW33699   4.930   7.958   1.907 -0.2256  0.7924  0.7788
 9928SOL    HW133700   4.882   7.900   1.965  1.7149 -1.1096  0.5684
 9928SOL    HW233701   4.951   7.905   1.830  2.7917  1.2622  1.1475
 9929SOL     OW33702   5.215   1.363   6.973 -0.2055  0.2867 -0.5097
 9929SOL    HW133703   5.232   1.446   6.930  1.4326 -0.0963 -0.6573
 9929SOL    HW233704   5.302   1.325   6.988 -0.9067 -1.3469 -0.3535
 9930SOL     OW33705   6.361   6.394   9.798 -0.1221 -0.5419  0.0524
 9930SOL    HW133706   6.426   6.465   9.793  0.3533 -0.7397  2.4332
 9930SOL    HW233707   6.277   6.438   9.789  0.2135  0.1800  0.3351
 9931SOL     OW33708   3.124   8.897   5.979  0.3190 -0.0592  0.3255
 9931SOL    HW133709   3.098   8.876   5.889  0.3264  0.1329  0.2779
 9931SOL    HW233710   3.137   8.812   6.021  1.6223 -0.1518 -0.2207
 9932SOL     OW33711   2.276   1.667   5.073  0.2643  0.0796  0.5491
 9932SOL    HW133712   2.245   1.619   5.149  1.2315  0.1067  0.9733
 9932SOL    HW233713   2.337   1.731   5.108 -2.0090  2.6175  0.1661
 9933SOL     OW33714   0.690   4.457   0.403  0.0689  0.0177 -0.1575
 9933SOL    HW133715   0.782   4.477   0.419  0.4558 -0.8060 -1.2273
 9933SOL    HW233716   0.689   4.417   0.316 -1.4533  1.0452 -0.6479
 9934SOL     OW33717   4.180   1.041   1.966  0.1712 -0.5024  0.2921
 9934SOL    HW133718   4.202   0.949   1.984 -1.0976 -1.1760 -1.2879
 9934SOL    HW233719   4.233   1.064   1.890 -0.1807 -0.2229  0.1294
 9935SOL     OW33720   5.416   5.006   1.205  0.0297 -0.8378 -0.0309
 9935SOL    HW133721   5.466   4.950   1.264  1.1440  0.0940 -0.0505
 9935SOL    HW233722   5.443   4.981   1.117  1.4513  0.4880 -0.0167
 9936SOL     OW33723   0.229   6.911   3.022  0.3381  0.2091  0.3735
 9936SOL    HW133724   0.265   6.936   3.108  3.2806 -3.0649  0.3145
 9936SOL    HW233725   0.229   6.992   2.972  5.2252  1.1950  1.3992
 9937SOL     OW33726  10.124   1.445   9.323  0.4822  0.4241  0.0749
 9937SOL    HW133727  10.181   1.497   9.379  1.4598  0.3116 -0.7821
 9937SOL    HW233728  10.176   1.367   9.302  0.2757  0.6101 -1.2323
 9938SOL     OW33729   7.672   7.858   7.975 -0.1939  0.2986  0.0562
 9938SOL    HW133730   7.589   7.833   7.935  0.3486 -0.3503 -0.7046
 9938SOL    HW233731   7.733   7.789   7.948  1.0427  1.7546 -1.0213
 9939SOL     OW33732   0.208   0.662   5.426  0.1993  0.1411 -0.1349
 9939SOL    HW133733   0.261   0.638   5.502 -0.6271  0.9544  0.7429
 9939SOL    HW233734   0.212   0.757   5.424 -0.6829  0.1833 -0.4305
 9940SOL     OW33735   7.903   2.966   5.125  0.2071 -0.5485 -0.6140
 9940SOL    HW133736   7.888   3.060   5.128 -0.0977 -0.6114  0.4375
 9940SOL    HW233737   7.986   2.956   5.078 -1.1646  0.0292 -3.3427
 9941SOL     OW33738   2.933   8.059   0.879 -0.0936 -0.2777  0.4187
 9941SOL    HW133739   2.843   8.053   0.849 -0.1028 -0.2439  0.4389
 9941SOL    HW233740   2.926   8.065   0.975 -0.0650 -0.3962  0.4282
 9942SOL     OW33741   1.376   4.678   5.184  0.0364 -0.2362  0.0531
 9942SOL    HW133742   1.365   4.618   5.110  3.0983 -0.0677 -0.6822
 9942SOL    HW233743   1.453   4.646   5.230  0.0999  1.5406  1.2984
 9943SOL     OW33744   4.845   5.493   6.791 -0.0435  0.2859  0.6317
 9943SOL    HW133745   4.929   5.516   6.751 -0.8150 -0.4233 -1.5771
 9943SOL    HW233746   4.853   5.400   6.811 -0.9436 -0.3452 -1.5874
 9944SOL     OW33747   0.861   2.816   7.511  0.0020 -0.4884 -0.4463
 9944SOL    HW133748   0.915   2.884   7.552 -1.1372  0.1737  0.0037
 9944SOL    HW233749   0.891   2.734   7.550 -0.0288 -0.0238  0.5783
 9945SOL     OW33750   3.936  10.153   2.827  0.4554 -0.4280 -0.3168
 9945SOL    HW133751   3.964  10.178   2.739  1.8849 -1.1258 -0.1038
 9945SOL    HW233752   3.871  10.084   2.813  0.6737 -0.5350 -0.8318
 9946SOL     OW33753   3.195   6.762   8.696  0.5870 -0.9311  0.0647
 9946SOL    HW133754   3.248   6.712   8.758  1.1127  1.4346  1.6676
 9946SOL    HW233755   3.105   6.750   8.726  0.5763 -1.8532 -0.3087
 9947SOL     OW33756   4.625   9.816   9.465 -0.3893 -0.4524 -0.1587
 9947SOL    HW133757   4.547   9.828   9.518 -0.1835 -1.0452  0.2977
 9947SOL    HW233758   4.592   9.784   9.381 -0.5656 -2.7220  0.6841
 9948SOL     OW33759   4.200   4.810   5.880 -0.7629  0.5050 -0.3352
 9948SOL    HW133760   4.198   4.727   5.926 -0.8627  1.0531  0.6743
 9948SOL    HW233761   4.120   4.809   5.826 -0.2561 -0.4558 -1.1110
 9949SOL     OW33762   3.043   5.316   6.632  0.3059 -0.1583 -0.4013
 9949SOL    HW133763   2.975   5.383   6.643  1.6972  1.3479 -0.6279
 9949SOL    HW233764   3.120   5.365   6.602  1.1722 -1.9792 -1.2647
 9950SOL     OW33765   8.660   9.350   6.638 -0.1367  0.1570 -0.1776
 9950SOL    HW133766   8.600   9.365   6.565  1.0315  0.5754 -1.0851
 9950SOL    HW233767   8.732   9.412   6.624 -0.4111  1.0449  1.9664
 9951SOL     OW33768   4.064   2.235   0.182  0.3835 -0.1438 -0.1607
 9951SOL    HW133769   4.021   2.321   0.192  1.6064  0.5289 -0.4987
 9951SOL    HW233770   4.155   2.251   0.206  0.3846 -1.6421  0.9467
 9952SOL     OW33771   6.581   4.438   6.324  0.0358  0.5274 -0.3983
 9952SOL    HW133772   6.634   4.494   6.267 -0.3421  0.1330 -1.1537
 9952SOL    HW233773   6.492   4.445   6.288 -0.1466  0.0126 -0.0564
 9953SOL     OW33774   1.506  10.145   4.376  0.3092  0.1799 -0.2544
 9953SOL    HW133775   1.467  10.158   4.462  0.5062  0.2891 -0.1825
 9953SOL    HW233776   1.438  10.099   4.326  0.4971 -0.6187  0.2061
 9954SOL     OW33777   7.458   0.013   7.085 -0.1997  0.2601 -0.0966
 9954SOL    HW133778   7.553   0.027   7.089 -0.1457 -0.0659 -0.2151
 9954SOL    HW233779   7.425   0.050   7.167  0.2573 -1.4003  0.8856
 9955SOL     OW33780   3.325   3.772   9.707  0.5599  0.3777  0.3802
 9955SOL    HW133781   3.395   3.710   9.686 -0.4559 -0.2858 -1.2709
 9955SOL    HW233782   3.364   3.858   9.696  0.7073  0.0352 -2.2632
 9956SOL     OW33783   1.560   0.517   5.186  0.1437  0.6723  0.6593
 9956SOL    HW133784   1.636   0.537   5.132  1.3564  0.1389  2.1269
 9956SOL    HW233785   1.500   0.471   5.127  1.5015 -0.0572 -0.1844
 9957SOL     OW33786   1.719   9.967   8.140 -0.3352 -0.1231  0.5450
 9957SOL    HW133787   1.723  10.061   8.121  0.6631  0.0714  1.6369
 9957SOL    HW233788   1.634   9.940   8.104 -1.0858  1.3979  1.0641
 9958SOL     OW33789   1.392   7.505   5.978 -0.2846 -0.0785  0.0614
 9958SOL    HW133790   1.488   7.506   5.983 -0.3481  1.1813  1.7843
 9958SOL    HW233791   1.363   7.505   6.069 -1.9073  2.0783 -0.3813
 9959SOL     OW33792   6.637   8.995   2.283  0.0555  0.0149  0.0156
 9959SOL    HW133793   6.688   8.988   2.364  0.1402  1.0130  0.0641
 9959SOL    HW233794   6.562   9.050   2.307  0.6556  1.2397 -0.8359
 9960SOL     OW33795   8.787   6.786   0.793 -0.0947 -0.2512 -0.1196
 9960SOL    HW133796   8.778   6.881   0.804  3.4240  0.4764 -1.8954
 9960SOL    HW233797   8.800   6.753   0.882 -1.1773  0.9278  0.5117
 9961SOL     OW33798   5.276   3.032   7.497  0.2514 -0.3631  0.1160
 9961SOL    HW133799   5.247   3.059   7.410  0.7996  0.8749  0.2934
 9961SOL    HW233800   5.365   3.000   7.484  0.3332 -0.1796  0.2077
 9962SOL     OW33801   7.057   8.908   5.068 -0.1435  0.2655 -1.0165
 9962SOL    HW133802   7.001   8.976   5.105 -1.1011 -0.9626 -0.1010
 9962SOL    HW233803   7.035   8.906   4.975 -1.0584  0.3426 -0.8114
 9963SOL     OW33804   8.196   3.021   9.959 -0.7550  0.3112 -0.3948
 9963SOL    HW133805   8.132   3.002   9.891 -0.8302 -0.3938 -0.1401
 9963SOL    HW233806   8.257   3.082   9.918 -0.7565 -0.1580 -1.1244
 9964SOL     OW33807   8.550   3.197   9.249  0.2798  0.1927 -0.3994
 9964SOL    HW133808   8.593   3.233   9.171  1.0396 -0.5186 -0.3234
 9964SOL    HW233809   8.605   3.227   9.322 -0.1753  0.4831 -0.1757
 9965SOL     OW33810   2.477   6.814   9.008  0.2199  0.2792  0.4115
 9965SOL    HW133811   2.441   6.730   9.036  0.2057  0.0748 -0.1941
 9965SOL    HW233812   2.437   6.878   9.066 -0.7339  0.0014  0.0882
 9966SOL     OW33813   3.524   1.200   2.608  0.4771 -0.2476 -0.5236
 9966SOL    HW133814   3.429   1.189   2.617  0.6418 -2.0677 -0.6412
 9966SOL    HW233815   3.534   1.284   2.562 -0.9926  0.7625  0.9056
 9967SOL     OW33816   8.159   8.129   6.479 -0.5428 -0.0197  0.2347
 9967SOL    HW133817   8.176   8.157   6.389  0.0398  0.8061  0.5894
 9967SOL    HW233818   8.244   8.134   6.522 -0.5025 -1.8876  0.4640
 9968SOL     OW33819   5.718   4.323   7.540 -0.0270  0.0895 -0.0778
 9968SOL    HW133820   5.653   4.254   7.525  1.2298 -0.8070 -1.8267
 9968SOL    HW233821   5.781   4.284   7.601 -0.5443  0.5566  0.7607
 9969SOL     OW33822   5.498   4.240   3.010  0.3713 -0.3688 -0.4742
 9969SOL    HW133823   5.469   4.159   2.968  0.4111 -0.8239  0.3474
 9969SOL    HW233824   5.471   4.231   3.101 -0.5284  0.9929 -0.5714
 9970SOL     OW33825   5.119   7.887   2.079 -0.4312 -0.6732  0.1153
 9970SOL    HW133826   5.136   7.961   2.138 -2.3275 -0.6865  0.7282
 9970SOL    HW233827   5.077   7.927   2.003 -2.1412 -1.1685  0.7634
 9971SOL     OW33828   7.497   4.481   2.947 -0.0555  0.3593  0.6065
 9971SOL    HW133829   7.501   4.567   2.907 -1.8629 -0.2227 -0.9513
 9971SOL    HW233830   7.404   4.459   2.950  0.4236 -2.4478 -1.1894
 9972SOL     OW33831   6.187   0.996   6.467 -0.3287 -0.2628 -0.2633
 9972SOL    HW133832   6.158   1.080   6.501  0.2563 -0.2437  0.1987
 9972SOL    HW233833   6.281   0.995   6.481 -0.4598 -1.4258  0.7298
 9973SOL     OW33834   3.126   3.803   0.336  0.4266 -0.2291 -0.4340
 9973SOL    HW133835   3.194   3.813   0.403 -1.2331  1.2893  1.1431
 9973SOL    HW233836   3.166   3.837   0.256  1.6292  0.3764  0.3876
 9974SOL     OW33837   9.510   5.086   4.519  0.3482  0.0566  0.2261
 9974SOL    HW133838   9.572   5.087   4.446  0.2073 -0.0021  0.1065
 9974SOL    HW233839   9.475   5.175   4.522 -0.1717 -0.1330 -0.2243
 9975SOL     OW33840   5.063   8.689   7.040 -1.0662 -0.2248  1.0221
 9975SOL    HW133841   5.086   8.672   7.132  0.8487 -1.2852  0.4060
 9975SOL    HW233842   5.123   8.759   7.013 -1.5284 -0.0106  0.5455
 9976SOL     OW33843   0.154   1.576   5.239 -0.0660 -0.0611 -0.4951
 9976SOL    HW133844   0.090   1.632   5.195  0.1427 -1.4806 -2.7876
 9976SOL    HW233845   0.176   1.510   5.173  1.8832 -1.0835  1.1004
 9977SOL     OW33846   5.172   7.313   3.309 -0.7335 -0.4483  0.0009
 9977SOL    HW133847   5.077   7.311   3.299 -0.6046  0.3674 -1.6822
 9977SOL    HW233848   5.186   7.329   3.402 -2.2417 -0.0019  0.1759
 9978SOL     OW33849   1.567   9.465   1.929  0.0327  0.2710  0.3227
 9978SOL    HW133850   1.529   9.540   1.882 -0.6324  0.2867  0.8712
 9978SOL    HW233851   1.525   9.389   1.888 -0.1802  0.2603  0.5602
 9979SOL     OW33852   5.985   0.679   7.897  0.4821 -0.3352  0.1150
 9979SOL    HW133853   5.901   0.665   7.941  0.0884  2.3371  0.3232
 9979SOL    HW233854   5.966   0.668   7.804 -0.0884  0.1925  0.1684
 9980SOL     OW33855   4.502   8.358   2.998 -0.8051 -0.8151  0.1487
 9980SOL    HW133856   4.461   8.444   3.001  1.4456  0.4975 -2.3562
 9980SOL    HW233857   4.577   8.364   3.057  0.7906 -0.0971 -1.8316
 9981SOL     OW33858   9.446   9.782   4.306 -0.0100 -0.0768 -1.0081
 9981SOL    HW133859   9.410   9.698   4.337  1.4001 -0.1321  0.6674
 9981SOL    HW233860   9.470   9.828   4.387  1.0246  1.1325 -1.9764
 9982SOL     OW33861   6.472   2.185   8.989  0.3770  0.0394  0.1564
 9982SOL    HW133862   6.445   2.190   9.081  0.7846 -0.0332  0.2826
 9982SOL    HW233863   6.488   2.275   8.964  1.1072 -0.0062  0.4194
 9983SOL     OW33864   3.862   3.603   7.499  0.4405  0.4867  0.3260
 9983SOL    HW133865   3.789   3.559   7.456  0.1044 -0.0247  1.3870
 9983SOL    HW233866   3.841   3.600   7.592  0.8196  2.1740  0.4968
 9984SOL     OW33867   6.797   6.578  10.146  0.4222 -0.0159  0.2222
 9984SOL    HW133868   6.847   6.657  10.126  1.4627 -0.7029  0.0839
 9984SOL    HW233869   6.739   6.567  10.071  0.2626  0.6163  0.2452
 9985SOL     OW33870   3.714   3.274   9.606  0.0743  0.6172 -0.3083
 9985SOL    HW133871   3.627   3.306   9.631  0.2102  0.6262  0.1765
 9985SOL    HW233872   3.704   3.179   9.600  0.1303  0.5774  0.1795
 9986SOL     OW33873   5.291   3.073   8.357 -0.3787 -0.4231  0.1054
 9986SOL    HW133874   5.247   3.103   8.277 -3.3383 -3.7344  0.2655
 9986SOL    HW233875   5.362   3.017   8.326  1.2426  1.5816 -0.0856
 9987SOL     OW33876   4.755   3.508   1.627 -0.3297  0.8412 -1.0109
 9987SOL    HW133877   4.780   3.421   1.596 -0.2469  0.0611  1.0561
 9987SOL    HW233878   4.838   3.555   1.635  0.1587 -0.2539  1.5507
 9988SOL     OW33879   3.650  10.111   1.106 -0.3056  0.0228  0.4706
 9988SOL    HW133880   3.647  10.032   1.160  3.5364 -0.1871  0.6314
 9988SOL    HW233881   3.742  10.136   1.104 -1.3130  4.9390  0.9668
 9989SOL     OW33882   5.155   3.955   9.383  0.2858  0.0664  0.0873
 9989SOL    HW133883   5.229   3.988   9.333 -1.9244  3.6680 -1.1485
 9989SOL    HW233884   5.128   3.876   9.337  2.6697 -0.7757  0.0079
 9990SOL     OW33885   5.979   4.988   0.084  0.0571 -0.1901  0.4828
 9990SOL    HW133886   6.037   4.956   0.014  0.6375 -1.5507  1.5445
 9990SOL    HW233887   5.994   5.082   0.086 -1.2569  0.2055 -2.3642
 9991SOL     OW33888   2.559   9.908   0.675 -0.5098 -0.2288 -0.0399
 9991SOL    HW133889   2.529   9.831   0.628  1.2395 -0.7406 -0.3716
 9991SOL    HW233890   2.488   9.971   0.664 -1.3533 -1.2946 -0.9783
 9992SOL     OW33891   6.774   6.277   2.248  0.1229 -0.3632  0.1595
 9992SOL    HW133892   6.774   6.275   2.153  0.4003 -0.5679  0.1646
 9992SOL    HW233893   6.783   6.186   2.275  3.5734 -0.0946  0.3681
 9993SOL     OW33894   7.102   5.483   5.463 -0.3897 -0.1026  0.0974
 9993SOL    HW133895   7.132   5.573   5.470  0.9370 -0.1475 -3.2674
 9993SOL    HW233896   7.177   5.430   5.490 -0.7929 -0.2514  0.9810
 9994SOL     OW33897   0.665   4.005   4.820  0.7278 -0.7580 -0.0060
 9994SOL    HW133898   0.586   3.956   4.798  0.8300 -0.9731  0.0937
 9994SOL    HW233899   0.688   4.052   4.740 -0.5384  0.7871  0.4979
 9995SOL     OW33900   4.671   1.278   0.056 -0.0450  0.1042  0.0405
 9995SOL    HW133901   4.720   1.198   0.042  0.4439 -0.0406  2.2472
 9995SOL    HW233902   4.688   1.301   0.147 -3.0234  0.7714  0.5298
 9996SOL     OW33903   8.375   0.705   1.958 -0.3877  0.3209 -0.0778
 9996SOL    HW133904   8.431   0.779   1.983 -2.2919  0.9035  2.9645
 9996SOL    HW233905   8.288   0.743   1.950 -1.1555 -1.3334  0.1412
 9997SOL     OW33906   9.708   2.875   7.143  0.3429  0.1485  0.0394
 9997SOL    HW133907   9.624   2.901   7.105  0.7470  0.6792 -0.4981
 9997SOL    HW233908   9.724   2.788   7.107  0.4447  0.4086 -0.5481
 9998SOL     OW33909   6.498   1.293   8.740  0.1557  0.4041 -0.2488
 9998SOL    HW133910   6.434   1.362   8.721 -0.3243  0.1952  0.5239
 9998SOL    HW233911   6.581   1.339   8.750  0.0056  0.7620 -0.6293
 9999SOL     OW33912   1.152   5.443   1.052 -0.0262 -0.0793  0.1261
 9999SOL    HW133913   1.246   5.460   1.057  0.3375 -1.0981 -2.0118
 9999SOL    HW233914   1.132   5.390   1.130  1.2869 -0.3248  0.3075
10000SOL     OW33915   8.801   4.447   7.747  0.5595  0.1018  0.3467
10000SOL    HW133916   8.727   4.396   7.781  1.0305 -0.5174  0.4689
10000SOL    HW233917   8.878   4.405   7.785  1.2034 -1.3362 -2.2893
10001SOL     OW33918   5.942   7.981   0.917  0.4730 -0.9367  0.4189
10001SOL    HW133919   5.854   7.945   0.929 -0.5077  0.9966 -0.4052
10001SOL    HW233920   5.986   7.966   1.000 -0.4272 -2.4735  0.6516
10002SOL     OW33921   9.083   5.308   4.186 -0.0368  0.3488  0.6796
10002SOL    HW133922   9.000   5.313   4.139  0.9782 -0.5178 -1.3151
10002SOL    HW233923   9.147   5.343   4.125  1.4443 -1.3986  1.1535
10003SOL     OW33924   9.536   6.734   4.479  0.1104  0.0483  0.1851
10003SOL    HW133925   9.456   6.787   4.471  0.4678  0.4394 -1.0312
10003SOL    HW233926   9.603   6.796   4.509  0.1673 -0.0826  0.3318
10004SOL     OW33927   2.285   2.511   6.922 -0.2538 -0.7844  0.0585
10004SOL    HW133928   2.221   2.572   6.884 -0.1508 -0.8594 -0.2369
10004SOL    HW233929   2.326   2.469   6.846  0.8974  0.0295  0.2036
10005SOL     OW33930   9.768   8.004   4.802  0.5742 -0.1805 -0.2397
10005SOL    HW133931   9.680   7.966   4.795  0.9592 -0.9895 -0.8941
10005SOL    HW233932   9.766   8.054   4.883 -0.6962  0.3705 -0.5839
10006SOL     OW33933   1.945   2.567   8.238 -0.0237 -0.4602  0.0852
10006SOL    HW133934   2.004   2.600   8.170 -0.3987 -0.2987 -0.1670
10006SOL    HW233935   1.857   2.581   8.202 -0.3500  1.9441  1.6067
10007SOL     OW33936   1.363   6.980   8.310 -0.1682 -0.0913  0.1523
10007SOL    HW133937   1.299   6.958   8.242 -0.9035  3.3415 -0.4824
10007SOL    HW233938   1.320   7.050   8.360  2.2125  0.7218  1.1676
10008SOL     OW33939   0.744   0.806   7.238  0.2648  0.4258 -0.6346
10008SOL    HW133940   0.800   0.728   7.239 -0.6225 -0.2520 -1.8503
10008SOL    HW233941   0.805   0.878   7.223  1.1149  0.0109  0.6262
10009SOL     OW33942   9.110   9.982   7.859 -0.4324  0.1255  0.4213
10009SOL    HW133943   9.113   9.962   7.765 -1.7969 -3.4294  0.9777
10009SOL    HW233944   9.185   9.935   7.896  0.0374  1.4224  1.1557
10010SOL     OW33945   1.784   9.371   0.257  0.0237 -0.3052  0.1841
10010SOL    HW133946   1.880   9.371   0.255  0.0261  0.5296 -0.1793
10010SOL    HW233947   1.762   9.405   0.344  0.0488 -1.3356  0.6007
10011SOL     OW33948   5.025  10.000   8.238  0.1233  0.0114 -0.4513
10011SOL    HW133949   4.999  10.084   8.201 -0.2277  0.0518 -0.1275
10011SOL    HW233950   4.976   9.994   8.320 -0.8106 -1.0453 -1.0520
10012SOL     OW33951   3.583   2.948   4.808 -0.3349 -0.3232  0.3253
10012SOL    HW133952   3.650   2.881   4.814  0.4243  0.0898 -2.2863
10012SOL    HW233953   3.505   2.901   4.776  0.2621  0.0104 -1.7268
10013SOL     OW33954   7.348   7.514   9.139  0.2401  0.5212 -0.5284
10013SOL    HW133955   7.317   7.485   9.053  0.1781  1.6065 -0.8915
10013SOL    HW233956   7.326   7.442   9.198 -0.4917  0.1170 -1.2713
10014SOL     OW33957   7.758   7.817   6.344 -0.7234 -0.5312  0.5223
10014SOL    HW133958   7.767   7.729   6.382  0.8181 -1.0324 -0.8725
10014SOL    HW233959   7.805   7.874   6.404  0.9769 -1.1861 -0.1072
10015SOL     OW33960   8.297   2.599   0.398  0.4055 -0.2291  0.2576
10015SOL    HW133961   8.216   2.557   0.367  0.3171  0.7118 -0.8655
10015SOL    HW233962   8.268   2.682   0.434  0.6109 -0.9539  2.2182
10016SOL     OW33963   4.200   5.752   2.559  0.3599  0.2202 -1.0858
10016SOL    HW133964   4.142   5.814   2.515 -0.8238 -1.0074 -1.3209
10016SOL    HW233965   4.156   5.668   2.551  1.0825 -0.3761  0.7315
10017SOL     OW33966   0.726   2.109   1.948 -0.1076 -0.8512 -0.0250
10017SOL    HW133967   0.757   2.122   2.038  0.2392 -0.8413 -0.1437
10017SOL    HW233968   0.638   2.147   1.947  0.5702  0.7885 -0.1611
10018SOL     OW33969   1.055   7.459   2.207 -0.0142  0.0952 -0.5440
10018SOL    HW133970   1.075   7.380   2.156 -1.1940  0.1051 -1.0478
10018SOL    HW233971   0.965   7.479   2.185  0.1575  1.3820 -0.1283
10019SOL     OW33972   1.030   9.450   6.037 -0.2679 -0.0479 -0.4159
10019SOL    HW133973   1.057   9.541   6.048  2.5675 -1.0553  3.1279
10019SOL    HW233974   1.060   9.426   5.950 -1.0394  2.3023 -1.4148
10020SOL     OW33975   4.652   8.318   4.236 -0.3873  0.5667 -0.2459
10020SOL    HW133976   4.685   8.283   4.153 -0.4586 -1.1014  0.4013
10020SOL    HW233977   4.572   8.364   4.212  0.0378  0.8348 -1.2074
10021SOL     OW33978   6.971   5.780   8.630  0.1887  0.2421 -0.1320
10021SOL    HW133979   6.879   5.760   8.645  0.8935 -1.2248  2.8744
10021SOL    HW233980   6.981   5.870   8.660  0.0214 -0.1100  1.0080
10022SOL     OW33981   3.035   0.360   9.307 -0.2959  0.6828  0.0235
10022SOL    HW133982   3.006   0.276   9.273 -0.2444  0.5120  0.4008
10022SOL    HW233983   3.104   0.339   9.370 -0.8891  0.9342  0.7851
10023SOL     OW33984   1.792   4.293   9.045 -0.3227  0.1688  0.0124
10023SOL    HW133985   1.762   4.259   8.961  2.4256 -0.4849 -0.8262
10023SOL    HW233986   1.814   4.215   9.096 -1.8457  0.5643  1.3465
10024SOL     OW33987   8.687   1.312   7.424 -0.0915 -0.4516  0.5405
10024SOL    HW133988   8.722   1.323   7.335  0.8650 -2.9346  0.5456
10024SOL    HW233989   8.643   1.395   7.442 -2.6475 -0.7619 -3.2356
10025SOL     OW33990   4.933   4.888   1.037  0.9153  0.2250 -0.6173
10025SOL    HW133991   4.884   4.966   1.010  0.6929  0.4346  0.3696
10025SOL    HW233992   4.998   4.876   0.967  0.0007  0.4210 -1.5299
10026SOL     OW33993   8.367   2.925   1.219  0.1303 -0.3969  0.6302
10026SOL    HW133994   8.365   2.831   1.236 -0.8323 -0.4834  0.0736
10026SOL    HW233995   8.326   2.935   1.133 -0.6982  0.6293  1.1250
10027SOL     OW33996   0.879   9.727   8.661  0.7231 -0.0427 -0.2546
10027SOL    HW133997   0.875   9.789   8.588  0.3255  0.8030  0.4509
10027SOL    HW233998   0.923   9.776   8.731 -1.2456  0.1388  0.9322
10028SOL     OW33999   5.290   5.167   5.892  0.2363 -0.4085 -0.0584
10028SOL    HW134000   5.332   5.195   5.973 -0.2009 -0.4526  0.1892
10028SOL    HW234001   5.221   5.107   5.920  0.1693 -0.5289 -0.4738
10029SOL     OW34002   8.965   9.802   9.841 -0.6044 -0.3169  0.0751
10029SOL    HW134003   8.896   9.819   9.905 -2.4553 -2.9961 -1.0154
10029SOL    HW234004   9.037   9.766   9.892 -2.0936 -2.5136  0.7507
10030SOL     OW34005   9.274   5.329   4.440 -0.7311  0.3540  0.6998
10030SOL    HW134006   9.225   5.260   4.483  0.6710 -1.2890 -0.2287
10030SOL    HW234007   9.235   5.337   4.353  0.9122 -1.3831 -0.2663
10031SOL     OW34008   3.842   5.603   3.196 -0.1975 -0.5643  0.0106
10031SOL    HW134009   3.852   5.698   3.196  0.0852 -0.5872 -0.8228
10031SOL    HW234010   3.894   5.573   3.121 -2.2859 -1.1398 -1.3167
10032SOL     OW34011   0.054   4.258   5.252 -0.1112 -0.0829  0.1149
10032SOL    HW134012   0.093   4.180   5.292  0.0967  1.0020  2.1767
10032SOL    HW234013   0.102   4.331   5.289 -1.8822  1.1431  0.1426
10033SOL     OW34014   4.438   1.367   8.872 -0.4943  0.5665  0.0254
10033SOL    HW134015   4.530   1.342   8.877  0.0251  2.4332  0.4469
10033SOL    HW234016   4.394   1.313   8.937  0.4785  0.3749  0.5353
10034SOL     OW34017   4.538   4.373   1.250 -0.1397  0.3189 -0.1502
10034SOL    HW134018   4.629   4.345   1.244 -0.0602  0.5236  0.0915
10034SOL    HW234019   4.496   4.304   1.302 -0.1825  0.0882 -0.4859
10035SOL     OW34020   1.824   2.522   4.062  0.1978  0.7644  0.2804
10035SOL    HW134021   1.747   2.469   4.084  0.0685  0.9621  0.3038
10035SOL    HW234022   1.797   2.574   3.987  0.9088 -0.5198 -0.9183
10036SOL     OW34023   9.762   8.058   7.555 -0.0509 -0.0582 -0.1045
10036SOL    HW134024   9.679   8.075   7.511  0.4976 -0.4068 -1.3307
10036SOL    HW234025   9.829   8.086   7.492  0.7640  0.0215  0.7707
10037SOL     OW34026   0.150   6.037   2.214  0.3633  0.2515  0.3224
10037SOL    HW134027   0.137   6.068   2.304  1.3707 -0.4802  0.7351
10037SOL    HW234028   0.133   5.943   2.219  0.9729  0.1107 -0.1350
10038SOL     OW34029   6.582   0.638   7.085 -0.5934  0.4336 -0.3673
10038SOL    HW134030   6.513   0.643   7.152 -0.5619  1.0626 -0.3691
10038SOL    HW234031   6.567   0.716   7.031  1.1868  1.5910  0.7002
10039SOL     OW34032   9.595   9.800   3.173  0.3009 -0.0138  0.1265
10039SOL    HW134033   9.689   9.811   3.188  1.1973 -3.2398 -2.0602
10039SOL    HW234034   9.590   9.755   3.089 -3.3642  1.7695 -0.7949
10040SOL     OW34035   4.929   0.656   9.392  0.0861  0.2409 -0.6256
10040SOL    HW134036   4.929   0.682   9.300 -1.1455  1.3814 -0.3263
10040SOL    HW234037   4.846   0.610   9.403  1.5863 -2.8127 -0.8073
10041SOL     OW34038   6.153   1.618   8.351 -0.3432 -0.2525  0.0798
10041SOL    HW134039   6.226   1.557   8.349  0.1879  0.3870 -0.9240
10041SOL    HW234040   6.194   1.704   8.359 -0.9370  0.1605 -1.0822
10042SOL     OW34041   5.691   0.962   5.930 -0.3628 -0.3163  0.1391
10042SOL    HW134042   5.608   0.913   5.927  0.1284 -1.2584  1.3157
10042SOL    HW234043   5.752   0.903   5.973  1.0573  0.2092 -1.1023
10043SOL     OW34044   6.858   1.412   0.585  0.1288  0.1172  0.9955
10043SOL    HW134045   6.924   1.436   0.650  0.1413 -0.3570  1.1690
10043SOL    HW234046   6.778   1.453   0.615  0.8507  3.0894 -0.6935
10044SOL     OW34047   4.050   4.771   2.832 -0.4907 -0.2527 -0.0134
10044SOL    HW134048   4.072   4.843   2.892 -2.0972  0.7146 -0.5225
10044SOL    HW234049   4.114   4.703   2.853 -0.6153  0.2591  2.3838
10045SOL     OW34050   3.916   1.845   0.754  0.3202 -0.2933  0.4920
10045SOL    HW134051   3.840   1.888   0.714  0.7630 -1.0048 -1.2147
10045SOL    HW234052   3.886   1.755   0.769  1.3690 -1.2180 -2.1964
10046SOL     OW34053   7.286   3.717   3.849 -0.3209 -0.5287 -0.2767
10046SOL    HW134054   7.327   3.800   3.869  1.6963 -1.4132 -0.5158
10046SOL    HW234055   7.209   3.740   3.796 -0.2141  1.1940  0.2729
10047SOL     OW34056   2.044  10.070   8.407 -0.1985  0.0253 -0.0151
10047SOL    HW134057   2.114  10.006   8.420 -0.6286 -0.3171  0.6199
10047SOL    HW234058   2.043  10.122   8.487  1.4636  2.1643 -1.2561
10048SOL     OW34059   9.120   6.113   7.617  0.7096 -0.3716 -0.1953
10048SOL    HW134060   9.061   6.188   7.606 -0.1446 -0.7424  1.6108
10048SOL    HW234061   9.086   6.047   7.557 -1.0144 -0.7232  1.1032
10049SOL     OW34062   5.929   1.762   6.256 -0.1647  0.1754 -0.5928
10049SOL    HW134063   5.837   1.787   6.262 -0.3602 -0.5459 -0.4520
10049SOL    HW234064   5.936   1.718   6.171  0.4801  1.8858 -1.4760
10050SOL     OW34065   1.670   0.637   5.598  0.5227 -0.0718 -0.1338
10050SOL    HW134066   1.604   0.702   5.624  0.4475 -0.1229 -0.1954
10050SOL    HW234067   1.716   0.616   5.679  0.2843 -0.2348 -0.0372
10051SOL     OW34068   3.937   3.760   9.516 -0.2235 -1.0112 -0.4779
10051SOL    HW134069   4.005   3.827   9.521 -2.4024  1.5540 -2.0954
10051SOL    HW234070   3.983   3.680   9.491  2.3187  0.2466 -0.1546
10052SOL     OW34071  10.043   7.520   7.285  0.0510  0.5183 -0.3668
10052SOL    HW134072  10.024   7.562   7.369 -0.9494 -0.7679  0.0877
10052SOL    HW234073  10.118   7.463   7.304 -1.7320 -1.7506  0.4191
10053SOL     OW34074   1.498   0.408   7.557 -0.5265  0.1466 -0.1509
10053SOL    HW134075   1.583   0.445   7.534 -0.5444  0.4584  0.2809
10053SOL    HW234076   1.491   0.330   7.502  1.0354 -1.1572  1.3898
10054SOL     OW34077   3.859   9.110   8.708 -0.0220 -0.2911 -0.2067
10054SOL    HW134078   3.841   9.018   8.729 -0.6837 -0.3484 -0.9850
10054SOL    HW234079   3.949   9.125   8.739  0.7754 -1.7134 -1.7129
10055SOL     OW34080   6.706   1.946   2.725  0.1464 -0.0935  0.6478
10055SOL    HW134081   6.654   1.940   2.645  0.6584 -0.3511  0.3324
10055SOL    HW234082   6.675   2.026   2.768  1.1660  1.0732 -0.7152
10056SOL     OW34083   1.812   1.428   0.293  0.3507 -0.4358  0.3945
10056SOL    HW134084   1.846   1.430   0.383  1.2869  0.7212  0.0359
10056SOL    HW234085   1.800   1.335   0.274 -1.1634 -0.6844  2.1769
10057SOL     OW34086   7.867   5.214   3.478 -0.5778  0.3642  0.6096
10057SOL    HW134087   7.897   5.144   3.537  1.5291  0.1159 -0.6673
10057SOL    HW234088   7.858   5.172   3.393  1.0582  1.6816 -0.2594
10058SOL     OW34089   4.813   5.639   9.271  0.5325 -0.2458  0.0513
10058SOL    HW134090   4.888   5.579   9.281 -0.5989 -1.5849  0.9032
10058SOL    HW234091   4.755   5.596   9.209  0.9081  1.2977 -1.4496
10059SOL     OW34092   5.465   2.808   2.020  0.3684 -0.4677 -0.8274
10059SOL    HW134093   5.491   2.900   2.021  1.1109 -0.6667  0.1839
10059SOL    HW234094   5.450   2.787   2.112 -1.9369 -0.7950 -1.2094
10060SOL     OW34095   6.400   2.776   3.610 -0.4396 -0.2443 -0.1547
10060SOL    HW134096   6.455   2.698   3.608 -0.1525 -0.0244 -0.8976
10060SOL    HW234097   6.324   2.753   3.557  0.1212  0.3275 -1.2299
10061SOL     OW34098   4.318   1.615   0.614 -0.1925 -0.4107 -0.5426
10061SOL    HW134099   4.311   1.553   0.541  0.3616 -0.3629 -0.6417
10061SOL    HW234100   4.268   1.691   0.585  1.1266  0.1410 -1.4499
10062SOL     OW34101   8.819   6.332   4.840  0.1478 -0.7100 -0.0322
10062SOL    HW134102   8.764   6.410   4.835  0.2166 -0.7105 -1.0997
10062SOL    HW234103   8.906   6.365   4.861  0.1781 -0.4911 -0.4874
10063SOL     OW34104   4.129   4.126   2.909  0.0598  0.2358  0.3384
10063SOL    HW134105   4.095   4.100   2.823  0.4638 -1.0929  0.5514
10063SOL    HW234106   4.072   4.198   2.937  0.5225  1.3693 -1.4534
10064SOL     OW34107   7.201   6.136   3.099 -0.7303 -0.1358 -0.3599
10064SOL    HW134108   7.293   6.150   3.122 -0.3688 -0.0888 -1.7390
10064SOL    HW234109   7.162   6.224   3.102 -0.7465 -0.1603  0.2586
10065SOL     OW34110   0.847   1.065   6.976  0.9206 -0.4381  0.2174
10065SOL    HW134111   0.850   1.136   7.040  2.5834 -1.1566  0.9932
10065SOL    HW234112   0.773   1.087   6.919 -0.8328  0.0761  2.5595
10066SOL     OW34113   4.028   7.526   4.554  0.2902  0.2985 -0.0153
10066SOL    HW134114   4.044   7.465   4.481  1.4432  0.8869 -0.2781
10066SOL    HW234115   3.945   7.567   4.534  1.6939  2.2288 -2.3073
10067SOL     OW34116   5.646   4.785   2.214  0.2655  0.3397 -0.2259
10067SOL    HW134117   5.588   4.794   2.138  0.5224  0.0764 -0.4588
10067SOL    HW234118   5.730   4.823   2.185  0.5490 -0.3254 -0.2934
10068SOL     OW34119   9.683   9.676   3.927  0.0540 -0.2642 -0.4480
10068SOL    HW134120   9.738   9.635   3.860 -0.6307 -1.8498 -0.1025
10068SOL    HW234121   9.625   9.734   3.878 -0.7550 -1.7474 -1.3300
10069SOL     OW34122   9.108   8.359   3.125  0.2886 -0.3856 -0.2943
10069SOL    HW134123   9.142   8.317   3.204 -1.3458 -0.9026  0.1608
10069SOL    HW234124   9.104   8.288   3.061  1.2785 -0.0388 -0.7738
10070SOL     OW34125   5.772   5.943   8.915 -0.6499  0.1539  0.0417
10070SOL    HW134126   5.745   5.984   8.997  0.4999 -0.3431  0.6993
10070SOL    HW234127   5.796   6.017   8.858 -0.0579  0.4555  0.6752
10071SOL     OW34128   3.827   4.221   7.482  0.1396  0.1989  0.3384
10071SOL    HW134129   3.748   4.167   7.478 -1.3884  2.2364  0.8522
10071SOL    HW234130   3.854   4.230   7.391  1.8403 -3.1868  0.3530
10072SOL     OW34131   8.651   1.998   8.656 -0.0175 -0.3731  0.3435
10072SOL    HW134132   8.650   1.915   8.610 -0.7895  0.3809 -1.0544
10072SOL    HW234133   8.559   2.020   8.669  0.1825 -0.3620  1.9039
10073SOL     OW34134   3.479   4.065   7.062  0.3544  0.1734  0.6432
10073SOL    HW134135   3.516   4.153   7.063  1.1256 -0.0476 -1.7280
10073SOL    HW234136   3.421   4.064   6.986 -3.1848 -0.0966  3.1187
10074SOL     OW34137   4.451   9.047   1.843 -0.1017  0.1215  0.0455
10074SOL    HW134138   4.540   9.062   1.810  0.4142  0.2905  1.4330
10074SOL    HW234139   4.394   9.070   1.769  1.0032 -0.2291 -0.9536
10075SOL     OW34140   4.849   3.099   1.456 -0.1098 -0.3577  0.0161
10075SOL    HW134141   4.790   3.034   1.495  0.5091 -0.3949  0.9153
10075SOL    HW234142   4.908   3.048   1.400 -0.8555 -0.3298 -0.8163
10076SOL     OW34143  10.163   4.739   6.871 -0.3947 -0.1975  0.1414
10076SOL    HW134144  10.216   4.667   6.836 -0.6201  0.3682 -1.4392
10076SOL    HW234145  10.223   4.813   6.872 -0.4463 -0.1602  0.8198
10077SOL     OW34146   8.580   7.818   1.580  0.0249  0.6341  0.1138
10077SOL    HW134147   8.514   7.771   1.631  2.5005 -0.4059  2.6440
10077SOL    HW234148   8.586   7.769   1.498  0.0179 -1.3696  1.2490
10078SOL     OW34149   4.905   0.850   6.039  0.3784  0.2214 -0.4169
10078SOL    HW134150   4.958   0.884   5.967 -0.5078  2.2370 -0.2011
10078SOL    HW234151   4.818   0.836   6.001  0.1878  0.2497 -0.0009
10079SOL     OW34152   2.822   8.848   2.630  0.1718  0.2279 -0.1520
10079SOL    HW134153   2.759   8.920   2.627  0.5784  0.5550 -1.6552
10079SOL    HW234154   2.806   8.800   2.548 -0.4679 -1.7390  1.0523
10080SOL     OW34155   1.822   4.085   5.434 -0.0095 -0.1075 -0.0793
10080SOL    HW134156   1.800   4.028   5.360  0.7108 -0.1163 -0.2913
10080SOL    HW234157   1.910   4.117   5.415  0.1266  0.0117  0.7046
10081SOL     OW34158   9.720   2.558   4.693  0.1255  0.0552  0.7322
10081SOL    HW134159   9.793   2.497   4.701 -0.6848 -1.0949 -0.3646
10081SOL    HW234160   9.644   2.510   4.727 -0.7250  0.0250 -1.1020
10082SOL     OW34161   5.937   1.542   1.624 -0.5617 -0.3497 -0.2711
10082SOL    HW134162   5.970   1.456   1.600  2.7185 -0.2608  3.0528
10082SOL    HW234163   5.985   1.603   1.568  0.2844 -0.5361  0.2346
10083SOL     OW34164   0.730   5.518   0.896  0.0762  0.0248 -0.0244
10083SOL    HW134165   0.794   5.548   0.962 -0.9387  0.0864  0.9621
10083SOL    HW234166   0.675   5.594   0.880  0.1267 -0.0825 -0.7316
10084SOL     OW34167   5.525   3.186   4.045  0.2214 -0.2224 -0.0328
10084SOL    HW134168   5.486   3.265   4.080  1.1023  0.6377 -0.9120
10084SOL    HW234169   5.602   3.217   3.997  0.0231 -1.5014 -1.2458
10085SOL     OW34170   2.853   2.890   0.829  0.0280 -0.1538  0.0315
10085SOL    HW134171   2.858   2.877   0.734  2.4257  0.9400 -0.0611
10085SOL    HW234172   2.803   2.970   0.839  0.0407 -0.0937 -0.3429
10086SOL     OW34173   2.798   1.773   1.459 -0.5233  0.9053  0.4558
10086SOL    HW134174   2.847   1.811   1.531 -0.6985  1.0698  0.4868
10086SOL    HW234175   2.848   1.695   1.435 -0.9446  0.3535  1.3371
10087SOL     OW34176   6.333   5.087   0.775  0.9818 -0.1767 -0.0167
10087SOL    HW134177   6.323   5.005   0.727  0.9883 -0.6361  0.7403
10087SOL    HW234178   6.278   5.076   0.853 -1.4384  1.7164 -1.3097
10088SOL     OW34179   5.995   9.039   3.198 -0.1349  0.3523 -0.2565
10088SOL    HW134180   6.034   9.021   3.284  0.0487  0.0415 -0.4060
10088SOL    HW234181   6.048   8.990   3.136  0.6015  1.6708 -0.7177
10089SOL     OW34182   9.665   6.647   0.995  0.8797 -0.7921 -0.5422
10089SOL    HW134183   9.571   6.643   1.014  0.6012  0.4594 -1.5445
10089SOL    HW234184   9.706   6.672   1.078  0.3156 -1.1409 -0.1527
10090SOL     OW34185   0.662  10.158   5.632 -0.2118  0.5989  0.4672
10090SOL    HW134186   0.624  10.241   5.605 -0.8450 -0.0494 -0.7477
10090SOL    HW234187   0.749  10.156   5.592 -0.7497  0.0824 -0.7061
10091SOL     OW34188   4.555   9.307   3.267  0.0322 -0.2000  0.0155
10091SOL    HW134189   4.585   9.398   3.263 -0.0815  0.0613  3.0437
10091SOL    HW234190   4.477   9.305   3.211  1.9508  0.6041 -2.9493
10092SOL     OW34191   3.350   6.018   7.020  0.4542 -0.3456  0.0671
10092SOL    HW134192   3.294   5.952   6.978 -0.0324 -0.7846  1.3544
10092SOL    HW234193   3.397   6.059   6.948 -0.2817 -1.1389 -0.8914
10093SOL     OW34194   3.112   4.675   5.711  0.3955  0.1061  0.2398
10093SOL    HW134195   3.120   4.731   5.788  1.9184  0.8026 -0.3827
10093SOL    HW234196   3.129   4.587   5.744 -1.7796 -0.0199  1.1842
10094SOL     OW34197   5.899   9.487   1.202 -0.0320  0.0176  0.0616
10094SOL    HW134198   5.975   9.430   1.207 -0.9385 -1.1783  0.5820
10094SOL    HW234199   5.923   9.563   1.256  0.4676 -0.7544  0.9653
10095SOL     OW34200   6.922   7.909   7.024 -0.5509  0.4800  0.5683
10095SOL    HW134201   6.965   7.988   7.056  2.1164 -1.1951  1.3935
10095SOL    HW234202   6.860   7.886   7.093 -1.8803  2.1424  0.0094
10096SOL     OW34203   4.463   5.077   8.807 -0.2368  0.0543  0.4002
10096SOL    HW134204   4.443   5.009   8.872  1.6959 -1.6748 -0.6671
10096SOL    HW234205   4.547   5.112   8.835 -0.0496  0.2605 -0.3869
10097SOL     OW34206   1.252   8.468   4.941 -0.2157 -0.2173 -0.3455
10097SOL    HW134207   1.220   8.546   4.986 -0.6561 -0.6799  0.1607
10097SOL    HW234208   1.347   8.479   4.938  0.1557 -1.2466  2.9038
10098SOL     OW34209   4.535   4.481   8.883 -0.0979  0.1821  0.0500
10098SOL    HW134210   4.540   4.410   8.947 -2.6942 -1.2952 -1.1711
10098SOL    HW234211   4.592   4.453   8.811  2.1105  1.4135  1.2212
10099SOL     OW34212   2.763   4.199   1.583  0.2123  0.3777 -0.2015
10099SOL    HW134213   2.819   4.124   1.602 -0.5431 -0.6026 -1.6597
10099SOL    HW234214   2.761   4.205   1.487  1.2824  3.0870 -0.1545
10100SOL     OW34215   4.211   4.938   3.279  0.1563 -0.4285 -0.5320
10100SOL    HW134216   4.237   4.951   3.188  1.0813  0.9072 -0.1006
10100SOL    HW234217   4.287   4.899   3.321  0.4927  0.8959  0.1213
10101SOL     OW34218   0.163   3.336   1.555 -0.0642  0.6007 -0.3813
10101SOL    HW134219   0.254   3.335   1.584  0.2231  0.3020 -1.2438
10101SOL    HW234220   0.166   3.378   1.469 -0.5196 -0.6596 -1.0452
10102SOL     OW34221   7.283  10.044   8.250 -0.1997  0.0336  0.1834
10102SOL    HW134222   7.308   9.990   8.324 -2.9265 -1.3903  0.1888
10102SOL    HW234223   7.255   9.982   8.183 -0.0176  1.3626 -1.1912
10103SOL     OW34224   4.389   5.233   6.034  0.2677 -0.2922  0.2113
10103SOL    HW134225   4.375   5.138   6.038  1.5122 -0.4610  0.8520
10103SOL    HW234226   4.348   5.259   5.951 -0.2521 -1.3490  0.1128
10104SOL     OW34227   7.639   3.115   1.087 -0.5483  0.2772  0.3961
10104SOL    HW134228   7.625   3.183   1.021  0.1386 -0.3512 -0.4089
10104SOL    HW234229   7.628   3.033   1.041 -3.2689 -0.2495  1.7610
10105SOL     OW34230   3.718   5.096   3.886  0.1668  0.1045 -0.3748
10105SOL    HW134231   3.714   5.064   3.796  1.4349  1.7736 -1.0857
10105SOL    HW234232   3.755   5.023   3.936 -1.5151 -1.2070 -0.9792
10106SOL     OW34233   2.544   3.943   5.594 -0.1745  0.3097  0.1475
10106SOL    HW134234   2.571   3.861   5.635  0.7469  0.1816 -0.6960
10106SOL    HW234235   2.573   3.936   5.504 -0.2313  1.5033  0.0203
10107SOL     OW34236   0.200   2.743   3.371  0.8028 -0.2552 -0.5824
10107SOL    HW134237   0.142   2.819   3.376 -0.1761 -0.9299 -1.2071
10107SOL    HW234238   0.145   2.670   3.400  1.8525 -0.6687  0.4135
10108SOL     OW34239   0.765   5.784   9.980 -0.5708  0.1979 -0.6057
10108SOL    HW134240   0.737   5.692   9.980  1.4694 -0.4808 -0.0260
10108SOL    HW234241   0.715   5.824  10.052  0.6668 -1.2359  1.1579
10109SOL     OW34242   8.506   1.401   7.896  0.1917 -0.3281  0.1062
10109SOL    HW134243   8.421   1.427   7.860  0.3003 -1.1739 -0.8052
10109SOL    HW234244   8.568   1.462   7.857 -0.0421  0.6087  1.1621
10110SOL     OW34245   8.039   1.213   4.543 -0.0457  0.1866  0.5762
10110SOL    HW134246   7.944   1.221   4.545 -0.1659 -0.9256  0.3160
10110SOL    HW234247   8.062   1.231   4.452  0.0427  0.8642  0.7292
10111SOL     OW34248   1.411   4.988   2.469 -0.5656  0.1213  0.1068
10111SOL    HW134249   1.371   5.074   2.457 -0.8874 -0.0331  0.0464
10111SOL    HW234250   1.344   4.937   2.515 -1.3540 -0.8410 -2.0041
10112SOL     OW34251   6.293   4.658   5.539 -0.6568  0.0103  0.1164
10112SOL    HW134252   6.361   4.666   5.472  0.1727 -1.6918  0.6763
10112SOL    HW234253   6.336   4.685   5.620 -0.0759 -2.5222  0.7408
10113SOL     OW34254   7.984   6.148   1.984  0.1205 -0.0477 -0.6820
10113SOL    HW134255   8.035   6.204   2.043 -0.6554  1.5988 -1.5124
10113SOL    HW234256   7.931   6.094   2.042 -1.0258  1.8965  0.1897
10114SOL     OW34257   9.397   0.632   0.511 -0.4591  0.1738 -0.0050
10114SOL    HW134258   9.338   0.561   0.539  0.8503 -1.5946 -1.4899
10114SOL    HW234259   9.467   0.632   0.576 -0.1665 -0.3016 -0.3157
10115SOL     OW34260   5.826   8.376   9.089 -0.0140  0.1706 -0.4608
10115SOL    HW134261   5.881   8.327   9.027  0.8922  1.7461 -0.9840
10115SOL    HW234262   5.874   8.458   9.102  0.5930 -0.6058  3.4712
10116SOL     OW34263   4.234  10.133   0.491 -0.2382 -0.2171 -0.6405
10116SOL    HW134264   4.324  10.143   0.458 -0.5221 -0.3221 -1.4771
10116SOL    HW234265   4.182  10.189   0.434 -0.6178  0.4279  0.3103
10117SOL     OW34266   6.043   2.261   4.022  0.3448  0.3787 -0.2180
10117SOL    HW134267   6.135   2.285   4.034  0.3030  0.3626  0.1353
10117SOL    HW234268   6.005   2.336   3.975  0.1804  1.1030  1.0179
10118SOL     OW34269   4.633  10.129   0.925 -0.3748 -0.1599 -0.0006
10118SOL    HW134270   4.649  10.058   0.863 -1.6133 -0.5429  0.0966
10118SOL    HW234271   4.575  10.189   0.879  0.9207  1.0043 -0.2074
10119SOL     OW34272   7.742   2.905   8.239 -0.2953  0.0261 -0.6610
10119SOL    HW134273   7.789   2.856   8.306 -0.0102  0.0370 -0.8524
10119SOL    HW234274   7.740   2.995   8.271 -0.7116 -0.0842 -0.3691
10120SOL     OW34275   4.936   6.254   9.932  1.0566  0.6794 -0.4419
10120SOL    HW134276   4.869   6.322   9.935  0.3289 -0.0560  0.5573
10120SOL    HW234277   4.931   6.211  10.018  0.8477 -1.2302 -1.3450
10121SOL     OW34278   9.735   4.925   6.209  0.1344 -0.2079 -0.1068
10121SOL    HW134279   9.752   4.967   6.294 -1.1209 -0.0261  0.0682
10121SOL    HW234280   9.658   4.969   6.175  0.5831 -0.3327 -1.3338
10122SOL     OW34281   1.040   9.096   7.753 -0.1589  0.2053 -0.1796
10122SOL    HW134282   1.063   9.091   7.845  1.2104 -1.0644 -0.5648
10122SOL    HW234283   1.092   9.169   7.719  1.6838 -1.2307 -0.5609
10123SOL     OW34284   0.396   4.439   0.211  0.4305 -0.7198  0.1814
10123SOL    HW134285   0.423   4.465   0.299  2.7767 -1.7446 -0.1588
10123SOL    HW234286   0.457   4.484   0.153 -0.6739 -0.5791 -0.9119
10124SOL     OW34287   1.571   9.479   4.134 -0.3547 -0.5891  0.0039
10124SOL    HW134288   1.560   9.484   4.040  0.6767  1.6023 -0.0703
10124SOL    HW234289   1.656   9.436   4.146 -0.6019 -1.0965 -0.0455
10125SOL     OW34290   4.963   1.786   7.539 -0.0910 -0.2828 -0.3858
10125SOL    HW134291   4.889   1.838   7.506 -0.3910 -1.7539 -2.1821
10125SOL    HW234292   5.007   1.755   7.461  1.7901 -0.4006  0.6671
10126SOL     OW34293   5.803   6.918  10.182 -0.6503  0.7751  0.0697
10126SOL    HW134294   5.767   6.978  10.248 -0.2493  2.2845 -1.0420
10126SOL    HW234295   5.728   6.865  10.156 -0.6168 -0.5749  2.4262
10127SOL     OW34296   6.245   1.091   5.485  0.1795  0.2573  0.1527
10127SOL    HW134297   6.304   1.149   5.437  0.0848 -0.0701 -0.3720
10127SOL    HW234298   6.302   1.019   5.515  0.0226 -0.1548 -0.5151
10128SOL     OW34299   6.862   1.077   4.113  0.2758 -0.2817  0.6705
10128SOL    HW134300   6.822   0.991   4.123 -0.2491  0.0753  1.7718
10128SOL    HW234301   6.924   1.083   4.185  0.6059  0.1120  0.3579
10129SOL     OW34302   3.207   4.910   8.645  0.1019  0.0173  0.1236
10129SOL    HW134303   3.302   4.899   8.652  0.2276  1.2054  0.4710
10129SOL    HW234304   3.170   4.829   8.678  0.9825 -0.0321  1.0037
10130SOL     OW34305   9.361   1.658   5.016  0.4659  0.3192 -1.1016
10130SOL    HW134306   9.406   1.705   4.945  1.9744 -0.4241 -0.6753
10130SOL    HW234307   9.423   1.590   5.043 -0.6700 -0.3304 -0.0270
10131SOL     OW34308   0.949   8.628   8.608  0.3838 -0.4407 -0.2111
10131SOL    HW134309   1.040   8.629   8.639  0.3850  0.3307 -0.2376
10131SOL    HW234310   0.953   8.666   8.520 -0.0470  0.1816  0.0332
10132SOL     OW34311   7.287   5.382   2.590 -0.4564  0.4281 -0.2088
10132SOL    HW134312   7.316   5.435   2.665 -0.3094 -0.2413  0.2175
10132SOL    HW234313   7.333   5.420   2.515  2.5965 -1.3041  0.5862
10133SOL     OW34314   8.373   7.629   2.536  0.0031 -0.4674  0.3329
10133SOL    HW134315   8.299   7.688   2.551 -1.0482 -1.1092 -1.9417
10133SOL    HW234316   8.357   7.554   2.593 -0.7372 -0.2982  0.3497
10134SOL     OW34317   1.248   4.883   8.398  0.5297  0.0012 -0.1199
10134SOL    HW134318   1.247   4.974   8.368  1.6982 -0.4014 -1.4944
10134SOL    HW234319   1.195   4.883   8.478  0.8436  1.9653  0.1297
10135SOL     OW34320   2.803   6.084   3.094  0.2764 -0.3728 -0.6271
10135SOL    HW134321   2.825   5.999   3.056  1.6428 -0.9371  1.3280
10135SOL    HW234322   2.771   6.064   3.182  1.2628  1.1691  0.1153
10136SOL     OW34323   9.860   8.955   4.026  0.1263  0.6924  0.2605
10136SOL    HW134324   9.947   8.996   4.027  1.5583 -2.0811  0.7472
10136SOL    HW234325   9.863   8.892   4.098 -2.0894  0.0961 -0.1012
10137SOL     OW34326   8.864   4.607   2.213  0.2990  0.0860 -0.8104
10137SOL    HW134327   8.819   4.671   2.268  0.5800 -0.7801  0.4847
10137SOL    HW234328   8.859   4.526   2.263  1.4182 -0.5192 -1.6428
10138SOL     OW34329   6.400   4.272   3.498 -0.1700 -0.1653  0.6176
10138SOL    HW134330   6.389   4.340   3.564 -0.8034  0.3349  0.0158
10138SOL    HW234331   6.478   4.299   3.449 -2.1321  1.9052 -1.6277
10139SOL     OW34332   2.685   3.005   5.157  0.2034  0.2346  0.1079
10139SOL    HW134333   2.658   2.963   5.239  1.4593  0.0476  0.4540
10139SOL    HW234334   2.620   3.073   5.142 -1.7322 -1.6109 -0.3059
10140SOL     OW34335   8.555   1.297   8.786  0.6323 -0.1181  0.6131
10140SOL    HW134336   8.575   1.230   8.851  0.9548 -0.1884  0.4479
10140SOL    HW234337   8.618   1.281   8.716  0.8528  0.4847  0.6647
10141SOL     OW34338   3.498   9.548   8.770 -0.2057 -0.1147 -0.3156
10141SOL    HW134339   3.407   9.529   8.794  0.4210 -0.4412  2.0505
10141SOL    HW234340   3.541   9.463   8.773  0.2080  0.0443 -1.3994
10142SOL     OW34341   2.683   0.967   2.981  0.2077  0.5072  0.2793
10142SOL    HW134342   2.614   0.911   3.014  0.7347 -0.6427 -0.5213
10142SOL    HW234343   2.664   1.053   3.019 -1.3595  0.1056  0.4660
10143SOL     OW34344   7.294   0.732   5.856  0.7450 -0.1080 -0.2385
10143SOL    HW134345   7.307   0.779   5.773  3.0531 -0.8702 -0.3599
10143SOL    HW234346   7.256   0.648   5.830  0.0784  0.2239 -0.3640
10144SOL     OW34347   1.792   6.263   5.167  0.2978 -0.1959  0.1145
10144SOL    HW134348   1.873   6.235   5.126  0.6594 -1.6262  1.6541
10144SOL    HW234349   1.732   6.281   5.094  2.0953  1.3688 -1.0545
10145SOL     OW34350   1.369   3.889   2.241 -0.0628 -0.1519  0.0210
10145SOL    HW134351   1.400   3.953   2.177 -0.0526 -0.1243  0.0536
10145SOL    HW234352   1.308   3.938   2.296  0.9693  0.1709  0.8914
10146SOL     OW34353   5.749   5.058   8.063 -0.3301  0.4161  0.1287
10146SOL    HW134354   5.723   5.114   7.990  0.6667 -0.9643 -1.3419
10146SOL    HW234355   5.708   4.973   8.044  0.0727 -0.0142  1.0974
10147SOL     OW34356   7.989   2.952   9.805 -0.2649 -0.7885 -0.2352
10147SOL    HW134357   7.953   3.003   9.733 -0.6028  0.6483  0.8936
10147SOL    HW234358   7.937   2.872   9.807 -2.1408  0.3754  0.1222
10148SOL     OW34359   0.901   5.529   5.844  0.8302 -0.0974 -0.1697
10148SOL    HW134360   0.941   5.443   5.858  1.8487  0.3668 -0.1349
10148SOL    HW234361   0.895   5.537   5.749 -0.2567 -0.6406 -0.1570
10149SOL     OW34362   0.063   6.741   5.637  0.0511 -0.1481  0.0408
10149SOL    HW134363   0.094   6.706   5.554  1.7212  2.0474 -0.3697
10149SOL    HW234364  -0.031   6.724   5.637  0.1555 -0.9928 -1.8787
10150SOL     OW34365   1.632   6.744   5.002  0.4935  0.3567  0.0021
10150SOL    HW134366   1.579   6.701   5.069 -0.2295 -1.0687 -1.3964
10150SOL    HW234367   1.577   6.816   4.971 -1.4610 -1.9650 -2.4509
10151SOL     OW34368   3.337   3.035   8.329 -0.7796 -0.1116 -0.1062
10151SOL    HW134369   3.403   3.099   8.303 -1.0100  0.8855  1.6172
10151SOL    HW234370   3.346   2.964   8.266  0.9868  0.6326 -0.7469
10152SOL     OW34371   0.442   1.045   0.123 -0.2104  0.0423  0.3562
10152SOL    HW134372   0.529   1.056   0.084 -0.2598  0.3446  0.3309
10152SOL    HW234373   0.460   1.022   0.214 -0.0826 -1.3993 -0.0006
10153SOL     OW34374   0.990   1.874   8.210  0.6255  0.3237  0.2126
10153SOL    HW134375   1.006   1.847   8.300 -0.8068 -0.3244  0.2966
10153SOL    HW234376   0.962   1.794   8.165 -0.9898  1.0802 -0.2112
10154SOL     OW34377   7.930   1.487   3.323 -0.5025  0.1580 -0.2625
10154SOL    HW134378   7.950   1.569   3.277  0.9015  0.2663  0.4516
10154SOL    HW234379   8.001   1.479   3.387 -2.1194 -0.1921  1.5911
10155SOL     OW34380   6.338   6.101   3.956 -0.1165 -0.4027  0.0530
10155SOL    HW134381   6.373   6.168   4.014 -0.3819  0.3526 -0.6446
10155SOL    HW234382   6.294   6.150   3.886 -1.1318 -1.3079  0.0317
10156SOL     OW34383   3.379   8.481   1.587 -0.5726 -0.0614 -0.8029
10156SOL    HW134384   3.372   8.409   1.650 -0.8809  1.1103  0.5574
10156SOL    HW234385   3.472   8.488   1.568 -0.3741  0.0576  0.1454
10157SOL     OW34386   4.259   3.655   1.625  0.1744  0.3512 -0.3966
10157SOL    HW134387   4.230   3.572   1.587  0.4713 -0.2889  0.7061
10157SOL    HW234388   4.354   3.656   1.610  0.6394 -0.8605  1.9432
10158SOL     OW34389   9.316   2.005   3.189 -0.3920 -0.1076 -0.0626
10158SOL    HW134390   9.240   1.973   3.238 -1.2428  0.3403 -1.0384
10158SOL    HW234391   9.377   1.932   3.187 -0.8400 -0.5065  0.6581
10159SOL     OW34392   8.857   6.832   2.273 -0.2553 -0.0660  0.1927
10159SOL    HW134393   8.903   6.912   2.247 -0.2434 -0.5279 -1.3194
10159SOL    HW234394   8.922   6.763   2.259 -1.2172 -0.6725 -1.5130
10160SOL     OW34395   8.852   6.576   2.030  0.3938  0.3511  0.3133
10160SOL    HW134396   8.944   6.577   2.003  1.2603  1.7558  2.9643
10160SOL    HW234397   8.818   6.662   2.005 -0.0134  0.0796 -0.0762
10161SOL     OW34398   4.613   9.082   9.605  0.4082 -0.1595  0.1384
10161SOL    HW134399   4.520   9.084   9.584  1.1237 -0.0819 -3.6014
10161SOL    HW234400   4.636   9.174   9.619  0.3513  0.1400 -1.5155
10162SOL     OW34401   4.340   8.618   6.706 -0.5445 -0.4547  0.0696
10162SOL    HW134402   4.319   8.582   6.620 -0.8693 -2.5828  0.9732
10162SOL    HW234403   4.434   8.631   6.705 -0.3726 -1.6628 -0.2076
10163SOL     OW34404   9.347   9.805   9.432 -0.0813  0.2233  0.0717
10163SOL    HW134405   9.309   9.726   9.395 -0.0308 -0.0709  0.6508
10163SOL    HW234406   9.277   9.846   9.482 -0.3000  0.8950 -0.7542
10164SOL     OW34407   9.825   0.427   3.820 -0.2573  0.0309  0.1534
10164SOL    HW134408   9.816   0.333   3.805  0.9328 -0.2382  0.9910
10164SOL    HW234409   9.780   0.467   3.746 -0.9614 -1.1906 -0.1075
10165SOL     OW34410   7.097   8.105   1.245 -0.0473  0.2706 -0.2765
10165SOL    HW134411   7.142   8.177   1.199  1.0136 -0.6550 -0.7182
10165SOL    HW234412   7.072   8.143   1.329  0.6751  1.1174 -0.4252
10166SOL     OW34413   7.231   8.186   5.172  0.4286 -0.3465 -0.5038
10166SOL    HW134414   7.224   8.219   5.262  0.1643 -1.7139  0.0009
10166SOL    HW234415   7.142   8.159   5.150  0.6417 -0.7401 -0.8914
10167SOL     OW34416   8.301   0.604   9.049 -0.3253 -0.4059  0.9687
10167SOL    HW134417   8.360   0.544   9.095 -0.7400 -1.1318  0.5725
10167SOL    HW234418   8.343   0.619   8.964 -1.7552 -2.7551 -0.2561
10168SOL     OW34419   0.815   4.600   2.911  0.4567 -0.3840  0.1278
10168SOL    HW134420   0.754   4.526   2.907 -0.0890 -0.0651  1.7245
10168SOL    HW234421   0.783   4.653   2.983  2.1013  0.2957  0.3973
10169SOL     OW34422  10.105   8.771   4.161  0.6485 -0.0642  0.0525
10169SOL    HW134423  10.138   8.761   4.072 -1.5175  1.5501 -1.0374
10169SOL    HW234424  10.173   8.819   4.207  1.6326 -0.5602 -0.8411
10170SOL     OW34425   8.610   4.844   6.115 -0.1231 -0.2114  0.3390
10170SOL    HW134426   8.523   4.811   6.094 -0.1183 -1.3104  1.9150
10170SOL    HW234427   8.597   4.897   6.194  0.4343  0.7963 -0.2166
10171SOL     OW34428   8.544   2.366   8.666 -0.6351 -0.0258  0.0546
10171SOL    HW134429   8.489   2.444   8.673 -1.7262 -0.8778  1.2267
10171SOL    HW234430   8.490   2.295   8.699  0.4303 -1.2638 -0.7644
10172SOL     OW34431   4.446   0.938   0.620 -0.5443 -0.1611 -0.1743
10172SOL    HW134432   4.458   1.032   0.606  2.7478 -0.4255  0.1448
10172SOL    HW234433   4.413   0.905   0.536  1.3074  0.8615 -1.3613
10173SOL     OW34434   5.895   3.879   2.788 -0.0612  0.0055  0.2266
10173SOL    HW134435   5.964   3.923   2.839 -0.3839 -0.6543  1.2603
10173SOL    HW234436   5.936   3.800   2.754 -0.1638 -0.1462  0.4477
10174SOL     OW34437   3.571  10.012   3.578 -0.0279  0.3083 -0.1293
10174SOL    HW134438   3.614   9.987   3.660 -1.7024 -1.4799  0.2835
10174SOL    HW234439   3.639  10.004   3.511  0.9561  0.2304  0.8524
10175SOL     OW34440   6.060   1.641   8.027 -0.3371 -0.5941 -0.3129
10175SOL    HW134441   6.081   1.721   8.073 -1.6503 -1.4132  1.8466
10175SOL    HW234442   6.140   1.588   8.031 -0.4024 -0.6225  1.0336
10176SOL     OW34443   4.493   9.556   6.646  0.3685 -0.5959  0.2396
10176SOL    HW134444   4.585   9.558   6.674 -0.1244  1.8114  2.0160
10176SOL    HW234445   4.471   9.463   6.645  2.6784 -1.2232  0.1932
10177SOL     OW34446   4.398   1.219   9.391  0.2034  0.0567  0.1195
10177SOL    HW134447   4.360   1.304   9.414  2.3928  1.0674  0.2927
10177SOL    HW234448   4.436   1.187   9.473  0.3205 -0.5812 -0.1774
10178SOL     OW34449   3.941   8.753   0.432 -0.0931 -0.6450 -0.0592
10178SOL    HW134450   3.931   8.691   0.360 -1.3300  0.7493 -1.1577
10178SOL    HW234451   3.916   8.838   0.394  1.0202  0.4471  1.5175
10179SOL     OW34452   3.648   9.324   3.817  0.0814 -0.2052 -0.1861
10179SOL    HW134453   3.557   9.320   3.787 -0.3045  1.5707  0.6057
10179SOL    HW234454   3.648   9.277   3.900 -0.6951  1.6943  0.9718
10180SOL     OW34455   2.720   9.506   7.662 -0.1600 -0.1218  0.3405
10180SOL    HW134456   2.727   9.576   7.727  2.3655 -0.2666  0.3327
10180SOL    HW234457   2.758   9.543   7.583 -4.0759  0.4010 -1.5164
10181SOL     OW34458   2.401   9.792   7.635  0.4987 -0.1552 -0.2419
10181SOL    HW134459   2.369   9.794   7.545 -0.4132 -2.7905 -0.0739
10181SOL    HW234460   2.394   9.700   7.661  1.9533  0.3072  2.1058
10182SOL     OW34461   6.440   7.894   0.440  0.1797 -0.2200 -0.7753
10182SOL    HW134462   6.418   7.979   0.401 -0.7393 -0.0993 -0.0283
10182SOL    HW234463   6.355   7.853   0.457  0.5414 -0.1606  1.3487
10183SOL     OW34464   1.300   5.414   4.460  0.3959  0.2180 -0.0262
10183SOL    HW134465   1.267   5.406   4.371 -1.0502 -0.1577  0.5246
10183SOL    HW234466   1.304   5.508   4.477 -1.0856  0.2628  0.1327
10184SOL     OW34467   9.386   8.833   9.914 -0.0237 -0.2261 -0.5469
10184SOL    HW134468   9.435   8.754   9.891 -0.6435 -0.4340 -1.1875
10184SOL    HW234469   9.376   8.880   9.832  1.0091  0.9207 -0.0395
10185SOL     OW34470   2.360   3.387   1.824 -0.0321 -0.9095  0.6575
10185SOL    HW134471   2.376   3.481   1.810  0.6557 -0.8819  1.5372
10185SOL    HW234472   2.425   3.344   1.769 -2.4234 -0.9904 -2.3611
10186SOL     OW34473   7.979   6.728   6.482 -0.3552 -0.3870  0.0687
10186SOL    HW134474   8.073   6.745   6.489 -0.4848  0.1833  0.5596
10186SOL    HW234475   7.945   6.749   6.569 -1.2857  1.7555 -0.7473
10187SOL     OW34476   1.661   1.634   4.951 -0.6144 -0.1291 -0.2105
10187SOL    HW134477   1.573   1.659   4.977 -1.0915 -1.9327  0.0338
10187SOL    HW234478   1.701   1.716   4.920 -2.7520  0.5135 -1.4701
10188SOL     OW34479   5.946   1.746   4.414  0.7571  0.4569  0.1603
10188SOL    HW134480   5.906   1.718   4.332  0.8240  2.3970 -0.5920
10188SOL    HW234481   6.036   1.716   4.409  0.4692 -0.4040  0.0415
10189SOL     OW34482   5.118   0.296   9.467 -0.5037  0.1840 -0.0518
10189SOL    HW134483   5.192   0.334   9.515  0.0174 -0.3971 -0.3800
10189SOL    HW234484   5.156   0.263   9.386 -1.2012  0.2397 -0.4131
10190SOL     OW34485   9.214   7.970   8.016 -0.1653 -0.0608 -0.2028
10190SOL    HW134486   9.177   7.887   8.047  2.2479 -0.5846  1.6033
10190SOL    HW234487   9.186   8.034   8.082 -1.5800  0.5142 -1.3097
10191SOL     OW34488   5.769   6.103   8.194 -0.3708  0.5146  0.2579
10191SOL    HW134489   5.698   6.154   8.156 -0.1592  0.9974  0.5011
10191SOL    HW234490   5.837   6.168   8.213  0.1207  0.0626  0.0551
10192SOL     OW34491   5.439   1.196   0.541  0.4178 -0.2629  0.1602
10192SOL    HW134492   5.464   1.121   0.487  0.0869 -0.6258  0.5068
10192SOL    HW234493   5.361   1.167   0.588 -1.0209  1.0413 -1.2871
10193SOL     OW34494   1.222   5.499   4.858  0.2191 -0.2064 -0.6784
10193SOL    HW134495   1.313   5.516   4.881 -0.1207  0.2211  0.3944
10193SOL    HW234496   1.220   5.407   4.832  0.7493 -0.5274  0.3790
10194SOL     OW34497   6.409   3.116   0.858 -0.0029 -0.3306  0.1336
10194SOL    HW134498   6.370   3.038   0.817 -0.4268  0.2693 -0.6423
10194SOL    HW234499   6.413   3.180   0.787 -2.5116  1.3960  1.4151
10195SOL     OW34500   4.844   1.525   6.619  0.1053  0.3159  0.0808
10195SOL    HW134501   4.807   1.466   6.685  1.0490 -0.9714 -0.5114
10195SOL    HW234502   4.777   1.528   6.550  0.3719 -0.7013 -0.2393
10196SOL     OW34503   7.874   0.213   0.175  0.5650  0.5725  0.2457
10196SOL    HW134504   7.891   0.231   0.268 -0.0749  0.5166  0.3731
10196SOL    HW234505   7.943   0.151   0.150  0.5948  0.3975  0.7480
10197SOL     OW34506   2.267   4.600   6.326  0.3948 -0.3633  0.0342
10197SOL    HW134507   2.290   4.607   6.233 -0.8080 -1.1488 -0.3445
10197SOL    HW234508   2.305   4.517   6.353  0.4073 -0.3216  0.1457
10198SOL     OW34509   1.022   4.660   2.097  0.2272 -0.9643  0.5451
10198SOL    HW134510   1.015   4.641   2.004  1.2958  1.0274  0.0061
10198SOL    HW234511   1.110   4.631   2.122 -0.7597 -3.4547  1.5186
10199SOL     OW34512   0.314   4.677   9.895  0.0650 -0.1795 -0.3193
10199SOL    HW134513   0.285   4.750   9.841  1.6698 -0.1327 -1.1614
10199SOL    HW234514   0.409   4.681   9.893  0.1820 -1.2829  1.0255
10200SOL     OW34515   9.467   6.580   3.902  0.2472 -0.3353  0.3689
10200SOL    HW134516   9.522   6.648   3.940 -2.6841  2.0905  0.6555
10200SOL    HW234517   9.497   6.573   3.811  1.5861  0.1935  0.7495
10201SOL     OW34518   2.353   2.383   6.658  0.2106  0.4918 -0.3863
10201SOL    HW134519   2.372   2.399   6.566 -0.2953 -0.3326 -0.6430
10201SOL    HW234520   2.347   2.288   6.665 -2.1669  0.6172  0.0058
10202SOL     OW34521   5.406   2.544   4.658  0.2361 -0.6021 -0.0178
10202SOL    HW134522   5.322   2.508   4.686  0.0357 -0.3474 -0.2827
10202SOL    HW234523   5.385   2.594   4.579  0.7476 -1.1042 -0.4768
10203SOL     OW34524   9.222   2.710   2.678  0.0391  0.6300 -0.4400
10203SOL    HW134525   9.282   2.766   2.727  1.8237 -1.7556  0.2620
10203SOL    HW234526   9.138   2.721   2.723  1.0347  0.4762  1.5562
10204SOL     OW34527   8.470   1.038   4.570 -0.2469  0.0470  0.3327
10204SOL    HW134528   8.518   1.091   4.507 -0.8822  0.3104  0.0611
10204SOL    HW234529   8.527   0.963   4.587 -0.5225 -0.6121 -1.4090
10205SOL     OW34530   3.885   1.266   8.234  0.0618 -0.0885 -0.1447
10205SOL    HW134531   3.908   1.183   8.275 -0.5381  0.7659  2.0458
10205SOL    HW234532   3.790   1.273   8.246 -0.3393 -0.1960 -2.5762
10206SOL     OW34533   8.068   8.274   0.896  0.1625  0.5055  0.0257
10206SOL    HW134534   8.076   8.316   0.810  1.1756 -2.3520 -1.4245
10206SOL    HW234535   7.998   8.210   0.883  1.2010 -0.8464  0.9011
10207SOL     OW34536   9.774   2.986   1.175 -0.0392 -0.2503 -0.2749
10207SOL    HW134537   9.711   2.928   1.218 -0.5530  0.6995  0.2955
10207SOL    HW234538   9.787   3.057   1.238  0.2069  0.4965 -1.1530
10208SOL     OW34539   3.666   0.706   4.021  0.4416  0.1204 -0.8637
10208SOL    HW134540   3.603   0.776   4.034 -1.0468 -1.6068  2.1486
10208SOL    HW234541   3.750   0.744   4.044 -0.4059  0.8482  1.1957
10209SOL     OW34542   6.643   0.525   7.554 -0.7108  0.1995 -0.2854
10209SOL    HW134543   6.637   0.454   7.490 -0.1060  1.1720 -1.4636
10209SOL    HW234544   6.582   0.591   7.522 -1.0791  0.3297  0.6594
10210SOL     OW34545   4.930   4.203   2.219  0.1850 -0.4368  0.5053
10210SOL    HW134546   5.009   4.151   2.199  0.0367 -0.8249  0.9294
10210SOL    HW234547   4.878   4.147   2.276  0.0184  0.1811  0.9636
10211SOL     OW34548   4.256   7.295   3.717  0.0014  0.1018  0.2334
10211SOL    HW134549   4.245   7.296   3.812  0.7231 -0.6484  0.3330
10211SOL    HW234550   4.348   7.276   3.704 -0.2308 -0.4730 -0.6300
10212SOL     OW34551   9.624   1.998   2.410 -0.2655 -0.0661 -0.5618
10212SOL    HW134552   9.550   2.030   2.359 -1.2481  0.7161  1.2651
10212SOL    HW234553   9.585   1.955   2.485  1.1454 -1.4649 -0.5900
10213SOL     OW34554   8.078   0.838   3.927  0.2242 -0.3380  0.5397
10213SOL    HW134555   8.089   0.910   3.990 -0.9128 -0.2735  0.6797
10213SOL    HW234556   8.143   0.773   3.953 -0.1233 -0.2444  1.7037
10214SOL     OW34557   5.199   6.185   4.251  0.6109  0.2363  0.4300
10214SOL    HW134558   5.236   6.220   4.332 -0.7585  1.0720  0.7261
10214SOL    HW234559   5.109   6.163   4.273 -0.7481  3.2449 -1.5412
10215SOL     OW34560   7.142   6.939   0.186  0.4735  0.1785 -0.4144
10215SOL    HW134561   7.057   6.899   0.164 -0.0337  1.8581 -1.7615
10215SOL    HW234562   7.203   6.901   0.123  0.2749  0.4756 -0.7945
10216SOL     OW34563   5.258   0.956   3.372 -0.1395  0.2992 -0.5899
10216SOL    HW134564   5.266   0.985   3.281 -2.5304 -1.1783 -1.3834
10216SOL    HW234565   5.297   0.868   3.372 -1.9438 -0.5524 -0.7612
10217SOL     OW34566   4.167   1.190   6.528  0.3618  0.5166  0.5121
10217SOL    HW134567   4.218   1.109   6.528 -0.9040 -0.3161  0.5635
10217SOL    HW234568   4.147   1.206   6.436 -1.0716 -0.3746  0.6310
10218SOL     OW34569   8.582   4.182   6.107 -0.0975 -0.0848 -0.3088
10218SOL    HW134570   8.666   4.228   6.102  1.0475 -2.1626 -1.4217
10218SOL    HW234571   8.575   4.156   6.199  0.3928  0.2582 -0.1703
10219SOL     OW34572   0.490   7.491   8.272  0.1099  0.5469 -0.1463
10219SOL    HW134573   0.460   7.409   8.313  0.8532  0.0404 -0.5963
10219SOL    HW234574   0.454   7.488   8.183  0.5424  0.4744 -0.3210
10220SOL     OW34575   8.071   1.124   9.869  0.2591  0.0392 -0.7670
10220SOL    HW134576   8.106   1.050   9.820  0.2417 -1.6997  1.6440
10220SOL    HW234577   8.146   1.157   9.919 -0.9829 -3.4024  4.0562
10221SOL     OW34578   9.730   7.262   2.337  0.1257  0.5424  0.8737
10221SOL    HW134579   9.744   7.340   2.391 -2.0808  2.4418 -1.1273
10221SOL    HW234580   9.818   7.236   2.310  1.1396  0.6538  3.6833
10222SOL     OW34581   6.151   7.326   9.377  0.0372  0.0644  0.4985
10222SOL    HW134582   6.078   7.374   9.338  0.6923  0.4891 -0.2678
10222SOL    HW234583   6.221   7.334   9.312 -0.0704 -2.6745 -0.0858
10223SOL     OW34584   3.599   0.886   5.035  0.6889  0.0642 -0.4030
10223SOL    HW134585   3.576   0.826   4.964  1.6225  0.1894 -0.8300
10223SOL    HW234586   3.695   0.886   5.036  0.6924  0.9467  0.1071
10224SOL     OW34587   8.226   6.753   6.226  0.0144 -0.5648 -0.6495
10224SOL    HW134588   8.141   6.718   6.200 -0.2969  0.3887 -0.9616
10224SOL    HW234589   8.261   6.792   6.145  0.0461  0.4280 -0.1736
10225SOL     OW34590   6.466   0.356   2.315 -0.5422  0.2198 -0.5326
10225SOL    HW134591   6.502   0.416   2.381 -1.7850  0.2032  0.1869
10225SOL    HW234592   6.396   0.406   2.273 -2.3250 -1.0023  0.7997
10226SOL     OW34593   3.084   1.796   4.227 -0.3895 -0.8523  0.2202
10226SOL    HW134594   3.135   1.768   4.303  0.5045  0.4225  0.1331
10226SOL    HW234595   2.996   1.812   4.262 -0.0350 -0.4637  0.9659
10227SOL     OW34596   0.812   4.524   9.943 -0.1641 -0.4683 -0.5150
10227SOL    HW134597   0.881   4.457   9.946 -0.3099 -0.6877 -1.6627
10227SOL    HW234598   0.776   4.525  10.032 -2.1651 -4.0311 -1.0843
10228SOL     OW34599   4.385   1.508   2.445 -0.1194 -0.5402  0.4583
10228SOL    HW134600   4.334   1.448   2.500 -0.0526 -1.7760 -0.7649
10228SOL    HW234601   4.463   1.457   2.422  0.0969  0.1471 -0.3497
10229SOL     OW34602   9.746   9.779   9.609 -0.2097 -0.3505 -0.2595
10229SOL    HW134603   9.805   9.812   9.676 -0.6337  0.5591 -0.3181
10229SOL    HW234604   9.662   9.769   9.654 -0.3365 -0.3603 -0.4940
10230SOL     OW34605   4.844   0.433   0.809  0.1808  0.5393  0.0352
10230SOL    HW134606   4.856   0.339   0.821  1.0330  0.7274  0.7984
10230SOL    HW234607   4.818   0.466   0.895 -1.5069  0.8246 -0.5464
10231SOL     OW34608   7.275   1.145   3.739 -0.3042 -0.7082  0.6802
10231SOL    HW134609   7.194   1.148   3.689 -1.7537  1.0174  2.9226
10231SOL    HW234610   7.248   1.144   3.831  2.1867  0.0467  1.5309
10232SOL     OW34611   6.844   6.230   9.079  0.1902 -0.0288 -0.1352
10232SOL    HW134612   6.772   6.273   9.125  1.1082  0.0467  1.3210
10232SOL    HW234613   6.835   6.258   8.988  0.4183  2.8700  0.6198
10233SOL     OW34614   4.641   3.276   2.528 -0.2481 -0.0558 -0.1723
10233SOL    HW134615   4.645   3.263   2.623 -0.9279 -2.1142 -0.3658
10233SOL    HW234616   4.708   3.342   2.509 -0.8438  1.2040  1.8383
10234SOL     OW34617   7.615   2.157   5.850 -0.6126 -0.1695  0.2970
10234SOL    HW134618   7.594   2.150   5.757  0.1283 -0.3063  0.1338
10234SOL    HW234619   7.708   2.181   5.852 -0.1189 -1.9808  0.9991
10235SOL     OW34620   9.651   5.601   7.165  0.2693 -0.1550 -0.6200
10235SOL    HW134621   9.568   5.556   7.145  0.6159 -0.9636 -0.3032
10235SOL    HW234622   9.716   5.531   7.162  0.8689  0.3892 -0.3649
10236SOL     OW34623   8.728   2.313   4.132 -0.7767  0.1834  0.2483
10236SOL    HW134624   8.708   2.386   4.073 -0.2578  1.4236  1.5287
10236SOL    HW234625   8.657   2.315   4.196  0.6260  1.3371  1.8523
10237SOL     OW34626   3.557   1.678   0.955 -0.0528 -0.8002 -0.0039
10237SOL    HW134627   3.609   1.624   1.014  0.3803  0.0902  0.4445
10237SOL    HW234628   3.556   1.765   0.996 -3.0813 -1.0662  0.7843
10238SOL     OW34629   4.960   6.030   8.682  0.4036 -0.2994  0.6711
10238SOL    HW134630   4.973   6.108   8.737  1.0940 -0.0254  0.1383
10238SOL    HW234631   4.947   6.065   8.594 -1.4423 -0.7035  0.7600
10239SOL     OW34632   7.242   9.126   4.360 -0.5899  0.3808 -0.2387
10239SOL    HW134633   7.185   9.068   4.310 -1.7401 -0.7451  2.2109
10239SOL    HW234634   7.312   9.069   4.391  0.0532  1.0353 -0.4666
10240SOL     OW34635   5.683   2.095   7.041 -0.0705 -0.4116  0.0702
10240SOL    HW134636   5.698   2.094   7.135 -0.2602 -1.3506  0.0991
10240SOL    HW234637   5.661   2.004   7.019  2.0329 -0.6832 -1.2166
10241SOL     OW34638   3.766   6.837   2.456 -0.0440  0.2364  0.1958
10241SOL    HW134639   3.700   6.802   2.397  0.2485  0.5923 -0.3542
10241SOL    HW234640   3.809   6.906   2.406  0.7507  0.0051  0.5349
10242SOL     OW34641   3.593   9.647   7.213 -0.0305 -0.7728 -0.0597
10242SOL    HW134642   3.545   9.630   7.294  1.0925 -3.0499  0.2114
10242SOL    HW234643   3.608   9.560   7.175  1.0550  0.1047 -1.7779
10243SOL     OW34644   9.329   7.868   5.945 -0.2843  0.0339  0.0420
10243SOL    HW134645   9.297   7.822   5.868 -1.4041  1.2797 -0.2753
10243SOL    HW234646   9.301   7.814   6.019 -1.1048 -0.0807 -0.3442
10244SOL     OW34647   9.088   9.649   8.444  0.6088  0.0801  0.5610
10244SOL    HW134648   9.027   9.581   8.473 -0.3009  1.4546  2.0268
10244SOL    HW234649   9.034   9.727   8.433  1.4997  0.4394 -1.8250
10245SOL     OW34650   6.698   4.984   7.941 -0.8733 -0.1706  0.3188
10245SOL    HW134651   6.695   4.935   8.024 -2.9127  2.2452  1.8061
10245SOL    HW234652   6.779   5.035   7.946  1.0072 -2.7983 -1.0195
10246SOL     OW34653   3.200   3.074   5.416 -0.1175  0.5000 -0.3257
10246SOL    HW134654   3.243   3.152   5.452 -0.2362 -0.1064  1.1945
10246SOL    HW234655   3.111   3.078   5.451  0.4096 -1.2885  1.3512
10247SOL     OW34656   9.183  10.012   1.416  0.4099  0.2233 -0.2166
10247SOL    HW134657   9.209  10.073   1.485  2.0387 -1.2897  0.5667
10247SOL    HW234658   9.124   9.950   1.460  0.4380 -0.0056 -0.4964
10248SOL     OW34659   2.726   3.660   8.310 -0.1004 -0.0148  0.2218
10248SOL    HW134660   2.704   3.604   8.235 -1.5679  3.0516 -1.8292
10248SOL    HW234661   2.648   3.656   8.366  0.3581 -1.0279  0.8272
10249SOL     OW34662   3.762   1.857   6.407 -0.0775  0.3809  0.1028
10249SOL    HW134663   3.844   1.842   6.454 -0.0096  0.9549  0.1804
10249SOL    HW234664   3.733   1.770   6.380  1.1120  0.2760 -0.8860
10250SOL     OW34665   0.851   0.467   0.395 -0.4519  0.4894 -0.8089
10250SOL    HW134666   0.828   0.535   0.332 -0.4020  0.5052 -0.8103
10250SOL    HW234667   0.923   0.419   0.353 -0.2594  0.6483 -0.6631
10251SOL     OW34668   4.447   1.567   3.817  0.2886  0.4243 -0.3358
10251SOL    HW134669   4.496   1.547   3.738  0.4734 -0.9311  0.1009
10251SOL    HW234670   4.512   1.597   3.879  0.2108  1.0196 -0.5371
10252SOL     OW34671   3.857   8.563   4.942  0.4711 -0.2059  0.2914
10252SOL    HW134672   3.819   8.622   4.877  1.8000  1.1291  0.6758
10252SOL    HW234673   3.781   8.526   4.988 -0.4599 -0.4983 -1.3850
10253SOL     OW34674   9.328   4.331   6.786  0.1599  0.0063 -0.6806
10253SOL    HW134675   9.395   4.262   6.783  0.9197  0.7381 -2.1097
10253SOL    HW234676   9.271   4.311   6.711 -0.0579  0.4970 -0.6456
10254SOL     OW34677   5.145   1.744   1.152 -0.3682 -0.5435 -0.4034
10254SOL    HW134678   5.060   1.781   1.126  0.1243  0.0835 -1.1505
10254SOL    HW234679   5.168   1.791   1.232 -0.2536  0.0216 -0.7613
10255SOL     OW34680   7.814   8.101   4.238 -0.4615 -0.1078  0.3468
10255SOL    HW134681   7.838   8.107   4.146  0.8224  0.9759  0.7309
10255SOL    HW234682   7.793   8.190   4.264 -0.1215 -0.2881  1.2905
10256SOL     OW34683   8.851   3.105   2.605 -0.0741 -0.1612  1.0790
10256SOL    HW134684   8.813   3.099   2.692  0.5605 -0.2197  1.3594
10256SOL    HW234685   8.874   3.015   2.582  1.1947  0.0217  1.5227
10257SOL     OW34686   6.013   8.292   7.129  0.0643 -0.4440  0.4257
10257SOL    HW134687   5.966   8.216   7.163 -0.8500 -0.5080 -0.9051
10257SOL    HW234688   5.970   8.367   7.170  0.3242 -0.5899  0.9776
10258SOL     OW34689   7.576   2.471   5.491 -0.4798  0.3012  0.1016
10258SOL    HW134690   7.530   2.555   5.486 -0.4381  0.3773  0.8253
10258SOL    HW234691   7.656   2.484   5.440 -1.2767  0.1435 -1.2409
10259SOL     OW34692   7.127   1.105   3.977  0.2104 -0.1123  0.0252
10259SOL    HW134693   7.160   1.035   4.033  0.9626 -0.6317 -1.0441
10259SOL    HW234694   7.046   1.070   3.940 -1.1732  0.8233  1.9417
10260SOL     OW34695   7.912   9.481   2.098 -0.1214 -0.2196  0.8043
10260SOL    HW134696   7.885   9.399   2.139  1.7272 -0.2460  2.1356
10260SOL    HW234697   7.853   9.547   2.134 -0.6812 -0.7571  0.8749
10261SOL     OW34698   3.801   2.024   0.274  0.0625  0.2406 -0.1933
10261SOL    HW134699   3.763   2.091   0.331 -0.5995  0.0939 -0.4497
10261SOL    HW234700   3.877   1.992   0.322 -0.4759  0.1235  0.6102
10262SOL     OW34701   3.595   2.568   3.455  0.5164 -0.3897  0.2973
10262SOL    HW134702   3.676   2.519   3.445  0.5737 -0.3865  0.7290
10262SOL    HW234703   3.602   2.639   3.392  1.4569  0.4151  1.2710
10263SOL     OW34704   8.702   7.659   7.461 -0.1388  0.5753  0.1663
10263SOL    HW134705   8.743   7.574   7.473  0.0970  0.1945 -2.6283
10263SOL    HW234706   8.700   7.698   7.549  2.6376 -0.9738  1.0209
10264SOL     OW34707   9.050   7.803   1.949 -0.3524 -0.3897 -0.1866
10264SOL    HW134708   9.128   7.761   1.914  0.7053  1.1394  0.2445
10264SOL    HW234709   9.076   7.894   1.964 -1.8221 -0.1528  1.2166
10265SOL     OW34710   0.536   2.106   8.141  0.0353  0.2944  0.4951
10265SOL    HW134711   0.575   2.021   8.119 -0.1047 -0.0887  1.6570
10265SOL    HW234712   0.516   2.146   8.056  4.2251  1.1612 -0.3297
10266SOL     OW34713   1.423   9.363   8.264 -0.3970 -0.2588 -0.0530
10266SOL    HW134714   1.388   9.355   8.352  1.8168  2.0434  1.1877
10266SOL    HW234715   1.399   9.452   8.236  1.5491  0.2101 -0.4128
10267SOL     OW34716   8.789   9.060   7.541  0.4379 -0.4194 -0.4742
10267SOL    HW134717   8.731   9.094   7.609  1.7649  1.1909 -0.0804
10267SOL    HW234718   8.761   9.105   7.462 -0.0657 -1.0859 -0.6844
10268SOL     OW34719   7.680   5.732   9.171  0.2661  0.1810  0.6639
10268SOL    HW134720   7.609   5.745   9.108  0.6181 -1.0848 -0.0325
10268SOL    HW234721   7.707   5.820   9.195  0.9657  0.7765 -1.9442
10269SOL     OW34722   6.056   0.466   5.931 -0.3441  0.3151  0.3291
10269SOL    HW134723   6.125   0.449   5.866  2.6671  3.0572  2.4500
10269SOL    HW234724   6.017   0.549   5.903 -1.4152 -0.2099  0.2337
10270SOL     OW34725   4.682   7.093   9.595 -0.2875 -0.0184  0.0513
10270SOL    HW134726   4.664   7.000   9.585 -0.1983 -0.3110  2.0895
10270SOL    HW234727   4.770   7.105   9.559  0.1092 -0.9365  0.6881
10271SOL     OW34728   7.318   1.008   6.735 -0.0036  0.2328 -0.5059
10271SOL    HW134729   7.244   1.045   6.783 -0.7927  0.4256 -1.8084
10271SOL    HW234730   7.333   1.070   6.663  1.0684 -0.0909 -0.5770
10272SOL     OW34731   5.747   2.831   8.043 -0.6693  0.2838  0.8489
10272SOL    HW134732   5.722   2.778   8.118 -0.7291 -0.3829  0.3677
10272SOL    HW234733   5.771   2.768   7.975  0.5469  0.8886  0.6868
10273SOL     OW34734   8.818   7.561   8.420 -0.3430  0.2177 -0.3814
10273SOL    HW134735   8.912   7.546   8.420 -0.2194  0.9229 -1.3744
10273SOL    HW234736   8.790   7.537   8.332 -0.9785  0.6917 -0.3102
10274SOL     OW34737   5.590   9.467   5.373 -0.2511  0.2138 -0.6284
10274SOL    HW134738   5.615   9.457   5.465 -1.5903 -3.1461 -0.4762
10274SOL    HW234739   5.671   9.491   5.329  1.5358 -2.4561  0.8942
10275SOL     OW34740   4.518   2.124   9.632  0.0849 -0.6018 -0.7035
10275SOL    HW134741   4.430   2.146   9.605  0.3801  1.9672  0.1526
10275SOL    HW234742   4.572   2.135   9.554  0.0497  0.8317 -0.5529
10276SOL     OW34743   1.196   1.431   5.187  0.0299 -0.2244  0.7039
10276SOL    HW134744   1.260   1.360   5.181 -0.5910 -0.6654 -1.4662
10276SOL    HW234745   1.225   1.495   5.121  0.7092  1.7122  2.7573
10277SOL     OW34746   3.669   1.812  10.166  0.2773 -0.1819 -0.0949
10277SOL    HW134747   3.578   1.837  10.153  0.5935  0.8670 -0.3461
10277SOL    HW234748   3.683   1.820  10.261 -0.2651 -1.7265  0.1525
10278SOL     OW34749   2.533   4.810   6.108  0.3983  0.1256  0.1318
10278SOL    HW134750   2.596   4.739   6.119  0.7283 -0.1037 -2.5008
10278SOL    HW234751   2.448   4.766   6.096  0.4754  0.1978 -0.7200
10279SOL     OW34752   0.564   8.199   7.534  0.7624 -0.9016 -0.0425
10279SOL    HW134753   0.490   8.157   7.578  0.1537 -1.9445 -1.9222
10279SOL    HW234754   0.547   8.293   7.544  1.6007 -0.9733  3.3599
10280SOL     OW34755   6.405   3.127   1.364 -0.6865  0.5755 -1.0227
10280SOL    HW134756   6.406   3.053   1.303  2.5420  1.0316 -1.7085
10280SOL    HW234757   6.377   3.202   1.311  0.6110  0.6764 -1.6026
10281SOL     OW34758   3.898   4.734   1.451 -0.3216  0.1966 -0.0085
10281SOL    HW134759   3.851   4.764   1.373 -1.9320 -0.0998  0.8171
10281SOL    HW234760   3.925   4.815   1.495  0.4212  0.3649 -0.7399
10282SOL     OW34761   8.943   9.671   9.585 -0.4355 -0.6253 -0.0216
10282SOL    HW134762   8.919   9.740   9.524  2.6901  0.0863 -0.6186
10282SOL    HW234763   8.981   9.717   9.660  1.0578 -1.6217 -0.1235
10283SOL     OW34764   6.175   1.581   2.149 -0.1312  0.4000  0.0831
10283SOL    HW134765   6.098   1.588   2.094 -0.2289  0.7504  0.2622
10283SOL    HW234766   6.249   1.597   2.090 -0.0585 -1.8591 -0.4995
10284SOL     OW34767   2.127   2.175   4.609  0.8605 -0.0188  0.0344
10284SOL    HW134768   2.196   2.241   4.617 -0.5135  1.3485  1.3307
10284SOL    HW234769   2.098   2.181   4.519  0.3734  1.6027  0.2649
10285SOL     OW34770   7.510   0.599   5.960 -0.1241  0.0733  1.1551
10285SOL    HW134771   7.499   0.688   5.926 -0.1572 -0.5887 -0.7145
10285SOL    HW234772   7.599   0.599   5.996  0.6106  0.4025 -0.5202
10286SOL     OW34773   9.429   5.621   7.697  0.2203  0.4847  0.0034
10286SOL    HW134774   9.521   5.610   7.674  0.1136  1.2058 -0.8379
10286SOL    HW234775   9.387   5.645   7.614 -0.7253  0.1526  0.3759
10287SOL     OW34776   9.004   0.849   8.586 -0.4789  0.0230 -0.1101
10287SOL    HW134777   9.056   0.790   8.640 -0.1330  0.0103 -0.4530
10287SOL    HW234778   8.947   0.895   8.648 -2.8841 -2.7233 -0.0810
10288SOL     OW34779   2.586   7.104   2.633  0.2289  0.5157  0.6659
10288SOL    HW134780   2.642   7.178   2.655  0.4666  1.6947 -3.1277
10288SOL    HW234781   2.497   7.134   2.654  0.4130  1.5302  0.0486
10289SOL     OW34782   8.559   1.623   9.627 -0.2725  0.0967 -0.2826
10289SOL    HW134783   8.628   1.677   9.665 -1.2548  0.8509  0.4712
10289SOL    HW234784   8.540   1.665   9.543  1.3656 -1.1306 -1.3362
10290SOL     OW34785   5.307  10.082   2.851  0.1283 -0.3069 -0.5050
10290SOL    HW134786   5.361  10.073   2.930  0.6848  2.1317 -0.5297
10290SOL    HW234787   5.362  10.046   2.781  0.1206 -1.3823  0.0166
10291SOL     OW34788   6.665   3.044   5.217  0.2134  0.1479 -0.8013
10291SOL    HW134789   6.635   2.954   5.207  2.7186 -0.9752  0.6940
10291SOL    HW234790   6.634   3.070   5.304  1.5349 -0.2280 -0.1843
10292SOL     OW34791   5.214   0.265   1.767 -0.0108  0.3988  0.0739
10292SOL    HW134792   5.153   0.245   1.696  1.3037  0.9630 -1.2461
10292SOL    HW234793   5.159   0.267   1.846 -1.5586  0.1394 -0.9651
10293SOL     OW34794   5.059   6.639   0.174  0.4312 -0.0929 -0.2631
10293SOL    HW134795   4.969   6.625   0.146  0.0239 -0.5921  1.1908
10293SOL    HW234796   5.112   6.623   0.096 -0.7475  0.5751 -1.2391
10294SOL     OW34797   1.705   7.545   9.933  0.2220 -0.4391  0.2631
10294SOL    HW134798   1.733   7.610   9.868 -0.7469 -0.4926 -0.2222
10294SOL    HW234799   1.639   7.590   9.985  0.0952 -0.7956  0.4135
10295SOL     OW34800   3.755   6.268   4.730  0.1245  0.4097 -0.4324
10295SOL    HW134801   3.683   6.300   4.675  1.1017  1.7136 -1.0020
10295SOL    HW234802   3.834   6.294   4.683  0.9849  0.3236  0.9228
10296SOL     OW34803   0.889   4.652   3.743  0.2229  0.7733 -1.0065
10296SOL    HW134804   0.881   4.617   3.832  0.8690  0.1497 -1.1921
10296SOL    HW234805   0.983   4.657   3.727  0.1689  2.8883 -0.8841
10297SOL     OW34806   2.806   4.414   4.566 -0.3471 -0.2777 -0.0212
10297SOL    HW134807   2.895   4.398   4.537 -0.0641 -0.2719  0.8012
10297SOL    HW234808   2.810   4.500   4.608 -0.1686 -1.2796  2.1565
10298SOL     OW34809   1.626   5.807   7.066 -0.3092 -0.4340  0.3401
10298SOL    HW134810   1.548   5.760   7.094  0.1736 -1.1456  0.5164
10298SOL    HW234811   1.680   5.742   7.021 -0.7589  0.5286 -1.7161
10299SOL     OW34812   5.665   8.630   9.349  0.2533  0.1886  0.3466
10299SOL    HW134813   5.752   8.609   9.315  0.3409 -0.5065  0.9906
10299SOL    HW234814   5.665   8.725   9.357  0.9072  0.2037  0.2180
10300SOL     OW34815   3.837   7.759   7.245 -0.1928  0.6193  0.1257
10300SOL    HW134816   3.813   7.845   7.210 -1.0695  0.7003  0.8789
10300SOL    HW234817   3.886   7.778   7.325 -0.4268  0.4247  0.3182
10301SOL     OW34818   2.775   9.315   1.226  0.3046 -0.9106  0.1234
10301SOL    HW134819   2.745   9.224   1.216  0.8993 -0.9145 -2.6395
10301SOL    HW234820   2.860   9.317   1.181  0.7088  0.8337  0.8889
10302SOL     OW34821   3.496   7.783   7.013  0.1232 -0.3117 -0.7081
10302SOL    HW134822   3.537   7.720   7.072 -1.3988  1.0453  1.9621
10302SOL    HW234823   3.409   7.747   6.995 -0.9307  1.0765  1.1915
10303SOL     OW34824   3.829   3.980   7.029  0.0960 -0.0906  0.0081
10303SOL    HW134825   3.918   3.946   7.019  0.1357 -0.0482  0.2116
10303SOL    HW234826   3.801   4.000   6.940  0.2287 -0.2599 -0.0725
10304SOL     OW34827   9.234   5.184   5.702  0.2725  0.3293  0.1450
10304SOL    HW134828   9.140   5.198   5.686 -0.1626 -0.3827  1.8557
10304SOL    HW234829   9.242   5.090   5.714  1.3506  0.3019 -0.6497
10305SOL     OW34830   6.930   3.209  10.050  0.4266  0.0239  0.1328
10305SOL    HW134831   6.945   3.116  10.033  0.4306 -0.0535  0.5347
10305SOL    HW234832   6.901   3.245   9.966 -1.0189 -0.6394  0.3074
10306SOL     OW34833   0.512   3.982   3.520  0.2140  0.5979  0.2301
10306SOL    HW134834   0.472   4.038   3.454  1.8109 -0.3058 -1.6048
10306SOL    HW234835   0.484   3.894   3.497  1.4908  0.1811  0.1973
10307SOL     OW34836   1.369   9.008   6.355 -0.3531 -0.5561  0.1463
10307SOL    HW134837   1.335   8.999   6.444 -0.2139 -0.6280  0.1922
10307SOL    HW234838   1.298   9.051   6.306 -0.9691 -1.7436 -0.0367
10308SOL     OW34839   5.480   2.775   9.192 -0.2531  0.1816 -0.2102
10308SOL    HW134840   5.573   2.762   9.174 -0.3861 -3.5220  0.9863
10308SOL    HW234841   5.478   2.829   9.271  0.8840 -0.2455  0.1179
10309SOL     OW34842   4.034   8.648   9.722  0.6709  0.1185 -0.0875
10309SOL    HW134843   4.060   8.735   9.751  0.8650  0.0334 -0.0085
10309SOL    HW234844   3.941   8.643   9.745  0.9458 -0.1525  1.0299
10310SOL     OW34845   0.010   7.825   7.601 -0.4319  0.1430  0.2058
10310SOL    HW134846   0.077   7.858   7.661 -1.2009 -0.0682  1.2155
10310SOL    HW234847  -0.058   7.789   7.659 -0.4077 -1.6561 -0.8037
10311SOL     OW34848   2.665   4.846   3.299 -0.6012  0.2750  0.4698
10311SOL    HW134849   2.581   4.886   3.275 -0.2708  0.1677 -0.9816
10311SOL    HW234850   2.659   4.757   3.264  1.0876  1.0597 -2.0335
10312SOL     OW34851   6.083   6.008   4.836  0.0487 -0.2397 -0.1206
10312SOL    HW134852   6.170   6.049   4.837 -0.5624  1.1184  0.2433
10312SOL    HW234853   6.093   5.932   4.779  1.6614 -0.5571  0.5265
10313SOL     OW34854   1.131   5.224   6.576 -0.7750  0.4171 -0.8995
10313SOL    HW134855   1.137   5.292   6.509 -4.6968  1.4395 -0.4226
10313SOL    HW234856   1.173   5.263   6.653  0.4008  0.7120 -1.6645
10314SOL     OW34857   3.235   2.960   7.850  0.4146 -0.4743  0.2501
10314SOL    HW134858   3.306   2.936   7.909 -1.3653  0.1079  2.7867
10314SOL    HW234859   3.185   2.879   7.838  1.1130 -0.7471 -1.0769
10315SOL     OW34860   5.434   0.137   0.657  0.8242 -0.0317  0.1389
10315SOL    HW134861   5.518   0.182   0.646  1.4685 -0.5124  2.3457
10315SOL    HW234862   5.370   0.206   0.671  0.9140  0.3200 -1.0734
10316SOL     OW34863   9.723   8.742   5.917  0.3638 -0.1174 -0.1207
10316SOL    HW134864   9.783   8.774   5.985 -1.0274  0.8137  0.7324
10316SOL    HW234865   9.733   8.804   5.845 -0.2200  0.5880  0.3888
10317SOL     OW34866   3.299   1.275   0.460  0.3737 -0.3165 -0.1246
10317SOL    HW134867   3.219   1.323   0.481  0.8035  1.0492 -1.4392
10317SOL    HW234868   3.326   1.236   0.543 -0.4722  1.0113  0.8036
10318SOL     OW34869   9.672   1.856   6.421  0.1285 -0.6621 -0.2701
10318SOL    HW134870   9.700   1.776   6.467 -2.8934 -3.2024 -2.3922
10318SOL    HW234871   9.726   1.859   6.342 -0.4718 -1.2934 -0.7189
10319SOL     OW34872   5.161   9.633   7.000 -0.3007  0.2047 -0.2169
10319SOL    HW134873   5.108   9.590   7.067  0.5773 -1.0237 -0.2719
10319SOL    HW234874   5.198   9.561   6.949  1.2640  1.0067 -0.2837
10320SOL     OW34875   0.661  10.109   1.959  0.2480 -0.8599 -0.5524
10320SOL    HW134876   0.576  10.088   1.919  0.5062 -0.6447 -1.2220
10320SOL    HW234877   0.725  10.089   1.891  0.6377  0.2241 -0.5209
10321SOL     OW34878   2.914   2.864   8.535 -0.1873  0.1472  0.0645
10321SOL    HW134879   2.948   2.951   8.511 -0.0275 -0.3349 -1.5720
10321SOL    HW234880   2.983   2.804   8.507 -1.1947 -0.6523 -0.7378
10322SOL     OW34881   7.861   0.789   8.067  0.3929 -0.3099 -0.3331
10322SOL    HW134882   7.862   0.800   7.972  1.3269 -1.2130 -0.4514
10322SOL    HW234883   7.926   0.720   8.083  0.0263 -0.3750  0.9336
10323SOL     OW34884   1.463   6.288   3.028  0.1219 -0.8878 -0.4730
10323SOL    HW134885   1.528   6.286   3.098 -0.1357 -0.3137 -0.2205
10323SOL    HW234886   1.494   6.356   2.968  0.0898 -1.0516 -0.6780
10324SOL     OW34887   9.682   6.539   2.407 -0.3760  0.4834  0.0752
10324SOL    HW134888   9.713   6.620   2.366  2.0708 -0.0139  0.7413
10324SOL    HW234889   9.613   6.567   2.467 -0.4126  1.8978 -0.5943
10325SOL     OW34890   3.249   7.453   8.056  0.4593  0.7333 -0.1157
10325SOL    HW134891   3.258   7.485   7.966  2.2724  1.7405  0.3774
10325SOL    HW234892   3.183   7.510   8.095 -0.2615  0.3576 -0.7603
10326SOL     OW34893   6.638   1.963   7.323 -0.2148 -0.5043  0.0043
10326SOL    HW134894   6.656   2.057   7.323  0.4000 -0.6170  0.2359
10326SOL    HW234895   6.611   1.943   7.233  0.2052 -0.2077 -0.1879
10327SOL     OW34896   0.899   9.944   8.881  0.0320 -0.0940  0.1833
10327SOL    HW134897   0.883   9.970   8.972  0.0468  1.2862 -0.1885
10327SOL    HW234898   0.993   9.958   8.868  0.1062 -0.6675  0.0613
10328SOL     OW34899   8.214   5.333   2.097  0.0959  0.6043 -0.4441
10328SOL    HW134900   8.234   5.292   2.181 -1.2926  0.1377 -0.3127
10328SOL    HW234901   8.296   5.329   2.048  0.7726  0.3661  0.6644
10329SOL     OW34902   0.361   8.068   1.963 -0.0407 -0.0484 -0.3724
10329SOL    HW134903   0.343   8.160   1.942 -1.4604 -0.5618 -1.6334
10329SOL    HW234904   0.313   8.052   2.044  1.4287  0.6777  0.6787
10330SOL     OW34905   3.747   5.578   3.651  0.2405  0.1088  0.0345
10330SOL    HW134906   3.834   5.601   3.683  0.2974  1.6267 -1.0978
10330SOL    HW234907   3.763   5.523   3.574  0.4003  3.0671 -2.2260
10331SOL     OW34908   6.014   2.397   2.503  0.5095 -0.1091 -0.5283
10331SOL    HW134909   5.948   2.342   2.545 -0.1437 -0.2891 -1.7569
10331SOL    HW234910   5.968   2.479   2.482  1.2697  0.6423  0.5871
10332SOL     OW34911   0.619   0.913   9.670 -0.2493  0.0643 -0.0398
10332SOL    HW134912   0.589   0.878   9.585  0.4029 -2.1626  0.5813
10332SOL    HW234913   0.714   0.903   9.667  0.0962  2.7166 -0.1402
10333SOL     OW34914   6.858   9.783   7.610 -0.7964  0.6400  0.5940
10333SOL    HW134915   6.777   9.805   7.565 -0.6022  0.5414  0.1903
10333SOL    HW234916   6.883   9.864   7.656 -0.4889  1.0403 -0.2638
10334SOL     OW34917   6.394   0.511   5.525 -0.1359  0.1718  0.5838
10334SOL    HW134918   6.356   0.554   5.449  1.9630 -1.2671 -1.4242
10334SOL    HW234919   6.465   0.570   5.552  0.6124 -0.3976 -0.0868
10335SOL     OW34920   7.073   9.213   0.862 -0.1920 -0.1815  0.0595
10335SOL    HW134921   7.035   9.242   0.780 -2.4707 -1.6272  0.5102
10335SOL    HW234922   7.049   9.281   0.925  0.1253  0.1106 -0.1305
10336SOL     OW34923   1.196   1.957   4.757 -0.3939 -0.2146  0.1139
10336SOL    HW134924   1.206   1.999   4.671 -0.4635 -0.4510 -0.0093
10336SOL    HW234925   1.104   1.971   4.779  0.1686  2.1549  1.3452
10337SOL     OW34926   9.182   7.863   8.877  0.5112 -0.4853  0.0881
10337SOL    HW134927   9.102   7.882   8.828  0.0567  0.6275  1.2123
10337SOL    HW234928   9.252   7.905   8.826 -0.1085  1.7521  0.9722
10338SOL     OW34929   6.573   2.881   6.403  0.4170 -0.4731  0.1693
10338SOL    HW134930   6.564   2.969   6.441  1.2227 -0.8606  1.2961
10338SOL    HW234931   6.499   2.832   6.439  0.3578 -0.4501  0.0797
10339SOL     OW34932   4.901   1.275   4.612 -0.0486 -0.2869  0.4102
10339SOL    HW134933   4.885   1.310   4.700 -0.1464  1.6624 -0.3440
10339SOL    HW234934   4.814   1.254   4.578 -0.1486  0.3445  0.2561
10340SOL     OW34935   1.673   3.582   9.766  0.1098 -0.3000  0.5090
10340SOL    HW134936   1.769   3.584   9.772  0.0970 -0.7927  1.0219
10340SOL    HW234937   1.650   3.661   9.718  0.7355  0.1403  0.9170
10341SOL     OW34938   8.287   9.812   7.576  0.3480  0.0403 -0.2399
10341SOL    HW134939   8.333   9.735   7.544  0.0201  0.1066 -0.8833
10341SOL    HW234940   8.307   9.815   7.670  0.0601 -1.0292 -0.1366
10342SOL     OW34941   7.128   6.091   3.907  0.3921  0.2672 -0.0885
10342SOL    HW134942   7.168   6.094   3.820  1.9420  0.8043  0.5992
10342SOL    HW234943   7.117   5.998   3.925  0.5052  0.1390 -0.6681
10343SOL     OW34944   9.413   5.825   9.596  0.4710  0.0452  0.2396
10343SOL    HW134945   9.396   5.816   9.690  0.5593  2.5109  0.5677
10343SOL    HW234946   9.332   5.859   9.560  0.0057 -2.0783 -0.8752
10344SOL     OW34947   0.876   7.320   4.836  0.4271 -0.5796 -0.3697
10344SOL    HW134948   0.873   7.258   4.909 -2.7741  0.9855  1.0098
10344SOL    HW234949   0.933   7.390   4.867 -1.4217  0.3860  0.9983
10345SOL     OW34950   1.985   8.150   4.101 -0.7963  0.2180  0.1353
10345SOL    HW134951   2.055   8.105   4.053 -0.4045  0.3799  0.5515
10345SOL    HW234952   1.936   8.195   4.032 -0.6076 -0.0529 -0.1835
10346SOL     OW34953   9.564   4.477   6.746  0.3074 -0.3545  0.0892
10346SOL    HW134954   9.475   4.442   6.750  0.2488 -0.4040 -1.1903
10346SOL    HW234955   9.562   4.540   6.674  2.2371 -3.2548 -2.7680
10347SOL     OW34956   3.824   8.150   3.490 -0.5235  0.0492  0.5162
10347SOL    HW134957   3.757   8.172   3.555 -0.7819  1.6740 -0.2584
10347SOL    HW234958   3.777   8.152   3.407  0.0733 -0.8263  0.1396
10348SOL     OW34959   4.068   2.236   8.928  0.4391 -0.4760  0.0156
10348SOL    HW134960   4.055   2.171   8.859  1.8815 -0.0693 -0.6754
10348SOL    HW234961   4.148   2.208   8.973  1.1764  0.8567 -0.3878
10349SOL     OW34962   5.635   6.483   6.187 -0.2577  0.2755 -0.2932
10349SOL    HW134963   5.624   6.433   6.268  0.7778  1.1223  0.4047
10349SOL    HW234964   5.549   6.482   6.146 -1.2143  1.0715  1.5657
10350SOL     OW34965   2.738   0.630   9.579 -0.0604 -0.2640  0.1030
10350SOL    HW134966   2.770   0.565   9.517 -0.3605  0.4467 -0.8245
10350SOL    HW234967   2.645   0.612   9.588 -0.2130  0.2246 -0.4139
10351SOL     OW34968   7.051   1.402   8.395  0.0495  0.1654 -0.2678
10351SOL    HW134969   7.048   1.306   8.395  1.7884  0.0469  1.2578
10351SOL    HW234970   7.010   1.427   8.312  1.0327 -1.9770 -1.5079
10352SOL     OW34971   1.073   7.851   6.597 -0.3822 -0.4677  0.6240
10352SOL    HW134972   1.023   7.775   6.570 -0.0933 -1.4724  2.7180
10352SOL    HW234973   1.162   7.833   6.569 -0.0184 -1.6570  2.3731
10353SOL     OW34974   5.906   9.887   1.186 -0.6399 -0.2507 -0.4009
10353SOL    HW134975   5.813   9.869   1.176 -0.4339 -1.3804 -0.3981
10353SOL    HW234976   5.932   9.835   1.262 -0.4838  1.8856  1.1048
10354SOL     OW34977   0.037   8.733   8.886  0.2898 -0.0991 -0.9402
10354SOL    HW134978   0.074   8.760   8.970  0.9001 -1.1898 -0.8399
10354SOL    HW234979  -0.021   8.805   8.861  1.0830  0.8130 -0.2103
10355SOL     OW34980   2.052   3.217   3.386 -0.0041  0.3454  0.1642
10355SOL    HW134981   2.064   3.213   3.291 -1.0738 -0.8511  0.0536
10355SOL    HW234982   2.008   3.301   3.401 -0.4127  0.2526 -0.4770
10356SOL     OW34983   6.436   5.454   4.253  0.0894 -0.1684  0.2955
10356SOL    HW134984   6.420   5.383   4.191 -1.9542  0.1794  0.3648
10356SOL    HW234985   6.380   5.433   4.328 -0.2363  1.2938  0.4906
10357SOL     OW34986   3.792   7.879   5.566 -0.0022  0.3442  0.5661
10357SOL    HW134987   3.847   7.915   5.497  0.1122 -1.4058 -0.3267
10357SOL    HW234988   3.763   7.794   5.531  0.0678 -0.6012  2.6483
10358SOL     OW34989   1.442   6.115   7.093  0.3248 -0.2005  0.2837
10358SOL    HW134990   1.466   6.199   7.055  0.1922 -0.1522  0.3023
10358SOL    HW234991   1.487   6.113   7.177 -0.8471  0.5156  0.9613
10359SOL     OW34992   4.408   5.420   6.230  0.3261 -0.5743  0.1598
10359SOL    HW134993   4.473   5.381   6.288  0.3602 -1.7834 -0.6471
10359SOL    HW234994   4.384   5.349   6.170 -1.9108 -0.2491  0.5779
10360SOL     OW34995   1.782   3.818   0.886 -0.6892 -0.2276 -0.0334
10360SOL    HW134996   1.841   3.744   0.875 -0.8838 -0.5834  1.1308
10360SOL    HW234997   1.782   3.862   0.801  1.5843  0.0503  0.0321
10361SOL     OW34998   9.284   5.550   0.849 -0.2697  0.1169 -0.1617
10361SOL    HW134999   9.267   5.625   0.791  0.1604  1.4277  1.3487
10361SOL    HW235000   9.326   5.588   0.926 -1.5129 -1.4675  1.3650
10362SOL     OW35001   0.394   0.939   5.874  0.0235 -0.1190 -0.2971
10362SOL    HW135002   0.430   1.026   5.860  0.5576  0.6003  4.0909
10362SOL    HW235003   0.460   0.879   5.839  1.4231  1.2510 -0.0909
10363SOL     OW35004   6.227   0.719   1.613 -0.3669  0.2489  0.4115
10363SOL    HW135005   6.201   0.637   1.655 -0.9891 -0.9080 -2.0237
10363SOL    HW235006   6.245   0.694   1.522  1.1501  2.5392  0.0102
10364SOL     OW35007   9.269   6.476   2.865 -0.5059  0.3894 -0.6866
10364SOL    HW135008   9.249   6.383   2.869  0.3151  0.2437  1.3069
10364SOL    HW235009   9.199   6.514   2.811 -1.2384 -1.2618 -0.9393
10365SOL     OW35010   0.134  10.075   7.907  0.1359  0.3484  0.2504
10365SOL    HW135011   0.216  10.062   7.956  0.5937  1.7204 -0.0905
10365SOL    HW235012   0.138  10.167   7.879 -1.2057  0.2366 -0.3719
10366SOL     OW35013   2.335   0.221   6.507  0.3042 -0.6026 -0.3651
10366SOL    HW135014   2.388   0.198   6.583 -0.5883  1.4151  0.9274
10366SOL    HW235015   2.398   0.225   6.435  1.8385  0.9315  0.9573
10367SOL     OW35016   6.842   1.172   6.651 -0.2718  0.1547 -0.4368
10367SOL    HW135017   6.795   1.122   6.718 -0.1646 -0.8601 -1.0923
10367SOL    HW235018   6.774   1.221   6.605 -0.2201  1.9462  1.2355
10368SOL     OW35019   0.203   2.315   0.939  0.1948  0.0558 -0.4674
10368SOL    HW135020   0.237   2.240   0.987  0.6420  0.5687  0.0327
10368SOL    HW235021   0.163   2.277   0.861 -1.2836 -0.8721  0.6735
10369SOL     OW35022   3.369   3.243   4.622  0.2284  0.0185  0.5753
10369SOL    HW135023   3.284   3.213   4.590  1.3486 -0.1769 -2.5979
10369SOL    HW235024   3.373   3.334   4.594  1.7411 -0.5016 -1.1432
10370SOL     OW35025   4.358   6.076   8.587  0.0632 -0.2959 -0.6358
10370SOL    HW135026   4.417   6.022   8.534  0.6401 -0.1856 -0.1082
10370SOL    HW235027   4.390   6.165   8.575 -0.6903 -0.0975 -1.2456
10371SOL     OW35028   4.108   5.534   0.038  0.3147  0.2721 -0.0973
10371SOL    HW135029   4.066   5.463  -0.011  0.6572  1.3865 -2.0956
10371SOL    HW235030   4.178   5.565  -0.019  2.2623  0.1762  2.0754
10372SOL     OW35031   2.457  10.172   1.575  0.2038 -0.2236  0.4712
10372SOL    HW135032   2.446  10.264   1.549  0.3036  0.1803  1.7954
10372SOL    HW235033   2.393  10.125   1.522  1.2846  0.3644 -1.4659
10373SOL     OW35034   7.490   3.012   3.664  0.0257 -0.3564  0.5552
10373SOL    HW135035   7.421   3.069   3.631 -1.1155 -1.7000  0.5216
10373SOL    HW235036   7.550   3.071   3.709 -0.2365  1.0634 -0.8592
10374SOL     OW35037   0.544   8.057   6.560 -0.0651  0.5658  0.1212
10374SOL    HW135038   0.540   8.024   6.470 -0.8745 -1.5146  0.8657
10374SOL    HW235039   0.637   8.051   6.583 -0.2648 -2.2748  0.5297
10375SOL     OW35040   1.636   6.445   0.253  0.0324 -0.1658 -0.2435
10375SOL    HW135041   1.681   6.496   0.320  1.2200 -0.7493 -0.5694
10375SOL    HW235042   1.552   6.423   0.293  0.0928  0.7818  0.4581
10376SOL     OW35043   3.048   8.383   9.363  0.2457  0.0410  0.6218
10376SOL    HW135044   3.087   8.450   9.419 -0.9826  0.1013  1.4473
10376SOL    HW235045   2.989   8.431   9.305 -0.3507 -0.2737  0.9570
10377SOL     OW35046   9.793   8.112   6.956  0.0760  0.4287 -0.0718
10377SOL    HW135047   9.732   8.150   6.894  0.4115 -0.3891 -0.9257
10377SOL    HW235048   9.868   8.084   6.903 -1.3357 -4.1303 -0.0937
10378SOL     OW35049   0.940   4.482   2.300  0.1121  0.6097  0.6897
10378SOL    HW135050   0.964   4.558   2.246  0.1640  0.3885  0.3973
10378SOL    HW235051   0.873   4.437   2.248 -2.6692  2.4126  2.4398
10379SOL     OW35052   2.779   5.438   7.357  0.0388 -0.5652  0.3139
10379SOL    HW135053   2.846   5.506   7.351  0.7066 -1.1077  1.3093
10379SOL    HW235054   2.698   5.486   7.375  0.2681  0.0505 -0.2695
10380SOL     OW35055   6.611   8.365   3.599  0.2982 -0.0883 -0.5981
10380SOL    HW135056   6.592   8.344   3.691 -0.3795 -0.3625 -0.7958
10380SOL    HW235057   6.596   8.283   3.552 -3.3740  0.9494 -1.5352
10381SOL     OW35058   8.163   8.506   7.250  0.0639 -0.1298 -0.0048
10381SOL    HW135059   8.138   8.596   7.269 -0.3360 -0.2341 -0.0335
10381SOL    HW235060   8.111   8.453   7.310 -0.5603 -0.4089 -0.7739
10382SOL     OW35061   0.998   4.070  10.121  0.0133 -0.0967 -0.1669
10382SOL    HW135062   1.019   4.052  10.212 -0.6104 -1.4837 -0.2566
10382SOL    HW235063   0.961   4.158  10.121 -0.9604 -0.4713  1.0993
10383SOL     OW35064   9.924   9.405   4.527  0.5936  0.2866 -0.3830
10383SOL    HW135065   9.852   9.397   4.464  0.8732  0.6747 -0.7579
10383SOL    HW235066   9.995   9.352   4.489  0.7898  0.5872 -0.4404
10384SOL     OW35067   7.649   8.189   1.702  0.3290 -0.1222 -0.9204
10384SOL    HW135068   7.682   8.269   1.660  1.5133 -0.6650 -1.0803
10384SOL    HW235069   7.666   8.203   1.795  0.4684 -0.1594 -0.9403
10385SOL     OW35070   3.650   6.260   3.943 -0.0858  0.7276  0.1621
10385SOL    HW135071   3.720   6.203   3.910 -1.5551  0.6903 -3.2513
10385SOL    HW235072   3.670   6.346   3.906 -1.2994  0.9360 -0.0434
10386SOL     OW35073   9.965   4.277   6.988 -0.2420  0.2085 -0.0114
10386SOL    HW135074   9.876   4.306   7.007 -0.0980  1.3524 -0.9582
10386SOL    HW235075   9.983   4.309   6.900  0.6285 -1.2148 -0.3904
10387SOL     OW35076   7.713   2.476   0.586  0.6214 -0.3132  0.5086
10387SOL    HW135077   7.646   2.470   0.654  1.4908  2.4886  1.7523
10387SOL    HW235078   7.795   2.451   0.630  0.8398 -0.9144 -0.2139
10388SOL     OW35079   5.968   5.940   3.317 -0.0819  0.6550 -0.6733
10388SOL    HW135080   5.909   5.957   3.244  0.0917  3.1207 -0.3185
10388SOL    HW235081   5.919   5.883   3.376 -0.5160 -0.7146 -2.3006
10389SOL     OW35082   0.981   8.300   8.167 -1.0940 -0.1014  0.5911
10389SOL    HW135083   1.048   8.257   8.113 -1.7249  0.3142 -0.5604
10389SOL    HW235084   0.901   8.249   8.151 -1.6673  1.0004 -0.1870
10390SOL     OW35085   5.643   4.521   5.234  0.2511  0.1226  0.1555
10390SOL    HW135086   5.566   4.556   5.278  0.7229  2.1917 -0.5209
10390SOL    HW235087   5.621   4.431   5.212 -1.4281  0.2537  1.1904
10391SOL     OW35088   6.752   3.470   4.364  0.4822 -0.7405  0.1452
10391SOL    HW135089   6.666   3.512   4.359  0.8058 -0.0844 -0.0522
10391SOL    HW235090   6.759   3.440   4.454 -0.2496 -1.4416 -0.0262
10392SOL     OW35091   2.135   3.211   3.143 -0.4291 -0.4510  0.3205
10392SOL    HW135092   2.140   3.199   3.048 -1.5150  0.8171  0.0779
10392SOL    HW235093   2.140   3.122   3.178 -1.2431 -1.0611 -0.9985
10393SOL     OW35094   9.940   9.331   1.421 -0.1968 -0.9055 -0.4175
10393SOL    HW135095   9.893   9.323   1.338 -0.7745  1.2128 -0.3589
10393SOL    HW235096   9.875   9.312   1.488  0.0532 -1.7922 -0.4198
10394SOL     OW35097   4.598   8.678   6.711  0.2465 -0.0507 -0.1559
10394SOL    HW135098   4.589   8.770   6.687 -0.8305 -0.9258 -3.7580
10394SOL    HW235099   4.681   8.673   6.758  0.6691  2.6351 -0.4843
10395SOL     OW35100   1.372   5.509   1.216 -0.2271 -0.1808 -0.4520
10395SOL    HW135101   1.403   5.428   1.257 -0.2333  0.0484  0.0121
10395SOL    HW235102   1.327   5.556   1.286  0.3595  0.5298 -0.5396
10396SOL     OW35103   7.354   7.434   3.860  0.8677 -0.3985 -0.5132
10396SOL    HW135104   7.447   7.456   3.864  0.3327  2.1378 -0.2398
10396SOL    HW235105   7.331   7.441   3.768  1.3640 -3.3925 -0.9696
10397SOL     OW35106   2.039   3.843   5.911  0.3934  0.2938  0.2030
10397SOL    HW135107   2.019   3.772   5.850  0.4283 -0.6898  1.3217
10397SOL    HW235108   2.005   3.813   5.995  0.6652  1.4838  0.7549
10398SOL     OW35109   6.998   7.989   7.430  0.6122 -0.3220 -0.3830
10398SOL    HW135110   7.054   8.048   7.481 -0.0060  1.5062 -1.7305
10398SOL    HW235111   6.961   8.044   7.361  1.1284 -2.5841 -2.6236
10399SOL     OW35112   9.557   1.765   2.824 -0.0566  0.1875 -0.0248
10399SOL    HW135113   9.541   1.800   2.736  1.7735 -0.7864 -0.8039
10399SOL    HW235114   9.472   1.731   2.852 -0.7953  1.0240 -1.1712
10400SOL     OW35115   8.460   9.904   7.194  0.4804  0.2749  0.5182
10400SOL    HW135116   8.513   9.831   7.227 -0.3473 -1.3567 -1.5216
10400SOL    HW235117   8.524   9.964   7.155  1.0583 -0.0568  0.9356
10401SOL     OW35118   5.390   6.712   9.565 -0.5419  0.0358  0.1267
10401SOL    HW135119   5.390   6.637   9.624 -1.0920 -0.4072 -0.4254
10401SOL    HW235120   5.383   6.673   9.478  1.8642  0.5620 -0.3937
10402SOL     OW35121   9.233   6.250   5.999  0.3599 -0.1266  0.5173
10402SOL    HW135122   9.275   6.283   5.920  1.6539  1.0160  1.6130
10402SOL    HW235123   9.179   6.323   6.030  0.3077 -0.3537  0.9789
10403SOL     OW35124   0.314   0.165   1.144 -0.7637  0.2155 -0.3105
10403SOL    HW135125   0.246   0.098   1.138 -1.5718  1.1007 -1.4516
10403SOL    HW235126   0.336   0.185   1.053  0.2919  0.6888  0.0293
10404SOL     OW35127   4.263   1.618   2.191  0.0733 -0.1496 -0.2835
10404SOL    HW135128   4.219   1.694   2.231  2.3790  1.2448 -0.2399
10404SOL    HW235129   4.327   1.591   2.256  2.9345  1.2789 -2.2968
10405SOL     OW35130   6.639   6.666   8.353 -0.3974 -0.2107 -0.2633
10405SOL    HW135131   6.685   6.655   8.270  2.6663  0.4819  1.2362
10405SOL    HW235132   6.579   6.740   8.338  2.7384  2.4032 -0.9284
10406SOL     OW35133   0.110   5.974   6.570  0.8357 -0.0892 -0.0256
10406SOL    HW135134   0.041   5.961   6.635  1.9121 -0.9035  1.0030
10406SOL    HW235135   0.147   6.060   6.591  1.3501 -0.4556  0.6572
10407SOL     OW35136   3.447   3.370   7.123 -0.0283  0.4013  0.3180
10407SOL    HW135137   3.422   3.461   7.135  1.0890  0.5187  2.1207
10407SOL    HW235138   3.420   3.327   7.204  0.3752 -0.6449 -0.0897
10408SOL     OW35139   9.936   0.596   7.998  0.5294 -0.1838 -0.4479
10408SOL    HW135140   9.858   0.557   7.959 -0.3420 -0.3187  1.3058
10408SOL    HW235141   9.924   0.691   7.986  0.2678 -0.2235 -0.5063
10409SOL     OW35142   5.864   6.087   5.084  0.2067 -0.1603  0.2964
10409SOL    HW135143   5.937   6.031   5.056  0.1115 -0.5768  0.8654
10409SOL    HW235144   5.873   6.165   5.030  1.3165 -0.0395  0.6149
10410SOL     OW35145   2.378  10.145   8.266 -0.4112  0.4704  0.0229
10410SOL    HW135146   2.373  10.063   8.316  0.6854 -0.0368 -0.6591
10410SOL    HW235147   2.423  10.206   8.325 -0.5983  0.3766  0.2665
10411SOL     OW35148   5.978   0.280   8.509 -0.2730 -0.5122  0.0956
10411SOL    HW135149   6.032   0.314   8.439  1.3483 -2.0664  0.5297
10411SOL    HW235150   6.010   0.324   8.588  0.2878 -1.3414  0.3372
10412SOL     OW35151   1.873   3.445   4.718  0.5010  0.2846 -0.5608
10412SOL    HW135152   1.785   3.407   4.723  1.0996 -1.5436 -2.4152
10412SOL    HW235153   1.865   3.530   4.761 -2.4359  0.6139 -1.5119
10413SOL     OW35154   4.285   0.548   4.719  0.0395 -0.5077 -0.2947
10413SOL    HW135155   4.299   0.550   4.813  1.0986  0.0057 -0.4568
10413SOL    HW235156   4.372   0.553   4.681 -0.2703 -2.0644 -1.2991
10414SOL     OW35157   5.265   4.048   2.434  0.1621 -0.5953  0.0098
10414SOL    HW135158   5.269   4.034   2.529  0.6368  2.0787  0.4539
10414SOL    HW235159   5.356   4.065   2.409 -0.0841 -0.4272 -0.7742
10415SOL     OW35160   5.835   7.210   7.629 -0.0320 -0.6363 -0.5636
10415SOL    HW135161   5.838   7.115   7.643 -1.7669 -0.7249 -0.6188
10415SOL    HW235162   5.744   7.228   7.606 -0.0719  1.2590  0.8888
10416SOL     OW35163   3.879   3.064   6.213 -0.2358 -0.2097 -0.0447
10416SOL    HW135164   3.849   3.000   6.277  0.4634 -0.2978  0.2018
10416SOL    HW235165   3.892   3.144   6.264  1.4309 -0.5817  0.1699
10417SOL     OW35166   1.605   3.864   3.713  0.1074  0.0801  0.2003
10417SOL    HW135167   1.686   3.842   3.668 -0.2966  1.4426 -1.3331
10417SOL    HW235168   1.627   3.940   3.767  0.3422 -0.9044  1.5178
10418SOL     OW35169   4.383   7.135   0.278  0.5595  0.1011  0.3836
10418SOL    HW135170   4.382   7.194   0.203  0.0543 -0.4054 -0.0251
10418SOL    HW235171   4.442   7.176   0.341  1.9898 -0.0856 -0.7827
10419SOL     OW35172   5.062   5.868   3.839 -0.3373  0.3803 -0.0584
10419SOL    HW135173   4.973   5.901   3.839 -0.8114 -0.5977  2.8593
10419SOL    HW235174   5.111   5.929   3.893  0.4686  0.1924 -0.5465
10420SOL     OW35175   4.272   4.269   2.220  0.8882  0.7542 -0.1714
10420SOL    HW135176   4.305   4.250   2.308  2.5877 -0.2936 -0.9812
10420SOL    HW235177   4.177   4.270   2.230  0.9301 -1.6202  1.2796
10421SOL     OW35178   4.729   5.374   9.615 -0.0632  0.5284  0.4505
10421SOL    HW135179   4.748   5.456   9.570  0.3295 -0.0330 -0.4281
10421SOL    HW235180   4.680   5.322   9.551 -1.1411  0.4386  1.3265
10422SOL     OW35181   0.810   0.986   1.689  0.1898 -0.5756  0.7148
10422SOL    HW135182   0.761   1.053   1.736  0.1096  1.3528 -1.8476
10422SOL    HW235183   0.746   0.947   1.629  0.6943 -1.5943  0.8162
10423SOL     OW35184   4.457   9.935   1.219  0.2947  0.2414 -0.1222
10423SOL    HW135185   4.438  10.013   1.272  0.1017 -1.1777  2.0550
10423SOL    HW235186   4.391   9.936   1.150 -0.1614  1.6298  0.2992
10424SOL     OW35187   7.375   1.084   5.154 -0.1209  0.5171  0.2300
10424SOL    HW135188   7.430   1.122   5.086  1.0083  0.6553  1.1745
10424SOL    HW235189   7.323   1.158   5.186  0.4725  0.7993  0.5614
10425SOL     OW35190   8.849   1.747   8.328 -0.1350 -0.0459 -0.7882
10425SOL    HW135191   8.902   1.680   8.285  0.6678  0.7018 -0.9889
10425SOL    HW235192   8.862   1.732   8.422  2.5163  1.6456 -0.7678
10426SOL     OW35193   2.739   0.857   8.335  0.0806  0.7537 -0.0413
10426SOL    HW135194   2.733   0.952   8.340  0.2985  0.7512  0.3378
10426SOL    HW235195   2.700   0.826   8.417 -0.3313  0.4997 -0.3247
10427SOL     OW35196   7.693  10.055   8.519 -0.2090 -0.3565  0.7673
10427SOL    HW135197   7.690  10.150   8.514  0.5010 -0.3783 -0.5071
10427SOL    HW235198   7.751  10.029   8.447 -1.6215 -1.8368  0.1099
10428SOL     OW35199   4.663   4.604   2.433  0.3644 -0.1420  0.1444
10428SOL    HW135200   4.616   4.542   2.489  0.5379  0.5568  1.0740
10428SOL    HW235201   4.734   4.553   2.395  0.8017 -0.4015  1.2845
10429SOL     OW35202   3.719   9.622   2.351  0.0900 -0.5527  0.4925
10429SOL    HW135203   3.738   9.716   2.356 -3.0857  0.1991  0.6531
10429SOL    HW235204   3.627   9.616   2.376  0.2111 -3.7519  0.4773
10430SOL     OW35205   6.656   8.646   0.872 -0.1318  0.4627  0.0635
10430SOL    HW135206   6.618   8.567   0.834 -1.0162 -0.3834  2.5523
10430SOL    HW235207   6.735   8.616   0.917  0.4063  1.2887 -0.2956
10431SOL     OW35208   6.917   2.633   9.056  0.0622 -0.5623 -0.2538
10431SOL    HW135209   6.842   2.585   9.091 -0.0748 -0.6152 -0.6110
10431SOL    HW235210   6.917   2.716   9.105 -0.6648 -0.2566 -0.7447
10432SOL     OW35211   8.497   2.118   0.700  0.0731 -0.8953 -0.1027
10432SOL    HW135212   8.547   2.145   0.623  1.6350  0.3338  1.2547
10432SOL    HW235213   8.408   2.148   0.683  0.5172 -0.1487 -1.1904
10433SOL     OW35214   7.695   7.439   4.767  0.1856  0.4585  0.8419
10433SOL    HW135215   7.625   7.380   4.796 -0.6654  1.3546  0.6422
10433SOL    HW235216   7.770   7.416   4.823  0.3389 -1.7771 -0.1704
10434SOL     OW35217   9.991   7.319   3.248 -0.7094 -0.3620 -0.3730
10434SOL    HW135218  10.080   7.353   3.243 -0.2018 -1.4176  0.9862
10434SOL    HW235219   9.937   7.388   3.209  0.8176 -0.3606 -2.6695
10435SOL     OW35220   0.630   9.108   2.257 -0.1819 -0.0051 -0.5792
10435SOL    HW135221   0.656   9.152   2.338  2.4470 -0.0999 -1.2647
10435SOL    HW235222   0.542   9.075   2.274 -0.2245  1.1248  1.7390
10436SOL     OW35223   4.095   2.703   0.034  0.3809  0.3690  1.0167
10436SOL    HW135224   4.000   2.703   0.043  0.4065 -0.8803  1.4506
10436SOL    HW235225   4.113   2.633  -0.028  0.9748  1.1876  0.2505
10437SOL     OW35226   6.705   5.331   4.577 -0.0267  0.1590 -0.7232
10437SOL    HW135227   6.703   5.367   4.665  0.8369  0.4395 -0.8147
10437SOL    HW235228   6.684   5.238   4.589  2.4703 -0.3745  0.0912
10438SOL     OW35229   2.425   8.040   3.455 -0.4597  0.1853  0.5164
10438SOL    HW135230   2.435   8.070   3.545  0.7119 -1.0079  0.8061
10438SOL    HW235231   2.386   8.115   3.409 -0.2992  1.0983  1.8214
10439SOL     OW35232   7.941   0.982   1.722 -0.6017  0.2187 -0.5125
10439SOL    HW135233   7.875   1.029   1.672 -1.2547 -0.5402 -0.3922
10439SOL    HW235234   7.911   0.891   1.722 -0.3398  0.1038  0.7891
10440SOL     OW35235   5.397   6.451   3.370  0.1952 -0.5605 -0.4437
10440SOL    HW135236   5.326   6.388   3.363  1.6561 -2.7070  2.2097
10440SOL    HW235237   5.424   6.468   3.280 -2.1606 -1.4173 -1.3650
10441SOL     OW35238   2.350   7.109   3.333  0.3243  0.4852  0.3039
10441SOL    HW135239   2.445   7.121   3.321  0.5776  1.9003  2.9109
10441SOL    HW235240   2.310   7.171   3.273  1.0536  0.1329 -0.5699
10442SOL     OW35241   3.268   5.410   2.601  0.3981 -0.0813  0.2558
10442SOL    HW135242   3.324   5.457   2.663  2.0158 -0.3061 -0.9588
10442SOL    HW235243   3.278   5.318   2.626  1.3288 -0.2050 -0.5079
10443SOL     OW35244   6.674   1.285   9.108  0.1652 -0.0040  0.2698
10443SOL    HW135245   6.589   1.286   9.066  0.4136 -2.0998 -0.4149
10443SOL    HW235246   6.722   1.214   9.064  2.2053  0.9950  0.7392
10444SOL     OW35247   3.435   7.279   8.647 -0.7684 -0.5020 -0.1171
10444SOL    HW135248   3.514   7.323   8.618 -0.0816 -1.3251  0.4529
10444SOL    HW235249   3.376   7.349   8.673 -0.2694  0.1227 -0.6534
10445SOL     OW35250   0.321   2.391   3.189  0.4091 -0.2096  0.5209
10445SOL    HW135251   0.337   2.408   3.281  0.6204  0.6933  0.3258
10445SOL    HW235252   0.230   2.362   3.185  0.0190  0.9306  0.8709
10446SOL     OW35253   9.648   6.060   5.214 -0.1478 -0.3466 -0.2502
10446SOL    HW135254   9.733   6.017   5.220  0.0549 -0.1897 -1.5920
10446SOL    HW235255   9.668   6.151   5.190 -0.6598 -0.0652  0.3593
10447SOL     OW35256   8.485   1.861   4.461  0.4200 -0.0434 -0.1285
10447SOL    HW135257   8.513   1.900   4.378  0.1236  0.9913  0.2340
10447SOL    HW235258   8.559   1.807   4.489  0.9893  0.5338 -0.4883
10448SOL     OW35259   5.074   3.665   9.651  0.1522  0.3648 -0.4398
10448SOL    HW135260   5.061   3.616   9.732  0.5117  0.0948 -0.5478
10448SOL    HW235261   5.140   3.616   9.602 -0.4023  0.2626 -1.1137
10449SOL     OW35262   3.904   5.320   7.186  0.4214  0.0624 -0.0008
10449SOL    HW135263   3.939   5.234   7.162 -1.4336 -1.0037  0.9176
10449SOL    HW235264   3.981   5.378   7.186  1.7050 -1.5495 -0.7259
10450SOL     OW35265   6.739   7.524   0.839 -0.3767 -0.5531  0.0298
10450SOL    HW135266   6.807   7.561   0.895 -1.3594  0.9488  0.2890
10450SOL    HW235267   6.785   7.461   0.783  1.1423  0.1346  0.4621
10451SOL     OW35268   5.239   1.341   1.695 -0.0502 -0.2703  0.0692
10451SOL    HW135269   5.253   1.433   1.671  0.0213  0.3983  2.4162
10451SOL    HW235270   5.312   1.294   1.655  0.6244  0.8934 -0.1117
10452SOL     OW35271   0.416   9.406   9.395 -0.4939 -0.2062  0.6433
10452SOL    HW135272   0.493   9.454   9.427 -0.7588  0.3340  0.4916
10452SOL    HW235273   0.373   9.468   9.336  0.7074 -1.5880 -1.8785
10453SOL     OW35274   1.664   2.447   7.670 -0.3923  0.2512  0.4039
10453SOL    HW135275   1.697   2.498   7.596  0.9331 -0.8222  0.2096
10453SOL    HW235276   1.647   2.360   7.634  1.6169 -0.7125  1.5652
10454SOL     OW35277  10.198   2.238   8.670 -0.3805 -0.6083 -0.1589
10454SOL    HW135278  10.129   2.237   8.737 -0.5836 -0.2831 -0.3649
10454SOL    HW235279  10.279   2.237   8.721 -0.4308  2.9903  0.2582
10455SOL     OW35280   2.826   1.752   2.528 -0.3530  0.6414  0.1833
10455SOL    HW135281   2.754   1.815   2.526  0.6948  1.8849  0.6333
10455SOL    HW235282   2.902   1.801   2.498  0.7644 -0.0335  1.8146
10456SOL     OW35283   6.146   0.788   2.491  0.2071 -0.1035 -0.8588
10456SOL    HW135284   6.160   0.873   2.451  1.1243  0.6301  0.8921
10456SOL    HW235285   6.061   0.795   2.535  0.6566  0.2162 -0.0225
10457SOL     OW35286   1.095   1.818   6.146  0.0680  0.4707  0.4682
10457SOL    HW135287   1.025   1.785   6.202  0.3318 -1.4191 -0.2522
10457SOL    HW235288   1.164   1.846   6.206  0.9122 -2.7588  1.1728
10458SOL     OW35289   0.613   9.068   5.171 -0.7053 -0.5681  0.6565
10458SOL    HW135290   0.563   9.132   5.222  0.1875  2.3015 -1.7672
10458SOL    HW235291   0.546   9.009   5.134 -2.1277  1.5757 -0.4027
10459SOL     OW35292   6.675   6.001   4.547 -0.2014 -0.9476 -0.3715
10459SOL    HW135293   6.684   5.939   4.620 -2.3367 -1.0960 -0.1923
10459SOL    HW235294   6.710   5.955   4.471 -0.5744 -1.8746  0.0132
10460SOL     OW35295   4.964   3.279   5.386 -0.0702  0.0003 -0.1329
10460SOL    HW135296   5.031   3.304   5.450 -0.7136  0.7556  0.2722
10460SOL    HW235297   4.990   3.192   5.357  0.8587  0.1096  0.3149
10461SOL     OW35298   4.322   3.206   8.108  0.2200  0.6732  0.0123
10461SOL    HW135299   4.379   3.166   8.173  2.1735  2.7282 -0.2983
10461SOL    HW235300   4.337   3.154   8.028 -0.6308 -0.5854  0.6333
10462SOL     OW35301   6.027   9.116   3.691  0.3310 -0.2341  0.4801
10462SOL    HW135302   5.975   9.195   3.710  3.1424  1.3540  2.2195
10462SOL    HW235303   6.031   9.070   3.775 -1.3287 -2.3944 -0.5256
10463SOL     OW35304   2.192   8.316   8.435 -0.2292 -0.5340 -0.6966
10463SOL    HW135305   2.191   8.411   8.445  0.7481 -0.1688 -3.2593
10463SOL    HW235306   2.277   8.297   8.396 -0.3853 -2.4975 -0.1986
10464SOL     OW35307   3.722   8.104   4.728 -0.4057  0.3771  0.8284
10464SOL    HW135308   3.766   8.183   4.758  0.2895 -0.0486  0.9512
10464SOL    HW235309   3.720   8.046   4.805 -0.4628  0.0831  0.6097
10465SOL     OW35310   8.432   4.087   2.808  0.4920  0.0962 -0.3518
10465SOL    HW135311   8.425   4.136   2.890  1.8221 -1.1972  0.5955
10465SOL    HW235312   8.360   4.119   2.755 -0.9516  0.3787  1.6496
10466SOL     OW35313   4.610   1.076   2.997 -0.3829 -0.3256 -0.2574
10466SOL    HW135314   4.574   1.030   2.921 -0.7022 -1.9429  0.8212
10466SOL    HW235315   4.703   1.056   2.996 -0.1734  0.6602 -0.8925
10467SOL     OW35316   3.696   3.552   9.907  0.2368 -0.6190 -0.4364
10467SOL    HW135317   3.608   3.517   9.922  0.8902 -2.6376 -0.9487
10467SOL    HW235318   3.754   3.479   9.928  1.7845  0.5707 -0.4294
10468SOL     OW35319   9.933   4.369   3.322  0.0167  0.5144 -0.1823
10468SOL    HW135320   9.857   4.317   3.296  1.1316 -1.0837 -0.3513
10468SOL    HW235321   9.912   4.400   3.410 -0.2406 -1.1429  0.3744
10469SOL     OW35322   1.615   8.328   3.555  0.1483 -0.3435  0.4919
10469SOL    HW135323   1.647   8.380   3.481  0.2053 -1.4718 -0.2969
10469SOL    HW235324   1.620   8.387   3.630  1.9505  0.2112 -0.0273
10470SOL     OW35325   7.797   6.451   8.782 -0.3297  0.6479  0.4539
10470SOL    HW135326   7.794   6.398   8.862 -0.9136 -1.3917 -0.8472
10470SOL    HW235327   7.787   6.541   8.813 -0.2474 -0.0479  2.6915
10471SOL     OW35328   1.806   0.605   3.434 -0.2864 -0.3928 -0.4106
10471SOL    HW135329   1.883   0.588   3.379  1.3156  0.4973  1.4236
10471SOL    HW235330   1.773   0.689   3.405 -0.8577 -0.9840 -1.5050
10472SOL     OW35331   4.235   1.139   2.362  0.1689  0.0104 -0.1059
10472SOL    HW135332   4.231   1.046   2.384  0.7660  0.3420  1.5723
10472SOL    HW235333   4.289   1.143   2.283 -1.5983 -1.2184 -1.4578
10473SOL     OW35334   2.000   4.520   9.857  0.1495 -0.1266  0.4607
10473SOL    HW135335   2.060   4.577   9.904  0.4089  1.1159 -1.2985
10473SOL    HW235336   1.932   4.579   9.824 -0.1924 -0.9910 -0.4278
10474SOL     OW35337   0.112   2.727   2.915 -0.2470  0.0342  0.2897
10474SOL    HW135338   0.154   2.641   2.915 -2.1076 -0.9587 -1.6402
10474SOL    HW235339   0.149   2.772   2.840  0.7666  1.0052  1.3289
10475SOL     OW35340   3.753   9.893   8.665  0.2357  0.2577  0.1597
10475SOL    HW135341   3.775   9.912   8.574 -1.6101  0.3485 -0.3051
10475SOL    HW235342   3.659   9.872   8.663  0.0852  0.6083  2.0892
10476SOL     OW35343   0.881   2.722   1.869 -0.0627  0.4303 -0.4147
10476SOL    HW135344   0.857   2.668   1.944 -0.4468 -0.3522 -1.0760
10476SOL    HW235345   0.967   2.690   1.843  0.5225  1.3922  0.3032
10477SOL     OW35346   7.141   1.780   3.545  0.1135  0.1964  0.3258
10477SOL    HW135347   7.144   1.874   3.564 -0.0692  0.2555  0.0664
10477SOL    HW235348   7.100   1.741   3.622  1.1149  0.2073  0.8767
10478SOL     OW35349   4.340   2.755   8.694 -0.8014 -0.8788  0.4634
10478SOL    HW135350   4.248   2.776   8.679 -0.4245  0.1735 -0.4413
10478SOL    HW235351   4.348   2.664   8.664 -1.4838 -0.8978  0.3085
10479SOL     OW35352   3.902   7.549   7.057  0.0722  0.2763 -0.1021
10479SOL    HW135353   3.898   7.565   6.963  3.1699  0.7859 -0.2737
10479SOL    HW235354   3.875   7.632   7.097 -0.6238  0.2712 -0.5475
10480SOL     OW35355   0.203   4.472   6.319 -0.5298  0.4301  0.2693
10480SOL    HW135356   0.194   4.377   6.310  0.3480  0.4793 -1.3915
10480SOL    HW235357   0.195   4.487   6.413 -0.6162 -1.2990  0.5758
10481SOL     OW35358   4.038   0.515   6.033  0.6692  0.3066  0.1846
10481SOL    HW135359   4.097   0.586   6.058  1.3131  0.2401 -1.1048
10481SOL    HW235360   4.093   0.453   5.986 -0.7154  1.0605 -2.6006
10482SOL     OW35361   6.677   7.222   7.117 -0.5871 -0.0363  0.3181
10482SOL    HW135362   6.618   7.295   7.137  0.5610  0.8369  0.6604
10482SOL    HW235363   6.755   7.240   7.170  0.4538 -0.5067 -1.0080
10483SOL     OW35364   8.363   3.299   5.501 -0.7457  0.2250  0.0397
10483SOL    HW135365   8.329   3.371   5.448 -1.4754 -0.5375 -0.5599
10483SOL    HW235366   8.320   3.309   5.586  1.5914  2.3702  1.1076
10484SOL     OW35367   9.723   5.828   6.355 -0.2063  0.3584  0.7269
10484SOL    HW135368   9.781   5.826   6.278  2.6490  0.0620  2.7162
10484SOL    HW235369   9.686   5.740   6.359  2.3772 -0.8179  1.4876
10485SOL     OW35370   2.317   4.634   3.279  0.4779 -0.4153  0.0444
10485SOL    HW135371   2.324   4.662   3.370 -1.8643 -0.5423  0.3408
10485SOL    HW235372   2.320   4.714   3.228 -0.3825 -0.1134  0.4403
10486SOL     OW35373   5.308   1.735   3.279 -0.0907  0.4141  0.3212
10486SOL    HW135374   5.276   1.765   3.194 -0.9743 -1.8496 -0.2287
10486SOL    HW235375   5.358   1.656   3.260 -0.9344 -0.5857  1.9402
10487SOL     OW35376   2.203   2.346   7.998  0.2205  0.2425 -0.3313
10487SOL    HW135377   2.281   2.335   8.052 -0.2128  1.7606  0.6630
10487SOL    HW235378   2.137   2.290   8.040  0.1361  0.7409  0.2115
10488SOL     OW35379   6.849   2.374   2.181  0.6832 -0.6669 -0.0357
10488SOL    HW135380   6.782   2.310   2.158  1.2348 -0.7909 -1.4436
10488SOL    HW235381   6.928   2.341   2.139  1.0696  0.7123 -0.4449
10489SOL     OW35382   1.083   1.068   2.067 -0.0386  0.4536 -0.0050
10489SOL    HW135383   1.156   1.048   2.008 -1.0247 -0.9316 -0.8132
10489SOL    HW235384   1.063   0.984   2.109 -1.7418  0.5859 -0.4800
10490SOL     OW35385   0.313   5.164   5.816  0.2443 -0.2171 -0.0232
10490SOL    HW135386   0.408   5.157   5.809  0.5655 -0.4193  3.0470
10490SOL    HW235387   0.296   5.258   5.822  0.1989 -0.1719 -0.7308
10491SOL     OW35388   1.367   9.253   7.863  0.2417  0.6460 -0.0124
10491SOL    HW135389   1.314   9.248   7.783 -2.1944  0.4363  1.5122
10491SOL    HW235390   1.446   9.205   7.841 -0.4109  0.4399 -2.2486
10492SOL     OW35391   7.707   0.349   4.705 -0.2646  0.0841  0.3182
10492SOL    HW135392   7.677   0.260   4.688 -1.7393  0.6414 -0.1713
10492SOL    HW235393   7.789   0.357   4.655 -1.0798 -0.4293 -1.1513
10493SOL     OW35394   6.457   5.606   9.562  1.1635 -0.3145 -0.4914
10493SOL    HW135395   6.503   5.559   9.631  1.0420  0.4248  0.1016
10493SOL    HW235396   6.460   5.547   9.487  2.2001 -0.7002 -0.1647
10494SOL     OW35397   8.047   9.875   9.400 -0.4509 -0.3005  0.0269
10494SOL    HW135398   8.116   9.809   9.395  0.2166  0.1912  1.9101
10494SOL    HW235399   8.003   9.870   9.315  0.4457 -2.1938 -0.3800
10495SOL     OW35400   2.586   8.965   3.697  0.4839  0.4023 -0.0527
10495SOL    HW135401   2.564   8.960   3.604  1.3433 -1.2454 -0.1946
10495SOL    HW235402   2.645   9.040   3.703  0.0928  0.7772 -0.7571
10496SOL     OW35403   0.678   6.757   3.723 -0.1195  0.2454  0.6325
10496SOL    HW135404   0.684   6.846   3.687  0.2101  0.1241  0.3846
10496SOL    HW235405   0.748   6.754   3.789 -1.1419  0.6879  1.7780
10497SOL     OW35406   4.642   8.789   0.253  0.2793 -1.0549 -0.3712
10497SOL    HW135407   4.603   8.842   0.184  1.4761 -0.3413 -0.5192
10497SOL    HW235408   4.579   8.718   0.267 -1.7653  0.7954  0.3866
10498SOL     OW35409   6.615   9.252   1.377  0.2468  0.2757 -0.0693
10498SOL    HW135410   6.687   9.192   1.394 -1.0415 -1.5846 -0.8160
10498SOL    HW235411   6.637   9.331   1.426  2.3615 -0.5301  0.3808
10499SOL     OW35412   9.090   2.309   4.626 -0.3397 -0.1892  0.0672
10499SOL    HW135413   9.111   2.283   4.716  0.5891  0.5471  0.0811
10499SOL    HW235414   9.068   2.227   4.582  1.8399 -0.9498  0.2861
10500SOL     OW35415   2.455   9.637   1.605  0.0448 -0.2339  0.2318
10500SOL    HW135416   2.511   9.589   1.544  0.4862 -0.5787  0.8938
10500SOL    HW235417   2.437   9.574   1.675  0.0224  0.3348  0.7414
10501SOL     OW35418   8.615   9.958   1.221 -0.1291  0.0054 -0.5198
10501SOL    HW135419   8.549   9.910   1.171 -1.4093 -0.1078  1.2057
10501SOL    HW235420   8.569  10.034   1.255  0.1197 -0.9410  2.1148
10502SOL     OW35421   4.403   0.227   4.101 -0.2290 -0.4108 -0.1721
10502SOL    HW135422   4.452   0.308   4.091 -0.2083 -0.5136 -0.9936
10502SOL    HW235423   4.470   0.161   4.120 -0.4271  0.0855  2.6972
10503SOL     OW35424   4.522   0.578   4.388 -0.4056  0.2513  0.1937
10503SOL    HW135425   4.455   0.512   4.403  0.8130 -0.5582  2.4446
10503SOL    HW235426   4.523   0.631   4.467  0.4702  1.3223 -0.4986
10504SOL     OW35427   5.053   2.001   0.951  0.1599 -0.4272  0.3467
10504SOL    HW135428   5.119   2.054   0.996 -1.1621  0.2009  1.6528
10504SOL    HW235429   5.025   1.937   1.016  0.0932 -1.2481 -0.4725
10505SOL     OW35430   3.118   0.838   1.642 -0.3988 -0.1813  0.2348
10505SOL    HW135431   3.092   0.756   1.684  0.8300 -1.0286 -0.5897
10505SOL    HW235432   3.080   0.907   1.697 -3.8095 -1.2534 -0.5388
10506SOL     OW35433   4.402   3.548   9.171  0.3826 -0.3025  0.0905
10506SOL    HW135434   4.385   3.492   9.095 -0.5631 -1.1107  0.8836
10506SOL    HW235435   4.494   3.533   9.191  0.3277 -1.0120 -0.1508
10507SOL     OW35436   3.662   7.493   1.271 -0.0134  0.1432  0.1089
10507SOL    HW135437   3.567   7.504   1.270 -0.2264 -1.3517  0.7246
10507SOL    HW235438   3.695   7.570   1.318 -1.0475  0.0114  1.0932
10508SOL     OW35439   4.944   5.929   5.843 -0.1662 -0.1397  0.4000
10508SOL    HW135440   4.937   6.017   5.805 -1.9310 -0.5588 -0.3599
10508SOL    HW235441   4.894   5.873   5.784  1.8255 -1.9054  0.2659
10509SOL     OW35442   7.719   9.072   9.989  0.5013 -0.2295 -0.2978
10509SOL    HW135443   7.669   8.991   9.997  1.1712 -0.6055  0.1646
10509SOL    HW235444   7.757   9.068   9.901 -2.2611  1.2433 -1.7075
10510SOL     OW35445   4.059   2.628   1.047  0.2765  0.3021  0.5110
10510SOL    HW135446   4.010   2.563   0.997 -0.3990  0.7587  0.5595
10510SOL    HW235447   3.994   2.695   1.068  0.9721  1.0155  0.4135
10511SOL     OW35448   3.822   6.562   1.492  0.4501 -0.2536 -0.0638
10511SOL    HW135449   3.839   6.504   1.418  0.6516  0.6390 -0.7409
10511SOL    HW235450   3.906   6.605   1.510 -0.0783  1.1372 -0.7491
10512SOL     OW35451   6.963   2.071   5.038 -0.1437  0.6375 -0.9328
10512SOL    HW135452   6.887   2.020   5.012  0.6999 -0.4538 -1.3672
10512SOL    HW235453   7.021   2.067   4.962  1.3600 -0.5944  0.2085
10513SOL     OW35454   4.283   6.335   2.231  0.5213 -0.5666 -0.3165
10513SOL    HW135455   4.227   6.395   2.182 -0.4304 -1.7090 -0.6859
10513SOL    HW235456   4.369   6.375   2.230 -0.6633  2.4927  2.3024
10514SOL     OW35457   4.218   8.798   7.292 -0.5886  0.4717 -0.2662
10514SOL    HW135458   4.300   8.831   7.329 -1.7068  1.2798  1.6644
10514SOL    HW235459   4.215   8.835   7.203  0.5531  1.4587  0.0761
10515SOL     OW35460   7.477   0.527   4.979 -0.5400 -0.2366 -0.0144
10515SOL    HW135461   7.526   0.544   4.899 -1.5765  0.0654 -0.5968
10515SOL    HW235462   7.543   0.529   5.048  0.4527 -1.0564 -0.9148
10516SOL     OW35463   9.724   9.704  10.051  0.0468 -0.2148  0.4347
10516SOL    HW135464   9.785   9.632  10.038 -0.6623 -0.7237 -0.1382
10516SOL    HW235465   9.693   9.694  10.141  2.5196  1.4099  1.5621
10517SOL     OW35466   7.342   7.040   4.416 -0.1148 -0.4780 -0.3444
10517SOL    HW135467   7.370   7.008   4.330  1.5593 -1.4373  0.5138
10517SOL    HW235468   7.360   6.968   4.476  1.9052  1.2954  1.3396
10518SOL     OW35469   3.984   3.112   8.686  0.1807  0.3913 -0.7525
10518SOL    HW135470   3.921   3.049   8.650  0.4885 -0.1771 -0.3141
10518SOL    HW235471   3.930   3.181   8.725 -0.1744 -0.1454 -0.2854
10519SOL     OW35472  10.024   3.640   0.333 -0.4828 -0.0495 -0.1925
10519SOL    HW135473  10.025   3.629   0.428 -0.8270  0.7980 -0.0839
10519SOL    HW235474   9.992   3.729   0.319 -1.7937 -0.6416 -1.1444
10520SOL     OW35475   7.191   0.011   8.981 -0.9620 -1.0563  0.1509
10520SOL    HW135476   7.116   0.066   9.002  0.2122  0.9189 -0.5174
10520SOL    HW235477   7.169  -0.029   8.897 -1.4114 -0.7782  0.1337
10521SOL     OW35478   6.484   6.316   5.491 -0.0140  0.9054  0.0381
10521SOL    HW135479   6.401   6.362   5.485  0.0459  0.8909 -1.3063
10521SOL    HW235480   6.521   6.322   5.403  0.8006 -0.2184  0.2735
10522SOL     OW35481   1.184   6.718   8.919 -0.2723 -0.5507  0.8220
10522SOL    HW135482   1.245   6.674   8.978 -0.4116 -1.9942 -0.0621
10522SOL    HW235483   1.103   6.724   8.969  0.6488  1.9407  2.2399
10523SOL     OW35484   2.710   5.945   0.961  0.1483  0.4935 -0.2256
10523SOL    HW135485   2.787   5.992   0.929  0.5286 -0.8693 -1.4379
10523SOL    HW235486   2.741   5.900   1.040  0.1389  1.2282  0.1999
10524SOL     OW35487   0.318   1.270   2.525 -0.0072 -0.2768 -0.1282
10524SOL    HW135488   0.288   1.257   2.436 -0.0901 -2.6254  0.1850
10524SOL    HW235489   0.327   1.365   2.534 -1.2442  0.0888 -2.1924
10525SOL     OW35490   5.247   2.997   3.666 -0.0127  0.2154  0.2632
10525SOL    HW135491   5.192   3.075   3.664  0.0535  0.2542 -1.7148
10525SOL    HW235492   5.336   3.030   3.650  0.2615 -0.0988  1.0892
10526SOL     OW35493   6.981   2.070   4.146  0.0095 -0.7921 -0.7253
10526SOL    HW135494   6.924   2.070   4.069  0.9712 -0.8253 -1.4603
10526SOL    HW235495   7.050   2.133   4.124  0.6392 -1.2748 -0.1599
10527SOL     OW35496   0.884   9.465   6.512  0.3349  0.3659 -0.5193
10527SOL    HW135497   0.917   9.553   6.494  0.1550  0.4480 -0.4513
10527SOL    HW235498   0.815   9.452   6.447  0.7307  0.0632 -0.8746
10528SOL     OW35499  10.065   4.885   6.223  0.4427 -0.4511  0.3383
10528SOL    HW135500  10.051   4.887   6.128 -2.3559 -1.7048  0.6158
10528SOL    HW235501  10.129   4.816   6.237  0.9008 -0.2358 -0.6265
10529SOL     OW35502   5.722   6.477   7.583  0.5201 -0.2785  0.0966
10529SOL    HW135503   5.704   6.540   7.653 -1.4194  0.2193 -0.7868
10529SOL    HW235504   5.803   6.508   7.543  2.3234 -1.2060  2.7556
10530SOL     OW35505   4.570   6.024   1.691  0.0722  0.6759  0.9633
10530SOL    HW135506   4.666   6.017   1.690 -0.0523 -1.6919  0.9399
10530SOL    HW235507   4.548   6.029   1.784  0.1265 -1.5085  1.1408
10531SOL     OW35508   8.198   8.428   6.515 -1.1501 -0.9284  0.3436
10531SOL    HW135509   8.254   8.381   6.577 -1.4414 -1.1903  0.4099
10531SOL    HW235510   8.222   8.392   6.430 -0.8628 -0.6820  0.3152
10532SOL     OW35511   8.054   7.081   0.218 -0.8539  0.1402  0.3621
10532SOL    HW135512   7.989   7.052   0.155 -2.9027  0.1829  2.3235
10532SOL    HW235513   8.100   7.153   0.174 -1.6347 -0.3471 -1.3412
10533SOL     OW35514   5.402   2.650   8.972  0.2366 -0.1125  0.1567
10533SOL    HW135515   5.406   2.706   8.895  2.4191  0.1879  0.4424
10533SOL    HW235516   5.448   2.699   9.040  2.4466 -2.2720  0.3618
10534SOL     OW35517   8.630   8.734   7.030  0.2263  0.6153 -0.2650
10534SOL    HW135518   8.605   8.642   7.040  1.2010 -0.1987 -3.8821
10534SOL    HW235519   8.552   8.776   6.994  0.9534  0.2678 -2.3266
10535SOL     OW35520   7.378   0.053   9.196 -0.0216 -0.0507  0.2288
10535SOL    HW135521   7.324   0.034   9.273 -2.1723  1.9700 -0.6605
10535SOL    HW235522   7.318   0.044   9.122  1.1595  1.2295 -0.9271
10536SOL     OW35523   3.430   2.128   4.479  0.3681 -0.6195  0.2542
10536SOL    HW135524   3.391   2.148   4.564  1.2017 -0.7795  0.6752
10536SOL    HW235525   3.358   2.141   4.417 -0.1753 -0.2433  0.9480
10537SOL     OW35526   1.654   6.298   8.536 -0.2656  0.3209  0.6745
10537SOL    HW135527   1.631   6.211   8.570 -0.3394 -0.5707 -1.4826
10537SOL    HW235528   1.595   6.311   8.462  0.7595  1.5464  0.0409
10538SOL     OW35529   2.484   8.870   8.479  0.3933  0.6669  0.2368
10538SOL    HW135530   2.532   8.788   8.494  0.5316  0.5915 -0.5905
10538SOL    HW235531   2.438   8.885   8.562  0.4642 -0.1809  0.4476
10539SOL     OW35532   2.071   6.962   0.164 -0.5671 -0.1651 -0.5266
10539SOL    HW135533   2.017   7.038   0.185 -1.9303 -1.8432  2.7865
10539SOL    HW235534   2.029   6.923   0.088 -0.9856  1.2713 -1.0703
10540SOL     OW35535   9.879   5.056   5.330 -0.2758  0.1184 -0.1073
10540SOL    HW135536   9.850   5.131   5.381  0.6134 -0.2308  0.9474
10540SOL    HW235537   9.964   5.082   5.296  0.4431 -0.7042  0.9879
10541SOL     OW35538   0.975   7.879   1.106 -0.0422 -0.1180  0.0178
10541SOL    HW135539   0.981   7.974   1.113 -0.1653 -0.0549 -0.7152
10541SOL    HW235540   0.986   7.848   1.196 -1.0359  0.6469  0.4196
10542SOL     OW35541   4.595   3.823   5.522  0.1392 -0.1484  0.0438
10542SOL    HW135542   4.540   3.889   5.480 -1.5251 -1.5252 -0.0624
10542SOL    HW235543   4.598   3.751   5.460 -1.0464 -1.5739  1.5491
10543SOL     OW35544   7.657   9.434   3.531  0.2813 -0.0746 -0.2028
10543SOL    HW135545   7.644   9.526   3.512  0.7688 -0.1121 -0.7517
10543SOL    HW235546   7.707   9.432   3.613 -1.0199  0.1108  0.6166
10544SOL     OW35547   7.683   1.265   2.838  0.4256 -0.3443  0.3742
10544SOL    HW135548   7.680   1.358   2.820  1.6279 -0.2990  0.3079
10544SOL    HW235549   7.661   1.223   2.755 -1.9627 -0.1434  0.8567
10545SOL     OW35550   4.323   0.546   3.426  0.1131 -0.0758 -0.4352
10545SOL    HW135551   4.368   0.570   3.507  0.4683 -0.4844 -0.5029
10545SOL    HW235552   4.391   0.555   3.359 -0.1106  0.0142 -0.6483
10546SOL     OW35553   6.492   2.149  10.151 -0.2130  0.6442 -0.0976
10546SOL    HW135554   6.565   2.208  10.134  0.5182 -0.2020  0.0424
10546SOL    HW235555   6.470   2.163  10.243 -0.6253  1.3154 -0.2855
10547SOL     OW35556  10.195   3.365   3.036 -0.3728  0.2768  0.1303
10547SOL    HW135557  10.268   3.423   3.014  1.6739 -1.5020  1.7325
10547SOL    HW235558  10.206   3.349   3.130 -0.7945 -2.6885 -0.2580
10548SOL     OW35559   2.466   5.956   0.729  0.4168 -0.3010  0.2841
10548SOL    HW135560   2.487   6.020   0.797  0.0483  1.8604 -1.5176
10548SOL    HW235561   2.465   5.872   0.774  0.1367  1.0399  2.9451
10549SOL     OW35562   0.845   1.093   4.662 -0.1943  0.5621 -0.2590
10549SOL    HW135563   0.926   1.137   4.636 -1.1305  1.1144 -2.5056
10549SOL    HW235564   0.800   1.156   4.718 -0.5314  1.6699 -1.6954
10550SOL     OW35565   5.504   2.565   8.057  0.4167  0.0569 -0.4746
10550SOL    HW135566   5.425   2.527   8.094  0.9758 -0.7766 -0.0999
10550SOL    HW235567   5.540   2.496   8.002  2.8375 -1.0562  2.2169
10551SOL     OW35568   6.015   6.842   4.327 -0.5092  0.3813 -0.6137
10551SOL    HW135569   6.045   6.753   4.346  1.4149  0.9006 -1.0118
10551SOL    HW235570   5.934   6.851   4.377 -1.3692 -1.9482 -1.4327
10552SOL     OW35571   4.186   5.340   4.411 -0.5208 -0.4986 -0.0129
10552SOL    HW135572   4.196   5.258   4.362 -1.7182 -0.6481 -0.0595
10552SOL    HW235573   4.261   5.343   4.469 -0.3501 -1.5382 -0.1576
10553SOL     OW35574   8.506   2.082   5.823 -0.1089  0.5360  0.4126
10553SOL    HW135575   8.412   2.081   5.841 -0.1134  0.0813  0.3777
10553SOL    HW235576   8.547   2.093   5.908 -0.2362  2.8562  0.2277
10554SOL     OW35577   9.095   1.221   4.668  0.4020 -0.0479 -0.1084
10554SOL    HW135578   9.086   1.312   4.641 -0.5341 -0.6863 -2.0992
10554SOL    HW235579   9.155   1.183   4.604  0.5727 -0.9040  0.5481
10555SOL     OW35580   2.625   5.739   6.757 -0.3741  0.1647  0.6198
10555SOL    HW135581   2.547   5.710   6.708  0.1237  1.2120 -0.8859
10555SOL    HW235582   2.653   5.662   6.805 -3.1819  0.1094  2.4183
10556SOL     OW35583   9.227   9.132   4.713 -0.2718 -0.2578 -0.0792
10556SOL    HW135584   9.316   9.114   4.745  0.5936  1.5273 -1.3166
10556SOL    HW235585   9.232   9.116   4.619 -1.1212  0.3745 -0.2357
10557SOL     OW35586   0.848   9.164   8.311 -0.2194  0.4828  0.4913
10557SOL    HW135587   0.803   9.137   8.391 -1.4536  0.7008 -0.0975
10557SOL    HW235588   0.777   9.188   8.251  0.6276 -0.6290 -1.0228
10558SOL     OW35589   2.609   9.198   0.200 -0.4257  0.1633 -0.5017
10558SOL    HW135590   2.603   9.107   0.174 -1.4831  0.5993 -1.8831
10558SOL    HW235591   2.694   9.227   0.168  0.7174 -0.7485  1.4909
10559SOL     OW35592   0.152   6.761   2.012  0.2081  0.2052  0.7656
10559SOL    HW135593   0.129   6.849   2.041  2.1355  1.1094 -0.2162
10559SOL    HW235594   0.116   6.755   1.924 -0.1506 -0.0896  0.9325
10560SOL     OW35595   3.476   4.277   6.614  0.3382 -0.7439 -0.2834
10560SOL    HW135596   3.487   4.204   6.674 -0.7760 -0.8077 -0.1293
10560SOL    HW235597   3.386   4.269   6.583  1.0307 -1.0546 -2.4303
10561SOL     OW35598   3.431   1.418   8.373  0.2090 -0.0219  0.2070
10561SOL    HW135599   3.423   1.421   8.278 -1.3002  2.0901  0.3175
10561SOL    HW235600   3.525   1.408   8.389  0.6460  0.9145 -1.5272
10562SOL     OW35601   6.928   1.469   6.705 -0.3598 -0.2262 -0.0451
10562SOL    HW135602   6.984   1.405   6.661  2.1412  1.3775  0.5527
10562SOL    HW235603   6.898   1.423   6.784  1.7615 -0.6060  0.6256
10563SOL     OW35604   7.009   8.871   6.214 -0.5518 -0.5135  0.5400
10563SOL    HW135605   7.043   8.834   6.132 -1.8780 -0.3219 -0.1277
10563SOL    HW235606   6.921   8.899   6.192 -0.1935  1.5083  1.4893
10564SOL     OW35607   3.972   5.159   0.170  0.2842 -0.0749  0.3846
10564SOL    HW135608   4.059   5.185   0.142  0.2554 -1.1271 -0.7250
10564SOL    HW235609   3.915   5.183   0.097 -0.5358  1.4830  1.4780
10565SOL     OW35610   8.287   9.235   5.096 -0.0278 -0.1636 -0.2320
10565SOL    HW135611   8.363   9.180   5.112 -0.6482 -0.7103  1.0298
10565SOL    HW235612   8.227   9.180   5.046 -0.2647 -0.3110  0.2123
10566SOL     OW35613   1.197   2.530   7.285 -0.6822  0.1667  1.1665
10566SOL    HW135614   1.126   2.472   7.314 -0.5505  0.0972  1.3531
10566SOL    HW235615   1.245   2.478   7.219 -1.1704  0.4425  0.5894
10567SOL     OW35616   8.503   0.998   7.932 -0.0575 -0.3619  0.2611
10567SOL    HW135617   8.506   0.979   7.839  1.6789  1.5129 -0.1462
10567SOL    HW235618   8.528   0.917   7.975  1.0962 -0.7075 -1.0213
10568SOL     OW35619   3.744   0.001   6.818  0.2802  0.1314 -0.5001
10568SOL    HW135620   3.755   0.089   6.782  1.4924  0.4668  0.6195
10568SOL    HW235621   3.653   0.000   6.849  0.2973  1.0358 -0.3972
10569SOL     OW35622   1.073   4.951   8.613  0.0203 -0.4458 -0.1970
10569SOL    HW135623   1.110   5.034   8.644 -0.5184 -0.3243  0.1236
10569SOL    HW235624   0.979   4.963   8.616 -0.0621 -0.5715 -1.5398
10570SOL     OW35625   3.061   7.040   8.588 -0.0128  0.2927 -0.5445
10570SOL    HW135626   2.975   7.052   8.546 -0.9684 -1.0369  0.9170
10570SOL    HW235627   3.053   7.086   8.671  0.4247 -0.4359 -0.0915
10571SOL     OW35628   7.533   7.173   7.227 -0.0314  0.3125  0.2077
10571SOL    HW135629   7.515   7.158   7.135 -0.2587  2.3987 -0.1376
10571SOL    HW235630   7.623   7.142   7.239 -0.4949 -1.3264 -0.3313
10572SOL     OW35631   7.760   8.388   7.115  0.2779 -0.5131 -0.3392
10572SOL    HW135632   7.700   8.346   7.177  0.6288 -0.4102  0.0694
10572SOL    HW235633   7.712   8.387   7.032 -0.8006  0.6458  0.2323
10573SOL     OW35634   8.964   9.289   9.000  0.6358  0.0808 -0.0271
10573SOL    HW135635   8.965   9.193   8.991  0.0652  0.1645 -1.0899
10573SOL    HW235636   8.950   9.304   9.094 -0.1795 -0.8853  0.0243
10574SOL     OW35637   6.035  10.043   8.977 -0.2020 -0.7389  0.0601
10574SOL    HW135638   6.061  10.111   8.914  0.5195 -1.3116 -0.2852
10574SOL    HW235639   6.092   9.969   8.956 -1.2254 -1.5759  0.1987
10575SOL     OW35640   3.188   6.217   6.175  0.1824  0.0595 -0.1989
10575SOL    HW135641   3.264   6.258   6.134 -0.5405  0.6494 -0.9679
10575SOL    HW235642   3.218   6.129   6.198  0.2781 -0.7771 -3.1177
10576SOL     OW35643   1.542   1.176   8.188 -0.3216 -0.2232  0.9724
10576SOL    HW135644   1.575   1.087   8.201 -2.7019 -1.3287 -0.1145
10576SOL    HW235645   1.571   1.200   8.100 -0.4351 -0.2551  0.9275
10577SOL     OW35646   1.413   3.588   4.655  0.1300  0.1631 -0.2269
10577SOL    HW135647   1.414   3.623   4.744 -1.5299 -1.0786  0.3410
10577SOL    HW235648   1.422   3.665   4.599 -0.9765  1.2427  0.9957
10578SOL     OW35649   6.552   1.809   5.094 -0.0586  0.1482 -0.0324
10578SOL    HW135650   6.490   1.765   5.152  1.6079 -0.4225  1.4155
10578SOL    HW235651   6.637   1.795   5.136  1.0968  0.6086 -2.1140
10579SOL     OW35652   9.898   3.714   2.237  0.7106  0.0456  0.0827
10579SOL    HW135653   9.866   3.674   2.156 -0.9702  0.8081  0.3258
10579SOL    HW235654   9.830   3.778   2.260  3.1197  2.9558 -0.1892
10580SOL     OW35655   3.065   6.906   4.223 -0.5340  0.4533  0.0336
10580SOL    HW135656   3.106   6.924   4.308 -0.2423  1.0531 -0.2280
10580SOL    HW235657   2.976   6.941   4.231 -0.1334  1.5926 -0.2957
10581SOL     OW35658   3.436   5.075   6.268 -0.4657  0.2743 -0.1415
10581SOL    HW135659   3.501   5.140   6.243 -0.4076 -0.2833 -1.4998
10581SOL    HW235660   3.358   5.097   6.218 -1.1431  0.5632  1.0129
10582SOL     OW35661   0.904   0.803   9.661  1.0809 -0.6356  0.0795
10582SOL    HW135662   0.950   0.876   9.621 -0.4452 -0.3983 -1.3950
10582SOL    HW235663   0.916   0.814   9.755 -0.3775  2.4357  0.0047
10583SOL     OW35664   7.420   5.208   9.515  0.5285 -0.0603  0.0486
10583SOL    HW135665   7.385   5.184   9.601  0.1291 -2.0105 -0.6217
10583SOL    HW235666   7.343   5.232   9.463  0.7658  1.0833  0.1951
10584SOL     OW35667   8.738   0.493   1.045  0.4998  0.0773  0.4457
10584SOL    HW135668   8.643   0.497   1.057  0.5557  0.3527  0.8549
10584SOL    HW235669   8.752   0.511   0.952  0.1362 -0.2283  0.3306
10585SOL     OW35670   7.715   0.479   3.445 -0.5568 -0.4741  0.1302
10585SOL    HW135671   7.622   0.462   3.458 -0.7141  1.0185  1.3078
10585SOL    HW235672   7.720   0.573   3.427  0.7419 -0.4668  0.4304
10586SOL     OW35673   9.598   3.728  10.100 -0.1825 -0.1961  1.1204
10586SOL    HW135674   9.523   3.777  10.135  0.2755  1.2221  0.2144
10586SOL    HW235675   9.572   3.637  10.107 -2.6032  0.2709 -0.4118
10587SOL     OW35676   7.799   2.664   8.413 -0.0491 -0.7704  0.5209
10587SOL    HW135677   7.802   2.570   8.394  1.8945 -0.7371  0.4698
10587SOL    HW235678   7.764   2.669   8.502 -2.2816 -1.3570 -0.2428
10588SOL     OW35679   8.398   2.251   6.103 -0.1980  0.3782 -0.6431
10588SOL    HW135680   8.409   2.196   6.181  0.0121  0.0463 -0.9035
10588SOL    HW235681   8.485   2.252   6.062  0.2439  2.2410  0.2274
10589SOL     OW35682   4.895   5.839   0.953  0.2698 -0.4167 -0.4537
10589SOL    HW135683   4.904   5.893   1.032 -0.7611 -0.7272 -0.0984
10589SOL    HW235684   4.952   5.881   0.889  0.7163  0.1553  0.2931
10590SOL     OW35685   5.488   8.985   7.440 -0.1633  0.2823  0.0565
10590SOL    HW135686   5.542   9.062   7.427 -0.0039 -0.0418 -1.3117
10590SOL    HW235687   5.455   8.963   7.353 -1.3951 -0.3348  0.6486
10591SOL     OW35688   5.524   4.179   2.078 -0.1047 -0.3164  0.2194
10591SOL    HW135689   5.572   4.101   2.108  1.1847  0.5750  0.5926
10591SOL    HW235690   5.506   4.228   2.158 -1.8339 -0.6941  0.1015
10592SOL     OW35691   5.064   9.907   8.869 -0.2603  0.4772  0.5278
10592SOL    HW135692   4.971   9.888   8.882  0.3988 -1.2505  4.1657
10592SOL    HW235693   5.102   9.899   8.956  3.4521  0.3375 -0.9203
10593SOL     OW35694   2.305  10.163   2.177 -0.2184  0.2134 -0.6240
10593SOL    HW135695   2.364  10.128   2.244 -0.2009  0.3014 -0.5934
10593SOL    HW235696   2.363  10.195   2.108 -0.2456 -0.1403 -0.8111
10594SOL     OW35697   7.677  10.051   7.829  0.1388 -0.5359 -0.5636
10594SOL    HW135698   7.686  10.075   7.737  1.5689  1.6020  0.0716
10594SOL    HW235699   7.756  10.001   7.848 -0.5270 -1.6717 -0.6313
10595SOL     OW35700   8.492   2.914   3.809  0.0656  0.1929  0.2194
10595SOL    HW135701   8.464   2.841   3.864  0.7698  0.5075  1.0256
10595SOL    HW235702   8.583   2.895   3.789 -0.2287  0.0019 -0.9971
10596SOL     OW35703   9.152   2.244   2.102  0.6497 -0.0691  0.8355
10596SOL    HW135704   9.139   2.177   2.036  1.6989 -1.5185  2.0424
10596SOL    HW235705   9.212   2.307   2.062  0.2469 -0.2299 -0.0406
10597SOL     OW35706   4.157   7.591   7.236  0.4767 -0.3914  1.1722
10597SOL    HW135707   4.112   7.574   7.319  1.2323  0.7470  1.8446
10597SOL    HW235708   4.148   7.685   7.223 -0.1744 -0.6487 -0.3778
10598SOL     OW35709   2.552   3.694   6.320  0.4671  0.5271 -0.0785
10598SOL    HW135710   2.612   3.627   6.353 -1.1911 -0.9382  0.0953
10598SOL    HW235711   2.585   3.776   6.359  1.8348 -0.3376  0.6807
10599SOL     OW35712   6.393   1.873   0.119 -0.3444  0.3689 -0.3052
10599SOL    HW135713   6.330   1.809   0.087 -1.3170  1.0308  0.2272
10599SOL    HW235714   6.443   1.898   0.042 -1.5659  0.7462 -1.0004
10600SOL     OW35715   0.171   3.725   7.211  0.3448 -0.0843 -1.0614
10600SOL    HW135716   0.227   3.802   7.221  1.0879 -0.5370 -1.6946
10600SOL    HW235717   0.150   3.722   7.118 -0.6712  0.0297 -0.8470
10601SOL     OW35718   6.792   7.031   6.953  0.4115 -0.3583  0.4974
10601SOL    HW135719   6.722   7.077   6.999 -0.0155 -0.7420  0.2353
10601SOL    HW235720   6.786   7.062   6.863  0.4526 -0.5448  0.4307
10602SOL     OW35721   0.462   3.310   5.128  0.5290  0.0013  0.9017
10602SOL    HW135722   0.483   3.253   5.054  1.8489  0.0262  1.2354
10602SOL    HW235723   0.530   3.377   5.126 -0.9941  1.6070  0.5157
10603SOL     OW35724   1.598   1.281   6.309 -0.5630  0.0122 -0.1344
10603SOL    HW135725   1.676   1.228   6.324 -0.5307 -0.0138 -0.3998
10603SOL    HW235726   1.531   1.242   6.366 -0.7849 -0.8528 -0.9801
10604SOL     OW35727   1.082   6.920   9.146 -0.1352  0.0230 -0.5731
10604SOL    HW135728   1.131   6.970   9.080  0.0559  2.4716  1.2853
10604SOL    HW235729   1.006   6.886   9.099  0.4796  0.8593 -2.2477
10605SOL     OW35730   4.512  10.163   3.619  0.4446 -0.0683 -0.1153
10605SOL    HW135731   4.595  10.191   3.579  0.4812  1.4552  0.9183
10605SOL    HW235732   4.507  10.213   3.701 -1.3289 -0.4022  0.0238
10606SOL     OW35733   4.406   2.725   3.462  0.1124  0.3106 -0.2990
10606SOL    HW135734   4.442   2.681   3.385  1.2159 -0.4531  0.6235
10606SOL    HW235735   4.395   2.656   3.527  1.2071  1.2539  0.9485
10607SOL     OW35736   6.507   7.441   8.107 -0.0127 -0.4590 -0.2653
10607SOL    HW135737   6.597   7.425   8.133 -0.2878  0.6225  1.4990
10607SOL    HW235738   6.455   7.377   8.156 -0.4011  0.5141  0.6146
10608SOL     OW35739   5.549  10.017   7.027 -0.1041  0.0143 -0.2439
10608SOL    HW135740   5.474  10.049   6.976  0.5279 -0.6922 -1.6529
10608SOL    HW235741   5.574   9.935   6.985 -0.1055 -1.0789  1.7675
10609SOL     OW35742   3.709   6.122   2.729 -0.2854 -0.0148 -0.1927
10609SOL    HW135743   3.755   6.115   2.646  0.4893  0.3082  0.1974
10609SOL    HW235744   3.646   6.193   2.716  0.8744  1.0742 -0.0493
10610SOL     OW35745   6.185   5.761   1.455 -0.1256 -0.4253 -0.5249
10610SOL    HW135746   6.190   5.856   1.442 -0.0407 -0.5749 -1.6849
10610SOL    HW235747   6.276   5.731   1.450  0.0113 -0.4422  1.1705
10611SOL     OW35748   3.707   9.024   7.099 -0.4680 -0.4017 -0.4444
10611SOL    HW135749   3.778   8.967   7.129 -0.4068 -0.9215 -1.5317
10611SOL    HW235750   3.713   9.022   7.003 -0.1989  1.7755 -0.5137
10612SOL     OW35751   0.836   3.052   1.350  0.2478 -0.5701 -0.2384
10612SOL    HW135752   0.821   2.961   1.373 -0.0229 -0.2359  1.0070
10612SOL    HW235753   0.854   3.095   1.434  2.8473  0.0853 -1.0437
10613SOL     OW35754   0.536   7.395   6.671 -0.1593 -0.0908 -0.1401
10613SOL    HW135755   0.506   7.486   6.673 -0.6440 -0.2335 -0.7382
10613SOL    HW235756   0.511   7.360   6.757 -0.6455  0.1335 -0.1876
10614SOL     OW35757   9.431   5.641   1.065 -0.4302 -0.1534  0.6041
10614SOL    HW135758   9.503   5.672   1.008  0.4579 -0.7374  1.3808
10614SOL    HW235759   9.439   5.693   1.144 -0.3066 -0.8386  1.0472
10615SOL     OW35760   0.241   2.776   2.072 -0.1811  0.4290  0.3501
10615SOL    HW135761   0.270   2.867   2.082  0.6294  0.1772  0.3902
10615SOL    HW235762   0.165   2.769   2.129  0.5280  0.7360  1.3687
10616SOL     OW35763   3.339   8.770   3.613  0.0629 -0.1572  0.2627
10616SOL    HW135764   3.363   8.745   3.702  1.0132 -1.4888 -0.3449
10616SOL    HW235765   3.305   8.690   3.573  3.5970 -0.8066 -1.8733
10617SOL     OW35766   4.503   7.981   3.860 -0.2457 -0.2413  0.6409
10617SOL    HW135767   4.556   7.922   3.914  2.1285 -1.5962 -2.7997
10617SOL    HW235768   4.557   8.060   3.850  0.0980 -0.6362 -0.9132
10618SOL     OW35769   9.799   7.883   2.040  0.6985 -0.0755 -0.1900
10618SOL    HW135770   9.849   7.820   2.092  0.1026  0.0872  0.5930
10618SOL    HW235771   9.751   7.934   2.104 -1.9419 -1.4189 -0.9573
10619SOL     OW35772   5.680   9.193   1.271  0.2375  0.0426 -0.5616
10619SOL    HW135773   5.652   9.114   1.226  0.0773  0.0315 -0.4410
10619SOL    HW235774   5.659   9.178   1.363  1.7470 -0.4818 -0.2608
10620SOL     OW35775   2.737   7.721   1.464  0.3625  0.0277 -0.3357
10620SOL    HW135776   2.694   7.662   1.526 -0.6763 -1.0692 -1.9992
10620SOL    HW235777   2.822   7.680   1.446  1.2963  1.1018  1.3759
10621SOL     OW35778   8.268   7.390   8.409 -0.3113  0.1517  0.1642
10621SOL    HW135779   8.287   7.457   8.475 -0.1321  1.4018 -1.1050
10621SOL    HW235780   8.193   7.425   8.361 -0.8671 -1.0608  0.1303
10622SOL     OW35781   8.214   3.434   0.730  0.4548 -0.1340  0.3709
10622SOL    HW135782   8.150   3.505   0.736  2.5662  1.9813 -0.5017
10622SOL    HW235783   8.168   3.365   0.682 -1.6015  0.7269  0.9973
10623SOL     OW35784   3.961   8.243   0.085  0.0985 -0.4892  0.5319
10623SOL    HW135785   3.952   8.148   0.086 -1.0671 -0.3937  0.9338
10623SOL    HW235786   3.876   8.275   0.056  1.2729  0.3799 -2.3031
10624SOL     OW35787   4.664   0.746   5.550  0.2041 -0.1965 -0.0621
10624SOL    HW135788   4.703   0.666   5.514 -0.4714 -0.4181 -0.3226
10624SOL    HW235789   4.584   0.715   5.594 -0.3891  0.4078 -0.6989
10625SOL     OW35790   1.583   3.411   1.397  0.1141 -0.2399 -0.3424
10625SOL    HW135791   1.640   3.481   1.429  0.2054 -0.4910  0.0578
10625SOL    HW235792   1.578   3.425   1.303 -2.4159  2.2146  0.0416
10626SOL     OW35793   7.487   9.194   4.771 -0.0362  0.3560 -0.2178
10626SOL    HW135794   7.448   9.216   4.686 -1.4904 -3.7314 -0.8452
10626SOL    HW235795   7.554   9.129   4.751 -0.8899 -1.2284  1.7569
10627SOL     OW35796   5.307   2.290   4.330 -0.4262  0.1325 -0.2910
10627SOL    HW135797   5.246   2.221   4.356  0.6956 -0.4165  0.9547
10627SOL    HW235798   5.283   2.310   4.239 -0.8439 -1.8353 -0.6564
10628SOL     OW35799   1.002   8.372   9.228  0.0308 -0.2555 -0.4132
10628SOL    HW135800   1.083   8.322   9.220  0.2951  0.2961 -1.3757
10628SOL    HW235801   1.030   8.464   9.220 -0.6160 -0.0275 -0.1351
10629SOL     OW35802   8.382   9.778   8.693  0.3879 -0.0655 -0.0644
10629SOL    HW135803   8.342   9.860   8.664 -0.6146 -0.3124  0.5405
10629SOL    HW235804   8.366   9.777   8.788 -2.1513 -2.2427 -0.4017
10630SOL     OW35805   7.923   7.503   1.048 -0.0683  0.1944  0.1080
10630SOL    HW135806   7.868   7.524   1.123 -1.0492 -0.1527 -0.4922
10630SOL    HW235807   7.905   7.410   1.029 -0.2895  0.4282 -0.9137
10631SOL     OW35808   6.492   6.969   8.071 -0.1477 -0.1241  0.4891
10631SOL    HW135809   6.540   6.943   8.151 -0.0197 -2.8557 -0.3695
10631SOL    HW235810   6.424   6.902   8.061 -0.8542  0.7807 -1.1196
10632SOL     OW35811   2.392   1.308   8.311  0.3813 -0.0163  0.0488
10632SOL    HW135812   2.396   1.337   8.402 -1.4193  2.4785 -0.5524
10632SOL    HW235813   2.435   1.378   8.262 -0.8808 -0.0735 -1.2053
10633SOL     OW35814   1.326   6.188   1.177  0.5706  0.1386  1.0749
10633SOL    HW135815   1.349   6.179   1.085  0.9667 -1.0984  1.2764
10633SOL    HW235816   1.397   6.239   1.216  0.3170  0.8077  0.6768
10634SOL     OW35817   5.686   9.177   7.425 -0.6978  0.3205  0.2299
10634SOL    HW135818   5.669   9.264   7.388 -1.2642  0.7019  1.3379
10634SOL    HW235819   5.776   9.158   7.400 -0.9570  0.6959 -1.0497
10635SOL     OW35820   4.008   4.880   9.055  0.1390 -0.2084 -0.3321
10635SOL    HW135821   3.967   4.966   9.045  1.4472  0.4772 -0.1215
10635SOL    HW235822   3.935   4.818   9.059 -0.9154  1.0517  1.2506
10636SOL     OW35823   7.081   2.166   0.396 -0.4712 -0.8400  0.3725
10636SOL    HW135824   7.108   2.102   0.330  0.5774 -1.0550  0.9914
10636SOL    HW235825   7.113   2.250   0.363 -0.7865 -0.8105  0.1432
10637SOL     OW35826   3.736   5.780   4.730  0.0431  0.5623 -0.1186
10637SOL    HW135827   3.647   5.792   4.699 -1.4232  0.7922  3.6050
10637SOL    HW235828   3.785   5.854   4.694 -1.7615  1.5636 -0.6339
10638SOL     OW35829   7.803   4.143   0.091 -0.6152  0.1645  0.4736
10638SOL    HW135830   7.852   4.072   0.049  1.1530  0.7610  1.4559
10638SOL    HW235831   7.756   4.101   0.163  0.5824 -0.0093  1.1776
10639SOL     OW35832   9.851   8.425   0.921  0.3880  0.1883  0.0892
10639SOL    HW135833   9.767   8.462   0.895  0.3042 -1.3915 -2.0927
10639SOL    HW235834   9.830   8.336   0.947  1.3102 -0.0091  0.1727
10640SOL     OW35835   2.091   9.164   1.912 -0.1688  0.0972 -0.2152
10640SOL    HW135836   2.092   9.154   2.007 -1.1681 -0.6836 -0.2773
10640SOL    HW235837   2.001   9.146   1.886 -0.3851  2.1830 -1.1339
10641SOL     OW35838   8.151   9.953   8.910 -0.3203 -0.1712 -0.3926
10641SOL    HW135839   8.238   9.989   8.892  0.7890 -2.0467  0.9212
10641SOL    HW235840   8.099   9.979   8.834  1.2768  1.2585 -1.0757
10642SOL     OW35841   8.768   7.256   6.756  0.1604 -0.2391  0.5517
10642SOL    HW135842   8.856   7.228   6.783 -0.0761 -2.2056 -0.5526
10642SOL    HW235843   8.709   7.206   6.811 -0.2911  0.5193  0.7681
10643SOL     OW35844   6.931   2.336   1.264 -0.4082 -0.2649 -0.2281
10643SOL    HW135845   6.984   2.326   1.343 -0.0464  1.2188 -0.2525
10643SOL    HW235846   6.866   2.266   1.269  1.7138 -2.3359 -0.3439
10644SOL     OW35847   7.920  10.094   5.396  0.4041  0.0000  0.6942
10644SOL    HW135848   7.853  10.039   5.437  0.3397  0.1389  0.7718
10644SOL    HW235849   7.876  10.136   5.322 -0.5657  2.8080  2.7454
10645SOL     OW35850   5.903   9.543   8.288 -0.2982  0.0159 -0.1343
10645SOL    HW135851   5.824   9.574   8.244  1.4895  2.0871 -2.1469
10645SOL    HW235852   5.961   9.515   8.218  0.4949 -2.3331  1.3373
10646SOL     OW35853   7.829   4.114   4.860  0.3214  0.1768 -0.8581
10646SOL    HW135854   7.884   4.160   4.924 -0.2284  0.1994 -0.3974
10646SOL    HW235855   7.761   4.177   4.837  1.2860  0.6809 -2.5305
10647SOL     OW35856   3.425   3.545   7.440  0.1630  0.1710 -0.2071
10647SOL    HW135857   3.439   3.628   7.486  0.1353  0.9540 -1.5664
10647SOL    HW235858   3.374   3.493   7.502  0.6148  0.9715  0.8763
10648SOL     OW35859   4.351   7.126   9.358  0.1500 -0.0821 -0.3872
10648SOL    HW135860   4.428   7.182   9.355 -0.5970  0.9595 -0.8673
10648SOL    HW235861   4.284   7.175   9.309 -0.1933 -1.9366 -1.8885
10649SOL     OW35862   2.836   6.887   0.938 -0.0439 -0.9187 -0.2675
10649SOL    HW135863   2.865   6.817   0.879  1.9218  0.2276 -0.7597
10649SOL    HW235864   2.864   6.858   1.025  0.8824 -0.7177 -0.4870
10650SOL     OW35865   8.465   1.094   0.793 -0.1201  0.0571  0.1031
10650SOL    HW135866   8.413   1.049   0.726  0.6102  0.2068 -0.5937
10650SOL    HW235867   8.460   1.037   0.870 -1.0394 -0.0855 -0.0544
10651SOL     OW35868   0.648   6.682   5.566  0.1623 -0.2327 -0.0197
10651SOL    HW135869   0.705   6.687   5.489  0.3391 -2.6195 -0.1363
10651SOL    HW235870   0.587   6.755   5.556  0.4285 -0.2422 -2.2477
10652SOL     OW35871   7.425   7.394   9.628 -0.3927  0.2560 -0.0155
10652SOL    HW135872   7.517   7.372   9.614 -0.1573 -0.1328  1.9335
10652SOL    HW235873   7.420   7.488   9.610  1.0033  0.8808  2.4359
10653SOL     OW35874   6.677   8.948   2.832  0.5565 -0.4260  0.3851
10653SOL    HW135875   6.702   8.865   2.791 -0.7936 -0.8748  0.3990
10653SOL    HW235876   6.588   8.932   2.864  0.1873  1.1106  0.1842
10654SOL     OW35877   2.568   9.287   1.675 -0.0834 -0.5238  0.4344
10654SOL    HW135878   2.502   9.335   1.726 -0.8666 -2.2987  1.1555
10654SOL    HW235879   2.645   9.286   1.731 -0.1216 -0.2921  0.4950
10655SOL     OW35880   4.071   3.425   2.389  0.0849 -0.0549  0.7785
10655SOL    HW135881   4.166   3.437   2.398  0.3827 -2.1946  0.8766
10655SOL    HW235882   4.039   3.419   2.479 -0.1662  0.5928  0.7435
10656SOL     OW35883   0.800   0.637   3.816 -0.3228  0.0053  0.5814
10656SOL    HW135884   0.755   0.677   3.742  0.7028  0.5297  0.2178
10656SOL    HW235885   0.875   0.592   3.777  1.5729  2.2168  1.4526
10657SOL     OW35886   9.739   8.028   3.899 -0.1130 -0.0905  0.1029
10657SOL    HW135887   9.825   8.067   3.916  0.3239 -1.1688  0.4828
10657SOL    HW235888   9.746   7.939   3.935 -0.2900 -1.3373 -2.7201
10658SOL     OW35889   3.100   6.800   4.989  0.3987 -0.1358 -0.0340
10658SOL    HW135890   3.178   6.834   5.033  0.1371 -0.3486  0.6211
10658SOL    HW235891   3.051   6.756   5.059 -1.5541  2.1030  0.1635
10659SOL     OW35892   4.339   5.730   0.131 -0.0577 -0.8849  0.2008
10659SOL    HW135893   4.314   5.735   0.039 -2.5207  0.0427  0.8326
10659SOL    HW235894   4.261   5.759   0.179  1.3896 -0.5970  2.5650
10660SOL     OW35895   4.077   5.574   0.696 -0.1497 -0.1152  0.0772
10660SOL    HW135896   4.099   5.652   0.645  0.6890  1.2705  2.3980
10660SOL    HW235897   4.000   5.599   0.746  0.4074 -0.5704  1.2087
10661SOL     OW35898   1.455   9.736   7.387 -0.6289  0.0688 -0.7951
10661SOL    HW135899   1.374   9.686   7.387 -0.6133  0.0438 -1.0850
10661SOL    HW235900   1.487   9.731   7.297 -1.1709  1.4911 -1.0988
10662SOL     OW35901   7.755   4.860   7.175  0.0475 -0.5485  0.2566
10662SOL    HW135902   7.804   4.805   7.236 -0.1891 -0.1672  0.8083
10662SOL    HW235903   7.722   4.800   7.108  0.8566 -0.8762  0.1475
10663SOL     OW35904   5.180   1.280   3.412  0.3641  0.9237  0.1378
10663SOL    HW135905   5.182   1.279   3.316  0.0892  0.2192  0.1283
10663SOL    HW235906   5.100   1.327   3.435  0.4126  1.0635  0.0180
10664SOL     OW35907   6.305   8.941   0.690  0.7251  0.2926  0.0584
10664SOL    HW135908   6.327   8.888   0.766 -1.2517 -1.6775 -0.6337
10664SOL    HW235909   6.209   8.949   0.694  0.7548  1.6933 -1.2461
10665SOL     OW35910   8.873   9.891   5.448 -0.0750  0.4263  0.1789
10665SOL    HW135911   8.937   9.904   5.378  0.6827 -0.0253  0.7836
10665SOL    HW235912   8.897   9.808   5.488 -0.7627  0.4741  0.7135
10666SOL     OW35913   5.763   0.109   4.635 -0.0746  0.1556  0.1131
10666SOL    HW135914   5.798   0.161   4.563  0.8328 -1.4793 -0.6929
10666SOL    HW235915   5.674   0.140   4.646 -0.6601 -0.3129 -2.5486
10667SOL     OW35916   4.932   1.812   2.531 -0.3721 -0.4235  0.0293
10667SOL    HW135917   4.865   1.795   2.465  0.3550  0.1574 -0.8703
10667SOL    HW235918   4.993   1.739   2.523 -0.2136 -0.2842 -0.0208
10668SOL     OW35919   6.513   2.868   3.245  0.5756  0.2369  0.3200
10668SOL    HW135920   6.434   2.821   3.216 -0.0512  1.1555  0.4797
10668SOL    HW235921   6.576   2.799   3.264 -0.2164 -0.5317  0.2570
10669SOL     OW35922   8.737   8.748   3.928 -0.4586 -0.0337 -1.0279
10669SOL    HW135923   8.788   8.818   3.969  0.8091 -1.1874 -0.5443
10669SOL    HW235924   8.780   8.667   3.956 -3.4808 -1.2143  0.7306
10670SOL     OW35925   9.634   1.160   6.292  0.1493  0.2334 -0.0802
10670SOL    HW135926   9.639   1.099   6.218 -2.1169 -0.8802  0.5919
10670SOL    HW235927   9.719   1.152   6.335  0.9469 -0.2621 -1.6700
10671SOL     OW35928   1.600   4.319   3.661  0.2959 -0.2515 -0.0609
10671SOL    HW135929   1.568   4.407   3.682  0.6175 -0.3372  0.8127
10671SOL    HW235930   1.521   4.269   3.643 -0.0716 -0.3651  1.7191
10672SOL     OW35931   7.707   1.768   7.646 -0.4198 -0.1866  0.0759
10672SOL    HW135932   7.715   1.675   7.667  0.3155  0.0801  1.0544
10672SOL    HW235933   7.614   1.787   7.658 -0.8965 -1.1320 -1.7294
10673SOL     OW35934   4.399   8.433   5.019 -0.2524 -0.6902  0.6586
10673SOL    HW135935   4.322   8.414   4.964 -0.4825 -0.0109  0.7403
10673SOL    HW235936   4.467   8.374   4.986 -0.0382  0.4930 -1.1285
10674SOL     OW35937   2.809   6.100   7.733  0.2845  0.2576  0.3862
10674SOL    HW135938   2.820   6.135   7.644 -2.4019  1.0672  0.2996
10674SOL    HW235939   2.896   6.066   7.756  1.2549  0.7594 -2.2150
10675SOL     OW35940   3.755   4.250   2.740 -0.2610 -0.5231 -0.5785
10675SOL    HW135941   3.712   4.333   2.719 -0.1957 -0.1538  0.6480
10675SOL    HW235942   3.684   4.187   2.752 -0.3022 -0.7108 -1.7188
10676SOL     OW35943   0.944   1.267   3.113 -0.1257  0.1895 -0.0091
10676SOL    HW135944   0.975   1.349   3.152  0.0198  0.0602  0.1500
10676SOL    HW235945   0.962   1.201   3.180  0.5476 -0.1069 -0.4765
10677SOL     OW35946   2.394   2.622   5.229  0.7235 -0.3293 -0.1345
10677SOL    HW135947   2.439   2.558   5.174 -0.4255 -1.8165  0.5872
10677SOL    HW235948   2.301   2.600   5.220  0.4249  0.1944  1.4193
10678SOL     OW35949   4.010   7.314   7.668 -0.0799  0.1101  0.1038
10678SOL    HW135950   3.939   7.284   7.612  1.6455  1.2198 -2.9209
10678SOL    HW235951   3.998   7.409   7.672  0.4517  0.1564  0.7188
10679SOL     OW35952   0.812   7.981   7.065  0.3460 -0.5509  0.5813
10679SOL    HW135953   0.764   7.994   7.147 -0.1046  0.0499  0.2326
10679SOL    HW235954   0.868   8.059   7.058 -0.5856  0.0685 -0.3258
10680SOL     OW35955   7.648   6.933   6.143 -0.5031  0.1176  0.0973
10680SOL    HW135956   7.736   6.911   6.171 -0.5122  0.1699  0.1689
10680SOL    HW235957   7.591   6.880   6.199 -0.4945 -1.0546 -0.9699
10681SOL     OW35958   3.437   1.085   5.332 -0.0491 -0.2998  0.3236
10681SOL    HW135959   3.429   0.990   5.323 -0.6575 -0.1024 -1.7387
10681SOL    HW235960   3.450   1.099   5.425  1.5550 -2.5013  0.5102
10682SOL     OW35961   5.035   6.514   0.937  0.0979  0.5963  0.0006
10682SOL    HW135962   4.943   6.543   0.937  0.4565  1.7720  0.4685
10682SOL    HW235963   5.040   6.451   1.008 -0.2840  0.7531  0.1719
10683SOL     OW35964   3.388   1.128   8.276 -0.7032  0.0599 -0.2671
10683SOL    HW135965   3.325   1.185   8.319 -1.1877 -1.1195  0.6573
10683SOL    HW235966   3.335   1.077   8.214 -0.3036  0.5166 -0.9890
10684SOL     OW35967   5.614   9.171  10.107 -0.7240  0.1285 -0.3108
10684SOL    HW135968   5.647   9.107  10.044 -2.6090 -0.3814 -0.8432
10684SOL    HW235969   5.559   9.121  10.166  1.4802  0.4777  2.2384
10685SOL     OW35970   6.936   1.774   2.212  0.2031 -0.3839  0.0610
10685SOL    HW135971   6.880   1.843   2.248  1.0244  0.1263  0.3917
10685SOL    HW235972   6.875   1.712   2.172 -0.4857  1.7055 -2.3905
10686SOL     OW35973   2.285   7.384   0.618  0.5847 -0.0211  0.0096
10686SOL    HW135974   2.240   7.396   0.534 -0.0262 -0.2436  0.2963
10686SOL    HW235975   2.323   7.296   0.612 -1.7171 -1.1847  0.9487
10687SOL     OW35976   8.070   6.762   5.606  0.2112 -0.1951 -0.2746
10687SOL    HW135977   8.151   6.800   5.639  1.0064 -1.3205 -0.8725
10687SOL    HW235978   8.066   6.789   5.514 -0.5635  0.5983 -0.0211
10688SOL     OW35979   1.898   5.279   2.322  0.0651  0.1950 -0.1795
10688SOL    HW135980   1.963   5.325   2.268  0.2457  0.1347 -0.0144
10688SOL    HW235981   1.905   5.320   2.408 -0.0024  0.0799 -0.1182
10689SOL     OW35982   6.901   1.649  10.109  0.1537 -0.5620 -0.0449
10689SOL    HW135983   6.806   1.656  10.120  0.0967 -0.4494 -0.5756
10689SOL    HW235984   6.933   1.738  10.124  0.4501 -1.0456  2.5366
10690SOL     OW35985   2.787   9.962   1.742 -0.3440  0.6707  0.5684
10690SOL    HW135986   2.691   9.961   1.741 -0.4051  1.3860  2.0425
10690SOL    HW235987   2.809  10.039   1.794  1.0255  0.2785  0.6050
10691SOL     OW35988   0.576   7.362   9.992 -0.0879 -0.3294 -0.7205
10691SOL    HW135989   0.540   7.448   9.971  3.0842  1.8325  1.5418
10691SOL    HW235990   0.654   7.354   9.937 -0.1562 -1.6262 -0.6649
10692SOL     OW35991   8.449   0.762   3.658 -0.0004  0.5078 -0.3862
10692SOL    HW135992   8.358   0.733   3.670  0.2643  0.0565  0.7313
10692SOL    HW235993   8.468   0.743   3.566 -1.5097  2.0514 -1.0631
10693SOL     OW35994   8.121   5.997   4.281  0.4070 -0.1117 -0.1248
10693SOL    HW135995   8.124   6.065   4.214  0.2428 -0.5369 -0.5663
10693SOL    HW235996   8.077   5.923   4.239  2.9959 -1.5019 -0.6019
10694SOL     OW35997   7.120   6.672   9.356  0.0759  0.2126 -0.1296
10694SOL    HW135998   7.157   6.637   9.275 -0.6963 -1.9348  0.3844
10694SOL    HW235999   7.035   6.707   9.330  0.3543  0.6725 -0.4423
10695SOL     OW36000   1.621   1.188   1.180 -0.2708  0.2111  0.1616
10695SOL    HW136001   1.708   1.170   1.215  0.2040 -1.2659 -1.6016
10695SOL    HW236002   1.625   1.278   1.149 -0.3118  1.1233  2.5608
10696SOL     OW36003   4.980   9.332   2.053 -0.0399 -0.1156  0.0925
10696SOL    HW136004   5.008   9.351   1.963  1.7615  1.0489  0.8336
10696SOL    HW236005   4.921   9.258   2.045  0.5210 -0.3904 -2.0071
10697SOL     OW36006   6.606   4.890  10.112 -0.0898 -0.2325 -1.1368
10697SOL    HW136007   6.621   4.795  10.114  0.4435 -0.1317 -0.1556
10697SOL    HW236008   6.682   4.925  10.065  0.6073 -0.1361  0.0334
10698SOL     OW36009   1.381   5.694   7.513 -0.4252  0.2065  0.0847
10698SOL    HW136010   1.319   5.622   7.504  0.0294  0.0173 -2.5760
10698SOL    HW236011   1.460   5.653   7.548  0.0609 -0.8470 -2.0357
10699SOL     OW36012   1.692   8.476   3.830  0.3279  0.2437 -0.4575
10699SOL    HW136013   1.599   8.499   3.825  0.1022 -0.8354 -1.7831
10699SOL    HW236014   1.738   8.559   3.824 -0.5318  0.6885 -1.0443
10700SOL     OW36015   7.391   3.687   8.254 -0.5678  0.4857 -0.1742
10700SOL    HW136016   7.407   3.617   8.317 -1.4032  0.2523 -0.2093
10700SOL    HW236017   7.407   3.767   8.303  0.4581  0.2826 -0.1499
10701SOL     OW36018   7.402   6.666   4.882  0.1023 -0.2716  0.2619
10701SOL    HW136019   7.335   6.734   4.881  0.9616  0.6558  1.8010
10701SOL    HW236020   7.394   6.626   4.968  1.8244  0.2018  0.6824
10702SOL     OW36021   3.891   6.802   1.077 -0.2659  0.2644 -0.3616
10702SOL    HW136022   3.922   6.816   1.166 -0.3711 -1.2078 -0.0637
10702SOL    HW236023   3.801   6.770   1.088 -0.1728 -0.2220 -0.9826
10703SOL     OW36024   6.619   9.198   7.726  0.6415  0.1370 -0.3936
10703SOL    HW136025   6.622   9.111   7.767 -0.1200  0.1921 -0.2021
10703SOL    HW236026   6.708   9.231   7.733  0.8941 -0.5485 -0.2879
10704SOL     OW36027   4.728   0.262   6.600 -0.3347  0.4302 -0.0630
10704SOL    HW136028   4.716   0.304   6.685 -1.2143 -1.5944  0.8981
10704SOL    HW236029   4.713   0.331   6.536  0.3576  2.0138  1.4107
10705SOL     OW36030   8.544   7.484   4.831  0.3887 -0.5794 -0.5097
10705SOL    HW136031   8.624   7.434   4.846  0.6090 -0.7284 -2.0733
10705SOL    HW236032   8.542   7.547   4.903  0.4597 -2.3386  1.1457
10706SOL     OW36033   1.046   6.204   4.855  0.2952 -1.1234 -0.3148
10706SOL    HW136034   1.091   6.260   4.791 -0.4873 -1.6377 -1.3546
10706SOL    HW236035   1.005   6.265   4.916  1.7466 -0.6388  0.1999
10707SOL     OW36036   2.758   7.136   8.045  0.2717  0.4858 -0.2874
10707SOL    HW136037   2.826   7.154   7.980 -1.5124 -0.1228 -2.4330
10707SOL    HW236038   2.753   7.217   8.097 -0.2078  2.1743 -2.7767
10708SOL     OW36039   3.669   5.916   7.830  0.2275  0.0552 -0.1534
10708SOL    HW136040   3.607   5.984   7.802 -0.6131 -0.5165  0.2818
10708SOL    HW236041   3.622   5.834   7.817  1.3667 -0.4806 -1.0154
10709SOL     OW36042   7.567   0.555   4.064  0.4635  0.8536 -0.6892
10709SOL    HW136043   7.584   0.553   4.159 -1.8258 -2.0636 -0.1917
10709SOL    HW236044   7.614   0.479   4.030 -2.5280 -1.0482 -0.9534
10710SOL     OW36045   3.139   0.992   4.559 -0.0225 -0.0264 -0.1259
10710SOL    HW136046   3.049   0.964   4.576 -0.5615  2.2391  1.1826
10710SOL    HW236047   3.170   1.025   4.644  2.1350 -0.9465 -0.5058
10711SOL     OW36048   3.320   3.508   6.245  0.0722  0.3171 -0.2529
10711SOL    HW136049   3.303   3.595   6.282  0.0466  0.2362 -0.0724
10711SOL    HW236050   3.381   3.468   6.306 -1.8939 -0.7757  1.1250
10712SOL     OW36051   3.931   4.130   8.667  0.3295 -0.4673 -0.0527
10712SOL    HW136052   3.959   4.219   8.690 -0.5435  0.2461 -1.6328
10712SOL    HW236053   3.972   4.074   8.734  1.4126  1.0419  0.5959
10713SOL     OW36054   6.018   4.501   6.840  0.0630  0.1432 -0.0580
10713SOL    HW136055   5.959   4.431   6.868  0.9678  0.0373  1.7419
10713SOL    HW236056   5.960   4.567   6.803 -1.2833  0.1900  1.9354
10714SOL     OW36057   3.614   6.724   7.871 -0.3790  0.2074 -0.0641
10714SOL    HW136058   3.634   6.744   7.963 -0.7885 -0.4208  0.1708
10714SOL    HW236059   3.570   6.639   7.875 -0.9568  0.4690 -0.7892
10715SOL     OW36060   3.004   8.115   7.168 -0.2550  0.2458  0.1601
10715SOL    HW136061   3.065   8.100   7.096  0.0607 -2.8112  0.9412
10715SOL    HW236062   3.057   8.108   7.247 -1.2471 -0.4135  0.7892
10716SOL     OW36063   5.983   2.333   4.395 -0.1738  0.6803 -0.1902
10716SOL    HW136064   5.933   2.266   4.349 -0.7063 -0.6269  2.1391
10716SOL    HW236065   6.068   2.293   4.413  0.6376  1.7701 -1.3833
10717SOL     OW36066   1.895   4.454   7.305 -0.0134  0.1862 -0.0715
10717SOL    HW136067   1.842   4.533   7.318 -1.0357 -0.6341  0.9817
10717SOL    HW236068   1.872   4.424   7.217  0.3349  0.9977 -0.4557
10718SOL     OW36069   7.095   7.565   1.302  0.0437 -0.2834 -0.2862
10718SOL    HW136070   7.043   7.497   1.344  0.8798 -0.6485  0.1851
10718SOL    HW236071   7.138   7.610   1.374 -1.2264  1.3872 -0.5254
10719SOL     OW36072   0.850   3.208   0.625 -0.3261 -0.3006  0.2848
10719SOL    HW136073   0.784   3.264   0.665  1.3897  1.8467  0.3155
10719SOL    HW236074   0.922   3.208   0.688  1.8571  1.9552 -1.9632
10720SOL     OW36075   7.550   1.070   3.715 -0.2781 -0.1909  1.0514
10720SOL    HW136076   7.463   1.102   3.738 -0.6735  0.0030 -0.5920
10720SOL    HW236077   7.544   0.974   3.724 -1.4200 -0.4086 -1.2669
10721SOL     OW36078   5.278   6.334   4.465  0.3948 -0.0854  0.1327
10721SOL    HW136079   5.251   6.412   4.513 -0.9811 -0.5166  0.0878
10721SOL    HW236080   5.340   6.291   4.524  2.4319  1.8036 -0.4787
10722SOL     OW36081   5.353   7.345   4.201  0.0412 -0.0234 -0.4950
10722SOL    HW136082   5.284   7.306   4.147  0.2772 -0.5722 -0.4140
10722SOL    HW236083   5.312   7.421   4.242 -0.4508 -0.2209 -0.6115
10723SOL     OW36084   8.489   1.799   1.697  0.3998  0.7137  0.1277
10723SOL    HW136085   8.560   1.852   1.734  1.6428  0.3307 -1.5912
10723SOL    HW236086   8.531   1.718   1.669 -1.1345 -0.4121  0.9671
10724SOL     OW36087   5.151   9.677   1.601  0.4642 -0.0170  0.2387
10724SOL    HW136088   5.129   9.585   1.584 -1.2449  0.6183 -1.2030
10724SOL    HW236089   5.089   9.704   1.668 -1.1749  0.9049 -1.5719
10725SOL     OW36090   6.523   7.146   5.559 -0.3942 -0.7203  0.8032
10725SOL    HW136091   6.451   7.198   5.594  1.2260  2.1587  0.1972
10725SOL    HW236092   6.485   7.060   5.543 -3.0347 -0.0315  2.6982
10726SOL     OW36093   0.803   3.562   0.761 -0.8857 -0.0634  0.5753
10726SOL    HW136094   0.865   3.495   0.790 -0.1926  0.1447 -0.3713
10726SOL    HW236095   0.854   3.618   0.702 -1.4407  1.3272  1.3654
10727SOL     OW36096   5.195   5.070   9.648 -0.2220  0.0674 -0.0738
10727SOL    HW136097   5.217   5.076   9.741  1.2232 -1.4681 -0.2675
10727SOL    HW236098   5.136   4.994   9.643 -1.3598  0.9363 -0.2711
10728SOL     OW36099   5.394   1.020   7.512  0.8974 -0.1668  0.1620
10728SOL    HW136100   5.397   1.039   7.605 -0.0378 -0.6530  0.3074
10728SOL    HW236101   5.383   1.105   7.470 -0.0411 -0.0628  0.5917
10729SOL     OW36102   3.379   6.263   0.153  0.1414 -0.2294 -0.5373
10729SOL    HW136103   3.401   6.175   0.123 -1.0958 -0.8146  0.1954
10729SOL    HW236104   3.462   6.310   0.152  1.2345 -2.0021  1.1091
10730SOL     OW36105   5.165   6.367   9.992 -0.5953 -0.5373 -0.3695
10730SOL    HW136106   5.217   6.290  10.012 -1.4446 -0.7247  1.2328
10730SOL    HW236107   5.074   6.339  10.007 -1.1037  0.1277 -1.9555
10731SOL     OW36108   0.129   6.016   3.564  0.2715 -0.0469 -0.0158
10731SOL    HW136109   0.213   6.023   3.518  1.0678 -1.4350  1.1576
10731SOL    HW236110   0.064   6.008   3.494  1.3145 -0.8887 -0.9216
10732SOL     OW36111   3.932   0.890   6.623 -0.0669 -0.9424 -0.3687
10732SOL    HW136112   3.904   0.854   6.707  1.8440  0.5332  0.9836
10732SOL    HW236113   4.007   0.944   6.644 -1.1896  1.7319 -2.6495
10733SOL     OW36114   2.521   1.561   5.473 -0.5591 -0.3035  0.2572
10733SOL    HW136115   2.450   1.509   5.511  0.0497 -0.8155  0.6994
10733SOL    HW236116   2.598   1.539   5.524  0.3657 -1.2354 -1.4480
10734SOL     OW36117   5.274   8.453   8.895 -0.6496  0.4931  0.7952
10734SOL    HW136118   5.197   8.396   8.899 -1.0602  0.8144 -1.2353
10734SOL    HW236119   5.344   8.396   8.863 -0.8343  0.8613 -0.3291
10735SOL     OW36120   4.195   5.395   8.108  0.3547 -0.2372  0.3860
10735SOL    HW136121   4.175   5.432   8.022  0.4411  0.9910  0.8735
10735SOL    HW236122   4.290   5.386   8.109  0.6544  2.2788  1.2903
10736SOL     OW36123   0.303   5.460   1.394 -0.2305 -0.5662 -0.3546
10736SOL    HW136124   0.367   5.424   1.332 -0.1163 -1.1219  0.0862
10736SOL    HW236125   0.336   5.435   1.480 -2.5224 -3.4557 -0.1669
10737SOL     OW36126   1.361   7.963   9.369 -0.8159  0.4971  0.0618
10737SOL    HW136127   1.426   8.033   9.375 -0.1361 -0.0991 -0.1045
10737SOL    HW236128   1.410   7.884   9.393 -1.5948  0.0966  0.3544
10738SOL     OW36129   5.489   2.449   6.239 -0.1895 -0.4230  0.5339
10738SOL    HW136130   5.464   2.377   6.296 -0.5082 -1.2173 -0.5770
10738SOL    HW236131   5.422   2.516   6.254 -1.1834 -1.2559 -0.0472
10739SOL     OW36132   2.774   5.703   3.465 -0.1562  0.0458 -0.3679
10739SOL    HW136133   2.850   5.756   3.489 -0.2205  0.0036 -0.0688
10739SOL    HW236134   2.804   5.612   3.477  0.4269 -0.0516 -2.2570
10740SOL     OW36135   5.855   6.990   8.391  0.5725 -0.2487 -0.4409
10740SOL    HW136136   5.907   6.919   8.428 -1.6914 -1.3509  0.8690
10740SOL    HW236137   5.778   6.946   8.354 -0.6029  1.4640 -0.1472
10741SOL     OW36138   5.435   2.727   2.630 -0.3184 -0.3383 -0.1721
10741SOL    HW136139   5.345   2.717   2.599 -0.1760 -0.4324 -0.5519
10741SOL    HW236140   5.459   2.641   2.664 -0.6384 -0.1145  0.6421
10742SOL     OW36141   6.038   1.911   5.830 -0.4138 -0.0852  0.1083
10742SOL    HW136142   6.083   1.986   5.791 -0.9311  0.7965  1.1123
10742SOL    HW236143   6.093   1.885   5.903 -1.2528  0.7208  1.0748
10743SOL     OW36144   5.222   6.989   2.423 -0.0675 -0.1315  0.2028
10743SOL    HW136145   5.242   6.995   2.330 -2.8430 -1.0828 -0.5508
10743SOL    HW236146   5.173   7.069   2.442  1.8639  0.8674  1.3353
10744SOL     OW36147   0.392   8.523   1.004 -0.2352  0.3452  0.4719
10744SOL    HW136148   0.307   8.527   0.960  0.2114 -0.1131 -0.4679
10744SOL    HW236149   0.450   8.574   0.949  0.9341 -2.3346 -0.9585
10745SOL     OW36150   4.528   2.921   7.436 -0.3962  0.3808  0.5483
10745SOL    HW136151   4.490   3.006   7.414 -0.0772  0.2096 -0.7899
10745SOL    HW236152   4.574   2.936   7.519 -1.2437  1.2261  0.8819
10746SOL     OW36153   7.993   0.806   4.938  0.7277 -0.3450  0.3475
10746SOL    HW136154   7.985   0.854   4.856  2.6201 -0.3720  0.0889
10746SOL    HW236155   7.932   0.849   4.998 -0.2290  0.0600 -0.8861
10747SOL     OW36156   7.151   3.152   2.447 -0.0690  0.1370 -0.0661
10747SOL    HW136157   7.117   3.062   2.450 -1.2650  0.5822  2.0809
10747SOL    HW236158   7.084   3.200   2.398  1.9764 -0.5446 -3.9317
10748SOL     OW36159   4.524   5.831   6.006  0.8840 -0.0420 -0.2934
10748SOL    HW136160   4.483   5.790   6.082 -1.2638 -0.8177 -1.7922
10748SOL    HW236161   4.596   5.882   6.043 -0.4434  0.1070  2.3173
10749SOL     OW36162   5.993   5.574   2.014 -0.3294 -0.8686 -0.4639
10749SOL    HW136163   5.983   5.667   1.993 -0.2020 -0.8385 -0.3901
10749SOL    HW236164   5.936   5.529   1.951 -0.4729 -0.7343 -0.4310
10750SOL     OW36165   4.486   5.549   4.537 -0.8138 -0.1361  0.6014
10750SOL    HW136166   4.575   5.531   4.566  0.7347  1.6708 -2.5593
10750SOL    HW236167   4.465   5.478   4.476 -0.7243  0.4969 -0.1796
10751SOL     OW36168   9.667   1.177   3.001  0.2418 -0.7403 -0.1669
10751SOL    HW136169   9.671   1.184   3.096 -0.4323  2.1150 -0.2581
10751SOL    HW236170   9.673   1.083   2.984  2.2888 -1.2444  2.5539
10752SOL     OW36171   6.673   8.747   8.711 -0.1517 -0.1911 -0.2425
10752SOL    HW136172   6.698   8.655   8.702  1.0202  0.1932 -1.2415
10752SOL    HW236173   6.727   8.778   8.784  0.5218  0.0436 -0.8322
10753SOL     OW36174   3.255   3.478   8.373 -0.0954 -0.3075  0.4302
10753SOL    HW136175   3.324   3.434   8.423  1.8756  0.4955 -1.4240
10753SOL    HW236176   3.232   3.416   8.304 -0.2104 -0.0107  0.1996
10754SOL     OW36177   7.694   5.532   6.229 -0.4786  0.4789 -0.6180
10754SOL    HW136178   7.648   5.501   6.151 -2.3673  2.1815 -0.2462
10754SOL    HW236179   7.641   5.604   6.262  1.4571  1.2625  0.9984
10755SOL     OW36180   8.666   0.631   3.796 -0.0484  0.1637  0.0110
10755SOL    HW136181   8.601   0.691   3.759 -0.8149 -0.3860  0.4192
10755SOL    HW236182   8.742   0.686   3.815 -0.7113  0.9961  0.3196
10756SOL     OW36183   4.966   4.332   3.408  0.1484 -0.4771  0.5771
10756SOL    HW136184   4.940   4.372   3.325 -0.1956 -1.1292  0.3653
10756SOL    HW236185   5.061   4.336   3.408  0.1839 -1.0643 -0.1545
10757SOL     OW36186   6.755   7.219   3.669  0.2639 -0.4379  0.4754
10757SOL    HW136187   6.821   7.176   3.723  0.0990 -1.5599 -0.1849
10757SOL    HW236188   6.676   7.220   3.723  0.3591 -0.6569  0.6198
10758SOL     OW36189   7.898   3.236   2.375  0.0379  0.1122 -0.2608
10758SOL    HW136190   7.834   3.168   2.353 -0.7605  1.1816 -1.3877
10758SOL    HW236191   7.847   3.305   2.417  0.6286  0.5294 -0.2083
10759SOL     OW36192   8.295   0.966   0.610 -0.5195 -0.0543 -0.1440
10759SOL    HW136193   8.216   0.998   0.566 -0.8609 -1.4936 -0.6320
10759SOL    HW236194   8.364   0.974   0.544 -0.2495  1.1966  0.2799
10760SOL     OW36195   6.252   4.182   6.739 -0.0925  0.6573 -0.1017
10760SOL    HW136196   6.291   4.182   6.651 -0.9307 -0.6665 -0.5023
10760SOL    HW236197   6.162   4.212   6.725  0.6174  3.5897  0.8019
10761SOL     OW36198   2.595   2.510   1.424 -0.0941 -0.0484 -0.1561
10761SOL    HW136199   2.567   2.581   1.366 -0.1616 -0.4158 -0.5873
10761SOL    HW236200   2.597   2.549   1.511 -0.2029  0.4602 -0.3746
10762SOL     OW36201   5.497   8.685   8.576 -0.1625 -0.2027 -0.6111
10762SOL    HW136202   5.426   8.631   8.612 -0.4694  1.2194  1.0751
10762SOL    HW236203   5.492   8.767   8.626 -0.1956  1.7306 -3.5551
10763SOL     OW36204   2.540   2.029   4.760 -0.4306  0.5165  0.2022
10763SOL    HW136205   2.592   2.004   4.836  0.0201  0.4040 -0.1398
10763SOL    HW236206   2.459   1.979   4.769 -0.3241  0.3981  0.5300
10764SOL     OW36207   9.664   5.953   3.208 -0.4193 -0.0578  0.0227
10764SOL    HW136208   9.619   5.873   3.179  1.7428 -1.3522  0.0058
10764SOL    HW236209   9.596   6.020   3.207 -2.0390 -1.6049 -1.1906
10765SOL     OW36210   0.148   2.307   9.583  0.0087  0.1578  0.0293
10765SOL    HW136211   0.066   2.300   9.534  0.4174  0.3954 -0.7124
10765SOL    HW236212   0.137   2.247   9.656 -0.1364 -1.2103 -1.0642
10766SOL     OW36213   2.249   9.013   0.286  0.6139  0.0359  0.4861
10766SOL    HW136214   2.309   9.040   0.217  0.7524  0.1664  0.6560
10766SOL    HW236215   2.286   9.050   0.366 -1.1091  2.5245  0.2691
10767SOL     OW36216   9.930   9.868   5.908  0.4141 -0.6868  0.4380
10767SOL    HW136217   9.930   9.940   5.845 -1.0403 -0.4270  0.6932
10767SOL    HW236218   9.838   9.858   5.933  0.5296 -2.8694  0.1761
10768SOL     OW36219   3.659   8.598   2.296  0.1515  0.2513 -0.0542
10768SOL    HW136220   3.663   8.663   2.366  1.4274  1.4409 -1.1850
10768SOL    HW236221   3.613   8.642   2.225  1.9966  0.3681 -1.2411
10769SOL     OW36222   1.834   1.673   6.156  0.8330  0.3550  0.7568
10769SOL    HW136223   1.813   1.695   6.247 -0.4095  1.5283  0.2344
10769SOL    HW236224   1.818   1.754   6.108  0.3710 -0.5457 -0.6736
10770SOL     OW36225   2.152   3.116   2.336  0.0872 -0.2695  0.3623
10770SOL    HW136226   2.226   3.055   2.338  1.3552  1.2042  1.7931
10770SOL    HW236227   2.095   3.088   2.408  0.0335 -0.5020  0.2293
10771SOL     OW36228   2.429   5.606   9.554 -0.1142 -0.1320  0.3557
10771SOL    HW136229   2.508   5.556   9.575  0.7387  0.8217 -0.5039
10771SOL    HW236230   2.452   5.697   9.574 -0.6349  0.2888 -0.9002
10772SOL     OW36231   1.828   6.482   8.100 -0.2212 -0.4267  0.7577
10772SOL    HW136232   1.840   6.404   8.046  0.0349 -0.1419  0.3956
10772SOL    HW236233   1.894   6.544   8.068 -1.7327  0.6782 -0.3623
10773SOL     OW36234   3.460   8.860   5.152  0.5454 -0.0130 -0.7499
10773SOL    HW136235   3.547   8.826   5.176  1.4099  1.2617 -1.9118
10773SOL    HW236236   3.458   8.948   5.188  0.3162  0.4811 -1.9407
10774SOL     OW36237   8.711   4.226   8.159  0.2137  0.4661  0.1446
10774SOL    HW136238   8.798   4.222   8.118  0.1211 -0.5495  0.0103
10774SOL    HW236239   8.657   4.272   8.096  0.9485  2.3139  0.8097
10775SOL     OW36240   2.910   6.933   9.445 -0.2533  0.2524  0.1769
10775SOL    HW136241   2.899   6.841   9.423 -0.8322  0.2531  0.4472
10775SOL    HW236242   2.972   6.966   9.379  0.3302 -0.4283  0.3675
10776SOL     OW36243   6.676   8.704   6.527  0.2264  0.1635 -0.1367
10776SOL    HW136244   6.764   8.703   6.565 -0.4599  0.7788  1.5504
10776SOL    HW236245   6.680   8.773   6.460  0.9532  0.3888  0.1239
10777SOL     OW36246   0.470   4.773   6.779 -0.6260  0.2113 -0.5172
10777SOL    HW136247   0.548   4.728   6.748 -0.6695  0.8189 -1.5575
10777SOL    HW236248   0.435   4.716   6.847  2.0832  1.1152  1.8149
10778SOL     OW36249   0.102   7.427   3.757 -0.6053 -0.3558  0.3850
10778SOL    HW136250   0.045   7.385   3.693 -0.0786 -2.3739  1.1666
10778SOL    HW236251   0.188   7.388   3.743  0.3989  1.8412 -0.0483
10779SOL     OW36252   1.731   7.345   2.401 -0.2924  0.5706 -0.1072
10779SOL    HW136253   1.641   7.369   2.420 -0.8105 -1.1319 -0.1706
10779SOL    HW236254   1.781   7.374   2.477 -1.1298  0.3221  0.5515
10780SOL     OW36255   2.272   6.430   6.644 -0.6992 -0.2360 -0.0694
10780SOL    HW136256   2.208   6.429   6.573  1.2689 -0.2569 -1.9543
10780SOL    HW236257   2.345   6.378   6.611  0.6304  0.4365  1.6640
10781SOL     OW36258   6.444   3.789   8.565  0.1158 -0.4972  0.0078
10781SOL    HW136259   6.472   3.742   8.487 -1.9771  1.1003 -1.8121
10781SOL    HW236260   6.512   3.854   8.579 -0.2045  0.1912 -1.4402
10782SOL     OW36261   4.589   9.730   2.889 -0.2545  0.2371  0.7418
10782SOL    HW136262   4.646   9.795   2.930  0.4885 -1.2679  2.2325
10782SOL    HW236263   4.511   9.727   2.944 -0.6646  0.4746  0.1815
10783SOL     OW36264   3.622   2.870   8.997  0.1927  0.1293  0.0164
10783SOL    HW136265   3.616   2.778   9.020 -0.8967 -0.0841 -0.9979
10783SOL    HW236266   3.714   2.893   9.012 -0.0165 -0.4220  2.6947
10784SOL     OW36267   4.977   3.980   0.563  0.1722 -0.4548  0.0095
10784SOL    HW136268   4.997   3.900   0.516 -1.7385  1.0070 -3.6766
10784SOL    HW236269   4.882   3.978   0.575  0.0287  1.3826 -0.5027
10785SOL     OW36270   5.556   5.979   1.043 -0.3625 -0.0313  0.5124
10785SOL    HW136271   5.486   5.992   0.980  0.3690 -0.5311 -0.4398
10785SOL    HW236272   5.627   5.938   0.992  0.4929  0.1560  1.5089
10786SOL     OW36273   7.713   5.262   2.035  0.0744 -0.3799 -0.3756
10786SOL    HW136274   7.667   5.268   1.951 -0.8449 -0.5419  0.1048
10786SOL    HW236275   7.791   5.317   2.024  0.7002 -1.4951 -1.8032
10787SOL     OW36276   8.519   9.478   1.154  0.1544 -0.4717 -0.4271
10787SOL    HW136277   8.590   9.488   1.090 -0.0535 -1.1484 -0.7645
10787SOL    HW236278   8.489   9.568   1.170  1.3904 -0.1261  0.0776
10788SOL     OW36279   4.142   3.365   9.036  0.1737 -0.5151 -0.0626
10788SOL    HW136280   4.203   3.390   8.966 -0.9933  0.1331 -0.8802
10788SOL    HW236281   4.056   3.361   8.993 -0.1611 -3.1466  0.6467
10789SOL     OW36282   8.018   6.495   5.551  0.6756 -0.5409 -0.2494
10789SOL    HW136283   8.036   6.500   5.457 -0.9092 -0.4328 -0.5761
10789SOL    HW236284   8.015   6.586   5.580  1.2556 -0.5770 -0.0725
10790SOL     OW36285   1.635   6.993   9.444 -0.3555 -0.0609 -0.0153
10790SOL    HW136286   1.623   7.085   9.467 -0.0813  0.0599 -0.3447
10790SOL    HW236287   1.703   6.962   9.504  1.1596  0.5432 -1.3329
10791SOL     OW36288   7.096   2.841   0.922 -0.2161 -0.2711 -0.0387
10791SOL    HW136289   7.173   2.872   0.876  0.5600 -1.2604  0.5468
10791SOL    HW236290   7.079   2.908   0.989 -0.9206  0.8084 -1.2528
10792SOL     OW36291   1.321   5.785   3.606  0.0894  0.0685 -0.2247
10792SOL    HW136292   1.400   5.760   3.653  0.0794  1.5609  0.6374
10792SOL    HW236293   1.258   5.809   3.674  0.0960  2.3418 -0.9110
10793SOL     OW36294   2.038   8.791   2.823  0.5026  0.0527  0.2678
10793SOL    HW136295   1.992   8.855   2.879  1.2167  1.0121 -0.2044
10793SOL    HW236296   1.984   8.786   2.744  1.6826  1.9850 -0.7363
10794SOL     OW36297   7.423   8.786   0.421  0.2530  0.7654  0.0751
10794SOL    HW136298   7.335   8.752   0.402  0.3635  0.3389  0.3269
10794SOL    HW236299   7.408   8.875   0.453 -0.2028  0.1618  1.6016
10795SOL     OW36300   1.784   0.305   7.955 -0.0618  0.0165  0.5607
10795SOL    HW136301   1.705   0.334   8.001  0.3759  0.3752  1.0871
10795SOL    HW236302   1.828   0.246   8.016 -0.9979 -1.9294 -0.5305
10796SOL     OW36303   9.972   9.886   1.899 -0.2741 -0.2473 -0.0272
10796SOL    HW136304  10.025   9.815   1.862  0.1631 -0.2712  0.6156
10796SOL    HW236305   9.955   9.944   1.825 -0.9548 -1.2040 -0.6476
10797SOL     OW36306   4.871   7.319   1.348 -0.2604 -1.2249 -0.2596
10797SOL    HW136307   4.778   7.333   1.369 -0.5832  0.7157 -2.5277
10797SOL    HW236308   4.917   7.386   1.399 -0.2964 -1.0894 -0.4035
10798SOL     OW36309   0.237   0.428   8.008 -0.4834  0.0827 -0.3154
10798SOL    HW136310   0.168   0.403   7.947 -0.6203  1.8977 -0.9562
10798SOL    HW236311   0.277   0.506   7.969  0.5295  0.3106  1.0864
10799SOL     OW36312   2.308   5.942   0.194 -0.7322  0.2319 -0.0598
10799SOL    HW136313   2.321   5.903   0.281  1.8584 -1.3833 -1.0537
10799SOL    HW236314   2.310   6.036   0.210  1.4989  0.0024  1.5053
10800SOL     OW36315   9.990   1.189   5.326  0.0242 -0.3351  0.1427
10800SOL    HW136316   9.997   1.152   5.414 -0.4633 -0.2605  0.2170
10800SOL    HW236317   9.970   1.282   5.340  0.4501 -0.2112 -0.0467
10801SOL     OW36318   6.772   7.638   3.259 -0.2105 -0.1854 -0.2874
10801SOL    HW136319   6.820   7.584   3.322 -0.4420 -0.4963 -0.3803
10801SOL    HW236320   6.787   7.596   3.175 -0.0170  0.1529 -0.4282
10802SOL     OW36321   5.115   5.509   2.420 -0.0711  0.6348 -0.5804
10802SOL    HW136322   5.196   5.559   2.412 -0.1692  1.1029  1.0634
10802SOL    HW236323   5.143   5.417   2.419  0.4451  0.7867 -0.3219
10803SOL     OW36324   4.257   9.670   5.018 -0.4642  0.0904 -0.3455
10803SOL    HW136325   4.291   9.732   5.083  0.9439 -0.4001 -0.5730
10803SOL    HW236326   4.310   9.686   4.940 -1.4093 -0.0730 -1.0449
10804SOL     OW36327   2.809   1.822   0.178 -0.5309  0.4243 -0.1523
10804SOL    HW136328   2.874   1.767   0.136 -3.5899 -0.8432 -3.6947
10804SOL    HW236329   2.770   1.766   0.246  0.2912  0.3084  0.2331
10805SOL     OW36330   5.577   4.553   9.645  0.2440 -0.4457  0.0176
10805SOL    HW136331   5.613   4.475   9.603  0.3604 -0.5763  0.3560
10805SOL    HW236332   5.627   4.562   9.726 -1.3515 -1.3849  1.1430
10806SOL     OW36333   8.530   4.134   1.506  0.0566 -1.0964 -0.3163
10806SOL    HW136334   8.530   4.202   1.574 -1.4028 -0.2086 -1.1451
10806SOL    HW236335   8.607   4.080   1.526 -0.2307 -0.7726  1.9214
10807SOL     OW36336   7.580   3.574   1.761  0.4475  0.0583  0.4789
10807SOL    HW136337   7.574   3.495   1.707 -0.8635  0.4578  0.0050
10807SOL    HW236338   7.599   3.644   1.698 -1.7422  0.6310  0.3959
10808SOL     OW36339   1.864   0.530   1.173 -0.6457 -0.5644 -0.0141
10808SOL    HW136340   1.945   0.480   1.163 -0.4879 -0.7941  1.9890
10808SOL    HW236341   1.878   0.581   1.254 -1.3018  1.7625 -1.2793
10809SOL     OW36342   7.241   6.340   1.631 -0.3515 -0.3272 -0.3623
10809SOL    HW136343   7.280   6.303   1.552  0.3475 -0.6864  0.1421
10809SOL    HW236344   7.147   6.343   1.612 -0.1527 -0.0411 -1.3496
10810SOL     OW36345   6.492   1.962   8.120 -0.2845  0.1955 -0.2521
10810SOL    HW136346   6.567   1.987   8.066 -1.2094 -0.4212 -1.8879
10810SOL    HW236347   6.524   1.891   8.175  0.5674  0.5668 -0.2510
10811SOL     OW36348   1.042   7.738   2.281  0.3923  0.2795 -0.8049
10811SOL    HW136349   1.130   7.775   2.273  0.0658  1.2194 -0.2858
10811SOL    HW236350   1.054   7.645   2.266  1.8619  0.0198  1.4458
10812SOL     OW36351   6.002   1.376   5.995 -0.7042  0.0412  0.2789
10812SOL    HW136352   5.978   1.436   6.066 -1.3945  0.6124 -0.4167
10812SOL    HW236353   6.061   1.313   6.036 -1.3790  0.1385  1.4442
10813SOL     OW36354   4.125   3.151   7.695  0.7703 -0.0003  0.0076
10813SOL    HW136355   4.135   3.083   7.628  0.5453 -0.2473  0.2216
10813SOL    HW236356   4.211   3.155   7.737  0.9617  0.2676 -0.3947
10814SOL     OW36357   0.491   8.466   2.256 -0.0338 -0.1030 -0.0568
10814SOL    HW136358   0.564   8.526   2.242  0.3224 -0.6520 -0.6507
10814SOL    HW236359   0.414   8.513   2.224  0.0569  0.4653  0.5435
10815SOL     OW36360   5.005   8.518   4.693 -0.8746  0.0985 -0.3802
10815SOL    HW136361   5.018   8.593   4.752 -1.5545  1.3707 -1.7866
10815SOL    HW236362   5.093   8.497   4.661 -0.4320 -0.8620  1.3081
10816SOL     OW36363   2.682   1.065   1.736  0.0784 -0.2667  0.3768
10816SOL    HW136364   2.652   1.052   1.826  1.2508 -1.2275  0.6375
10816SOL    HW236365   2.611   1.029   1.682 -0.1399 -0.6831  0.9317
10817SOL     OW36366   8.023   3.586   3.235 -0.6787  0.5735  0.2515
10817SOL    HW136367   7.935   3.566   3.203 -0.5002  0.7207 -0.3386
10817SOL    HW236368   8.028   3.544   3.321 -1.4269  0.8201  0.4156
10818SOL     OW36369   9.932   9.439   3.430  0.4597 -0.7771  0.7137
10818SOL    HW136370  10.005   9.437   3.492  0.0344 -0.5921  1.2368
10818SOL    HW236371   9.865   9.382   3.470 -0.0361 -0.2061  0.7120
10819SOL     OW36372   3.142   6.830   6.034 -0.0702 -0.2136 -0.2035
10819SOL    HW136373   3.208   6.899   6.039 -1.7029  1.4516 -0.4522
10819SOL    HW236374   3.135   6.810   5.941 -0.2770 -0.0095 -0.2325
10820SOL     OW36375   2.971   1.419   2.077 -0.1205 -0.1032 -0.0762
10820SOL    HW136376   2.929   1.335   2.060 -1.6151  0.3483  1.1223
10820SOL    HW236377   3.032   1.402   2.149 -1.6250  0.1222  1.3043
10821SOL     OW36378   3.451   2.249   7.763 -0.2616 -0.2749 -0.0207
10821SOL    HW136379   3.474   2.338   7.788 -0.3225 -0.7755  1.9888
10821SOL    HW236380   3.402   2.259   7.681  0.2953  1.4484 -0.1897
10822SOL     OW36381   8.910   9.809   7.630 -0.0799 -0.5447  0.3094
10822SOL    HW136382   8.868   9.837   7.711 -1.7973 -0.4006 -0.5843
10822SOL    HW236383   8.926   9.715   7.643 -1.8009 -0.8738  0.2406
10823SOL     OW36384   1.710   0.271   6.367 -0.2795  0.2631  0.0827
10823SOL    HW136385   1.752   0.277   6.281 -0.5490  0.0512 -0.0651
10823SOL    HW236386   1.745   0.190   6.405  0.0273  0.4822  0.2778
10824SOL     OW36387   4.287   1.628   6.159 -0.4241  0.5087 -0.0022
10824SOL    HW136388   4.288   1.533   6.166  0.3924  0.4014 -1.3085
10824SOL    HW236389   4.273   1.658   6.249  0.7785 -0.8294  0.6779
10825SOL     OW36390   1.532   5.651   7.954 -0.2244  0.4722 -0.0290
10825SOL    HW136391   1.491   5.688   7.876  0.4956  3.5976  0.9302
10825SOL    HW236392   1.622   5.683   7.951 -0.1260  0.4841  1.9450
10826SOL     OW36393   8.187   7.755   3.844  0.1398  0.7363 -0.0271
10826SOL    HW136394   8.275   7.792   3.838 -0.9193  4.0655  2.1059
10826SOL    HW236395   8.133   7.812   3.789 -1.0008  0.0424  0.3320
10827SOL     OW36396   9.249   7.378   4.538 -0.5242  0.5516 -0.6253
10827SOL    HW136397   9.279   7.469   4.546 -1.5749  0.9260 -0.7988
10827SOL    HW236398   9.325   7.325   4.565 -0.4101  1.5031  1.0914
10828SOL     OW36399   4.637   1.834   6.911  0.9497 -0.2633  0.3034
10828SOL    HW136400   4.649   1.926   6.890  2.5699 -0.2634  1.0954
10828SOL    HW236401   4.551   1.812   6.875  0.5829  1.5181  0.0159
10829SOL     OW36402   7.457   6.790   5.208 -0.3986  0.1912  0.0022
10829SOL    HW136403   7.372   6.832   5.196 -0.1824  0.3482 -1.1788
10829SOL    HW236404   7.448   6.737   5.287 -0.5323  2.8376  1.8902
10830SOL     OW36405   5.421   9.107   4.956  0.9620 -0.0067 -0.0754
10830SOL    HW136406   5.363   9.177   4.927  1.6966  0.1870 -1.1346
10830SOL    HW236407   5.363   9.033   4.971  0.1129  0.9245  1.4942
10831SOL     OW36408   2.609   9.329   4.157 -0.3918  0.5142 -0.0053
10831SOL    HW136409   2.696   9.369   4.157  0.3656 -1.0354  0.8292
10831SOL    HW236410   2.614   9.261   4.089 -0.1002 -1.2102  1.6663
10832SOL     OW36411   4.371   2.157   4.111 -0.3155 -0.2486  0.2739
10832SOL    HW136412   4.360   2.251   4.128 -0.9902  0.0534 -1.6341
10832SOL    HW236413   4.313   2.114   4.173 -2.0805  0.7486 -0.6128
10833SOL     OW36414   9.983   7.804   3.777 -0.6340  0.2034 -0.3101
10833SOL    HW136415   9.952   7.837   3.693 -1.6395  1.3608  0.4922
10833SOL    HW236416  10.050   7.866   3.804  0.6246 -0.8719 -0.8139
10834SOL     OW36417   3.061   3.061   9.601 -0.0279 -0.1272 -0.1999
10834SOL    HW136418   3.134   3.105   9.646  0.3159 -0.4980 -0.3952
10834SOL    HW236419   3.078   2.968   9.613 -1.6662 -0.2441  1.7054
10835SOL     OW36420   4.504   5.442   2.595 -0.6879  0.4014 -0.4315
10835SOL    HW136421   4.491   5.527   2.638  0.7119  0.0377  0.7619
10835SOL    HW236422   4.591   5.414   2.621 -0.8326 -1.0900 -1.4050
10836SOL     OW36423   0.934   8.380   6.233 -0.2645  0.3622 -0.4432
10836SOL    HW136424   0.846   8.353   6.256  0.0489  0.6161  1.1404
10836SOL    HW236425   0.957   8.447   6.297  0.6953  1.0757 -1.4774
10837SOL     OW36426   2.291   1.143   7.248  0.2669  0.1517  0.5631
10837SOL    HW136427   2.348   1.213   7.215  1.4348 -0.6599  0.7967
10837SOL    HW236428   2.295   1.152   7.344 -0.1244  0.1805  0.5786
10838SOL     OW36429   5.996   6.558   2.975  0.4203  0.2075  0.3624
10838SOL    HW136430   6.043   6.481   3.007  0.8786  0.4158  0.1980
10838SOL    HW236431   5.966   6.534   2.888  0.0912  0.0187  0.5291
10839SOL     OW36432   8.956   2.045   3.492  0.2487 -0.6306 -0.0454
10839SOL    HW136433   8.930   2.137   3.480  0.9180 -0.5484 -0.9795
10839SOL    HW236434   8.969   2.012   3.404  2.7953 -0.8033  0.3183
10840SOL     OW36435   9.486   0.566   1.408 -0.3250 -0.0129 -0.0053
10840SOL    HW136436   9.561   0.523   1.448 -0.2936 -0.8197 -0.9133
10840SOL    HW236437   9.515   0.656   1.394  0.1631 -0.0969  0.4423
10841SOL     OW36438   9.218   0.732   8.202 -0.2762 -0.2723 -0.1350
10841SOL    HW136439   9.278   0.725   8.277  0.4972  0.7439 -0.6399
10841SOL    HW236440   9.176   0.646   8.197  0.7104 -0.8166  0.5943
10842SOL     OW36441   4.426   3.968   4.447  0.0769  0.1948  0.4094
10842SOL    HW136442   4.345   3.931   4.482  1.2154 -0.6170  2.3311
10842SOL    HW236443   4.476   3.892   4.416  0.3922  0.6212 -0.1499
10843SOL     OW36444   7.141   8.976   8.590  0.3911  1.0257  0.0115
10843SOL    HW136445   7.139   8.898   8.646 -0.7610  0.8658 -0.2364
10843SOL    HW236446   7.051   9.007   8.588  0.2637  0.6774 -2.2187
10844SOL     OW36447   3.150   8.184   6.191 -0.1694 -0.3884  0.5277
10844SOL    HW136448   3.144   8.091   6.213  0.4248 -0.4820  0.3035
10844SOL    HW236449   3.061   8.217   6.204 -0.9927 -1.5234 -1.7755
10845SOL     OW36450   1.063   5.935   9.466 -0.2906  0.0480  0.0909
10845SOL    HW136451   1.086   5.971   9.551  0.1307  2.6931 -1.0427
10845SOL    HW236452   1.123   5.978   9.405 -0.0955 -2.2899 -1.5119
10846SOL     OW36453   4.348   6.681   7.012  0.5004 -0.2373  0.0477
10846SOL    HW136454   4.349   6.776   7.022  0.6019 -0.4444  2.7469
10846SOL    HW236455   4.259   6.655   7.037 -0.2748 -0.7649 -2.8408
10847SOL     OW36456   8.738   7.753   1.979 -0.4460  0.1376 -0.7453
10847SOL    HW136457   8.731   7.755   2.074 -0.1547  2.3915 -0.7236
10847SOL    HW236458   8.831   7.771   1.962 -0.7274  0.9458 -1.4694
10848SOL     OW36459   0.343   5.467   1.895 -0.3202  0.6351  0.0062
10848SOL    HW136460   0.422   5.422   1.925  0.4202  1.8036 -0.1367
10848SOL    HW236461   0.271   5.412   1.926  0.5413 -0.4074  0.2103
10849SOL     OW36462  10.187   3.510   1.743 -0.2982 -0.7635  0.1957
10849SOL    HW136463  10.202   3.455   1.666 -1.8898 -0.8156 -0.1016
10849SOL    HW236464  10.153   3.449   1.809 -0.2018 -0.4839  0.5029
10850SOL     OW36465   7.999   6.114   8.697  0.0626  1.0801 -0.1265
10850SOL    HW136466   7.999   6.127   8.792  0.1992 -0.4800  0.1070
10850SOL    HW236467   7.910   6.087   8.676 -0.1118  1.9321 -0.5432
10851SOL     OW36468   0.932   8.405   5.818  0.0822 -0.5101 -0.4198
10851SOL    HW136469   0.903   8.319   5.850 -1.7802  0.0894 -0.3835
10851SOL    HW236470   0.880   8.420   5.739  0.2140  0.6804 -0.2954
10852SOL     OW36471   6.301   7.054   1.048 -0.3404  0.4369 -0.1742
10852SOL    HW136472   6.234   7.055   0.979 -1.7054 -1.0129  1.0296
10852SOL    HW236473   6.281   7.130   1.102 -1.0381  0.0334  0.1577
10853SOL     OW36474   9.138   8.200   1.444 -0.0372  0.8285  0.0807
10853SOL    HW136475   9.086   8.172   1.519  0.2927  1.4095  0.5456
10853SOL    HW236476   9.121   8.135   1.376  0.4110 -0.2625  0.9796
10854SOL     OW36477   8.535   8.486   5.353  0.2901 -0.3491  0.3178
10854SOL    HW136478   8.474   8.419   5.383 -0.5518  0.5128  0.5654
10854SOL    HW236479   8.515   8.562   5.406  0.5434  0.4140 -0.6566
10855SOL     OW36480   4.994   5.403   1.826  0.4525 -0.3875 -0.1904
10855SOL    HW136481   4.962   5.479   1.778 -0.8848 -0.9263 -0.2085
10855SOL    HW236482   4.992   5.430   1.918  1.2083  0.0207 -0.2941
10856SOL     OW36483   2.842   3.915   5.056  0.0559 -0.6321  0.2148
10856SOL    HW136484   2.841   4.008   5.032 -0.9328 -0.3941  1.0970
10856SOL    HW236485   2.806   3.870   4.980  1.8401 -0.4799 -0.7913
10857SOL     OW36486   6.865   0.188   5.851 -0.5548  0.3712 -0.6056
10857SOL    HW136487   6.847   0.267   5.800  2.4646  0.3175 -1.9782
10857SOL    HW236488   6.912   0.219   5.928  2.0834 -0.0558 -1.9209
10858SOL     OW36489   8.529   4.799   3.655  0.0780  0.1770 -0.5504
10858SOL    HW136490   8.569   4.747   3.724 -2.3818  1.3893  1.9526
10858SOL    HW236491   8.450   4.751   3.630 -1.1084  1.5854  0.3240
10859SOL     OW36492   2.391   3.148   1.009 -0.9842 -0.0997 -0.1420
10859SOL    HW136493   2.365   3.067   0.966 -0.4811  0.1145 -0.8797
10859SOL    HW236494   2.347   3.217   0.958 -0.7857  0.1339  0.0009
10860SOL     OW36495   2.053   6.891   9.988  0.1046 -0.1550  0.7576
10860SOL    HW136496   2.118   6.821   9.998 -0.0978 -0.5342 -0.4250
10860SOL    HW236497   1.986   6.870  10.053  0.5738 -0.4400  1.1596
10861SOL     OW36498   5.174   0.129   4.066  0.2945 -0.3291  0.2921
10861SOL    HW136499   5.238   0.134   4.137 -0.5864  4.1775  1.0692
10861SOL    HW236500   5.223   0.149   3.987  0.4585 -0.5760  0.3311
10862SOL     OW36501   3.755   4.384   8.705 -0.2613  0.3319  0.2381
10862SOL    HW136502   3.803   4.379   8.621  0.8600 -0.4939  0.8993
10862SOL    HW236503   3.720   4.473   8.707  2.1484  1.3602  0.1566
10863SOL     OW36504   3.614   0.804   2.351  0.6841 -0.2358 -0.7429
10863SOL    HW136505   3.635   0.852   2.431  2.1439 -0.8045 -0.7527
10863SOL    HW236506   3.582   0.871   2.290 -2.6838 -0.0626  0.9523
10864SOL     OW36507   8.203   3.744   0.687 -0.1070  0.1654 -0.1894
10864SOL    HW136508   8.265   3.771   0.756 -0.8557 -0.1923  0.6388
10864SOL    HW236509   8.258   3.702   0.621  0.7134  1.0964 -0.1313
10865SOL     OW36510   5.926   7.191   8.769  0.1240  0.0059  0.8260
10865SOL    HW136511   5.844   7.152   8.799 -0.2032 -1.5276 -1.7278
10865SOL    HW236512   5.902   7.278   8.740 -0.8982 -0.7727 -0.8255
10866SOL     OW36513   7.144   1.125   0.239 -0.2194 -0.4290 -0.0067
10866SOL    HW136514   7.172   1.034   0.234 -0.1122 -0.3431 -1.3938
10866SOL    HW236515   7.095   1.131   0.321  0.4121 -1.5422  0.4723
10867SOL     OW36516   2.502   7.262   1.749 -0.1574 -0.0127 -0.0676
10867SOL    HW136517   2.593   7.246   1.725 -0.3096 -2.5796  0.7974
10867SOL    HW236518   2.507   7.299   1.837  0.0572 -0.5785  0.1645
10868SOL     OW36519   8.981   9.092   3.254 -0.0872  0.9851 -0.3401
10868SOL    HW136520   9.059   9.080   3.308 -0.1339  0.9504 -0.2801
10868SOL    HW236521   8.925   9.018   3.277  0.6990 -0.1503 -1.8484
10869SOL     OW36522   2.093   4.033   1.719 -0.1830  0.1344  0.0673
10869SOL    HW136523   2.005   4.058   1.745 -0.5701  0.6532 -1.5979
10869SOL    HW236524   2.086   4.017   1.624  1.5620  0.4543 -0.1442
10870SOL     OW36525   1.734   7.098   5.730  0.0185 -0.5060 -0.4526
10870SOL    HW136526   1.686   7.041   5.790  0.1393 -0.3325 -0.1886
10870SOL    HW236527   1.667   7.132   5.670 -1.1809  3.4288  2.6763
10871SOL     OW36528   4.465   7.747   7.266  0.1053 -0.7547 -0.3625
10871SOL    HW136529   4.542   7.802   7.253  0.0740 -0.3586  0.9168
10871SOL    HW236530   4.391   7.808   7.257  0.0625 -0.5971  0.8694
10872SOL     OW36531   6.110   4.360   2.590 -0.2357 -0.6238  0.0086
10872SOL    HW136532   6.062   4.302   2.531  1.5680 -0.8757 -1.2969
10872SOL    HW236533   6.043   4.402   2.643 -1.7110 -2.7136 -0.0948
10873SOL     OW36534   9.799   2.706   2.438  0.0999  0.0970 -0.2072
10873SOL    HW136535   9.774   2.617   2.463 -1.8274  0.0648 -1.9753
10873SOL    HW236536   9.841   2.696   2.353  1.9626  0.7121  0.5787
10874SOL     OW36537   7.733   0.467   5.476 -0.4119  0.1080 -0.1417
10874SOL    HW136538   7.651   0.495   5.516  0.4213  0.5196  1.3564
10874SOL    HW236539   7.706   0.415   5.399 -2.0921 -0.8306  1.0111
10875SOL     OW36540   7.052   7.347   8.187 -0.3326 -0.1752  0.9561
10875SOL    HW136541   7.022   7.258   8.203  0.9082 -0.7335  0.3244
10875SOL    HW236542   7.099   7.372   8.266 -1.3644  0.2302  1.4494
10876SOL     OW36543   9.082   8.765   9.712 -0.2879 -0.2773 -0.2152
10876SOL    HW136544   9.175   8.743   9.716 -0.0900  0.1855 -1.7933
10876SOL    HW236545   9.069   8.828   9.784  0.1502 -1.8436  1.2893
10877SOL     OW36546   9.510   5.071   5.045  0.3385  0.2393 -0.4542
10877SOL    HW136547   9.417   5.090   5.040  0.0637 -1.2949 -2.2592
10877SOL    HW236548   9.549   5.122   4.974  1.0974  1.7601  0.9844
10878SOL     OW36549   8.422   0.931   5.738  0.9814  0.0205  0.2864
10878SOL    HW136550   8.384   0.892   5.660 -0.0321  0.1354  0.7070
10878SOL    HW236551   8.352   0.985   5.775  1.9079  1.1378  0.4753
10879SOL     OW36552   6.414   1.313  10.069 -0.4997 -0.6427 -0.1798
10879SOL    HW136553   6.342   1.338  10.127  0.0028 -0.5247  0.4045
10879SOL    HW236554   6.375   1.315   9.982 -0.5320  2.1787 -0.2044
10880SOL     OW36555   2.101   8.244   1.956  0.5809  0.0167  0.2627
10880SOL    HW136556   2.177   8.190   1.936 -0.3048 -0.8094 -1.0832
10880SOL    HW236557   2.042   8.231   1.881 -0.9548  0.4864  1.3286
10881SOL     OW36558   4.055   2.486   4.090  0.1207 -0.0579 -0.5207
10881SOL    HW136559   4.024   2.556   4.148  1.0532  1.2556 -1.5238
10881SOL    HW236560   4.129   2.447   4.136  1.4442  1.5784 -1.1118
10882SOL     OW36561   9.011   5.484   4.360 -0.3860 -0.6612 -0.0138
10882SOL    HW136562   9.049   5.401   4.332  0.2463 -0.4802  0.2964
10882SOL    HW236563   9.075   5.550   4.333 -0.7343 -0.3026  0.0274
10883SOL     OW36564   2.219   8.576   4.297 -0.2794  0.0352  0.0436
10883SOL    HW136565   2.217   8.621   4.382  0.5550 -0.1173  0.1509
10883SOL    HW236566   2.205   8.484   4.318  3.5596 -0.6011  0.4838
10884SOL     OW36567   0.789   7.821   2.214  0.5754  0.5229 -0.1526
10884SOL    HW136568   0.790   7.913   2.188  1.4804  0.8077  0.8535
10884SOL    HW236569   0.878   7.802   2.243  0.2345 -0.4764  0.3046
10885SOL     OW36570  10.082   0.212   2.175 -0.4315 -0.1568 -0.2698
10885SOL    HW136571  10.082   0.164   2.092 -1.0684  0.4918 -0.6560
10885SOL    HW236572  10.110   0.300   2.151 -0.7786  0.0767  0.1813
10886SOL     OW36573   6.851   0.282   1.827 -0.2486  0.1905 -0.2548
10886SOL    HW136574   6.840   0.336   1.905  1.1468 -1.7543  1.4053
10886SOL    HW236575   6.820   0.196   1.853  1.7942 -0.9269 -1.2309
10887SOL     OW36576   6.696   1.029   2.307 -0.1676 -0.2257 -0.3166
10887SOL    HW136577   6.630   0.965   2.335  1.4061 -2.1555 -0.7870
10887SOL    HW236578   6.725   0.997   2.221  1.5756  0.3962 -0.0005
10888SOL     OW36579   9.836   4.965   3.158 -0.4904  0.3554 -0.6554
10888SOL    HW136580   9.781   4.899   3.200 -1.0994  1.6172  0.6361
10888SOL    HW236581   9.903   4.915   3.112 -0.3834 -1.1490  1.0171
10889SOL     OW36582   1.352   0.795   0.186  0.0797 -0.3609  0.1925
10889SOL    HW136583   1.430   0.849   0.183 -0.2644  0.1519  0.2706
10889SOL    HW236584   1.298   0.826   0.114 -0.4241 -0.1172  0.6626
10890SOL     OW36585   0.926   8.710   0.818  0.2436  0.5314 -0.3401
10890SOL    HW136586   0.904   8.803   0.820  0.6895  0.6151  0.9547
10890SOL    HW236587   0.854   8.667   0.866 -0.2928  0.1144 -1.4611
10891SOL     OW36588   2.959   2.758   1.191  0.0866  0.4576 -0.0192
10891SOL    HW136589   2.887   2.717   1.142  0.1783 -0.1486  0.3445
10891SOL    HW236590   2.990   2.689   1.250 -0.0583  1.1930  0.9378
10892SOL     OW36591   1.723   2.866   4.762  0.2302 -0.0330  0.1578
10892SOL    HW136592   1.664   2.791   4.763  1.6528 -1.1828  0.9725
10892SOL    HW236593   1.717   2.901   4.851 -0.3088  0.7531 -0.1749
10893SOL     OW36594   9.749   5.560   4.521  0.1186 -0.6799  0.0305
10893SOL    HW136595   9.817   5.584   4.459 -0.0035 -0.5331 -0.0463
10893SOL    HW236596   9.782   5.588   4.606  0.4865 -1.2883  0.0964
10894SOL     OW36597   3.576   4.071   2.803 -0.4041  0.4426  0.1658
10894SOL    HW136598   3.502   4.110   2.755  1.2829  0.4087 -2.7164
10894SOL    HW236599   3.536   4.028   2.878 -3.5213 -0.7458 -1.9600
10895SOL     OW36600   6.007   4.259   8.039  0.1023 -0.4430  0.0113
10895SOL    HW136601   5.935   4.255   8.102  0.0135 -0.4967 -0.0943
10895SOL    HW236602   6.075   4.203   8.077  0.1714 -0.2240  0.2152
10896SOL     OW36603   6.608   2.326   2.456 -0.1289 -0.0946  0.3378
10896SOL    HW136604   6.603   2.415   2.423  2.1534 -0.0997 -0.1656
10896SOL    HW236605   6.639   2.335   2.546  0.2971 -0.3681  0.2249
10897SOL     OW36606   2.483   6.096   6.384 -0.8180 -0.0137 -0.1468
10897SOL    HW136607   2.537   6.017   6.379  0.9462  1.0359  1.1932
10897SOL    HW236608   2.491   6.136   6.297  0.8782  0.2855  0.1217
10898SOL     OW36609   5.930   8.843   8.956 -0.2357  0.3983  0.4202
10898SOL    HW136610   5.845   8.885   8.972 -0.0336  1.0054 -0.0373
10898SOL    HW236611   5.993   8.915   8.960  0.0775  0.2171 -0.7506
10899SOL     OW36612   3.380   5.453   3.732 -0.4357 -0.2351 -0.0611
10899SOL    HW136613   3.298   5.408   3.711 -2.2919  1.7521  2.4290
10899SOL    HW236614   3.390   5.518   3.663 -0.0521 -1.5035 -1.2467
10900SOL     OW36615  10.024   7.533   3.829  0.7633  0.3202 -0.8717
10900SOL    HW136616  10.119   7.529   3.821  0.7518  1.5750 -2.1899
10900SOL    HW236617  10.002   7.624   3.808 -0.7505 -0.0212 -0.8971
10901SOL     OW36618   8.018   8.905   2.966  1.1103 -0.2382  0.1713
10901SOL    HW136619   8.025   8.948   3.052 -0.9052  1.8600 -0.6378
10901SOL    HW236620   7.981   8.819   2.986  0.6577  0.2126  1.4123
10902SOL     OW36621   3.840   7.288   1.335 -0.4734 -0.2018 -0.0300
10902SOL    HW136622   3.822   7.218   1.272  0.1743  1.2914 -1.9748
10902SOL    HW236623   3.775   7.356   1.315 -0.5406  0.1267  1.2279
10903SOL     OW36624   2.800   5.282   1.516  0.8872 -0.5142 -0.0258
10903SOL    HW136625   2.884   5.323   1.536  0.6698 -0.3123  0.4776
10903SOL    HW236626   2.736   5.353   1.523  0.5051 -0.9326  0.8785
10904SOL     OW36627   6.847   1.366   6.928 -0.1906 -0.4106 -0.4690
10904SOL    HW136628   6.895   1.295   6.970 -1.7624 -0.9011  0.5550
10904SOL    HW236629   6.870   1.444   6.980 -0.1405 -0.5598 -0.2652
10905SOL     OW36630   4.660   3.137   9.260  0.0995  0.3184 -0.3208
10905SOL    HW136631   4.673   3.179   9.345  0.4163 -0.3076 -0.0503
10905SOL    HW236632   4.658   3.043   9.280 -1.4743  0.2247 -0.7958
10906SOL     OW36633   1.482   1.175   2.116 -0.6255  0.6026 -0.1644
10906SOL    HW136634   1.444   1.097   2.157 -1.7814  0.8461 -0.7225
10906SOL    HW236635   1.565   1.189   2.162 -1.1081 -0.0887  0.9518
10907SOL     OW36636   3.702   7.730   6.806 -0.2404 -0.2122  0.0376
10907SOL    HW136637   3.613   7.743   6.839  0.3999  1.3835  1.2645
10907SOL    HW236638   3.705   7.780   6.725 -0.5320 -0.5385 -0.1828
10908SOL     OW36639   6.087   2.987   6.353  0.1939  0.7575  0.0870
10908SOL    HW136640   6.138   3.067   6.348 -0.2086  0.9393 -1.4409
10908SOL    HW236641   5.996   3.016   6.342 -0.1281  0.2776  1.3071
10909SOL     OW36642   1.260   3.645  10.039 -0.1187 -0.2907 -0.3261
10909SOL    HW136643   1.299   3.633  10.125 -0.5938 -0.7837 -0.1686
10909SOL    HW236644   1.304   3.721  10.002  0.4064 -0.3527  0.1686
10910SOL     OW36645   0.790   8.375   0.889 -0.1108  0.3154  0.2247
10910SOL    HW136646   0.752   8.460   0.910 -0.0325 -0.3287  3.7336
10910SOL    HW236647   0.847   8.356   0.964  2.4559 -1.4125 -1.9948
10911SOL     OW36648   5.227   4.810   1.809  0.3994  0.1683 -0.1079
10911SOL    HW136649   5.297   4.837   1.748  0.4624  1.6019  0.5590
10911SOL    HW236650   5.273   4.766   1.880  0.2700 -2.1302 -1.3561
10912SOL     OW36651   4.247   2.199   8.645 -0.1554 -0.0038  0.2815
10912SOL    HW136652   4.250   2.172   8.554 -0.1438  0.2003  0.2214
10912SOL    HW236653   4.331   2.169   8.682 -0.6512 -1.1461  0.5266
10913SOL     OW36654   3.730   2.839   0.599  0.6227  0.4532  0.0649
10913SOL    HW136655   3.693   2.920   0.563  0.4941  0.5798  0.4732
10913SOL    HW236656   3.809   2.867   0.645  1.1668  0.1990 -0.6984
10914SOL     OW36657   3.651   7.187   1.946  0.3801 -0.4214 -0.5455
10914SOL    HW136658   3.733   7.229   1.972  0.6858 -1.8123  0.9206
10914SOL    HW236659   3.630   7.226   1.861  2.2284  0.4155 -0.6725
10915SOL     OW36660   4.842   0.471   7.592 -0.4992 -0.7948  0.0650
10915SOL    HW136661   4.784   0.508   7.658  0.8483  2.9551 -0.5933
10915SOL    HW236662   4.927   0.466   7.634 -0.2704 -1.4131 -0.4575
10916SOL     OW36663   2.656   8.249   3.525  0.4261 -0.1001  0.2192
10916SOL    HW136664   2.585   8.311   3.543  0.4696 -0.0154  0.0981
10916SOL    HW236665   2.684   8.219   3.612  2.4343  2.3031  0.5138
10917SOL     OW36666   1.219   3.727   6.899  0.0352 -0.3435  0.0558
10917SOL    HW136667   1.266   3.643   6.904 -0.8310 -0.8605 -0.1564
10917SOL    HW236668   1.285   3.793   6.917  0.6620 -1.1034  0.6348
10918SOL     OW36669   4.628   9.964   7.770  0.0780  0.2908 -0.0721
10918SOL    HW136670   4.643   9.899   7.701  0.0230 -0.7359  0.8669
10918SOL    HW236671   4.584  10.036   7.725 -0.4312 -0.5815 -1.0087
10919SOL     OW36672   3.288   9.965   8.818 -0.4059 -0.0055  0.6433
10919SOL    HW136673   3.330   9.887   8.855 -0.8112 -0.1819  0.7417
10919SOL    HW236674   3.263   9.938   8.729  0.3205  0.3280  0.3325
10920SOL     OW36675   5.654   9.939   5.948  0.3454 -0.8539 -0.0388
10920SOL    HW136676   5.566   9.970   5.969  0.7084  0.9001 -1.0007
10920SOL    HW236677   5.651   9.917   5.855  0.9702 -0.6331 -0.1150
10921SOL     OW36678   2.354   5.160   0.956 -0.0824  0.1192  0.4294
10921SOL    HW136679   2.447   5.171   0.976 -0.0026  0.0495  0.0937
10921SOL    HW236680   2.324   5.093   1.017 -0.0234  0.4736  0.8597
10922SOL     OW36681   9.459   3.235   1.179  0.1255  0.2448 -0.0556
10922SOL    HW136682   9.421   3.317   1.148  2.8849  1.6628  0.0091
10922SOL    HW236683   9.435   3.171   1.112 -1.2865  1.3083 -0.6150
10923SOL     OW36684   4.652   0.214   0.327  0.2549 -0.5166 -0.4059
10923SOL    HW136685   4.624   0.293   0.281  0.6606 -0.0080  0.1978
10923SOL    HW236686   4.738   0.193   0.289  0.8914  0.2835  0.5491
10924SOL     OW36687   3.509   1.845   7.561  0.5664  0.2061  0.1014
10924SOL    HW136688   3.507   1.751   7.542 -2.0548  0.4654 -1.5574
10924SOL    HW236689   3.598   1.872   7.540  0.7831 -1.5609 -1.5570
10925SOL     OW36690   4.030   2.953   4.102 -0.0280  0.0609 -0.0472
10925SOL    HW136691   4.053   2.939   4.010 -0.4860  0.3446 -0.2074
10925SOL    HW236692   4.076   3.034   4.126  0.5368 -0.3089  0.1358
10926SOL     OW36693   0.500   4.575   5.277  0.4135  0.3507 -0.2256
10926SOL    HW136694   0.520   4.629   5.200  0.2979  0.3017 -0.2892
10926SOL    HW236695   0.454   4.634   5.336 -1.1839 -0.1056 -0.9704
10927SOL     OW36696   4.923   1.229   8.603  0.2780 -0.5058  0.3052
10927SOL    HW136697   4.842   1.178   8.604 -0.8212  1.1717  0.0034
10927SOL    HW236698   4.985   1.174   8.555 -1.3883 -0.7882 -1.6558
10928SOL     OW36699   7.769   0.825   7.089 -0.2962 -0.4428 -0.0709
10928SOL    HW136700   7.803   0.740   7.062  0.4612  0.2967 -1.6006
10928SOL    HW236701   7.681   0.829   7.050  0.6311  0.4469 -2.2648
10929SOL     OW36702   9.731   0.279   2.677 -0.0610 -0.0020  0.3689
10929SOL    HW136703   9.714   0.258   2.585  0.4359 -0.8072  0.4473
10929SOL    HW236704   9.681   0.214   2.726  1.0654 -0.7116  0.6251
10930SOL     OW36705   4.232   8.015   3.854  0.5105  0.6041 -0.5639
10930SOL    HW136706   4.205   8.044   3.767  1.6375  0.0793 -1.1103
10930SOL    HW236707   4.327   8.004   3.847  0.8237  1.7896  1.0969
10931SOL     OW36708   0.255   9.456   5.165 -0.1107  0.3328 -0.4653
10931SOL    HW136709   0.335   9.507   5.154 -1.3382  2.1500 -1.3849
10931SOL    HW236710   0.200   9.480   5.090 -1.9428 -0.0512  0.6853
10932SOL     OW36711   6.180   5.924   6.426  0.5854  0.1080 -0.5437
10932SOL    HW136712   6.211   6.013   6.405  1.0062 -0.0030 -0.4125
10932SOL    HW236713   6.253   5.868   6.402  0.4948 -0.1604 -0.1905
10933SOL     OW36714   1.835   7.573   6.970 -0.3224 -0.8879  0.3029
10933SOL    HW136715   1.859   7.488   7.009 -1.2729 -1.3868 -0.1911
10933SOL    HW236716   1.848   7.635   7.041  1.8917 -1.1928  0.2486
10934SOL     OW36717   2.560   5.788   4.013  0.3070 -0.4627 -0.2630
10934SOL    HW136718   2.484   5.799   3.958  0.6896  0.4878 -0.6258
10934SOL    HW236719   2.626   5.746   3.957  0.2329 -0.7962 -0.1055
10935SOL     OW36720   9.545   7.074   0.499  0.1633  0.1569  0.0507
10935SOL    HW136721   9.525   7.118   0.581  0.8253 -0.4070  0.5282
10935SOL    HW236722   9.617   7.125   0.461 -0.8986  1.1097 -0.7768
10936SOL     OW36723   6.840   2.715   8.794  0.1696  0.4768 -0.3494
10936SOL    HW136724   6.755   2.745   8.760 -0.5937 -0.6951  0.4755
10936SOL    HW236725   6.837   2.735   8.887  1.2039  1.2804 -0.4647
10937SOL     OW36726   7.260   3.391   7.679  0.2156 -0.3283  0.2047
10937SOL    HW136727   7.257   3.421   7.588 -0.1090 -0.0509  0.3043
10937SOL    HW236728   7.217   3.461   7.728  1.9636  0.3620  0.8120
10938SOL     OW36729   6.910   9.977   8.054 -0.2990 -0.4289  0.2118
10938SOL    HW136730   6.977  10.016   8.110 -1.0468  0.0251  0.8056
10938SOL    HW236731   6.879  10.049   8.000 -0.2772 -0.6517 -0.1005
10939SOL     OW36732   5.382   4.151   0.120  0.1356 -0.1290  0.1697
10939SOL    HW136733   5.428   4.202   0.053 -0.7639  1.6659  0.8421
10939SOL    HW236734   5.356   4.071   0.076  3.6440 -1.1803 -0.3176
10940SOL     OW36735   5.332   4.830   9.341  0.2803  0.4085  0.1810
10940SOL    HW136736   5.298   4.751   9.300  0.2950 -0.5917  2.0190
10940SOL    HW236737   5.309   4.900   9.280 -1.7959 -0.7006 -0.4031
10941SOL     OW36738   1.677   2.403   5.485 -0.3069 -0.1362 -0.3548
10941SOL    HW136739   1.709   2.352   5.558 -0.4322 -0.2980 -0.4116
10941SOL    HW236740   1.720   2.365   5.408  1.1217  1.0938 -0.2069
10942SOL     OW36741   4.704   4.498   8.670 -0.0296  0.1858  0.9329
10942SOL    HW136742   4.707   4.593   8.655  1.4219 -0.1282 -1.2193
10942SOL    HW236743   4.774   4.481   8.732 -0.6743  0.5560  1.7846
10943SOL     OW36744   8.236   9.171   0.148  0.5719  0.4321  0.0034
10943SOL    HW136745   8.209   9.218   0.226  1.5943  0.6248  0.2611
10943SOL    HW236746   8.331   9.184   0.144  0.5115  0.6018 -1.3860
10944SOL     OW36747   8.548   6.315   4.457  0.0978 -0.3902 -0.0207
10944SOL    HW136748   8.581   6.403   4.475 -0.9457 -0.3611  2.0889
10944SOL    HW236749   8.458   6.317   4.489 -0.6370 -1.6621 -1.8196
10945SOL     OW36750   1.767   8.968   6.319 -0.0932  0.2246  0.1592
10945SOL    HW136751   1.686   8.929   6.285 -0.7389  1.2475  0.4861
10945SOL    HW236752   1.754   8.969   6.414  1.2831 -1.7093  0.4243
10946SOL     OW36753   2.165   7.859   2.451 -0.3308  0.6070  0.0394
10946SOL    HW136754   2.164   7.954   2.459  1.7217  0.7060 -0.4987
10946SOL    HW236755   2.219   7.829   2.524 -0.2753 -0.0779 -0.2769
10947SOL     OW36756   6.217   5.973   7.867 -0.1618  0.1786 -0.1694
10947SOL    HW136757   6.262   5.961   7.951  0.9023 -0.7964 -0.8317
10947SOL    HW236758   6.201   6.067   7.861  2.5537  0.7462 -0.2155
10948SOL     OW36759   8.854   6.737   3.870  0.2821 -0.1619  0.8175
10948SOL    HW136760   8.772   6.720   3.824  1.6524 -0.5257 -1.6475
10948SOL    HW236761   8.856   6.832   3.882 -0.6243 -0.1780  1.2672
10949SOL     OW36762   8.697   7.745   7.210 -0.5323  0.5040  0.0982
10949SOL    HW136763   8.683   7.713   7.299 -0.9071  3.2595  1.1024
10949SOL    HW236764   8.620   7.715   7.161 -2.5702  2.5903  1.8191
10950SOL     OW36765   2.025   5.649   3.680  0.0595 -0.0508  0.2875
10950SOL    HW136766   2.091   5.602   3.731  2.1300  2.2030 -0.1579
10950SOL    HW236767   2.014   5.596   3.601  0.9246 -0.7583  0.6225
10951SOL     OW36768   2.529   5.024   7.607 -0.3582  0.8252  0.7856
10951SOL    HW136769   2.610   5.016   7.557 -0.3917 -0.5673  0.9063
10951SOL    HW236770   2.495   5.111   7.585  0.0794  0.6017 -0.9068
10952SOL     OW36771   3.664   2.484   6.816  0.3054 -0.3663  0.0106
10952SOL    HW136772   3.573   2.459   6.831 -0.2555  0.8974 -1.1354
10952SOL    HW236773   3.697   2.417   6.756  0.0080 -0.5949  0.0996
10953SOL     OW36774   2.490   7.851   1.425  0.2621 -0.4095  0.3989
10953SOL    HW136775   2.456   7.783   1.367 -0.2273 -1.2813  1.6410
10953SOL    HW236776   2.584   7.834   1.430  1.4023  2.7882 -4.0640
10954SOL     OW36777   4.339   1.190   5.217  0.0662 -0.2579  0.0223
10954SOL    HW136778   4.430   1.180   5.243 -0.0712  1.3063  1.2497
10954SOL    HW236779   4.341   1.182   5.121  1.7315  1.2748 -0.1206
10955SOL     OW36780   4.924   2.091   9.455  0.0223  0.4360  0.0952
10955SOL    HW136781   4.911   2.018   9.396 -0.7715 -0.5411  1.4121
10955SOL    HW236782   4.909   2.054   9.542  1.1891  1.8012  0.9152
10956SOL     OW36783   3.493   2.581   8.168 -0.4349 -0.0992  0.8944
10956SOL    HW136784   3.552   2.512   8.139  0.5179  1.2439 -0.5520
10956SOL    HW236785   3.451   2.546   8.246 -1.6812 -3.2299 -0.9857
10957SOL     OW36786   5.608   4.326   8.323 -0.6172  0.0672  0.1455
10957SOL    HW136787   5.685   4.300   8.372 -0.6265  0.3003  0.2879
10957SOL    HW236788   5.548   4.361   8.389 -0.4265  0.8552 -0.0840
10958SOL     OW36789   5.889   3.781   9.325 -0.3708 -0.1227 -0.3409
10958SOL    HW136790   5.863   3.805   9.414  0.0391  0.3244 -0.3341
10958SOL    HW236791   5.940   3.701   9.336  0.0637  0.1758 -0.1114
10959SOL     OW36792   7.715   3.841   2.122  0.1590 -0.4675 -0.4353
10959SOL    HW136793   7.739   3.762   2.172  1.2551 -0.3514 -0.7423
10959SOL    HW236794   7.666   3.807   2.047  1.9042 -1.0412 -1.3739
10960SOL     OW36795   7.675   8.133   8.703 -0.5805 -0.3524  0.4514
10960SOL    HW136796   7.632   8.181   8.632 -2.0695 -2.7001 -0.3478
10960SOL    HW236797   7.646   8.178   8.783 -1.5501  0.3637 -0.2797
10961SOL     OW36798   0.861   5.949   0.664  0.0673 -0.9805 -0.2135
10961SOL    HW136799   0.898   5.962   0.577  0.0986  1.7409  0.1267
10961SOL    HW236800   0.924   5.893   0.709  1.8705  0.4324 -0.8548
10962SOL     OW36801   6.921   9.546   5.128  0.8999  0.2411  0.0297
10962SOL    HW136802   6.875   9.570   5.208 -1.2751 -2.6259 -0.2272
10962SOL    HW236803   6.994   9.492   5.158  0.1862 -0.6903  0.1276
10963SOL     OW36804   3.347   2.829   0.849 -0.2874 -0.0763  0.4507
10963SOL    HW136805   3.362   2.893   0.918 -1.3038 -1.4024  2.0121
10963SOL    HW236806   3.255   2.804   0.860 -0.0218 -1.5193 -0.3043
10964SOL     OW36807   5.711   2.115   4.442 -0.3563  0.2140 -0.5633
10964SOL    HW136808   5.750   2.134   4.356  0.6229  1.2626  0.0903
10964SOL    HW236809   5.680   2.200   4.474  0.5580  0.0887  0.7256
10965SOL     OW36810   9.322   7.888   4.197  0.3482 -0.3448 -0.4110
10965SOL    HW136811   9.377   7.963   4.173 -1.5475  1.6032  0.9287
10965SOL    HW236812   9.262   7.878   4.123  0.3233 -0.2495 -0.4045
10966SOL     OW36813   5.480  10.116   0.468 -0.1728  0.2774  0.4563
10966SOL    HW136814   5.559  10.096   0.518 -0.4751 -1.0695  0.4478
10966SOL    HW236815   5.498  10.201   0.429  1.5760 -0.2781 -0.0915
10967SOL     OW36816   5.356   8.251   6.614 -0.3021  0.3028 -0.7033
10967SOL    HW136817   5.387   8.181   6.671 -0.5785 -1.5022 -2.6410
10967SOL    HW236818   5.417   8.323   6.629 -0.2207 -0.1702  1.6207
10968SOL     OW36819   6.564   9.823   5.912  0.5275 -0.3448  0.0611
10968SOL    HW136820   6.602   9.897   5.864 -1.4523  0.5736 -0.2059
10968SOL    HW236821   6.577   9.844   6.004 -2.4627  1.8957  0.1344
10969SOL     OW36822   6.017   6.905  10.024  0.6479  0.0596  0.1589
10969SOL    HW136823   5.972   6.947   9.951 -1.1661 -1.0073  0.5861
10969SOL    HW236824   5.948   6.888  10.088  1.7450 -1.2771  1.0531
10970SOL     OW36825   2.470   1.591   1.886 -0.3460  0.3015 -0.2622
10970SOL    HW136826   2.504   1.535   1.816  2.5158 -0.0566  1.2803
10970SOL    HW236827   2.517   1.674   1.875 -1.4866  0.9935 -0.0419
10971SOL     OW36828   0.414   5.470   9.295  0.2986 -0.4792 -0.0220
10971SOL    HW136829   0.486   5.410   9.277 -0.2011 -1.1063  0.0659
10971SOL    HW236830   0.445   5.525   9.367  0.5317 -1.0131  0.2827
10972SOL     OW36831   3.718   2.390   8.170  0.2275  0.0685 -0.2155
10972SOL    HW136832   3.772   2.321   8.209 -1.3798 -1.0116  0.2071
10972SOL    HW236833   3.780   2.459   8.147  1.5497 -0.2337  2.1113
10973SOL     OW36834   5.889   7.201   5.652 -0.2412  0.3475  0.4854
10973SOL    HW136835   5.844   7.116   5.654 -1.1704  0.8258  2.1179
10973SOL    HW236836   5.835   7.258   5.706  1.4660  1.4254  1.1496
10974SOL     OW36837   6.895   0.048   7.407 -0.3943  0.7651  0.0097
10974SOL    HW136838   6.803   0.059   7.430 -0.5444  1.8711 -0.9948
10974SOL    HW236839   6.910   0.112   7.337  1.3711  1.2506  0.7794
10975SOL     OW36840   5.689   3.636   8.144  0.5739  0.8547 -0.4051
10975SOL    HW136841   5.614   3.696   8.152  0.0088 -0.0690  1.8235
10975SOL    HW236842   5.745   3.658   8.218  0.7883 -0.7573 -0.0515
10976SOL     OW36843   9.840   3.710   6.822  0.1119  0.2326 -0.0013
10976SOL    HW136844   9.915   3.732   6.876  0.5570 -0.1825 -0.4379
10976SOL    HW236845   9.878   3.684   6.738 -0.5134 -0.1126 -0.1839
10977SOL     OW36846   4.647   3.716   9.334 -0.3425  0.5176  0.1996
10977SOL    HW136847   4.702   3.794   9.341 -2.5246  2.0459  1.4389
10977SOL    HW236848   4.565   3.741   9.375 -2.0665 -1.6015 -1.6925
10978SOL     OW36849   3.517   5.076   5.728 -0.0523 -0.4381 -0.7288
10978SOL    HW136850   3.555   5.158   5.758  0.1157 -0.1556 -1.7147
10978SOL    HW236851   3.488   5.033   5.809  0.3130  0.3525 -0.1651
10979SOL     OW36852   6.090   1.932   6.940  0.1302 -0.5508  0.5842
10979SOL    HW136853   6.100   1.838   6.925 -1.2123 -1.2351  3.4052
10979SOL    HW236854   6.013   1.955   6.889  0.4336 -0.9605 -0.0835
10980SOL     OW36855   4.173   2.058   6.815 -0.1937  0.4586 -0.5147
10980SOL    HW136856   4.239   2.114   6.855  0.0211  0.1678 -0.4583
10980SOL    HW236857   4.203   2.044   6.725 -0.1465  0.2757 -0.4708
10981SOL     OW36858   8.326   5.918   5.111 -0.9862 -0.1192 -0.1647
10981SOL    HW136859   8.374   5.998   5.129  0.3308 -0.8499 -0.3380
10981SOL    HW236860   8.237   5.948   5.092 -0.9294  1.1657  1.3364
10982SOL     OW36861   9.698   8.423   1.651  0.0929 -0.3865 -0.3996
10982SOL    HW136862   9.765   8.492   1.653  0.4547 -0.7383 -0.1804
10982SOL    HW236863   9.661   8.423   1.739  0.0541 -0.4309 -0.4161
10983SOL     OW36864   0.135   8.261   1.787  0.1857 -0.0193  0.0811
10983SOL    HW136865   0.141   8.169   1.813 -0.2882  0.1555  0.8254
10983SOL    HW236866   0.074   8.262   1.714  2.0884 -0.6165 -1.6011
10984SOL     OW36867   2.511   1.669   4.238 -0.2342 -0.3196  0.1231
10984SOL    HW136868   2.445   1.736   4.218 -0.9198 -0.8912  0.4023
10984SOL    HW236869   2.506   1.608   4.164  1.9720  1.0717 -1.2779
10985SOL     OW36870   2.591   9.280   5.871  0.3564 -0.2687  0.1094
10985SOL    HW136871   2.666   9.308   5.924 -0.0746 -0.6726  0.9558
10985SOL    HW236872   2.521   9.339   5.896 -0.1085 -1.0500  0.6999
10986SOL     OW36873   6.935   1.963   0.932  0.1195 -0.1267 -0.6863
10986SOL    HW136874   6.855   1.975   0.881  0.1239  0.9476 -0.4580
10986SOL    HW236875   6.996   2.028   0.898 -0.1203  1.1346  1.1354
10987SOL     OW36876   8.523   8.833   5.575 -0.6086  0.0552  0.0394
10987SOL    HW136877   8.577   8.787   5.640 -1.0790  0.8088  0.9877
10987SOL    HW236878   8.581   8.899   5.539 -0.5466  0.0909  0.2022
10988SOL     OW36879   0.977   4.832   0.875  0.5827 -0.1268  0.0692
10988SOL    HW136880   1.068   4.844   0.848  0.4181 -0.6279 -0.7518
10988SOL    HW236881   0.980   4.761   0.940  0.8655  0.4329  0.6842
10989SOL     OW36882   8.298   3.380   2.701  0.1877 -0.4876  0.2966
10989SOL    HW136883   8.254   3.296   2.717  1.0220 -1.0708 -0.4219
10989SOL    HW236884   8.373   3.379   2.760  0.1439 -0.1905  0.3620
10990SOL     OW36885   6.583   6.760   4.567 -0.0904 -0.3206 -0.3057
10990SOL    HW136886   6.603   6.848   4.600 -1.4419 -0.0816 -0.0819
10990SOL    HW236887   6.656   6.706   4.596 -0.5544  0.1583  1.9303
10991SOL     OW36888   9.513   0.873   9.049 -0.1397  0.6194  0.0979
10991SOL    HW136889   9.422   0.870   9.019 -0.1565 -1.5496  0.2241
10991SOL    HW236890   9.514   0.823   9.130  1.6821 -2.5619 -1.6529
10992SOL     OW36891   1.216   3.303  10.095 -0.7380 -0.1955 -0.1318
10992SOL    HW136892   1.283   3.241  10.067 -1.7042 -1.8672  1.0201
10992SOL    HW236893   1.241   3.386  10.056  3.1540 -0.2056  1.9369
10993SOL     OW36894   4.242   6.331   7.262 -0.1267  0.4864  0.3284
10993SOL    HW136895   4.312   6.268   7.283 -0.0712  0.8146  1.1727
10993SOL    HW236896   4.269   6.370   7.179 -0.5493 -1.1426 -0.6194
10994SOL     OW36897   6.621   2.353   8.373  0.0657  0.4229 -0.6916
10994SOL    HW136898   6.532   2.387   8.374 -0.4844 -0.8790 -1.7190
10994SOL    HW236899   6.669   2.409   8.433 -1.4887  1.0363  0.0350
10995SOL     OW36900   8.377   1.412   9.773  0.1041  0.3388 -0.0027
10995SOL    HW136901   8.439   1.467   9.726 -0.1818 -0.0090 -0.8068
10995SOL    HW236902   8.292   1.451   9.754  0.0042  0.3168  0.3999
10996SOL     OW36903   4.097   8.731   3.601  0.5325  0.2801  0.0003
10996SOL    HW136904   4.046   8.654   3.625  0.1478  0.5557  0.0707
10996SOL    HW236905   4.122   8.717   3.510  1.6936 -0.6082  0.4172
10997SOL     OW36906   9.927   8.981   6.385  0.2193 -0.0536 -0.1955
10997SOL    HW136907   9.955   8.979   6.477  1.3223  0.0607 -0.5172
10997SOL    HW236908   9.938   9.072   6.358  2.4307 -0.5447 -1.1645
10998SOL     OW36909   2.237   0.748   2.104  0.0754  0.1632  0.7595
10998SOL    HW136910   2.255   0.803   2.027  2.1834 -1.5686 -0.0742
10998SOL    HW236911   2.312   0.760   2.161  0.9634 -2.2731  0.2316
10999SOL     OW36912   3.298   2.764   1.881 -0.2551 -0.4299 -0.7302
10999SOL    HW136913   3.342   2.681   1.862  1.8856  0.4935 -0.1657
10999SOL    HW236914   3.345   2.829   1.828 -1.0020  0.6163 -0.1526
11000SOL     OW36915   3.407   4.966   5.159 -0.5946  0.3216 -0.0632
11000SOL    HW136916   3.449   5.051   5.173  1.4181 -0.3773 -1.3436
11000SOL    HW236917   3.447   4.934   5.078 -0.5244 -2.2793  0.9274
11001SOL     OW36918   0.740   2.997   8.836 -0.0060 -0.7945  0.0530
11001SOL    HW136919   0.829   3.025   8.817 -0.2760 -1.3329 -2.3062
11001SOL    HW236920   0.743   2.902   8.834 -0.4690 -0.8501  0.9847
11002SOL     OW36921   7.698   7.197   1.470 -0.2815 -0.4975  0.2942
11002SOL    HW136922   7.619   7.245   1.495 -0.6319 -0.8550 -0.1029
11002SOL    HW236923   7.676   7.105   1.485  0.1855 -0.5775  0.5145
11003SOL     OW36924   9.684   8.313   1.240  0.5085 -0.3455 -0.3416
11003SOL    HW136925   9.699   8.273   1.326 -1.2094 -3.1625 -1.1989
11003SOL    HW236926   9.596   8.352   1.246  0.3378 -0.6409 -0.8069
11004SOL     OW36927   4.074   2.718   2.106 -0.6610  0.3920  0.9538
11004SOL    HW136928   4.004   2.685   2.162 -0.9929  1.2186  1.0363
11004SOL    HW236929   4.131   2.767   2.166  0.7228 -1.3281  1.1420
11005SOL     OW36930   0.848  10.078   6.184 -0.1127  0.2638  0.1994
11005SOL    HW136931   0.812  10.153   6.135 -1.2632 -1.2560 -1.4297
11005SOL    HW236932   0.772  10.022   6.200  1.0807 -1.8039 -0.9727
11006SOL     OW36933   8.341   4.484   0.230  0.3120 -0.0678 -0.1007
11006SOL    HW136934   8.389   4.430   0.293  0.4776 -0.6930 -0.7440
11006SOL    HW236935   8.406   4.507   0.164 -0.0944 -0.2712 -0.5746
11007SOL     OW36936   4.904   0.494   4.498  0.0505  0.0812 -0.5058
11007SOL    HW136937   4.998   0.490   4.480 -0.0875 -0.4882 -1.1414
11007SOL    HW236938   4.865   0.527   4.417 -0.4456 -1.2392 -0.8375
11008SOL     OW36939   1.721   7.771   9.708 -0.3465  0.1179  0.0658
11008SOL    HW136940   1.756   7.857   9.733  0.2255 -0.3495  0.9059
11008SOL    HW236941   1.752   7.759   9.618  0.2047  0.4636  0.2021
11009SOL     OW36942   7.715   4.078   0.802  0.5209 -0.1607 -0.0488
11009SOL    HW136943   7.659   4.127   0.741 -1.9196  0.2515  2.3064
11009SOL    HW236944   7.654   4.044   0.868  2.4996 -3.9621  0.0567
11010SOL     OW36945  10.044   4.283   5.411 -0.6194  0.1401 -0.1856
11010SOL    HW136946  10.110   4.352   5.412 -0.2866 -0.1280  1.7982
11010SOL    HW236947  10.058   4.237   5.329 -0.6977  2.2417 -1.4687
11011SOL     OW36948   7.912   0.874   9.794  0.2335 -0.0646  0.2059
11011SOL    HW136949   7.871   0.818   9.860 -1.7518  0.4516 -0.5096
11011SOL    HW236950   7.861   0.955   9.798  1.5530  0.8260 -0.3990
11012SOL     OW36951   3.180   4.658   2.169  0.2146 -0.9802  0.3138
11012SOL    HW136952   3.187   4.581   2.225 -0.5075  0.0413  1.8907
11012SOL    HW236953   3.163   4.623   2.082 -2.4819 -2.6381  1.3613
11013SOL     OW36954   3.367   4.241   7.985 -0.6829  0.5096 -0.4823
11013SOL    HW136955   3.434   4.249   8.053  0.0814  1.7120 -1.3417
11013SOL    HW236956   3.414   4.206   7.909 -0.9129  1.7430 -1.2179
11014SOL     OW36957   3.630   6.966   2.967  0.2243 -0.7790  0.2166
11014SOL    HW136958   3.668   6.996   2.884  1.7995 -0.1320  1.1509
11014SOL    HW236959   3.557   6.910   2.940  2.4254 -2.9551 -1.6865
11015SOL     OW36960   8.394   6.498   8.634  0.3218  0.0836  0.1555
11015SOL    HW136961   8.431   6.443   8.704 -0.0504 -1.1012 -0.5596
11015SOL    HW236962   8.471   6.535   8.590  0.6262 -1.0776 -0.3069
11016SOL     OW36963   3.453   9.974   6.458 -0.1787  0.1328 -0.0266
11016SOL    HW136964   3.479   9.896   6.409 -0.6141  0.2834 -0.4933
11016SOL    HW236965   3.494   9.962   6.544  0.5811 -0.1303 -0.4129
11017SOL     OW36966   6.733   8.027   0.105  0.2454 -0.0598 -0.0254
11017SOL    HW136967   6.775   8.007   0.022 -1.8844 -0.5491 -1.0570
11017SOL    HW236968   6.698   7.944   0.136 -0.8044  0.4747  0.2782
11018SOL     OW36969   0.034   0.306   7.215 -0.3203  0.5336  0.2127
11018SOL    HW136970  -0.019   0.375   7.175 -1.7973 -0.4857  0.3534
11018SOL    HW236971   0.075   0.261   7.141 -0.4868  0.6628  0.0405
11019SOL     OW36972   5.555   7.432   3.281 -0.0902 -0.1869 -0.2481
11019SOL    HW136973   5.530   7.440   3.373  1.9447  1.3357  0.2490
11019SOL    HW236974   5.491   7.485   3.234 -1.2030 -1.0586  0.2567
11020SOL     OW36975   2.706   3.298   8.532 -0.2911  0.4528 -0.6201
11020SOL    HW136976   2.798   3.320   8.549 -0.1417 -1.2530  1.2393
11020SOL    HW236977   2.658   3.344   8.601 -0.3511 -1.7517  0.9058
11021SOL     OW36978   2.730   9.839   8.846 -0.4995 -0.0223 -0.0724
11021SOL    HW136979   2.669   9.892   8.897 -0.0367  0.2936  0.1525
11021SOL    HW236980   2.711   9.749   8.873 -1.2182  0.0220 -0.3848
11022SOL     OW36981   9.888   2.948   2.215 -0.3862 -0.2375 -0.6602
11022SOL    HW136982   9.849   2.973   2.132  0.4249  0.9386 -0.7081
11022SOL    HW236983   9.829   2.985   2.281 -0.3903 -0.1393 -0.7182
11023SOL     OW36984   8.762   8.465   3.826 -0.1573  0.1974  0.1844
11023SOL    HW136985   8.743   8.374   3.803  1.6287  0.3540 -2.3229
11023SOL    HW236986   8.748   8.514   3.745  3.0597  1.4433  0.2487
11024SOL     OW36987   1.195   5.287   3.227  0.2056  0.1285  0.5612
11024SOL    HW136988   1.162   5.199   3.244  1.7625 -0.7274 -0.5369
11024SOL    HW236989   1.117   5.340   3.211 -0.7050 -1.8611 -2.3868
11025SOL     OW36990   5.000   0.247   2.879  0.4301  0.4203 -0.5541
11025SOL    HW136991   5.023   0.278   2.791 -0.3579 -0.9121 -1.2600
11025SOL    HW236992   4.905   0.260   2.885  0.5745  1.2072  0.4191
11026SOL     OW36993   9.236  10.194   6.856 -0.2401 -0.7047 -0.0910
11026SOL    HW136994   9.241  10.098   6.855 -3.5837 -1.0089  0.6704
11026SOL    HW236995   9.245  10.217   6.949  3.2481  0.1038 -0.4708
11027SOL     OW36996   2.086   9.530   8.529 -0.4661  0.1667  0.4140
11027SOL    HW136997   2.067   9.519   8.436 -1.2539 -0.9784  0.6824
11027SOL    HW236998   2.134   9.612   8.535  0.8831 -0.4646 -1.1757
11028SOL     OW36999   3.784   3.177   2.462  0.4983 -0.4634 -0.0786
11028SOL    HW137000   3.862   3.152   2.512  0.3772  0.4377  0.5782
11028SOL    HW237001   3.815   3.181   2.371  0.8185 -1.7000 -0.0430
11029SOL     OW37002   4.499   4.919   9.037 -0.3452  0.2522 -0.1593
11029SOL    HW137003   4.542   4.843   8.998  0.1485  1.0445 -1.2234
11029SOL    HW237004   4.416   4.885   9.072 -1.7141 -0.2767 -3.5077
11030SOL     OW37005   4.725   5.305   5.032  0.5652  0.2107  0.3381
11030SOL    HW137006   4.724   5.248   4.955  0.8015  1.2462 -0.4522
11030SOL    HW237007   4.818   5.317   5.052  0.5648  1.2967 -0.2596
11031SOL     OW37008   9.944   5.871   4.608  0.4601 -0.2776  0.3201
11031SOL    HW137009   9.867   5.887   4.554 -0.1480 -0.5849  1.0806
11031SOL    HW237010  10.017   5.866   4.545  0.0330  1.0762 -0.3080
11032SOL     OW37011   3.733   7.763   8.477 -0.7811 -0.0076 -0.1166
11032SOL    HW137012   3.730   7.707   8.555 -0.9288 -0.0829 -0.1767
11032SOL    HW237013   3.769   7.706   8.409  0.7566  0.4670  0.2464
11033SOL     OW37014   4.669   4.789   8.667 -0.5131  0.4976  0.1305
11033SOL    HW137015   4.648   4.760   8.755 -1.4682 -0.2055 -0.3051
11033SOL    HW237016   4.584   4.797   8.623  0.0332 -1.3712 -1.3926
11034SOL     OW37017   4.261   6.097   4.714  0.6088  0.2188  0.6902
11034SOL    HW137018   4.352   6.127   4.711  1.0364 -0.9873  0.9792
11034SOL    HW237019   4.226   6.117   4.628  1.8010 -1.2296 -0.1775
11035SOL     OW37020   2.541   2.433   7.939  0.5722  0.0650 -0.1437
11035SOL    HW137021   2.519   2.350   7.896  1.3641 -1.6664  2.5639
11035SOL    HW237022   2.469   2.492   7.915 -0.5059 -1.6649 -1.3952
11036SOL     OW37023   5.441   5.418   6.864 -0.9125 -0.2904  0.0036
11036SOL    HW137024   5.402   5.331   6.863 -1.5732 -0.0138  0.6367
11036SOL    HW237025   5.371   5.476   6.833 -0.6471  0.0786  0.0799
11037SOL     OW37026   1.566   7.505   9.485 -0.5157  0.5281  0.6842
11037SOL    HW137027   1.660   7.500   9.503  0.2349 -2.9382 -2.7657
11037SOL    HW237028   1.554   7.589   9.441  1.2397  0.5643  0.2215
11038SOL     OW37029   9.000   8.010   5.503 -0.2588 -0.2414 -0.1192
11038SOL    HW137030   9.093   8.032   5.506  0.3564 -2.5566 -0.4955
11038SOL    HW237031   8.968   8.055   5.424  0.2092  1.5711  0.6708
11039SOL     OW37032   2.685   7.855   4.921  0.5053 -0.1412 -0.1731
11039SOL    HW137033   2.725   7.771   4.900 -2.0501 -1.1900 -1.2473
11039SOL    HW237034   2.737   7.888   4.995  1.8281 -2.4532  0.0444
11040SOL     OW37035   7.371   2.696  10.156 -0.7070 -0.2809 -0.0445
11040SOL    HW137036   7.388   2.697  10.062 -1.2901 -1.7130 -0.1991
11040SOL    HW237037   7.450   2.659  10.195  0.3323  2.0922  0.2789
11041SOL     OW37038   2.397   5.459   2.700  0.5840  0.3792 -0.2584
11041SOL    HW137039   2.314   5.418   2.727  1.8528 -1.7200  0.6853
11041SOL    HW237040   2.388   5.550   2.730 -0.3745 -0.4406  2.2480
11042SOL     OW37041   3.120   6.538   3.418 -0.9279 -0.1321 -0.7325
11042SOL    HW137042   3.115   6.478   3.493 -1.6543 -0.6394 -1.1846
11042SOL    HW237043   3.137   6.624   3.458  0.6396 -0.6878 -0.1106
11043SOL     OW37044   7.367   5.261   8.781  0.2589  0.3530  0.1256
11043SOL    HW137045   7.455   5.267   8.819  0.2646 -1.4097  0.4679
11043SOL    HW237046   7.371   5.317   8.703  0.9370  2.2090  1.4302
11044SOL     OW37047   5.058   3.720   3.206 -0.1309  0.0603 -0.3716
11044SOL    HW137048   5.131   3.670   3.242  0.9676  1.3309 -0.7915
11044SOL    HW237049   5.095   3.768   3.133 -1.3052  1.0253 -0.3568
11045SOL     OW37050   1.208   0.136   6.074 -0.0216 -0.5762 -0.1018
11045SOL    HW137051   1.233   0.153   5.983 -0.8172 -3.3645 -0.9348
11045SOL    HW237052   1.138   0.199   6.091 -1.5022 -1.4854 -2.2671
11046SOL     OW37053   6.644   6.283   6.545 -0.0769  0.0285 -0.0239
11046SOL    HW137054   6.596   6.201   6.542  1.8770 -1.1542 -0.7990
11046SOL    HW237055   6.704   6.274   6.619  0.3344  0.6503 -0.2675
11047SOL     OW37056   9.755   3.004   8.931 -0.0497 -0.1369 -0.0869
11047SOL    HW137057   9.669   3.043   8.915 -0.4859 -1.5884 -1.4663
11047SOL    HW237058   9.806   3.075   8.973 -1.4452  1.1909 -0.5448
11048SOL     OW37059   0.524   6.620   9.899  0.4962 -0.7477  0.1866
11048SOL    HW137060   0.471   6.547   9.930 -0.8171  0.2596  0.4119
11048SOL    HW237061   0.583   6.582   9.834 -0.2241 -1.9745  0.2370
11049SOL     OW37062   4.322   1.209   1.501 -0.3722  0.3618 -0.1093
11049SOL    HW137063   4.230   1.237   1.494 -0.4956 -0.1429 -0.6120
11049SOL    HW237064   4.349   1.195   1.410 -0.6035 -2.0219  0.1266
11050SOL     OW37065   1.879   7.860   7.826  0.2247 -0.0816 -0.4472
11050SOL    HW137066   1.931   7.825   7.898 -1.1033 -1.2681  0.0012
11050SOL    HW237067   1.867   7.952   7.847  2.2323  0.2597 -0.6535
11051SOL     OW37068   7.269   7.675   4.040 -0.1902 -0.4999  0.3509
11051SOL    HW137069   7.222   7.722   3.970 -0.9966 -2.1935 -0.2938
11051SOL    HW237070   7.296   7.593   4.000  3.1233  0.2248  0.8151
11052SOL     OW37071   9.516   9.957   9.132  0.4668  0.0001 -0.2427
11052SOL    HW137072   9.422   9.973   9.146  0.3035 -0.9013 -0.3007
11052SOL    HW237073   9.556   9.982   9.215 -0.2809 -3.3355  1.2780
11053SOL     OW37074  10.101   0.357   6.875 -0.0853 -0.4419  0.1126
11053SOL    HW137075  10.065   0.438   6.912  2.1038  0.3452  0.6859
11053SOL    HW237076  10.159   0.386   6.805  0.0997 -1.5707 -0.2241
11054SOL     OW37077   5.639   4.768   3.130  0.4000  0.1824 -0.3843
11054SOL    HW137078   5.634   4.676   3.103  2.6252 -0.7275  1.8288
11054SOL    HW237079   5.703   4.807   3.070  0.8496 -0.2281 -0.1788
11055SOL     OW37080   1.829   3.378   7.418  0.4687 -0.0130  0.0992
11055SOL    HW137081   1.916   3.414   7.403  0.7786 -1.3158 -1.5963
11055SOL    HW237082   1.845   3.286   7.439 -0.4804 -0.1592  0.2328
11056SOL     OW37083   7.015   9.093   1.189  0.3711 -0.0971  0.6559
11056SOL    HW137084   6.977   9.127   1.271 -0.3541  0.1153  0.2372
11056SOL    HW237085   6.975   9.146   1.120  0.4799 -0.7107  0.1108
11057SOL     OW37086   1.293   3.854   4.512 -0.6180  0.0174  0.3147
11057SOL    HW137087   1.226   3.787   4.516  0.0263 -0.7240 -0.7009
11057SOL    HW237088   1.262   3.915   4.445 -0.7770  0.2563  0.6029
11058SOL     OW37089   8.426   5.150   3.774  0.1168 -0.0243  0.4284
11058SOL    HW137090   8.485   5.086   3.737 -0.0170 -0.3779  0.8168
11058SOL    HW237091   8.400   5.113   3.859 -0.9571 -0.0577  0.1038
11059SOL     OW37092   7.098   3.070   4.380  0.1839 -0.3988  0.4742
11059SOL    HW137093   7.129   3.020   4.304  0.5278 -1.4852  1.3156
11059SOL    HW237094   7.038   3.134   4.342 -0.7908 -1.8541 -0.5686
11060SOL     OW37095   5.298   0.246   7.612 -0.2625 -0.7576  0.2644
11060SOL    HW137096   5.348   0.321   7.645 -0.3218  0.1718 -1.5978
11060SOL    HW237097   5.364   0.180   7.591 -0.1424 -0.9498  1.2256
11061SOL     OW37098   0.525   6.475   0.259  0.3554 -0.2855  0.0101
11061SOL    HW137099   0.557   6.458   0.347  0.3859 -0.0247  0.0512
11061SOL    HW237100   0.509   6.570   0.258  1.1254 -0.1540 -0.5234
11062SOL     OW37101   7.908   7.983   1.219 -0.4098  0.2744 -0.3915
11062SOL    HW137102   7.915   7.909   1.280 -4.0952 -0.5524 -0.7160
11062SOL    HW237103   7.913   7.942   1.132 -0.9691  0.6231 -0.5874
11063SOL     OW37104   4.251   1.724   5.915  0.2685 -0.2659  0.0539
11063SOL    HW137105   4.271   1.687   6.001 -0.1296 -1.6708 -0.4335
11063SOL    HW237106   4.327   1.778   5.894 -0.3515  1.4906  1.9953
11064SOL     OW37107   1.698   9.880   9.877 -0.2738 -0.3220 -0.4592
11064SOL    HW137108   1.764   9.826   9.921  0.4339  2.9718  3.1295
11064SOL    HW237109   1.748   9.943   9.825 -1.0140 -1.8685 -3.2391
11065SOL     OW37110   8.562   5.241   3.405  0.2969 -0.2575 -0.3161
11065SOL    HW137111   8.552   5.169   3.343  2.6323 -0.4967 -0.4832
11065SOL    HW237112   8.636   5.292   3.373  0.5705  0.5130  1.3952
11066SOL     OW37113   0.473   2.994   3.805  0.0619 -0.5795 -0.3020
11066SOL    HW137114   0.467   2.904   3.838 -0.1803 -0.8399 -1.0334
11066SOL    HW237115   0.419   2.994   3.726 -2.0297  0.8567  1.0215
11067SOL     OW37116   0.632   6.680   2.169  0.5280  0.2721 -0.0460
11067SOL    HW137117   0.541   6.688   2.199  0.8470  0.5506  0.8815
11067SOL    HW237118   0.683   6.730   2.232  1.5246 -1.3112  0.4765
11068SOL     OW37119   0.909   7.598   1.021 -0.5435  0.1606 -0.5689
11068SOL    HW137120   0.921   7.692   1.035 -2.1087  0.9657 -3.8048
11068SOL    HW237121   0.991   7.569   0.981 -0.6468  0.4962 -1.0256
11069SOL     OW37122   6.713   6.499   9.386  0.2911 -0.8829 -0.1062
11069SOL    HW137123   6.731   6.405   9.388  2.2963 -0.5386  0.1176
11069SOL    HW237124   6.678   6.515   9.299 -0.4165 -1.8686 -0.0257
11070SOL     OW37125   4.434   3.445   4.159  0.1284  0.4472 -0.5131
11070SOL    HW137126   4.420   3.393   4.239 -0.2473  0.3953 -0.6103
11070SOL    HW237127   4.358   3.503   4.155  1.2873  2.1718  0.4705
11071SOL     OW37128   5.346   5.146   6.866  0.2906  0.0509 -0.0527
11071SOL    HW137129   5.371   5.073   6.810  1.2793  0.0283  0.3926
11071SOL    HW237130   5.412   5.147   6.936 -0.0398  1.0085  0.2708
11072SOL     OW37131   8.989   5.672   7.096  0.3652 -0.2794 -0.3900
11072SOL    HW137132   9.041   5.751   7.111 -1.2810  0.7020  0.3106
11072SOL    HW237133   8.989   5.627   7.180  0.8863 -0.7973 -0.6576
11073SOL     OW37134   1.144   7.826   9.108 -0.8044 -0.6520  0.4211
11073SOL    HW137135   1.169   7.838   9.199 -2.5697 -0.3341  0.9092
11073SOL    HW237136   1.197   7.889   9.059 -0.2687 -0.4178  1.2946
11074SOL     OW37137   9.971   0.309   7.489  0.1749  1.0511 -0.3173
11074SOL    HW137138  10.024   0.249   7.436  0.3723  1.8139 -0.9913
11074SOL    HW237139  10.027   0.384   7.505  0.4304  0.4792  1.7498
11075SOL     OW37140   8.652   9.828   8.667 -0.1841 -0.0995 -0.7231
11075SOL    HW137141   8.691   9.820   8.580 -1.0167  1.6349 -1.3162
11075SOL    HW237142   8.566   9.787   8.658 -0.4570  0.4856 -0.8848
11076SOL     OW37143   8.572   5.312   1.637 -0.5515  0.1306 -0.0063
11076SOL    HW137144   8.592   5.218   1.636 -1.3731 -0.1554 -3.3179
11076SOL    HW237145   8.652   5.354   1.605 -0.8969  0.3078 -0.6555
11077SOL     OW37146   8.319   8.326   8.389 -0.2461  0.3982  0.1128
11077SOL    HW137147   8.314   8.418   8.365 -1.8751  0.6021  1.0550
11077SOL    HW237148   8.240   8.311   8.442  2.0567 -0.4438  3.6897
11078SOL     OW37149   5.628   6.423   5.931 -0.4395  0.1918  0.2612
11078SOL    HW137150   5.584   6.339   5.942  0.6503 -0.4346  0.0291
11078SOL    HW237151   5.665   6.442   6.018  1.6759 -0.9879 -0.2921
11079SOL     OW37152   9.722   3.931   4.916 -0.3972  0.0553 -0.2877
11079SOL    HW137153   9.749   3.872   4.845  2.2786  1.9911 -1.0559
11079SOL    HW237154   9.631   3.952   4.896 -0.6371 -1.8118 -1.4179
11080SOL     OW37155   5.527   5.970   9.938  0.3361  0.7197 -0.4565
11080SOL    HW137156   5.557   5.923   9.861 -0.6121 -1.6056  0.5014
11080SOL    HW237157   5.437   5.995   9.918  0.2416  0.5125 -0.3053
11081SOL     OW37158   5.536   5.787   8.685 -0.1506  0.1543 -0.2920
11081SOL    HW137159   5.585   5.804   8.605  0.7465  1.2404  0.4572
11081SOL    HW237160   5.444   5.792   8.658  0.1264 -0.5124 -1.4354
11082SOL     OW37161   4.147   6.792   1.894  0.6822 -0.4114  0.0944
11082SOL    HW137162   4.154   6.845   1.814 -0.7186  2.3935  1.6840
11082SOL    HW237163   4.231   6.806   1.939  0.4999  0.0862  0.2850
11083SOL     OW37164   5.021   2.514   1.153 -0.1467 -0.1269 -0.0919
11083SOL    HW137165   5.012   2.561   1.236  2.7344 -3.0175  2.1568
11083SOL    HW237166   5.023   2.422   1.179  0.8398 -1.1588 -3.4035
11084SOL     OW37167   4.916   9.732   0.450 -0.1720  0.1838 -0.0664
11084SOL    HW137168   4.892   9.665   0.514 -0.7057  0.6888  0.2605
11084SOL    HW237169   4.836   9.749   0.400 -0.2672  1.1796  0.4036
11085SOL     OW37170   8.121   1.334   5.744 -0.4106  0.0299 -0.7282
11085SOL    HW137171   8.042   1.386   5.735 -0.5716 -0.4717 -2.6081
11085SOL    HW237172   8.192   1.398   5.746 -0.8177  0.4674  0.6886
11086SOL     OW37173   0.687   8.282   6.245  0.6799  0.4157  0.5219
11086SOL    HW137174   0.719   8.192   6.240  0.0784  0.2631 -1.0017
11086SOL    HW237175   0.607   8.276   6.297  0.0720 -0.0969 -0.4705
11087SOL     OW37176   5.714   6.902   7.419 -1.1176 -0.0097  0.1357
11087SOL    HW137177   5.753   6.949   7.346 -1.3139 -0.4803 -0.2737
11087SOL    HW237178   5.620   6.921   7.413 -1.1947 -0.4427 -0.0194
11088SOL     OW37179   3.344   6.177   4.487 -0.3664  0.1438  0.2178
11088SOL    HW137180   3.310   6.137   4.407  1.1125  0.7286 -0.7312
11088SOL    HW237181   3.386   6.105   4.534 -1.1481 -0.1784  0.4468
11089SOL     OW37182   6.532   4.479   8.411 -0.3420  0.0883 -0.1964
11089SOL    HW137183   6.598   4.424   8.369 -0.5620  0.1503 -0.6285
11089SOL    HW237184   6.569   4.567   8.408  0.6064 -0.2016  1.6880
11090SOL     OW37185  10.058   5.864   2.080  0.1497 -1.1948 -0.3591
11090SOL    HW137186  10.102   5.810   2.145  1.7761  0.3869 -0.0635
11090SOL    HW237187  10.061   5.812   1.999  2.4781 -1.2347 -0.3139
11091SOL     OW37188   7.295   0.122   2.440  0.6607  0.0755 -0.2965
11091SOL    HW137189   7.302   0.148   2.348 -1.3171  0.7280 -0.3213
11091SOL    HW237190   7.273   0.203   2.487 -0.4622 -0.5975  0.4064
11092SOL     OW37191   8.605   0.905   9.886 -0.4325 -0.3776  0.3262
11092SOL    HW137192   8.686   0.920   9.935  0.1201 -0.4127 -0.5390
11092SOL    HW237193   8.586   0.990   9.846 -0.0939 -0.6897 -0.5189
11093SOL     OW37194   8.745   1.992   8.221 -0.8501 -0.1006 -0.5252
11093SOL    HW137195   8.713   1.927   8.157 -1.7859 -0.9434  0.7581
11093SOL    HW237196   8.783   1.940   8.291 -0.1751  0.8072 -0.1989
11094SOL     OW37197   2.858   2.567   3.975 -0.0309 -0.1652  0.4768
11094SOL    HW137198   2.903   2.642   4.013  2.7550 -1.1983 -0.5483
11094SOL    HW237199   2.879   2.494   4.034 -1.8745 -0.3955  0.9162
11095SOL     OW37200   2.243   0.117   9.051  0.0839  0.5552  0.0428
11095SOL    HW137201   2.268   0.026   9.066 -0.7378  0.3635  0.3455
11095SOL    HW237202   2.153   0.112   9.019  0.2455  1.2320 -0.5373
11096SOL     OW37203   9.164   6.830   8.537  0.1975 -0.0870  0.0547
11096SOL    HW137204   9.257   6.855   8.534 -0.0840  0.8813 -2.2655
11096SOL    HW237205   9.157   6.757   8.475 -0.4119 -0.9727  1.1226
11097SOL     OW37206   4.275   4.010   1.541 -0.1633 -0.1515 -0.0955
11097SOL    HW137207   4.211   3.985   1.607 -0.5865 -0.4425 -0.6048
11097SOL    HW237208   4.326   3.930   1.524 -0.5781 -0.3008 -0.6869
11098SOL     OW37209   1.338   8.332   2.798 -1.0287  0.5184  0.3599
11098SOL    HW137210   1.389   8.262   2.758  0.2616  0.6201  1.7642
11098SOL    HW237211   1.281   8.287   2.861 -1.4158  0.5771  0.0549
11099SOL     OW37212   2.968   9.246   1.037 -0.2457 -0.4281  0.2030
11099SOL    HW137213   3.015   9.163   1.048  0.4126 -0.0118  0.5737
11099SOL    HW237214   2.909   9.230   0.963 -1.6495 -1.8956  1.5671
11100SOL     OW37215   4.800   2.847   6.952  0.0300 -0.4780  0.3408
11100SOL    HW137216   4.753   2.775   6.993 -0.4388 -0.0944  0.4971
11100SOL    HW237217   4.749   2.925   6.976 -3.1267 -0.5118 -4.6887
11101SOL     OW37218   3.031   1.390   0.490  0.5256 -0.1788  0.6141
11101SOL    HW137219   2.962   1.341   0.534 -1.8341  2.2351 -0.1018
11101SOL    HW237220   3.014   1.376   0.397 -0.7616  2.4681  0.3570
11102SOL     OW37221   8.563   0.669   9.408  0.1301 -0.3103  0.2370
11102SOL    HW137222   8.625   0.717   9.464 -1.9552  1.6179  1.0563
11102SOL    HW237223   8.553   0.725   9.331 -2.8074  1.0711  1.4743
11103SOL     OW37224   8.876   8.219   9.832 -1.0437 -0.0542  0.8209
11103SOL    HW137225   8.806   8.206   9.895 -2.4581  0.6933 -0.5387
11103SOL    HW237226   8.851   8.298   9.784 -0.7280 -1.3069 -1.5555
11104SOL     OW37227   7.776   6.018  10.166  0.0467  0.2313  0.0481
11104SOL    HW137228   7.730   5.960  10.105 -0.2350 -1.0622  1.4392
11104SOL    HW237229   7.868   5.995  10.156 -0.2272 -2.3866  2.3839
11105SOL     OW37230   9.008   6.660   7.226  0.6338  0.4430  0.3051
11105SOL    HW137231   9.005   6.751   7.256 -1.4190  1.0424 -1.4876
11105SOL    HW237232   9.031   6.665   7.133  1.0024 -0.9308  0.2907
11106SOL     OW37233   8.680   6.312   1.449 -0.1779 -0.6096  0.5727
11106SOL    HW137234   8.609   6.288   1.508  0.7070 -2.5081  0.9488
11106SOL    HW237235   8.744   6.355   1.505  0.6152 -2.3171  1.0350
11107SOL     OW37236   4.822   9.052   5.777 -0.2517  0.1648  0.0870
11107SOL    HW137237   4.887   9.012   5.720 -0.0312  0.2836  0.2515
11107SOL    HW237238   4.742   9.001   5.763  0.1580 -0.6643  0.6882
11108SOL     OW37239   5.306   6.116   7.422  0.2526  0.1236  0.6902
11108SOL    HW137240   5.374   6.112   7.355 -0.0173  3.1411  0.1119
11108SOL    HW237241   5.334   6.185   7.482 -0.9932 -0.4473  1.9982
11109SOL     OW37242   5.590   7.774   6.242  0.5394 -0.5748 -0.4821
11109SOL    HW137243   5.664   7.737   6.195 -0.4000 -1.7904 -1.0636
11109SOL    HW237244   5.527   7.702   6.250 -1.3175  0.8249 -1.5334
11110SOL     OW37245   7.241   4.537   7.539  0.1357  0.5671 -0.5505
11110SOL    HW137246   7.276   4.624   7.520 -0.6073  0.9918 -0.0413
11110SOL    HW237247   7.299   4.502   7.607  0.7163  0.4688 -1.0976
11111SOL     OW37248   3.498   2.997   7.923  0.3896  0.3178 -0.1855
11111SOL    HW137249   3.548   3.064   7.876  0.9911 -0.7678 -1.1406
11111SOL    HW237250   3.493   2.924   7.861 -1.6277  0.0587  0.2157
11112SOL     OW37251   7.867   4.092   1.217 -0.5325  0.3470 -0.0160
11112SOL    HW137252   7.794   4.099   1.278 -0.8332  0.4505 -0.3860
11112SOL    HW237253   7.888   3.999   1.214 -2.4819 -0.1079 -2.0285
11113SOL     OW37254   2.389   9.936   5.410 -0.5172 -0.3798  0.2780
11113SOL    HW137255   2.334   9.860   5.428  0.9255 -1.6290 -0.3663
11113SOL    HW237256   2.450   9.940   5.484  0.3500 -0.7672 -0.3932
11114SOL     OW37257  10.042   3.287   4.452  0.5002 -0.0484 -0.1627
11114SOL    HW137258  10.110   3.224   4.428 -1.3942 -1.4931 -2.0942
11114SOL    HW237259  10.083   3.342   4.518  3.4479 -0.9796 -1.0693
11115SOL     OW37260   0.692   5.588   8.854 -0.4214 -0.1043  0.1793
11115SOL    HW137261   0.716   5.565   8.944 -0.3374 -1.4064 -0.1620
11115SOL    HW237262   0.601   5.559   8.845 -0.0625 -1.0839 -0.4999
11116SOL     OW37263   5.972   1.211   3.942  0.0307 -0.3109  0.3745
11116SOL    HW137264   5.921   1.218   4.023  1.3787 -3.1998  1.6080
11116SOL    HW237265   6.053   1.259   3.960 -0.3512  0.4762  0.0637
11117SOL     OW37266   5.905   5.437   4.491  0.4500  0.5753  0.2348
11117SOL    HW137267   5.813   5.463   4.499 -0.0174 -0.6272 -0.9113
11117SOL    HW237268   5.927   5.458   4.400  0.9350 -0.2799  0.1483
11118SOL     OW37269   7.567   1.682   1.238  0.3417 -0.4651 -0.3703
11118SOL    HW137270   7.613   1.765   1.229 -0.0753 -0.2689 -0.7590
11118SOL    HW237271   7.478   1.701   1.209  0.0296 -0.8528  0.3212
11119SOL     OW37272   9.492   6.244   0.481  0.5632 -0.2961 -0.3156
11119SOL    HW137273   9.543   6.174   0.522  1.2764  0.0356 -0.6234
11119SOL    HW237274   9.435   6.276   0.552 -0.0725 -1.4485 -0.2823
11120SOL     OW37275   2.553   3.272   5.334  0.1863  0.1147 -0.9258
11120SOL    HW137276   2.606   3.196   5.360  1.5138  0.9802 -1.0186
11120SOL    HW237277   2.580   3.341   5.394 -0.5758  0.6826 -1.2295
11121SOL     OW37278   8.665   0.494   6.788 -0.5382  0.2999 -0.1428
11121SOL    HW137279   8.585   0.472   6.741 -0.1831  0.1653 -0.6869
11121SOL    HW237280   8.723   0.531   6.722  1.0934 -2.6013 -0.4953
11122SOL     OW37281   6.809   9.812   9.278 -0.1835  0.0300 -0.0289
11122SOL    HW137282   6.810   9.718   9.263 -0.3937 -0.1485  1.0032
11122SOL    HW237283   6.722   9.830   9.316 -0.5816  0.8146 -1.2504
11123SOL     OW37284   0.250   0.085   5.947  0.6725  0.2179  0.4935
11123SOL    HW137285   0.237   0.179   5.962 -1.3445  0.5262 -2.3095
11123SOL    HW237286   0.169   0.044   5.976 -0.3709  0.0289 -2.3035
11124SOL     OW37287   7.726   1.746   3.291 -0.1791  0.2734 -0.3676
11124SOL    HW137288   7.665   1.683   3.329 -0.6184  0.7372 -0.2845
11124SOL    HW237289   7.811   1.703   3.295 -0.3651 -0.0432  0.3077
11125SOL     OW37290   5.223   2.770   9.483 -0.6575  0.1499  0.4395
11125SOL    HW137291   5.138   2.814   9.486 -0.6313  0.1680  1.6350
11125SOL    HW237292   5.287   2.841   9.490 -0.5520  0.1122 -0.1423
11126SOL     OW37293  10.059   8.607   3.221  0.3773 -0.1115 -0.0996
11126SOL    HW137294  10.111   8.686   3.239  1.6482 -0.9113 -0.1394
11126SOL    HW237295   9.994   8.605   3.291  0.7916  0.5912  0.3251
11127SOL     OW37296   0.115   9.288   1.807  0.0798 -0.6262 -0.4498
11127SOL    HW137297   0.116   9.282   1.711  0.9245  1.0466 -0.5875
11127SOL    HW237298   0.144   9.377   1.825 -3.9041  0.5823  1.2266
11128SOL     OW37299   7.073   8.963   8.140  0.5921  0.5402  0.0348
11128SOL    HW137300   7.154   8.936   8.182  0.1166 -0.9586  0.0250
11128SOL    HW237301   7.004   8.917   8.187  0.0589 -1.4884 -2.5167
11129SOL     OW37302   2.499   3.284   7.016 -0.2812  0.1892 -0.5404
11129SOL    HW137303   2.512   3.221   6.945 -1.9944  0.3888 -1.0731
11129SOL    HW237304   2.587   3.300   7.050  0.2907 -1.8599 -0.9308
11130SOL     OW37305   9.336   8.598   0.952 -0.2547  0.1223  0.1391
11130SOL    HW137306   9.290   8.523   0.990  1.1922 -0.0603  1.6627
11130SOL    HW237307   9.270   8.644   0.901 -1.5630 -1.3240  0.4624
11131SOL     OW37308   3.041   3.894   3.389 -0.1674  0.3234  0.5406
11131SOL    HW137309   3.086   3.844   3.457  0.6426 -0.4707 -0.5638
11131SOL    HW237310   3.034   3.983   3.426  1.3112  0.1963  1.1970
11132SOL     OW37311   8.360   9.273  10.058 -0.3782  0.1172 -0.1646
11132SOL    HW137312   8.267   9.259  10.076 -0.3296 -1.3718 -0.9782
11132SOL    HW237313   8.405   9.229  10.129 -0.2707  0.8773  0.2541
11133SOL     OW37314   3.268   4.523   1.469  0.2856 -0.2604  0.1344
11133SOL    HW137315   3.220   4.584   1.413  1.4273 -0.3141 -0.9345
11133SOL    HW237316   3.311   4.578   1.534 -0.0815 -0.0914  0.2364
11134SOL     OW37317   8.335   4.100   8.501  0.6278 -0.1549  0.7014
11134SOL    HW137318   8.370   4.019   8.462 -0.1083 -0.3866  0.4991
11134SOL    HW237319   8.332   4.162   8.428  1.6488  0.2195  0.9609
11135SOL     OW37320   1.979   2.392   2.290  0.0582 -0.4104 -0.5248
11135SOL    HW137321   1.890   2.408   2.321  0.3817 -0.8289  0.6489
11135SOL    HW237322   2.035   2.440   2.351  0.6557 -0.2964 -1.1497
11136SOL     OW37323  10.107   1.837   4.228  0.0221 -0.1550  0.3077
11136SOL    HW137324  10.071   1.786   4.300 -0.3849 -2.5212 -1.4439
11136SOL    HW237325  10.030   1.869   4.181  0.1678 -1.4409 -0.8935
11137SOL     OW37326   0.355   7.075   8.935  0.3820  0.3564  0.3727
11137SOL    HW137327   0.423   7.053   8.999 -0.1462  0.1500  0.8679
11137SOL    HW237328   0.368   7.169   8.919 -0.2683  0.7152  1.7482
11138SOL     OW37329   8.164   7.808   5.572 -0.0204 -0.0427  0.0385
11138SOL    HW137330   8.074   7.780   5.586  0.4209 -1.3470  0.4592
11138SOL    HW237331   8.171   7.820   5.477 -0.9596  1.3557  0.1082
11139SOL     OW37332   9.252   8.866   0.549  0.0556 -0.5285 -0.3536
11139SOL    HW137333   9.222   8.777   0.568  1.2479 -0.8859 -0.1124
11139SOL    HW237334   9.346   8.864   0.566  0.0620  0.8282 -0.1691
11140SOL     OW37335   8.070   9.131   4.510 -0.0002  0.0863 -0.4150
11140SOL    HW137336   8.144   9.187   4.531 -0.1291  0.2309 -0.3445
11140SOL    HW237337   8.085   9.104   4.420 -0.1300  0.5354 -0.5723
11141SOL     OW37338   1.867   1.885   3.664  0.1066 -0.1798 -0.1493
11141SOL    HW137339   1.847   1.894   3.571 -0.4351 -0.6000 -0.0742
11141SOL    HW237340   1.878   1.791   3.678 -1.1248 -0.2532  0.4660
11142SOL     OW37341   2.214   4.690   8.277  0.0987  0.3168 -0.1590
11142SOL    HW137342   2.183   4.600   8.286  1.7393 -0.4733 -1.7953
11142SOL    HW237343   2.134   4.743   8.285 -1.1768 -1.3887 -0.8528
11143SOL     OW37344   4.126   2.453   8.737  0.2829 -0.6366  0.4292
11143SOL    HW137345   4.159   2.477   8.651  0.1460  0.3323  0.6281
11143SOL    HW237346   4.125   2.358   8.738 -1.4405 -0.6819 -1.2974
11144SOL     OW37347   3.269   6.582   1.544  0.1916 -0.2975  0.0708
11144SOL    HW137348   3.352   6.608   1.505 -0.0280 -0.0183 -0.2187
11144SOL    HW237349   3.249   6.498   1.504 -0.2077  0.1482 -0.7111
11145SOL     OW37350   2.582   9.717   6.186 -0.1459 -0.0952  0.7132
11145SOL    HW137351   2.657   9.740   6.131  0.4015  0.4903  1.6685
11145SOL    HW237352   2.506   9.726   6.128  0.4607 -0.0420 -0.0900
11146SOL     OW37353  10.005   8.077   1.006 -0.7643 -0.3179 -0.0562
11146SOL    HW137354   9.913   8.068   1.028 -0.3206  0.6420  2.6020
11146SOL    HW237355  10.043   7.991   1.025 -0.6993  0.0229  1.4961
11147SOL     OW37356   3.072   7.537   7.072  0.9983  0.1302  0.2634
11147SOL    HW137357   3.071   7.442   7.088 -0.3518  0.0699 -0.1277
11147SOL    HW237358   2.991   7.569   7.111  1.5468  1.1794  0.5914
11148SOL     OW37359   8.901   0.555   0.047  0.1005 -0.1412  0.1139
11148SOL    HW137360   8.937   0.572   0.134 -0.1343 -0.6199  0.3118
11148SOL    HW237361   8.822   0.609   0.044  0.1481 -0.0677  0.1738
11149SOL     OW37362   8.630   3.283   9.922  0.3306  0.3521 -0.0666
11149SOL    HW137363   8.622   3.241  10.007  0.1332  0.3734 -0.0725
11149SOL    HW237364   8.711   3.334   9.927  0.6635 -0.1590 -0.1165
11150SOL     OW37365   5.431   0.083   1.924 -0.4254  0.2938  0.1172
11150SOL    HW137366   5.353   0.073   1.868 -0.7579 -1.9608  0.8695
11150SOL    HW237367   5.398   0.121   2.005 -0.3735  1.1575 -0.2496
11151SOL     OW37368   5.898   2.644   7.863  0.5926  0.0371 -0.6440
11151SOL    HW137369   5.962   2.575   7.876  0.3424 -0.1646 -0.4765
11151SOL    HW237370   5.857   2.623   7.779  0.5436  0.0048 -0.6118
11152SOL     OW37371   1.101   2.780   6.400 -0.2617  0.0283 -0.1662
11152SOL    HW137372   1.049   2.727   6.340  1.1944 -1.5118 -0.1557
11152SOL    HW237373   1.039   2.843   6.437 -2.3599 -2.3170  0.6055
11153SOL     OW37374   1.606   3.101   7.577  0.3853  0.1987 -0.4215
11153SOL    HW137375   1.665   3.042   7.624 -0.6385 -1.9725 -1.7038
11153SOL    HW237376   1.633   3.095   7.486 -1.5204 -0.5435 -0.9800
11154SOL     OW37377   7.518   8.695   6.588  0.0773  0.6694  0.0425
11154SOL    HW137378   7.608   8.727   6.589 -0.1512  1.3593 -0.6088
11154SOL    HW237379   7.480   8.733   6.509 -1.3635  2.0198  1.3143
11155SOL     OW37380   6.001   6.312   8.006  0.0928 -0.0886 -0.0743
11155SOL    HW137381   6.067   6.253   8.043  0.3605  0.3237  0.1137
11155SOL    HW237382   5.957   6.259   7.939 -0.0834 -0.7008  0.5068
11156SOL     OW37383   4.080   5.248   2.879  0.4259 -0.3559 -0.4106
11156SOL    HW137384   4.040   5.281   2.799 -0.0171  0.2588  0.0554
11156SOL    HW237385   4.174   5.255   2.863  0.3482  1.1614 -0.3279
11157SOL     OW37386   5.694   3.788   0.935 -0.0617  0.2768 -0.1217
11157SOL    HW137387   5.626   3.747   0.882  0.2135  0.4287 -0.5972
11157SOL    HW237388   5.715   3.723   1.003  1.5551 -1.1033 -1.8361
11158SOL     OW37389   1.825   3.359   0.156  0.2132  0.1421  1.1418
11158SOL    HW137390   1.867   3.443   0.141  0.6470 -0.4195 -1.1090
11158SOL    HW237391   1.888   3.308   0.207  0.7315  0.5386  0.8925
11159SOL     OW37392   7.397   8.327   4.109 -0.1121  1.0125 -0.3430
11159SOL    HW137393   7.439   8.241   4.107  1.5141  1.6891  1.6466
11159SOL    HW237394   7.403   8.359   4.019  1.8585  0.1993 -0.5516
11160SOL     OW37395   3.783   6.774   3.097  0.0321 -0.2022 -0.5501
11160SOL    HW137396   3.851   6.779   3.030  1.6813  1.5364  1.1312
11160SOL    HW237397   3.720   6.842   3.072  0.1047 -0.2578 -0.8853
11161SOL     OW37398   4.795   0.566   2.193 -0.1964 -0.5049 -0.1615
11161SOL    HW137399   4.732   0.612   2.249 -0.1562 -0.9512  0.2557
11161SOL    HW237400   4.879   0.608   2.212  0.0792 -1.5927  1.2105
11162SOL     OW37401   6.559   7.750   1.553 -0.2161 -0.3254 -0.7182
11162SOL    HW137402   6.524   7.688   1.489 -1.5443 -0.1983 -0.1328
11162SOL    HW237403   6.526   7.835   1.526  0.1983 -0.0995 -0.5375
11163SOL     OW37404   2.953   9.183   5.408 -0.5340 -0.6837  0.2786
11163SOL    HW137405   2.944   9.277   5.390  0.0439 -0.6252  0.2684
11163SOL    HW237406   3.014   9.152   5.341  0.0921 -0.8585  0.9167
11164SOL     OW37407   8.149   8.284   2.814 -0.2712  0.0972  0.2804
11164SOL    HW137408   8.223   8.302   2.755 -0.4483  0.8479  0.2698
11164SOL    HW237409   8.180   8.314   2.900 -1.0790  1.8723  0.0077
11165SOL     OW37410   2.681   7.447   9.139 -0.3882  0.0937  0.0786
11165SOL    HW137411   2.634   7.502   9.202  3.1382  3.6975 -0.0324
11165SOL    HW237412   2.673   7.494   9.055 -1.5772 -2.4576 -1.3523
11166SOL     OW37413   4.226   4.532   7.023  0.0425  0.3410 -0.4007
11166SOL    HW137414   4.274   4.585   7.087 -0.0454 -0.1248  0.0576
11166SOL    HW237415   4.138   4.522   7.060 -0.3723  1.0463 -1.1541
11167SOL     OW37416   8.503   9.138   0.062 -0.1211 -0.2646 -0.2377
11167SOL    HW137417   8.521   9.188   0.141 -0.1783 -1.0790  0.3062
11167SOL    HW237418   8.578   9.155   0.004 -0.9051  1.7390 -0.7569
11168SOL     OW37419   1.555   5.016   3.314  0.5875  0.0365 -0.1270
11168SOL    HW137420   1.650   5.015   3.301  0.6682  0.9820  0.2607
11168SOL    HW237421   1.519   4.982   3.232  1.3002 -2.4768  0.5364
11169SOL     OW37422   7.468   8.840   7.305 -0.1457 -0.3015  0.0359
11169SOL    HW137423   7.533   8.793   7.253  0.6379  2.2670 -1.5277
11169SOL    HW237424   7.491   8.932   7.292 -3.0097  0.6287  0.9447
11170SOL     OW37425   3.483   3.768   7.613 -0.3951 -0.1599 -0.3639
11170SOL    HW137426   3.528   3.852   7.604  0.1854 -0.2807  1.1810
11170SOL    HW237427   3.399   3.791   7.653 -0.4781 -0.2505 -0.4878
11171SOL     OW37428   2.407   8.432   5.176  1.0288  0.5491 -0.0304
11171SOL    HW137429   2.479   8.369   5.185  1.7610  0.7906 -3.1282
11171SOL    HW237430   2.329   8.377   5.164  0.8297  0.3048  1.9193
11172SOL     OW37431   0.743   7.282   6.495 -0.2697  0.2508 -0.0560
11172SOL    HW137432   0.671   7.301   6.555  0.5948 -0.5452  1.2911
11172SOL    HW237433   0.701   7.258   6.412 -1.5092  0.7087  0.4296
11173SOL     OW37434   3.741   8.712   5.750  0.4218  0.4908 -1.0276
11173SOL    HW137435   3.816   8.699   5.692  1.3024  0.3087  0.1156
11173SOL    HW237436   3.754   8.798   5.789  0.9108 -0.1761  0.3645
11174SOL     OW37437   6.846   4.586   5.528  0.1258  0.2575 -0.1868
11174SOL    HW137438   6.752   4.572   5.516 -0.2989  1.5700  1.2743
11174SOL    HW237439   6.887   4.534   5.459 -1.5701 -1.8692  0.2936
11175SOL     OW37440   4.108   3.346   7.325 -0.9387  0.1973  0.3506
11175SOL    HW137441   4.119   3.317   7.234 -0.7368  2.2858 -0.3475
11175SOL    HW237442   4.018   3.379   7.328 -1.8898 -2.2168  1.6875
11176SOL     OW37443   1.673   7.080   2.349  0.1762  0.5407  0.1136
11176SOL    HW137444   1.681   7.055   2.256  1.2099  0.4032  0.2291
11176SOL    HW237445   1.708   7.169   2.353 -0.2250  0.6899  0.3063
11177SOL     OW37446   5.956   9.523   2.917  0.0747  0.1063  0.2140
11177SOL    HW137447   5.985   9.565   2.998  0.7513 -0.3469  0.2169
11177SOL    HW237448   5.869   9.559   2.901 -0.9452 -1.2176  2.2100
11178SOL     OW37449   7.107   6.468   9.616 -0.0232 -0.1183 -0.0946
11178SOL    HW137450   7.015   6.491   9.608 -0.9616 -2.6295  2.0434
11178SOL    HW237451   7.129   6.428   9.532 -1.3167 -0.8436 -0.1102
11179SOL     OW37452   5.805   4.931   0.508  0.7160 -0.2482 -0.7117
11179SOL    HW137453   5.774   4.840   0.512 -0.0909  0.0734  1.5202
11179SOL    HW237454   5.727   4.981   0.483  0.2420  0.1514  1.3603
11180SOL     OW37455   5.097   7.742   7.881  0.5708  0.2562 -0.0683
11180SOL    HW137456   5.126   7.782   7.963  1.3083  1.5883 -0.9410
11180SOL    HW237457   5.152   7.782   7.814 -0.0602 -0.7512 -1.2382
11181SOL     OW37458   4.401   3.630  10.159  0.3052 -0.8664 -0.1810
11181SOL    HW137459   4.321   3.582  10.179 -1.8309  2.6967  0.8778
11181SOL    HW237460   4.420   3.680  10.238  1.8791  0.5451 -1.3532
11182SOL     OW37461   8.908   7.770   3.126  0.9178 -0.5040 -0.2830
11182SOL    HW137462   8.876   7.803   3.042 -0.4910 -1.8250 -0.2879
11182SOL    HW237463   8.926   7.677   3.110  0.7519 -0.7375  0.8420
11183SOL     OW37464   6.516   6.411   0.013 -0.5041 -0.2450  0.8507
11183SOL    HW137465   6.450   6.346  -0.013 -0.3908 -0.0836  0.1368
11183SOL    HW237466   6.594   6.386  -0.036 -0.3822  0.2647  0.7810
11184SOL     OW37467   8.032   2.019   7.181  0.2823 -0.2901  0.3201
11184SOL    HW137468   8.092   2.092   7.196 -1.7925  1.2144  2.0987
11184SOL    HW237469   8.039   1.967   7.261  0.5187 -1.1094 -0.2292
11185SOL     OW37470   6.790   9.738   3.978  0.4543 -0.9248 -0.2137
11185SOL    HW137471   6.773   9.645   3.966 -0.9273 -0.5720 -1.2581
11185SOL    HW237472   6.772   9.755   4.070  0.6281 -1.6608 -0.0406
11186SOL     OW37473   8.121   5.372   4.623  0.5295  0.5053 -0.1724
11186SOL    HW137474   8.212   5.370   4.654  0.4870 -0.7703 -0.0534
11186SOL    HW237475   8.111   5.459   4.584  1.8505  0.6242 -0.3195
11187SOL     OW37476   4.738   9.180   3.412  0.0281  0.0199 -0.0823
11187SOL    HW137477   4.674   9.232   3.364  0.7084 -0.3573 -1.4226
11187SOL    HW237478   4.689   9.148   3.488 -1.2026  0.2576 -0.7426
11188SOL     OW37479   2.557   3.702   5.117 -0.2324 -0.6774 -0.4383
11188SOL    HW137480   2.634   3.650   5.092 -0.4358 -0.2211 -2.1287
11188SOL    HW237481   2.506   3.710   5.036 -2.4345 -1.5141  0.7742
11189SOL     OW37482  10.043   1.765   7.567 -0.3982 -1.0878 -0.0602
11189SOL    HW137483  10.009   1.784   7.479 -0.6287 -0.5779  0.1344
11189SOL    HW237484  10.051   1.851   7.608  0.7912 -1.2293  0.0264
11190SOL     OW37485   4.222   1.531   1.339  0.2918  0.5798 -0.0903
11190SOL    HW137486   4.294   1.488   1.292  0.8339  1.8131 -0.4418
11190SOL    HW237487   4.145   1.514   1.285  0.1704 -1.2983  0.6224
11191SOL     OW37488   4.907   2.210   3.266  0.2385 -0.1810  0.3412
11191SOL    HW137489   4.873   2.186   3.353  0.4630 -0.8411  0.2524
11191SOL    HW237490   4.924   2.304   3.272 -1.2049  0.0938  0.5232
11192SOL     OW37491   3.965   5.150   8.004  0.5031 -0.3494 -0.3461
11192SOL    HW137492   3.926   5.091   7.939  1.9151  1.4695 -3.0321
11192SOL    HW237493   3.954   5.237   7.966  0.2633  0.9654  2.5408
11193SOL     OW37494   2.840   6.380   4.710 -0.0073 -0.2430 -0.0840
11193SOL    HW137495   2.932   6.354   4.700  0.5831  1.2292  1.1050
11193SOL    HW237496   2.824   6.439   4.635  1.2549  2.5340  1.6608
11194SOL     OW37497   0.919   5.563   1.820  0.0809  0.2842  0.5807
11194SOL    HW137498   0.921   5.655   1.796 -1.0387 -0.0621 -0.9749
11194SOL    HW237499   0.957   5.517   1.746 -2.3076 -0.7170 -0.1302
11195SOL     OW37500   0.423   8.683   9.416 -0.0503 -0.2670 -0.3634
11195SOL    HW137501   0.341   8.699   9.462  0.2826  0.8369 -0.1316
11195SOL    HW237502   0.423   8.589   9.400 -1.3329 -0.2907 -0.3239
11196SOL     OW37503   9.306   1.314   9.238 -0.5032 -0.0760  0.5472
11196SOL    HW137504   9.339   1.376   9.172 -0.6926 -1.5864 -1.0391
11196SOL    HW237505   9.211   1.326   9.236 -0.4219  1.1285  1.8995
11197SOL     OW37506   6.828   0.501   2.930 -0.2871 -0.3866 -0.3724
11197SOL    HW137507   6.797   0.550   2.854 -1.4765 -1.2804 -0.4749
11197SOL    HW237508   6.829   0.566   3.001 -0.7497  0.0613 -0.7649
11198SOL     OW37509   0.050   3.215   5.006 -0.1164  0.7360  0.1135
11198SOL    HW137510  -0.014   3.145   5.017  0.8129  0.1052  2.0359
11198SOL    HW237511   0.002   3.284   4.961 -1.7133 -0.2778  0.1580
11199SOL     OW37512   4.257   2.481   2.236 -0.1235  0.4210  0.6279
11199SOL    HW137513   4.221   2.398   2.267  1.7456  0.1320  2.2364
11199SOL    HW237514   4.187   2.545   2.253 -0.8070 -0.4865  1.3504
11200SOL     OW37515   1.237   5.224   0.864 -0.2048 -0.2125  0.1875
11200SOL    HW137516   1.264   5.288   0.930  0.1729  0.9495 -1.0458
11200SOL    HW237517   1.143   5.238   0.855 -0.3516 -0.7341  0.8331
11201SOL     OW37518   7.724   1.520   7.731  0.6939 -0.2572 -0.4286
11201SOL    HW137519   7.715   1.449   7.667  1.8198 -0.8644  0.0409
11201SOL    HW237520   7.684   1.486   7.811 -0.1124  0.2409 -0.6081
11202SOL     OW37521   1.794   8.597   8.575  1.0329  0.6343 -0.0291
11202SOL    HW137522   1.709   8.639   8.566  1.5946  1.6642 -0.7192
11202SOL    HW237523   1.813   8.561   8.489  1.0304 -0.1554  0.2856
11203SOL     OW37524   7.606   2.042   7.582 -0.3474 -0.3013  0.7286
11203SOL    HW137525   7.593   1.957   7.624 -0.6966 -0.6607 -0.0948
11203SOL    HW237526   7.679   2.028   7.521  0.7918  0.4613  1.8541
11204SOL     OW37527   5.632   6.041   4.449  0.8863  0.4946 -0.0423
11204SOL    HW137528   5.722   6.011   4.465  0.5747 -1.1959 -1.2048
11204SOL    HW237529   5.624   6.043   4.353 -0.9332 -1.5168 -0.0108
11205SOL     OW37530   1.357   4.166   0.725 -0.2887 -0.5918  0.2798
11205SOL    HW137531   1.419   4.220   0.675 -0.2563 -0.2822  0.6529
11205SOL    HW237532   1.288   4.145   0.662 -0.4729  0.1648  0.2184
11206SOL     OW37533   1.804   6.014   4.924 -0.4237 -0.4467  0.0111
11206SOL    HW137534   1.800   5.962   5.004 -0.8084 -2.1879 -1.0835
11206SOL    HW237535   1.719   6.059   4.920 -0.4128 -0.3752  0.5552
11207SOL     OW37536   5.586  10.171   0.807 -0.1886  0.3897 -0.1203
11207SOL    HW137537   5.569  10.176   0.901  1.0033  0.8873  0.0836
11207SOL    HW237538   5.517  10.225   0.768  0.7191  2.2019  0.6589
11208SOL     OW37539   8.218  10.020   2.552 -0.0058 -0.3131 -0.0092
11208SOL    HW137540   8.292   9.998   2.608  0.3819 -1.0579 -0.7911
11208SOL    HW237541   8.252  10.084   2.490 -0.4451  0.5444  0.6131
11209SOL     OW37542   1.139   4.869   0.572 -0.3585 -0.0463  0.5982
11209SOL    HW137543   1.077   4.901   0.506  0.1846 -0.8291 -0.3164
11209SOL    HW237544   1.134   4.774   0.565 -0.6987 -0.1598  2.0973
11210SOL     OW37545   2.688   9.882   5.614 -0.1367  0.2313 -0.1279
11210SOL    HW137546   2.598   9.868   5.644 -0.1714 -0.5442 -0.5567
11210SOL    HW237547   2.743   9.844   5.683 -0.1972 -0.7988 -0.6131
11211SOL     OW37548   7.171   7.376   4.526 -0.3498 -0.5759  0.0699
11211SOL    HW137549   7.127   7.445   4.476  2.2611  2.3635  1.4571
11211SOL    HW237550   7.138   7.386   4.615  1.9188  0.7626  0.8369
11212SOL     OW37551  10.063   4.722   1.011  0.0734  0.0945  0.0043
11212SOL    HW137552  10.127   4.713   1.082 -1.4398  1.1777  1.6163
11212SOL    HW237553  10.064   4.816   0.990 -1.0007  0.1412  0.1114
11213SOL     OW37554   9.984   9.537   5.606  0.1265  0.2471 -0.1050
11213SOL    HW137555   9.984   9.476   5.532 -0.2422 -1.9411  1.5922
11213SOL    HW237556  10.075   9.566   5.612  0.7365 -1.5207  0.0454
11214SOL     OW37557   7.285   4.113   4.200  0.5525  0.0396 -0.2587
11214SOL    HW137558   7.237   4.182   4.247  0.7042 -0.7082  1.0376
11214SOL    HW237559   7.309   4.050   4.268  0.5919 -1.2060 -1.3939
11215SOL     OW37560   0.453   0.506   1.363  0.1104  0.1552  0.6147
11215SOL    HW137561   0.376   0.532   1.313  0.3835 -0.2618 -0.0379
11215SOL    HW237562   0.436   0.414   1.386  0.8387 -0.2370 -0.3701
11216SOL     OW37563   1.325   8.816   2.799  0.1593  0.2277 -0.2628
11216SOL    HW137564   1.383   8.855   2.734 -1.6664  1.9092 -0.9917
11216SOL    HW237565   1.350   8.724   2.802  2.0390  0.6571 -1.3907
11217SOL     OW37566   3.695   7.980   1.654  0.7261 -0.7569  0.6224
11217SOL    HW137567   3.703   7.937   1.738  0.3769 -0.4971  0.7893
11217SOL    HW237568   3.726   8.070   1.670  0.8631 -0.7667  0.4238
11218SOL     OW37569   3.488   4.434   7.358 -0.1179 -0.2554  0.2003
11218SOL    HW137570   3.433   4.493   7.307  1.0020  0.2584 -0.4547
11218SOL    HW237571   3.427   4.369   7.394 -1.0662 -0.0513 -0.9785
11219SOL     OW37572   7.238   7.783   2.794  0.1293 -0.1958  0.1493
11219SOL    HW137573   7.258   7.692   2.775  1.2007 -0.1679  0.9977
11219SOL    HW237574   7.161   7.803   2.741 -0.6076 -1.8127  0.5511
11220SOL     OW37575   8.049   7.888   4.058  0.3470 -0.1870  0.1116
11220SOL    HW137576   7.990   7.940   4.004  0.4826 -1.1282 -0.9728
11220SOL    HW237577   8.134   7.931   4.050 -0.0728  0.9708  1.4026
11221SOL     OW37578  10.159   9.364   1.256 -0.0851  0.3790  0.3938
11221SOL    HW137579  10.097   9.357   1.329 -0.8256 -1.4057 -0.3484
11221SOL    HW237580  10.114   9.418   1.191 -0.3125  0.1822  0.3889
11222SOL     OW37581   6.725   7.202   1.285  0.3409 -0.5138  0.6533
11222SOL    HW137582   6.666   7.206   1.359 -0.5888 -2.6394  0.1125
11222SOL    HW237583   6.690   7.265   1.222 -0.2527 -0.4182  1.0745
11223SOL     OW37584   0.645   3.268   2.377 -0.5883  0.0552  0.7102
11223SOL    HW137585   0.682   3.300   2.460 -0.0125  1.0466  0.1025
11223SOL    HW237586   0.721   3.237   2.328 -0.8501  0.0001  0.3379
11224SOL     OW37587   4.793   6.467  10.015  0.2328  0.1815 -0.4333
11224SOL    HW137588   4.700   6.459  10.036  0.8824 -0.7616  2.5068
11224SOL    HW237589   4.809   6.561  10.009 -0.6815  0.3931  0.3016
11225SOL     OW37590   3.516   5.988   4.186 -0.6535  0.4637  0.0227
11225SOL    HW137591   3.466   6.066   4.207 -1.1634  0.3824 -0.8408
11225SOL    HW237592   3.589   6.019   4.133  0.2998  0.5938  1.3554
11226SOL     OW37593   5.631   0.345   5.795 -0.5203 -0.1919  0.6313
11226SOL    HW137594   5.635   0.430   5.749 -1.7072 -0.7194 -0.5034
11226SOL    HW237595   5.714   0.340   5.842  0.5057  0.6535 -1.0044
11227SOL     OW37596   8.605   1.086   2.827  0.1279 -0.5898 -0.4379
11227SOL    HW137597   8.660   1.050   2.897 -0.6609  2.0085  1.6787
11227SOL    HW237598   8.645   1.170   2.805 -2.2791  0.8671  0.3861
11228SOL     OW37599  10.048   5.222   4.956  0.0652  0.4484  0.2233
11228SOL    HW137600   9.994   5.301   4.959  0.7028  0.9827 -1.5859
11228SOL    HW237601   9.992   5.156   4.916 -0.1354  0.2216  0.8528
11229SOL     OW37602   5.344   3.303   3.710 -0.4442 -0.8754  0.2242
11229SOL    HW137603   5.410   3.244   3.675  0.1692 -1.1983  1.8610
11229SOL    HW237604   5.260   3.263   3.686 -0.0805 -0.8083 -1.2815
11230SOL     OW37605   3.364  10.070   9.428 -0.4007 -0.2862 -0.2730
11230SOL    HW137606   3.288  10.114   9.390 -0.8690 -0.7369  0.1300
11230SOL    HW237607   3.327  10.002   9.484  0.2799  0.0435  0.6096
11231SOL     OW37608   6.526   0.846   6.124 -0.1094  0.3205 -0.0432
11231SOL    HW137609   6.501   0.778   6.186  1.4078 -0.3967 -0.1926
11231SOL    HW237610   6.506   0.809   6.038  1.6814 -0.4130 -0.1886
11232SOL     OW37611   6.603   4.520   5.250 -0.0910 -0.3902 -0.2590
11232SOL    HW137612   6.545   4.535   5.325  1.5033  0.9706  0.7862
11232SOL    HW237613   6.545   4.521   5.174 -1.3133  2.9749  0.5212
11233SOL     OW37614   3.435   9.877   3.205 -0.1637 -0.7843 -0.0131
11233SOL    HW137615   3.432   9.971   3.220  0.8124 -0.8664  0.7247
11233SOL    HW237616   3.526   9.852   3.220 -0.7270 -2.1160  1.5524
11234SOL     OW37617   6.451   0.259   3.934  0.1824  0.0180  0.2412
11234SOL    HW137618   6.476   0.168   3.922  0.9061  0.3780 -1.2571
11234SOL    HW237619   6.394   0.259   4.011  0.5448 -1.6138  0.5395
11235SOL     OW37620   6.431   3.200   6.148  0.2260  0.3088  0.2919
11235SOL    HW137621   6.513   3.152   6.161  0.5550  0.4019 -1.2049
11235SOL    HW237622   6.385   3.150   6.080 -0.5527  0.7588  0.4752
11236SOL     OW37623   8.802   5.854   6.027  0.0224  0.7912 -0.3222
11236SOL    HW137624   8.749   5.817   5.956  0.0104  1.2223 -0.5409
11236SOL    HW237625   8.860   5.916   5.984 -2.0173  3.3504  0.3214
11237SOL     OW37626   7.240   0.118   0.781 -0.3218 -0.3025 -0.3604
11237SOL    HW137627   7.232   0.049   0.715 -2.2752  0.4143 -0.9290
11237SOL    HW237628   7.228   0.199   0.733  2.0382  0.5047  0.2920
11238SOL     OW37629   4.690   2.767   3.377  0.1819 -0.4362  0.6221
11238SOL    HW137630   4.746   2.759   3.454 -0.8146 -1.4640  1.2687
11238SOL    HW237631   4.601   2.776   3.412 -0.4470 -2.2334 -0.3803
11239SOL     OW37632   0.745   7.027   0.767 -0.4087 -0.6489  0.3986
11239SOL    HW137633   0.798   6.949   0.754  0.8133  0.4701 -2.1107
11239SOL    HW237634   0.692   7.008   0.844  2.3037 -2.5553  1.9488
11240SOL     OW37635   2.570   9.886   2.679  0.1429 -0.4258 -0.4599
11240SOL    HW137636   2.650   9.876   2.628  0.4274  0.7810 -0.2982
11240SOL    HW237637   2.559   9.981   2.688 -0.7966 -0.5839  0.3141
11241SOL     OW37638   9.295   1.366   8.244 -0.1233 -0.2137  0.8006
11241SOL    HW137639   9.384   1.337   8.265  0.5690  1.3968  0.3287
11241SOL    HW237640   9.269   1.313   8.169  0.6294 -0.4130  0.6760
11242SOL     OW37641   0.824   0.752   6.411  0.5908  0.0142 -0.6993
11242SOL    HW137642   0.786   0.666   6.426 -1.7429  0.7251 -1.9155
11242SOL    HW237643   0.750   0.806   6.383  2.1447  2.1698 -0.9204
11243SOL     OW37644   7.286   0.788   1.721 -0.0477 -0.1345  0.2673
11243SOL    HW137645   7.362   0.807   1.666  0.1013  2.2663  1.1886
11243SOL    HW237646   7.221   0.753   1.660  0.9990 -0.0584 -0.9419
11244SOL     OW37647   6.742   4.222   9.083  0.1380  0.1349  0.1301
11244SOL    HW137648   6.696   4.146   9.048  0.6488  0.1581 -0.6096
11244SOL    HW237649   6.738   4.287   9.013 -2.3969  1.7246  1.5703
11245SOL     OW37650   9.869   6.282   5.873 -0.0319 -0.0605  0.3837
11245SOL    HW137651   9.955   6.249   5.899  0.8907  2.0304  0.1299
11245SOL    HW237652   9.868   6.373   5.901 -1.6873  0.3093 -0.7211
11246SOL     OW37653   3.870   4.959   4.040 -0.1042 -0.3836  0.2337
11246SOL    HW137654   3.874   4.863   4.045  0.8564 -0.4011 -0.5485
11246SOL    HW237655   3.875   4.988   4.131 -0.8228 -1.0832  0.5046
11247SOL     OW37656   8.879   9.773   6.684  0.0605  0.4076  0.2213
11247SOL    HW137657   8.823   9.783   6.761 -1.6187  1.2233 -1.0394
11247SOL    HW237658   8.968   9.785   6.717 -0.3240 -2.1055  2.5029
11248SOL     OW37659   7.325   8.446   8.158  0.2781  0.1995 -0.3118
11248SOL    HW137660   7.299   8.380   8.093  0.8441 -0.7217  0.3770
11248SOL    HW237661   7.270   8.521   8.138 -0.1561 -0.3624 -1.3289
11249SOL     OW37662   5.466   7.130   9.829  0.2981 -0.0531  0.4119
11249SOL    HW137663   5.536   7.147   9.766 -0.3533 -0.0565 -0.3282
11249SOL    HW237664   5.447   7.037   9.821 -0.5064  0.1497 -0.1608
11250SOL     OW37665   1.498   5.770   4.527  0.7939 -0.1156 -0.4896
11250SOL    HW137666   1.430   5.832   4.496 -1.8434 -1.2242  2.5444
11250SOL    HW237667   1.573   5.826   4.546  0.2574  1.4265 -2.4360
11251SOL     OW37668   7.085   0.924   6.217 -0.1880  0.1921 -0.1394
11251SOL    HW137669   7.071   0.848   6.273  0.6401  0.2934  0.2204
11251SOL    HW237670   7.026   0.991   6.251  1.7549  0.9445  1.9597
11252SOL     OW37671   1.381   1.023   0.785  0.0448 -0.2026 -0.3082
11252SOL    HW137672   1.366   0.984   0.872 -1.2843 -1.5589 -1.1067
11252SOL    HW237673   1.322   0.976   0.727  1.3850  0.2288 -2.0986
11253SOL     OW37674   7.929   0.950   3.537 -0.3826  0.7710  0.2287
11253SOL    HW137675   7.961   0.921   3.452 -0.9464  0.0297  0.2568
11253SOL    HW237676   7.858   1.011   3.516  0.2324  1.4785  0.1716
11254SOL     OW37677   2.479   5.672   5.905  0.0121  0.4383  0.1412
11254SOL    HW137678   2.569   5.673   5.871 -0.3868  0.6304 -0.9134
11254SOL    HW237679   2.424   5.694   5.830 -1.0261 -0.8324  0.5043
11255SOL     OW37680   5.760   9.086   7.725  0.5448  0.1242  0.6185
11255SOL    HW137681   5.847   9.120   7.701 -0.1346  2.1292  0.8071
11255SOL    HW237682   5.711   9.086   7.642  0.6892 -1.0215  0.5089
11256SOL     OW37683   0.896   0.169   3.544 -0.3408  0.5151 -0.0407
11256SOL    HW137684   0.915   0.252   3.500 -0.1100  1.5401  1.9049
11256SOL    HW237685   0.971   0.155   3.603 -1.5770  0.2686  1.5323
11257SOL     OW37686   3.574   9.740   4.732  0.1622  0.3750  0.0002
11257SOL    HW137687   3.653   9.701   4.768 -0.4491 -1.4068 -0.4835
11257SOL    HW237688   3.597   9.765   4.643  0.3313  0.3151  0.0277
11258SOL     OW37689   7.287   2.120   8.552 -0.3921  0.3229  0.5257
11258SOL    HW137690   7.329   2.146   8.634  0.0955 -0.9045  0.6768
11258SOL    HW237691   7.336   2.166   8.484 -0.3974  0.8469  0.8658
11259SOL     OW37692   6.236   4.020   4.670  0.2363  0.0480  0.1823
11259SOL    HW137693   6.277   4.102   4.641  0.8511 -0.2165  0.2958
11259SOL    HW237694   6.187   3.990   4.593 -0.4142  0.7781  0.2955
11260SOL     OW37695   7.298   8.932   9.765 -0.8282  0.0467 -0.7135
11260SOL    HW137696   7.313   9.026   9.765  0.1881 -0.0922  0.0281
11260SOL    HW237697   7.204   8.922   9.777 -0.8966  0.9676 -0.4338
11261SOL     OW37698   9.566   8.867   5.161  0.3987 -0.3708 -0.1843
11261SOL    HW137699   9.621   8.888   5.085 -0.2423  1.5059 -0.1682
11261SOL    HW237700   9.628   8.854   5.232  0.9037  0.7389 -0.3975
11262SOL     OW37701   5.077   7.957   6.693 -0.0461 -0.3422 -0.0800
11262SOL    HW137702   5.102   7.954   6.785  1.5413  0.3050 -0.4575
11262SOL    HW237703   5.087   8.049   6.669 -2.2714 -0.1507 -0.4512
11263SOL     OW37704   6.647   7.952   8.869  0.0218 -0.5725 -0.3678
11263SOL    HW137705   6.634   7.919   8.780  1.8389 -1.1572 -0.4743
11263SOL    HW237706   6.664   8.045   8.858 -2.0097 -0.1726 -0.3827
11264SOL     OW37707   7.082   5.292   8.760  0.2637  0.2618 -0.2418
11264SOL    HW137708   7.168   5.262   8.789 -1.2434 -2.5391  1.7376
11264SOL    HW237709   7.042   5.330   8.839 -1.2801 -0.9535 -0.3894
11265SOL     OW37710   5.130   6.036   6.660 -0.5410 -0.7378  0.0269
11265SOL    HW137711   5.212   6.086   6.663 -0.3709 -0.8787 -1.6077
11265SOL    HW237712   5.105   6.026   6.752 -0.1285  1.6203  0.4580
11266SOL     OW37713   8.604   6.849   8.892 -0.1377 -0.0832  0.0394
11266SOL    HW137714   8.617   6.774   8.950 -1.0423  0.1876  0.6096
11266SOL    HW237715   8.652   6.920   8.934  1.3138 -0.4851 -0.8645
11267SOL     OW37716   7.549   7.317   9.316 -0.2352 -0.2751 -0.0689
11267SOL    HW137717   7.560   7.393   9.259 -0.8160  1.3150  1.8120
11267SOL    HW237718   7.607   7.334   9.390 -0.6057 -1.5323  0.5342
11268SOL     OW37719   7.658   1.601   8.222 -0.1311  0.3087  0.2588
11268SOL    HW137720   7.641   1.507   8.223 -1.8363  0.5573  2.5631
11268SOL    HW237721   7.587   1.638   8.170  0.2949  0.3827 -0.2826
11269SOL     OW37722   2.660   2.305   6.936  0.2975 -0.4471 -0.5040
11269SOL    HW137723   2.739   2.254   6.921  1.1375  0.0182  1.8146
11269SOL    HW237724   2.589   2.241   6.939  0.8341 -1.0692 -1.0135
11270SOL     OW37725   6.673   4.080   3.757 -0.1080  0.5240 -0.1871
11270SOL    HW137726   6.721   4.157   3.724  2.6177 -0.6265  0.7575
11270SOL    HW237727   6.641   4.035   3.679 -0.9875  2.1113 -0.7894
11271SOL     OW37728   4.531   1.209   0.755 -0.3857  0.0781 -0.0725
11271SOL    HW137729   4.526   1.160   0.837 -0.3557  1.1057  0.5648
11271SOL    HW237730   4.504   1.298   0.779 -1.0415  0.2284 -1.3243
11272SOL     OW37731   8.309   0.356   0.890 -0.1722  0.2068 -0.2835
11272SOL    HW137732   8.330   0.266   0.864 -1.2477 -0.5484  1.3299
11272SOL    HW237733   8.214   0.361   0.884 -0.3638  0.4247  1.9926
11273SOL     OW37734   0.380   6.987   8.666 -0.3156 -0.1621  0.4326
11273SOL    HW137735   0.310   6.935   8.627  1.0109 -3.0313  1.6295
11273SOL    HW237736   0.341   7.023   8.746 -0.5625 -1.4164  0.8967
11274SOL     OW37737  10.199   0.338   4.784  0.1680  0.4400  0.5194
11274SOL    HW137738  10.171   0.424   4.816  0.6090  0.6641  0.3241
11274SOL    HW237739  10.179   0.339   4.691  0.6970  0.5559  0.4029
11275SOL     OW37740   3.704   5.159   8.253 -0.8035  0.1776  0.2711
11275SOL    HW137741   3.646   5.211   8.308  1.5356  1.1980  1.9366
11275SOL    HW237742   3.790   5.201   8.262 -0.2999  0.7391 -4.6292
11276SOL     OW37743   9.042   5.753   2.236  0.3417  0.1183 -0.3934
11276SOL    HW137744   8.986   5.720   2.306 -1.2334  2.7793 -0.2473
11276SOL    HW237745   9.001   5.721   2.155  0.4323 -0.5182 -0.1872
11277SOL     OW37746  10.064   7.987   9.636  0.1489 -0.0667  0.4080
11277SOL    HW137747   9.988   7.955   9.684 -2.1609  3.3875 -0.6380
11277SOL    HW237748  10.075   7.925   9.564 -0.0109 -1.9985  1.9558
11278SOL     OW37749   2.590   5.796   5.537 -0.0281 -0.2855  0.0332
11278SOL    HW137750   2.658   5.833   5.594 -0.8957  1.3380  0.0931
11278SOL    HW237751   2.638   5.744   5.473  1.1915  0.0873  0.6122
11279SOL     OW37752   7.993   4.916   6.805 -0.4050 -0.1830 -0.1477
11279SOL    HW137753   7.915   4.870   6.774 -0.9869 -1.8048  3.3049
11279SOL    HW237754   8.059   4.847   6.814 -0.8859 -0.3476  3.8578
11280SOL     OW37755   0.737   9.195   4.519  0.3687  0.1394  0.5015
11280SOL    HW137756   0.687   9.206   4.600  1.1533  0.7526  0.9153
11280SOL    HW237757   0.682   9.234   4.451 -2.0056 -3.5071  0.0296
11281SOL     OW37758   4.429   5.408   9.062 -0.0611  0.3643 -0.1056
11281SOL    HW137759   4.362   5.470   9.089  0.0012 -0.0288  0.9828
11281SOL    HW237760   4.395   5.322   9.089  0.4156  0.0472 -0.4846
11282SOL     OW37761   4.935   3.091   6.042 -0.0569 -0.3326  0.7079
11282SOL    HW137762   4.861   3.151   6.045 -0.4314 -0.7832  0.7175
11282SOL    HW237763   4.955   3.072   6.134  1.3565  1.3119  0.7874
11283SOL     OW37764   6.617   9.178   5.956  0.2230  0.2940  0.0141
11283SOL    HW137765   6.599   9.244   5.889 -0.7491 -0.7668 -0.8090
11283SOL    HW237766   6.573   9.099   5.924  2.7170 -1.2385  0.1365
11284SOL     OW37767   5.804   6.115   5.337 -0.1530 -0.5767  0.1578
11284SOL    HW137768   5.853   6.095   5.257  0.9627 -1.3635  1.0234
11284SOL    HW237769   5.773   6.205   5.324  2.9641  0.6044  0.2722
11285SOL     OW37770   2.003   4.593   2.785  0.2538  0.2687 -0.0958
11285SOL    HW137771   2.081   4.542   2.763  0.0268  0.8199 -2.3826
11285SOL    HW237772   1.935   4.527   2.798  0.1935 -0.0946 -2.0696
11286SOL     OW37773   9.764   6.759   4.638 -0.6558 -0.1784 -0.0681
11286SOL    HW137774   9.772   6.668   4.668  1.2177  0.2045  0.7573
11286SOL    HW237775   9.711   6.801   4.706  0.1469 -0.2407  0.6231
11287SOL     OW37776   3.176   5.340   6.311  0.6032  0.3939  0.3927
11287SOL    HW137777   3.211   5.340   6.222  0.6395  0.1513  0.4076
11287SOL    HW237778   3.084   5.364   6.300  0.3177 -0.7367  0.1731
11288SOL     OW37779   5.024   4.707   8.582  1.1390 -0.1764 -0.3598
11288SOL    HW137780   4.943   4.685   8.536  0.1716  0.3061  1.0213
11288SOL    HW237781   5.093   4.664   8.532  0.2684  0.8531 -2.6232
11289SOL     OW37782   1.943   1.247   7.810 -0.0174  0.7560  0.3785
11289SOL    HW137783   1.871   1.278   7.866 -0.0533 -0.8709  1.2780
11289SOL    HW237784   2.008   1.317   7.815 -0.1075  0.7426  2.3107
11290SOL     OW37785   8.236   7.476   2.225 -0.2812  0.3545  0.0850
11290SOL    HW137786   8.322   7.514   2.241  0.3597 -0.7557 -0.6378
11290SOL    HW237787   8.238   7.449   2.133 -1.6794  1.0007 -0.1649
11291SOL     OW37788   2.113   3.760   4.416  0.8435  0.5122  0.4117
11291SOL    HW137789   2.089   3.686   4.360 -0.2239  1.2259 -0.1106
11291SOL    HW237790   2.149   3.825   4.355 -0.0259  1.1696  0.5841
11292SOL     OW37791   1.345   5.256   2.502  0.1077  0.5412  0.2735
11292SOL    HW137792   1.403   5.300   2.563  0.5742  0.9824 -0.4753
11292SOL    HW237793   1.264   5.308   2.504 -0.1810  0.0831  1.1093
11293SOL     OW37794   6.675   9.348   6.761  0.2907  0.1313  0.4016
11293SOL    HW137795   6.684   9.413   6.830  1.0360 -0.9291  1.3541
11293SOL    HW237796   6.761   9.346   6.718  0.5512 -0.7824  0.9279
11294SOL     OW37797   7.292   1.049   1.914 -0.7886  0.4701 -0.2629
11294SOL    HW137798   7.226   1.001   1.865 -0.0833  0.0996 -0.8658
11294SOL    HW237799   7.372   1.041   1.862  1.0103 -3.0326  2.5575
11295SOL     OW37800   3.870   9.588   0.682 -0.1271 -0.0792  0.2270
11295SOL    HW137801   3.885   9.678   0.711  3.3837 -0.3529 -0.2145
11295SOL    HW237802   3.893   9.535   0.758 -1.4906 -0.6349  0.2633
11296SOL     OW37803   5.005   2.000   0.370 -0.3071 -0.2121 -0.3382
11296SOL    HW137804   5.079   2.023   0.313  0.0577  0.5609  0.4346
11296SOL    HW237805   5.037   1.925   0.421 -0.7846 -1.1911 -1.4139
11297SOL     OW37806   9.949   6.411   2.904 -0.0151  0.3336  0.4562
11297SOL    HW137807   9.864   6.399   2.946 -0.1039 -0.9394 -0.0568
11297SOL    HW237808   9.973   6.324   2.872  0.8440  0.9372 -0.6105
11298SOL     OW37809   7.700   9.169   5.468  0.4485  0.1800 -0.0177
11298SOL    HW137810   7.767   9.214   5.521 -1.4882  1.2800  1.6924
11298SOL    HW237811   7.681   9.230   5.397 -1.0670  1.4716  1.4202
11299SOL     OW37812   4.208   2.904   7.952 -0.4164 -0.2900  0.1226
11299SOL    HW137813   4.143   2.868   7.892 -0.9276 -1.7408  1.4744
11299SOL    HW237814   4.252   2.973   7.901 -1.1221 -1.1366 -1.7370
11300SOL     OW37815   1.320   9.861   8.254 -0.1417 -0.6036 -0.6539
11300SOL    HW137816   1.234   9.859   8.213 -0.3545 -1.5048 -0.1956
11300SOL    HW237817   1.352   9.950   8.239 -2.0238  0.4264  0.9356
11301SOL     OW37818   3.563   6.591   0.368 -0.1450  0.1274 -0.0520
11301SOL    HW137819   3.606   6.659   0.316  0.7734  0.6103  1.2872
11301SOL    HW237820   3.631   6.560   0.428 -0.3195 -2.4953 -1.0543
11302SOL     OW37821   5.385   7.435   0.323  0.2618  0.3655  0.5745
11302SOL    HW137822   5.398   7.350   0.282 -2.5118  1.4921 -3.2778
11302SOL    HW237823   5.425   7.498   0.262  1.2458  1.9797  2.7302
11303SOL     OW37824   2.915   5.672   6.747  0.1846  0.8337  0.6650
11303SOL    HW137825   2.877   5.633   6.667  0.3619 -0.4096  1.1608
11303SOL    HW237826   2.983   5.731   6.715  0.4276  0.1542 -0.0991
11304SOL     OW37827   3.788   7.047   8.961 -0.4793  0.2484 -0.4932
11304SOL    HW137828   3.723   7.021   8.896 -1.1899 -1.5829  0.8661
11304SOL    HW237829   3.866   7.068   8.910 -1.5013  0.5114 -2.0192
11305SOL     OW37830   6.252   6.288   0.339 -0.1529 -0.0339 -0.0824
11305SOL    HW137831   6.242   6.362   0.279 -2.3448  0.4935  0.8318
11305SOL    HW237832   6.279   6.215   0.283  0.0384  0.9655 -1.3303
11306SOL     OW37833   5.296   5.598   8.431 -0.0207  0.1617  0.4003
11306SOL    HW137834   5.293   5.539   8.356  1.5992  0.6820 -0.1223
11306SOL    HW237835   5.359   5.558   8.491 -0.1160  0.5401  0.7574
11307SOL     OW37836   7.085   0.332   3.405  0.2900 -0.2549 -0.3589
11307SOL    HW137837   7.051   0.243   3.409 -0.6800  0.1429  0.7481
11307SOL    HW237838   7.099   0.357   3.496 -2.4466  1.8076 -0.3697
11308SOL     OW37839   6.816   3.397   9.704  0.5952 -0.4033  0.4397
11308SOL    HW137840   6.889   3.335   9.707  1.1382  0.1945 -0.1724
11308SOL    HW237841   6.746   3.348   9.661  0.6402 -0.9716  0.9963
11309SOL     OW37842   5.265   9.380   1.585  0.1028  0.0221  0.2311
11309SOL    HW137843   5.192   9.414   1.637 -1.2820 -0.7171 -1.1510
11309SOL    HW237844   5.245   9.406   1.495 -0.1674 -2.9521 -0.6567
11310SOL     OW37845   4.779   4.904   2.406  0.5491 -0.5476 -0.0197
11310SOL    HW137846   4.730   4.986   2.410  1.6210  0.0700  1.2157
11310SOL    HW237847   4.716   4.840   2.374 -0.4397  0.6564 -0.5536
11311SOL     OW37848   8.333   8.203   6.986 -0.3472 -0.5038  0.1188
11311SOL    HW137849   8.414   8.167   7.023  0.8307  0.2774 -1.5573
11311SOL    HW237850   8.321   8.286   7.032  0.1988 -0.2999 -0.0949
11312SOL     OW37851   3.292   3.412   7.652  0.5406 -0.0148 -0.3313
11312SOL    HW137852   3.321   3.411   7.743 -0.5650  0.7045  0.0585
11312SOL    HW237853   3.231   3.338   7.645 -0.5140  0.7959 -0.0564
11313SOL     OW37854   2.007   4.747   1.680 -0.2950 -0.4003 -0.2629
11313SOL    HW137855   2.101   4.751   1.697 -0.5857 -0.0123  1.5204
11313SOL    HW237856   1.967   4.779   1.761 -2.0338 -3.4254  0.2162
11314SOL     OW37857   2.523   2.712   2.924 -0.0029  0.0173  0.0928
11314SOL    HW137858   2.595   2.651   2.933  0.9120  0.8616 -1.1288
11314SOL    HW237859   2.467   2.674   2.856 -0.9493 -0.8236  1.2994
11315SOL     OW37860   1.104   5.725   1.368 -0.5990  0.3875  0.5619
11315SOL    HW137861   1.065   5.640   1.347 -0.5866  0.0656  1.7760
11315SOL    HW237862   1.179   5.704   1.423  0.1707  1.1219 -0.1854
11316SOL     OW37863   4.248   2.063   3.872 -0.2907  0.1677  0.6383
11316SOL    HW137864   4.291   2.087   3.953 -1.1675  1.2575  0.7995
11316SOL    HW237865   4.301   2.105   3.803 -0.9653  1.3641  0.8240
11317SOL     OW37866   3.533   6.355   4.589 -0.0936  0.4129 -0.2125
11317SOL    HW137867   3.461   6.295   4.571  0.3053  0.0675 -0.6960
11317SOL    HW237868   3.491   6.439   4.605 -0.6662 -0.0185  0.5786
11318SOL     OW37869   4.062   7.299   8.394 -0.0715 -0.3609 -0.2738
11318SOL    HW137870   4.073   7.344   8.478  0.0123  0.2588 -0.6047
11318SOL    HW237871   3.987   7.241   8.406  0.4545 -0.8979  0.4798
11319SOL     OW37872   6.080   1.037   7.022  0.2272 -0.5643 -0.2750
11319SOL    HW137873   6.110   1.077   6.941  0.2662 -1.1590 -0.5584
11319SOL    HW237874   6.060   0.946   6.998 -0.5918 -0.5139  0.1878
11320SOL     OW37875   1.113   1.295   5.701  0.6145 -0.5507  0.3812
11320SOL    HW137876   1.112   1.249   5.617  0.2523  0.7913 -0.3881
11320SOL    HW237877   1.196   1.270   5.741  1.4797 -0.1174 -1.0372
11321SOL     OW37878   1.586   7.957  10.109 -0.0511  0.3530 -0.1945
11321SOL    HW137879   1.498   7.919  10.111 -0.2670  0.8803  0.8916
11321SOL    HW237880   1.640   7.895  10.159  0.4400 -0.4965 -1.7075
11322SOL     OW37881   0.345   5.427   6.071  0.6220 -0.2642  0.1483
11322SOL    HW137882   0.373   5.456   5.984 -0.0680 -2.2043 -0.7724
11322SOL    HW237883   0.250   5.424   6.067  0.5080  0.6111  1.3477
11323SOL     OW37884   9.881   7.628   4.289  0.2258 -0.3871  0.2800
11323SOL    HW137885   9.926   7.712   4.297 -0.8491  0.0781  1.9288
11323SOL    HW237886   9.926   7.584   4.217  1.2634  1.3070 -0.1784
11324SOL     OW37887   7.342   2.503   1.203 -0.0465 -0.0772 -0.4786
11324SOL    HW137888   7.313   2.434   1.262 -0.7055  0.9398  0.4077
11324SOL    HW237889   7.436   2.511   1.220  0.2007 -1.2984 -1.1808
11325SOL     OW37890   5.639   0.688   9.491 -0.6127 -0.1226 -0.1506
11325SOL    HW137891   5.576   0.672   9.561  2.9695 -4.0113  2.6980
11325SOL    HW237892   5.622   0.620   9.426 -1.2123  0.7882 -0.9782
11326SOL     OW37893   0.164   3.497   1.315  0.0533 -0.5286  0.4942
11326SOL    HW137894   0.128   3.477   1.229 -0.8573 -1.2663  1.0339
11326SOL    HW237895   0.196   3.587   1.307 -0.7425 -0.3052 -0.3788
11327SOL     OW37896   5.611   6.116   3.425 -0.2490 -0.0420  0.6687
11327SOL    HW137897   5.677   6.164   3.475  1.9209 -1.4021 -0.7303
11327SOL    HW237898   5.614   6.157   3.338  0.9397 -1.9615 -0.2541
11328SOL     OW37899   6.897   0.475   9.376 -0.5311  0.1337  0.2967
11328SOL    HW137900   6.909   0.528   9.298 -2.1111 -0.8165 -0.6487
11328SOL    HW237901   6.915   0.534   9.449  3.2379  0.4935 -0.7126
11329SOL     OW37902   0.125   6.766   7.133  0.8226 -0.3574  0.1629
11329SOL    HW137903   0.069   6.689   7.140  0.9421 -0.6216 -1.4391
11329SOL    HW237904   0.070   6.839   7.161  0.0015 -0.7534 -0.3863
11330SOL     OW37905   5.263   0.484   9.800  0.4209 -0.0713 -0.1652
11330SOL    HW137906   5.208   0.525   9.732 -1.2770 -1.1623  0.4616
11330SOL    HW237907   5.288   0.400   9.761 -0.5110 -0.6749  0.5047
11331SOL     OW37908   3.414   4.968   5.938  0.8395 -0.0948  0.2315
11331SOL    HW137909   3.471   4.914   5.993  2.3573 -0.5067 -1.6171
11331SOL    HW237910   3.334   4.916   5.929  1.3559 -0.9520  0.4003
11332SOL     OW37911   2.603   0.328   7.621  0.0456 -0.2635  0.0212
11332SOL    HW137912   2.690   0.303   7.589  0.3895  0.8563  0.0375
11332SOL    HW237913   2.547   0.253   7.599  0.7467 -0.4688 -1.1580
11333SOL     OW37914   7.949   9.072   1.260  0.0942 -0.1021 -0.0124
11333SOL    HW137915   7.931   9.012   1.187  0.4219 -0.9893  0.6131
11333SOL    HW237916   7.904   9.153   1.237  0.5545 -0.2116 -1.4154
11334SOL     OW37917   5.614   6.096   3.818 -0.4916  0.4008  0.2099
11334SOL    HW137918   5.621   6.187   3.789 -1.1360  1.0164  1.8644
11334SOL    HW237919   5.522   6.083   3.838 -0.1249 -0.0118  1.7842
11335SOL     OW37920   1.096   8.806   7.115 -0.1403  0.2098 -0.6562
11335SOL    HW137921   1.014   8.772   7.151  0.4065 -0.3012  0.1583
11335SOL    HW237922   1.126   8.738   7.055  0.0090  0.0849 -0.4460
11336SOL     OW37923   4.185   5.449   6.894 -0.1095  0.1540  0.1957
11336SOL    HW137924   4.095   5.434   6.865 -0.8365  2.5887  0.9198
11336SOL    HW237925   4.197   5.544   6.887  2.1879 -0.0307  0.7575
11337SOL     OW37926   4.359   2.540   0.726 -0.0715  0.1507  0.3833
11337SOL    HW137927   4.275   2.585   0.717  0.0101  0.1890 -0.1956
11337SOL    HW237928   4.400   2.548   0.640 -1.0778 -3.0367 -0.5314
11338SOL     OW37929   9.265   0.601   5.744 -0.5173  0.1155  0.3342
11338SOL    HW137930   9.279   0.688   5.781 -1.3551  0.6138 -0.4616
11338SOL    HW237931   9.348   0.556   5.757  0.2757  1.3735 -0.1144
11339SOL     OW37932   4.368   2.009   1.189  0.5557 -0.1191  0.0241
11339SOL    HW137933   4.364   2.079   1.254 -0.3555  1.1313 -1.3078
11339SOL    HW237934   4.281   1.970   1.189  1.0195 -1.2202  0.6664
11340SOL     OW37935   8.971   2.315   4.028  0.1817  0.4477  0.3937
11340SOL    HW137936   8.970   2.342   3.937  0.9224  3.2978  1.1156
11340SOL    HW237937   8.881   2.328   4.058  0.2773  1.1075  0.4267
11341SOL     OW37938   3.882  10.159   2.356 -0.1389 -0.8352 -0.3164
11341SOL    HW137939   3.920  10.160   2.444  0.9172 -0.8547 -0.7558
11341SOL    HW237940   3.889  10.250   2.326 -0.0709 -0.9204 -0.5586
11342SOL     OW37941   8.116   9.470   6.815  0.1889  0.0455  0.2551
11342SOL    HW137942   8.175   9.530   6.768 -0.0158 -0.7142 -1.0081
11342SOL    HW237943   8.131   9.385   6.775 -0.9491 -0.3794  0.7028
11343SOL     OW37944   6.984   2.455   4.826 -0.3590  0.1921 -0.2151
11343SOL    HW137945   7.011   2.461   4.735 -0.5847  0.1168 -0.2880
11343SOL    HW237946   6.899   2.411   4.823  0.4500 -1.4595  0.1733
11344SOL     OW37947   9.695   9.834   6.078  0.3545  0.4334  0.2298
11344SOL    HW137948   9.633   9.902   6.053  0.7641  0.4029 -0.9205
11344SOL    HW237949   9.691   9.831   6.173  0.2798  2.0183  0.2917
11345SOL     OW37950   4.811   3.170   7.300  0.0511 -0.5142 -0.6375
11345SOL    HW137951   4.725   3.191   7.336  0.7105  0.7677  0.2374
11345SOL    HW237952   4.827   3.238   7.234  0.0323 -1.2635 -1.4413
11346SOL     OW37953   3.866   7.922   6.937 -0.3621  0.5783  0.0403
11346SOL    HW137954   3.819   7.999   6.903  0.6338  0.4308 -1.7824
11346SOL    HW237955   3.825   7.848   6.894  1.5794  0.4590 -1.7738
11347SOL     OW37956   1.401   5.674   0.999  0.1683  0.2479 -0.4936
11347SOL    HW137957   1.403   5.619   1.078  1.9201 -0.5000 -1.0088
11347SOL    HW237958   1.492   5.701   0.986 -0.5912  3.1989 -0.3731
11348SOL     OW37959   8.862   5.203   6.182 -0.4385 -0.2599 -0.8169
11348SOL    HW137960   8.944   5.157   6.200  0.8696  2.2045 -0.0897
11348SOL    HW237961   8.879   5.252   6.101 -1.3517 -0.0411 -0.8921
11349SOL     OW37962   3.848   9.721   4.536 -0.2471  0.0556 -0.4682
11349SOL    HW137963   3.938   9.735   4.505  0.1932  0.6931  1.0182
11349SOL    HW237964   3.846   9.630   4.566  0.8933  0.8987  2.4656
11350SOL     OW37965   6.369   3.648   9.357 -0.7387  0.6061  0.0561
11350SOL    HW137966   6.409   3.680   9.439 -0.1415  0.8403 -0.3188
11350SOL    HW237967   6.387   3.554   9.357 -0.2218  0.7009 -0.0832
11351SOL     OW37968   7.504   9.407   0.823  0.4654  0.1194 -0.0907
11351SOL    HW137969   7.517   9.482   0.880  0.0431  0.5293 -0.5163
11351SOL    HW237970   7.463   9.340   0.878  0.3688  0.3886  0.1616
11352SOL     OW37971   2.030   6.267   6.790 -0.2970 -0.2042 -0.3377
11352SOL    HW137972   2.012   6.344   6.737  3.0824  1.0880  0.1351
11352SOL    HW237973   1.994   6.288   6.876  0.7618  0.9822 -0.1605
11353SOL     OW37974   9.251   7.209   3.457  0.5763 -0.4641  0.2956
11353SOL    HW137975   9.309   7.149   3.410  0.4515  0.1500 -0.6663
11353SOL    HW237976   9.169   7.161   3.466  0.9225 -0.9784  0.8290
11354SOL     OW37977   4.356   0.330   3.213  0.1000 -0.0635 -0.1529
11354SOL    HW137978   4.433   0.384   3.193  0.6427 -1.0345 -0.7471
11354SOL    HW237979   4.281   0.388   3.197  0.6701  0.5324 -0.7400
11355SOL     OW37980   7.174   6.659   2.903  0.5424 -0.0303  0.1685
11355SOL    HW137981   7.232   6.716   2.954  0.3779 -0.2689  0.6271
11355SOL    HW237982   7.126   6.719   2.845 -0.4327  0.4502  1.4180
11356SOL     OW37983   1.425   0.081   6.974 -0.5063 -0.0244 -0.5978
11356SOL    HW137984   1.485   0.024   6.927 -1.1476 -2.8958  1.7984
11356SOL    HW237985   1.478   0.119   7.044 -0.1451  2.3083 -2.0248
11357SOL     OW37986   1.967  10.044   3.710  0.1417 -0.4792 -0.1353
11357SOL    HW137987   1.995   9.997   3.631 -1.5044 -2.2457  0.2509
11357SOL    HW237988   1.872  10.033   3.712 -0.0187  0.8106  1.3220
11358SOL     OW37989   1.207  10.135   3.151  0.2188 -0.6221  0.6116
11358SOL    HW137990   1.271  10.203   3.173  1.7186 -2.1001  1.0140
11358SOL    HW237991   1.170  10.163   3.068  0.7784  0.6968  0.7845
11359SOL     OW37992   4.351   9.370   1.948 -0.3709  0.0329 -0.0426
11359SOL    HW137993   4.400   9.367   1.865 -2.3436  0.8762 -1.3124
11359SOL    HW237994   4.414   9.404   2.012  1.5377 -1.6732 -0.8982
11360SOL     OW37995   2.809   1.180   3.480 -0.2086  0.4209 -0.1834
11360SOL    HW137996   2.892   1.134   3.479 -0.1223  0.5515 -2.4757
11360SOL    HW237997   2.829   1.265   3.520  0.9691  0.7981 -1.5380
11361SOL     OW37998   5.879   2.946   5.005  0.1944 -0.1752 -0.8445
11361SOL    HW137999   5.850   2.997   5.081 -0.1246 -0.2254 -0.9331
11361SOL    HW238000   5.969   2.976   4.990  1.3484 -2.1796  1.3126
11362SOL     OW38001   1.427   1.481   0.321 -0.2092  0.1080 -0.0949
11362SOL    HW138002   1.343   1.437   0.315 -0.3446  0.1755  1.0035
11362SOL    HW238003   1.473   1.457   0.241 -1.3495  0.2523 -0.8142
11363SOL     OW38004   0.921   0.254   0.631 -0.3971 -0.2809  0.2546
11363SOL    HW138005   1.016   0.249   0.630 -0.1835  2.2242  0.9343
11363SOL    HW238006   0.896   0.258   0.538  0.0337 -1.9254  0.0399
11364SOL     OW38007   3.833   6.969   8.292  0.1166  0.2516 -0.2546
11364SOL    HW138008   3.928   6.959   8.295 -0.0192 -1.1089  0.1921
11364SOL    HW238009   3.806   6.970   8.384 -0.3268  0.2425 -0.3814
11365SOL     OW38010   5.260   1.522   2.928  0.0546  0.2600 -0.3962
11365SOL    HW138011   5.340   1.478   2.899  0.5826  1.0192 -0.1498
11365SOL    HW238012   5.219   1.553   2.847  1.6135  2.5205 -0.4069
11366SOL     OW38013   1.530   8.219   5.310  0.4268  0.1651  0.3282
11366SOL    HW138014   1.519   8.128   5.282 -1.4047  1.1012 -2.3446
11366SOL    HW238015   1.462   8.232   5.376 -0.8238  0.1442 -0.9075
11367SOL     OW38016   4.347   6.297   5.514 -0.2180 -0.1928  0.0559
11367SOL    HW138017   4.331   6.248   5.433 -1.8242  0.1504  0.1345
11367SOL    HW238018   4.432   6.267   5.544 -0.7561 -2.2652 -0.3707
11368SOL     OW38019   6.149   8.163   2.423  0.5560  0.1212 -0.1700
11368SOL    HW138020   6.085   8.209   2.477 -0.6199 -0.9822 -0.5704
11368SOL    HW238021   6.226   8.153   2.480 -0.3027 -0.1683  0.9855
11369SOL     OW38022   2.791   2.077   1.594  0.3345  0.2630 -0.3993
11369SOL    HW138023   2.738   2.026   1.655  0.1236  0.9419 -0.0052
11369SOL    HW238024   2.729   2.109   1.529  0.2453  1.0542  0.0592
11370SOL     OW38025   4.096   9.941   6.791 -0.3039 -0.0398 -0.2768
11370SOL    HW138026   4.155   9.876   6.754 -0.0598 -0.3345  0.6130
11370SOL    HW238027   4.077   9.909   6.879 -0.6105  0.8200 -0.0220
11371SOL     OW38028   0.284  10.178   9.947  0.5014 -0.2969 -0.0708
11371SOL    HW138029   0.226  10.102   9.933 -0.7193  0.9323 -2.2783
11371SOL    HW238030   0.244  10.227  10.018 -0.5019 -0.1201 -0.7431
11372SOL     OW38031   1.852   0.055   8.339 -0.3263 -0.6533 -0.0625
11372SOL    HW138032   1.788   0.049   8.409 -0.4119 -1.8608 -0.2369
11372SOL    HW238033   1.922  -0.004   8.364  0.8945  0.8488  0.2612
11373SOL     OW38034   3.790   0.916   5.603 -0.1657 -0.0614 -0.7215
11373SOL    HW138035   3.836   0.843   5.645 -0.0699  0.3627 -0.0640
11373SOL    HW238036   3.698   0.890   5.605  0.0086 -0.7897 -1.7892
11374SOL     OW38037   5.935   2.544   4.256  0.3695  0.1244  0.0308
11374SOL    HW138038   6.014   2.581   4.217  0.0376 -0.9826 -1.8161
11374SOL    HW238039   5.962   2.457   4.286 -0.4048 -0.8309 -1.8717
11375SOL     OW38040   2.116   4.041   7.248  0.4889 -0.0181 -0.2944
11375SOL    HW138041   2.092   4.046   7.156  1.9097 -0.3163 -0.7065
11375SOL    HW238042   2.168   4.120   7.264  1.7160 -0.8195 -0.2190
11376SOL     OW38043   3.386   2.779   4.705 -0.7725 -0.5503 -0.2608
11376SOL    HW138044   3.392   2.779   4.610 -1.6222  0.7096 -0.3473
11376SOL    HW238045   3.429   2.698   4.732  1.5251  0.1588 -1.5543
11377SOL     OW38046   2.783   9.560   0.776 -0.4295 -0.2837 -0.0087
11377SOL    HW138047   2.706   9.561   0.720 -0.4212 -2.1212 -0.1131
11377SOL    HW238048   2.749   9.565   0.865 -0.4592  2.2878 -0.1106
11378SOL     OW38049   8.957   1.138   7.769 -0.5104 -0.0208  0.2128
11378SOL    HW138050   8.897   1.085   7.822 -1.3932 -0.8618 -1.5480
11378SOL    HW238051   8.935   1.115   7.679  1.5588  0.6944 -0.5109
11379SOL     OW38052   6.165   0.578   1.981  0.1318 -0.1863 -0.3446
11379SOL    HW138053   6.147   0.665   1.946 -0.1087  0.2788  0.8938
11379SOL    HW238054   6.173   0.523   1.903 -0.9242  0.6911 -1.1074
11380SOL     OW38055   6.826   0.116   0.983 -0.7941  0.0375 -0.0641
11380SOL    HW138056   6.868   0.166   0.915  0.3801 -1.9173 -0.8617
11380SOL    HW238057   6.796   0.181   1.047 -0.1767  1.7512 -1.4630
11381SOL     OW38058   5.055   8.734   6.278 -0.5294  0.5502  0.3571
11381SOL    HW138059   4.989   8.762   6.342 -0.9394 -1.4039  0.8598
11381SOL    HW238060   5.138   8.748   6.322 -0.6673  1.6123  0.3068
11382SOL     OW38061   8.597   4.322   1.888 -0.1655 -0.5642 -0.2272
11382SOL    HW138062   8.623   4.332   1.797 -1.3392  0.6231 -0.4579
11382SOL    HW238063   8.679   4.326   1.937  0.5184 -1.5902 -1.2360
11383SOL     OW38064   8.730   7.886   3.538 -0.1515  0.4104 -0.0684
11383SOL    HW138065   8.675   7.963   3.528 -0.7926  0.2174  1.6459
11383SOL    HW238066   8.677   7.825   3.589  1.8580  0.4880  2.2843
11384SOL     OW38067   7.656   1.509   8.885 -0.1899  0.4268 -0.2944
11384SOL    HW138068   7.653   1.545   8.796  0.1719 -0.5819 -0.7325
11384SOL    HW238069   7.658   1.414   8.872 -1.0203  0.2359  0.8179
11385SOL     OW38070   1.400   2.256   7.411  0.0049  0.3460 -0.6045
11385SOL    HW138071   1.367   2.253   7.321 -2.8599  2.8685  0.2334
11385SOL    HW238072   1.346   2.192   7.459 -0.3271  0.9512 -0.1650
11386SOL     OW38073   6.620   9.970   1.260 -0.4037  0.2025 -0.1178
11386SOL    HW138074   6.604  10.010   1.174  0.8886  0.1916 -0.3857
11386SOL    HW238075   6.715   9.970   1.269 -0.1557 -4.1507 -0.7892
11387SOL     OW38076   2.330   2.739   6.398  0.4025 -0.1601  0.6473
11387SOL    HW138077   2.409   2.684   6.398 -0.2439 -1.1592 -0.8588
11387SOL    HW238078   2.267   2.688   6.448 -0.4663 -1.2903 -1.4684
11388SOL     OW38079   1.463   2.203   3.795 -0.3987 -0.0490  0.3131
11388SOL    HW138080   1.536   2.141   3.801 -0.2330  0.2589  2.0220
11388SOL    HW238081   1.502   2.282   3.758 -0.2204 -0.3704 -0.2104
11389SOL     OW38082   2.371   0.202   1.445 -0.5602  0.0379 -0.4747
11389SOL    HW138083   2.320   0.282   1.456 -0.8786 -0.4196  1.9368
11389SOL    HW238084   2.332   0.159   1.369 -1.7914  1.1317 -0.4884
11390SOL     OW38085   2.716   6.928   7.348 -0.1667  0.4419 -0.5530
11390SOL    HW138086   2.710   6.917   7.443 -1.3210 -0.3139 -0.6954
11390SOL    HW238087   2.777   6.860   7.320 -0.2803  0.2832 -0.4168
11391SOL     OW38088   9.134   1.267   6.782  0.1593  0.0410 -0.5349
11391SOL    HW138089   9.203   1.229   6.727 -0.1299 -0.5347 -0.5096
11391SOL    HW238090   9.164   1.253   6.871 -0.4216 -1.0756 -0.4966
11392SOL     OW38091   7.787   2.531   2.078 -0.2740  0.1713  0.1814
11392SOL    HW138092   7.860   2.472   2.059  0.1091  0.2901  1.2198
11392SOL    HW238093   7.806   2.565   2.166 -2.2499 -0.8351  1.0597
11393SOL     OW38094   3.573   0.135   9.977  0.4581  0.2907 -0.1528
11393SOL    HW138095   3.612   0.068  10.034 -0.2235 -0.5400 -0.6322
11393SOL    HW238096   3.479   0.132   9.999  0.3770  0.8443 -0.4253
11394SOL     OW38097   2.822   4.691   4.662 -0.7136 -0.3949 -0.7669
11394SOL    HW138098   2.840   4.770   4.713 -2.6230 -0.6671  0.4139
11394SOL    HW238099   2.735   4.705   4.625 -0.8989 -1.7552 -0.8967
11395SOL     OW38100   7.998   0.486   3.676 -0.4872  0.3792  1.2577
11395SOL    HW138101   8.039   0.478   3.762  1.7168  0.7341  0.3174
11395SOL    HW238102   7.952   0.570   3.678  0.4851  0.9143  1.7385
11396SOL     OW38103   6.629   3.892   9.123  0.4108  0.1594  0.2158
11396SOL    HW138104   6.721   3.915   9.108 -0.1859  1.1860 -2.3068
11396SOL    HW238105   6.622   3.802   9.090  0.0183  0.9643 -2.0485
11397SOL     OW38106   4.753   0.877   7.046 -0.0780 -0.1532  0.2456
11397SOL    HW138107   4.667   0.837   7.046  0.2432 -1.2754  4.5775
11397SOL    HW238108   4.736   0.970   7.063 -0.4189 -0.2512  0.4424
11398SOL     OW38109   8.230   2.190   2.868  0.1765  0.2304 -0.5281
11398SOL    HW138110   8.256   2.204   2.959  0.4852 -1.1202 -0.3947
11398SOL    HW238111   8.135   2.203   2.868 -0.1272 -1.7344  0.4180
11399SOL     OW38112   1.262   6.017   3.874  0.2436  0.0015 -0.1858
11399SOL    HW138113   1.350   5.990   3.900 -0.0351 -0.4415  0.3043
11399SOL    HW238114   1.251   6.104   3.913 -0.0788 -0.5537  1.0164
11400SOL     OW38115   5.781   4.808   0.140  0.7331 -0.7819 -0.0461
11400SOL    HW138116   5.855   4.868   0.128  0.8893 -0.8291  0.5948
11400SOL    HW238117   5.710   4.846   0.088 -0.0623  1.5526  2.4522
11401SOL     OW38118   3.178   8.247   2.843  0.1232 -0.6590  0.9436
11401SOL    HW138119   3.200   8.340   2.841 -0.6482 -0.3845  2.8652
11401SOL    HW238120   3.117   8.235   2.771  1.6269 -0.1122 -0.4859
11402SOL     OW38121   4.778   4.583   1.382  0.2702 -0.6696 -0.5817
11402SOL    HW138122   4.715   4.592   1.311  0.8735 -2.3752 -1.3852
11402SOL    HW238123   4.835   4.660   1.374  0.0422 -0.6049 -1.6421
11403SOL     OW38124   0.336   7.264   9.229  0.3765 -0.4837 -0.4528
11403SOL    HW138125   0.417   7.215   9.244  0.3432 -0.3165  0.3095
11403SOL    HW238126   0.331   7.273   9.134  1.7342  0.3075 -0.4672
11404SOL     OW38127   1.050   4.542   4.247  0.1659 -0.1612 -0.2406
11404SOL    HW138128   1.132   4.522   4.203 -0.3217 -2.0065 -0.3858
11404SOL    HW238129   1.073   4.544   4.340  0.4899  0.0279 -0.3221
11405SOL     OW38130   3.136   2.950   3.734  0.5159 -0.3996  0.1921
11405SOL    HW138131   3.161   3.016   3.799 -1.0675  1.2535 -0.8041
11405SOL    HW238132   3.053   2.915   3.767  0.5608 -0.7632 -0.0804
11406SOL     OW38133   4.187   6.049   6.999 -0.2239 -0.1262 -0.1561
11406SOL    HW138134   4.151   5.961   6.995 -1.1556  0.2010  0.6995
11406SOL    HW238135   4.128   6.102   6.945 -0.7415  0.3175  0.8296
11407SOL     OW38136   7.960   6.454   8.352 -0.1098  0.5523  0.1005
11407SOL    HW138137   8.030   6.519   8.351  0.1065  0.3188 -0.0260
11407SOL    HW238138   7.960   6.419   8.441 -0.5196  1.0440  0.2915
11408SOL     OW38139   5.632   5.052   7.348  0.0614 -0.1389  0.6105
11408SOL    HW138140   5.640   5.146   7.335 -1.7203  0.1094  1.1002
11408SOL    HW238141   5.705   5.015   7.297  1.0962  1.4982  0.8252
11409SOL     OW38142   0.053   6.938   8.655 -0.0896 -0.5452 -0.1425
11409SOL    HW138143  -0.033   6.932   8.697 -0.7325  0.5929 -1.2315
11409SOL    HW238144   0.054   7.025   8.616  0.8734 -1.1846 -1.6111
11410SOL     OW38145   4.434   7.406   4.638 -0.3648 -0.4851 -0.3928
11410SOL    HW138146   4.458   7.332   4.583 -1.5916 -0.9510 -0.3261
11410SOL    HW238147   4.357   7.377   4.686 -1.4143  1.1320 -1.0141
11411SOL     OW38148   9.652   4.364   2.424  0.3192 -0.2256 -0.2703
11411SOL    HW138149   9.566   4.330   2.399 -0.5167  1.6058 -0.1190
11411SOL    HW238150   9.638   4.405   2.509  1.7530 -1.3013  0.5176
11412SOL     OW38151   5.080   1.104   7.626  0.3296  0.1757  0.0120
11412SOL    HW138152   5.152   1.165   7.607  0.7580 -0.0968  0.7020
11412SOL    HW238153   5.004   1.160   7.642  0.3690  0.4672 -0.7782
11413SOL     OW38154   4.228   3.417   6.662 -0.0622 -0.1393 -0.1568
11413SOL    HW138155   4.287   3.343   6.649  0.2586  0.3478 -1.6915
11413SOL    HW238156   4.169   3.415   6.587  0.0365  1.2232 -0.3006
11414SOL     OW38157   7.908   7.573   6.129  0.7124 -0.9818  0.3816
11414SOL    HW138158   7.962   7.619   6.193 -0.9361  2.3261 -0.3679
11414SOL    HW238159   7.954   7.584   6.046  0.4759 -0.9552  0.2517
11415SOL     OW38160   0.220   8.705   0.700 -0.1410  0.9644  0.2313
11415SOL    HW138161   0.169   8.770   0.748  0.0642  1.3222 -0.0312
11415SOL    HW238162   0.195   8.718   0.609 -1.8884 -0.9019  0.3719
11416SOL     OW38163   1.433   6.362   4.541 -0.1786  0.8128 -0.0902
11416SOL    HW138164   1.441   6.458   4.536 -2.6749  1.2013  1.4993
11416SOL    HW238165   1.390   6.337   4.459  0.1566  1.0854 -0.3541
11417SOL     OW38166   1.564   4.270   3.181  0.1635  0.1555  0.4108
11417SOL    HW138167   1.591   4.178   3.177  1.7018  0.5141  1.5503
11417SOL    HW238168   1.644   4.320   3.164 -0.7589  1.3153 -0.7363
11418SOL     OW38169   8.131   6.533   8.026  0.3358  0.3173 -0.6256
11418SOL    HW138170   8.042   6.537   8.059  0.0099  1.2431 -1.5945
11418SOL    HW238171   8.160   6.444   8.048 -0.3928  0.3789  0.7342
11419SOL     OW38172   4.476   9.694   2.267 -0.5130  0.3023 -0.2294
11419SOL    HW138173   4.502   9.660   2.181 -2.4698 -1.6228 -0.1469
11419SOL    HW238174   4.494   9.623   2.327 -1.9122  0.5208  0.4719
11420SOL     OW38175   5.015   1.038   3.536 -0.0058 -0.6699 -0.2133
11420SOL    HW138176   4.922   1.034   3.557 -0.8566  1.1757 -3.1224
11420SOL    HW238177   5.029   0.966   3.474  0.2096 -0.2020 -0.7156
11421SOL     OW38178   6.409   2.195   0.858  0.3171 -0.0015  0.1660
11421SOL    HW138179   6.377   2.232   0.941  1.5883 -0.6199  0.9636
11421SOL    HW238180   6.418   2.102   0.876 -1.5622 -0.5633 -1.4038
11422SOL     OW38181   1.545   4.726   6.078 -0.3565  0.2188  0.2966
11422SOL    HW138182   1.511   4.781   6.007  0.1701 -1.2521 -1.1500
11422SOL    HW238183   1.600   4.661   6.034  0.3630 -0.4638  2.1106
11423SOL     OW38184   3.739   8.285   2.665 -0.1234  0.3985  0.1102
11423SOL    HW138185   3.742   8.190   2.676  0.1726  0.2748 -0.9126
11423SOL    HW238186   3.693   8.317   2.743 -0.9246 -0.6404  0.0881
11424SOL     OW38187   6.140   8.710   8.528 -0.0740  0.2200  0.8853
11424SOL    HW138188   6.081   8.762   8.474  0.4496  0.3967  0.4794
11424SOL    HW238189   6.146   8.626   8.482  0.8859  0.5902  0.2958
11425SOL     OW38190   4.736   8.397   5.950 -0.3788  0.4478  0.0064
11425SOL    HW138191   4.657   8.451   5.960 -0.1235  1.1841 -1.5440
11425SOL    HW238192   4.758   8.405   5.857  1.6260  0.4085  0.4411
11426SOL     OW38193   4.119   1.680   7.331 -0.0559 -0.6841 -0.0465
11426SOL    HW138194   4.195   1.655   7.384 -0.0447  1.3307  0.9937
11426SOL    HW238195   4.156   1.721   7.253  0.0177  1.2183  0.9185
11427SOL     OW38196   6.706   6.120   5.599  0.3723 -0.1789 -0.2081
11427SOL    HW138197   6.633   6.151   5.654  0.6786 -0.0311  0.1187
11427SOL    HW238198   6.725   6.193   5.540 -0.4343 -0.5991 -1.0127
11428SOL     OW38199   8.081   1.140   8.734 -0.3001 -0.2894  0.0714
11428SOL    HW138200   8.114   1.091   8.658  0.4014 -0.8935  0.7555
11428SOL    HW238201   8.158   1.156   8.787 -1.0166 -1.3821  1.5184
11429SOL     OW38202   7.678   4.044   6.543  0.2426  0.0515 -0.4652
11429SOL    HW138203   7.724   3.988   6.605 -0.9550  0.0377  0.4338
11429SOL    HW238204   7.656   3.987   6.470  2.0361  0.1606 -1.1659
11430SOL     OW38205   6.595   1.194   7.830 -0.3132 -0.2125 -0.7714
11430SOL    HW138206   6.613   1.206   7.737  1.1572  0.1251 -0.4650
11430SOL    HW238207   6.666   1.138   7.861 -2.3296 -2.7675 -0.4036
11431SOL     OW38208   0.013   8.988   2.959 -0.2297  0.0276  0.1025
11431SOL    HW138209  -0.020   9.073   2.930  1.1334  0.5010 -0.1486
11431SOL    HW238210   0.025   8.998   3.054 -2.7784 -0.8607  0.5886
11432SOL     OW38211   8.399   7.919   5.100  0.1691 -0.3690 -0.2362
11432SOL    HW138212   8.421   7.909   5.192 -1.4688  1.0880  0.3826
11432SOL    HW238213   8.400   7.830   5.064  0.3422 -1.0115  1.3064
11433SOL     OW38214   7.842   4.345   4.253  0.2745 -0.3995  1.0987
11433SOL    HW138215   7.816   4.253   4.256 -0.8618 -0.0945  1.1344
11433SOL    HW238216   7.854   4.364   4.161 -0.1119 -0.4310  1.0378
11434SOL     OW38217   4.504   2.569   0.493  0.5403  0.0271 -0.3015
11434SOL    HW138218   4.490   2.494   0.435 -0.4634 -0.0641  0.0322
11434SOL    HW238219   4.597   2.587   0.487  0.6367 -0.6679 -1.1014
11435SOL     OW38220   0.556   3.284   3.445  0.0838 -0.5627 -0.2951
11435SOL    HW138221   0.496   3.348   3.407 -0.3764 -0.8152  0.0011
11435SOL    HW238222   0.592   3.237   3.370 -0.8038 -1.0465 -0.4266
11436SOL     OW38223   1.582   3.278   8.137 -0.5981 -0.6233 -0.4092
11436SOL    HW138224   1.616   3.293   8.225  0.3672  0.5357 -0.9686
11436SOL    HW238225   1.657   3.288   8.079 -1.4229 -0.3227 -1.4660
11437SOL     OW38226   8.640   3.947   5.188  0.1043 -0.3733 -0.2282
11437SOL    HW138227   8.594   3.931   5.270 -1.1402  1.5731 -0.4788
11437SOL    HW238228   8.614   3.874   5.132 -0.1593 -0.9763  0.6448
11438SOL     OW38229  10.002   6.709   5.636  0.3452 -1.2866 -0.0789
11438SOL    HW138230   9.955   6.640   5.589  0.0045 -1.8765  1.0773
11438SOL    HW238231   9.965   6.791   5.602 -0.7812 -1.7249  0.0544
11439SOL     OW38232   1.351   3.866   5.041  0.3027 -1.0213  0.4395
11439SOL    HW138233   1.406   3.787   5.042 -1.6416 -2.4853 -0.2034
11439SOL    HW238234   1.298   3.856   4.961 -0.9270  0.2567  1.0604
11440SOL     OW38235   4.174   8.380   0.998 -0.5589  0.3679  0.4153
11440SOL    HW138236   4.246   8.437   1.025  0.7895 -1.1120  0.1570
11440SOL    HW238237   4.099   8.438   0.987  0.3867  1.8542  1.4854
11441SOL     OW38238   6.267   6.546   3.154  0.7848 -0.3022 -0.1905
11441SOL    HW138239   6.357   6.514   3.149  0.2115 -1.8829 -1.7644
11441SOL    HW238240   6.275   6.639   3.171  2.6789 -0.6163  0.8210
11442SOL     OW38241   3.535   1.752   6.966 -0.4023 -0.2576  0.0290
11442SOL    HW138242   3.552   1.846   6.975  0.0210 -0.2897 -0.3919
11442SOL    HW238243   3.511   1.723   7.054 -2.1513  0.5624 -0.1304
11443SOL     OW38244   6.951   2.142   8.424 -0.1677  0.1225 -0.2945
11443SOL    HW138245   7.009   2.091   8.367  0.1153  0.0306  0.0722
11443SOL    HW238246   6.944   2.089   8.504 -0.4695  0.3044 -0.2006
11444SOL     OW38247   7.800   8.858   1.455  0.5005 -0.6381 -0.3337
11444SOL    HW138248   7.744   8.921   1.499  1.1219 -0.9197  0.8934
11444SOL    HW238249   7.864   8.911   1.409  0.3716 -0.3547 -0.1895
11445SOL     OW38250   6.849   4.401   6.953  0.0173 -0.1208 -0.3983
11445SOL    HW138251   6.830   4.436   7.040 -0.2189  0.2202 -0.5830
11445SOL    HW238252   6.765   4.367   6.922 -0.1199  0.6529 -0.8881
11446SOL     OW38253   9.333   3.076   2.840 -0.1483 -0.6178 -0.5996
11446SOL    HW138254   9.356   2.984   2.825 -0.6240 -0.6973 -0.8785
11446SOL    HW238255   9.332   3.115   2.752 -0.8036 -0.5605 -0.5744
11447SOL     OW38256   8.627   4.481   8.878  0.4030 -0.0203 -0.1167
11447SOL    HW138257   8.631   4.484   8.782  0.6056  0.4143 -0.0995
11447SOL    HW238258   8.548   4.529   8.900  1.3115  1.4836 -0.0039
11448SOL     OW38259   0.492   0.149   5.559 -0.1921 -0.4212  0.2496
11448SOL    HW138260   0.420   0.091   5.582 -0.6512  0.8459  2.3658
11448SOL    HW238261   0.472   0.231   5.605  0.7551  1.2286 -2.0537
11449SOL     OW38262   6.676   5.783   7.839  0.6472 -0.4390  0.6874
11449SOL    HW138263   6.690   5.691   7.860 -1.3365 -1.0888 -0.4769
11449SOL    HW238264   6.727   5.832   7.903  2.6100 -2.3427  0.6712
11450SOL     OW38265   4.943   7.667   5.570  0.1183  0.4991  0.1417
11450SOL    HW138266   4.940   7.625   5.656  1.9010 -0.7085 -0.3137
11450SOL    HW238267   4.890   7.610   5.514  2.8851 -1.6550 -0.5772
11451SOL     OW38268   0.670   6.438   9.191 -0.0358  0.3248 -0.5092
11451SOL    HW138269   0.641   6.514   9.140  1.8520  2.6128  1.5493
11451SOL    HW238270   0.745   6.404   9.143  0.7341  1.4438 -0.1231
11452SOL     OW38271   8.031   1.863   0.959 -0.2736 -0.0018 -0.1217
11452SOL    HW138272   8.049   1.948   0.919  0.5599 -0.9165 -1.7730
11452SOL    HW238273   7.940   1.844   0.936 -0.4885  0.4532  0.3210
11453SOL     OW38274   2.733   3.001   6.324  0.3974  0.2239 -0.6377
11453SOL    HW138275   2.728   3.097   6.323 -0.3753  0.2174  0.8062
11453SOL    HW238276   2.710   2.977   6.413 -0.0649 -1.3514 -1.1590
11454SOL     OW38277   4.526   8.016   2.028  0.3494 -0.1592  0.7564
11454SOL    HW138278   4.603   8.022   2.084  0.4766 -1.4723  0.7541
11454SOL    HW238279   4.500   7.924   2.033 -1.0258  0.1897  0.4956
11455SOL     OW38280   6.620   0.375   8.396  0.1585 -0.5283  0.2276
11455SOL    HW138281   6.671   0.353   8.318  2.2199  0.7357  1.1244
11455SOL    HW238282   6.591   0.465   8.380  0.7414 -0.1995  0.9365
11456SOL     OW38283   1.263   8.778   1.870  0.2924 -0.2181 -0.4106
11456SOL    HW138284   1.279   8.744   1.782  1.9321  1.8024 -0.9718
11456SOL    HW238285   1.219   8.862   1.855  0.6482  0.1820  0.7088
11457SOL     OW38286   5.672   8.472   2.453  0.2336 -0.2482  0.3622
11457SOL    HW138287   5.645   8.415   2.524 -2.9731 -1.9496 -1.9454
11457SOL    HW238288   5.658   8.561   2.486  1.0344 -0.8592  2.5095
11458SOL     OW38289   7.619   2.508   1.206  0.1847  0.0317  0.0008
11458SOL    HW138290   7.648   2.545   1.290  0.2011  0.8406 -0.3458
11458SOL    HW238291   7.621   2.583   1.146 -1.8887 -0.0411 -0.2308
11459SOL     OW38292   5.436   3.183   8.570  0.4373  0.0435 -0.1163
11459SOL    HW138293   5.395   3.147   8.491  0.8885  0.7260 -0.6772
11459SOL    HW238294   5.364   3.192   8.632  0.4243 -2.4685  0.3206
11460SOL     OW38295   0.739   4.351   2.878 -0.0494  0.2685  0.1518
11460SOL    HW138296   0.734   4.348   2.973  0.8235 -0.6493  0.1822
11460SOL    HW238297   0.652   4.324   2.848 -0.4469  0.9285  0.6766
11461SOL     OW38298   5.402   6.435   6.599 -0.1165  0.7786 -1.0537
11461SOL    HW138299   5.487   6.479   6.605 -0.8932  2.2101  3.5264
11461SOL    HW238300   5.339   6.498   6.634 -2.1698 -1.9340  0.6074
11462SOL     OW38301   6.604   6.257   4.650 -0.0103 -0.0577  0.1966
11462SOL    HW138302   6.555   6.326   4.605 -0.0133 -0.0426  0.2234
11462SOL    HW238303   6.615   6.189   4.583 -1.9636 -1.0145  0.7779
11463SOL     OW38304   6.842   6.430   3.125 -0.1890  0.1377  0.4933
11463SOL    HW138305   6.934   6.409   3.142  0.2376  1.7493  0.3518
11463SOL    HW238306   6.831   6.519   3.159 -1.5191  0.2217 -0.0952
11464SOL     OW38307   1.534   4.849   0.752 -0.5969  0.1276  0.1043
11464SOL    HW138308   1.520   4.754   0.760  2.5181 -0.5327 -0.7987
11464SOL    HW238309   1.598   4.869   0.821 -1.6139  1.7465  0.6424
11465SOL     OW38310   9.955   2.443   4.771 -0.2398 -0.2177 -0.5501
11465SOL    HW138311   9.967   2.364   4.823  0.0810 -0.6834 -1.3252
11465SOL    HW238312  10.013   2.432   4.696 -0.6458  0.4750 -0.9762
11466SOL     OW38313   7.670   9.275   8.200  0.1694 -0.0450  0.2747
11466SOL    HW138314   7.759   9.259   8.232  1.2177  3.3947 -0.4820
11466SOL    HW238315   7.628   9.324   8.270 -1.0080 -1.1955  0.4070
11467SOL     OW38316   3.840   9.944   0.014  0.9911  0.0421  0.4064
11467SOL    HW138317   3.875   9.986  -0.064 -2.3671  0.9901 -0.7959
11467SOL    HW238318   3.859  10.004   0.085  1.4686  0.6641 -0.2350
11468SOL     OW38319   8.588   0.399   1.838  0.1683 -0.2813  0.8276
11468SOL    HW138320   8.508   0.373   1.884 -0.0436  0.5837  0.9557
11468SOL    HW238321   8.562   0.470   1.780  0.8949  0.1980  1.0680
11469SOL     OW38322   9.416   3.132   2.559  0.2664  0.6827  0.4217
11469SOL    HW138323   9.326   3.164   2.552  0.4152  0.7375 -2.1268
11469SOL    HW238324   9.412   3.043   2.523  1.1322  0.4682  0.8340
11470SOL     OW38325   4.002   3.404   2.967 -0.5228 -0.2685  0.2308
11470SOL    HW138326   4.002   3.322   3.016 -0.6394 -0.1674  0.4033
11470SOL    HW238327   3.968   3.468   3.029 -0.4326 -0.0900  0.0962
11471SOL     OW38328   1.792   0.710   5.338  0.0830  0.2943  0.1574
11471SOL    HW138329   1.836   0.694   5.256 -1.9381 -1.1777 -0.7273
11471SOL    HW238330   1.860   0.741   5.398  1.9289 -0.4103 -1.5221
11472SOL     OW38331   1.736  10.043   3.427 -0.1276 -0.5275  0.5672
11472SOL    HW138332   1.650  10.071   3.399  0.2329 -0.5471 -0.5861
11472SOL    HW238333   1.739  10.065   3.521 -0.1652  2.5432 -0.0416
11473SOL     OW38334   4.776   3.802   8.793 -0.5419 -0.2165  0.2676
11473SOL    HW138335   4.690   3.817   8.754 -0.7086  2.2687  1.4105
11473SOL    HW238336   4.764   3.826   8.885  1.1376 -0.8798  0.6901
11474SOL     OW38337   9.593   6.974   3.668 -0.3827 -0.3580 -0.1194
11474SOL    HW138338   9.636   7.029   3.602  0.2355 -0.0757  0.5140
11474SOL    HW238339   9.506   7.012   3.678 -0.4183 -0.2923 -0.6363
11475SOL     OW38340   3.806   3.386   8.596  0.1003 -0.2341  0.2507
11475SOL    HW138341   3.742   3.318   8.576  0.7414 -0.8633  0.2955
11475SOL    HW238342   3.798   3.449   8.524  0.9827 -1.4419 -0.9458
11476SOL     OW38343   0.511   8.526   9.038  0.1151  0.2998  0.2957
11476SOL    HW138344   0.511   8.621   9.044  2.8302  0.4584 -1.0166
11476SOL    HW238345   0.603   8.501   9.033 -0.5422 -2.2698 -1.1662
11477SOL     OW38346   2.432   8.042   5.369 -0.5133 -0.6296 -0.0996
11477SOL    HW138347   2.509   8.012   5.321 -0.5403  0.3455 -0.7826
11477SOL    HW238348   2.361   8.041   5.304 -0.6772  0.1628  0.0539
11478SOL     OW38349   2.548   8.958   4.212 -0.3855  0.3325 -0.2652
11478SOL    HW138350   2.490   8.994   4.280 -1.7964 -2.3105  0.1040
11478SOL    HW238351   2.636   8.968   4.248 -0.9372  0.9738  0.9700
11479SOL     OW38352   8.134   6.796   2.522 -0.8632 -0.5195 -0.8884
11479SOL    HW138353   8.199   6.731   2.499  0.4382  0.5553 -0.3936
11479SOL    HW238354   8.103   6.770   2.609 -0.2308 -0.3911 -0.6221
11480SOL     OW38355   0.708   4.797   5.983 -0.5456  0.1057 -0.2030
11480SOL    HW138356   0.651   4.724   5.959 -1.3565  0.9424 -0.9015
11480SOL    HW238357   0.648   4.871   5.997  0.3163  0.8358 -0.2911
11481SOL     OW38358   4.703   9.731   5.902 -0.3676 -0.2490  0.7278
11481SOL    HW138359   4.654   9.658   5.940  0.0314 -1.1429 -0.4162
11481SOL    HW238360   4.657   9.750   5.820  0.6685 -0.5240  0.0677
11482SOL     OW38361   1.762   0.406   7.480  0.7367 -0.1998 -0.0990
11482SOL    HW138362   1.744   0.372   7.568 -0.6697  0.3425 -0.1462
11482SOL    HW238363   1.813   0.485   7.495 -0.2539  0.3788  0.2982
11483SOL     OW38364  10.196   5.065   9.270 -0.5718 -0.6965  0.1464
11483SOL    HW138365  10.269   5.006   9.251  0.7291  1.2268 -1.1656
11483SOL    HW238366  10.230   5.126   9.336 -0.7056  0.6483 -0.9822
11484SOL     OW38367   3.213   2.757   6.846 -0.2573  0.8453 -0.1984
11484SOL    HW138368   3.208   2.682   6.905 -2.0777  1.1095  0.0432
11484SOL    HW238369   3.237   2.720   6.762 -0.0731  0.1330  0.1607
11485SOL     OW38370   7.571   7.703   9.132  0.3507  0.2988  0.1275
11485SOL    HW138371   7.647   7.655   9.100  0.5261  0.5189  0.2171
11485SOL    HW238372   7.501   7.637   9.136  0.3595  0.2390 -0.5796
11486SOL     OW38373   5.946   6.722   0.400 -0.1551  0.0908 -0.1878
11486SOL    HW138374   6.022   6.768   0.433  0.8680 -0.2982 -1.8820
11486SOL    HW238375   5.896   6.789   0.352  1.0007 -0.3399 -2.1002
11487SOL     OW38376   2.330   5.289   5.806 -0.2232  0.1007  0.2835
11487SOL    HW138377   2.284   5.210   5.780  0.6858 -1.1980  2.4086
11487SOL    HW238378   2.322   5.292   5.901  1.0295  1.7655  0.3908
11488SOL     OW38379   5.552   5.842   6.071 -0.3718  0.0296  0.9391
11488SOL    HW138380   5.601   5.894   6.007 -0.3629 -0.7438  0.3009
11488SOL    HW238381   5.461   5.867   6.057 -0.5254 -1.1128 -0.3418
11489SOL     OW38382   5.281   4.573   0.077 -0.5385  0.3486 -0.0395
11489SOL    HW138383   5.198   4.611   0.048  0.2095  1.7083 -0.4739
11489SOL    HW238384   5.263   4.540   0.165 -1.1366  2.0522  0.5019
11490SOL     OW38385   5.409   3.017   4.909 -0.9386 -0.7237  0.0654
11490SOL    HW138386   5.499   2.990   4.892 -1.2202 -2.1475  0.6990
11490SOL    HW238387   5.365   3.009   4.825 -0.1785  1.3856 -0.5960
11491SOL     OW38388   7.362   9.354   1.088 -0.3579 -0.7631 -0.1573
11491SOL    HW138389   7.295   9.337   1.155 -0.6672  1.9228  0.3290
11491SOL    HW238390   7.390   9.444   1.105  1.0432 -0.7103 -2.4061
11492SOL     OW38391   1.582   5.810   5.309 -0.3760 -0.1022 -0.1899
11492SOL    HW138392   1.629   5.856   5.379 -0.9036  4.1756 -2.2934
11492SOL    HW238393   1.502   5.780   5.350  0.6501 -0.4602  1.6793
11493SOL     OW38394   5.206   0.709   8.251  0.2759  0.3578 -0.5600
11493SOL    HW138395   5.181   0.726   8.342  0.0105 -1.0383 -0.3583
11493SOL    HW238396   5.122   0.701   8.204  0.3414 -1.2897 -0.4541
11494SOL     OW38397   5.025   4.194   9.429  0.1474  0.0611 -0.3020
11494SOL    HW138398   5.060   4.106   9.415 -2.6332 -1.0329 -1.0233
11494SOL    HW238399   4.993   4.193   9.519 -4.5431 -1.6467 -1.6969
11495SOL     OW38400   6.043   1.962   9.505  0.2256  0.1248 -0.0384
11495SOL    HW138401   5.999   1.878   9.490  0.0469 -0.0082  1.1723
11495SOL    HW238402   6.134   1.939   9.521  0.1107  0.1202  0.6425
11496SOL     OW38403   3.871   6.367   8.393 -0.0591 -0.0525  0.3231
11496SOL    HW138404   3.953   6.335   8.355 -0.2199  0.1961 -0.2567
11496SOL    HW238405   3.802   6.320   8.346 -0.2405 -1.3415  1.8148
11497SOL     OW38406   4.422   6.122   2.595 -0.4860 -0.1555 -0.1034
11497SOL    HW138407   4.337   6.078   2.594  0.1336 -1.4653  1.2375
11497SOL    HW238408   4.403   6.212   2.622 -1.3863 -0.5933  0.7729
11498SOL     OW38409   6.704   8.356   5.137  0.2358  0.0387 -0.1956
11498SOL    HW138410   6.622   8.321   5.172  0.4458 -0.8835 -0.5939
11498SOL    HW238411   6.727   8.428   5.196 -0.6809  0.0906  0.1119
11499SOL     OW38412   3.065  10.116   3.509  0.4819 -0.9268 -0.3707
11499SOL    HW138413   3.158  10.135   3.526  0.2008 -0.9889  1.3060
11499SOL    HW238414   3.036  10.189   3.454  0.7407  0.8728  1.7344
11500SOL     OW38415   1.204   1.996   3.128  0.5421  0.0989  0.1487
11500SOL    HW138416   1.283   2.015   3.179  0.7608 -1.4542  0.4219
11500SOL    HW238417   1.175   1.910   3.159 -0.8085  0.2915 -0.5162
11501SOL     OW38418   5.083   3.879   8.413 -0.1936  0.8539 -0.0266
11501SOL    HW138419   5.058   3.849   8.501  2.5167 -0.7026  0.3171
11501SOL    HW238420   5.017   3.840   8.355 -2.5624  2.6398  1.2727
11502SOL     OW38421   8.334   0.244   6.065  0.0052  0.3245 -0.1752
11502SOL    HW138422   8.298   0.257   6.152  2.4990  1.6730  0.7705
11502SOL    HW238423   8.382   0.161   6.071 -1.4200 -0.5866 -0.9037
11503SOL     OW38424   5.448   5.520   8.798 -0.0896 -0.4494  0.2578
11503SOL    HW138425   5.422   5.430   8.815  2.1600 -1.1934  0.0606
11503SOL    HW238426   5.464   5.523   8.704  0.8095 -0.1396  0.4078
11504SOL     OW38427   5.363   7.703   3.631  0.1894 -0.2156  0.1944
11504SOL    HW138428   5.352   7.750   3.714 -1.0610  2.0388 -1.1657
11504SOL    HW238429   5.379   7.771   3.566  1.0373 -1.9185 -1.4749
11505SOL     OW38430   9.855   1.276   0.915 -0.2114 -0.4050 -0.1896
11505SOL    HW138431   9.848   1.352   0.858 -1.4222 -0.6445 -0.3788
11505SOL    HW238432   9.902   1.308   0.992  0.7293  0.1158 -0.9636
11506SOL     OW38433   7.784   3.437   2.519 -0.1005  0.1109 -0.2535
11506SOL    HW138434   7.784   3.439   2.615  0.0754 -0.6194 -0.2339
11506SOL    HW238435   7.774   3.529   2.493 -0.7242  0.2554  0.4622
11507SOL     OW38436   7.442   2.600   5.818 -0.2540 -0.2149  0.3650
11507SOL    HW138437   7.437   2.508   5.842  0.9724 -0.6839 -0.9642
11507SOL    HW238438   7.352   2.626   5.800 -0.4783 -1.6431 -0.8123
11508SOL     OW38439   9.891   9.408   4.055 -0.1431 -0.2539 -0.4314
11508SOL    HW138440   9.921   9.497   4.039 -0.5783 -0.4362 -2.6613
11508SOL    HW238441   9.858   9.409   4.145  1.2713  1.4032  0.1203
11509SOL     OW38442   4.219   2.562   2.927  0.4803  0.4327  0.3390
11509SOL    HW138443   4.216   2.475   2.966 -0.6333  0.9901  1.5798
11509SOL    HW238444   4.286   2.609   2.976 -0.1725  0.8060  0.8924
11510SOL     OW38445   9.457   8.771   8.334  0.4385 -0.2605  0.0649
11510SOL    HW138446   9.407   8.756   8.415 -0.9437  0.7421 -0.5693
11510SOL    HW238447   9.457   8.685   8.291 -0.8806 -0.2657  0.0228
11511SOL     OW38448   9.854   9.291   8.385  0.1823  0.2161  0.0924
11511SOL    HW138449   9.786   9.333   8.438  0.4521  0.4942  0.2153
11511SOL    HW238450   9.826   9.307   8.295  1.7750  3.2736  0.0049
11512SOL     OW38451   6.329   0.561   8.952 -0.4311 -0.1248 -0.3565
11512SOL    HW138452   6.275   0.605   8.885 -1.2018  1.0204  0.9538
11512SOL    HW238453   6.330   0.623   9.025  0.7081 -1.1825  0.5523
11513SOL     OW38454   2.102   5.655   0.800 -0.0501 -0.0791 -0.1036
11513SOL    HW138455   2.011   5.628   0.810 -0.2354  0.1585 -1.0288
11513SOL    HW238456   2.148   5.614   0.874 -0.9808  0.1850  0.6372
11514SOL     OW38457  10.094   8.441   0.700 -0.0040 -0.5996  0.3738
11514SOL    HW138458  10.120   8.427   0.609 -2.1527 -1.4284 -0.1685
11514SOL    HW238459  10.104   8.356   0.742  0.2957 -0.3871  0.7407
11515SOL     OW38460   1.101   0.471   6.317  0.5235  0.2479 -0.3122
11515SOL    HW138461   1.111   0.532   6.391  2.2345 -0.7201  0.3044
11515SOL    HW238462   1.099   0.385   6.357 -1.7185 -0.1993 -1.1949
11516SOL     OW38463   9.790   7.523   7.938 -0.0577  0.2170 -0.1969
11516SOL    HW138464   9.799   7.594   8.001  0.3181  1.2779 -1.4120
11516SOL    HW238465   9.763   7.565   7.857 -0.0256 -1.0519 -0.8995
11517SOL     OW38466   2.203   9.308   1.426 -0.2968  0.2969 -0.3208
11517SOL    HW138467   2.289   9.269   1.441 -0.0702 -0.0112 -2.2237
11517SOL    HW238468   2.164   9.256   1.357 -1.0806  1.8133 -1.0738
11518SOL     OW38469   3.381   0.551   0.203  0.3189  0.2036 -0.0316
11518SOL    HW138470   3.463   0.591   0.231 -0.3584  1.5111  0.1496
11518SOL    HW238471   3.367   0.478   0.264  0.2468  1.3209  1.3374
11519SOL     OW38472   6.458   1.741   7.494 -0.2843 -0.1699  0.1667
11519SOL    HW138473   6.371   1.703   7.480 -0.2403  0.0689 -0.8509
11519SOL    HW238474   6.480   1.719   7.584 -1.4048 -0.2341  0.4344
11520SOL     OW38475   5.184   7.420   6.331 -0.1503  0.4268  0.0471
11520SOL    HW138476   5.238   7.341   6.320 -0.1025  0.5723 -0.7972
11520SOL    HW238477   5.161   7.420   6.424 -0.5197 -0.8301 -0.0272
11521SOL     OW38478   1.831   8.140   7.799 -0.1327 -0.0627 -0.0452
11521SOL    HW138479   1.753   8.155   7.746 -0.2333  0.9608  0.3771
11521SOL    HW238480   1.865   8.227   7.818  0.7233 -0.4708  0.3540
11522SOL     OW38481   5.343   5.979   1.241 -0.3185  0.0061  0.5301
11522SOL    HW138482   5.410   5.984   1.173 -2.4640  0.3413 -1.6743
11522SOL    HW238483   5.324   5.885   1.250 -0.8305  0.0337 -0.1948
11523SOL     OW38484   2.167   1.168   5.243 -0.1693 -0.0735  0.0869
11523SOL    HW138485   2.137   1.240   5.187 -0.0764 -0.2346 -0.1690
11523SOL    HW238486   2.246   1.136   5.200 -0.5984 -0.7907 -0.1791
11524SOL     OW38487   2.769   3.512   9.311 -0.2830  0.2151 -0.0569
11524SOL    HW138488   2.852   3.543   9.348  1.3829 -1.1446 -2.4352
11524SOL    HW238489   2.764   3.554   9.225 -0.5946 -1.9010 -1.1295
11525SOL     OW38490   8.938   8.281   2.664 -0.0375  0.0685  0.1184
11525SOL    HW138491   8.920   8.374   2.652  1.2353  0.1987 -0.9675
11525SOL    HW238492   9.029   8.270   2.637 -0.1339 -1.4744  0.3268
11526SOL     OW38493   5.756   1.790   4.831 -0.2531 -0.2580 -0.8799
11526SOL    HW138494   5.792   1.816   4.746  2.1430 -0.0878  0.0973
11526SOL    HW238495   5.745   1.695   4.824  1.1656 -0.4372 -0.9924
11527SOL     OW38496   2.247   8.925   6.104 -0.1929  0.7228  0.1125
11527SOL    HW138497   2.291   8.876   6.174  0.1321  0.5907 -0.1841
11527SOL    HW238498   2.154   8.920   6.126 -0.0953  0.6497  0.5161
11528SOL     OW38499   0.013   6.675   8.805  0.1135 -0.1777 -0.4121
11528SOL    HW138500   0.078   6.605   8.800 -0.0928 -0.3584 -0.6200
11528SOL    HW238501   0.062   6.752   8.834  0.1508 -0.6490  0.8029
11529SOL     OW38502   8.939   7.499   7.573 -0.2285  0.0031  0.1786
11529SOL    HW138503   8.959   7.529   7.662 -1.3508  0.3375  0.3318
11529SOL    HW238504   8.988   7.417   7.564 -1.1813 -0.7697  1.6169
11530SOL     OW38505   7.100   4.806   4.092  0.4056  0.3679 -0.7749
11530SOL    HW138506   7.169   4.750   4.055 -0.3699 -1.9015  0.9457
11530SOL    HW238507   7.021   4.780   4.044  0.2708  1.0795 -0.9518
11531SOL     OW38508   5.419   9.758   9.244  0.1823 -0.2268 -0.0655
11531SOL    HW138509   5.510   9.786   9.254 -0.2484  0.6936  1.7185
11531SOL    HW238510   5.425   9.676   9.194  1.8871  0.3319 -0.8762
11532SOL     OW38511   1.577   5.041   5.491 -0.0867  0.1399 -0.2736
11532SOL    HW138512   1.594   4.978   5.421 -1.5537  0.1010 -0.6194
11532SOL    HW238513   1.565   4.987   5.569  1.0522  0.1577 -0.0572
11533SOL     OW38514   4.138   9.813   2.489 -0.1023 -0.0594 -0.0640
11533SOL    HW138515   4.061   9.812   2.546  0.6730  0.9873  1.0618
11533SOL    HW238516   4.199   9.752   2.531 -0.5376 -1.4160 -1.3251
11534SOL     OW38517   9.139   7.224  10.187  0.4476 -0.5996 -0.7696
11534SOL    HW138518   9.138   7.180  10.102 -0.3001  1.6582 -2.0186
11534SOL    HW238519   9.229   7.216  10.217  0.5857 -1.9660 -1.4681
11535SOL     OW38520   3.930   5.295   3.213 -0.1174 -0.4140 -0.0600
11535SOL    HW138521   4.005   5.349   3.187  2.3213 -2.4381  2.1797
11535SOL    HW238522   3.913   5.239   3.138  1.2437 -0.5434 -0.2895
11536SOL     OW38523   7.062   5.783   4.042  0.3427  0.0593  0.0714
11536SOL    HW138524   7.048   5.688   4.041  0.4980  0.0372 -0.6520
11536SOL    HW238525   7.078   5.804   4.134  0.6800 -0.6736  0.1882
11537SOL     OW38526   6.507   6.863   9.765  0.5280  0.0010  0.5402
11537SOL    HW138527   6.476   6.797   9.827  3.5876 -0.7613  1.4075
11537SOL    HW238528   6.505   6.818   9.680 -1.0470  0.1391  0.4704
11538SOL     OW38529   9.856   6.319   4.596  0.4889  0.2377  0.5786
11538SOL    HW138530   9.821   6.401   4.632 -1.4518 -0.5108  0.4815
11538SOL    HW238531   9.845   6.256   4.667 -1.1245 -0.6873 -0.4306
11539SOL     OW38532   5.290   6.883   1.276 -0.1415 -0.3842 -0.1627
11539SOL    HW138533   5.347   6.871   1.200  0.3952 -1.5880  0.3984
11539SOL    HW238534   5.272   6.794   1.307  0.2154  0.0835  1.5150
11540SOL     OW38535   6.178   0.463   4.317 -0.2667  0.4173 -0.3370
11540SOL    HW138536   6.239   0.527   4.279  0.1076  0.7305  0.7555
11540SOL    HW238537   6.185   0.387   4.260  0.4507  0.7909 -0.7709
11541SOL     OW38538   8.209   4.638   3.880 -0.4145 -0.4897  0.4515
11541SOL    HW138539   8.226   4.712   3.938 -0.4376 -0.6696  0.6880
11541SOL    HW238540   8.225   4.672   3.792  0.0151 -0.3304  0.5909
11542SOL     OW38541   5.061   5.511   0.758 -0.4332 -0.1311  0.0775
11542SOL    HW138542   5.086   5.602   0.740 -0.9670 -0.1030 -0.5715
11542SOL    HW238543   4.972   5.517   0.791 -1.1580 -0.5247 -1.6555
11543SOL     OW38544   7.515   9.789   4.767  0.2987  0.0070  0.4983
11543SOL    HW138545   7.506   9.885   4.770 -0.3309 -0.0078 -0.4600
11543SOL    HW238546   7.485   9.765   4.679 -1.8035 -1.2837  1.4793
11544SOL     OW38547   5.050   4.090   0.214  0.0808 -0.9315  0.1011
11544SOL    HW138548   5.055   4.019   0.279 -0.4716  0.3197  1.5730
11544SOL    HW238549   5.070   4.169   0.264  0.1152  0.0243 -1.3873
11545SOL     OW38550   6.891   5.604   2.768  0.3152 -0.7143 -0.7139
11545SOL    HW138551   6.829   5.531   2.775  0.6489 -0.8620  1.2515
11545SOL    HW238552   6.878   5.654   2.849  0.8650  0.8004 -1.5321
11546SOL     OW38553   3.101   0.772  10.193 -0.1349  0.0698  0.6083
11546SOL    HW138554   3.074   0.698  10.248 -0.8638 -0.2265 -0.1173
11546SOL    HW238555   3.178   0.740  10.147 -1.9603 -1.3184 -1.7474
11547SOL     OW38556   2.837   7.736   6.593  0.5603 -0.1394 -0.1374
11547SOL    HW138557   2.793   7.653   6.579 -0.1761  0.2952 -0.4291
11547SOL    HW238558   2.895   7.719   6.667 -1.1944 -0.3356  1.2712
11548SOL     OW38559   5.513   2.240   6.787 -0.3418 -0.1870  0.2317
11548SOL    HW138560   5.451   2.204   6.724 -0.8597 -0.6863  1.0059
11548SOL    HW238561   5.588   2.180   6.784  0.4076  0.7811 -1.1773
11549SOL     OW38562   1.921   0.274   9.229  0.8438 -0.1461 -0.0511
11549SOL    HW138563   1.932   0.250   9.137 -1.7182 -1.1008 -0.1901
11549SOL    HW238564   1.850   0.217   9.260  0.2870  1.5287  1.9673
11550SOL     OW38565   5.078   2.738   6.445  0.1570  0.7870 -0.0547
11550SOL    HW138566   5.082   2.650   6.481  1.6616 -0.0536 -2.0797
11550SOL    HW238567   5.010   2.734   6.377 -0.4258  1.4717  0.4647
11551SOL     OW38568   4.598   1.980   1.939 -0.7998 -0.3413  0.1166
11551SOL    HW138569   4.566   1.931   1.864  0.9144 -1.9701  0.3643
11551SOL    HW238570   4.527   1.975   2.003 -2.2970  1.1152 -1.3427
11552SOL     OW38571   3.124   0.975   3.291 -0.1888 -0.0232  0.4557
11552SOL    HW138572   3.064   0.918   3.243  0.9961 -0.5364 -0.4627
11552SOL    HW238573   3.133   1.052   3.235  0.7858 -0.3958  0.0753
11553SOL     OW38574   3.127   8.883   0.292  0.3522 -0.2776 -0.5703
11553SOL    HW138575   3.180   8.895   0.370  0.4876  1.4378 -0.8941
11553SOL    HW238576   3.127   8.969   0.249  0.4286 -1.2199 -2.5526
11554SOL     OW38577   2.468   6.153   5.250 -0.2053 -0.0555  0.3496
11554SOL    HW138578   2.504   6.229   5.205  0.2901  0.2680  1.2456
11554SOL    HW238579   2.500   6.162   5.340  0.0694 -1.4574  0.4141
11555SOL     OW38580   1.460   6.906   4.846  0.1124 -0.4640 -0.4697
11555SOL    HW138581   1.536   6.877   4.795 -0.5769 -0.2757 -1.6512
11555SOL    HW238582   1.399   6.833   4.840 -0.7871  0.3411 -1.6730
11556SOL     OW38583   5.132   1.478   6.293 -0.5283 -0.2569 -0.8817
11556SOL    HW138584   5.098   1.389   6.294  0.2878 -0.5783 -1.0108
11556SOL    HW238585   5.061   1.531   6.257 -1.5697 -0.6109  0.5548
11557SOL     OW38586   0.440   7.878   2.594  0.1832 -0.5316  0.4198
11557SOL    HW138587   0.364   7.918   2.553 -1.0173 -1.4624  1.6369
11557SOL    HW238588   0.498   7.855   2.521  0.2238  1.9150 -0.4133
11558SOL     OW38589   9.592   3.625   8.028 -0.0517  0.1788  0.9227
11558SOL    HW138590   9.608   3.540   7.986  0.2423  0.0564  1.2762
11558SOL    HW238591   9.498   3.626   8.046  0.0688 -0.4138  1.6419
11559SOL     OW38592   3.344  10.148   3.174  0.7821  0.0835  0.1407
11559SOL    HW138593   3.251  10.139   3.194  0.7150 -0.6113 -0.4446
11559SOL    HW238594   3.386  10.161   3.260  0.3308 -1.2820  0.5989
11560SOL     OW38595   4.900   1.658   0.576 -0.6016  0.4202  0.3997
11560SOL    HW138596   4.872   1.614   0.495 -1.3601  1.1340  0.2588
11560SOL    HW238597   4.837   1.628   0.642  0.1426 -0.3262  0.7865
11561SOL     OW38598   8.532   2.246   9.804  0.1482 -0.0381  0.1572
11561SOL    HW138599   8.498   2.284   9.723 -0.0422 -2.5467 -1.0656
11561SOL    HW238600   8.492   2.297   9.874 -2.3276  0.1893 -1.3051
11562SOL     OW38601   7.431   5.765   6.794  0.1596  0.0137  0.2147
11562SOL    HW138602   7.359   5.770   6.857 -0.0233 -0.9540  0.0910
11562SOL    HW238603   7.505   5.804   6.840 -0.6947  2.1270 -0.0729
11563SOL     OW38604   3.208   5.621   7.892  0.0425  0.3765 -0.3245
11563SOL    HW138605   3.169   5.658   7.812  0.0041 -0.4290 -0.6836
11563SOL    HW238606   3.277   5.563   7.860 -0.3243 -0.3637  0.2022
11564SOL     OW38607   2.486   5.431   1.018 -0.2760  0.2283  0.0262
11564SOL    HW138608   2.490   5.358   0.956  0.2923 -0.4516  0.8349
11564SOL    HW238609   2.550   5.495   0.985 -2.1730  1.2917 -1.7835
11565SOL     OW38610   7.142   8.717   1.773 -0.1830  0.5623  0.3476
11565SOL    HW138611   7.086   8.642   1.793 -1.0785  1.5685  1.8033
11565SOL    HW238612   7.104   8.755   1.694 -0.2226 -0.0313  0.0762
11566SOL     OW38613   2.846   6.634   1.498  0.3463 -0.2068 -0.2534
11566SOL    HW138614   2.760   6.640   1.540  0.4462 -4.7881  1.1016
11566SOL    HW238615   2.900   6.698   1.545 -1.6508  0.8992  0.6589
11567SOL     OW38616   7.476   6.348   2.886  0.1500  0.4598  0.3736
11567SOL    HW138617   7.426   6.430   2.883  0.7738  0.8970  1.3189
11567SOL    HW238618   7.479   6.326   2.979  1.3067  0.1921  0.2842
11568SOL     OW38619   5.974   3.274   0.501 -0.2993 -0.0842 -0.2001
11568SOL    HW138620   5.957   3.180   0.487  2.2493 -0.5900 -0.3164
11568SOL    HW238621   5.908   3.300   0.565 -0.1481 -2.3442  0.9948
11569SOL     OW38622   0.357   7.851   1.242  0.9206 -0.4022  0.2830
11569SOL    HW138623   0.271   7.890   1.231  1.2076 -0.0120 -0.7679
11569SOL    HW238624   0.405   7.875   1.162  2.1767 -0.1489  1.0789
11570SOL     OW38625   9.769   5.183   2.872  0.6234 -0.0233  0.1343
11570SOL    HW138626   9.702   5.170   2.939  0.2471  2.1163  0.2383
11570SOL    HW238627   9.831   5.112   2.887 -1.5767 -2.0979  0.0211
11571SOL     OW38628   7.490   7.516   7.637 -0.4908 -0.3756  0.2241
11571SOL    HW138629   7.404   7.525   7.678 -0.9936  0.2312 -0.9153
11571SOL    HW238630   7.517   7.426   7.657 -0.6049 -0.0459  2.0310
11572SOL     OW38631   6.106   0.839   8.578 -0.4921  0.5069  0.0192
11572SOL    HW138632   6.146   0.873   8.498 -0.9522  1.7676  0.2999
11572SOL    HW238633   6.139   0.896   8.648  0.4310 -0.9898  0.8509
11573SOL     OW38634   8.126   6.038   4.756  0.0333 -0.2267 -0.2595
11573SOL    HW138635   8.137   5.944   4.740 -1.3689 -0.2563 -1.3173
11573SOL    HW238636   8.214   6.075   4.749  0.4677 -1.3233 -0.8332
11574SOL     OW38637   3.454  10.032   1.427 -0.5564  0.1741  0.2590
11574SOL    HW138638   3.531  10.032   1.484 -0.1674  2.1889 -0.1951
11574SOL    HW238639   3.380  10.052   1.485 -0.3446  0.8928  0.2892
11575SOL     OW38640   3.162   6.353   1.392 -0.3988 -0.1820  0.2012
11575SOL    HW138641   3.240   6.323   1.345  0.5141  0.7444  1.0543
11575SOL    HW238642   3.111   6.400   1.327  0.6107  0.6824  0.0012
11576SOL     OW38643   2.518   2.014   5.203  0.0667  0.0055 -0.3803
11576SOL    HW138644   2.449   2.050   5.148  0.1061  0.9924  0.1819
11576SOL    HW238645   2.522   2.074   5.278  0.0496 -1.2582  0.6663
11577SOL     OW38646   4.621   7.535   0.036  0.1842  0.3042 -0.4178
11577SOL    HW138647   4.674   7.562  -0.039  2.6250 -4.9406 -1.0352
11577SOL    HW238648   4.684   7.523   0.107 -0.8073 -1.7791  0.1876
11578SOL     OW38649   2.358   5.014   1.547 -0.7414 -0.2857  0.4064
11578SOL    HW138650   2.417   5.047   1.479 -0.4404 -0.5866  0.5169
11578SOL    HW238651   2.397   4.931   1.574 -0.3196  0.2898  1.6354
11579SOL     OW38652   2.149   4.053   3.021 -0.1867  0.6220 -0.4987
11579SOL    HW138653   2.106   3.971   3.045 -1.9370  1.7722  0.5068
11579SOL    HW238654   2.154   4.050   2.926 -0.1661 -0.6459 -0.4864
11580SOL     OW38655   9.861   2.670   6.614  0.2765  0.6372  0.5239
11580SOL    HW138656   9.883   2.577   6.605 -1.5861  0.0639  1.5200
11580SOL    HW238657   9.879   2.707   6.528  0.6307 -0.7322 -0.0165
11581SOL     OW38658   9.091   9.298   7.287 -0.3274 -0.2210 -0.2287
11581SOL    HW138659   9.143   9.258   7.217 -0.0262 -1.2637  0.5563
11581SOL    HW238660   9.074   9.226   7.348  0.6160  0.9444  1.4836
11582SOL     OW38661   0.009   0.083   0.646  0.1053 -0.0124 -0.0152
11582SOL    HW138662  -0.014   0.174   0.627  0.0132  0.0800  0.5238
11582SOL    HW238663   0.103   0.077   0.629  0.1599  0.2466  0.1970
11583SOL     OW38664   4.372   4.885   4.494  0.4510 -0.0627  0.3866
11583SOL    HW138665   4.420   4.889   4.577  1.2375  1.3131 -0.0974
11583SOL    HW238666   4.282   4.911   4.517  0.4503 -0.5483  0.9500
11584SOL     OW38667   3.481   5.693   9.720 -0.1279 -0.1581  0.3239
11584SOL    HW138668   3.431   5.775   9.730 -1.4196 -1.0270  1.2885
11584SOL    HW238669   3.458   5.662   9.633 -0.2994  0.0725  0.2846
11585SOL     OW38670   1.984   7.518   5.460 -0.2539 -0.3486 -0.0729
11585SOL    HW138671   2.066   7.468   5.463 -0.1755 -0.1904  1.3555
11585SOL    HW238672   2.009   7.605   5.493 -0.7186  0.1511 -0.9951
11586SOL     OW38673   5.730   6.576   1.058  0.0021 -0.0951 -0.1789
11586SOL    HW138674   5.785   6.641   1.101  1.1280 -1.6209  0.7998
11586SOL    HW238675   5.645   6.585   1.100  0.3332  0.2726  0.4289
11587SOL     OW38676   2.848   5.692   9.729  0.1226  0.3819  0.2542
11587SOL    HW138677   2.888   5.742   9.658  1.9234 -0.4070  0.6741
11587SOL    HW238678   2.825   5.758   9.794 -0.9191  1.0362 -0.7356
11588SOL     OW38679   8.092   0.586   6.434  0.1809 -0.0789 -0.7493
11588SOL    HW138680   8.008   0.574   6.479  0.6794 -0.3284  0.1464
11588SOL    HW238681   8.153   0.528   6.481  1.2158  1.2907 -0.3353
11589SOL     OW38682   0.622   7.314   2.703  0.2587 -0.5039 -0.0017
11589SOL    HW138683   0.630   7.397   2.750  1.1951  0.3547 -1.5562
11589SOL    HW238684   0.535   7.282   2.724 -1.2332  2.2341 -1.4100
11590SOL     OW38685   0.509   9.686   4.740  0.0712 -0.2133  0.4017
11590SOL    HW138686   0.518   9.671   4.834  0.7027 -0.0286  0.3755
11590SOL    HW238687   0.414   9.686   4.724 -0.0494  0.1121  1.0951
11591SOL     OW38688   2.939   3.535   3.434  0.3325 -0.2171  0.1667
11591SOL    HW138689   2.926   3.442   3.413  2.3615 -0.3310 -0.8473
11591SOL    HW238690   2.854   3.575   3.419  0.1005 -1.4373 -2.3538
11592SOL     OW38691   2.605   1.519   7.989  0.6112 -0.1007 -0.5752
11592SOL    HW138692   2.592   1.605   7.949  1.5474 -0.1098 -0.9370
11592SOL    HW238693   2.556   1.523   8.071 -0.7473  0.1740 -1.3718
11593SOL     OW38694   2.074  10.033   4.929 -0.1873 -0.2728  0.3584
11593SOL    HW138695   2.027  10.017   4.847 -0.4776 -2.2411  0.8629
11593SOL    HW238696   2.148   9.972   4.926 -1.0958 -1.5807  2.2206
11594SOL     OW38697   1.955   4.784   7.115  0.0913  0.1662 -0.1451
11594SOL    HW138698   2.039   4.804   7.072 -0.9525 -2.1811 -3.7711
11594SOL    HW238699   1.891   4.787   7.044 -2.9461  1.4546  2.4018
11595SOL     OW38700   8.800   3.493   8.670 -0.2717 -0.1146 -0.6032
11595SOL    HW138701   8.809   3.414   8.616 -2.8215  0.2623 -1.7439
11595SOL    HW238702   8.753   3.555   8.614 -0.7415  1.2315  1.1880
11596SOL     OW38703   0.666   5.723   5.203  0.0649 -0.0849  0.3772
11596SOL    HW138704   0.708   5.724   5.117  0.1535 -0.9004  0.4097
11596SOL    HW238705   0.574   5.746   5.184  0.2194  0.3731  0.1497
11597SOL     OW38706   0.780   5.143   4.114  0.1354 -0.2364 -0.0279
11597SOL    HW138707   0.730   5.114   4.038 -0.6321  0.3563  0.2332
11597SOL    HW238708   0.716   5.190   4.168  0.8153 -0.0925  0.6696
11598SOL     OW38709   5.842   8.884   0.161  0.4128  0.6758 -0.5128
11598SOL    HW138710   5.818   8.814   0.222 -1.9647 -0.1086 -2.1846
11598SOL    HW238711   5.817   8.964   0.206 -1.6069  0.0930 -0.4838
11599SOL     OW38712   2.692   8.333   4.350  0.1141  0.2302  0.8089
11599SOL    HW138713   2.780   8.370   4.352  0.5815 -0.4822 -2.2767
11599SOL    HW238714   2.661   8.347   4.261 -2.1035 -1.3586  1.2222
11600SOL     OW38715   9.966   7.477   5.654 -0.4517  0.6603  0.3142
11600SOL    HW138716   9.919   7.395   5.637 -2.4488  1.7166  0.4897
11600SOL    HW238717  10.021   7.489   5.577 -2.8886  0.9694 -1.4855
11601SOL     OW38718   6.000   5.090   9.010  0.0761  0.3541 -0.0333
11601SOL    HW138719   5.992   5.018   9.072 -1.3032 -1.2027 -1.9056
11601SOL    HW238720   6.091   5.087   8.981  0.3840  0.2603  0.9093
11602SOL     OW38721   4.517   8.836   9.611  0.0310 -0.0795  0.3066
11602SOL    HW138722   4.439   8.859   9.561 -0.3171  1.0887  1.3258
11602SOL    HW238723   4.568   8.917   9.615  0.0637 -0.1436  1.7589
11603SOL     OW38724   4.746  10.188   8.749 -0.3761 -0.3401  0.0016
11603SOL    HW138725   4.709  10.104   8.720 -0.5096 -0.7505  1.2776
11603SOL    HW238726   4.786  10.168   8.834  1.7746  0.3655 -0.7863
11604SOL     OW38727   8.079   0.988   2.886 -0.4633 -0.2567  0.2758
11604SOL    HW138728   8.086   1.030   2.972 -2.9551  0.0762  0.3844
11604SOL    HW238729   8.008   0.924   2.896 -2.5642  1.4876 -2.1000
11605SOL     OW38730   7.271   7.426   8.852 -0.2783  0.1507 -0.0128
11605SOL    HW138731   7.192   7.477   8.871 -1.4474 -1.9636  1.1427
11605SOL    HW238732   7.247   7.370   8.779  0.2357 -0.3176  0.1657
11606SOL     OW38733   5.103   5.668   5.946 -0.4329 -0.1824 -0.4744
11606SOL    HW138734   5.124   5.622   6.027 -2.5286 -1.7181 -0.7280
11606SOL    HW238735   5.188   5.692   5.909  0.6109 -0.8438  1.3646
11607SOL     OW38736   2.799   2.423   4.405 -0.0210  0.1049 -0.3897
11607SOL    HW138737   2.775   2.505   4.363  3.8743  0.8215 -1.6187
11607SOL    HW238738   2.788   2.439   4.499  0.4780  2.0053 -0.6249
11608SOL     OW38739   3.001   8.125   0.188 -0.9278  0.7532 -0.0137
11608SOL    HW138740   2.958   8.137   0.273 -0.3136  1.6007  0.1892
11608SOL    HW238741   3.094   8.116   0.209 -0.7142  1.4293 -0.6202
11609SOL     OW38742   0.856   8.578   6.608  0.2242  0.2931  0.0239
11609SOL    HW138743   0.819   8.489   6.606 -1.0682  0.7975  0.0255
11609SOL    HW238744   0.810   8.620   6.681  1.0469  0.8778  0.2089
11610SOL     OW38745   6.080   0.868   7.606  0.0166 -0.0098 -0.5080
11610SOL    HW138746   6.138   0.873   7.683  0.6136 -0.1113 -0.9429
11610SOL    HW238747   6.055   0.776   7.602  0.7771 -0.2071 -0.9962
11611SOL     OW38748   4.461   8.590   0.307  0.3551  0.5016 -0.0390
11611SOL    HW138749   4.435   8.567   0.396  0.1850  1.3340  0.1361
11611SOL    HW238750   4.385   8.567   0.253  0.9364 -1.2136 -0.1707
11612SOL     OW38751   7.235   0.590   5.154  0.0947 -0.4331  0.2576
11612SOL    HW138752   7.181   0.527   5.203 -0.8946  1.3222  1.5285
11612SOL    HW238753   7.318   0.592   5.202 -0.9868  1.5424  2.2629
11613SOL     OW38754   3.165   5.909   6.195  0.3320  0.3043  0.0591
11613SOL    HW138755   3.207   5.832   6.156 -0.1666  0.1421 -0.1643
11613SOL    HW238756   3.106   5.873   6.261 -0.0890  0.4762 -0.2191
11614SOL     OW38757   5.166   2.479   4.518 -0.0614 -0.3427  0.6494
11614SOL    HW138758   5.122   2.499   4.436 -1.1884 -0.4605  1.2115
11614SOL    HW238759   5.225   2.407   4.496 -1.7947 -1.7465  0.3282
11615SOL     OW38760   9.461   9.119   0.752  0.0686 -1.6151 -0.8226
11615SOL    HW138761   9.435   9.169   0.829  0.5666 -1.2420 -0.8906
11615SOL    HW238762   9.518   9.051   0.785  1.2261 -0.7515 -0.9756
11616SOL     OW38763   2.577   0.760   7.738 -0.4597 -0.6342  0.3223
11616SOL    HW138764   2.484   0.765   7.762 -0.3624  0.3553  0.4990
11616SOL    HW238765   2.606   0.851   7.732  0.1151 -0.8734 -1.2311
11617SOL     OW38766   0.903   5.098   1.112  0.0974  0.0116  0.1952
11617SOL    HW138767   0.934   5.126   1.026  0.5940  1.3811  0.7866
11617SOL    HW238768   0.831   5.038   1.093 -0.6660  1.2899 -1.1855
11618SOL     OW38769   0.541   1.643   9.999  0.1049  0.1450  0.3602
11618SOL    HW138770   0.579   1.587  10.066 -1.3989  0.5534  1.6086
11618SOL    HW238771   0.570   1.732  10.022 -1.4746  0.4619  1.3234
11619SOL     OW38772   4.861   8.421   2.504  0.1991  0.0368 -0.2841
11619SOL    HW138773   4.913   8.344   2.484  0.8874 -0.0331  1.5657
11619SOL    HW238774   4.905   8.493   2.458  0.9547 -0.3015 -0.0993
11620SOL     OW38775   3.398   5.593   9.449  0.3927  0.5725  0.0552
11620SOL    HW138776   3.364   5.680   9.429 -0.0347  1.2922  3.3242
11620SOL    HW238777   3.324   5.547   9.488  0.5171 -1.4626 -1.9056
11621SOL     OW38778   5.673   0.749   8.447 -0.2391 -0.7399 -0.0116
11621SOL    HW138779   5.731   0.785   8.379 -1.0666 -0.6675 -0.6933
11621SOL    HW238780   5.642   0.667   8.410  0.5065 -1.4718  0.9381
11622SOL     OW38781   1.512   5.803   3.811 -0.5105 -0.5398  0.5288
11622SOL    HW138782   1.525   5.727   3.868 -0.6477 -1.1795 -0.2703
11622SOL    HW238783   1.580   5.865   3.837 -1.3785 -0.2584  2.2724
11623SOL     OW38784   5.346   4.677   9.585 -0.4621 -0.1279  0.2174
11623SOL    HW138785   5.433   4.639   9.579 -0.2948  0.4137 -1.0698
11623SOL    HW238786   5.344   4.743   9.516 -1.8130  0.0135  0.3678
11624SOL     OW38787   7.393   9.632   1.368 -0.1569 -0.1468  0.1175
11624SOL    HW138788   7.429   9.692   1.433 -0.5477 -0.3591  0.5365
11624SOL    HW238789   7.341   9.569   1.419  0.5446 -1.0658 -0.2648
11625SOL     OW38790   0.103   1.351   7.717  0.4003  0.1774 -0.1600
11625SOL    HW138791   0.141   1.357   7.804 -0.7226 -0.3520  0.3917
11625SOL    HW238792   0.039   1.422   7.713  0.4519  0.2062 -0.5573
11626SOL     OW38793   4.163   1.043   8.529 -0.3310 -0.8929  0.5344
11626SOL    HW138794   4.239   1.080   8.574 -0.0466 -0.0838 -0.5650
11626SOL    HW238795   4.133   0.972   8.586  0.1144 -0.0314  1.9051
11627SOL     OW38796   5.253   5.527   3.474 -0.1128  0.2633 -0.8349
11627SOL    HW138797   5.177   5.506   3.529  0.4724  1.8334  0.6646
11627SOL    HW238798   5.288   5.442   3.448 -1.8056 -0.4977 -0.7654
11628SOL     OW38799   1.994   6.680   7.292 -0.0105 -0.5981 -0.1558
11628SOL    HW138800   2.023   6.610   7.233  0.7160  0.4188 -1.0476
11628SOL    HW238801   2.003   6.760   7.241 -0.7958  0.1620  0.8535
11629SOL     OW38802   9.974   1.980   4.537  0.3684  0.6089  0.7688
11629SOL    HW138803   9.900   1.992   4.477  0.2260  2.7513  1.2865
11629SOL    HW238804   9.970   1.887   4.562 -0.4389  0.0135 -1.3578
11630SOL     OW38805   2.044   0.082   4.726 -1.0144  0.2022 -0.0470
11630SOL    HW138806   2.045   0.167   4.770 -1.6102  0.5052 -0.6141
11630SOL    HW238807   2.033   0.019   4.797 -0.9361  0.6160  0.3390
11631SOL     OW38808   5.150   2.571   4.911  0.3207  0.2574  0.7101
11631SOL    HW138809   5.189   2.584   4.998  3.2233 -2.2143 -0.0511
11631SOL    HW238810   5.133   2.477   4.906 -0.3068  0.4280 -1.2135
11632SOL     OW38811   0.247   6.489   6.712  0.3487  0.1038 -0.1485
11632SOL    HW138812   0.210   6.563   6.663 -1.9030 -1.3633 -0.8275
11632SOL    HW238813   0.240   6.516   6.804 -1.2829  0.4244 -0.3324
11633SOL     OW38814   0.096   6.633   5.386  0.0827  0.8733 -0.0086
11633SOL    HW138815   0.144   6.553   5.409 -1.4810  0.1228  0.7269
11633SOL    HW238816   0.009   6.602   5.361 -0.1142  2.2363 -1.1117
11634SOL     OW38817   5.236   1.299   4.663  0.1637 -0.5900  0.1222
11634SOL    HW138818   5.303   1.366   4.649  0.0019  0.0051  1.9200
11634SOL    HW238819   5.284   1.217   4.669  0.8528 -0.1096  1.9030
11635SOL     OW38820   2.014   2.277   8.266  0.0780  0.5912 -0.0805
11635SOL    HW138821   1.970   2.205   8.221  1.0892 -0.1126  0.0316
11635SOL    HW238822   1.948   2.347   8.269 -1.0580 -0.4459  0.1407
11636SOL     OW38823   9.539  10.033   7.554 -0.3184  0.4954  0.0602
11636SOL    HW138824   9.616  10.088   7.572  0.7834 -0.5842 -1.1602
11636SOL    HW238825   9.510  10.061   7.467  0.3718 -0.9163 -0.6654
11637SOL     OW38826   0.154   6.588   4.886  0.2639 -0.1831 -0.7290
11637SOL    HW138827   0.098   6.594   4.809  1.3536 -1.6144 -1.6741
11637SOL    HW238828   0.095   6.556   4.955 -0.5238  0.2479 -1.1907
11638SOL     OW38829   9.931   5.620   1.617  0.9166 -0.2907 -0.1400
11638SOL    HW138830  10.005   5.585   1.567  1.3567  0.0887  0.2328
11638SOL    HW238831   9.875   5.544   1.633  2.2174 -1.0059  1.2833
11639SOL     OW38832   5.278   3.482   1.468  0.2761 -0.3624 -0.3626
11639SOL    HW138833   5.212   3.431   1.420 -0.7089  0.5231 -0.0100
11639SOL    HW238834   5.343   3.418   1.496 -0.0200 -1.1456 -1.4130
11640SOL     OW38835   7.168   7.819   3.803  0.2327  0.0108  0.4203
11640SOL    HW138836   7.199   7.808   3.713  0.7601 -0.7401  0.6891
11640SOL    HW238837   7.166   7.914   3.815 -0.1944  0.1324 -0.4962
11641SOL     OW38838   5.275  10.159  10.146 -0.0197  0.1462  0.1681
11641SOL    HW138839   5.196  10.127  10.190 -0.8680 -0.6439 -1.8161
11641SOL    HW238840   5.308  10.084  10.097  2.5905  0.1699  1.6665
11642SOL     OW38841   0.939   8.336   4.602  0.4693  0.1013 -0.3376
11642SOL    HW138842   0.845   8.315   4.602  0.3476  0.6003 -0.9954
11642SOL    HW238843   0.979   8.266   4.551  0.4327 -0.0368 -0.1766
11643SOL     OW38844   2.532   5.323   4.428  0.0206  0.1077  0.4718
11643SOL    HW138845   2.464   5.346   4.365  0.9377  0.5267 -0.3848
11643SOL    HW238846   2.596   5.394   4.422  0.3592 -0.0835  1.5416
11644SOL     OW38847   9.092   6.412   4.149  0.2291 -0.1747  0.4196
11644SOL    HW138848   9.112   6.341   4.088  1.8378  0.3853  0.2531
11644SOL    HW238849   9.008   6.446   4.120  0.4899 -0.5805 -0.8541
11645SOL     OW38850   1.832  10.075   6.805 -0.4482  0.5277  0.2607
11645SOL    HW138851   1.843   9.988   6.766 -2.3762  0.6334 -0.6431
11645SOL    HW238852   1.902  10.082   6.870  1.9472 -0.2695 -2.0929
11646SOL     OW38853   9.702   6.952   6.495  0.2254 -0.2122 -0.1333
11646SOL    HW138854   9.775   6.917   6.547  0.2453 -1.5137 -1.0122
11646SOL    HW238855   9.720   7.046   6.490  1.7647 -0.4895 -0.2098
11647SOL     OW38856   9.546   9.355   4.643  0.1090 -0.1666  0.3926
11647SOL    HW138857   9.623   9.310   4.678  0.5137  0.1539 -0.0763
11647SOL    HW238858   9.488   9.365   4.718  0.0446 -1.4055  0.5260
11648SOL     OW38859   5.756   3.333   7.106 -0.2819 -0.2890  0.5776
11648SOL    HW138860   5.679   3.387   7.121 -1.2507 -1.3944 -0.2495
11648SOL    HW238861   5.790   3.362   7.021  0.5858  0.5909  1.1990
11649SOL     OW38862   1.465   3.245   4.685  0.1195  0.0483 -0.2592
11649SOL    HW138863   1.468   3.298   4.605 -1.1331  1.6312  0.6803
11649SOL    HW238864   1.554   3.247   4.719  0.8485 -1.2234 -1.9090
11650SOL     OW38865   7.163   5.904   6.983  0.1136 -0.0986  0.0326
11650SOL    HW138866   7.189   5.982   6.934 -1.8498  0.5998  0.0484
11650SOL    HW238867   7.246   5.871   7.020  0.8815  2.6314  1.0088
11651SOL     OW38868   0.662   7.092   3.990 -0.2273 -0.4129 -0.0355
11651SOL    HW138869   0.687   7.035   4.063  0.6715  0.3036  0.2295
11651SOL    HW238870   0.584   7.138   4.021  0.9907  0.9921  1.0908
11652SOL     OW38871   8.066   8.550   5.567  0.0376  0.5995  0.3330
11652SOL    HW138872   8.128   8.622   5.554 -1.7631  2.1032 -0.4201
11652SOL    HW238873   7.983   8.585   5.536 -0.7185 -2.2097 -1.1088
11653SOL     OW38874   2.515   5.006   0.333 -0.2131  0.1414 -0.0071
11653SOL    HW138875   2.604   5.034   0.310 -0.5379  0.2015 -1.2592
11653SOL    HW238876   2.504   4.921   0.291 -0.6292 -0.0383  0.4494
11654SOL     OW38877   2.509   0.781   4.400 -0.1793 -0.6366 -0.5594
11654SOL    HW138878   2.493   0.824   4.316  0.9934  0.8604 -0.0712
11654SOL    HW238879   2.485   0.690   4.386 -1.5758 -0.0787 -2.0219
11655SOL     OW38880   8.175   1.177   5.348 -0.3387 -0.5927 -0.6134
11655SOL    HW138881   8.210   1.266   5.344 -1.0651 -0.3443 -2.9748
11655SOL    HW238882   8.093   1.185   5.397  0.6735 -0.4116  1.1297
11656SOL     OW38883   4.902   7.029   2.309 -0.3167  0.0368 -0.2355
11656SOL    HW138884   4.895   7.035   2.405 -0.2837  1.2568 -0.2875
11656SOL    HW238885   4.943   7.111   2.283 -0.8785 -0.0115 -1.3484
11657SOL     OW38886   7.568   6.464   1.178 -0.0741 -0.2452  0.0494
11657SOL    HW138887   7.512   6.387   1.181 -0.5668  0.0245 -1.3962
11657SOL    HW238888   7.548   6.512   1.258 -1.8010 -0.2316 -0.3654
11658SOL     OW38889   2.061   2.900   7.501  0.5428 -0.0470  0.2663
11658SOL    HW138890   2.055   2.853   7.419  0.2563  0.6228 -0.1015
11658SOL    HW238891   2.071   2.832   7.568  1.0044 -0.5786 -0.3425
11659SOL     OW38892   6.414   5.499   8.896 -0.0390  0.3850 -0.1350
11659SOL    HW138893   6.410   5.554   8.974  1.2917 -0.8705  0.8720
11659SOL    HW238894   6.336   5.443   8.902  0.5709 -0.3871  0.8619
11660SOL     OW38895   8.376   2.099   6.372  0.1107 -0.4547 -0.4737
11660SOL    HW138896   8.433   2.024   6.389  1.1540  0.6571  1.1932
11660SOL    HW238897   8.290   2.072   6.404  0.9199 -0.2717  2.0199
11661SOL     OW38898   9.302   9.859   7.108 -0.0241  0.2210  0.3220
11661SOL    HW138899   9.250   9.779   7.119 -0.3692  0.1574 -1.4574
11661SOL    HW238900   9.276   9.914   7.182 -0.1297 -1.1123  1.3201
11662SOL     OW38901   7.490   3.797   1.539 -0.2216 -0.6371  0.1947
11662SOL    HW138902   7.528   3.764   1.457 -1.0623  2.9097 -1.8434
11662SOL    HW238903   7.564   3.837   1.585 -0.0892 -0.8546  0.1702
11663SOL     OW38904   7.616   6.000   0.409 -0.3394 -0.5853  0.0744
11663SOL    HW138905   7.657   6.071   0.360 -1.2873 -0.8510 -1.1666
11663SOL    HW238906   7.527   6.032   0.427 -0.2523 -0.8047  0.9807
11664SOL     OW38907   1.373   4.007   9.274  0.0658 -0.8420  0.0906
11664SOL    HW138908   1.345   4.033   9.186  1.2145 -0.5416 -0.1972
11664SOL    HW238909   1.296   4.023   9.328  0.1741  1.7205 -0.3547
11665SOL     OW38910   7.288   1.665   4.894 -0.0477  0.0101  0.1108
11665SOL    HW138911   7.241   1.730   4.842  0.8599  0.3115 -0.3707
11665SOL    HW238912   7.277   1.583   4.846 -0.4786 -0.0135  0.2538
11666SOL     OW38913   6.468   7.949   5.602 -0.1325 -0.0725 -0.3571
11666SOL    HW138914   6.377   7.935   5.575 -0.4366 -0.6701  0.9074
11666SOL    HW238915   6.499   8.019   5.545 -1.4512  0.2862 -0.6728
11667SOL     OW38916   9.095   3.996   2.957  0.3316 -0.0472  0.6459
11667SOL    HW138917   9.045   4.072   2.986 -1.1644 -0.6715 -0.2065
11667SOL    HW238918   9.150   3.973   3.032  0.5424  1.6289  1.0447
11668SOL     OW38919   1.323   8.240   2.157 -0.4688  0.2719 -0.2271
11668SOL    HW138920   1.330   8.228   2.251  0.8326 -0.3476 -0.3797
11668SOL    HW238921   1.345   8.333   2.143 -0.3622  0.2899  0.0582
11669SOL     OW38922   4.240   5.808   3.805  0.1830  0.5543 -0.3113
11669SOL    HW138923   4.304   5.864   3.848  0.1242 -0.2598  0.8730
11669SOL    HW238924   4.155   5.846   3.827  0.1585  0.2071  0.2187
11670SOL     OW38925   1.876   6.211   2.317 -0.1923  0.1494  0.4389
11670SOL    HW138926   1.896   6.293   2.272 -0.4846  0.4225  0.7985
11670SOL    HW238927   1.944   6.150   2.289  0.8735  0.9207  1.2930
11671SOL     OW38928   9.689   5.397   3.545  0.3184  0.1974  0.4449
11671SOL    HW138929   9.707   5.468   3.483 -2.2459 -0.0529 -0.7130
11671SOL    HW238930   9.758   5.332   3.528 -0.6080 -0.1505 -2.7014
11672SOL     OW38931   5.930   7.139   6.009 -0.8486 -0.0479 -0.2902
11672SOL    HW138932   5.998   7.207   6.013  0.7789 -1.6689  2.2329
11672SOL    HW238933   5.973   7.066   5.964 -0.2478 -1.6431  2.6546
11673SOL     OW38934   2.569   6.176   2.396  0.0365  0.2616 -0.2598
11673SOL    HW138935   2.618   6.200   2.317  0.3245  2.3892  0.4825
11673SOL    HW238936   2.634   6.180   2.466 -0.5573  0.0620  0.3123
11674SOL     OW38937   5.546   9.091   3.181 -0.3531 -0.2218 -0.4553
11674SOL    HW138938   5.563   9.129   3.267 -2.0101  2.7114 -1.2606
11674SOL    HW238939   5.451   9.082   3.177 -0.1787 -2.1165 -1.3395
11675SOL     OW38940   4.261   7.841   4.402  0.6181  0.8019 -0.6410
11675SOL    HW138941   4.304   7.927   4.407  1.1154  0.4898  1.0408
11675SOL    HW238942   4.302   7.790   4.472  0.4404 -0.8689 -1.7111
11676SOL     OW38943   4.408   6.226   1.412  0.5202  0.4691 -0.6412
11676SOL    HW138944   4.451   6.140   1.413 -1.3045 -0.5031  0.2399
11676SOL    HW238945   4.354   6.225   1.333  1.0546  1.1411 -1.0304
11677SOL     OW38946   6.724   6.549   7.104  0.3703  0.4890 -0.3556
11677SOL    HW138947   6.723   6.604   7.025 -0.3130 -0.0064 -0.6936
11677SOL    HW238948   6.810   6.508   7.103  1.5664  2.7412  0.7460
11678SOL     OW38949  10.166   9.758   0.995  0.2620 -0.6386 -0.3726
11678SOL    HW138950  10.122   9.799   1.070 -1.6466  1.8305 -2.6209
11678SOL    HW238951  10.226   9.826   0.962 -0.8706 -0.5848 -2.5288
11679SOL     OW38952  10.041   1.191   5.869  0.6874 -0.3722  0.3650
11679SOL    HW138953   9.958   1.238   5.876  0.6981 -0.3205  0.1394
11679SOL    HW238954  10.054   1.152   5.956  2.0913  2.4251  1.5333
11680SOL     OW38955   7.813   0.784   4.389  0.4808 -0.0670 -0.0932
11680SOL    HW138956   7.906   0.787   4.367  0.6329  1.0465  0.6258
11680SOL    HW238957   7.808   0.819   4.478 -0.7737  1.4226 -0.7020
11681SOL     OW38958   0.987   2.602   7.648  0.0611  0.3287 -0.2938
11681SOL    HW138959   0.988   2.506   7.650  0.6602  0.3366  1.1600
11681SOL    HW238960   1.075   2.627   7.622 -0.4244  0.5026 -1.8563
11682SOL     OW38961   8.436   8.405   7.331 -0.0120 -0.7516  0.5807
11682SOL    HW138962   8.486   8.328   7.306  1.0026  0.4086 -1.1130
11682SOL    HW238963   8.345   8.380   7.315  0.4345 -0.8835 -2.1728
11683SOL     OW38964   7.356   6.172   4.567 -0.3222 -0.0514  0.2762
11683SOL    HW138965   7.405   6.240   4.613  0.1671  0.0125 -0.3200
11683SOL    HW238966   7.342   6.207   4.479  0.0119 -0.7528 -0.0687
11684SOL     OW38967   2.029   0.774   2.287  0.6503 -0.0444 -0.2319
11684SOL    HW138968   2.094   0.771   2.218  0.3348  0.3956 -0.5539
11684SOL    HW238969   1.958   0.717   2.257  0.6978 -0.1857 -0.0783
11685SOL     OW38970   8.124   9.425   2.445 -0.3760 -0.0469  0.5527
11685SOL    HW138971   8.057   9.359   2.426 -0.5951  0.2867  0.1428
11685SOL    HW238972   8.181   9.423   2.368 -0.0461 -0.1720  0.8022
11686SOL     OW38973   5.777   0.876   8.235  0.0597 -0.2495  0.1288
11686SOL    HW138974   5.731   0.916   8.161  1.5442 -0.9407 -1.2221
11686SOL    HW238975   5.840   0.816   8.195  0.6217 -0.9587  1.9774
11687SOL     OW38976   6.397   5.461   1.631 -0.9919  0.3716 -0.7206
11687SOL    HW138977   6.477   5.415   1.654 -2.4953 -2.2219 -0.3356
11687SOL    HW238978   6.373   5.427   1.545 -1.9312  0.7740 -0.6318
11688SOL     OW38979   8.208   7.501   1.068 -0.5190 -0.4344  0.2113
11688SOL    HW138980   8.117   7.518   1.045 -0.3644  0.0070 -0.0809
11688SOL    HW238981   8.237   7.436   1.003  0.0670  1.1814 -1.2250
11689SOL     OW38982   2.210   2.076   9.230  0.0386 -0.2513 -0.4719
11689SOL    HW138983   2.198   1.981   9.237  1.8474 -0.5706 -1.2470
11689SOL    HW238984   2.148   2.102   9.161  0.0198 -0.9730 -0.7366
11690SOL     OW38985   6.686   2.078   5.464 -0.1475  0.4339  0.2844
11690SOL    HW138986   6.705   2.119   5.548  1.0197 -0.2539  0.3762
11690SOL    HW238987   6.720   2.140   5.399 -1.7224  1.3213  0.2572
11691SOL     OW38988   7.772   1.848   5.599  0.1283  0.0584 -0.2784
11691SOL    HW138989   7.698   1.791   5.621 -0.6836  1.5904  1.2585
11691SOL    HW238990   7.758   1.872   5.508 -1.1765  0.1264 -0.0772
11692SOL     OW38991   0.091   8.937   6.216 -0.1468  0.1246  0.9532
11692SOL    HW138992   0.043   8.959   6.136 -0.2137  0.6957  1.1467
11692SOL    HW238993   0.038   8.973   6.287  0.6000  0.8324  1.1683
11693SOL     OW38994   6.160   5.095   7.919 -0.2627 -0.3797 -0.0363
11693SOL    HW138995   6.084   5.141   7.883 -1.0324 -1.2651  0.3883
11693SOL    HW238996   6.191   5.151   7.990 -2.1059 -1.1529  1.4654
11694SOL     OW38997   8.975   6.136   9.871 -0.7060 -0.3073 -0.0420
11694SOL    HW138998   9.037   6.191   9.823  1.6549 -2.9163 -0.2633
11694SOL    HW238999   8.959   6.183   9.953  4.0040 -0.6684  1.3951
11695SOL     OW39000   8.865   7.526   5.090  0.0670 -0.5210 -0.4204
11695SOL    HW139001   8.952   7.539   5.051 -0.4362 -0.4778 -1.5605
11695SOL    HW239002   8.810   7.500   5.017 -1.1438  0.5532  0.0784
11696SOL     OW39003   6.118   1.436   0.490 -0.2245  0.6183 -0.4949
11696SOL    HW139004   6.121   1.382   0.569 -2.0697  3.5392  1.8077
11696SOL    HW239005   6.195   1.493   0.497  0.1323  0.2549 -1.3445
11697SOL     OW39006   8.927   4.793   4.637  0.4569 -0.6286 -0.2872
11697SOL    HW139007   8.897   4.712   4.595 -0.6309 -1.2732  1.6302
11697SOL    HW239008   8.850   4.850   4.636  0.8241 -0.1279 -0.3676
11698SOL     OW39009   2.391   8.311   4.605  0.1898  0.0529 -0.1427
11698SOL    HW139010   2.474   8.297   4.651 -0.1976 -0.3117  0.4607
11698SOL    HW239011   2.403   8.270   4.519  0.5845 -0.1133 -0.0091
11699SOL     OW39012   5.694   1.081   1.744 -0.0611 -0.2603  0.0115
11699SOL    HW139013   5.676   1.081   1.650 -0.2831 -0.4426  0.0530
11699SOL    HW239014   5.725   0.993   1.763 -1.9585 -0.8892  0.4678
11700SOL     OW39015   1.232   5.881   7.658  0.3829  0.1358  0.1783
11700SOL    HW139016   1.279   5.817   7.605 -0.4468  1.3655 -2.1942
11700SOL    HW239017   1.187   5.937   7.595 -0.3133  2.0209  2.1835
11701SOL     OW39018   6.839   7.092   0.780 -0.3121  0.2953  0.0117
11701SOL    HW139019   6.773   7.083   0.848 -1.1579  0.6090 -0.7444
11701SOL    HW239020   6.914   7.042   0.812 -1.9731 -2.7720 -0.4849
11702SOL     OW39021   1.018   5.820   7.990 -0.1689  0.2646  0.3460
11702SOL    HW139022   1.110   5.793   7.995  0.3108  1.8783  4.2699
11702SOL    HW239023   0.972   5.756   8.045 -1.2471  0.1510 -0.6388
11703SOL     OW39024   3.727   9.816   8.077 -0.1468  0.3008 -0.2334
11703SOL    HW139025   3.821   9.832   8.079  0.3236 -1.4351 -3.3220
11703SOL    HW239026   3.717   9.724   8.098 -1.1176  0.3500 -0.4149
11704SOL     OW39027   8.891   6.531   8.215 -0.0382 -0.5416  0.0093
11704SOL    HW139028   8.848   6.610   8.248 -0.3325 -0.0103 -1.5646
11704SOL    HW239029   8.965   6.564   8.163  1.3549 -1.3987  1.3548
11705SOL     OW39030   7.437   7.617   0.269  0.0708  0.2946  0.5538
11705SOL    HW139031   7.393   7.536   0.293 -0.0089 -0.1781 -1.0763
11705SOL    HW239032   7.381   7.686   0.304 -0.9794 -0.3280  0.1337
11706SOL     OW39033   6.988   3.010   0.131  0.4221  0.1941  0.0819
11706SOL    HW139034   6.982   2.962   0.048  0.6201 -0.1275  0.2514
11706SOL    HW239035   6.899   3.007   0.167  0.2865  0.5250 -0.2225
11707SOL     OW39036   7.351   8.337  10.201  0.1574 -0.7898 -0.2296
11707SOL    HW139037   7.432   8.369  10.240 -1.1564  1.4130  0.8702
11707SOL    HW239038   7.372   8.326  10.108  2.0761 -1.6748  0.2622
11708SOL     OW39039   1.081   8.729   3.189  0.4928 -0.3978 -0.5027
11708SOL    HW139040   1.149   8.666   3.210 -1.2115 -2.1941 -0.0976
11708SOL    HW239041   1.088   8.741   3.094  1.5336 -0.3455 -0.4217
11709SOL     OW39042   0.949   9.162   6.495  0.1144 -0.6459 -0.7460
11709SOL    HW139043   0.983   9.250   6.509 -1.2433  0.0352 -1.5162
11709SOL    HW239044   0.959   9.147   6.401  2.7548 -2.3981 -0.2680
11710SOL     OW39045   2.061   2.553   9.520 -0.6574 -0.5485 -0.5584
11710SOL    HW139046   2.089   2.466   9.549  1.5639  0.2779 -0.0017
11710SOL    HW239047   2.129   2.581   9.459  0.1676  1.8221  1.2839
11711SOL     OW39048   1.602   6.364   3.255 -0.2941  0.6113  0.3665
11711SOL    HW139049   1.641   6.444   3.221 -1.6086  2.2918  2.5295
11711SOL    HW239050   1.656   6.341   3.330  0.3960 -0.9068 -0.5495
11712SOL     OW39051   4.443   2.781   9.953  0.2841 -0.2364 -0.2972
11712SOL    HW139052   4.354   2.758   9.925  0.5199 -0.6880 -0.6823
11712SOL    HW239053   4.487   2.697   9.966  0.7058 -0.0144 -0.2686
11713SOL     OW39054   5.803   6.652   6.885 -0.0172 -0.1306  0.7793
11713SOL    HW139055   5.812   6.697   6.801 -0.3358 -0.3709  0.6162
11713SOL    HW239056   5.711   6.628   6.890  0.0487 -0.3237  1.0929
11714SOL     OW39057   1.486   5.855   3.171  0.4698  0.3906 -0.1859
11714SOL    HW139058   1.442   5.785   3.219  0.9968  0.3111  0.1820
11714SOL    HW239059   1.490   5.928   3.232  0.2624  0.6170 -0.4408
11715SOL     OW39060   8.268   7.044   5.687  0.0955 -0.3590  0.0521
11715SOL    HW139061   8.175   7.061   5.705  0.2867 -0.0925  0.8564
11715SOL    HW239062   8.311   7.127   5.707  0.3272  0.0251 -1.8854
11716SOL     OW39063   9.877   2.274   8.537 -0.1235 -0.7217 -0.2513
11716SOL    HW139064   9.901   2.269   8.444  0.2066 -0.2649 -0.1968
11716SOL    HW239065   9.889   2.185   8.570 -0.2796 -0.8958 -0.6533
11717SOL     OW39066   2.391   5.929   8.412  0.1851  0.1235  0.1318
11717SOL    HW139067   2.405   5.968   8.326  0.8282 -0.1861  0.0908
11717SOL    HW239068   2.415   5.837   8.400 -1.7094 -0.4098  0.1163
11718SOL     OW39069   1.185  10.201   7.087  0.6330 -0.0411 -0.1914
11718SOL    HW139070   1.266  10.228   7.043  1.4451 -0.1376  1.1762
11718SOL    HW239071   1.213  10.130   7.146 -0.3509  0.2418  0.6422
11719SOL     OW39072   5.371   3.562   4.885  0.5836 -0.2067 -0.1494
11719SOL    HW139073   5.393   3.476   4.849  1.3058  0.1328 -0.5395
11719SOL    HW239074   5.369   3.549   4.980 -1.3339 -1.1120 -0.2662
11720SOL     OW39075   3.514   4.710   1.162  0.3428 -0.3208  0.3381
11720SOL    HW139076   3.595   4.708   1.112  0.5044 -0.5906  0.6060
11720SOL    HW239077   3.448   4.739   1.099  0.2745 -2.0404 -0.4579
11721SOL     OW39078   8.460   3.098   5.763  0.0488  0.2060 -0.1537
11721SOL    HW139079   8.456   3.096   5.859  0.6906 -1.3783 -0.1320
11721SOL    HW239080   8.375   3.066   5.734 -0.3876  1.3034 -0.1474
11722SOL     OW39081   0.455   9.256   5.282  0.3608  0.2528  0.0907
11722SOL    HW139082   0.477   9.346   5.256 -2.1094  0.7888 -0.3931
11722SOL    HW239083   0.362   9.247   5.260  0.4042 -2.2421  0.6895
11723SOL     OW39084  10.169   0.543   0.091  0.2492  0.2309 -0.3026
11723SOL    HW139085  10.159   0.612   0.156 -3.8910  0.1447 -0.5842
11723SOL    HW239086  10.180   0.463   0.142  1.7296  0.6581  0.0934
11724SOL     OW39087   9.917   8.143   3.725 -0.1780 -0.6988  0.4694
11724SOL    HW139088   9.884   8.233   3.729 -0.5548 -0.8031 -0.2142
11724SOL    HW239089   9.840   8.089   3.740  0.0918 -0.9106  1.1197
11725SOL     OW39090   0.276   7.746   8.493 -0.0279 -0.0785  0.0307
11725SOL    HW139091   0.209   7.704   8.439 -0.1171 -0.7680  0.6548
11725SOL    HW239092   0.294   7.682   8.562  0.0882  0.7833  0.8099
11726SOL     OW39093   3.986   4.211   2.117 -0.1173  0.0016  0.3017
11726SOL    HW139094   3.971   4.232   2.209 -0.3998  0.7598  0.0848
11726SOL    HW239095   3.935   4.275   2.068  2.3929  1.5986 -0.4302
11727SOL     OW39096   5.861   9.835   5.680  0.1783 -0.5319  0.1041
11727SOL    HW139097   5.929   9.772   5.657  0.0906 -1.0996  1.3224
11727SOL    HW239098   5.902   9.893   5.743  0.3123  0.7804 -1.1557
11728SOL     OW39099   4.308   2.772   0.437 -0.7503  0.2733 -0.1875
11728SOL    HW139100   4.318   2.777   0.342 -1.8211  0.3318 -0.3148
11728SOL    HW239101   4.367   2.702   0.464 -2.0842 -1.3329 -1.2021
11729SOL     OW39102   2.111   8.114   2.509 -0.5952  0.1435 -0.3990
11729SOL    HW139103   2.179   8.181   2.520  0.5244 -0.4351 -2.9625
11729SOL    HW239104   2.035   8.162   2.476 -0.8353  0.5438  0.7047
11730SOL     OW39105   3.080   7.927   6.229  0.3724  0.0116  0.3406
11730SOL    HW139106   3.002   7.875   6.249 -0.4289  1.0860  0.0817
11730SOL    HW239107   3.109   7.895   6.144 -0.3638  0.2705 -0.0142
11731SOL     OW39108   1.657   9.691   9.046  0.6301  0.3201  0.2143
11731SOL    HW139109   1.724   9.657   9.104  0.9872 -1.2446 -1.0348
11731SOL    HW239110   1.693   9.678   8.958 -0.8541  0.4579 -0.4406
11732SOL     OW39111   6.592   1.451   5.708  0.0079 -0.8074 -0.5969
11732SOL    HW139112   6.641   1.386   5.758 -0.8227 -0.5536  0.5822
11732SOL    HW239113   6.650   1.527   5.704 -0.4745 -0.2907  1.3123
11733SOL     OW39114   7.680   4.927   1.822  0.2686  0.2975  0.1373
11733SOL    HW139115   7.728   4.849   1.798 -0.3165  0.4998 -1.8563
11733SOL    HW239116   7.629   4.901   1.899 -2.8983 -2.6448 -2.5728
11734SOL     OW39117   7.450   5.750   5.341 -0.3574  0.3342  0.2908
11734SOL    HW139118   7.423   5.675   5.394 -0.8036 -0.8499 -1.5060
11734SOL    HW239119   7.368   5.787   5.308 -0.0676  0.5113 -0.2415
11735SOL     OW39120   7.655   8.181   2.292 -0.2644  0.5572 -0.0103
11735SOL    HW139121   7.642   8.256   2.351  1.3379  0.3792  0.6133
11735SOL    HW239122   7.744   8.151   2.311 -0.5920 -1.0173 -0.8226
11736SOL     OW39123   5.883   3.235   6.083  0.3451 -0.7648  0.5597
11736SOL    HW139124   5.927   3.154   6.056  0.3841 -1.1755  1.8179
11736SOL    HW239125   5.892   3.292   6.007  0.1359 -2.0008 -0.4432
11737SOL     OW39126   6.378   8.460   5.468 -0.6551 -0.3183 -0.8064
11737SOL    HW139127   6.441   8.387   5.465 -1.5251 -1.0808 -1.0123
11737SOL    HW239128   6.295   8.421   5.442 -1.3177  0.5772 -0.1073
11738SOL     OW39129   7.967   5.753   4.191  0.0644  0.5194 -0.5842
11738SOL    HW139130   7.885   5.759   4.141 -0.8044 -0.4898  0.6581
11738SOL    HW239131   8.026   5.703   4.134 -0.5840  0.2152 -0.9976
11739SOL     OW39132   5.949  10.078   3.256 -0.1247 -0.1412 -0.5284
11739SOL    HW139133   6.013  10.141   3.222  1.5921 -0.5718  1.7069
11739SOL    HW239134   5.937  10.015   3.184  2.5682 -0.4727 -0.7752
11740SOL     OW39135   9.077   5.556   4.635 -0.7703 -0.2321 -0.0967
11740SOL    HW139136   9.036   5.524   4.555 -0.4542 -0.0884 -0.3141
11740SOL    HW239137   9.129   5.631   4.607 -0.3561 -0.4134  0.1809
11741SOL     OW39138   1.695   1.586   4.659  0.3843 -0.2753  0.1094
11741SOL    HW139139   1.624   1.607   4.598 -0.4338 -1.3078  0.6907
11741SOL    HW239140   1.665   1.619   4.743  0.7021 -0.5007  0.3120
11742SOL     OW39141   9.442   9.913   1.787  0.9472 -0.2033 -0.8669
11742SOL    HW139142   9.388   9.837   1.764 -0.0500  0.5127 -0.9688
11742SOL    HW239143   9.503   9.880   1.853  1.1283 -1.3040 -1.5451
11743SOL     OW39144   8.964   0.693   5.359 -1.1015 -0.0872  0.0214
11743SOL    HW139145   8.993   0.741   5.436  1.1579  0.3186 -0.9939
11743SOL    HW239146   8.978   0.754   5.286 -0.6173 -1.3732 -0.9995
11744SOL     OW39147   3.355   9.500   9.591  0.0190  0.4472  0.3801
11744SOL    HW139148   3.410   9.489   9.513  0.6887 -1.3145  1.0444
11744SOL    HW239149   3.352   9.594   9.606  0.7690  0.7454 -1.1320
11745SOL     OW39150   5.189   0.008   4.928 -0.1995 -0.2573  0.3182
11745SOL    HW139151   5.159   0.091   4.891  0.3053  0.6109  1.7687
11745SOL    HW239152   5.133  -0.058   4.886 -1.0706  0.8658 -0.3682
11746SOL     OW39153   8.449   3.213   2.058 -0.4344  0.0590  0.2402
11746SOL    HW139154   8.500   3.286   2.022 -0.4404 -0.4398 -0.8417
11746SOL    HW239155   8.512   3.164   2.110  0.0654 -0.2155 -0.5953
11747SOL     OW39156   8.825   7.577   6.277  0.2442 -0.1605 -0.3486
11747SOL    HW139157   8.761   7.516   6.240  1.7466 -1.8881 -0.2959
11747SOL    HW239158   8.794   7.594   6.366 -0.4111 -0.5514 -0.4990
11748SOL     OW39159   9.126   3.702   3.678 -0.0925 -0.3214 -0.1337
11748SOL    HW139160   9.198   3.662   3.728 -0.3815 -0.0388  0.5259
11748SOL    HW239161   9.064   3.631   3.666 -1.0102  0.0735  1.7972
11749SOL     OW39162   5.801   4.822   1.083 -0.0074 -0.8750 -0.3913
11749SOL    HW139163   5.861   4.748   1.088 -0.1205 -0.9019  1.3918
11749SOL    HW239164   5.801   4.858   1.172  0.1719  1.3765 -1.2461
11750SOL     OW39165   6.542   0.944   4.348  0.6442 -0.4029  0.6712
11750SOL    HW139166   6.473   0.935   4.282  0.0462 -1.7611  1.4435
11750SOL    HW239167   6.497   0.972   4.427  0.9840 -1.2217  1.1636
11751SOL     OW39168   2.191   6.971   1.747 -0.0753 -0.0848 -0.3904
11751SOL    HW139169   2.176   6.922   1.828  0.4331 -0.6417 -0.6265
11751SOL    HW239170   2.223   6.906   1.685 -0.0331  0.4241 -0.9151
11752SOL     OW39171   3.507   5.196   1.066 -0.6549 -1.0268  0.4040
11752SOL    HW139172   3.502   5.158   1.153 -1.1378 -2.0881 -0.0709
11752SOL    HW239173   3.515   5.291   1.081 -4.0035 -0.8225  1.5781
11753SOL     OW39174   3.353  10.202   2.799 -0.5181 -0.4149 -0.1342
11753SOL    HW139175   3.414  10.172   2.866 -1.3998 -1.9916  0.0041
11753SOL    HW239176   3.354  10.133   2.733 -1.1804  0.1528 -0.7498
11754SOL     OW39177   7.875   8.293   4.718  0.1131  0.1264 -0.1817
11754SOL    HW139178   7.898   8.236   4.645 -1.8891 -1.0671  0.0328
11754SOL    HW239179   7.895   8.242   4.796 -0.0916  0.4008  0.0534
11755SOL     OW39180   1.279  10.128   1.490  0.3149  0.1589 -0.0274
11755SOL    HW139181   1.213  10.058   1.493  0.0557  0.3581 -0.9983
11755SOL    HW239182   1.316  10.123   1.403  1.3841  0.2577  0.4068
11756SOL     OW39183   6.827   9.116   6.218  0.0784 -0.2185  0.0539
11756SOL    HW139184   6.831   9.108   6.123  1.9863 -0.8213  0.1472
11756SOL    HW239185   6.918   9.117   6.246 -0.4506 -1.1056  1.9697
11757SOL     OW39186   3.628   0.660   7.165 -0.2576  0.1781  0.0496
11757SOL    HW139187   3.594   0.718   7.234 -0.1943  1.0634 -0.6463
11757SOL    HW239188   3.723   0.670   7.170 -0.1051 -1.4289  1.2442
11758SOL     OW39189   3.563   9.708   5.511  0.1244 -0.6285 -0.0037
11758SOL    HW139190   3.497   9.695   5.579 -0.7312 -1.5977 -0.9784
11758SOL    HW239191   3.512   9.724   5.431  1.0918 -0.2713 -0.5596
11759SOL     OW39192   4.715   5.107   4.823 -0.4372  0.1651 -0.6332
11759SOL    HW139193   4.755   5.085   4.738  1.3334  1.7823 -0.2884
11759SOL    HW239194   4.646   5.042   4.835  0.6988 -1.4279 -2.3064
11760SOL     OW39195   7.787   0.190   2.372  0.5110 -0.4771 -0.1018
11760SOL    HW139196   7.854   0.257   2.379  1.0766 -0.6359 -3.0240
11760SOL    HW239197   7.721   0.228   2.315 -0.7301 -1.2660  0.7554
11761SOL     OW39198   7.288   4.380   9.626  0.3358 -0.1723  0.4165
11761SOL    HW139199   7.291   4.418   9.714  2.1594 -0.2814  0.4335
11761SOL    HW239200   7.372   4.403   9.587 -0.5655  0.1681 -1.4407
11762SOL     OW39201   4.681   9.901   4.495 -0.6880 -0.4210  0.3373
11762SOL    HW139202   4.706   9.989   4.523  1.7034 -1.3542  1.5120
11762SOL    HW239203   4.594   9.887   4.532 -0.6194  1.0470  1.1096
11763SOL     OW39204   1.479   9.346   7.541 -0.0398  0.4270  0.3681
11763SOL    HW139205   1.399   9.350   7.594 -0.3705  0.0386 -0.0779
11763SOL    HW239206   1.452   9.295   7.464  1.2660 -1.8909  1.3366
11764SOL     OW39207   9.236   3.726   2.283  0.0796 -0.5617 -0.6481
11764SOL    HW139208   9.217   3.746   2.192  0.9735 -0.6803 -0.8644
11764SOL    HW239209   9.150   3.716   2.324 -0.3294  0.1317 -1.3306
11765SOL     OW39210   1.680   3.028   5.452 -0.5102  0.3611  0.1707
11765SOL    HW139211   1.694   2.969   5.526  0.0016  0.7971  0.4288
11765SOL    HW239212   1.614   3.090   5.483 -0.5082  0.3682  0.1602
11766SOL     OW39213   2.806   0.741   4.871 -0.2274 -0.1091  0.3094
11766SOL    HW139214   2.846   0.806   4.928  1.2309 -0.9945  0.3379
11766SOL    HW239215   2.757   0.684   4.930  0.1611 -0.2216  0.5257
11767SOL     OW39216   7.861   4.708   6.580  0.0818  0.3154  0.5397
11767SOL    HW139217   7.842   4.659   6.660 -1.4756  0.0977  0.0607
11767SOL    HW239218   7.776   4.727   6.542  0.6644  2.7600  0.2950
11768SOL     OW39219   0.149   7.297   6.304 -0.1747  0.1899 -0.0232
11768SOL    HW139220   0.066   7.254   6.326  1.2755 -2.0897  1.4689
11768SOL    HW239221   0.184   7.325   6.388  0.8414  0.6170 -0.5802
11769SOL     OW39222   2.757   5.901   9.860  0.2343  0.3023  0.2892
11769SOL    HW139223   2.816   5.968   9.896  0.2230 -0.2790  1.4528
11769SOL    HW239224   2.672   5.923   9.897  0.3549 -0.7117  1.1990
11770SOL     OW39225   2.819   0.882   9.493 -0.9489  0.0716  0.0179
11770SOL    HW139226   2.798   0.793   9.521 -0.2332 -0.1502 -0.1429
11770SOL    HW239227   2.832   0.931   9.574 -0.0350 -0.2906  0.0995
11771SOL     OW39228   5.275   1.533   3.839  0.1288  0.3006  0.1859
11771SOL    HW139229   5.323   1.613   3.819 -0.5067  0.2029 -2.1139
11771SOL    HW239230   5.340   1.474   3.877  1.2218  1.0492 -0.4734
11772SOL     OW39231   3.000   1.568   9.338  0.3636 -0.4991  0.1208
11772SOL    HW139232   3.024   1.531   9.253  0.2135 -1.2151  0.3850
11772SOL    HW239233   3.063   1.639   9.351  0.0252 -0.0057 -0.8445
11773SOL     OW39234   2.364   1.191   5.874  0.6848 -0.4959  0.0739
11773SOL    HW139235   2.274   1.185   5.842  0.0353  0.4502  1.6580
11773SOL    HW239236   2.368   1.130   5.947  0.6690  1.0229  1.4002
11774SOL     OW39237   0.153   8.708   6.702  0.3293 -0.0699  0.3514
11774SOL    HW139238   0.133   8.798   6.674  1.5473 -0.0573 -0.5312
11774SOL    HW239239   0.104   8.653   6.640  0.8675 -0.0188 -0.1264
11775SOL     OW39240   1.470   8.361   7.378  0.1035  0.0616 -0.2076
11775SOL    HW139241   1.427   8.394   7.299 -0.7907 -2.1599 -0.7272
11775SOL    HW239242   1.477   8.266   7.364 -0.0597 -0.4145  2.3680
11776SOL     OW39243  10.134   5.154   6.728  0.2566  0.2063 -0.1557
11776SOL    HW139244  10.106   5.069   6.761 -1.7538  0.9469  0.1566
11776SOL    HW239245  10.230   5.153   6.738  0.6451 -2.9497 -2.4789
11777SOL     OW39246   0.536   8.915   1.646  0.2777 -0.1674  0.0652
11777SOL    HW139247   0.493   8.996   1.673 -0.5376  0.3032 -2.4732
11777SOL    HW239248   0.464   8.856   1.621  0.9158 -1.2557  0.6976
11778SOL     OW39249   4.497   4.798   2.356 -0.5611 -0.2236  0.5834
11778SOL    HW139250   4.530   4.793   2.266 -1.1536 -0.8146  0.3851
11778SOL    HW239251   4.561   4.750   2.409  0.3802  1.0811  0.6658
11779SOL     OW39252   1.891   3.512   6.664 -0.2611 -0.3532 -0.4834
11779SOL    HW139253   1.976   3.498   6.704 -0.7950 -0.4244  0.6504
11779SOL    HW239254   1.906   3.582   6.601  0.2069  1.0921  1.1731
11780SOL     OW39255   5.753   9.134   6.811  0.7590 -0.0410 -0.3902
11780SOL    HW139256   5.714   9.122   6.725  2.2393  0.1161 -1.1133
11780SOL    HW239257   5.778   9.226   6.813 -0.1637  0.2151  0.6250
11781SOL     OW39258   7.128   4.438   3.546  0.3099  0.2949  0.0024
11781SOL    HW139259   7.054   4.385   3.578  2.0694 -1.4317  1.5146
11781SOL    HW239260   7.157   4.486   3.623  2.1976 -0.9015  0.1094
11782SOL     OW39261   2.121   1.624   1.327  0.1349 -1.4025  0.3557
11782SOL    HW139262   2.150   1.538   1.356  0.0969 -1.7179 -0.5154
11782SOL    HW239263   2.199   1.664   1.289  0.2447 -0.8958  1.0816
11783SOL     OW39264   7.055   6.104   6.543 -0.1202 -0.4756  0.0300
11783SOL    HW139265   6.965   6.081   6.523 -0.1223 -0.1302 -0.3841
11783SOL    HW239266   7.073   6.180   6.487  0.0356  0.2220  0.9996
11784SOL     OW39267   9.782   9.149   2.127 -0.4905 -0.9118  0.2092
11784SOL    HW139268   9.750   9.237   2.107  1.8329 -0.3008 -1.1998
11784SOL    HW239269   9.816   9.155   2.216 -1.7824 -0.8522  0.7159
11785SOL     OW39270   5.367   2.813  10.079 -0.7440 -0.4720 -0.1936
11785SOL    HW139271   5.399   2.900  10.055  0.1904 -0.9613 -0.7832
11785SOL    HW239272   5.427   2.753  10.035 -0.5542 -1.4225  1.3029
11786SOL     OW39273   2.816   8.022   1.118 -0.3028  0.4553  0.0067
11786SOL    HW139274   2.727   8.039   1.087 -0.1689  0.7836 -0.2037
11786SOL    HW239275   2.823   7.926   1.120 -0.3164  0.4156 -0.9993
11787SOL     OW39276   1.050   0.107   0.141  0.3216  0.3313  0.0794
11787SOL    HW139277   1.085   0.021   0.165 -0.0059  0.3464  0.6190
11787SOL    HW239278   1.010   0.094   0.055  0.7040  0.0601 -0.0599
11788SOL     OW39279   4.292   4.666   7.931  0.3607  0.4105  0.6727
11788SOL    HW139280   4.211   4.666   7.879 -0.0171  1.0097  1.2382
11788SOL    HW239281   4.327   4.754   7.920  0.8882  0.1827  0.5100
11789SOL     OW39282   9.054   1.180   5.966 -0.7016  0.2918  0.0772
11789SOL    HW139283   9.133   1.166   6.019  0.0068 -0.4899 -1.1319
11789SOL    HW239284   9.077   1.147   5.879 -1.1786  3.2446 -1.2811
11790SOL     OW39285  10.188   1.899   4.866  0.2181 -0.1032  0.0167
11790SOL    HW139286  10.231   1.816   4.848  1.2831  0.6253 -0.9605
11790SOL    HW239287  10.191   1.947   4.783 -1.8361  0.2896  0.1177
11791SOL     OW39288   6.371   8.242   9.256  0.0759 -0.9641  0.1774
11791SOL    HW139289   6.277   8.233   9.268 -0.6522  2.5513 -1.4670
11791SOL    HW239290   6.402   8.282   9.337 -0.4606  0.6414 -0.3728
11792SOL     OW39291   2.545   9.934   2.038 -0.7312  0.4387  0.3518
11792SOL    HW139292   2.581   9.890   2.115  1.1980  0.2556 -0.5986
11792SOL    HW239293   2.585  10.021   2.039 -0.7676  0.4710 -0.3899
11793SOL     OW39294   9.306   0.356   1.404 -0.1130  0.1161 -0.5814
11793SOL    HW139295   9.374   0.296   1.436 -0.8456 -0.2609  0.3118
11793SOL    HW239296   9.352   0.439   1.390  0.2236  0.3602  1.6520
11794SOL     OW39297   7.308   4.768   9.750 -0.0269 -0.3025 -0.3165
11794SOL    HW139298   7.369   4.701   9.721 -2.9921 -3.7379  0.6630
11794SOL    HW239299   7.273   4.806   9.669  3.5883  2.2677 -0.9192
11795SOL     OW39300   3.819   3.128   0.471 -0.3664 -0.1291  0.3136
11795SOL    HW139301   3.858   3.159   0.553 -0.0406 -0.0934  0.1476
11795SOL    HW239302   3.808   3.207   0.418 -0.5860 -0.1505  0.3283
11796SOL     OW39303   1.381   2.881  10.128  0.1933 -0.2189 -0.1144
11796SOL    HW139304   1.311   2.816  10.120  0.0336 -0.7337  3.7370
11796SOL    HW239305   1.455   2.832  10.163  1.1165  1.0804 -0.1867
11797SOL     OW39306   1.546   7.099   3.047 -0.0482 -0.0352 -0.2585
11797SOL    HW139307   1.626   7.131   3.087  0.1063 -0.6953 -0.0308
11797SOL    HW239308   1.509   7.038   3.111  0.4694 -1.5057 -1.2899
11798SOL     OW39309   6.331   6.664   4.506 -0.0338 -0.1666 -0.2283
11798SOL    HW139310   6.273   6.725   4.550  0.4220  0.2080 -0.1368
11798SOL    HW239311   6.419   6.692   4.531  0.4372  1.6707 -3.3115
11799SOL     OW39312   3.945   3.256   2.243  0.5873  0.0487  0.6701
11799SOL    HW139313   3.987   3.324   2.294  1.0932 -0.2738  0.6943
11799SOL    HW239314   3.901   3.302   2.172  1.2415  0.3735  0.4665
11800SOL     OW39315   5.806   5.637   8.036  0.5804  0.5297  0.2314
11800SOL    HW139316   5.886   5.592   8.060  0.6252  0.9276  0.8490
11800SOL    HW239317   5.827   5.730   8.045 -0.4423  0.6332  2.1508
11801SOL     OW39318   1.287   5.547   2.210 -0.3127  0.1010 -0.7633
11801SOL    HW139319   1.273   5.605   2.135  2.2906  0.7874 -0.7960
11801SOL    HW239320   1.265   5.460   2.177  0.6046  0.4141 -2.2864
11802SOL     OW39321   0.109   9.504   0.955 -0.5758  0.1867  0.0967
11802SOL    HW139322   0.146   9.536   1.037 -2.2446 -0.6364  1.2158
11802SOL    HW239323   0.044   9.569   0.930 -0.5595  0.0930 -0.1985
11803SOL     OW39324   0.729   2.671   3.754  0.0106 -0.3903  0.8373
11803SOL    HW139325   0.803   2.619   3.784  0.4058 -0.7409 -0.6571
11803SOL    HW239326   0.761   2.761   3.752  0.0891 -0.4123  1.1076
11804SOL     OW39327   3.776   5.985   1.797  0.6611 -0.2040  0.3853
11804SOL    HW139328   3.765   5.904   1.846  0.8252 -1.2591 -1.2385
11804SOL    HW239329   3.730   5.970   1.714  0.0141  1.6751  0.3455
11805SOL     OW39330   9.622   9.214   8.899  0.2175 -0.4065  0.2662
11805SOL    HW139331   9.663   9.292   8.862 -0.3098 -1.4047 -2.7031
11805SOL    HW239332   9.541   9.204   8.848 -0.4354 -2.0877  1.5522
11806SOL     OW39333   8.036   6.660   4.308  0.4796  0.5243  0.4880
11806SOL    HW139334   8.071   6.697   4.227 -1.8220  1.2221 -0.2597
11806SOL    HW239335   8.112   6.650   4.365  2.0319  0.8128 -1.4416
11807SOL     OW39336   6.359   3.612   0.599 -0.1558  0.0861  0.2457
11807SOL    HW139337   6.345   3.542   0.535  0.4174 -0.7767  1.0215
11807SOL    HW239338   6.374   3.690   0.547 -3.0374  0.1568 -0.6672
11808SOL     OW39339   1.682   7.843   5.028 -0.8339 -0.1550 -0.0907
11808SOL    HW139340   1.726   7.917   4.985  0.8545 -2.3578 -2.4436
11808SOL    HW239341   1.625   7.807   4.960 -2.6065 -0.3313  1.4198
11809SOL     OW39342   4.680   0.351   6.040 -0.4578  0.2586 -0.4575
11809SOL    HW139343   4.744   0.304   5.987  0.2065 -0.8425  1.2539
11809SOL    HW239344   4.729   0.425   6.077 -0.1624 -0.5210  0.7634
11810SOL     OW39345   0.652   8.484   4.297 -0.0591 -0.1435 -0.4777
11810SOL    HW139346   0.582   8.524   4.349 -0.0722  0.4930 -0.9723
11810SOL    HW239347   0.662   8.543   4.222  2.4216  0.9352  0.5953
11811SOL     OW39348   4.168  10.082   5.461  0.5000  0.4480  0.0263
11811SOL    HW139349   4.131  10.103   5.375 -0.4192  0.6254  0.4625
11811SOL    HW239350   4.101  10.106   5.524  0.7474 -0.6443  0.7516
11812SOL     OW39351   3.175   7.352   0.517  0.6659 -0.6238  0.1885
11812SOL    HW139352   3.223   7.272   0.492  0.9100 -0.3597 -0.1874
11812SOL    HW239353   3.086   7.337   0.486  1.1908  0.1266 -1.7906
11813SOL     OW39354   5.099   9.416   4.259 -0.1830  0.5919 -0.2400
11813SOL    HW139355   5.011   9.419   4.222 -0.4436  0.2798  0.3376
11813SOL    HW239356   5.094   9.468   4.339 -0.2421 -0.6348  0.5831
11814SOL     OW39357   3.940   2.640   2.842  0.6937 -0.3259  0.0301
11814SOL    HW139358   3.995   2.611   2.914  0.8212  0.0627  0.0880
11814SOL    HW239359   3.989   2.710   2.800  1.3721 -1.6093 -1.4417
11815SOL     OW39360   7.552   8.237   4.882  0.4364  0.2666  0.5564
11815SOL    HW139361   7.591   8.258   4.967 -0.1208  1.6384  0.4902
11815SOL    HW239362   7.558   8.318   4.831  0.4450 -0.4295 -0.6005
11816SOL     OW39363   7.198   7.341   8.417  0.5882  0.4253 -0.0771
11816SOL    HW139364   7.217   7.273   8.482 -0.9246  0.3039  0.2890
11816SOL    HW239365   7.284   7.372   8.388  1.3026 -0.0445  1.4389
11817SOL     OW39366   2.682   0.881   5.162 -0.6964 -0.0645  0.5095
11817SOL    HW139367   2.652   0.946   5.099 -0.2128  0.5096  0.8553
11817SOL    HW239368   2.775   0.903   5.176 -0.8951  0.0721  1.7120
11818SOL     OW39369   8.324  10.051   9.619 -0.4333 -0.2431 -0.4668
11818SOL    HW139370   8.233  10.082   9.622  0.0677  1.3401 -0.8918
11818SOL    HW239371   8.338  10.012   9.705 -1.1013  0.7438  0.1136
11819SOL     OW39372   5.676   9.320   0.129  0.0338  0.1856 -0.8267
11819SOL    HW139373   5.673   9.276   0.044  1.6882 -0.9194 -0.3454
11819SOL    HW239374   5.623   9.265   0.187 -0.9325  0.8349 -1.0707
11820SOL     OW39375   4.622   4.701   0.471 -0.8687  0.0271 -0.0511
11820SOL    HW139376   4.701   4.742   0.434 -0.6831  0.0525  0.3662
11820SOL    HW239377   4.552   4.765   0.455 -0.5503  0.5998  0.7401
11821SOL     OW39378   9.633   3.069   9.550  0.0854 -0.0091  0.2987
11821SOL    HW139379   9.649   3.089   9.458  0.0738 -1.6048 -0.0901
11821SOL    HW239380   9.658   3.148   9.597  1.4173  0.3709 -0.9695
11822SOL     OW39381   1.785   3.446   5.705  0.1563 -0.0853  0.0055
11822SOL    HW139382   1.723   3.427   5.775  0.3191 -0.1950  0.1203
11822SOL    HW239383   1.867   3.405   5.734  0.4332  0.5390  0.1253
11823SOL     OW39384   2.082   2.134   3.955  0.3571 -0.6818 -0.3515
11823SOL    HW139385   1.990   2.154   3.939  0.5882  1.8591  1.0257
11823SOL    HW239386   2.091   2.136   4.050  2.0883  0.5853 -0.4977
11824SOL     OW39387   7.171   2.287   4.197  0.4118  0.4086 -0.2483
11824SOL    HW139388   7.249   2.289   4.253  0.5532 -0.4355 -0.4012
11824SOL    HW239389   7.206   2.278   4.108  0.2023  2.1517 -0.5329
11825SOL     OW39390   4.360   4.198   6.237 -0.5644  0.0991  0.1836
11825SOL    HW139391   4.356   4.124   6.297 -0.7544 -1.0689 -1.2134
11825SOL    HW239392   4.402   4.163   6.158  0.0611  1.6861 -0.2295
11826SOL     OW39393   2.820   7.457   2.942 -0.1542 -0.1033 -0.3024
11826SOL    HW139394   2.754   7.514   2.982  0.8495  0.8869 -0.0058
11826SOL    HW239395   2.904   7.496   2.967  0.5487 -1.1919 -0.8789
11827SOL     OW39396   6.971  10.080   6.617  1.2039 -0.0931 -0.0577
11827SOL    HW139397   6.967   9.994   6.660  1.7365 -0.3369 -0.4829
11827SOL    HW239398   6.948  10.142   6.685 -0.7051 -0.6798 -0.1064
11828SOL     OW39399   6.414   7.917   9.027  0.2286 -0.0272  0.0165
11828SOL    HW139400   6.350   7.846   9.020  0.0355  0.1118  0.3424
11828SOL    HW239401   6.482   7.895   8.963  0.1056 -0.4345  0.0245
11829SOL     OW39402   2.615   1.902   2.669  0.0184 -0.8958  0.0754
11829SOL    HW139403   2.698   1.925   2.711  0.4245 -0.3215 -0.9916
11829SOL    HW239404   2.551   1.899   2.740  0.9510 -1.3291  0.9049
11830SOL     OW39405   6.900   3.825   9.925  0.1989  0.3233 -0.7286
11830SOL    HW139406   6.951   3.817   9.845 -1.2819 -1.8565 -1.5709
11830SOL    HW239407   6.862   3.738   9.938 -0.4204  0.8815  1.8023
11831SOL     OW39408   0.724   4.324   0.150 -0.2025  0.0598  0.0169
11831SOL    HW139409   0.682   4.378   0.083  1.3714  0.6299 -0.5396
11831SOL    HW239410   0.806   4.296   0.110  0.4083 -0.2335  1.4386
11832SOL     OW39411   1.235   4.785   8.845 -0.1156 -0.4854  0.3601
11832SOL    HW139412   1.184   4.835   8.781  1.1901  0.8602  0.3201
11832SOL    HW239413   1.177   4.778   8.921 -0.5224  0.6955  0.1844
11833SOL     OW39414   6.474   5.883   3.140  0.4062 -0.0910  0.7780
11833SOL    HW139415   6.467   5.856   3.048 -0.5547 -2.2459  1.4154
11833SOL    HW239416   6.402   5.944   3.153 -1.0028 -1.6655  0.6585
11834SOL     OW39417   1.138   9.852   9.135  0.2206 -0.3583  0.1935
11834SOL    HW139418   1.206   9.787   9.118  0.0846 -0.8583  1.5146
11834SOL    HW239419   1.158   9.886   9.222  1.1344  2.4334 -0.9709
11835SOL     OW39420   5.478   1.400   2.228 -0.4178 -0.3465 -0.1783
11835SOL    HW139421   5.528   1.321   2.248 -0.1237  0.1586  1.2093
11835SOL    HW239422   5.544   1.462   2.195 -0.7799 -0.9154 -2.1200
11836SOL     OW39423   4.022   7.373   3.043 -0.3218  0.0897  0.0747
11836SOL    HW139424   3.963   7.366   2.968 -0.5866  0.1059  0.2812
11836SOL    HW239425   4.096   7.425   3.010 -0.8063  0.7712  0.0513
11837SOL     OW39426   3.645   9.276   9.452  0.3088 -0.3075 -0.4208
11837SOL    HW139427   3.596   9.349   9.416  0.4239 -0.5129 -0.9986
11837SOL    HW239428   3.589   9.200   9.438  0.0473 -0.2938  0.4644
11838SOL     OW39429   0.233   0.312   4.971 -0.2082 -0.1428  0.3237
11838SOL    HW139430   0.169   0.322   4.900  1.2726 -1.4434 -1.2827
11838SOL    HW239431   0.294   0.384   4.958  0.2405 -0.5661  0.0787
11839SOL     OW39432   0.148   3.309   4.356  0.2398  0.7330 -1.0484
11839SOL    HW139433   0.094   3.272   4.287  0.8634 -1.6241 -0.3636
11839SOL    HW239434   0.171   3.235   4.412  1.3952  2.2147  0.5840
11840SOL     OW39435   8.394   4.868   2.065 -0.3099  0.3808 -0.2991
11840SOL    HW139436   8.411   4.783   2.106  0.3725 -0.0731 -1.4754
11840SOL    HW239437   8.411   4.931   2.135  0.9758 -0.3658  0.1058
11841SOL     OW39438   8.599   1.649   8.244  0.5100 -0.0519  0.0494
11841SOL    HW139439   8.569   1.597   8.318  0.9284  0.8293  0.8558
11841SOL    HW239440   8.683   1.685   8.272  0.4192  0.7335 -0.6386
11842SOL     OW39441   7.593   3.187   3.841  0.1005 -0.4688  0.4601
11842SOL    HW139442   7.682   3.222   3.837 -0.2107  0.2603 -0.8624
11842SOL    HW239443   7.569   3.193   3.933  1.2366 -0.1882  0.7523
11843SOL     OW39444   6.253   5.272   1.204  0.3389  0.0201  0.1020
11843SOL    HW139445   6.305   5.325   1.265  1.5801 -1.3904  0.3478
11843SOL    HW239446   6.163   5.300   1.217  0.6000 -0.0260  2.4064
11844SOL     OW39447   3.155   6.362   6.449 -0.1919  0.0976  0.0381
11844SOL    HW139448   3.217   6.434   6.458 -0.6811  0.6237 -0.6472
11844SOL    HW239449   3.161   6.337   6.357 -0.3501 -0.4450  0.1726
11845SOL     OW39450   3.621   0.389   1.530 -0.5846  0.9311  0.0732
11845SOL    HW139451   3.558   0.445   1.576 -0.7480  0.9477 -0.1699
11845SOL    HW239452   3.569   0.340   1.467 -0.1807  1.9915 -1.1403
11846SOL     OW39453   7.844   4.775   8.529 -0.3730 -0.5542 -0.0641
11846SOL    HW139454   7.885   4.743   8.610 -0.9843  0.5823  0.7244
11846SOL    HW239455   7.794   4.852   8.557 -0.0537  0.2641 -1.6502
11847SOL     OW39456   5.840   8.788   5.768  0.5474 -0.4999  0.2659
11847SOL    HW139457   5.770   8.779   5.832  1.1238  0.1975  1.0148
11847SOL    HW239458   5.810   8.739   5.692 -1.3186  0.8036  0.0935
11848SOL     OW39459   2.607   3.003   0.243  0.3180 -0.1406  0.4343
11848SOL    HW139460   2.594   3.064   0.170 -1.1260 -0.4094  0.4325
11848SOL    HW239461   2.658   3.052   0.306 -0.1839  0.8306  0.1125
11849SOL     OW39462   6.587   9.612   2.684  0.9308 -0.1656  0.1608
11849SOL    HW139463   6.634   9.695   2.682  1.5904 -0.5337 -1.2896
11849SOL    HW239464   6.650   9.550   2.721  0.5167 -0.0826  1.0309
11850SOL     OW39465   6.162   0.651   8.755  0.1828  0.5320  0.1451
11850SOL    HW139466   6.149   0.711   8.681 -1.9318 -0.3390 -0.2677
11850SOL    HW239467   6.085   0.665   8.810 -0.1258 -1.4427  0.2825
11851SOL     OW39468   4.319   3.997   9.647  0.3237  0.1173  0.1740
11851SOL    HW139469   4.362   4.075   9.683 -0.5644  0.1292  1.2365
11851SOL    HW239470   4.227   4.007   9.671 -0.0104 -0.6798 -0.7185
11852SOL     OW39471   9.534   6.085   4.360 -0.4122  0.2318  0.4537
11852SOL    HW139472   9.460   6.045   4.405 -0.0354  0.3030  1.1510
11852SOL    HW239473   9.544   6.171   4.401 -1.6580  1.3917 -1.5020
11853SOL     OW39474   8.961   1.687   4.496  0.2974 -0.1180 -0.1385
11853SOL    HW139475   8.991   1.736   4.572  1.7570  0.5707 -1.1016
11853SOL    HW239476   8.995   1.735   4.421  0.3377 -1.6739 -1.1778
11854SOL     OW39477   2.419   5.879   6.104  0.0855 -0.1244 -0.0337
11854SOL    HW139478   2.324   5.881   6.111 -0.0068  1.4906 -1.0832
11854SOL    HW239479   2.438   5.801   6.052 -0.5799 -0.9889  1.0071
11855SOL     OW39480   5.982   0.599   2.741 -0.1106 -0.6340 -0.3182
11855SOL    HW139481   6.035   0.640   2.809  0.2887 -0.4191 -0.7609
11855SOL    HW239482   6.045   0.553   2.686 -0.4743 -1.1472 -0.3105
11856SOL     OW39483   9.080   3.169   3.775  0.1909 -0.4656  0.2465
11856SOL    HW139484   9.018   3.126   3.716 -0.9683  1.0638  0.2965
11856SOL    HW239485   9.108   3.099   3.835 -0.5514 -1.4695 -0.5374
11857SOL     OW39486   3.445   0.756   1.819  0.6378 -0.6280  0.4242
11857SOL    HW139487   3.481   0.721   1.738  2.0446  0.8619  0.3680
11857SOL    HW239488   3.350   0.742   1.811  0.6825 -0.0402 -1.7129
11858SOL     OW39489   8.025   6.706   1.915 -0.0663  0.3648  0.1037
11858SOL    HW139490   7.995   6.790   1.879  1.1127  1.1995  0.9874
11858SOL    HW239491   8.106   6.727   1.960 -1.3015 -0.6386  3.0283
11859SOL     OW39492   6.561  10.005   7.105  0.2893  0.1976  0.3763
11859SOL    HW139493   6.539   9.979   7.016  2.2013  0.2133 -0.1568
11859SOL    HW239494   6.567   9.922   7.153  0.3052  0.1008  0.2104
11860SOL     OW39495   4.232   4.559   9.142 -0.3492  0.2258  0.1695
11860SOL    HW139496   4.219   4.476   9.096 -0.5792  2.2463 -3.8543
11860SOL    HW239497   4.314   4.548   9.189  0.1141 -1.9698 -1.0243
11861SOL     OW39498   3.606   1.275   5.060  0.0113 -0.5265 -0.1445
11861SOL    HW139499   3.514   1.249   5.048 -0.0427 -1.1595  1.3734
11861SOL    HW239500   3.649   1.247   4.980 -1.2790  0.6950 -1.3389
11862SOL     OW39501   4.415   6.023   1.928 -0.0387 -0.0982 -0.1192
11862SOL    HW139502   4.431   6.005   2.021 -0.9904  0.1715  0.1021
11862SOL    HW239503   4.322   6.008   1.916 -0.0304  0.4205 -0.9080
11863SOL     OW39504   4.637   7.120   0.687  0.0161  0.1761 -0.2219
11863SOL    HW139505   4.700   7.140   0.755 -1.1343  0.3734  0.8265
11863SOL    HW239506   4.633   7.024   0.685 -1.4724  0.1389  1.5235
11864SOL     OW39507   4.561   2.814   8.910 -0.0726 -0.1873  0.2961
11864SOL    HW139508   4.516   2.808   8.826  0.5394 -1.4867  0.0420
11864SOL    HW239509   4.588   2.906   8.916  0.3022 -0.1820 -1.1546
11865SOL     OW39510   0.679   6.444   7.432 -0.4344 -0.1182 -0.4826
11865SOL    HW139511   0.676   6.537   7.457 -1.3327 -0.7004  1.8832
11865SOL    HW239512   0.763   6.434   7.387  0.2189  1.6024  0.2383
11866SOL     OW39513   8.447   4.056  10.070 -0.7084  0.0539  0.8969
11866SOL    HW139514   8.373   4.045  10.010 -0.4020  1.5468  0.1826
11866SOL    HW239515   8.479   3.968  10.087  0.4964 -0.3587 -2.8038
11867SOL     OW39516   9.341   9.337   2.130 -0.1856 -0.2292 -0.6634
11867SOL    HW139517   9.408   9.334   2.062  2.8383 -2.0163  2.1104
11867SOL    HW239518   9.362   9.415   2.181 -0.9611 -0.1568 -0.4398
11868SOL     OW39519  10.045   6.028   5.646  0.5991 -0.4293 -0.1491
11868SOL    HW139520  10.101   6.094   5.687  1.7717 -1.2127 -0.4567
11868SOL    HW239521   9.981   6.079   5.596 -0.1841  0.5283  1.7286
11869SOL     OW39522   5.364   5.619   3.800  0.1060  0.0057 -0.1255
11869SOL    HW139523   5.413   5.700   3.794  0.3209 -0.2119 -1.6324
11869SOL    HW239524   5.429   5.550   3.788 -0.0815 -0.4097  1.0759
11870SOL     OW39525   4.419   1.676   9.421 -0.2125  0.3336 -0.2273
11870SOL    HW139526   4.381   1.588   9.428  0.3043  0.1815  0.8976
11870SOL    HW239527   4.403   1.716   9.506  2.0195  0.2925  0.2751
11871SOL     OW39528   4.611   5.798   3.514  0.5798 -0.0644  0.1016
11871SOL    HW139529   4.634   5.753   3.595 -0.7983  0.7459  0.9818
11871SOL    HW239530   4.668   5.874   3.511  2.4420 -1.4174 -1.0484
11872SOL     OW39531   4.170   0.084   5.721  0.0408 -0.2857  0.8947
11872SOL    HW139532   4.077   0.093   5.740  0.3887  1.6930  1.9789
11872SOL    HW239533   4.209   0.056   5.804  0.7601  1.9992  1.4077
11873SOL     OW39534   1.529   8.304   4.014  0.2002  0.0263 -0.5926
11873SOL    HW139535   1.560   8.380   3.965 -1.9973  0.5956 -1.1799
11873SOL    HW239536   1.509   8.338   4.101  0.3454 -0.1441 -0.4908
11874SOL     OW39537   0.926   0.875   4.508 -0.5839 -0.0631  0.4691
11874SOL    HW139538   1.016   0.866   4.539 -0.4961  0.6443  0.4586
11874SOL    HW239539   0.895   0.956   4.550 -0.9583  0.0956 -0.1020
11875SOL     OW39540   3.646   7.138   4.851  0.4697  0.0769  0.2552
11875SOL    HW139541   3.551   7.133   4.855  0.4150  1.0723  0.4873
11875SOL    HW239542   3.668   7.121   4.760  0.0824 -0.2618  0.2229
11876SOL     OW39543   4.162   7.091   5.680  0.3771  0.2999 -0.3383
11876SOL    HW139544   4.197   7.044   5.604 -0.8570  0.3750 -0.9826
11876SOL    HW239545   4.071   7.060   5.688 -0.8744  3.2802 -1.4675
11877SOL     OW39546   2.733  10.062   5.968  0.2778 -0.0422  0.3246
11877SOL    HW139547   2.770  10.000   5.905 -0.7792  0.0172 -0.3676
11877SOL    HW239548   2.803  10.125   5.983  0.4011  0.2115 -1.1487
11878SOL     OW39549   8.776   2.177   2.953  0.4280 -0.6691 -0.0573
11878SOL    HW139550   8.729   2.260   2.945 -0.5924 -1.2762 -0.4937
11878SOL    HW239551   8.781   2.162   3.048  0.1804 -0.3556  0.0098
11879SOL     OW39552   3.656   1.372   4.586  0.2712  0.1174 -0.3348
11879SOL    HW139553   3.622   1.330   4.507  2.3729  0.5878 -1.5657
11879SOL    HW239554   3.598   1.448   4.599  0.0171  0.1604 -1.5557
11880SOL     OW39555   2.791   5.828   1.180 -0.2604  0.0087  0.0272
11880SOL    HW139556   2.704   5.807   1.215 -0.3683 -0.2734 -0.3993
11880SOL    HW239557   2.817   5.908   1.225 -0.1088 -0.6985  1.2609
11881SOL     OW39558   5.691   0.322   0.981 -0.1411  0.1789 -0.1995
11881SOL    HW139559   5.662   0.285   1.065  0.8734 -1.7547 -0.6479
11881SOL    HW239560   5.701   0.415   0.999 -1.4327  0.0664  1.4014
11882SOL     OW39561   0.773   9.869  10.013  0.7347 -0.4144  0.3866
11882SOL    HW139562   0.717   9.804   9.970 -0.2723  0.1286  0.8352
11882SOL    HW239563   0.789   9.833  10.100 -2.1006  1.0909  1.6662
11883SOL     OW39564   8.157   4.362   1.334 -0.0330  0.2903 -0.4570
11883SOL    HW139565   8.195   4.284   1.375 -0.8484  0.8714  1.5258
11883SOL    HW239566   8.071   4.333   1.305 -0.2409  0.3765  0.0618
11884SOL     OW39567   7.948   4.308   1.596 -0.2988 -0.8054  0.1363
11884SOL    HW139568   7.862   4.322   1.556 -0.8615 -0.7588  1.3314
11884SOL    HW239569   7.943   4.350   1.681  1.3858  0.3852 -0.3018
11885SOL     OW39570   9.451   5.583   4.774  0.0214  0.2266 -0.6082
11885SOL    HW139571   9.430   5.650   4.839 -1.9399  0.5201 -1.4879
11885SOL    HW239572   9.423   5.621   4.691  1.2612 -0.6731 -1.4694
11886SOL     OW39573   6.890   7.761   5.224  0.9085  0.7193  0.1566
11886SOL    HW139574   6.798   7.776   5.247  0.0219 -2.5469 -0.7380
11886SOL    HW239575   6.930   7.731   5.306  0.9937  1.3566  0.3535
11887SOL     OW39576   5.850   7.670   8.454 -0.2479  0.2374 -0.6431
11887SOL    HW139577   5.847   7.706   8.543  0.9651 -2.2162  0.4900
11887SOL    HW239578   5.764   7.689   8.418 -2.4544 -2.2266  2.6496
11888SOL     OW39579   6.318   5.304   8.073  0.2745  0.0132  0.6180
11888SOL    HW139580   6.298   5.291   8.166 -2.6623  0.1922  0.0969
11888SOL    HW239581   6.345   5.395   8.067  0.7292 -0.0648  1.3159
11889SOL     OW39582   7.626   2.140   6.889  0.2092 -0.3462 -0.2677
11889SOL    HW139583   7.619   2.111   6.980 -0.2614 -1.6179 -0.7030
11889SOL    HW239584   7.716   2.119   6.864  0.1927 -0.4316 -0.2529
11890SOL     OW39585   9.180   5.708   5.240  0.0065 -0.0520  0.6297
11890SOL    HW139586   9.091   5.735   5.218  0.4462  0.2199 -0.8830
11890SOL    HW239587   9.168   5.641   5.308 -1.3103  0.4520  0.9201
11891SOL     OW39588   3.326   2.205   2.856  0.2027  0.1940 -0.2710
11891SOL    HW139589   3.246   2.198   2.804  0.8647 -1.6270 -1.1385
11891SOL    HW239590   3.358   2.293   2.838 -1.2607  0.7342 -0.3928
11892SOL     OW39591   9.709   5.533   5.537 -0.2411  0.2465 -0.1844
11892SOL    HW139592   9.699   5.569   5.449  1.8660  0.6758 -0.2944
11892SOL    HW239593   9.739   5.606   5.591  1.4075 -0.6351  0.1884
11893SOL     OW39594   7.590   1.943   3.724 -0.3293 -0.0446  0.3101
11893SOL    HW139595   7.621   1.853   3.716  1.3155  0.3355  1.8111
11893SOL    HW239596   7.662   1.997   3.691 -1.3207  0.7604 -0.6398
11894SOL     OW39597   1.847  10.155   7.162  0.1346 -0.1446 -0.0142
11894SOL    HW139598   1.842  10.176   7.255  0.7923 -0.4709  0.0945
11894SOL    HW239599   1.932  10.190   7.134 -0.2283  0.3075 -0.5855
11895SOL     OW39600   6.759   7.875   0.926  0.1113 -0.0970 -0.0920
11895SOL    HW139601   6.769   7.942   0.858  0.0700 -0.0478 -0.0504
11895SOL    HW239602   6.848   7.844   0.942  0.0139 -0.8111 -0.8661
11896SOL     OW39603   8.281   2.465   6.257 -0.1248  0.2332 -0.5611
11896SOL    HW139604   8.310   2.384   6.298 -0.1038 -0.5375 -2.0661
11896SOL    HW239605   8.268   2.443   6.165 -1.5475  1.5613 -0.7252
11897SOL     OW39606   9.582   3.554   3.134 -0.1941  0.3505 -0.2669
11897SOL    HW139607   9.597   3.461   3.150 -3.0749 -0.3312 -0.9946
11897SOL    HW239608   9.613   3.568   3.044 -0.9019 -0.2397 -0.6164
11898SOL     OW39609   4.434   9.298   6.653  0.4021  0.0989  0.0915
11898SOL    HW139610   4.428   9.212   6.695 -0.1426  0.6453  1.1799
11898SOL    HW239611   4.413   9.282   6.561 -2.2245 -0.5939  0.7191
11899SOL     OW39612   9.403   7.467   6.064  0.1197  0.2401 -0.1484
11899SOL    HW139613   9.358   7.545   6.097  0.7404  1.5249 -2.1141
11899SOL    HW239614   9.495   7.491   6.065  0.2888 -0.3187 -1.1149
11900SOL     OW39615   1.828   0.677   3.706 -0.3111  0.2811 -0.0348
11900SOL    HW139616   1.829   0.638   3.619 -1.2959  0.9528 -0.3685
11900SOL    HW239617   1.807   0.769   3.690 -0.3603  0.4376  0.9039
11901SOL     OW39618   1.679   2.415   8.805  0.4743 -0.1085  0.0921
11901SOL    HW139619   1.591   2.415   8.766  0.6253  0.8774 -0.2730
11901SOL    HW239620   1.713   2.328   8.784  0.5080  0.3414 -1.9505
11902SOL     OW39621   9.061   2.466   3.607  0.0713  0.1461  0.2670
11902SOL    HW139622   9.088   2.534   3.669  1.5010  0.7300 -0.9250
11902SOL    HW239623   9.127   2.397   3.617  0.3306  0.2559 -0.5715
11903SOL     OW39624   5.993   8.096   3.768  0.2321  0.0327 -0.4750
11903SOL    HW139625   5.958   8.143   3.844  0.1740 -0.1051 -0.4166
11903SOL    HW239626   5.918   8.046   3.734  0.6579 -1.2004  0.3597
11904SOL     OW39627   7.426   5.535   7.104 -0.0202  0.2456  0.3803
11904SOL    HW139628   7.519   5.522   7.122  0.2186  0.3023 -0.7445
11904SOL    HW239629   7.404   5.616   7.150  1.3050  2.0410 -1.9455
11905SOL     OW39630   5.019   7.132   6.219 -0.8353 -0.4636  0.3264
11905SOL    HW139631   4.996   7.056   6.165 -2.0507  0.8709 -1.1355
11905SOL    HW239632   5.060   7.094   6.297  0.9280 -2.4847 -1.4437
11906SOL     OW39633   2.631   1.349   7.790  0.2818 -0.3607 -0.0097
11906SOL    HW139634   2.712   1.370   7.745  0.2542 -0.9124 -0.3312
11906SOL    HW239635   2.626   1.411   7.863  0.9130 -0.2317 -0.0781
11907SOL     OW39636   3.300   0.226   6.034 -0.7374 -0.3527  0.1945
11907SOL    HW139637   3.253   0.155   6.076 -1.4412 -0.9297 -1.5053
11907SOL    HW239638   3.379   0.237   6.088 -1.2539 -1.5116  1.2382
11908SOL     OW39639   3.538   6.347   2.689  0.5008  0.2737  0.2749
11908SOL    HW139640   3.597   6.411   2.650  0.0288 -0.4676 -1.7869
11908SOL    HW239641   3.451   6.385   2.681  0.3346 -0.1444  0.0484
11909SOL     OW39642   6.810   8.195   5.930 -0.3635  0.0586  0.6810
11909SOL    HW139643   6.853   8.137   5.993 -1.3960 -0.8711  0.5553
11909SOL    HW239644   6.807   8.280   5.974 -0.1693 -0.3372  1.4722
11910SOL     OW39645   9.374   1.668   6.520  0.0659  0.1933 -0.5299
11910SOL    HW139646   9.384   1.619   6.439  0.8531  0.2412 -0.4672
11910SOL    HW239647   9.358   1.601   6.587 -1.3835  0.2082 -0.8400
11911SOL     OW39648   9.598   6.034   0.623  0.3415  0.1972 -0.1269
11911SOL    HW139649   9.518   6.010   0.670  0.5062 -0.7594 -0.3174
11911SOL    HW239650   9.661   6.054   0.692 -0.5014  2.6467  0.0466
11912SOL     OW39651   7.668   7.142   9.865 -0.2776  0.5172  0.8680
11912SOL    HW139652   7.626   7.209   9.811  2.9848  0.7140 -1.7692
11912SOL    HW239653   7.748   7.185   9.897  1.0693 -1.5330  0.4558
11913SOL     OW39654  10.193   7.614   4.388  0.1792  0.2893 -0.1745
11913SOL    HW139655  10.241   7.533   4.369  1.1935  0.2574  2.1693
11913SOL    HW239656  10.260   7.682   4.389 -0.5243  1.0241 -1.1571
11914SOL     OW39657   4.568   9.131   2.274  0.1828 -0.5247 -0.4560
11914SOL    HW139658   4.611   9.216   2.283 -0.0941 -0.4015 -0.2932
11914SOL    HW239659   4.479   9.152   2.248  0.5221 -0.8158 -1.9542
11915SOL     OW39660   9.636   6.999   6.225 -0.2572  0.0218  0.2492
11915SOL    HW139661   9.679   7.075   6.186 -1.5930  1.7309  1.9127
11915SOL    HW239662   9.674   6.993   6.313 -1.2806 -0.2552  0.6894
11916SOL     OW39663   1.848   1.576   7.229  0.2060 -0.6273 -0.7621
11916SOL    HW139664   1.784   1.582   7.159 -1.0027  0.9524  0.4000
11916SOL    HW239665   1.818   1.503   7.283 -1.0700  0.5310  0.1536
11917SOL     OW39666   9.146   0.667   6.814 -0.3406  0.1017 -0.2110
11917SOL    HW139667   9.142   0.621   6.898 -0.9660 -0.4922 -0.5501
11917SOL    HW239668   9.197   0.611   6.757 -0.4796  0.1791 -0.4166
11918SOL     OW39669   7.161   6.818   3.351  0.2407  0.1937 -0.5200
11918SOL    HW139670   7.225   6.888   3.365 -0.7741  1.3032 -1.2369
11918SOL    HW239671   7.146   6.782   3.438  0.6539  0.9842 -0.1116
11919SOL     OW39672   8.483   9.464   9.330  0.3374  0.1350  0.5380
11919SOL    HW139673   8.486   9.557   9.306 -0.4651  0.2073  0.6687
11919SOL    HW239674   8.568   9.447   9.370  1.4759  0.1608 -1.7185
11920SOL     OW39675   2.578   5.704   7.179  0.6044  0.0955 -0.2627
11920SOL    HW139676   2.626   5.652   7.115 -0.0015  0.6768 -1.2188
11920SOL    HW239677   2.496   5.726   7.135  0.2040  0.5821  0.6922
11921SOL     OW39678   1.645   5.378   4.782 -0.6123 -0.5309  0.3030
11921SOL    HW139679   1.605   5.449   4.832 -0.7433  0.0468 -0.6051
11921SOL    HW239680   1.581   5.307   4.785 -0.1162 -0.9705  1.9607
11922SOL     OW39681   4.594   8.310   8.909 -0.0259  0.0468 -0.5075
11922SOL    HW139682   4.553   8.375   8.853  0.6252  2.1380  1.3240
11922SOL    HW239683   4.532   8.298   8.981  1.3647  1.3445  0.9775
11923SOL     OW39684   4.599   5.587   5.355 -0.7117  0.0428  0.1773
11923SOL    HW139685   4.694   5.601   5.350 -0.5249 -0.6343  1.3276
11923SOL    HW239686   4.561   5.660   5.306  0.4099  0.1120 -0.6339
11924SOL     OW39687   9.008   8.780   1.475 -0.5195  0.1096  0.2651
11924SOL    HW139688   9.037   8.789   1.566  1.2917  0.7014 -0.3239
11924SOL    HW239689   9.003   8.686   1.460  1.7081 -0.0666  0.2837
11925SOL     OW39690   9.628   0.010   0.733 -0.0462 -0.2023  0.5138
11925SOL    HW139691   9.602  -0.045   0.807 -1.0003  0.7143  0.8808
11925SOL    HW239692   9.683  -0.047   0.679 -1.1873 -1.5916  0.7501
11926SOL     OW39693   9.809   9.215   4.694  0.4539  0.7495  0.2919
11926SOL    HW139694   9.842   9.289   4.644  2.9871 -0.1476  0.5043
11926SOL    HW239695   9.856   9.139   4.659 -0.9278 -0.5525  1.1170
11927SOL     OW39696   9.810   6.547   8.216 -0.3847 -0.2307 -0.1161
11927SOL    HW139697   9.728   6.499   8.205 -0.6152  0.0989  0.1649
11927SOL    HW239698   9.789   6.637   8.193  0.0708 -0.2726 -0.7251
11928SOL     OW39699   6.460   0.013   3.808  0.2020  0.4893 -0.1018
11928SOL    HW139700   6.446   0.085   3.746 -1.2091 -0.7630 -1.3166
11928SOL    HW239701   6.482  -0.062   3.753 -1.3208 -0.7088  0.8397
11929SOL     OW39702   5.690   5.394   8.132 -0.0200 -0.2322  1.0523
11929SOL    HW139703   5.750   5.465   8.110 -0.1579 -0.3920  0.1049
11929SOL    HW239704   5.660   5.361   8.047 -2.4113  0.6201  1.4832
11930SOL     OW39705   5.379   6.212   7.685 -0.0330  0.0065 -0.1454
11930SOL    HW139706   5.330   6.218   7.767  1.1092  1.2568  0.4945
11930SOL    HW239707   5.433   6.291   7.683  0.8995 -0.6097 -1.5019
11931SOL     OW39708   9.967   6.542   8.834 -0.3686  0.7405  0.7986
11931SOL    HW139709  10.050   6.591   8.836  0.2556 -0.2547  3.6014
11931SOL    HW239710   9.994   6.451   8.824 -1.3021  0.5818 -0.4761
11932SOL     OW39711   4.031   7.981   4.156 -0.4414  0.2187  0.0480
11932SOL    HW139712   4.073   7.895   4.147 -1.6130 -0.3141 -0.4754
11932SOL    HW239713   4.024   8.014   4.066  3.6725  2.7655  0.3756
11933SOL     OW39714   4.498   6.322   8.563  0.3705  0.1114 -0.2174
11933SOL    HW139715   4.518   6.412   8.588 -0.6858  0.6436 -1.2110
11933SOL    HW239716   4.559   6.269   8.615  2.0724  1.4573 -0.7367
11934SOL     OW39717   9.291   0.991  10.121  0.5822 -0.1649  0.3337
11934SOL    HW139718   9.351   0.943  10.177  1.8239  1.4432  0.4406
11934SOL    HW239719   9.281   0.936  10.043  1.4698 -0.8747  0.7157
11935SOL     OW39720   9.797   9.049   0.896  0.0585  0.6692 -0.8760
11935SOL    HW139721   9.753   9.060   0.980  1.6676  0.4139  0.0353
11935SOL    HW239722   9.769   8.963   0.865  1.0451 -0.1398  0.4144
11936SOL     OW39723   7.208   5.390   4.261  0.7598  0.1639 -0.3227
11936SOL    HW139724   7.149   5.392   4.336  0.9449  1.5906 -0.1860
11936SOL    HW239725   7.232   5.298   4.251  0.8355 -0.0262  1.4439
11937SOL     OW39726   0.339   6.361   8.641 -0.4427 -0.4699  0.2039
11937SOL    HW139727   0.386   6.404   8.569  0.5811  3.5216  2.9547
11937SOL    HW239728   0.407   6.309   8.686 -0.5043 -0.8924 -0.1777
11938SOL     OW39729   0.064   7.651   8.325 -0.7560  0.0603  0.0343
11938SOL    HW139730  -0.022   7.692   8.328 -0.4675  0.6882  2.8448
11938SOL    HW239731   0.054   7.577   8.265 -2.1620  2.2884 -2.6928
11939SOL     OW39732   2.265   2.702   2.698 -0.1060  0.1919 -0.0283
11939SOL    HW139733   2.215   2.749   2.631  0.8130  1.3089  0.0471
11939SOL    HW239734   2.220   2.721   2.780 -0.1060  0.4186 -0.0814
11940SOL     OW39735   8.606   7.209   2.210  0.5748  0.3954  0.8626
11940SOL    HW139736   8.530   7.187   2.156  0.9772 -0.6265  0.6817
11940SOL    HW239737   8.680   7.169   2.164  1.4852  2.6751  0.1916
11941SOL     OW39738   6.435   8.657   7.347 -0.1988 -0.0715 -0.1731
11941SOL    HW139739   6.530   8.651   7.335 -0.2889 -0.8656 -0.6121
11941SOL    HW239740   6.416   8.596   7.419 -0.3456  0.3151  0.1214
11942SOL     OW39741   5.240   9.561   0.810  0.7023  0.6602  0.1343
11942SOL    HW139742   5.218   9.478   0.852  2.0630  1.0292  1.6482
11942SOL    HW239743   5.334   9.555   0.792  0.3528  0.9010 -2.0681
11943SOL     OW39744   4.061   9.106   2.117 -0.1612  0.0310  0.1099
11943SOL    HW139745   3.989   9.111   2.054 -1.3028  0.3630  1.4035
11943SOL    HW239746   4.020   9.124   2.201  1.4605  0.2728  0.8715
11944SOL     OW39747   5.883   4.431   0.138  0.4089  0.5174  0.0207
11944SOL    HW139748   5.827   4.392   0.205 -1.0177  0.1615 -1.3138
11944SOL    HW239749   5.914   4.356   0.086 -0.4210  0.9354 -1.1168
11945SOL     OW39750   6.273   3.264   9.214 -0.2711  0.2215  0.0573
11945SOL    HW139751   6.240   3.233   9.130  1.0886 -1.4112  0.0760
11945SOL    HW239752   6.211   3.228   9.278 -0.6428  0.4636 -0.1642
11946SOL     OW39753   1.457   9.821   5.064 -0.6855  0.0750 -0.0285
11946SOL    HW139754   1.422   9.733   5.074 -0.3109 -0.1434 -0.5848
11946SOL    HW239755   1.421   9.870   5.138  0.0822 -0.8546  1.0058
11947SOL     OW39756   6.538   4.597   1.059 -0.6420  0.0683  0.0485
11947SOL    HW139757   6.594   4.669   1.088  1.9197 -1.0147 -1.8517
11947SOL    HW239758   6.569   4.521   1.108 -2.0705 -0.1666  0.6549
11948SOL     OW39759   2.915   0.085   0.811 -0.4201 -0.4962  0.1214
11948SOL    HW139760   2.845   0.026   0.839  0.9506 -2.3296 -0.1181
11948SOL    HW239761   2.985   0.026   0.780  0.3241  1.2984 -1.8465
11949SOL     OW39762   9.325   4.302   9.653  0.2733  0.4286  0.2492
11949SOL    HW139763   9.398   4.363   9.663  2.6574 -1.6541 -2.5953
11949SOL    HW239764   9.342   4.233   9.717  1.0982 -0.2308 -0.6438
11950SOL     OW39765   9.541   4.420   5.827 -0.2482  0.2311 -0.5851
11950SOL    HW139766   9.462   4.366   5.816 -0.4006  0.0340  1.1680
11950SOL    HW239767   9.574   4.432   5.738 -1.7647 -0.4137 -1.2819
11951SOL     OW39768   3.617   6.227   6.246 -0.1559 -0.5478 -0.2576
11951SOL    HW139769   3.567   6.151   6.216 -0.7828 -0.6154  0.8863
11951SOL    HW239770   3.557   6.301   6.237 -0.6338 -0.6802  1.4384
11952SOL     OW39771   6.434   9.662   0.768 -0.0942 -0.2293 -0.0059
11952SOL    HW139772   6.389   9.700   0.692  0.0691  0.1986  0.1115
11952SOL    HW239773   6.414   9.568   0.763 -0.3060 -0.1633 -0.4257
11953SOL     OW39774   7.447   7.152   5.820 -0.7688  0.1445  0.6213
11953SOL    HW139775   7.500   7.079   5.852 -2.4478 -0.5515  1.9716
11953SOL    HW239776   7.402   7.185   5.898 -1.2442  1.6116 -0.2380
11954SOL     OW39777   9.059   5.717   2.972  0.4342  0.0775  0.2773
11954SOL    HW139778   9.049   5.702   3.066 -1.8019  2.0463  0.4445
11954SOL    HW239779   9.004   5.651   2.931 -0.4215  0.6430  0.4885
11955SOL     OW39780   3.854   7.979   8.981 -0.0754 -0.0245 -0.2034
11955SOL    HW139781   3.927   7.946   9.035 -2.2366 -3.1555  1.0781
11955SOL    HW239782   3.881   7.960   8.891  0.6004 -1.3751  0.2561
11956SOL     OW39783   2.549   6.128   4.472 -0.5837 -0.2665  0.6536
11956SOL    HW139784   2.546   6.171   4.557 -2.0093 -0.2013  0.5870
11956SOL    HW239785   2.483   6.174   4.420 -0.7822 -1.2925 -0.0210
11957SOL     OW39786   7.373   6.257   8.741 -0.4455  0.0520 -0.6161
11957SOL    HW139787   7.443   6.296   8.687 -0.3816  0.9331  0.0817
11957SOL    HW239788   7.292   6.291   8.703 -0.5110 -0.8973 -1.3679
11958SOL     OW39789   3.136   6.858   8.392  0.0540 -0.6381  0.3190
11958SOL    HW139790   3.120   6.920   8.463  0.8151 -1.7950  1.5386
11958SOL    HW239791   3.049   6.826   8.369 -0.2999  0.4743  0.0215
11959SOL     OW39792   6.669   6.320   1.048 -0.8886 -0.1467 -0.3597
11959SOL    HW139793   6.614   6.251   1.083 -0.5568 -0.9120 -1.2909
11959SOL    HW239794   6.703   6.366   1.125  0.0673 -1.9545  0.3560
11960SOL     OW39795   6.087   3.738   0.427 -0.6600 -0.2646  0.1014
11960SOL    HW139796   6.093   3.776   0.515 -1.2340  0.4297 -0.1470
11960SOL    HW239797   6.008   3.777   0.390  1.5720  2.4718 -2.1635
11961SOL     OW39798   6.000   7.163   8.211 -0.2794 -0.3511 -0.1509
11961SOL    HW139799   5.946   7.231   8.171 -0.9010 -0.7483  0.0035
11961SOL    HW239800   5.940   7.115   8.268  0.3108 -0.5907  0.2802
11962SOL     OW39801   6.326   8.083   2.684 -0.3906 -0.3340 -0.2543
11962SOL    HW139802   6.372   8.003   2.660  1.6346 -0.0887  2.3954
11962SOL    HW239803   6.292   8.065   2.772 -2.3203  0.8081 -0.7075
11963SOL     OW39804   4.287   5.444   3.572 -0.0595  0.4563  0.3359
11963SOL    HW139805   4.348   5.381   3.533  2.6531  2.4420  1.0482
11963SOL    HW239806   4.322   5.529   3.547 -2.1543  1.7386  1.4938
11964SOL     OW39807   0.354   4.824   6.025  0.1252  0.2746 -0.2510
11964SOL    HW139808   0.351   4.762   6.098  1.1491 -0.5847 -0.9004
11964SOL    HW239809   0.329   4.773   5.948 -2.5833  1.5641 -0.3219
11965SOL     OW39810   9.603   4.569   4.510  0.0476 -0.0624 -0.3510
11965SOL    HW139811   9.571   4.637   4.570 -0.3825 -1.0409  0.5605
11965SOL    HW239812   9.688   4.544   4.545  0.0559 -0.2294 -0.4906
11966SOL     OW39813   5.805   2.743   4.700 -0.1355 -0.7786 -0.2821
11966SOL    HW139814   5.860   2.753   4.777  1.0980 -0.6145 -1.1518
11966SOL    HW239815   5.746   2.671   4.722  0.0164 -0.5668  0.8955
11967SOL     OW39816   8.806   3.225   4.657 -0.1114 -0.0518  0.6876
11967SOL    HW139817   8.727   3.171   4.658  0.5885 -1.1541 -0.5021
11967SOL    HW239818   8.779   3.308   4.618 -0.4907 -0.7785 -0.6572
11968SOL     OW39819   5.822  10.202   2.630  0.1290  0.7486 -0.2142
11968SOL    HW139820   5.777  10.125   2.595 -0.2330 -0.3905  2.4778
11968SOL    HW239821   5.899  10.167   2.675 -0.8953  1.6478  2.4681
11969SOL     OW39822   4.209   9.836   1.478  0.7961  0.2119  0.0322
11969SOL    HW139823   4.238   9.925   1.458  3.4598 -0.4777  0.5408
11969SOL    HW239824   4.285   9.794   1.518 -1.2774 -1.4345  2.5547
11970SOL     OW39825   3.566   9.339   5.887 -0.1188 -0.5821 -0.7563
11970SOL    HW139826   3.655   9.330   5.920 -0.4148  1.6611  0.8597
11970SOL    HW239827   3.517   9.269   5.930 -0.4583  2.0894  3.8178
11971SOL     OW39828   1.328   3.413   9.327  0.8397 -0.3059 -0.0004
11971SOL    HW139829   1.393   3.402   9.257  0.1248  1.3386 -0.9803
11971SOL    HW239830   1.343   3.501   9.360 -1.0155  0.1994 -0.4113
11972SOL     OW39831   7.479   3.989   7.408 -0.1083 -0.5829  0.1077
11972SOL    HW139832   7.420   3.938   7.353 -0.2597 -0.5903  0.2750
11972SOL    HW239833   7.565   3.947   7.398  0.4575  0.9190 -2.1249
11973SOL     OW39834   5.485   9.675   3.038 -0.1928  0.2429  0.5348
11973SOL    HW139835   5.524   9.655   3.123 -0.5701  0.9056  0.8759
11973SOL    HW239836   5.433   9.754   3.054 -2.3517 -1.0583  0.3055
11974SOL     OW39837   3.072   3.667   3.139  0.2021 -0.2248 -0.0292
11974SOL    HW139838   3.038   3.709   3.218 -0.1587 -0.9165  0.1856
11974SOL    HW239839   3.107   3.583   3.169 -0.6724 -0.8515 -0.7181
11975SOL     OW39840   8.426   4.548   4.658  0.1230 -0.5759  0.0670
11975SOL    HW139841   8.443   4.483   4.726  1.3726 -2.1732 -1.6818
11975SOL    HW239842   8.331   4.550   4.650  0.0116 -1.2659  1.0153
11976SOL     OW39843   7.397   5.286   6.457 -0.5945  0.1697  0.5859
11976SOL    HW139844   7.370   5.289   6.365 -1.2965 -0.2486  0.7694
11976SOL    HW239845   7.490   5.308   6.455 -0.0298 -2.0143 -0.4768
11977SOL     OW39846   0.012   1.020   7.859  0.1394 -0.6618 -0.7220
11977SOL    HW139847   0.098   0.997   7.896 -0.1098 -0.4144  0.0282
11977SOL    HW239848  -0.013   0.944   7.807  0.6909 -0.8477 -0.7239
11978SOL     OW39849   3.874   6.843   1.908  0.4698 -0.2603  0.4100
11978SOL    HW139850   3.887   6.924   1.956  1.1436 -1.0764  1.6661
11978SOL    HW239851   3.963   6.807   1.897  0.1528 -1.0092  0.1969
11979SOL     OW39852   2.393   2.452   2.945  0.3388  0.2059  0.9152
11979SOL    HW139853   2.441   2.371   2.930 -0.5837 -0.3631  0.9541
11979SOL    HW239854   2.301   2.428   2.933  0.1728  1.8279 -1.7439
11980SOL     OW39855   5.437   7.793   2.649 -0.7955 -0.4980  0.3476
11980SOL    HW139856   5.395   7.790   2.563 -0.1667 -1.4270  0.0698
11980SOL    HW239857   5.527   7.768   2.634 -0.1212  1.3376  0.9732
11981SOL     OW39858   4.570   7.975   4.210 -0.6091 -0.0107  0.1586
11981SOL    HW139859   4.477   7.992   4.195 -0.1689  2.6868  0.1097
11981SOL    HW239860   4.599   8.045   4.268  1.5537 -0.3676 -0.3829
11982SOL     OW39861   1.839   7.560   9.535  0.0693  0.3842  0.1767
11982SOL    HW139862   1.881   7.597   9.457  0.2677 -0.5774 -0.2019
11982SOL    HW239863   1.896   7.486   9.559 -1.1078 -0.6407 -0.0454
11983SOL     OW39864   7.397   9.002   3.440  0.1215  0.1537 -0.0227
11983SOL    HW139865   7.481   9.033   3.474  0.7850 -0.7766 -0.7541
11983SOL    HW239866   7.333   9.030   3.505  0.9363  1.2705  0.3298
11984SOL     OW39867   8.821   9.953   2.535 -0.0579  0.5029  0.5407
11984SOL    HW139868   8.836   9.924   2.445 -0.1907  0.6709  0.4637
11984SOL    HW239869   8.789   9.875   2.581 -0.2507  0.4877  0.3779
11985SOL     OW39870   5.043   2.096   6.287 -0.5342 -0.4131  0.4529
11985SOL    HW139871   4.979   2.127   6.222  0.5395 -3.4488 -2.3681
11985SOL    HW239872   5.017   2.006   6.305  1.8110 -1.1143  0.6849
11986SOL     OW39873   6.877   1.786   6.924  0.2301 -0.1252  0.0048
11986SOL    HW139874   6.875   1.793   7.020  1.1754  0.6370 -0.0201
11986SOL    HW239875   6.793   1.747   6.902  0.1169 -0.6075  1.1725
11987SOL     OW39876   6.974   3.890   1.426  0.1559  0.2597 -0.4734
11987SOL    HW139877   6.979   3.984   1.445  2.1516  0.0590  0.2695
11987SOL    HW239878   7.060   3.856   1.452 -0.8997 -1.9767  0.3504
11988SOL     OW39879   7.240   8.510   6.305 -0.7085 -0.2299  0.2498
11988SOL    HW139880   7.212   8.581   6.364  0.2806  0.5515 -0.1879
11988SOL    HW239881   7.276   8.555   6.229 -0.8146 -1.2239 -0.4076
11989SOL     OW39882   4.059   9.147   6.621 -0.3432 -0.0280 -0.3403
11989SOL    HW139883   4.062   9.230   6.573 -0.0691  1.5460  2.2214
11989SOL    HW239884   3.988   9.158   6.685 -0.6821 -2.0085 -0.2999
11990SOL     OW39885   0.344   6.500   2.827 -0.0854 -0.2912 -0.1620
11990SOL    HW139886   0.409   6.548   2.776  0.1901  1.0881  1.4125
11990SOL    HW239887   0.283   6.465   2.761 -0.4273  2.4040 -1.4030
11991SOL     OW39888   8.918   9.906   6.443  0.5530  0.1014 -0.0620
11991SOL    HW139889   8.995   9.946   6.485  0.3837 -0.3390  0.6923
11991SOL    HW239890   8.886   9.844   6.509  0.6296 -1.0403 -1.0777
11992SOL     OW39891   5.650   8.229   0.409 -0.3024 -0.0275  0.2523
11992SOL    HW139892   5.743   8.213   0.426 -0.6162 -1.2035  0.9748
11992SOL    HW239893   5.644   8.238   0.313  0.5386 -0.0375  0.1956
11993SOL     OW39894   4.888   8.630   0.732 -0.8519 -0.2015 -0.4029
11993SOL    HW139895   4.865   8.697   0.668 -0.9218  0.5531  0.3974
11993SOL    HW239896   4.826   8.559   0.716 -0.4414 -0.3204 -1.6115
11994SOL     OW39897   9.144   0.510   1.815 -0.2717  0.1100  0.0480
11994SOL    HW139898   9.108   0.452   1.749  1.2182 -0.5065 -0.2480
11994SOL    HW239899   9.154   0.455   1.893  1.8607 -0.2675 -0.4584
11995SOL     OW39900   4.660   5.130   2.376 -0.3112 -0.3460 -0.3490
11995SOL    HW139901   4.691   5.209   2.419 -0.3610 -0.2387 -0.5095
11995SOL    HW239902   4.574   5.113   2.414 -0.4200 -0.1667 -0.5123
11996SOL     OW39903   5.036   8.620   7.300 -0.1947  0.4987  0.0302
11996SOL    HW139904   5.066   8.579   7.381  1.0958  0.6845 -0.3464
11996SOL    HW239905   4.943   8.596   7.295  0.0812 -0.8130  0.7707
11997SOL     OW39906   2.273   3.499   9.312  0.0066  0.4540  0.3772
11997SOL    HW139907   2.185   3.479   9.280  0.5022 -0.9559 -0.2147
11997SOL    HW239908   2.308   3.414   9.339  1.2126  0.9801  0.5331
11998SOL     OW39909   9.257   7.631   0.386  0.8682  0.0291 -0.2636
11998SOL    HW139910   9.252   7.665   0.297  0.2368  1.4126  0.2770
11998SOL    HW239911   9.183   7.570   0.392  0.2365  0.7800 -0.3480
11999SOL     OW39912   4.758   1.164   1.812  0.1880 -0.2151  0.2488
11999SOL    HW139913   4.710   1.081   1.806  0.7699 -0.4715 -1.0206
11999SOL    HW239914   4.830   1.145   1.873  0.2595 -0.6070  0.0429
12000SOL     OW39915   1.056   7.592   5.231  0.0453 -0.0676 -0.0059
12000SOL    HW139916   1.120   7.528   5.263  0.6313  0.9912  1.0173
12000SOL    HW239917   1.030   7.641   5.309 -0.7859  0.6026 -0.6837
12001SOL     OW39918   6.057   9.929   5.931 -0.0392  0.2621  0.2317
12001SOL    HW139919   6.125   9.977   5.884  0.5063  2.2250  2.8358
12001SOL    HW239920   6.102   9.855   5.972  0.1490  0.4841  0.4227
12002SOL     OW39921   4.820   0.222   9.939 -0.3152  0.0503 -0.3252
12002SOL    HW139922   4.835   0.144   9.887 -1.7808 -1.5214  1.4575
12002SOL    HW239923   4.738   0.257   9.907 -2.5264 -2.2833  2.2410
12003SOL     OW39924   6.331   4.268   8.837 -0.0637  0.0056 -0.1963
12003SOL    HW139925   6.403   4.290   8.778 -0.4304 -1.5539 -1.2942
12003SOL    HW239926   6.314   4.349   8.886  2.1018  0.5477 -0.2275
12004SOL     OW39927   0.990   5.616   5.309  0.0211 -0.1751 -0.4147
12004SOL    HW139928   0.989   5.568   5.227 -0.7024 -0.8133 -0.0435
12004SOL    HW239929   0.993   5.708   5.283  2.0817 -0.3901 -1.1302
12005SOL     OW39930   4.396   1.766   4.184 -0.1462  0.2514  0.0082
12005SOL    HW139931   4.429   1.677   4.170 -1.5293 -0.3346  0.3334
12005SOL    HW239932   4.472   1.815   4.215  0.1492 -1.3540  2.0070
12006SOL     OW39933   2.708   5.456   5.482  0.0249  0.3317 -0.5030
12006SOL    HW139934   2.676   5.386   5.425 -0.1879  0.9350 -1.1413
12006SOL    HW239935   2.635   5.473   5.542 -0.6806  1.2936 -1.5714
12007SOL     OW39936   0.747   4.905   3.736  0.3364 -0.0074  0.0847
12007SOL    HW139937   0.795   4.941   3.661 -0.6224  0.1616 -0.4554
12007SOL    HW239938   0.788   4.819   3.751  0.3219 -0.1854 -0.8406
12008SOL     OW39939   6.857   6.370   9.780 -0.2760 -0.3924 -0.1146
12008SOL    HW139940   6.909   6.308   9.830 -0.5504 -1.3696 -1.0121
12008SOL    HW239941   6.783   6.319   9.748 -2.2823  1.1241  1.8062
12009SOL     OW39942   4.821   3.486   1.219  0.1454  0.8203 -0.4899
12009SOL    HW139943   4.757   3.428   1.260 -0.8165  1.8296 -0.5061
12009SOL    HW239944   4.768   3.558   1.183  1.2581  1.4883 -0.8256
12010SOL     OW39945   3.919   4.716   5.609 -0.2444  0.1750 -0.1350
12010SOL    HW139946   3.939   4.715   5.515  0.8221  2.6714 -0.0332
12010SOL    HW239947   3.837   4.766   5.615  0.5506  1.4611  0.3351
12011SOL     OW39948   0.347   0.150   2.197 -0.6920 -0.1889  0.6046
12011SOL    HW139949   0.416   0.084   2.202 -0.5351 -0.3174 -1.9992
12011SOL    HW239950   0.374   0.217   2.260  2.3626  0.1935 -0.9266
12012SOL     OW39951   4.046  10.153   2.075 -0.1570 -0.0046 -0.2101
12012SOL    HW139952   3.985  10.108   2.134  0.9433 -1.2334  0.0521
12012SOL    HW239953   4.132  10.122   2.103  0.3732 -1.4066 -3.0424
12013SOL     OW39954   6.006   3.637   1.242  0.5747 -0.0424  0.2979
12013SOL    HW139955   5.911   3.630   1.234  0.5392  0.1754  0.5466
12013SOL    HW239956   6.036   3.657   1.153  0.2747  1.1811  0.4513
12014SOL     OW39957   6.797   3.225   4.541  0.0421  0.2380  0.0017
12014SOL    HW139958   6.882   3.212   4.501 -1.0368 -1.0027 -1.9980
12014SOL    HW239959   6.801   3.175   4.623  0.8154 -0.8254 -0.6658
12015SOL     OW39960   8.716   0.598   4.132 -0.0516  0.2139 -0.5473
12015SOL    HW139961   8.645   0.572   4.191  1.6553 -0.9029  1.1263
12015SOL    HW239962   8.766   0.517   4.118  1.2174  1.0871 -1.2014
12016SOL     OW39963   0.417   6.700   9.020 -0.4565  0.7199  0.2900
12016SOL    HW139964   0.449   6.717   9.109 -1.1126  0.2044  0.6331
12016SOL    HW239965   0.486   6.734   8.963  0.1157  0.7727  0.9976
12017SOL     OW39966  10.136   1.668   8.980 -0.5784 -0.7588  0.0522
12017SOL    HW139967  10.153   1.641   8.889 -0.5981 -1.7077  0.3183
12017SOL    HW239968  10.213   1.638   9.028 -0.4081  0.0610  0.2880
12018SOL     OW39969   9.391   5.894   0.831 -0.1572  1.0023 -0.6763
12018SOL    HW139970   9.439   5.819   0.866  1.7457  1.3674 -2.3358
12018SOL    HW239971   9.427   5.970   0.878 -2.0744  0.9704  0.9977
12019SOL     OW39972   6.664   5.925   6.796 -0.2729  0.1386 -0.0657
12019SOL    HW139973   6.738   5.922   6.856 -0.9200 -0.7138  0.7283
12019SOL    HW239974   6.691   5.871   6.722 -0.2690 -0.5988  0.4517
12020SOL     OW39975   4.874   3.390   2.853 -0.0337  0.0584 -0.3754
12020SOL    HW139976   4.889   3.350   2.939 -0.1518  0.6934 -0.0466
12020SOL    HW239977   4.852   3.481   2.873 -0.8170  0.0295 -1.0412
12021SOL     OW39978   2.040   1.640   0.813  0.0071  0.2250 -0.8552
12021SOL    HW139979   2.122   1.685   0.834 -0.0511  0.3547 -0.9105
12021SOL    HW239980   1.975   1.710   0.806 -0.1003  0.1252 -0.8524
12022SOL     OW39981   9.181   9.831   6.199 -0.1391 -0.3203  0.6466
12022SOL    HW139982   9.100   9.857   6.156 -0.3554 -1.9315  0.0340
12022SOL    HW239983   9.213   9.912   6.240 -1.5795  0.5306  0.1604
12023SOL     OW39984   2.094   4.279   5.562  0.1192  0.1645 -0.5567
12023SOL    HW139985   2.123   4.188   5.565 -2.2488 -0.6330  0.1931
12023SOL    HW239986   2.065   4.292   5.472  1.3003  0.5208 -0.9152
12024SOL     OW39987   9.157   3.401   4.221  0.2193  0.0264 -0.0117
12024SOL    HW139988   9.244   3.377   4.190 -0.1346  0.4069 -1.4093
12024SOL    HW239989   9.172   3.467   4.288  1.0277 -0.5144  0.3400
12025SOL     OW39990   1.608   4.597   6.720  0.3588  0.1386  0.2048
12025SOL    HW139991   1.525   4.623   6.680 -0.0733 -2.0738 -0.4975
12025SOL    HW239992   1.674   4.626   6.657  0.0174  0.7772  0.1332
12026SOL     OW39993   8.930   6.029   4.051  0.3990  0.2120  0.3068
12026SOL    HW139994   8.888   6.095   3.995  0.1426  1.9153  2.3744
12026SOL    HW239995   9.024   6.046   4.042  0.4158 -0.1840 -0.3404
12027SOL     OW39996   7.503   7.184   8.891 -0.0315 -0.2348  0.1579
12027SOL    HW139997   7.527   7.194   8.983 -1.1734 -0.7788  0.5394
12027SOL    HW239998   7.461   7.267   8.869  0.5019  0.0071  0.0313
12028SOL     OW39999  10.008  10.089   1.418  0.4351 -0.5052  0.2848
12028SOL    HW140000   9.965  10.173   1.425  1.4643  0.1001 -0.3654
12028SOL    HW240001   9.953  10.029   1.468 -0.3635  0.5250  0.6678
12029SOL     OW40002   4.724   2.210   8.562 -0.6527 -0.9160 -0.1176
12029SOL    HW140003   4.785   2.144   8.528 -0.3415  0.1105 -1.6369
12029SOL    HW240004   4.692   2.256   8.484 -1.7752 -0.0495  0.8189
12030SOL     OW40005   2.410   6.758   0.077  0.1821  0.2152 -0.0069
12030SOL    HW140006   2.503   6.752   0.054 -0.0481  2.3144 -1.9021
12030SOL    HW240007   2.389   6.851   0.066 -2.1591 -0.2012  0.3617
12031SOL     OW40008   8.874   8.623   6.919 -0.2933  0.0042 -0.1503
12031SOL    HW140009   8.812   8.696   6.930  1.4486  2.0185 -2.7246
12031SOL    HW240010   8.894   8.596   7.009 -0.8553  2.8672  0.9489
12032SOL     OW40011   1.139   6.273   3.209 -0.3420  0.3425 -0.3569
12032SOL    HW140012   1.158   6.365   3.188  0.9323  0.1879  0.0268
12032SOL    HW240013   1.062   6.277   3.265 -0.5098  1.1581 -0.6288
12033SOL     OW40014   6.131   9.607   6.637  0.1661  0.2240  0.1703
12033SOL    HW140015   6.222   9.635   6.644  0.4276 -0.0417 -1.7115
12033SOL    HW240016   6.105   9.589   6.728  1.8144  0.7792  0.7965
12034SOL     OW40017   8.006   3.718   8.082  0.3206 -0.0620 -0.1576
12034SOL    HW140018   8.002   3.624   8.098 -0.1962  0.3024  2.2405
12034SOL    HW240019   7.915   3.747   8.086  0.4559  0.5397 -1.0589
12035SOL     OW40020   9.637   2.100   3.378 -0.7632 -0.1917  0.1664
12035SOL    HW140021   9.636   2.144   3.293  0.6317  0.2158  0.3387
12035SOL    HW240022   9.548   2.112   3.412 -0.7310  1.5709 -0.2704
12036SOL     OW40023   9.591   8.539   0.915 -0.6441  0.6000 -0.1964
12036SOL    HW140024   9.640   8.570   0.991  1.4795 -2.4658 -0.1283
12036SOL    HW240025   9.500   8.547   0.941 -0.0664  1.9870  1.6557
12037SOL     OW40026   4.495   8.117   2.467 -0.3683  0.6855 -0.7170
12037SOL    HW140027   4.553   8.159   2.403  1.0093 -1.2869 -0.8677
12037SOL    HW240028   4.477   8.184   2.532  2.3076  1.3351 -0.5478
12038SOL     OW40029   5.531   0.196   7.336 -0.1968  0.0902  0.0466
12038SOL    HW140030   5.600   0.150   7.384 -0.1061 -0.2364 -0.3886
12038SOL    HW240031   5.463   0.130   7.321 -0.4804  0.3384  0.2266
12039SOL     OW40032   3.627   5.829   3.461  0.8280  0.0276  0.2716
12039SOL    HW140033   3.718   5.801   3.461  0.4457 -1.2911 -0.5858
12039SOL    HW240034   3.598   5.818   3.552  0.6627 -2.5860 -0.0196
12040SOL     OW40035   5.865   6.086   2.390  0.0212  0.1629 -0.3444
12040SOL    HW140036   5.952   6.111   2.357  0.4002  0.6841  0.9615
12040SOL    HW240037   5.812   6.073   2.312  0.7636  1.7538 -1.1703
12041SOL     OW40038   6.218   3.645   1.792 -0.0105  0.0057 -0.2196
12041SOL    HW140039   6.150   3.712   1.804  0.3947  0.1223  1.7683
12041SOL    HW240040   6.300   3.692   1.807  0.2630 -0.9619  1.6517
12042SOL     OW40041   4.351   3.737   2.734  0.1210 -0.0652  0.5760
12042SOL    HW140042   4.363   3.791   2.656  0.6749 -0.0468  0.6673
12042SOL    HW240043   4.294   3.666   2.707  0.1360  0.0610  0.2144
12043SOL     OW40044   0.699   1.492   5.376  0.6375 -0.5727 -0.5348
12043SOL    HW140045   0.763   1.562   5.392  0.3614 -0.5615  0.6219
12043SOL    HW240046   0.712   1.431   5.448 -2.2379  0.6369  1.2030
12044SOL     OW40047   7.454   7.293   4.163  0.5575  0.0308  0.3324
12044SOL    HW140048   7.366   7.277   4.129  0.8000  0.2679 -0.4300
12044SOL    HW240049   7.460   7.238   4.241 -0.0214 -0.5293 -0.0078
12045SOL     OW40050   2.584   5.841   6.340 -0.1509 -0.1051 -0.2695
12045SOL    HW140051   2.517   5.852   6.273  0.4928  1.2258 -0.7192
12045SOL    HW240052   2.666   5.833   6.292  0.1436 -0.7746  0.3133
12046SOL     OW40053   3.067   4.201   1.779  0.0706  0.1114 -0.5250
12046SOL    HW140054   3.044   4.206   1.686 -0.0852 -2.5453 -0.7002
12046SOL    HW240055   3.143   4.260   1.788 -0.4423  1.0846 -2.1176
12047SOL     OW40056   4.878   7.114   4.296  0.6256 -0.2598  0.5450
12047SOL    HW140057   4.935   7.043   4.267 -0.0294 -0.8994  0.7853
12047SOL    HW240058   4.914   7.140   4.381  1.4448  0.3721  0.0238
12048SOL     OW40059   5.769   7.505   4.464  0.1461 -0.5085 -0.3226
12048SOL    HW140060   5.707   7.499   4.391  0.0259  0.8893 -0.3681
12048SOL    HW240061   5.855   7.500   4.422  0.0740 -0.7882 -0.4408
12049SOL     OW40062   0.286   5.135   9.625  0.5756  0.2820  0.2682
12049SOL    HW140063   0.332   5.178   9.697 -0.0172  1.8096 -0.2217
12049SOL    HW240064   0.228   5.071   9.667 -0.4129  1.7656  1.2248
12050SOL     OW40065   1.422   8.056   7.342  0.2906 -0.0174 -0.6285
12050SOL    HW140066   1.335   8.037   7.306  0.0274 -1.4532  0.6993
12050SOL    HW240067   1.459   7.970   7.362  1.6701  0.6237 -0.3426
12051SOL     OW40068   3.344   6.780   0.835  0.4330 -0.6330 -0.6090
12051SOL    HW140069   3.355   6.873   0.812 -1.9785  0.5339  2.3641
12051SOL    HW240070   3.355   6.734   0.752 -1.0688  2.5456 -2.7719
12052SOL     OW40071   1.313   9.622   3.843 -0.2769 -0.1439  0.0126
12052SOL    HW140072   1.300   9.698   3.786 -1.5041 -0.9880 -0.8768
12052SOL    HW240073   1.263   9.552   3.801  2.0721 -1.8936 -0.0812
12053SOL     OW40074   6.368   0.237   4.245 -0.1212 -0.4328  1.1260
12053SOL    HW140075   6.396   0.147   4.229  0.6317  0.1207 -1.1003
12053SOL    HW240076   6.286   0.229   4.294 -1.0077 -2.4103 -0.5199
12054SOL     OW40077   1.755   1.229   2.209  0.4164  0.7258  0.0496
12054SOL    HW140078   1.763   1.252   2.301 -0.7424  2.0350 -0.1526
12054SOL    HW240079   1.816   1.288   2.164 -0.2545  1.2537 -0.1759
12055SOL     OW40080  10.142   1.287   1.407 -0.1666  0.3942 -0.2961
12055SOL    HW140081  10.058   1.312   1.445 -0.4514 -0.8747 -0.0245
12055SOL    HW240082  10.133   1.306   1.314 -1.0903 -0.4900 -0.4152
12056SOL     OW40083   7.812   5.122   1.432  0.1339 -0.1843 -0.2333
12056SOL    HW140084   7.719   5.118   1.410 -0.2390 -0.3134  1.2129
12056SOL    HW240085   7.813   5.150   1.524  1.3948 -2.6618  0.5870
12057SOL     OW40086   4.074   7.063   8.635  0.0271  0.3284 -0.3597
12057SOL    HW140087   4.021   7.128   8.589  0.0176  0.6735  0.1263
12057SOL    HW240088   4.161   7.103   8.642  0.9080 -0.9694 -2.7614
12058SOL     OW40089   1.316   4.348   3.873 -0.3947  0.3117  0.4184
12058SOL    HW140090   1.229   4.316   3.852 -0.9116  0.5545  2.0579
12058SOL    HW240091   1.320   4.435   3.835 -0.9399  0.3655  0.4754
12059SOL     OW40092   2.701   9.630   7.081 -0.0100  0.1239  0.0438
12059SOL    HW140093   2.708   9.659   7.172 -1.4344  1.0006 -0.0876
12059SOL    HW240094   2.652   9.700   7.038 -0.0163 -0.6424 -1.2272
12060SOL     OW40095   9.406   0.357   2.768 -0.0742  0.0428 -0.2646
12060SOL    HW140096   9.311   0.348   2.769 -0.0180 -1.1070 -1.2997
12060SOL    HW240097   9.439   0.267   2.775  0.9529  0.4539  0.5066
12061SOL     OW40098   8.130   2.158   3.721 -0.2610  0.7966  0.2259
12061SOL    HW140099   8.200   2.201   3.671 -0.6236  1.3598  0.1919
12061SOL    HW240100   8.082   2.106   3.657  0.5843 -0.2145  0.3820
12062SOL     OW40101   5.578   2.984   7.882  0.0263  0.4152  0.2905
12062SOL    HW140102   5.633   2.932   7.940 -1.0430 -0.0928  0.8591
12062SOL    HW240103   5.493   2.941   7.883 -0.2857  0.9564 -0.8954
12063SOL     OW40104   8.217   2.551   0.755 -0.0858  0.4259  0.0542
12063SOL    HW140105   8.261   2.635   0.740 -0.8711  1.1243  1.4174
12063SOL    HW240106   8.270   2.487   0.708  1.4818  1.4483  0.3680
12064SOL     OW40107   5.718   0.217   2.995 -0.4298 -0.0577  0.3884
12064SOL    HW140108   5.789   0.212   3.060  0.3906 -0.3787 -0.5062
12064SOL    HW240109   5.713   0.309   2.972 -1.4941  0.2480  1.7090
12065SOL     OW40110   8.315   3.170   9.407 -0.0192  0.5126 -0.3126
12065SOL    HW140111   8.287   3.261   9.418  1.7178  0.8649  1.9102
12065SOL    HW240112   8.386   3.174   9.343  0.3647  0.7945  0.1295
12066SOL     OW40113   6.374   2.562   9.926 -0.2476  0.7266 -0.2183
12066SOL    HW140114   6.436   2.584   9.856 -3.1188  0.1409 -3.1965
12066SOL    HW240115   6.338   2.477   9.900 -1.4076  0.4365  2.0588
12067SOL     OW40116  10.060   2.056   2.235  0.1635 -0.2701 -0.1296
12067SOL    HW140117  10.016   2.062   2.320  0.9781 -2.1302  0.4724
12067SOL    HW240118  10.001   2.003   2.181  1.0193 -1.6664  0.2676
12068SOL     OW40119   6.823   3.489   7.731 -0.1849  0.7090 -0.1227
12068SOL    HW140120   6.868   3.421   7.781  0.3944  0.0268 -1.5221
12068SOL    HW240121   6.792   3.551   7.797 -0.7202 -0.8896  1.1975
12069SOL     OW40122   3.022   7.036   2.906  0.0771  0.5532 -0.1048
12069SOL    HW140123   2.940   7.085   2.915 -0.0188  0.0997  2.1447
12069SOL    HW240124   2.996   6.944   2.911  0.6089  0.3665 -0.6723
12070SOL     OW40125   4.305   7.896   2.823 -1.0917 -0.8845  0.3420
12070SOL    HW140126   4.217   7.928   2.804  0.5405  4.4888  0.2512
12070SOL    HW240127   4.318   7.916   2.916  0.5798  0.2311 -0.0878
12071SOL     OW40128   6.102   3.980   0.856  0.3816  0.0831 -0.1007
12071SOL    HW140129   6.115   4.070   0.886 -0.7171  0.0451  0.5801
12071SOL    HW240130   6.051   3.939   0.927  0.3493 -0.8965 -0.6739
12072SOL     OW40131   1.000   6.544   1.522 -0.7662 -0.0361  0.6646
12072SOL    HW140132   0.989   6.543   1.427  0.0210  1.2189  0.5367
12072SOL    HW240133   1.094   6.556   1.536 -1.0361  1.3254  1.5617
12073SOL     OW40134   1.588   1.739   8.469 -0.0643 -0.2477 -0.4863
12073SOL    HW140135   1.623   1.677   8.532 -1.2163 -0.9389 -0.5073
12073SOL    HW240136   1.599   1.696   8.384  1.3040  0.5983 -0.7698
12074SOL     OW40137   9.231   8.644   7.360  0.1128  0.3878 -0.0321
12074SOL    HW140138   9.311   8.689   7.389 -0.2754  1.2634 -0.3119
12074SOL    HW240139   9.181   8.630   7.440 -0.6511  2.2139 -0.1309
12075SOL     OW40140   1.169   7.357   0.136  0.3279  0.0204  0.4854
12075SOL    HW140141   1.176   7.449   0.164 -1.8046  1.2884 -2.5673
12075SOL    HW240142   1.080   7.332   0.161  0.1223 -0.4181 -0.6120
12076SOL     OW40143   3.538   5.944   1.080  0.2205 -0.2700 -0.7101
12076SOL    HW140144   3.531   5.870   1.141  0.5891 -0.1155 -0.4799
12076SOL    HW240145   3.494   5.913   1.001  1.0939 -1.0549 -0.9094
12077SOL     OW40146   2.965   5.337   5.187 -0.5774 -0.0611  0.2940
12077SOL    HW140147   2.997   5.352   5.276 -0.6093 -0.0987  0.3115
12077SOL    HW240148   2.886   5.284   5.198  0.1670 -1.2207  0.1674
12078SOL     OW40149   9.019   7.918   0.348  0.2084 -0.0972  0.6693
12078SOL    HW140150   9.006   8.011   0.364 -2.3542 -0.3838  0.8125
12078SOL    HW240151   8.989   7.875   0.428 -1.0177 -1.0920 -0.2712
12079SOL     OW40152   3.945   6.091   2.186 -0.0232  0.0348 -0.3094
12079SOL    HW140153   3.955   6.030   2.113 -2.1553  0.3642 -0.9561
12079SOL    HW240154   3.872   6.147   2.160  0.6438  1.6363  1.1131
12080SOL     OW40155   8.215   1.371   3.845  0.0212  0.2004  0.2857
12080SOL    HW140156   8.220   1.277   3.860  0.4112  0.2684  0.6186
12080SOL    HW240157   8.125   1.386   3.816 -0.7990  0.0296  2.5182
12081SOL     OW40158   0.184   8.928   5.714 -0.6331  0.2477  0.6100
12081SOL    HW140159   0.276   8.956   5.712 -0.1576 -1.2341 -1.0314
12081SOL    HW240160   0.155   8.947   5.803  1.5868 -0.1869  1.4960
12082SOL     OW40161   6.449   7.397   7.199 -0.3315  0.5614 -0.0268
12082SOL    HW140162   6.436   7.475   7.145 -1.4561  1.3897  1.3635
12082SOL    HW240163   6.501   7.428   7.273 -0.9269  0.0489  0.6212
12083SOL     OW40164   9.708   5.219   0.466  0.2316  0.1984 -0.3340
12083SOL    HW140165   9.755   5.299   0.488  1.8440 -0.7952 -0.0067
12083SOL    HW240166   9.623   5.229   0.509  1.7174  0.1774  2.9009
12084SOL     OW40167   1.185   7.982   7.181 -0.0636  0.4022 -0.0354
12084SOL    HW140168   1.219   7.955   7.096  1.4054 -1.1377  0.9524
12084SOL    HW240169   1.135   8.061   7.164 -2.9962 -1.8060 -2.9258
12085SOL     OW40170   2.882   6.779   6.096 -0.1258 -0.0072  0.6398
12085SOL    HW140171   2.973   6.803   6.078  0.2069 -0.4005  1.7119
12085SOL    HW240172   2.834   6.862   6.093  0.3386  0.2566  0.4571
12086SOL     OW40173   2.178   7.825   7.794  0.5844 -0.3809 -0.1238
12086SOL    HW140174   2.226   7.775   7.728 -0.0217 -2.0928  0.6846
12086SOL    HW240175   2.086   7.802   7.781  0.0747  1.7415 -0.7071
12087SOL     OW40176   1.849   0.760   8.530  0.4266  0.4599 -0.1778
12087SOL    HW140177   1.877   0.828   8.469 -0.5285 -0.3891 -1.6458
12087SOL    HW240178   1.845   0.803   8.615  1.4713  1.7829 -0.7643
12088SOL     OW40179   4.441   6.697   5.842  0.0261 -0.1262 -0.1519
12088SOL    HW140180   4.455   6.718   5.749  0.7882  0.2777  0.0427
12088SOL    HW240181   4.403   6.777   5.879  1.9564  0.6181  0.3692
12089SOL     OW40182   2.799   0.878   0.191 -0.4754  0.3086 -0.2508
12089SOL    HW140183   2.849   0.845   0.116 -0.2573 -0.7757  0.3507
12089SOL    HW240184   2.860   0.937   0.236  0.4472 -1.2749  0.6785
12090SOL     OW40185   2.147   3.810   1.093  0.1432  0.2042  1.2217
12090SOL    HW140186   2.233   3.791   1.131 -0.2609 -0.3881  1.8606
12090SOL    HW240187   2.139   3.905   1.098  1.5150  0.4727 -0.5083
12091SOL     OW40188   7.068   8.149   6.065  0.7049 -0.3091  0.0931
12091SOL    HW140189   7.033   8.236   6.082 -1.7594 -1.3391  0.7544
12091SOL    HW240190   7.162   8.162   6.055  0.2272  2.6325 -1.4786
12092SOL     OW40191   7.776   3.747   0.889 -0.2525 -0.6918 -0.3770
12092SOL    HW140192   7.813   3.677   0.836  2.0427  0.2649 -0.1363
12092SOL    HW240193   7.850   3.786   0.935 -1.8782 -0.1946  2.0543
12093SOL     OW40194   5.846   6.919   4.552 -0.3753 -0.3187  0.6184
12093SOL    HW140195   5.831   6.969   4.632 -0.1358  0.5910  0.1156
12093SOL    HW240196   5.767   6.933   4.500 -0.8014 -1.4240  0.9482
12094SOL     OW40197   1.813   1.536   8.246  0.2683 -0.1231 -0.0678
12094SOL    HW140198   1.750   1.539   8.318 -0.7556 -3.7685 -0.6312
12094SOL    HW240199   1.762   1.554   8.167  0.3445 -1.0378 -0.3330
12095SOL     OW40200   5.331   6.959   3.087  0.1639  0.1246  0.0254
12095SOL    HW140201   5.278   7.026   3.129 -0.0009 -0.8383  1.3956
12095SOL    HW240202   5.347   6.993   2.999 -2.0233  0.8051 -0.1476
12096SOL     OW40203   5.717   5.734   1.750  0.5669  0.1851 -0.7000
12096SOL    HW140204   5.643   5.785   1.716  0.7515  0.8683 -0.1157
12096SOL    HW240205   5.789   5.753   1.691  0.7077  0.8413 -0.3373
12097SOL     OW40206   5.041   3.934   8.075  0.7575 -0.5679  0.4159
12097SOL    HW140207   5.101   3.902   8.008  0.3122 -1.1982  0.3125
12097SOL    HW240208   5.017   3.856   8.126 -0.5063 -0.4595  0.0295
12098SOL     OW40209   5.267   9.928   3.890 -0.3568  0.8072  0.4951
12098SOL    HW140210   5.232   9.867   3.826  1.5863  0.5508 -0.3971
12098SOL    HW240211   5.362   9.922   3.880 -0.0622  3.1602  1.1260
12099SOL     OW40212   7.029   3.698   9.662 -0.7538  0.0172  0.3905
12099SOL    HW140213   7.116   3.713   9.625 -1.1457  1.2085 -0.0740
12099SOL    HW240214   7.046   3.666   9.750  0.1683 -1.2055 -0.2039
12100SOL     OW40215   8.877   5.486   1.801 -0.5979  0.2704  0.4171
12100SOL    HW140216   8.962   5.503   1.762 -0.0432 -1.4698  0.7739
12100SOL    HW240217   8.824   5.452   1.728 -2.0488  4.1194 -0.5666
12101SOL     OW40218   6.635   4.596   2.498  0.1662 -0.5511  0.0595
12101SOL    HW140219   6.556   4.570   2.545  0.3518 -1.2937 -0.0322
12101SOL    HW240220   6.688   4.641   2.564 -0.2034 -0.2891  0.1876
12102SOL     OW40221   4.803   5.916   4.119  0.1205  0.1143  0.1223
12102SOL    HW140222   4.856   5.844   4.085  0.6389  0.0996  0.9411
12102SOL    HW240223   4.763   5.881   4.198 -3.3485 -0.8036 -1.8434
12103SOL     OW40224   0.590   4.914   9.224  0.0767 -0.5124 -0.6449
12103SOL    HW140225   0.559   4.941   9.310 -0.6647  1.6767 -1.5233
12103SOL    HW240226   0.555   4.826   9.213 -1.5426 -0.0677  0.4999
12104SOL     OW40227   9.258   3.829   1.139 -1.0481 -0.2077 -0.4721
12104SOL    HW140228   9.300   3.833   1.053  0.7164  0.7350  0.3939
12104SOL    HW240229   9.243   3.735   1.153 -0.4175 -0.4546 -1.3460
12105SOL     OW40230   1.091   9.107   5.164  0.2043  0.0617 -0.1837
12105SOL    HW140231   1.153   9.046   5.123  0.1687  0.1566 -0.3812
12105SOL    HW240232   1.009   9.058   5.169 -0.2452  0.5811 -1.7270
12106SOL     OW40233   2.079   1.145   8.194 -0.3205 -0.0612  0.4197
12106SOL    HW140234   2.127   1.100   8.124 -1.8446 -1.5391  0.2535
12106SOL    HW240235   2.070   1.080   8.263  1.1253  1.3656  2.0409
12107SOL     OW40236   6.131   4.836   7.980  0.0026 -0.0833 -0.0439
12107SOL    HW140237   6.136   4.931   7.971 -0.3346 -0.1108 -0.6225
12107SOL    HW240238   6.055   4.812   7.927  0.8964 -0.8057 -1.0491
12108SOL     OW40239  10.040   8.416   2.850  0.1625  0.1804  0.1124
12108SOL    HW140240  10.026   8.511   2.856  0.7175  0.2197  0.9818
12108SOL    HW240241  10.092   8.395   2.928  1.4608 -0.5691 -0.9182
12109SOL     OW40242   2.513   9.411   3.296 -0.1998  0.2301  0.2117
12109SOL    HW140243   2.478   9.357   3.367  0.3483  0.2308  0.4951
12109SOL    HW240244   2.474   9.375   3.217  0.1817 -0.6246  0.3945
12110SOL     OW40245   8.763   5.692   4.325  0.2348  0.1672  0.3037
12110SOL    HW140246   8.792   5.607   4.358  1.2327  0.5195  0.3721
12110SOL    HW240247   8.711   5.729   4.396  0.6850  0.0601  0.6960
12111SOL     OW40248   3.726   0.887   8.712  0.8306  0.4310  0.0301
12111SOL    HW140249   3.665   0.884   8.786  0.9903 -0.6166  0.1369
12111SOL    HW240250   3.677   0.927   8.641  0.4443  0.7984  0.5038
12112SOL     OW40251   4.769   9.554   6.651  0.2413 -0.2189 -0.0561
12112SOL    HW140252   4.836   9.503   6.605 -0.1887  0.7137 -1.8056
12112SOL    HW240253   4.811   9.638   6.671 -0.0692 -0.0303 -0.1863
12113SOL     OW40254   8.458   9.824   4.155  0.0983 -0.4340 -0.2837
12113SOL    HW140255   8.404   9.802   4.079 -0.2980  1.0013 -0.4378
12113SOL    HW240256   8.444   9.918   4.168  1.1045 -0.4217  0.8279
12114SOL     OW40257   9.701   5.861   4.801 -0.3350 -0.4047 -0.2480
12114SOL    HW140258   9.647   5.847   4.724 -0.2733  2.0061 -0.8016
12114SOL    HW240259   9.639   5.864   4.874 -1.1105  2.7247 -0.9205
12115SOL     OW40260   1.954   2.127   2.211 -0.3570 -0.2545 -0.4023
12115SOL    HW140261   1.970   2.219   2.228  0.8138 -0.4843 -0.2014
12115SOL    HW240262   1.859   2.121   2.199 -0.2973  1.2002 -1.8524
12116SOL     OW40263   4.075   9.052   3.022  0.3313 -0.1539  0.3285
12116SOL    HW140264   4.012   9.121   3.047 -0.0056 -0.8474  1.4721
12116SOL    HW240265   4.079   8.995   3.099 -1.1213 -2.6938 -1.3695
12117SOL     OW40266   1.365   0.126   1.606 -0.4495  0.2024 -0.5977
12117SOL    HW140267   1.427   0.084   1.666 -0.2609  0.3364 -0.6986
12117SOL    HW240268   1.317   0.053   1.567  1.2089 -0.0697 -2.2573
12118SOL     OW40269   1.037   3.432   6.707  0.0994 -0.0546  0.5463
12118SOL    HW140270   0.993   3.507   6.668  0.0882  0.1922  1.0316
12118SOL    HW240271   0.998   3.356   6.664 -0.5367  0.1798  0.7023
12119SOL     OW40272   9.718   6.158   8.649  0.1833 -0.1467  0.2204
12119SOL    HW140273   9.637   6.107   8.648 -0.7579  1.3023 -0.3001
12119SOL    HW240274   9.718   6.206   8.567  1.2163  0.4442  0.5408
12120SOL     OW40275   1.090   7.422   3.890 -0.1751  0.4795 -0.2502
12120SOL    HW140276   1.174   7.464   3.909 -0.2305  0.2441  0.5409
12120SOL    HW240277   1.074   7.364   3.965 -0.4828 -0.3552 -0.9441
12121SOL     OW40278   8.076   4.562   1.800  0.6243 -0.0838  0.2061
12121SOL    HW140279   8.118   4.547   1.716 -0.6226  0.2672 -0.4975
12121SOL    HW240280   8.124   4.506   1.861  1.6483 -0.2151 -0.6950
12122SOL     OW40281   7.075   6.462   7.837  0.0056 -0.0924  0.0834
12122SOL    HW140282   7.128   6.386   7.816  1.0435  0.6196  0.0377
12122SOL    HW240283   7.014   6.470   7.764 -1.0660 -1.6645  0.7414
12123SOL     OW40284   2.558   2.405   0.621  0.3989 -0.5185 -0.1050
12123SOL    HW140285   2.601   2.388   0.705  0.5648 -0.1699 -0.1158
12123SOL    HW240286   2.464   2.402   0.641  0.4331  0.8523  0.3709
12124SOL     OW40287   5.558   1.968   5.423 -0.1127  0.0880 -0.1467
12124SOL    HW140288   5.611   1.894   5.394 -0.0201  0.5772 -1.2867
12124SOL    HW240289   5.616   2.044   5.415 -1.7039  1.1342 -4.3128
12125SOL     OW40290   5.124   5.903   4.628  0.3736  0.6832 -0.1110
12125SOL    HW140291   5.047   5.960   4.626 -0.0542  0.1329  0.4531
12125SOL    HW240292   5.169   5.926   4.708 -0.4875 -0.6368  0.7964
12126SOL     OW40293   3.097   1.100   3.531 -0.6274  0.7517 -0.3213
12126SOL    HW140294   3.096   1.189   3.497 -0.1662  0.5137 -0.9743
12126SOL    HW240295   3.126   1.046   3.457 -0.3362  0.1302  0.2318
12127SOL     OW40296   0.910   4.042   4.348  0.3901  0.1388 -0.9262
12127SOL    HW140297   0.912   4.133   4.318  0.7827  0.3918 -0.1635
12127SOL    HW240298   0.992   4.030   4.396 -0.6546  0.0998  0.9792
12128SOL     OW40299   0.657   5.194   3.495 -0.5420  0.2511 -0.4453
12128SOL    HW140300   0.731   5.139   3.522  1.2317  1.3583 -2.6967
12128SOL    HW240301   0.648   5.258   3.566  1.0358  0.4192 -0.3477
12129SOL     OW40302   0.637   4.873   5.597 -0.4759 -0.5025  0.4252
12129SOL    HW140303   0.711   4.908   5.646  0.9771 -2.0166 -0.6050
12129SOL    HW240304   0.604   4.948   5.547  0.9355  0.0217  0.2323
12130SOL     OW40305   1.550   9.898   2.384  0.0228  0.4297 -0.2899
12130SOL    HW140306   1.465   9.880   2.345 -1.1941  0.6964  2.0789
12130SOL    HW240307   1.581   9.814   2.417  0.7524  0.3207 -1.1884
12131SOL     OW40308   7.444   2.864   9.331 -0.7223  0.0876 -0.2889
12131SOL    HW140309   7.452   2.882   9.237 -1.5413  0.5469 -0.2832
12131SOL    HW240310   7.534   2.870   9.364 -0.0746 -2.3649 -1.4049
12132SOL     OW40311   2.525  10.194  10.088  0.1616 -0.4589  0.1672
12132SOL    HW140312   2.545  10.100  10.094 -0.8574 -0.6010  2.3663
12132SOL    HW240313   2.434  10.196  10.057  0.5811 -0.1190 -1.1057
12133SOL     OW40314   5.310   4.806   6.053 -0.2810  0.2928 -0.2903
12133SOL    HW140315   5.248   4.868   6.013 -0.6502  1.3442  1.7994
12133SOL    HW240316   5.254   4.747   6.104  0.1804 -1.0192 -1.2635
12134SOL     OW40317   7.062   8.111   0.354 -0.0092 -0.0002 -0.4507
12134SOL    HW140318   7.150   8.125   0.320 -0.1905 -0.2552 -1.0422
12134SOL    HW240319   7.012   8.188   0.326 -0.0043  0.0860 -0.2230
12135SOL     OW40320   8.128   5.857   1.263  0.2726 -0.1685  0.3220
12135SOL    HW140321   8.217   5.838   1.293  0.3354  0.9107  0.8370
12135SOL    HW240322   8.100   5.932   1.315 -0.1281  0.8989 -1.3684
12136SOL     OW40323   2.744   9.915   3.330  0.2966  0.5801 -0.2253
12136SOL    HW140324   2.798   9.994   3.329  1.2391 -0.0238  0.5377
12136SOL    HW240325   2.670   9.936   3.387 -0.5228  1.5540 -1.6097
12137SOL     OW40326   7.021   4.195   9.701 -0.1817  0.0203 -0.0546
12137SOL    HW140327   7.086   4.261   9.679 -1.1423  1.0987  0.2595
12137SOL    HW240328   6.998   4.154   9.618 -1.2124  1.6376 -0.6022
12138SOL     OW40329   1.489   2.842   5.043 -0.3645 -0.4158  0.3996
12138SOL    HW140330   1.403   2.820   5.080 -0.4104  0.0283  0.5605
12138SOL    HW240331   1.476   2.838   4.948 -0.6075 -0.1860  0.4223
12139SOL     OW40332   1.994   9.685   6.460  0.2741 -0.1360 -0.1997
12139SOL    HW140333   2.025   9.607   6.506  1.8604 -1.0264 -2.5891
12139SOL    HW240334   2.054   9.755   6.488 -0.1343 -0.1327  0.7021
12140SOL     OW40335   0.332   5.461   7.045  0.2738 -0.4881  0.4444
12140SOL    HW140336   0.421   5.430   7.058  0.5253  0.3157  0.6985
12140SOL    HW240337   0.332   5.551   7.079 -0.2010  0.1147 -1.0527
12141SOL     OW40338   7.717   5.218   6.699 -0.1807 -0.2392  0.4990
12141SOL    HW140339   7.676   5.136   6.729 -0.9573  0.4251  1.3001
12141SOL    HW240340   7.708   5.215   6.604 -3.0611  0.3234  0.6702
12142SOL     OW40341   6.538   5.153   0.577 -0.1769 -0.8943 -0.1245
12142SOL    HW140342   6.534   5.145   0.672  0.5840  0.7412  0.0777
12142SOL    HW240343   6.455   5.117   0.546 -0.2188 -1.9238  1.0983
12143SOL     OW40344   2.850   9.558   1.592 -0.6513  0.0064  0.4584
12143SOL    HW140345   2.765   9.547   1.548 -0.7874 -2.5990  1.1742
12143SOL    HW240346   2.901   9.482   1.565  0.3416 -0.0986  2.4314
12144SOL     OW40347   5.299   1.247   5.139  0.6974  0.2992 -0.1026
12144SOL    HW140348   5.347   1.220   5.061 -0.0726  2.1263 -1.2614
12144SOL    HW240349   5.207   1.232   5.117  0.5457 -2.7916  1.9462
12145SOL     OW40350   3.822   5.488   2.362 -0.0488 -0.3749 -0.4469
12145SOL    HW140351   3.798   5.484   2.269 -1.0423  1.4726 -0.3133
12145SOL    HW240352   3.742   5.516   2.406  0.9504  0.7401  0.7239
12146SOL     OW40353   6.564   2.201   2.806  0.2793 -0.0712 -0.1872
12146SOL    HW140354   6.478   2.218   2.769 -0.5039  0.6914  1.8719
12146SOL    HW240355   6.614   2.281   2.792 -0.4114  0.6680  1.3981
12147SOL     OW40356   4.968   7.196   2.119 -0.0394  0.3656  0.3127
12147SOL    HW140357   4.994   7.283   2.088 -1.0096  0.1003 -1.3982
12147SOL    HW240358   4.882   7.181   2.079  0.2943 -1.5499  0.2135
12148SOL     OW40359   8.578   7.885   3.030 -0.1784 -0.4100  0.0310
12148SOL    HW140360   8.622   7.937   3.097  1.2656 -1.2755 -0.1850
12148SOL    HW240361   8.590   7.935   2.949 -0.0799 -0.3583  0.0773
12149SOL     OW40362   5.196   0.771   3.866 -0.0121  0.0681  0.2168
12149SOL    HW140363   5.262   0.759   3.934 -0.6388 -0.2669  0.7764
12149SOL    HW240364   5.117   0.800   3.913  0.7600  4.5087 -0.7926
12150SOL     OW40365   7.277   3.136   7.057 -0.0841 -0.0758 -0.1086
12150SOL    HW140366   7.288   3.094   7.143 -0.0817  1.1062  0.4946
12150SOL    HW240367   7.271   3.229   7.077  0.3367  0.2568 -1.4392
12151SOL     OW40368   8.285   6.640   2.873  0.4554 -0.1991  0.3464
12151SOL    HW140369   8.244   6.582   2.937 -0.9415  1.0169  0.6005
12151SOL    HW240370   8.270   6.597   2.789 -0.4244 -0.3112  0.5460
12152SOL     OW40371   9.280   9.219   5.779 -0.1675 -0.1901 -0.4415
12152SOL    HW140372   9.272   9.291   5.717 -2.7896 -0.7247 -0.8413
12152SOL    HW240373   9.265   9.259   5.865  2.5213  0.3802 -0.1426
12153SOL     OW40374   3.892   2.091   4.513 -0.1078  0.4342  0.0237
12153SOL    HW140375   3.864   2.018   4.569 -1.3656 -0.8043 -2.0655
12153SOL    HW240376   3.842   2.166   4.545 -0.7688 -0.2259  0.5772
12154SOL     OW40377   3.782   1.522   3.766  0.3109 -0.0055 -0.5543
12154SOL    HW140378   3.857   1.582   3.768 -0.6503  1.2691 -1.1012
12154SOL    HW240379   3.796   1.464   3.841  1.7985  0.2375 -0.6077
12155SOL     OW40380   9.839   6.664   0.806 -0.3054  0.1657  0.1843
12155SOL    HW140381   9.819   6.588   0.752 -0.5036  1.9383 -2.4349
12155SOL    HW240382   9.793   6.649   0.888  0.8313 -3.1355  0.3366
12156SOL     OW40383   6.643   2.430   5.285 -0.1396  0.2181  0.1459
12156SOL    HW140384   6.611   2.340   5.295  0.7639 -0.1463 -0.1514
12156SOL    HW240385   6.602   2.462   5.204  1.7304 -0.9203 -1.3090
12157SOL     OW40386   7.265   8.098   9.306 -0.1021 -0.0837  0.4005
12157SOL    HW140387   7.228   8.022   9.261 -0.3889 -0.4301  1.1948
12157SOL    HW240388   7.189   8.152   9.328  0.0241  0.0358  0.5491
12158SOL     OW40389   1.364   4.695   5.658  0.4084  0.2560 -0.2213
12158SOL    HW140390   1.455   4.665   5.666 -0.1721 -1.9718 -1.2286
12158SOL    HW240391   1.355   4.761   5.726  2.7007  0.3127  0.1034
12159SOL     OW40392   7.913   0.675   7.432  0.5033  0.1337 -0.0311
12159SOL    HW140393   7.916   0.635   7.519  0.6829 -0.4814 -0.3157
12159SOL    HW240394   7.952   0.761   7.445 -1.1115  0.7714  0.8623
12160SOL     OW40395   9.376   7.579   5.188 -0.3486  0.7860 -0.1027
12160SOL    HW140396   9.434   7.642   5.146 -1.1693  0.8997 -1.1047
12160SOL    HW240397   9.394   7.588   5.282  1.8603  0.2037 -0.3984
12161SOL     OW40398  10.188   2.873   3.146  0.1444  0.6432 -0.1695
12161SOL    HW140399  10.114   2.814   3.159  0.2222  0.9928  2.3300
12161SOL    HW240400  10.239   2.833   3.076 -1.6299 -0.3628 -0.9450
12162SOL     OW40401   4.927   2.808   0.369 -0.1292  0.0479 -0.3510
12162SOL    HW140402   4.992   2.749   0.332 -0.5101 -1.3933  1.1209
12162SOL    HW240403   4.977   2.867   0.426 -0.1855 -2.7798  2.9570
12163SOL     OW40404   9.667   6.804   4.896  0.5559  0.2177 -0.0855
12163SOL    HW140405   9.696   6.839   4.980  1.5018 -1.3218  0.2533
12163SOL    HW240406   9.607   6.734   4.918 -1.8675  1.9309 -0.7710
12164SOL     OW40407   1.678   2.494   0.947 -0.7851  0.1653 -0.1402
12164SOL    HW140408   1.712   2.432   0.883  2.0577  2.6922 -1.2929
12164SOL    HW240409   1.621   2.552   0.897  0.0232  1.0693 -0.0390
12165SOL     OW40410   4.923   5.979   1.179 -0.4628  0.0624 -0.0715
12165SOL    HW140411   4.960   5.929   1.252 -2.1530 -1.3662 -0.1200
12165SOL    HW240412   4.994   6.037   1.151  0.6872 -0.3698  1.7748
12166SOL     OW40413   5.486   3.381  10.113 -0.0725 -0.5128 -0.1486
12166SOL    HW140414   5.493   3.475  10.128  0.8615 -0.7311  0.9761
12166SOL    HW240415   5.494   3.370  10.019 -0.6061  0.5552 -0.3304
12167SOL     OW40416   3.003   4.652   0.820 -0.6431 -0.5065  1.0488
12167SOL    HW140417   2.917   4.675   0.854 -0.7153  2.2632 -0.6452
12167SOL    HW240418   2.995   4.561   0.793 -3.1106 -0.2942  0.8198
12168SOL     OW40419   2.788  10.120   2.178  0.2314 -0.0607 -0.5763
12168SOL    HW140420   2.707  10.127   2.228  1.4563  0.5834  1.4364
12168SOL    HW240421   2.856  10.108   2.244  1.5843 -2.8479 -2.3006
12169SOL     OW40422   2.223   2.721   6.136  0.0326  0.2921  0.0714
12169SOL    HW140423   2.290   2.662   6.099 -0.8573  0.1584 -1.4082
12169SOL    HW240424   2.243   2.724   6.229  1.3624 -0.7160 -0.1459
12170SOL     OW40425   1.523   6.308   6.108  0.2505  0.5462  0.5847
12170SOL    HW140426   1.585   6.254   6.060 -0.5423  0.1791 -0.0637
12170SOL    HW240427   1.562   6.319   6.195  1.0078 -0.0305  0.3270
12171SOL     OW40428   6.864   1.772   1.610 -0.7697 -0.1061 -0.3667
12171SOL    HW140429   6.860   1.701   1.674 -2.2519 -0.4645 -0.8233
12171SOL    HW240430   6.880   1.728   1.527 -0.3523  0.2265 -0.4678
12172SOL     OW40431   3.624   2.247   7.436  0.1816  0.1347  0.3798
12172SOL    HW140432   3.673   2.268   7.356 -0.6578 -2.7121 -1.0097
12172SOL    HW240433   3.692   2.223   7.500  0.9369  3.4774  1.0341
12173SOL     OW40434   8.243  10.068  10.123 -0.8187 -1.0658  0.1203
12173SOL    HW140435   8.335  10.061  10.150 -0.9941 -0.6045  0.8488
12173SOL    HW240436   8.244  10.046  10.030  0.1734 -0.0560 -0.1234
12174SOL     OW40437   7.934   3.521   7.158 -0.4675 -0.0788 -0.0838
12174SOL    HW140438   7.978   3.518   7.243  0.4188  0.6636 -0.4944
12174SOL    HW240439   7.860   3.461   7.166  1.1603 -2.1240  0.3227
12175SOL     OW40440   3.995   4.040   9.278 -0.1610  0.3889  0.0232
12175SOL    HW140441   4.080   4.050   9.320 -0.0992 -2.5956  0.8261
12175SOL    HW240442   3.968   4.129   9.256  2.4728  1.5377  1.0813
12176SOL     OW40443   7.128   4.318   2.359 -0.4135 -0.0473  0.1108
12176SOL    HW140444   7.059   4.360   2.307 -1.2880 -0.3857  0.9710
12176SOL    HW240445   7.123   4.361   2.444  0.1875 -0.3597  0.3091
12177SOL     OW40446   7.204   3.437   7.170 -0.3420 -0.3953  0.1174
12177SOL    HW140447   7.222   3.489   7.249  2.3643 -0.7945 -0.1319
12177SOL    HW240448   7.127   3.384   7.193 -0.4847  0.5189  1.9598
12178SOL     OW40449   0.266   1.310   4.313  0.0508 -0.0143 -0.5497
12178SOL    HW140450   0.346   1.345   4.274  0.3178  0.2027  0.1630
12178SOL    HW240451   0.226   1.385   4.358  0.3269 -0.4717  0.4993
12179SOL     OW40452   6.879   2.974   5.634 -0.1952  0.0962 -0.1382
12179SOL    HW140453   6.911   2.891   5.598 -1.1374 -1.0114  1.4018
12179SOL    HW240454   6.796   2.990   5.589  0.9872  1.3604 -1.9522
12180SOL     OW40455   6.413   0.401   6.668  0.0587 -0.2004  0.2336
12180SOL    HW140456   6.380   0.395   6.757  1.5940  1.8440  1.0335
12180SOL    HW240457   6.338   0.427   6.615 -0.7480 -0.8937  1.0211
12181SOL     OW40458   5.905   9.449   0.145  0.1110  0.2624 -0.1641
12181SOL    HW140459   5.817   9.420   0.170 -0.1894 -0.3998 -1.8894
12181SOL    HW240460   5.900   9.545   0.147 -0.9064  0.2363 -1.0763
12182SOL     OW40461   8.086   5.622   4.491 -0.3568  0.4580  0.2611
12182SOL    HW140462   8.019   5.689   4.479 -0.6529 -0.1331 -1.6846
12182SOL    HW240463   8.165   5.660   4.452 -0.3585 -0.0332 -0.2402
12183SOL     OW40464   6.927   0.364   1.390  1.0586  0.6128 -0.3973
12183SOL    HW140465   6.995   0.418   1.350  0.8267  1.5179  0.3965
12183SOL    HW240466   6.873   0.334   1.317 -0.6638  3.9912 -0.6518
12184SOL     OW40467   4.834   0.176   0.866  0.0360 -0.1043  0.4370
12184SOL    HW140468   4.782   0.119   0.923 -0.3263 -1.5334 -1.2675
12184SOL    HW240469   4.777   0.193   0.791  0.9298  0.8255 -0.0584
12185SOL     OW40470   9.187   8.721   7.964  0.4896  0.1161 -0.1662
12185SOL    HW140471   9.113   8.697   8.019 -0.7009  0.1587 -1.6789
12185SOL    HW240472   9.261   8.672   7.999  0.1562  1.2755  2.3779
12186SOL     OW40473   0.420   8.903   3.216 -0.2273 -0.3631  0.2058
12186SOL    HW140474   0.357   8.884   3.147  0.4779  0.2165 -0.6100
12186SOL    HW240475   0.464   8.819   3.232 -0.1714 -0.4282 -0.2830
12187SOL     OW40476   8.425   1.086   5.388 -0.4166 -0.1589  0.8755
12187SOL    HW140477   8.335   1.117   5.395 -1.4342 -2.4151 -1.0443
12187SOL    HW240478   8.425   1.000   5.429  1.1881  0.2730  1.8837
12188SOL     OW40479   2.154   5.309   6.164 -0.2143  0.3260 -0.3648
12188SOL    HW140480   2.160   5.396   6.202  0.8462 -0.5310  1.5649
12188SOL    HW240481   2.231   5.262   6.197 -1.7867 -1.9597  0.3748
12189SOL     OW40482   0.792   1.995   7.848  0.4361  0.2782  0.0310
12189SOL    HW140483   0.795   1.900   7.838  0.6329  0.2443  0.4206
12189SOL    HW240484   0.700   2.014   7.867  0.0380  0.3412 -1.7503
12190SOL     OW40485   9.454   9.671   8.630 -0.1562  0.0955  0.2866
12190SOL    HW140486   9.509   9.717   8.694 -1.0258  2.4508 -0.5616
12190SOL    HW240487   9.473   9.715   8.546  0.0760 -2.1275 -0.8966
12191SOL     OW40488   8.026   7.937   3.709 -0.4438  0.0830 -0.7433
12191SOL    HW140489   8.095   7.994   3.675 -0.9284  1.2806  0.2128
12191SOL    HW240490   7.998   7.979   3.791 -1.9057 -0.6854 -0.8179
12192SOL     OW40491   8.245   8.456   4.188 -0.5119 -0.0893 -0.0707
12192SOL    HW140492   8.254   8.451   4.093  1.8413 -0.0147  0.0947
12192SOL    HW240493   8.256   8.365   4.218  0.1363  0.0752  0.2057
12193SOL     OW40494   2.486   6.092   8.191 -0.3997  0.4174  0.1324
12193SOL    HW140495   2.488   6.187   8.185  0.4453  0.5016  1.4606
12193SOL    HW240496   2.487   6.062   8.100 -0.0827  1.6546 -0.2858
12194SOL     OW40497   3.392   2.109   5.204  0.3242  0.3738 -0.4961
12194SOL    HW140498   3.304   2.088   5.236  0.8080 -1.3142 -0.1662
12194SOL    HW240499   3.395   2.204   5.203 -0.5992  0.4885  2.0198
12195SOL     OW40500   4.714   3.185   0.964 -0.2772  0.0844 -0.0710
12195SOL    HW140501   4.650   3.133   0.915 -0.6369  0.7921 -0.3767
12195SOL    HW240502   4.782   3.206   0.900 -0.6437  0.8375 -0.2235
12196SOL     OW40503   2.437   0.341   7.353 -0.0303 -0.1919 -0.2529
12196SOL    HW140504   2.355   0.310   7.313 -0.3893  2.1185 -1.4472
12196SOL    HW240505   2.501   0.274   7.329 -1.1382 -1.0061 -1.0840
12197SOL     OW40506   3.343   1.862   8.369 -0.1165 -0.1259 -0.0362
12197SOL    HW140507   3.360   1.953   8.392  1.2524 -0.6434  1.2054
12197SOL    HW240508   3.248   1.854   8.370 -0.2439  0.7356  2.3302
12198SOL     OW40509   6.739   2.059   9.527 -0.2215 -0.7015  0.5373
12198SOL    HW140510   6.756   1.998   9.455  0.9267  0.5897 -0.3373
12198SOL    HW240511   6.644   2.055   9.540 -0.1178 -3.2777  1.1080
12199SOL     OW40512   5.640   5.239   4.275 -0.2824 -0.4798  0.1515
12199SOL    HW140513   5.629   5.184   4.353 -0.9627 -0.2020  0.2542
12199SOL    HW240514   5.709   5.195   4.225  0.3408 -0.5260  1.0225
12200SOL     OW40515   2.235   8.515   5.907 -0.4576  0.5533 -0.3308
12200SOL    HW140516   2.238   8.610   5.905 -1.0321  0.6063  0.5541
12200SOL    HW240517   2.141   8.494   5.905 -0.3334 -0.1034 -3.1629
12201SOL     OW40518   1.849   9.771   1.657  0.4818  0.0695  0.3703
12201SOL    HW140519   1.887   9.858   1.649  0.6651  0.0385  0.8504
12201SOL    HW240520   1.887   9.736   1.738  2.0548 -1.2674 -0.8716
12202SOL     OW40521   1.334   8.988   5.958  0.4411  0.2821 -0.1604
12202SOL    HW140522   1.239   8.997   5.954  0.6550  3.3556 -0.5320
12202SOL    HW240523   1.348   8.901   5.998 -2.4076 -1.6220 -2.8276
12203SOL     OW40524   1.572   8.487   5.242  0.0584 -0.0934  0.7353
12203SOL    HW140525   1.666   8.492   5.256  0.0505 -0.0405  0.7698
12203SOL    HW240526   1.546   8.402   5.279 -0.0816  0.3655  1.7401
12204SOL     OW40527   9.065   6.269   3.467 -0.2229  0.6548 -0.2878
12204SOL    HW140528   9.109   6.210   3.405 -1.4167  2.3779 -2.9372
12204SOL    HW240529   9.118   6.348   3.468 -0.0369  0.5471  1.2424
12205SOL     OW40530   4.378  10.014   6.151 -0.5452 -0.1173 -0.5001
12205SOL    HW140531   4.316   9.941   6.155  1.0822 -1.5166  0.5154
12205SOL    HW240532   4.370  10.056   6.236 -2.2221  1.6218 -1.4374
12206SOL     OW40533   0.873   4.276   6.664  0.2259 -0.0173  0.2173
12206SOL    HW140534   0.950   4.316   6.705  0.6394 -0.7818  0.2050
12206SOL    HW240535   0.817   4.350   6.641  0.0495  0.4735  2.0150
12207SOL     OW40536   5.919  10.077   8.397  0.5046 -0.4066 -0.5143
12207SOL    HW140537   5.950  10.098   8.485  0.8473 -0.4936 -0.6153
12207SOL    HW240538   5.883   9.988   8.405 -1.6060  0.4409  0.0817
12208SOL     OW40539   9.204   4.570   6.857  0.3082 -0.2396 -0.1447
12208SOL    HW140540   9.247   4.493   6.818 -0.5020 -1.3002  0.9749
12208SOL    HW240541   9.138   4.595   6.794  0.1958 -0.8376 -0.2743
12209SOL     OW40542   1.761   1.311   0.690 -0.1641 -0.2097  0.4559
12209SOL    HW140543   1.706   1.291   0.614  0.3699  0.3461 -0.0867
12209SOL    HW240544   1.743   1.240   0.751  0.8204 -1.7616 -0.9614
12210SOL     OW40545   5.776   4.405   9.021  0.2217 -0.4150 -0.0746
12210SOL    HW140546   5.816   4.486   9.053 -0.6755  0.7186 -1.6798
12210SOL    HW240547   5.685   4.410   9.050  0.4405 -1.4746  0.8684
12211SOL     OW40548   1.518   6.765   2.062 -0.3061  0.2899 -0.0118
12211SOL    HW140549   1.430   6.733   2.039  0.3830 -0.8287 -1.2114
12211SOL    HW240550   1.578   6.701   2.023  1.0895  1.9829 -0.7691
12212SOL     OW40551   7.044   2.256   9.525 -0.1260 -0.0924 -0.1933
12212SOL    HW140552   7.098   2.329   9.556  1.1978 -2.0264  2.4531
12212SOL    HW240553   7.098   2.214   9.458 -0.4465  0.6652 -0.9583
12213SOL     OW40554   0.984   3.753   7.355  0.0085  0.2493 -0.0605
12213SOL    HW140555   0.965   3.666   7.319  2.9350 -1.0856  1.3378
12213SOL    HW240556   1.036   3.796   7.286 -0.3234  0.4050 -0.2171
12214SOL     OW40557   4.955   7.450   4.184  0.6341 -0.2597  0.3390
12214SOL    HW140558   4.994   7.368   4.153 -0.0263 -0.4667  0.0167
12214SOL    HW240559   4.959   7.444   4.279 -0.9608 -1.4740  0.3723
12215SOL     OW40560  10.006  10.062   2.274  0.2672  0.1447 -0.1826
12215SOL    HW140561  10.078  10.039   2.215 -0.3281 -2.4636  0.0008
12215SOL    HW240562  10.050  10.099   2.351  1.2861  0.1801 -0.7556
12216SOL     OW40563   9.398   1.869   1.398  0.5298 -0.1222  0.3635
12216SOL    HW140564   9.349   1.915   1.330  0.8594  1.2604  1.0319
12216SOL    HW240565   9.331   1.822   1.448  0.0073  0.8494  0.5934
12217SOL     OW40566   4.075   7.397  10.041  0.0870  0.0906 -0.0926
12217SOL    HW140567   4.137   7.344  10.090  0.9087 -1.4782 -2.6306
12217SOL    HW240568   4.117   7.483  10.036 -0.6041  0.7030  2.8690
12218SOL     OW40569   2.808   4.322   6.093  0.3154  0.1041  0.0769
12218SOL    HW140570   2.725   4.291   6.129  0.1733 -1.0973 -1.1845
12218SOL    HW240571   2.870   4.317   6.166 -0.4881  0.0214  0.7593
12219SOL     OW40572   7.099   9.204   4.053 -0.5421  0.3586  0.4661
12219SOL    HW140573   7.040   9.129   4.053 -2.0454  1.3823 -2.1858
12219SOL    HW240574   7.067   9.259   4.125 -1.1104 -0.3486  0.7674
12220SOL     OW40575   5.481   8.088   4.407  0.2353 -0.4024  0.0383
12220SOL    HW140576   5.424   8.048   4.342  0.0040 -1.5466  0.9235
12220SOL    HW240577   5.542   8.019   4.433 -1.0263 -0.6784  2.5926
12221SOL     OW40578   2.965   7.106   9.992  0.5277  0.0268 -0.0019
12221SOL    HW140579   2.914   7.066   9.922  0.2055  1.8491 -0.8758
12221SOL    HW240580   3.052   7.119   9.955 -0.3103  3.4028 -1.1563
12222SOL     OW40581   5.642   3.429   5.386  0.2458 -0.1267  0.0743
12222SOL    HW140582   5.719   3.391   5.429  0.4146  0.5742  0.4069
12222SOL    HW240583   5.610   3.494   5.448 -0.1495  0.1451 -0.4086
12223SOL     OW40584   9.037   8.201   4.175 -0.3784 -0.2303  0.1149
12223SOL    HW140585   8.970   8.251   4.128 -0.9608 -0.3194  0.8236
12223SOL    HW240586   9.057   8.128   4.117  0.0945  0.5177 -0.6969
12224SOL     OW40587   4.314   1.201   4.304  0.4743  0.4998  0.9601
12224SOL    HW140588   4.276   1.281   4.268 -1.1575  0.1994  1.8992
12224SOL    HW240589   4.388   1.230   4.357  0.4201  1.2905  0.6121
12225SOL     OW40590   8.359   8.271   6.674 -0.3101 -0.0905  0.3003
12225SOL    HW140591   8.443   8.227   6.663  1.2471  2.1282  2.1567
12225SOL    HW240592   8.331   8.250   6.763 -1.6112 -0.5406 -0.1807
12226SOL     OW40593   8.230   0.232   0.633 -0.1372 -0.0981  0.6262
12226SOL    HW140594   8.244   0.154   0.687 -2.1391 -1.0157 -0.0776
12226SOL    HW240595   8.243   0.202   0.544 -0.8785  0.3782  0.3491
12227SOL     OW40596   8.788   0.223   5.377 -0.7323 -0.6970  0.4647
12227SOL    HW140597   8.781   0.197   5.286 -0.8071  0.2812  0.1854
12227SOL    HW240598   8.698   0.221   5.410 -0.5320 -2.9360  1.0876
12228SOL     OW40599   2.945   5.062   2.393 -0.1424 -0.9854  0.1324
12228SOL    HW140600   2.896   5.142   2.415 -1.6014 -2.3944  2.4057
12228SOL    HW240601   3.006   5.051   2.466  1.8422 -0.6906 -1.3850
12229SOL     OW40602   1.706   0.019   4.712 -0.3334  0.4079  0.2550
12229SOL    HW140603   1.768   0.065   4.656 -0.4996  0.3578  0.0296
12229SOL    HW240604   1.749  -0.064   4.733 -0.8513 -0.1938 -0.9559
12230SOL     OW40605   8.166   0.961   7.167 -0.3292  0.0753 -0.0533
12230SOL    HW140606   8.137   0.948   7.077 -0.3822 -0.9196  0.1006
12230SOL    HW240607   8.256   0.927   7.169 -0.1383  0.5733  0.1504
12231SOL     OW40608   8.152   8.122   5.382  0.1929 -0.2011 -0.4392
12231SOL    HW140609   8.156   8.029   5.357 -0.6222 -0.1159 -0.9169
12231SOL    HW240610   8.093   8.125   5.456  0.1583 -0.0512 -0.4724
12232SOL     OW40611   4.314   9.964   9.325 -0.3610  0.2210 -0.5280
12232SOL    HW140612   4.384  10.000   9.270 -1.4586  1.7976 -0.9959
12232SOL    HW240613   4.314   9.870   9.307  1.2313  0.2774 -0.9525
12233SOL     OW40614   0.341   7.413   7.251  0.4572  0.0913  0.0490
12233SOL    HW140615   0.377   7.428   7.339 -0.1034  0.2149  0.2639
12233SOL    HW240616   0.260   7.365   7.267  0.5952 -0.3105 -0.4346
12234SOL     OW40617   4.097   7.968   2.194  0.1567  0.8176  0.6316
12234SOL    HW140618   4.073   8.040   2.253 -2.0229  2.7018 -2.2620
12234SOL    HW240619   4.013   7.927   2.171  1.2882 -2.5525  1.8439
12235SOL     OW40620   0.181   6.357   7.284 -0.0940 -0.1263  0.3643
12235SOL    HW140621   0.261   6.406   7.302 -1.0182  1.0185  1.5334
12235SOL    HW240622   0.134   6.356   7.368 -1.9979  0.5386 -0.6223
12236SOL     OW40623   0.296   2.683   7.241  0.0858 -0.2169 -0.0749
12236SOL    HW140624   0.341   2.623   7.182  0.2132 -0.3117  0.1158
12236SOL    HW240625   0.206   2.653   7.242  0.0896 -0.2321 -0.1989
12237SOL     OW40626   4.274   6.225   1.162  0.1840 -0.4467  0.1264
12237SOL    HW140627   4.178   6.220   1.167  0.2730 -1.1458  2.4327
12237SOL    HW240628   4.296   6.175   1.083 -1.3214 -0.8465 -0.0825
12238SOL     OW40629   0.761   9.353   3.525  0.2517  0.3421  0.7034
12238SOL    HW140630   0.783   9.261   3.541  0.5022  0.2355 -0.1727
12238SOL    HW240631   0.840   9.389   3.484 -0.2987  0.6117 -0.1458
12239SOL     OW40632   6.693   1.027   5.030  0.0779 -0.0820  0.1922
12239SOL    HW140633   6.772   1.036   4.978  0.4705 -1.9280  0.3888
12239SOL    HW240634   6.705   1.088   5.103  1.7103 -0.8904  0.6523
12240SOL     OW40635   7.630   0.065   8.796  0.4017  0.1210 -0.3325
12240SOL    HW140636   7.545   0.107   8.806  0.7115  0.5212  0.7201
12240SOL    HW240637   7.694   0.133   8.816  0.9301 -0.5983  0.4852
12241SOL     OW40638   8.068   1.085   6.676  0.4256  0.2129 -0.2550
12241SOL    HW140639   8.075   1.043   6.762 -1.3249  1.8832  0.7952
12241SOL    HW240640   8.008   1.159   6.690 -0.7844 -0.0724 -3.1511
12242SOL     OW40641   7.748   4.499   9.707 -0.6931 -0.1548 -0.2414
12242SOL    HW140642   7.722   4.415   9.670 -0.0277 -0.3292 -0.3380
12242SOL    HW240643   7.843   4.501   9.696 -0.6170  0.2869  0.4224
12243SOL     OW40644   1.579   9.178   4.564  0.0733 -0.2154  0.1325
12243SOL    HW140645   1.643   9.219   4.505  0.2486  1.2257  1.2820
12243SOL    HW240646   1.495   9.213   4.535  0.1069  0.1058  0.4248
12244SOL     OW40647   1.470   0.533   0.928  0.7450 -0.3263 -0.1983
12244SOL    HW140648   1.542   0.507   0.985  0.2952 -0.8678  0.1294
12244SOL    HW240649   1.391   0.516   0.980  0.3594 -0.2585 -0.7570
12245SOL     OW40650   4.716   5.761   4.359  0.1446 -0.0560  0.4892
12245SOL    HW140651   4.739   5.778   4.450 -0.3570  0.4409  0.5314
12245SOL    HW240652   4.620   5.753   4.360  0.1530 -0.2375  0.0379
12246SOL     OW40653   6.590   0.168   1.411 -0.4806  0.0904 -0.3796
12246SOL    HW140654   6.503   0.150   1.375 -0.8963 -0.5066  0.8509
12246SOL    HW240655   6.593   0.263   1.420 -0.8969  0.1359 -0.6958
12247SOL     OW40656   6.541   8.720   9.799 -0.4156 -0.5238 -0.1575
12247SOL    HW140657   6.600   8.745   9.870 -1.2619 -1.8698  1.0691
12247SOL    HW240658   6.551   8.790   9.734  2.6692 -0.8190 -0.1301
12248SOL     OW40659   0.021   3.700   0.857 -0.3899  0.4573 -0.1163
12248SOL    HW140660  -0.039   3.645   0.909  1.8425 -1.4922  0.5918
12248SOL    HW240661   0.090   3.725   0.919 -0.2055  2.2575 -1.0004
12249SOL     OW40662   3.980   7.123   0.323  0.1056 -0.2711  0.4978
12249SOL    HW140663   3.989   7.212   0.358  0.4443 -0.2785  0.4301
12249SOL    HW240664   3.914   7.131   0.254 -0.1478 -0.1467  0.7512
12250SOL     OW40665   0.286   6.422   1.038  0.9140 -0.0419  0.3744
12250SOL    HW140666   0.285   6.332   1.071 -4.1481 -0.7892 -0.9618
12250SOL    HW240667   0.291   6.413   0.943 -2.5960  0.6464 -0.0240
12251SOL     OW40668   0.085   6.353   7.533 -0.5090  0.0301  0.4496
12251SOL    HW140669   0.001   6.317   7.559 -1.8376  0.9964 -2.0691
12251SOL    HW240670   0.071   6.448   7.529  1.2080  0.3811  1.5170
12252SOL     OW40671   3.736   4.167   5.080 -0.8906 -0.8131 -0.4139
12252SOL    HW140672   3.686   4.241   5.114  0.1705 -0.3377  0.1718
12252SOL    HW240673   3.729   4.100   5.148 -0.3523 -0.5689 -0.1109
12253SOL     OW40674   5.589   8.552   6.101 -0.3207 -0.3521  0.0880
12253SOL    HW140675   5.636   8.469   6.092 -1.8367 -1.1789 -0.3687
12253SOL    HW240676   5.505   8.538   6.058 -0.8476  1.2334  0.5223
12254SOL     OW40677   8.422   7.227   4.874  0.5726  0.2559  0.2203
12254SOL    HW140678   8.347   7.239   4.933 -0.2423 -2.0986 -0.2449
12254SOL    HW240679   8.448   7.316   4.851 -0.3725  1.1984  2.5039
12255SOL     OW40680   7.705   2.963   2.111  0.7586  0.2139 -0.1479
12255SOL    HW140681   7.692   3.020   2.187  1.2615  0.3003 -0.1275
12255SOL    HW240682   7.653   2.885   2.130  1.4003 -0.0404  0.5736
12256SOL     OW40683   6.179   9.406   8.617  0.3252 -0.6095  0.3526
12256SOL    HW140684   6.267   9.406   8.655  0.9983  0.6599 -1.0717
12256SOL    HW240685   6.143   9.320   8.638  1.2661 -0.5606  2.3733
12257SOL     OW40686   8.364   4.522   5.010  0.1073 -0.2335  0.3484
12257SOL    HW140687   8.314   4.573   4.946 -0.2284 -0.0193  0.7767
12257SOL    HW240688   8.414   4.460   4.957 -0.7060 -0.5378 -0.0847
12258SOL     OW40689   3.301   9.574   4.069  0.4811  0.3079  0.3836
12258SOL    HW140690   3.361   9.501   4.086  0.1609  0.2281  1.1929
12258SOL    HW240691   3.358   9.651   4.066  0.4921  0.4722  2.7945
12259SOL     OW40692   0.596   1.593   9.131  0.6300 -0.1831 -0.2857
12259SOL    HW140693   0.682   1.623   9.102  0.3495 -0.5415 -1.5313
12259SOL    HW240694   0.599   1.498   9.123  0.2221 -0.2215 -0.0411
12260SOL     OW40695   0.614   9.546   7.107  0.1304  0.7762 -0.1106
12260SOL    HW140696   0.528   9.519   7.141  0.1947 -0.1173 -0.6488
12260SOL    HW240697   0.628   9.633   7.146 -0.3224  0.2809  1.2254
12261SOL     OW40698   1.773   2.720   3.854 -0.1247 -0.0951  0.5036
12261SOL    HW140699   1.850   2.774   3.872 -0.5233  1.0007 -0.9336
12261SOL    HW240700   1.801   2.660   3.786 -0.7959  1.0164 -0.8008
12262SOL     OW40701   9.437   4.727   4.930  0.4292  0.3970 -0.1034
12262SOL    HW140702   9.445   4.782   4.852 -0.5550 -1.4072 -1.5506
12262SOL    HW240703   9.525   4.724   4.967  1.3092 -0.0786 -2.1269
12263SOL     OW40704   6.289   0.859   7.312  0.1658 -0.4705  0.2131
12263SOL    HW140705   6.339   0.928   7.269  0.1759 -1.2597 -1.0982
12263SOL    HW240706   6.234   0.904   7.375  2.0819  0.4906  1.2904
12264SOL     OW40707   8.682   8.173  10.019 -0.2260 -0.4575  0.2040
12264SOL    HW140708   8.592   8.179   9.987 -0.5062 -1.6693  0.7118
12264SOL    HW240709   8.676   8.198  10.112  0.3136  1.4186 -0.2205
12265SOL     OW40710   2.201   7.000   4.820  0.1893  0.0495 -0.5289
12265SOL    HW140711   2.127   7.060   4.808  1.0283  1.3865  0.6964
12265SOL    HW240712   2.250   7.005   4.738 -0.4904 -0.0328 -0.9462
12266SOL     OW40713   5.706   1.301   7.834  0.3256 -0.1089  0.1509
12266SOL    HW140714   5.625   1.296   7.884 -1.7837  0.9708 -2.8253
12266SOL    HW240715   5.740   1.389   7.852  2.1635 -1.2920  3.0667
12267SOL     OW40716   9.002   5.610   5.777 -0.3492 -0.0288 -0.5191
12267SOL    HW140717   8.913   5.606   5.812 -0.1980  0.7642 -0.0325
12267SOL    HW240718   9.038   5.522   5.794 -0.1650  0.4002  1.6663
12268SOL     OW40719   5.735   7.717   3.110 -0.9717  0.1321 -0.2199
12268SOL    HW140720   5.666   7.697   3.047 -1.0485  1.4956 -0.6048
12268SOL    HW240721   5.695   7.703   3.196 -1.2952 -0.4094 -0.4603
12269SOL     OW40722  10.041   7.917   6.118  0.1877  0.4982 -0.0683
12269SOL    HW140723   9.981   7.954   6.053 -0.1176 -1.2143 -0.8112
12269SOL    HW240724  10.112   7.982   6.124  0.1761  0.7776 -2.0542
12270SOL     OW40725   7.874   8.183   1.428  0.5604 -0.0738 -0.3885
12270SOL    HW140726   7.864   8.105   1.374  1.1433 -0.0563 -0.5216
12270SOL    HW240727   7.914   8.152   1.509  3.3848  0.4370 -1.4647
12271SOL     OW40728   6.353   6.851   7.744  0.0820  0.5993  0.1597
12271SOL    HW140729   6.445   6.846   7.721  0.5692 -0.0740  2.0567
12271SOL    HW240730   6.337   6.944   7.759  1.1006  0.5213  2.0529
12272SOL     OW40731   0.439   9.225   7.023  0.4414 -0.4142 -0.5484
12272SOL    HW140732   0.477   9.137   7.025  1.2228 -0.1604 -2.2809
12272SOL    HW240733   0.510   9.281   6.991 -0.2530  0.7507 -0.1300
12273SOL     OW40734   0.224   0.694   8.441  0.3835 -0.2795  0.7845
12273SOL    HW140735   0.235   0.621   8.379 -1.9382 -0.0100 -0.0804
12273SOL    HW240736   0.276   0.765   8.404 -2.0272  0.3380 -1.8265
12274SOL     OW40737   3.751   8.045   0.251 -0.4645  0.3295 -0.0038
12274SOL    HW140738   3.762   8.035   0.346 -1.1154 -1.0342 -0.0350
12274SOL    HW240739   3.665   8.086   0.242 -0.4208  0.4205 -0.0027
12275SOL     OW40740   1.112  10.178   2.917  0.6408 -0.3470 -0.1130
12275SOL    HW140741   1.087  10.140   2.833 -0.5136 -2.1706  0.9657
12275SOL    HW240742   1.058  10.256   2.926 -0.5925 -1.1661 -0.2682
12276SOL     OW40743   3.420   6.695   4.222 -0.5584  0.1530  0.0313
12276SOL    HW140744   3.381   6.757   4.284 -1.2202  0.6581 -0.8518
12276SOL    HW240745   3.471   6.750   4.163 -0.0831 -0.3009  0.0186
12277SOL     OW40746   8.467   9.106   1.806  0.1015 -0.1994 -0.0658
12277SOL    HW140747   8.372   9.112   1.800  0.2292  1.3613 -1.1742
12277SOL    HW240748   8.493   9.061   1.725  0.3670  0.4188 -0.3307
12278SOL     OW40749   1.189   0.075   9.120 -0.5095  0.1081  0.3857
12278SOL    HW140750   1.233  -0.001   9.158  0.6285  1.1949  1.3133
12278SOL    HW240751   1.203   0.066   9.025 -1.1620 -1.2712  0.3905
12279SOL     OW40752   8.047   9.819   3.485  0.0698  0.7630 -0.1878
12279SOL    HW140753   7.991   9.820   3.563 -0.1805 -0.6394 -0.3283
12279SOL    HW240754   7.997   9.771   3.420  1.3548 -0.3943 -0.3696
12280SOL     OW40755   4.128   8.200   3.233 -0.3428 -0.6768  0.0674
12280SOL    HW140756   4.172   8.116   3.223  0.8566  0.0739 -1.2396
12280SOL    HW240757   4.179   8.246   3.300 -0.7551 -0.8133  0.4838
12281SOL     OW40758   8.778   8.702   0.508 -0.3176 -0.0275  0.0586
12281SOL    HW140759   8.832   8.775   0.540  1.0624 -1.1063  0.2498
12281SOL    HW240760   8.689   8.726   0.535  0.4061  0.4815  2.2585
12282SOL     OW40761   4.387   8.663   3.402  0.8319  0.2069 -0.0076
12282SOL    HW140762   4.357   8.751   3.378  0.3257  0.1115  0.2723
12282SOL    HW240763   4.366   8.655   3.495 -0.8230 -0.8980 -0.4432
12283SOL     OW40764   8.960   3.047   8.804  0.0625 -0.0248  0.5751
12283SOL    HW140765   8.866   3.060   8.791 -0.2698 -2.9875 -1.0520
12283SOL    HW240766   9.000   3.131   8.783 -2.0751  0.6678 -1.1044
12284SOL     OW40767   5.794   7.448   2.792 -0.5859 -0.2230 -0.3871
12284SOL    HW140768   5.725   7.502   2.831 -0.3419  0.1338 -0.4564
12284SOL    HW240769   5.747   7.394   2.727 -0.8337 -0.1294 -0.2885
12285SOL     OW40770   8.656   3.322   9.001  0.3697 -0.2423 -0.8451
12285SOL    HW140771   8.590   3.378   8.960  0.0680 -0.7340 -1.0407
12285SOL    HW240772   8.656   3.243   8.948  1.2883 -0.1556 -0.9829
12286SOL     OW40773   6.386   2.259   4.982  0.7108 -0.0021  0.0455
12286SOL    HW140774   6.413   2.262   5.074  1.6337  1.3009 -0.2458
12286SOL    HW240775   6.326   2.333   4.972 -0.0701 -0.6511 -0.2213
12287SOL     OW40776   2.798   5.005   8.591  0.4527 -0.8070  0.5088
12287SOL    HW140777   2.807   4.934   8.654  0.5876 -1.1859  0.0743
12287SOL    HW240778   2.762   5.078   8.641 -1.6634 -1.8040  0.5646
12288SOL     OW40779   7.988   9.740   0.165 -0.1254 -0.2480  0.0838
12288SOL    HW140780   8.003   9.661   0.217 -0.6838  1.3960  2.9429
12288SOL    HW240781   7.909   9.722   0.115 -0.2577 -1.4787  0.7008
12289SOL     OW40782   7.982   9.326   5.301  0.4102  0.2391  0.2959
12289SOL    HW140783   7.950   9.266   5.234  2.6635 -0.6026 -0.1312
12289SOL    HW240784   8.054   9.373   5.258  1.3805  0.2612  1.8436
12290SOL     OW40785   2.397   4.249   9.604 -0.7813  0.3994  0.0708
12290SOL    HW140786   2.410   4.156   9.621 -1.4161  0.2731 -0.0979
12290SOL    HW240787   2.326   4.252   9.540 -0.7208  0.9973  0.0241
12291SOL     OW40788   2.005   1.691   6.689 -0.2758 -0.0439  0.5512
12291SOL    HW140789   1.968   1.657   6.770 -0.6011 -0.6714  0.1449
12291SOL    HW240790   2.099   1.691   6.703 -0.2252 -1.6729  0.3564
12292SOL     OW40791   3.156   2.513   4.520 -0.0323 -0.2825 -0.0460
12292SOL    HW140792   3.093   2.584   4.529  0.8641  0.7890 -1.7517
12292SOL    HW240793   3.148   2.486   4.429  1.6663 -0.4151 -0.1806
12293SOL     OW40794   9.777   9.579   5.759 -0.4000 -0.3022 -0.5029
12293SOL    HW140795   9.815   9.597   5.844 -2.5811  1.8912  0.1109
12293SOL    HW240796   9.851   9.550   5.705  1.1995 -0.7876  1.8169
12294SOL     OW40797   0.687   2.648   1.110  0.3475 -0.1778  0.2990
12294SOL    HW140798   0.684   2.616   1.019 -1.6243  1.5158 -0.3102
12294SOL    HW240799   0.615   2.602   1.153 -0.2936  0.8291  0.3257
12295SOL     OW40800   0.571   1.414   7.218  0.0534 -0.3970  0.1093
12295SOL    HW140801   0.615   1.459   7.290  0.3245  0.4066 -0.5490
12295SOL    HW240802   0.493   1.376   7.258  0.3951 -0.2983  0.9037
12296SOL     OW40803   5.911   6.075   1.904 -0.0859 -0.2603 -0.3436
12296SOL    HW140804   5.858   6.138   1.856  0.6526  0.7257  0.1039
12296SOL    HW240805   5.978   6.048   1.842  0.5302  0.5930 -0.0789
12297SOL     OW40806   8.356   7.610   4.643  0.9020 -0.0371  0.0993
12297SOL    HW140807   8.336   7.700   4.668 -0.3461  0.1618 -1.5175
12297SOL    HW240808   8.389   7.570   4.724  1.4193  1.8212  0.8695
12298SOL     OW40809   6.885   4.963   3.025  0.0120  0.4387  0.4555
12298SOL    HW140810   6.948   4.971   2.953  0.1218 -0.4909  0.4377
12298SOL    HW240811   6.939   4.960   3.104 -0.0783  0.8554  0.5355
12299SOL     OW40812   3.238   7.696   9.775  0.0781 -0.2684 -0.0894
12299SOL    HW140813   3.222   7.767   9.713 -1.3340 -0.2163  0.2957
12299SOL    HW240814   3.253   7.619   9.721 -2.5698 -0.5412 -0.5905
12300SOL     OW40815   7.417   7.670   9.566  0.9588 -0.5972 -0.5975
12300SOL    HW140816   7.353   7.740   9.570  0.8291 -0.7558  3.1130
12300SOL    HW240817   7.494   7.709   9.525  0.7895  1.6744  1.1108
12301SOL     OW40818   8.511   9.417   5.273 -0.1574 -0.0318  0.3476
12301SOL    HW140819   8.534   9.483   5.339  2.2772 -0.3996 -0.0598
12301SOL    HW240820   8.537   9.334   5.313 -1.4961 -0.5937  0.1072
12302SOL     OW40821   8.722   8.614   9.516  0.0909 -0.0665  0.2115
12302SOL    HW140822   8.665   8.546   9.480 -0.8349 -0.3000  1.9886
12302SOL    HW240823   8.668   8.693   9.516  1.0193  0.6290 -1.4346
12303SOL     OW40824   4.745   1.968   7.494  0.0918 -0.3421 -0.6263
12303SOL    HW140825   4.688   1.947   7.568  0.3602  0.2148 -0.2589
12303SOL    HW240826   4.691   2.019   7.435 -0.3224 -1.3472 -1.1387
12304SOL     OW40827   4.475  10.073   5.794  0.3647  0.3898  0.7172
12304SOL    HW140828   4.516   9.987   5.791  0.5617  0.5027 -0.1074
12304SOL    HW240829   4.399  10.064   5.736  0.5113  0.8305  0.4552
12305SOL     OW40830   8.079   8.090   3.029  0.0773  0.0942  0.0685
12305SOL    HW140831   8.001   8.054   2.985 -0.7353 -0.0145  1.5467
12305SOL    HW240832   8.152   8.063   2.973 -0.9447  0.4039 -1.4992
12306SOL     OW40833   4.582   2.220   7.219 -0.3260 -0.3379  0.1933
12306SOL    HW140834   4.589   2.145   7.159  0.1319 -0.4340  0.3612
12306SOL    HW240835   4.533   2.286   7.169 -1.2739 -0.9686  0.2717
12307SOL     OW40836   7.668   9.109   9.596 -0.6566 -0.1126 -0.1346
12307SOL    HW140837   7.673   9.017   9.573  0.5567 -0.1025 -0.0054
12307SOL    HW240838   7.754   9.129   9.634 -1.0973  0.9235  0.3794
12308SOL     OW40839   7.684   1.697   1.638 -0.1768  0.5171  0.2048
12308SOL    HW140840   7.719   1.621   1.592  0.0857  0.4337  0.5433
12308SOL    HW240841   7.590   1.695   1.620 -0.2859 -0.3232  0.8526
12309SOL     OW40842   0.646   2.865   0.676 -0.0921  0.1362  0.4168
12309SOL    HW140843   0.720   2.886   0.618  0.7889 -0.0417  1.4339
12309SOL    HW240844   0.596   2.946   0.681 -0.3304  0.0842 -0.7770
12310SOL     OW40845   7.837   0.557   5.746  0.1367  0.4740  0.4018
12310SOL    HW140846   7.787   0.523   5.672 -1.0601 -0.4499  1.5745
12310SOL    HW240847   7.796   0.641   5.766  1.0061  1.1330 -0.4709
12311SOL     OW40848   0.600   4.193   1.757 -0.9105 -0.0175  0.3551
12311SOL    HW140849   0.608   4.168   1.849 -0.4213  0.4178  0.4394
12311SOL    HW240850   0.523   4.250   1.753 -0.4098  0.7032  0.6706
12312SOL     OW40851   9.260   2.585   3.046  0.2283  0.0485  0.1048
12312SOL    HW140852   9.192   2.518   3.038  0.8315 -0.5165 -0.4565
12312SOL    HW240853   9.212   2.667   3.061 -0.4880 -0.5841  1.3236
12313SOL     OW40854   1.235   1.944   6.556  0.5913  0.6881 -0.2537
12313SOL    HW140855   1.265   2.016   6.611  0.0884  0.3444  0.4895
12313SOL    HW240856   1.150   1.919   6.593  0.4124  0.2012 -0.9592
12314SOL     OW40857   3.544   5.269   9.833 -0.1992  0.0759 -0.5631
12314SOL    HW140858   3.449   5.270   9.818 -0.3059 -0.1496  0.0592
12314SOL    HW240859   3.563   5.357   9.867 -0.6230 -0.6540  1.7603
12315SOL     OW40860   9.785   9.836   6.623 -0.5291  0.3254  0.0772
12315SOL    HW140861   9.868   9.792   6.639 -0.8574 -0.6505 -0.7766
12315SOL    HW240862   9.807   9.913   6.572  0.0004  0.8948  1.1340
12316SOL     OW40863   1.874   5.003   4.588 -0.0847  0.1875 -0.4267
12316SOL    HW140864   1.806   4.946   4.552 -0.8483  0.2166  0.8689
12316SOL    HW240865   1.889   4.969   4.676  1.7509  0.0740 -0.7594
12317SOL     OW40866   7.119   5.218   2.704  0.1326  0.0618  0.9683
12317SOL    HW140867   7.178   5.281   2.663  0.1310  0.4344  1.5327
12317SOL    HW240868   7.116   5.243   2.796 -0.2178 -0.4923  1.1167
12318SOL     OW40869   6.256   1.733   0.482 -0.2850 -0.2995  0.0310
12318SOL    HW140870   6.335   1.752   0.532 -0.2291  1.1516 -0.5535
12318SOL    HW240871   6.288   1.712   0.394 -0.4680 -1.2533  0.1867
12319SOL     OW40872   5.909   5.452   8.738  0.1982 -0.1339  0.0463
12319SOL    HW140873   5.856   5.372   8.738  1.4650 -1.0172  0.9891
12319SOL    HW240874   5.848   5.521   8.761 -0.8875 -0.8541 -0.5829
12320SOL     OW40875   4.172   4.742   1.786  0.0755  0.1364 -0.7957
12320SOL    HW140876   4.195   4.673   1.724  0.9863  1.9586 -2.5920
12320SOL    HW240877   4.120   4.805   1.735  0.2893  1.3823  0.4436
12321SOL     OW40878   1.824   8.699   5.522  0.7880  0.7105  0.0809
12321SOL    HW140879   1.817   8.718   5.429  0.7125  1.5353  0.2380
12321SOL    HW240880   1.915   8.673   5.535  1.4460  2.8039  0.1182
12322SOL     OW40881   6.659   2.086   4.700 -0.2475 -0.1136 -0.4717
12322SOL    HW140882   6.690   2.176   4.691 -0.2159  0.0443  0.9926
12322SOL    HW240883   6.595   2.089   4.771  0.0294 -1.3145 -0.1465
12323SOL     OW40884   6.070   4.183   2.171 -0.9299  0.8564 -0.0508
12323SOL    HW140885   6.044   4.208   2.260 -0.5470 -1.4210  0.7809
12323SOL    HW240886   5.989   4.192   2.120 -1.4571  1.0683  0.7884
12324SOL     OW40887   9.026   1.259   8.666 -0.2104  0.0315  0.2274
12324SOL    HW140888   9.031   1.232   8.574 -1.4825  1.1131 -0.2031
12324SOL    HW240889   9.116   1.279   8.690  0.1711 -0.4566 -0.7228
12325SOL     OW40890   2.966   2.956   2.318 -0.1770  0.0252 -0.5049
12325SOL    HW140891   2.969   2.867   2.282  1.6151  0.4939 -1.6412
12325SOL    HW240892   3.054   2.990   2.303  0.1809  0.8720  2.8519
12326SOL     OW40893   9.269   7.586   1.271 -0.1963 -0.1017  0.3322
12326SOL    HW140894   9.288   7.678   1.250  0.0428 -0.2066  0.0875
12326SOL    HW240895   9.218   7.555   1.197  3.1260 -1.3278 -1.6637
12327SOL     OW40896   5.804   1.852   2.049  0.0189 -0.1200  0.3785
12327SOL    HW140897   5.863   1.926   2.068 -1.5240  1.6367 -1.2354
12327SOL    HW240898   5.861   1.787   2.008  0.9659  1.3767 -0.8231
12328SOL     OW40899   8.464   0.465   0.689 -0.3453 -0.7006 -0.4902
12328SOL    HW140900   8.467   0.398   0.621 -1.5253 -0.5433 -0.7119
12328SOL    HW240901   8.411   0.425   0.759 -0.6688 -0.1646 -0.4310
12329SOL     OW40902   1.997   2.709   4.239  0.2800 -0.5055  0.1068
12329SOL    HW140903   1.911   2.750   4.238  0.7708  0.5478  0.0134
12329SOL    HW240904   1.981   2.622   4.275 -0.7649 -0.1930  0.4373
12330SOL     OW40905   4.833   0.308   8.770  0.1382 -0.2020  0.0547
12330SOL    HW140906   4.831   0.329   8.863  0.5773  0.3194 -0.0445
12330SOL    HW240907   4.768   0.240   8.759  2.2383 -2.5550  1.2756
12331SOL     OW40908   9.238   5.258   3.269  0.3594  0.5304 -0.0243
12331SOL    HW140909   9.307   5.301   3.321  0.8407  1.3547 -1.2884
12331SOL    HW240910   9.228   5.314   3.192  0.3396 -1.1355 -1.2943
12332SOL     OW40911   4.339   0.584   2.549  0.3064  0.2951 -0.5246
12332SOL    HW140912   4.250   0.586   2.516 -0.2956  1.3411  1.0521
12332SOL    HW240913   4.345   0.503   2.600  0.1861  0.3486 -0.4269
12333SOL     OW40914   1.263   8.994   1.131  0.1842  0.5266 -0.1063
12333SOL    HW140915   1.199   9.029   1.069  1.6249  1.4608 -1.1336
12333SOL    HW240916   1.340   8.977   1.078  0.9062 -0.2904  1.1580
12334SOL     OW40917   3.490   6.872   1.203  0.1804  0.2707  1.2437
12334SOL    HW140918   3.572   6.827   1.183  0.4149  1.6135 -1.1620
12334SOL    HW240919   3.425   6.829   1.148  0.5580  3.1347 -1.7883
12335SOL     OW40920   7.309   2.286   0.614  0.1588 -0.1746  0.4508
12335SOL    HW140921   7.253   2.334   0.675 -1.5791 -1.2886 -0.1918
12335SOL    HW240922   7.342   2.352   0.553  1.2438  0.8240  2.0262
12336SOL     OW40923   2.489   5.155   5.098  0.0464 -0.1318  0.0002
12336SOL    HW140924   2.437   5.185   5.023  1.4668 -0.5843 -1.2149
12336SOL    HW240925   2.469   5.062   5.105 -1.0631  0.1536  1.0414
12337SOL     OW40926   1.519   0.499   0.674  0.3927 -0.2064 -0.1687
12337SOL    HW140927   1.446   0.531   0.622  0.7291  0.1610 -0.4213
12337SOL    HW240928   1.494   0.516   0.765 -0.1725 -0.8003 -0.2055
12338SOL     OW40929   1.616   8.908  10.070  0.0365 -0.3176  0.5641
12338SOL    HW140930   1.712   8.913  10.066 -0.0104  1.0375  0.6555
12338SOL    HW240931   1.587   8.932   9.982 -0.2350  0.5688  0.8800
12339SOL     OW40932   3.659   5.918   1.538  0.2850 -0.0334  0.0546
12339SOL    HW140933   3.676   6.012   1.534  1.4876 -0.2466 -0.2943
12339SOL    HW240934   3.719   5.880   1.473  0.3518 -1.0956  0.7151
12340SOL     OW40935   7.348   9.042   7.055 -0.1055  0.1955  0.0591
12340SOL    HW140936   7.388   9.083   7.132  0.0668 -0.8504  0.5547
12340SOL    HW240937   7.307   9.114   7.007  0.0246  0.9066  0.9892
12341SOL     OW40938   5.810   2.801   2.019  0.0792  0.3517 -0.3494
12341SOL    HW140939   5.757   2.814   2.098 -2.3142  0.6330 -1.9214
12341SOL    HW240940   5.831   2.890   1.990  0.3206  0.2618 -0.4521
12342SOL     OW40941   5.578   7.677   9.089 -0.4482 -0.1278  0.1907
12342SOL    HW140942   5.623   7.650   9.009  0.5796 -1.2645  1.1251
12342SOL    HW240943   5.487   7.689   9.062  0.0090  0.2253 -1.2969
12343SOL     OW40944   6.205   5.978   1.887 -0.5109 -0.1471  0.8053
12343SOL    HW140945   6.286   5.982   1.938  1.1126 -0.2974 -1.6087
12343SOL    HW240946   6.147   5.923   1.939  1.6878 -1.7978  1.6722
12344SOL     OW40947   4.894   5.793   6.849 -0.7204 -0.1607 -0.1101
12344SOL    HW140948   4.916   5.726   6.784  2.1231  0.5359 -0.0163
12344SOL    HW240949   4.874   5.744   6.929 -0.6777 -0.9426 -0.5729
12345SOL     OW40950   8.996   8.249   9.279 -0.3201 -0.8000 -0.1551
12345SOL    HW140951   9.010   8.265   9.186 -0.1680 -1.4578 -0.2476
12345SOL    HW240952   8.975   8.336   9.315 -3.4028 -0.9406 -1.3124
12346SOL     OW40953   9.216   8.229   4.407 -0.4958  0.4339  0.2239
12346SOL    HW140954   9.280   8.293   4.377  0.0916 -0.5752 -0.7708
12346SOL    HW240955   9.153   8.224   4.335  0.2802 -1.1624 -0.3924
12347SOL     OW40956   7.705   4.948   5.709  0.2613  0.3072  0.3309
12347SOL    HW140957   7.791   4.989   5.718  0.2187  0.3585  0.5118
12347SOL    HW240958   7.653   5.012   5.661  0.2532  0.3812  0.4377
12348SOL     OW40959   5.804   0.189   4.171 -0.3018  0.4557 -0.1753
12348SOL    HW140960   5.722   0.180   4.123 -0.6719  0.2957  0.4794
12348SOL    HW240961   5.871   0.198   4.103 -0.6569 -1.0187 -0.7427
12349SOL     OW40962   3.334   1.906   2.304 -0.2782 -0.3285  0.0670
12349SOL    HW140963   3.317   1.998   2.326  1.0417 -0.2735  0.9574
12349SOL    HW240964   3.335   1.904   2.208  0.9083  0.8476  0.0343
12350SOL     OW40965   1.817   7.354   8.811 -0.7946 -0.0239  0.1951
12350SOL    HW140966   1.766   7.318   8.739  0.6452 -0.1183 -0.8185
12350SOL    HW240967   1.907   7.357   8.778 -0.2481  0.8187  1.6582
12351SOL     OW40968   2.599   3.508   8.665  0.0079 -0.0287 -0.6176
12351SOL    HW140969   2.623   3.601   8.659  1.0798 -0.2957 -0.6324
12351SOL    HW240970   2.522   3.500   8.608 -0.0353  0.8250 -0.7022
12352SOL     OW40971   0.517   7.989   9.017  0.2435  0.7608 -0.2770
12352SOL    HW140972   0.602   8.033   9.004  0.4839  0.3513 -0.1264
12352SOL    HW240973   0.472   8.000   8.933  0.2738  1.3396 -0.2276
12353SOL     OW40974   6.307   7.583   4.396 -0.4750  0.7869 -0.2364
12353SOL    HW140975   6.388   7.602   4.445  0.5536  2.1726 -2.3103
12353SOL    HW240976   6.254   7.531   4.456  0.7594  2.2227  2.2545
12354SOL     OW40977   5.353   9.290   9.749  0.9122  0.3065 -0.3731
12354SOL    HW140978   5.265   9.262   9.726  1.0792 -2.2037  1.6422
12354SOL    HW240979   5.398   9.210   9.775  2.9682  1.8479  1.1711
12355SOL     OW40980   3.683   4.008   3.671 -0.1497  0.0553  0.1197
12355SOL    HW140981   3.701   4.102   3.678  0.9203 -0.1986  0.9989
12355SOL    HW240982   3.676   3.977   3.761 -1.3919 -0.5683 -0.1659
12356SOL     OW40983   0.443   6.734   6.066  0.5486 -0.8988 -0.1915
12356SOL    HW140984   0.425   6.779   5.984  1.7088 -0.3966 -0.1825
12356SOL    HW240985   0.513   6.672   6.045  0.4653 -1.1680  0.2979
12357SOL     OW40986   6.593   1.367   4.045  0.2563  0.4307 -0.2375
12357SOL    HW140987   6.570   1.459   4.057 -0.1911  0.2428  0.3938
12357SOL    HW240988   6.688   1.364   4.057  0.1008  0.5928  1.2588
12358SOL     OW40989   0.027   6.271   4.640  0.1316  0.1486 -0.4293
12358SOL    HW140990  -0.059   6.230   4.653  0.2914 -0.4218 -1.1370
12358SOL    HW240991   0.078   6.205   4.593  0.2783  1.2933 -1.9188
12359SOL     OW40992   0.489   2.917   3.501 -0.2133  1.1940  0.2042
12359SOL    HW140993   0.451   3.004   3.489 -2.3817  0.0813 -2.0520
12359SOL    HW240994   0.517   2.891   3.413 -2.6961 -1.5784  0.0545
12360SOL     OW40995   7.403   3.290   5.948 -0.1632  0.0648 -0.9013
12360SOL    HW140996   7.433   3.249   6.029 -0.5628  0.5318 -0.5046
12360SOL    HW240997   7.420   3.225   5.879 -1.6595 -1.1831 -0.1705
12361SOL     OW40998   1.941   9.549   7.547  0.3792  0.0226  0.4265
12361SOL    HW140999   1.856   9.527   7.584  0.2626 -1.3249 -0.5536
12361SOL    HW241000   1.938   9.513   7.458  1.3555  1.4469 -0.2152
12362SOL     OW41001   8.990   3.442   3.664  0.0790 -0.2569  0.7087
12362SOL    HW141002   9.046   3.410   3.593  0.1148  0.4958  0.3913
12362SOL    HW241003   9.041   3.425   3.743 -0.3869 -2.0234  0.6640
12363SOL     OW41004   1.778   3.808   1.983 -0.2143  0.2161 -0.2009
12363SOL    HW141005   1.697   3.786   2.029 -0.6010  1.1459 -0.4004
12363SOL    HW241006   1.793   3.901   2.003  1.4846 -0.2450  0.8390
12364SOL     OW41007   0.023   1.286   1.667 -0.1742 -0.0511  0.6026
12364SOL    HW141008   0.111   1.249   1.670 -0.1283 -0.0071 -0.0615
12364SOL    HW241009  -0.011   1.260   1.582 -0.3541  0.9386  0.3609
12365SOL     OW41010   9.354   6.639   5.730 -0.1860 -0.0353 -0.0226
12365SOL    HW141011   9.422   6.701   5.703  0.2911 -0.7067 -0.4177
12365SOL    HW241012   9.275   6.692   5.738  0.5147  0.8900  1.0913
12366SOL     OW41013   7.335   1.457   8.399  0.5147 -0.1986 -0.5109
12366SOL    HW141014   7.245   1.424   8.397  0.8890 -1.6492  2.0638
12366SOL    HW241015   7.333   1.535   8.343 -2.4746  0.2015 -0.0451
12367SOL     OW41016   7.262   1.356   6.077 -0.6612 -0.4365 -0.1114
12367SOL    HW141017   7.168   1.338   6.076 -0.6450 -0.5409  0.1124
12367SOL    HW241018   7.288   1.345   6.169 -0.6078  0.5146 -0.0059
12368SOL     OW41019   3.128   3.701   9.882  0.2236 -0.5515  0.2867
12368SOL    HW141020   3.127   3.772   9.946 -2.4720 -0.8187  0.6561
12368SOL    HW241021   3.183   3.733   9.811  2.1134  0.3367  2.0513
12369SOL     OW41022   0.176   4.535   9.401  0.3550  0.0041  0.1362
12369SOL    HW141023   0.128   4.506   9.323  1.5969 -1.5667 -0.0887
12369SOL    HW241024   0.249   4.474   9.408 -0.0005 -0.2198  2.8403
12370SOL     OW41025   7.392   3.702   3.438 -0.3527  0.0176  0.3383
12370SOL    HW141026   7.323   3.712   3.372  0.8336 -1.9424 -1.3141
12370SOL    HW241027   7.388   3.610   3.462  0.3604  0.3440  1.7973
12371SOL     OW41028   2.916   3.163   0.014  0.0643  0.1604  0.1495
12371SOL    HW141029   3.003   3.148   0.050 -0.7814  1.4314  3.0568
12371SOL    HW241030   2.901   3.257   0.026 -1.8856 -0.1247  0.3103
12372SOL     OW41031   1.462   6.039   2.765 -0.1718 -0.0211 -0.2616
12372SOL    HW141032   1.381   6.073   2.804  0.4060  0.4984  0.5197
12372SOL    HW241033   1.511   6.003   2.839 -0.2170 -1.4606 -0.9004
12373SOL     OW41034   0.117   9.086   2.376  0.7115 -0.0694  0.1261
12373SOL    HW141035   0.053   9.054   2.439  0.7778 -1.7742 -0.6070
12373SOL    HW241036   0.065   9.107   2.298  0.7131  1.3883  0.4831
12374SOL     OW41037   6.985   6.177   7.029 -0.2652  0.4283  0.3762
12374SOL    HW141038   7.046   6.134   6.969 -1.4657 -0.5564 -0.1670
12374SOL    HW241039   7.013   6.269   7.030  0.4588  0.2325 -0.8072
12375SOL     OW41040   9.643   6.693   6.947  0.3023  0.3684  0.4590
12375SOL    HW141041   9.637   6.787   6.967  3.3794  1.1882 -1.7372
12375SOL    HW241042   9.565   6.675   6.894 -0.2850  1.7117  0.8321
12376SOL     OW41043   2.265   1.785   0.859  0.1008 -0.4330  0.0633
12376SOL    HW141044   2.360   1.775   0.855 -0.0931 -2.2446 -1.0997
12376SOL    HW241045   2.239   1.811   0.770 -0.4618  0.6258  0.5126
12377SOL     OW41046   2.560   5.421   8.353 -0.3895  0.1967  0.4239
12377SOL    HW141047   2.633   5.360   8.342 -0.1945  0.0168  2.3043
12377SOL    HW241048   2.482   5.370   8.329  0.1033  0.6030 -2.2616
12378SOL     OW41049   3.709   6.415   1.283 -0.2730  0.0959  0.3883
12378SOL    HW141050   3.687   6.381   1.196  2.5474 -0.2333 -0.3205
12378SOL    HW241051   3.664   6.358   1.344  0.5329 -1.9830 -0.8519
12379SOL     OW41052   2.735   3.109   7.305  0.4946 -0.5431  0.1825
12379SOL    HW141053   2.805   3.057   7.344  1.3867 -0.1605 -0.8592
12379SOL    HW241054   2.673   3.045   7.271 -0.8543 -0.9051  3.0717
12380SOL     OW41055   6.545   4.059   8.876  0.0357  0.5303 -0.0290
12380SOL    HW141056   6.480   4.124   8.905 -1.2584 -0.3954 -0.7464
12380SOL    HW241057   6.503   3.975   8.892  0.0503 -0.0570 -2.6496
12381SOL     OW41058   7.878   5.497   5.354 -0.2094 -0.5170  0.1144
12381SOL    HW141059   7.814   5.568   5.348 -0.6170 -0.9575 -1.1552
12381SOL    HW241060   7.963   5.541   5.363 -0.3880  0.1727 -1.3148
12382SOL     OW41061   3.245   9.797   0.580 -0.1961 -0.0964 -0.7211
12382SOL    HW141062   3.256   9.794   0.675 -0.5486 -0.3552 -0.6888
12382SOL    HW241063   3.294   9.721   0.548  0.0972  0.1076 -0.7685
12383SOL     OW41064   7.137   3.088   7.948  0.3894 -0.3768 -0.0352
12383SOL    HW141065   7.195   3.118   7.878 -0.8824 -0.0205 -0.9675
12383SOL    HW241066   7.194   3.079   8.024  1.5206  0.7174 -0.7191
12384SOL     OW41067   4.379  10.042   6.664  0.3161 -0.0285 -0.1114
12384SOL    HW141068   4.423   9.963   6.694  0.7445  0.1442 -0.2826
12384SOL    HW241069   4.387  10.039   6.568  1.5208  0.8994 -0.0601
12385SOL     OW41070   6.922   1.965   6.462 -0.3786  0.3747 -0.1025
12385SOL    HW141071   6.997   1.982   6.405 -1.0066  0.0290 -1.0702
12385SOL    HW241072   6.937   1.877   6.496  0.2417  0.7710  0.6754
12386SOL     OW41073   6.737  10.179   8.204  0.1214  0.4806  0.0531
12386SOL    HW141074   6.769  10.122   8.273  2.6295 -0.3300 -1.6456
12386SOL    HW241075   6.714  10.119   8.132 -2.0501  1.3208 -0.0274
12387SOL     OW41076   5.491   6.017   7.211 -0.7627 -0.2026 -0.0774
12387SOL    HW141077   5.575   6.063   7.206 -0.5791 -0.5582 -0.2335
12387SOL    HW241078   5.428   6.080   7.176 -0.5584  0.0524  0.0089
12388SOL     OW41079   7.966   5.189   6.417  0.1214  0.2028  0.0995
12388SOL    HW141080   7.953   5.154   6.329  0.0315  3.0495 -1.1135
12388SOL    HW241081   7.889   5.242   6.434  1.5811  2.3188  0.5060
12389SOL     OW41082   4.618   0.963   7.330  0.3804 -0.1648 -0.0710
12389SOL    HW141083   4.623   0.987   7.237 -2.1272  0.2547 -0.1572
12389SOL    HW241084   4.550   1.020   7.366  1.2614 -0.3622  2.0421
12390SOL     OW41085   8.504   2.263   1.355 -0.5036  0.0932  0.3474
12390SOL    HW141086   8.468   2.329   1.295 -2.4677  0.8614  2.2515
12390SOL    HW241087   8.449   2.186   1.341 -0.9458  0.2642  1.1019
12391SOL     OW41088   1.705   3.886  10.141 -0.0885  0.2298  0.3454
12391SOL    HW141089   1.754   3.805  10.132 -2.9590 -1.5078 -1.2267
12391SOL    HW241090   1.642   3.869  10.212 -1.2363  0.7109 -0.5148
12392SOL     OW41091   6.265   4.837   5.180 -0.1929 -0.5181 -0.4940
12392SOL    HW141092   6.210   4.766   5.211  1.9277 -2.3914 -0.7798
12392SOL    HW241093   6.222   4.868   5.100 -0.5309 -2.3717 -1.0813
12393SOL     OW41094   0.544   4.580   5.924 -0.6201  0.4261 -0.4192
12393SOL    HW141095   0.495   4.527   5.987 -0.8091  1.2848  0.1780
12393SOL    HW241096   0.493   4.575   5.843 -0.3907 -0.6623 -0.5107
12394SOL     OW41097   9.910   3.721   4.271 -0.6880 -0.0601  0.8074
12394SOL    HW141098   9.971   3.795   4.265 -0.4452 -0.1610  1.8967
12394SOL    HW241099   9.952   3.652   4.220 -0.7206  0.4180  0.1186
12395SOL     OW41100   7.055   6.449   7.553 -0.1281 -0.4183 -0.2922
12395SOL    HW141101   6.968   6.416   7.533 -0.5650  0.0309  0.7536
12395SOL    HW241102   7.069   6.521   7.491 -1.4416  0.9507  0.9115
12396SOL     OW41103   4.884   9.477   4.099 -0.1272 -0.2021 -0.2707
12396SOL    HW141104   4.860   9.562   4.136  0.4296  0.5525 -1.5675
12396SOL    HW241105   4.886   9.492   4.004 -2.2775 -2.2445 -0.7254
12397SOL     OW41106   1.519   7.673   3.364 -0.4124 -0.1993 -0.2567
12397SOL    HW141107   1.528   7.747   3.304 -0.0281  0.2852  0.3973
12397SOL    HW241108   1.476   7.605   3.311  3.5151 -1.3272 -2.4122
12398SOL     OW41109   2.625   0.231   9.440 -0.4904 -0.0017 -0.0784
12398SOL    HW141110   2.616   0.136   9.443 -1.1236  0.0672  0.4853
12398SOL    HW241111   2.549   0.261   9.391  1.0992  0.0592 -2.6644
12399SOL     OW41112   6.858   5.943   9.906 -0.2325  0.3555 -0.5109
12399SOL    HW141113   6.848   5.933  10.000  0.6544  0.3507 -0.4027
12399SOL    HW241114   6.864   5.853   9.873 -0.5531  0.3568 -0.5762
12400SOL     OW41115   9.660   1.374   2.483 -0.0535  0.4876  0.3654
12400SOL    HW141116   9.602   1.297   2.483 -0.9877  1.1168  2.2569
12400SOL    HW241117   9.657   1.406   2.573  0.2073  2.8363 -0.3929
12401SOL     OW41118   3.835   3.903   5.700  0.1214 -0.2208 -0.5076
12401SOL    HW141119   3.808   3.993   5.720  1.5986  0.5835 -1.9145
12401SOL    HW241120   3.897   3.912   5.628  1.5702 -2.2260  0.3921
12402SOL     OW41121   7.869   8.295   5.381  0.1894  0.1783  0.4276
12402SOL    HW141122   7.808   8.367   5.401 -0.4042 -0.2067  0.0332
12402SOL    HW241123   7.956   8.333   5.393 -0.1251  0.7290  1.0436
12403SOL     OW41124   1.447   1.212   8.617  0.0328  0.2216  0.1057
12403SOL    HW141125   1.539   1.193   8.637  0.6265  1.1900 -1.5634
12403SOL    HW241126   1.405   1.217   8.703  1.6751  0.4524  0.9377
12404SOL     OW41127   5.132   9.050   2.905 -0.1866  0.2783  0.0598
12404SOL    HW141128   5.100   8.962   2.887 -1.3405  0.6160  0.3651
12404SOL    HW241129   5.189   9.071   2.831 -0.9368 -0.2294 -0.6836
12405SOL     OW41130   2.342   9.417   5.600 -0.2882 -0.9206 -0.3366
12405SOL    HW141131   2.276   9.413   5.530  0.8540  0.9511 -1.5775
12405SOL    HW241132   2.425   9.407   5.555  0.4729  0.2287  0.7580
12406SOL     OW41133   3.182   6.564   4.208  0.3661  0.3320  0.1059
12406SOL    HW141134   3.202   6.514   4.287  0.9459  0.2620 -0.0803
12406SOL    HW241135   3.253   6.629   4.203 -0.0221  0.7540 -0.0051
12407SOL     OW41136   6.764   8.060   1.622  0.2294  0.1418  0.2963
12407SOL    HW141137   6.831   8.098   1.565 -1.7609  0.4122 -2.0458
12407SOL    HW241138   6.785   8.092   1.710  1.6349  2.3747 -0.7784
12408SOL     OW41139   6.322   0.298  10.035  0.1150  0.1752 -0.0206
12408SOL    HW141140   6.368   0.382  10.027  0.2756 -0.0751 -2.3137
12408SOL    HW241141   6.269   0.292   9.956  1.8377 -2.8996 -1.0849
12409SOL     OW41142   2.397   3.691   9.450 -0.3070 -0.0243  0.0749
12409SOL    HW141143   2.485   3.660   9.472  0.0513 -0.3436 -1.6549
12409SOL    HW241144   2.354   3.615   9.411 -0.4003  0.8384 -1.5885
12410SOL     OW41145   9.204   1.776   8.749 -0.0158 -0.4163  0.0651
12410SOL    HW141146   9.114   1.799   8.772  0.1237 -0.2932  0.4817
12410SOL    HW241147   9.208   1.790   8.654 -0.3043  0.0146  0.1129
12411SOL     OW41148   5.953   6.786   6.593  0.6492 -0.9400  0.3183
12411SOL    HW141149   5.902   6.808   6.515  0.4933 -0.3239  0.5909
12411SOL    HW241150   6.040   6.823   6.577 -0.5937  3.5773  2.4007
12412SOL     OW41151   3.044   0.847   2.241 -0.1038  0.3423  0.0598
12412SOL    HW141152   3.042   0.765   2.191 -0.1822  0.3148  0.1083
12412SOL    HW241153   3.056   0.821   2.332 -2.0983  0.2506  0.3536
12413SOL     OW41154   4.799   6.718   5.615 -0.1684 -0.6659 -0.1240
12413SOL    HW141155   4.861   6.649   5.637 -1.2639 -0.9960  2.3521
12413SOL    HW241156   4.713   6.677   5.627 -0.8555  1.2235  2.0864
12414SOL     OW41157   1.763   7.182   4.779  0.0373  0.2801 -0.2222
12414SOL    HW141158   1.719   7.263   4.753 -0.4713  1.0017  2.5272
12414SOL    HW241159   1.808   7.204   4.861 -0.6143 -2.3475  0.9582
12415SOL     OW41160   5.439   1.057   8.886 -0.0472 -0.5705  0.2233
12415SOL    HW141161   5.449   0.966   8.915  2.2671 -0.7014 -0.7373
12415SOL    HW241162   5.482   1.108   8.955 -0.6988 -0.2681  0.4054
12416SOL     OW41163   9.388   3.038   4.421 -0.6459 -0.2768  0.0285
12416SOL    HW141164   9.371   3.099   4.349  0.1907  1.3316  1.1365
12416SOL    HW241165   9.303   2.999   4.440 -0.7344 -1.4192 -2.3846
12417SOL     OW41166   8.852   7.652   9.065 -0.0018  0.8863 -0.6105
12417SOL    HW141167   8.881   7.678   9.153  0.0669 -0.3459 -0.2450
12417SOL    HW241168   8.770   7.699   9.052 -1.4845 -0.9423  1.2840
12418SOL     OW41169   6.041   6.837   4.903  0.5187 -0.1866 -0.4564
12418SOL    HW141170   5.968   6.784   4.871 -0.4528  0.9701 -0.2417
12418SOL    HW241171   6.002   6.897   4.966  1.0564  2.4584 -2.4489
12419SOL     OW41172   6.328   1.191   4.719  0.3761 -0.4425  0.4470
12419SOL    HW141173   6.399   1.198   4.655  1.1456  0.1069  1.3292
12419SOL    HW241174   6.276   1.117   4.689  0.8525 -0.3498 -0.6743
12420SOL     OW41175   9.951   6.347   1.696 -0.3986 -0.1596  0.2498
12420SOL    HW141176   9.985   6.436   1.694  0.0282 -0.3228  0.1885
12420SOL    HW241177  10.028   6.292   1.709 -0.6635 -0.5178  0.3155
12421SOL     OW41178   4.579   7.230   6.464 -0.3785  0.1391 -0.2209
12421SOL    HW141179   4.518   7.159   6.444 -1.4022  1.0199 -0.3153
12421SOL    HW241180   4.596   7.271   6.379 -1.4695  1.2988  0.0802
12422SOL     OW41181   0.954   7.285   8.937 -0.6595 -0.0710  0.1852
12422SOL    HW141182   0.904   7.338   8.999  0.1330  1.0399 -0.0996
12422SOL    HW241183   1.019   7.345   8.902 -0.9243 -0.7434 -1.5428
12423SOL     OW41184   1.012   6.242   1.675  0.3632  0.1386  0.3879
12423SOL    HW141185   1.020   6.270   1.584 -0.6751 -0.2967  0.1518
12423SOL    HW241186   1.069   6.165   1.682 -0.6188 -0.6713 -0.2698
12424SOL     OW41187   2.234   3.492   8.944 -0.5697 -0.0168  0.2430
12424SOL    HW141188   2.217   3.426   8.876  0.4316 -0.9182  0.8330
12424SOL    HW241189   2.189   3.458   9.021 -0.5278  0.2884  0.3996
12425SOL     OW41190   6.762   1.536   3.607  0.1348 -0.2876 -0.1501
12425SOL    HW141191   6.849   1.512   3.575  0.1633  1.7015 -1.7532
12425SOL    HW241192   6.771   1.535   3.703  1.7370 -0.7504 -0.2732
12426SOL     OW41193   2.800   6.750   9.256  0.6538  0.5674  0.4454
12426SOL    HW141194   2.810   6.656   9.267 -2.6935  0.0894  0.4478
12426SOL    HW241195   2.830   6.767   9.167  1.1556 -0.5061  0.3897
12427SOL     OW41196   4.111   4.900   5.117 -0.0770  0.0316  0.4829
12427SOL    HW141197   4.074   4.823   5.159  0.6644 -0.8837 -0.4908
12427SOL    HW241198   4.203   4.877   5.101  0.3693  1.4240  0.8850
12428SOL     OW41199   7.050   4.015   0.636 -0.4405  0.3353  0.4873
12428SOL    HW141200   7.141   4.020   0.667  0.3103  0.8830 -1.6216
12428SOL    HW241201   7.039   3.924   0.611  0.0710  0.5660 -0.6594
12429SOL     OW41202   7.507   6.189   5.163 -0.0381 -0.9770 -0.2523
12429SOL    HW141203   7.507   6.093   5.160 -0.5331 -0.9991  0.3135
12429SOL    HW241204   7.507   6.210   5.257  1.4714 -0.4153 -0.3365
12430SOL     OW41205   5.659   4.544   7.796  1.0781 -0.4715  0.3896
12430SOL    HW141206   5.715   4.470   7.776  0.0930 -1.9247  2.6078
12430SOL    HW241207   5.577   4.525   7.750  1.8946  1.0695 -1.8887
12431SOL     OW41208   0.791   1.091   5.557  0.0794 -0.2805  0.6047
12431SOL    HW141209   0.819   1.030   5.489 -3.3431 -1.5063  0.0577
12431SOL    HW241210   0.832   1.059   5.637  0.8342 -1.3864 -0.1915
12432SOL     OW41211   0.499   0.066   1.608 -0.0124 -0.7642 -0.0603
12432SOL    HW141212   0.525   0.013   1.533  1.4150 -0.4562  0.1921
12432SOL    HW241213   0.579   0.111   1.635 -0.9002  0.5006  0.5546
12433SOL     OW41214   7.570   3.162   4.122 -0.2958 -0.3666  0.3650
12433SOL    HW141215   7.546   3.071   4.137 -1.6865 -0.2730 -1.0556
12433SOL    HW241216   7.526   3.210   4.191 -0.0492 -0.6901  0.7565
12434SOL     OW41217   2.374   3.944   7.425  0.1106  0.0035  0.0893
12434SOL    HW141218   2.302   3.992   7.467  0.8140  1.1999 -0.0551
12434SOL    HW241219   2.334   3.906   7.347 -0.3018  0.9637 -0.1841
12435SOL     OW41220   1.041   0.219   6.455 -0.0698  0.1696  0.4486
12435SOL    HW141221   1.020   0.144   6.400 -0.6758  0.0338  0.8463
12435SOL    HW241222   1.057   0.181   6.542  0.0036  0.4568  0.5625
12436SOL     OW41223   2.257   0.680   9.641  0.0344 -0.0076  0.3305
12436SOL    HW141224   2.175   0.694   9.594 -1.1962 -1.7436  1.8389
12436SOL    HW241225   2.269   0.758   9.694  1.3264  1.8951 -2.4844
12437SOL     OW41226   3.394   7.618   6.798 -0.6225 -0.0891 -0.1015
12437SOL    HW141227   3.307   7.577   6.797 -0.0128 -1.4378 -0.7028
12437SOL    HW241228   3.410   7.645   6.708  0.6646 -2.3726 -0.6522
12438SOL     OW41229   8.946   1.170   3.767 -0.5969 -0.3147 -0.3532
12438SOL    HW141230   8.881   1.207   3.827  0.4191  1.9637 -0.5822
12438SOL    HW241231   8.900   1.159   3.684 -1.3838 -1.3037  0.1918
12439SOL     OW41232   9.272   9.367   8.112  0.0565 -0.2627 -0.1647
12439SOL    HW141233   9.243   9.411   8.032 -1.7735 -1.9325 -0.5042
12439SOL    HW241234   9.346   9.419   8.142 -1.2317  2.3434 -1.1285
12440SOL     OW41235   9.163   3.611   5.235 -0.1981 -0.2590 -0.1324
12440SOL    HW141236   9.172   3.656   5.319 -3.1665  0.8262 -0.3033
12440SOL    HW241237   9.146   3.520   5.258 -0.2763 -0.1041  0.4243
12441SOL     OW41238   6.379   0.098   0.823 -0.0452 -0.8721 -0.1534
12441SOL    HW141239   6.308   0.069   0.880  0.3890 -2.1546 -0.2261
12441SOL    HW241240   6.394   0.024   0.764  0.2127  0.0319 -1.2638
12442SOL     OW41241   6.069   3.417   5.331  0.3093 -0.3065 -0.1785
12442SOL    HW141242   6.160   3.437   5.352  0.2097 -1.0478  1.1017
12442SOL    HW241243   6.024   3.502   5.334  0.8650 -0.0054 -0.3043
12443SOL     OW41244   1.792   7.990   9.873 -0.5567 -0.0665  0.8364
12443SOL    HW141245   1.764   8.044   9.947 -0.7153  0.4548  0.4061
12443SOL    HW241246   1.876   7.954   9.899  1.0522  2.7836 -0.0087
12444SOL     OW41247   4.151   9.401   9.652 -0.2170  0.2263 -0.3781
12444SOL    HW141248   4.103   9.479   9.626  0.6928  1.0760  0.3748
12444SOL    HW241249   4.151   9.404   9.748 -1.2364 -1.3846 -0.2994
12445SOL     OW41250   7.413   4.050   6.664  0.1862  0.3139  0.0743
12445SOL    HW141251   7.507   4.032   6.662  0.4473  1.6291 -0.1164
12445SOL    HW241252   7.403   4.124   6.724 -0.7833 -0.0621  0.4093
12446SOL     OW41253   8.974   1.234   7.147 -0.4004 -0.5275 -0.5553
12446SOL    HW141254   8.885   1.229   7.113 -0.6028 -1.4971  0.0596
12446SOL    HW241255   9.008   1.145   7.139 -0.3810 -0.7570  1.5037
12447SOL     OW41256   5.473   5.939   0.704  0.5003  0.1503 -0.6762
12447SOL    HW141257   5.430   5.905   0.626  0.4485  1.0782 -1.0621
12447SOL    HW241258   5.413   5.919   0.776  0.2586 -0.1375 -0.9552
12448SOL     OW41259   0.017   6.378   3.029  0.5910 -0.0383 -0.4097
12448SOL    HW141260   0.067   6.346   2.954  0.9829  1.2998 -0.7614
12448SOL    HW241261  -0.063   6.415   2.990  1.3576  1.8024 -0.3631
12449SOL     OW41262   5.190   9.938   1.917  0.0990  0.4755 -0.1321
12449SOL    HW141263   5.248   9.996   1.867  0.1650  0.3786 -0.1673
12449SOL    HW241264   5.139   9.892   1.851  0.4959  0.0237 -0.1254
12450SOL     OW41265   5.021   0.206   4.445 -0.2108  0.5401 -0.1667
12450SOL    HW141266   5.037   0.220   4.539 -1.4058 -0.8397  0.2863
12450SOL    HW241267   5.085   0.262   4.401  1.4845  0.0082  1.4725
12451SOL     OW41268   3.193   4.014   8.425  0.0825 -0.1060  0.1096
12451SOL    HW141269   3.230   3.987   8.510 -0.1274 -1.3056 -0.1544
12451SOL    HW241270   3.265   4.003   8.363  0.3758  1.2340  0.1950
12452SOL     OW41271   6.281   5.585   7.677  0.0558 -0.3248  0.1810
12452SOL    HW141272   6.304   5.632   7.757  1.7019  0.2588 -0.5817
12452SOL    HW241273   6.272   5.654   7.611  1.7824 -0.9715 -0.7939
12453SOL     OW41274   2.396   9.747   0.991  0.1249 -0.7482 -0.1347
12453SOL    HW141275   2.367   9.769   1.080  0.7939 -0.5306  0.0305
12453SOL    HW241276   2.329   9.784   0.934  0.1289 -0.1571  0.2417
12454SOL     OW41277   3.067   9.611   9.959 -0.4786 -0.4400 -0.0703
12454SOL    HW141278   3.117   9.529   9.962 -0.5273 -0.5723 -1.8162
12454SOL    HW241279   2.976   9.582   9.947 -0.3005 -0.1689 -2.5823
12455SOL     OW41280   3.784   8.895   3.113 -0.5060  0.0196  0.3811
12455SOL    HW141281   3.795   8.982   3.153 -0.7117 -0.4321  1.4355
12455SOL    HW241282   3.799   8.910   3.020  0.1752  1.0637  0.6418
12456SOL     OW41283   1.679   1.720   5.551 -0.5708  0.0662 -0.2535
12456SOL    HW141284   1.643   1.805   5.575  1.9698  1.0394  0.3677
12456SOL    HW241285   1.772   1.735   5.537 -0.2559 -2.3780 -1.4373
12457SOL     OW41286   5.113   6.475   1.829 -0.4324 -0.4471  0.2418
12457SOL    HW141287   5.145   6.390   1.798  0.4951 -0.4086  1.0702
12457SOL    HW241288   5.044   6.452   1.892 -0.2432 -0.5879  0.4004
12458SOL     OW41289   9.810   3.306   3.794 -0.1081 -0.0867  0.5215
12458SOL    HW141290   9.758   3.325   3.716  0.2055  0.5890  0.4672
12458SOL    HW241291   9.846   3.391   3.820  1.2821 -0.5906  0.3381
12459SOL     OW41292   5.088   4.392   4.360  0.7310  0.7483 -0.2009
12459SOL    HW141293   5.155   4.332   4.392 -0.7663 -1.2388 -0.5600
12459SOL    HW241294   5.061   4.441   4.438  0.4873 -0.6289  0.6211
12460SOL     OW41295   1.632   8.992   5.879 -0.0050  0.0028 -0.5905
12460SOL    HW141296   1.566   9.012   5.945  1.3777 -2.2841  1.6534
12460SOL    HW241297   1.604   8.910   5.840  0.4612  0.0722 -1.0956
12461SOL     OW41298   6.967   3.450   8.648  0.7685  0.1885  0.0455
12461SOL    HW141299   6.919   3.466   8.566  0.6849 -0.0695  0.0429
12461SOL    HW241300   6.963   3.355   8.660  0.6017  0.2480  0.4614
12462SOL     OW41301   3.328   3.858   1.280 -0.1530 -0.1343 -0.1101
12462SOL    HW141302   3.248   3.867   1.229 -0.7713  1.2821  1.0244
12462SOL    HW241303   3.298   3.831   1.367  0.4577  1.3852  0.6114
12463SOL     OW41304   8.301   6.061   7.403 -0.0875 -0.8096  0.5451
12463SOL    HW141305   8.311   6.064   7.308 -1.7959 -2.7871  0.2333
12463SOL    HW241306   8.277   6.151   7.427 -1.8079 -0.7277 -1.2170
12464SOL     OW41307   4.272   1.982   4.677  0.2591  0.1843  0.1656
12464SOL    HW141308   4.296   2.021   4.593  0.7713  0.3244  0.3785
12464SOL    HW241309   4.186   2.020   4.697 -0.6874 -1.1431 -1.1212
12465SOL     OW41310   8.390   7.443   9.877  0.1288  1.2693  0.2395
12465SOL    HW141311   8.446   7.387   9.931 -0.4268 -0.0512 -0.5059
12465SOL    HW241312   8.448   7.476   9.808 -0.0579 -0.3258 -0.7008
12466SOL     OW41313   9.959   7.667  10.103 -0.2034  0.1191 -0.1308
12466SOL    HW141314   9.932   7.585  10.063  0.8849 -0.1826 -0.3018
12466SOL    HW241315   9.983   7.723  10.029  0.0376  0.2173  0.0184
12467SOL     OW41316   3.698   5.845   9.976  0.7992  0.3698  0.0215
12467SOL    HW141317   3.702   5.828   9.882  0.3480  2.0550 -0.3478
12467SOL    HW241318   3.756   5.780  10.015  0.5220 -0.7586 -1.3501
12468SOL     OW41319   2.321   0.067   4.736 -0.3976 -0.1554  0.1281
12468SOL    HW141320   2.320  -0.021   4.698 -0.1740  0.1593 -0.6367
12468SOL    HW241321   2.229   0.093   4.738 -0.4111 -0.1606 -0.2539
12469SOL     OW41322   8.431   3.311   2.326 -0.3302 -0.4058 -0.0365
12469SOL    HW141323   8.413   3.320   2.232 -0.5570 -1.1824 -0.0748
12469SOL    HW241324   8.356   3.264   2.361 -0.5331  0.4144  0.6572
12470SOL     OW41325   8.833   9.418  10.081  1.0517  0.1230 -0.2839
12470SOL    HW141326   8.903   9.450  10.138  1.7690  0.1263 -1.1447
12470SOL    HW241327   8.806   9.335  10.121  1.4685  0.1761  0.1181
12471SOL     OW41328   3.316   0.547   3.733  0.0067 -0.0365  0.1011
12471SOL    HW141329   3.249   0.488   3.766  0.5318  0.2291  1.7450
12471SOL    HW241330   3.373   0.491   3.680 -0.1672 -0.7545  0.6605
12472SOL     OW41331  10.191   9.764   4.705 -0.2702  0.7029  0.1664
12472SOL    HW141332  10.190   9.772   4.609  0.6048  1.4481  0.2015
12472SOL    HW241333  10.122   9.701   4.724 -0.6486  0.7459 -0.9396
12473SOL     OW41334   7.696   1.357   7.469 -0.2051 -0.1343 -0.4005
12473SOL    HW141335   7.787   1.370   7.443 -0.1517 -1.1477 -0.7891
12473SOL    HW241336   7.692   1.265   7.496 -0.7699  0.3073  1.1335
12474SOL     OW41337   6.752   8.342   7.973 -0.1036  0.2302  0.8009
12474SOL    HW141338   6.737   8.424   7.927 -0.6738  0.1629  0.8476
12474SOL    HW241339   6.847   8.336   7.984  0.3358 -1.0097 -2.6351
12475SOL     OW41340   8.715   3.481   4.587 -0.1632 -0.1873 -0.1870
12475SOL    HW141341   8.756   3.551   4.639 -1.3846 -0.6433  1.4861
12475SOL    HW241342   8.687   3.524   4.507 -0.4579  1.1493  0.5978
12476SOL     OW41343   8.508   8.130   2.360  0.1700 -0.1191 -0.3446
12476SOL    HW141344   8.437   8.071   2.337 -1.3614  0.9175  1.4313
12476SOL    HW241345   8.496   8.207   2.304 -0.6544  0.4010  0.5157
12477SOL     OW41346   9.773   7.795   6.762  0.5985  0.0025  0.4284
12477SOL    HW141347   9.723   7.827   6.837 -1.5352 -1.5634 -0.2463
12477SOL    HW241348   9.847   7.857   6.755  0.8000  0.3119  3.6333
12478SOL     OW41349   2.953   0.593   1.703 -0.4639 -0.7313  0.1250
12478SOL    HW141350   2.874   0.617   1.752 -0.1491 -1.2786  0.9281
12478SOL    HW241351   3.020   0.582   1.771  0.6917  1.1445 -0.6333
12479SOL     OW41352  10.174   7.358   9.818  0.6453 -0.1859  0.4276
12479SOL    HW141353  10.238   7.426   9.839  1.0108 -0.8339  1.5271
12479SOL    HW241354  10.226   7.282   9.794  0.2403  0.5493 -3.2395
12480SOL     OW41355   7.052   5.505   3.839  0.1240  0.4334  0.0930
12480SOL    HW141356   7.026   5.516   3.747  0.2655  2.4842  0.2512
12480SOL    HW241357   7.148   5.501   3.836  0.0891 -2.1603 -0.0315
12481SOL     OW41358   5.304   2.714   8.277  0.5015 -0.2185  0.0904
12481SOL    HW141359   5.365   2.723   8.350  0.7907 -1.2955  0.0064
12481SOL    HW241360   5.320   2.792   8.223  1.5008 -0.2667  0.2967
12482SOL     OW41361   1.481   1.315   6.868 -0.1101  0.4523 -0.2548
12482SOL    HW141362   1.433   1.277   6.942  0.6705 -0.3494 -0.1504
12482SOL    HW241363   1.413   1.350   6.811 -0.7455  0.7818  0.6734
12483SOL     OW41364   9.029   4.446   4.355 -0.0007  0.2088  0.2622
12483SOL    HW141365   9.092   4.504   4.398 -0.4835  0.4723  0.6092
12483SOL    HW241366   9.081   4.403   4.286  0.3053  1.2437 -0.1808
12484SOL     OW41367   4.607   5.028   9.311 -0.1300  0.5323  0.0563
12484SOL    HW141368   4.572   4.941   9.295  0.2503  0.3532  0.1695
12484SOL    HW241369   4.637   5.025   9.402 -1.4411  1.2462  0.5234
12485SOL     OW41370   0.693   8.280  10.125  0.4197 -0.0738 -0.3220
12485SOL    HW141371   0.729   8.231  10.051  1.5101 -1.1036  0.8498
12485SOL    HW241372   0.768   8.301  10.180 -0.0341  2.7775 -0.6435
12486SOL     OW41373   5.467   2.017   3.074  0.4582  0.1450 -0.1904
12486SOL    HW141374   5.411   2.005   2.998  1.6253  1.1522 -1.2469
12486SOL    HW241375   5.410   2.058   3.140 -0.5079 -0.5542 -0.5706
12487SOL     OW41376   7.984   6.173   7.286  0.3006  0.0345  0.7518
12487SOL    HW141377   8.064   6.212   7.322 -0.4723 -0.5132  3.2445
12487SOL    HW241378   7.920   6.243   7.289  0.1678 -0.0836  0.6581
12488SOL     OW41379   2.711   0.458   8.048  0.2246  1.0540  0.1818
12488SOL    HW141380   2.732   0.495   8.134  0.2832  0.7973  0.2798
12488SOL    HW241381   2.697   0.534   7.992  1.1682  1.2301  0.1740
12489SOL     OW41382   6.023   5.468   4.967 -0.0884 -0.2516 -0.1802
12489SOL    HW141383   6.115   5.454   4.993 -0.2913 -0.0567  0.6501
12489SOL    HW241384   6.016   5.423   4.882  0.1381 -2.4493  0.8941
12490SOL     OW41385   4.677   9.979   5.505 -0.6678 -0.2060 -0.5750
12490SOL    HW141386   4.760   9.944   5.474 -0.9343 -0.8512 -0.5696
12490SOL    HW241387   4.655  10.047   5.442 -0.1427 -0.0343 -0.5815
12491SOL     OW41388   8.769   5.062   2.429  0.4384 -0.3326 -0.1999
12491SOL    HW141389   8.686   5.100   2.401 -0.6843 -1.1526  1.7497
12491SOL    HW241390   8.775   5.086   2.522  2.6003  0.0308 -0.3961
12492SOL     OW41391   0.002   7.693   6.044 -0.1617 -0.0009 -0.1801
12492SOL    HW141392  -0.066   7.752   6.079 -0.1171 -0.6309  1.0225
12492SOL    HW241393  -0.047   7.620   6.008 -0.1514 -0.1296  0.0653
12493SOL     OW41394   7.882   0.431   9.159 -0.1523 -0.0178  0.2097
12493SOL    HW141395   7.974   0.437   9.133  0.0087 -1.7376  0.2640
12493SOL    HW241396   7.839   0.502   9.111  1.2798  1.1800  0.6401
12494SOL     OW41397   1.849   3.469   1.536 -0.8640 -0.1025 -0.0262
12494SOL    HW141398   1.823   3.379   1.552 -3.1808  0.4290 -0.3383
12494SOL    HW241399   1.918   3.487   1.599  0.4437 -2.3987 -0.7161
12495SOL     OW41400   5.445   2.531   4.330 -0.3656  0.1944  0.0432
12495SOL    HW141401   5.538   2.512   4.320  0.0126  1.0158  1.7904
12495SOL    HW241402   5.404   2.445   4.344  0.0936 -0.1751 -0.8188
12496SOL     OW41403   1.620   1.768   0.185 -0.5144 -0.3356 -0.0711
12496SOL    HW141404   1.535   1.800   0.155 -1.1027 -2.7819 -1.2643
12496SOL    HW241405   1.604   1.739   0.275 -0.6423  0.2046  0.0858
12497SOL     OW41406   7.252   6.404   6.484 -0.2648 -0.2825 -0.0609
12497SOL    HW141407   7.280   6.495   6.483 -0.1070 -0.3335 -0.2131
12497SOL    HW241408   7.165   6.405   6.444 -0.2542 -0.2025 -0.0822
12498SOL     OW41409   5.821   5.803   3.505  0.6343  0.1127 -0.0016
12498SOL    HW141410   5.846   5.848   3.586 -0.1694 -0.2611  0.4670
12498SOL    HW241411   5.858   5.716   3.514 -2.3365 -1.1296  1.6075
12499SOL     OW41412   8.937   2.163   2.731 -0.2923 -0.3182 -0.0290
12499SOL    HW141413   8.886   2.209   2.798 -0.6856 -0.5258 -0.1807
12499SOL    HW241414   8.976   2.233   2.679  0.7566 -0.1388  0.9443
12500SOL     OW41415   5.495   7.206   6.879  0.0159 -0.4606 -0.3315
12500SOL    HW141416   5.430   7.144   6.914  0.8245 -0.3820  1.4288
12500SOL    HW241417   5.526   7.253   6.956  2.6552 -0.9479 -1.0129
12501SOL     OW41418   4.048   2.768   1.446 -0.3652  0.0792  0.4182
12501SOL    HW141419   4.098   2.839   1.406  1.4545 -0.5809  1.4111
12501SOL    HW241420   4.036   2.794   1.537 -0.0521 -0.6789  0.6880
12502SOL     OW41421   8.197   0.671   3.598  0.0365 -0.0648 -0.0121
12502SOL    HW141422   8.189   0.634   3.511 -0.2516 -0.5083  0.1991
12502SOL    HW241423   8.140   0.617   3.653  0.2129  0.2070  0.4491
12503SOL     OW41424   0.525   1.305   8.788  0.2685 -0.0733  0.6256
12503SOL    HW141425   0.503   1.222   8.747  0.2895  0.2993 -0.1715
12503SOL    HW241426   0.457   1.365   8.758  0.0111  0.1076  1.5337
12504SOL     OW41427   2.509   0.926   4.616 -0.1322  0.2771  0.1197
12504SOL    HW141428   2.493   0.880   4.533 -1.0852 -0.2135  0.5432
12504SOL    HW241429   2.436   0.897   4.672 -0.1482  1.5007  0.7466
12505SOL     OW41430   5.249   9.442   6.250  0.1170  0.1450  0.1232
12505SOL    HW141431   5.162   9.453   6.212  0.6931 -0.7094 -1.5244
12505SOL    HW241432   5.233   9.405   6.337 -1.1260 -0.5575 -0.3871
12506SOL     OW41433   5.097   9.906   7.256  0.0481 -0.0873 -0.0345
12506SOL    HW141434   5.182   9.878   7.290  0.5747  1.0079 -0.4069
12506SOL    HW241435   5.049   9.935   7.334  0.0736 -0.5147  0.1484
12507SOL     OW41436   3.034   8.232   5.600 -0.4392  0.5068  0.1157
12507SOL    HW141437   3.087   8.154   5.584  1.5824  1.6891  0.6095
12507SOL    HW241438   2.977   8.240   5.524 -0.1869 -1.0373 -0.2596
12508SOL     OW41439   4.347   6.988   8.422  0.2255  0.1839  0.1285
12508SOL    HW141440   4.375   7.007   8.512  0.0328 -0.0873  0.2479
12508SOL    HW241441   4.361   6.894   8.412  1.5565  0.4342 -0.5934
12509SOL     OW41442   7.021   8.984   5.824 -0.2517 -0.0969  0.4156
12509SOL    HW141443   7.094   8.924   5.839  0.2574  0.5121  0.4246
12509SOL    HW241444   7.038   9.020   5.737 -1.7479 -1.6113 -0.5722
12510SOL     OW41445   0.245   0.196   7.049 -0.3292 -0.0283 -0.3406
12510SOL    HW141446   0.290   0.197   6.964  1.4385 -2.8116  0.4329
12510SOL    HW241447   0.307   0.236   7.110 -0.5576 -0.2943  0.0689
12511SOL     OW41448   7.352   6.998  10.000  0.3379  0.0347  0.5754
12511SOL    HW141449   7.435   7.021   9.957 -0.0723 -0.1116 -0.3132
12511SOL    HW241450   7.288   7.059   9.964 -0.2010 -0.6835  0.2922
12512SOL     OW41451   3.237   6.067   7.509 -0.0617  0.0172  0.2553
12512SOL    HW141452   3.266   6.010   7.437  1.9336 -0.3623  1.2693
12512SOL    HW241453   3.311   6.126   7.524 -0.9886  1.0144  1.0917
12513SOL     OW41454   7.959   3.833   7.336  0.1302  0.0869  0.1488
12513SOL    HW141455   8.042   3.785   7.329  0.4125  0.4254  1.0200
12513SOL    HW241456   7.926   3.838   7.246  0.3045 -1.3580 -0.0251
12514SOL     OW41457   3.984   7.883   4.409  0.3077 -0.8220 -0.4040
12514SOL    HW141458   4.076   7.871   4.434  0.5137  1.9136  0.3833
12514SOL    HW241459   3.988   7.930   4.325 -0.3788 -0.8395 -0.4530
12515SOL     OW41460   9.459   7.133   8.507 -0.1630  0.0714 -0.0668
12515SOL    HW141461   9.485   7.211   8.458  0.7919  0.3056  0.7705
12515SOL    HW241462   9.496   7.147   8.595 -1.7478 -0.3781  0.6998
12516SOL     OW41463   4.812   6.956   5.766 -0.2343 -0.2412  0.0449
12516SOL    HW141464   4.723   6.963   5.801 -1.0156  1.4729 -2.0232
12516SOL    HW241465   4.809   6.878   5.710 -1.1408  0.9057 -1.6181
12517SOL     OW41466   5.353   9.542   2.846  0.4066 -0.6342 -0.2252
12517SOL    HW141467   5.380   9.605   2.912 -0.5015 -0.5880  0.1150
12517SOL    HW241468   5.261   9.525   2.865  0.2000 -0.8164 -1.3175
12518SOL     OW41469   3.001   9.115   6.996 -0.3594 -0.2410 -0.3074
12518SOL    HW141470   2.979   9.151   6.910 -0.5687  1.1955  0.3220
12518SOL    HW241471   3.032   9.190   7.047  0.9204 -1.2846  0.5052
12519SOL     OW41472   7.191   0.045   6.366  0.0872 -0.5307  0.1438
12519SOL    HW141473   7.150  -0.036   6.396 -0.0571 -0.0928  1.1887
12519SOL    HW241474   7.147   0.114   6.416 -0.0179  0.2257 -0.9619
12520SOL     OW41475   1.883   9.304   2.346 -0.1736  0.2741  0.9959
12520SOL    HW141476   1.801   9.274   2.387 -0.8850 -0.1562 -0.6713
12520SOL    HW241477   1.855   9.372   2.285  0.6853 -0.0801  0.1886
12521SOL     OW41478   5.683   0.013   1.825  0.1334  0.0824 -0.1508
12521SOL    HW141479   5.594   0.021   1.859  0.6386 -1.1893  1.6094
12521SOL    HW241480   5.722   0.099   1.842 -0.0131 -0.1329  1.4600
12522SOL     OW41481   2.274   5.464   4.937 -0.2951 -0.7299 -0.0896
12522SOL    HW141482   2.266   5.444   4.844 -0.9231 -0.2945 -0.1349
12522SOL    HW241483   2.202   5.415   4.978 -1.4515  0.8696 -0.1228
12523SOL     OW41484   5.330   9.934   5.143 -0.3070 -0.3632 -0.1056
12523SOL    HW141485   5.271   9.988   5.195 -0.2672 -1.4074  1.0732
12523SOL    HW241486   5.284   9.850   5.133 -0.0798 -0.3654 -1.3161
12524SOL     OW41487   5.388   5.473   1.381 -0.6238 -0.0292  0.1388
12524SOL    HW141488   5.407   5.395   1.433 -0.1403 -0.0542 -0.0731
12524SOL    HW241489   5.314   5.449   1.326 -0.3825 -0.3849 -0.0300
12525SOL     OW41490   0.270   3.073   0.698 -0.3480 -0.1683 -0.2761
12525SOL    HW141491   0.257   2.981   0.723  0.1062 -0.0234  0.5286
12525SOL    HW241492   0.182   3.111   0.700 -0.2894 -0.0369  1.6744
12526SOL     OW41493   7.366  10.064   5.943 -0.0023  0.1407  0.0877
12526SOL    HW141494   7.455  10.047   5.913  0.0486 -0.4065  0.5426
12526SOL    HW241495   7.375  10.095   6.033 -0.2603  0.1743  0.1044
12527SOL     OW41496   0.260   3.336   3.848 -0.2556  0.0325 -0.4334
12527SOL    HW141497   0.211   3.301   3.923  0.4197 -0.2218 -0.1024
12527SOL    HW241498   0.297   3.419   3.880  1.0619 -0.6718 -0.0650
12528SOL     OW41499   8.142   0.492   0.510 -0.0669 -0.4499  0.1274
12528SOL    HW141500   8.197   0.425   0.551 -1.2929 -0.7558  1.3445
12528SOL    HW241501   8.204   0.548   0.463  1.1323 -1.5853  0.2981
12529SOL     OW41502   8.981   5.233   5.658  0.8505 -0.0120  0.0474
12529SOL    HW141503   8.926   5.155   5.661 -0.3457  0.7873  3.0143
12529SOL    HW241504   8.942   5.288   5.590 -1.8314  0.2983  1.7021
12530SOL     OW41505   5.417   7.304   6.167 -0.4090 -0.5518 -0.2365
12530SOL    HW141506   5.400   7.214   6.195  2.2648 -1.4752 -1.2770
12530SOL    HW241507   5.482   7.336   6.229  0.5831 -0.2855 -1.3860
12531SOL     OW41508   1.859   2.571   6.153  0.4743  0.6787 -0.1311
12531SOL    HW141509   1.877   2.549   6.062 -0.1836 -0.6761  0.0495
12531SOL    HW241510   1.945   2.587   6.191  0.7535  1.2793 -0.9847
12532SOL     OW41511   3.568   1.032   2.203  0.3323 -0.5942 -0.0190
12532SOL    HW141512   3.581   1.119   2.164  1.4139 -0.5780  0.3445
12532SOL    HW241513   3.522   0.982   2.135 -1.3018  0.5685  0.1791
12533SOL     OW41514   8.372   7.278   0.184 -0.0650 -0.0196  0.0469
12533SOL    HW141515   8.397   7.187   0.167  0.7652  0.0656  0.7456
12533SOL    HW241516   8.431   7.307   0.254  0.9234  1.6073 -1.3587
12534SOL     OW41517   8.988   7.346   4.697 -0.5093 -0.1777 -0.4040
12534SOL    HW141518   9.009   7.268   4.748  0.2216  0.7678  0.8090
12534SOL    HW241519   9.062   7.357   4.638 -0.0854  0.1974  0.1890
12535SOL     OW41520   4.435   8.549   4.105  0.1182  0.4312 -0.3051
12535SOL    HW141521   4.365   8.515   4.048  0.5262  0.3700 -0.7700
12535SOL    HW241522   4.388   8.601   4.171 -0.6250 -1.6872  0.9547
12536SOL     OW41523   4.664   2.051   8.227  0.0662  0.2750  0.1343
12536SOL    HW141524   4.597   2.084   8.167 -0.3825  1.3709  1.1982
12536SOL    HW241525   4.626   1.971   8.263 -0.4530  0.6098  0.3458
12537SOL     OW41526   1.639   3.009   4.531 -0.3832 -0.1443 -0.3879
12537SOL    HW141527   1.684   2.960   4.599 -0.4883 -0.7988 -0.7759
12537SOL    HW241528   1.708   3.033   4.469 -0.2994  0.3844 -0.0957
12538SOL     OW41529   0.103   4.901   5.232  0.0760 -0.5411 -0.2003
12538SOL    HW141530   0.032   4.842   5.209  0.0707 -0.8598  0.5992
12538SOL    HW241531   0.075   4.986   5.200  0.1107 -0.9701 -1.4298
12539SOL     OW41532   8.018   3.456   3.471 -0.0227  0.3629  0.1785
12539SOL    HW141533   7.963   3.461   3.550  0.6778 -1.0421  0.7920
12539SOL    HW241534   8.105   3.484   3.501 -0.1040  1.3491 -0.4859
12540SOL     OW41535   5.759   3.469   6.874  0.0982  0.3073 -0.0876
12540SOL    HW141536   5.715   3.387   6.850  1.4390 -0.7438  0.8686
12540SOL    HW241537   5.773   3.515   6.792  2.0656 -1.8768 -1.0836
12541SOL     OW41538   4.045   1.841   2.260 -0.1693  0.5876 -0.2329
12541SOL    HW141539   3.961   1.803   2.233  0.2342 -0.4076 -0.1207
12541SOL    HW241540   4.050   1.821   2.354  1.1901 -1.3459 -0.6644
12542SOL     OW41541   7.911   3.493   6.869  0.1461 -0.7945 -0.4752
12542SOL    HW141542   7.818   3.473   6.873  0.0026 -0.2772 -1.0037
12542SOL    HW241543   7.933   3.526   6.956 -0.2822 -0.4361 -0.4998
12543SOL     OW41544   2.398   3.338   9.510 -0.0938  0.3125 -0.2977
12543SOL    HW141545   2.335   3.350   9.581  0.0213  0.8777 -0.2905
12543SOL    HW241546   2.461   3.409   9.521  1.4585 -1.1280  0.6531
12544SOL     OW41547   6.846   2.639   2.122 -0.2972 -0.3133 -0.5337
12544SOL    HW141548   6.774   2.677   2.172 -1.0237 -2.2796 -0.0090
12544SOL    HW241549   6.860   2.553   2.162  2.4275  0.0326 -0.5400
12545SOL     OW41550   8.637   8.063   5.101  0.5372 -0.5589 -0.1130
12545SOL    HW141551   8.619   8.155   5.121  1.4617 -0.0700 -1.4151
12545SOL    HW241552   8.551   8.022   5.096  0.1256  0.1820  0.6920
12546SOL     OW41553   1.771   4.874   5.693 -0.6150 -0.0251 -0.1495
12546SOL    HW141554   1.682   4.890   5.724 -0.9247 -2.7524  0.6071
12546SOL    HW241555   1.825   4.880   5.771 -0.3709  0.0191 -0.3216
12547SOL     OW41556   2.621   6.318   3.355 -0.5027 -0.7036  0.3030
12547SOL    HW141557   2.563   6.394   3.359  0.1502 -0.2343  1.4757
12547SOL    HW241558   2.709   6.356   3.348 -0.2398 -1.3701 -0.0470
12548SOL     OW41559   4.214   1.505   5.055  0.3723 -0.0515 -0.5066
12548SOL    HW141560   4.304   1.488   5.082  0.1053  1.3853  1.4608
12548SOL    HW241561   4.222   1.543   4.968  1.7286  0.6420 -0.1048
12549SOL     OW41562   8.575   0.796   4.885 -0.2781 -0.0459  0.2447
12549SOL    HW141563   8.482   0.816   4.876 -0.3221 -0.0383  0.7065
12549SOL    HW241564   8.599   0.830   4.971  0.5858  1.5977 -0.5900
12550SOL     OW41565   1.177   4.158   0.510  0.1015  0.1143 -0.2195
12550SOL    HW141566   1.190   4.233   0.451 -1.8453  0.0653 -0.8003
12550SOL    HW241567   1.083   4.160   0.530  0.4482 -0.7486  1.7393
12551SOL     OW41568   2.524   9.219   8.462  0.0622  0.6733 -0.2438
12551SOL    HW141569   2.511   9.309   8.432 -1.8358  0.8564  0.9758
12551SOL    HW241570   2.464   9.166   8.408  1.1445  0.1106 -0.9380
12552SOL     OW41571   1.353   0.847   7.316  0.2545  0.3662 -0.3131
12552SOL    HW141572   1.416   0.776   7.329  0.7952  0.6989 -1.0133
12552SOL    HW241573   1.396   0.905   7.253 -0.6563  0.7289 -0.6152
12553SOL     OW41574   3.670   1.893   2.683  0.4609  0.2120  0.1144
12553SOL    HW141575   3.695   1.824   2.622  0.2826  0.9262 -0.7900
12553SOL    HW241576   3.655   1.970   2.628 -1.8867  0.3324  0.8049
12554SOL     OW41577   6.544   4.244   2.419  0.5718  0.8345  0.5659
12554SOL    HW141578   6.519   4.243   2.327  2.0427 -2.4717  0.0599
12554SOL    HW241579   6.627   4.292   2.420  1.3599 -0.4805 -0.1293
12555SOL     OW41580   3.493   9.807   8.593  0.0662  0.8179  0.1293
12555SOL    HW141581   3.415   9.771   8.633  0.1947 -1.8001 -1.7022
12555SOL    HW241582   3.481   9.793   8.499  3.3198 -1.2277 -0.1677
12556SOL     OW41583   3.248   9.450   2.269 -0.0314 -0.3143  0.0171
12556SOL    HW141584   3.323   9.450   2.210 -0.7606  0.2746 -0.9478
12556SOL    HW241585   3.206   9.534   2.253 -1.4928 -1.0660 -0.2574
12557SOL     OW41586   3.187   1.696   3.440  0.2165 -0.5912  0.0528
12557SOL    HW141587   3.221   1.632   3.378 -0.7800  0.3093 -1.5163
12557SOL    HW241588   3.103   1.724   3.401  1.7312  3.5359 -0.7870
12558SOL     OW41589   9.495   2.977   5.649 -0.3737  0.2449  0.0126
12558SOL    HW141590   9.511   2.908   5.714 -1.0947  0.2896  0.2505
12558SOL    HW241591   9.580   3.020   5.638 -0.1772  0.0629  0.7307
12559SOL     OW41592   5.562   0.059   8.662 -0.2139  0.6000  0.4048
12559SOL    HW141593   5.506  -0.009   8.624  0.1584 -0.2295  1.3019
12559SOL    HW241594   5.623   0.082   8.592 -0.8465  0.5904 -0.1609
12560SOL     OW41595   8.455   5.703   2.176  0.8930 -0.0889 -0.0965
12560SOL    HW141596   8.545   5.687   2.203 -0.0570 -1.4234  2.7054
12560SOL    HW241597   8.415   5.747   2.251 -0.4795  1.8297 -1.8439
12561SOL     OW41598   5.095   5.909   4.935 -0.5337  0.0425  0.1017
12561SOL    HW141599   5.025   5.968   4.905 -1.9088 -1.6059 -0.1004
12561SOL    HW241600   5.051   5.825   4.950  1.5089 -1.2297 -0.5816
12562SOL     OW41601   1.736   8.312   9.953 -0.3803 -0.1846  0.6141
12562SOL    HW141602   1.674   8.377   9.920 -0.3414 -0.9194 -1.0090
12562SOL    HW241603   1.742   8.330  10.046 -0.4101  2.0960  0.2409
12563SOL     OW41604   5.394   9.529   7.269  0.0357 -0.2836  0.4087
12563SOL    HW141605   5.342   9.550   7.346 -1.1700  0.5411 -0.5833
12563SOL    HW241606   5.395   9.610   7.217  0.1834 -1.0226 -0.7861
12564SOL     OW41607   1.600   3.033   0.137  0.0098  0.2689  0.1270
12564SOL    HW141608   1.590   3.111   0.082  0.7963  1.7118  1.9140
12564SOL    HW241609   1.646   3.065   0.215  3.1197 -2.5528 -0.3130
12565SOL     OW41610   5.214   9.474   1.289  0.0458  0.5557 -0.1075
12565SOL    HW141611   5.152   9.426   1.234 -0.7779 -0.1682  1.3931
12565SOL    HW241612   5.300   9.438   1.265  0.0341  2.0087 -2.6561
12566SOL     OW41613   8.261   9.934   3.351  0.0608  0.3791  0.4200
12566SOL    HW141614   8.265   9.871   3.279  0.4734 -0.2770  1.0038
12566SOL    HW241615   8.186   9.905   3.404  0.9232 -0.3015  1.2956
12567SOL     OW41616   9.782   0.721   5.101  0.2385 -0.1055 -0.1267
12567SOL    HW141617   9.840   0.794   5.124 -1.1160  0.5145  1.4918
12567SOL    HW241618   9.801   0.654   5.166 -1.9162  0.7154  1.4478
12568SOL     OW41619   6.750   4.055   1.611  0.0430  0.1247  0.7731
12568SOL    HW141620   6.699   4.130   1.641  0.5504  0.4750  0.7712
12568SOL    HW241621   6.821   4.046   1.676 -0.5489 -0.9365  1.3034
12569SOL     OW41622   7.231   4.934   5.973  0.4121  0.4208  0.0664
12569SOL    HW141623   7.178   4.986   6.033 -0.1830  1.0075 -0.9383
12569SOL    HW241624   7.311   4.915   6.022 -0.5594 -0.1554  1.4606
12570SOL     OW41625   8.967   1.908   5.545  0.0884 -0.1371  0.0581
12570SOL    HW141626   8.960   1.865   5.631 -0.0410 -0.3513 -0.0595
12570SOL    HW241627   9.026   1.851   5.495 -0.4631 -0.4352 -0.2577
12571SOL     OW41628   7.013   1.220   6.304 -0.4271  0.4981  0.4230
12571SOL    HW141629   6.919   1.233   6.315 -0.5515  0.4276 -0.4894
12571SOL    HW241630   7.025   1.209   6.210  0.1323 -2.4010  0.7418
12572SOL     OW41631   6.629   9.351   9.193  0.8772 -0.5295  0.0639
12572SOL    HW141632   6.603   9.343   9.101  0.0708 -0.5306  0.2803
12572SOL    HW241633   6.667   9.438   9.199 -1.5313  0.5862  0.2724
12573SOL     OW41634   0.382   0.513   3.933 -0.3116  0.0787 -0.0680
12573SOL    HW141635   0.346   0.429   3.906 -2.1860  1.7089 -3.0941
12573SOL    HW241636   0.318   0.549   3.994 -0.9479  0.5031 -0.9760
12574SOL     OW41637   9.260   8.768   5.560  0.5596 -0.2251 -0.1440
12574SOL    HW141638   9.278   8.680   5.528 -0.8438 -0.7412  0.3784
12574SOL    HW241639   9.241   8.756   5.653  1.8564  0.8600  0.2979
12575SOL     OW41640   3.310   6.261   1.182 -0.5306  0.0888 -0.2976
12575SOL    HW141641   3.398   6.238   1.215  0.1033  1.7939 -0.7101
12575SOL    HW241642   3.322   6.269   1.087 -1.6496 -1.7374 -0.6420
12576SOL     OW41643   4.547   8.675   8.876  0.0777  0.3166  0.2771
12576SOL    HW141644   4.608   8.643   8.810 -0.3358 -1.4805  0.7134
12576SOL    HW241645   4.467   8.625   8.862 -0.3086  0.5068  1.5890
12577SOL     OW41646   8.019   6.719   7.214  0.2162 -0.3409 -0.1805
12577SOL    HW141647   7.955   6.703   7.283  2.0188  0.0555  1.6807
12577SOL    HW241648   8.073   6.641   7.213 -0.7547 -1.0639 -2.3640
12578SOL     OW41649   0.844   5.071   3.136 -0.7521 -0.0717  0.6440
12578SOL    HW141650   0.787   5.090   3.211 -0.9296 -0.5129  0.6233
12578SOL    HW241651   0.869   5.157   3.103  1.5747  0.2252  2.8686
12579SOL     OW41652   8.593   8.061   9.482 -0.5319 -0.0322 -0.2853
12579SOL    HW141653   8.675   8.053   9.531 -0.6160  0.2685 -0.0944
12579SOL    HW241654   8.621   8.073   9.391 -0.2985  1.8485 -0.0048
12580SOL     OW41655   0.993   0.546   9.052 -0.1010 -0.0690 -0.4425
12580SOL    HW141656   1.086   0.536   9.068 -0.1816 -1.5309 -0.7509
12580SOL    HW241657   0.984   0.544   8.957 -0.4165  0.4141 -0.4275
12581SOL     OW41658   1.910   5.585   9.676 -0.3317  0.3629  0.3932
12581SOL    HW141659   1.847   5.577   9.605 -0.8579  1.6526  0.6994
12581SOL    HW241660   1.994   5.601   9.632  0.0782 -2.5016 -0.0739
12582SOL     OW41661   6.248   0.915   4.844 -0.0587  0.2884 -0.6062
12582SOL    HW141662   6.330   0.907   4.894 -0.5672  0.7899  0.3276
12582SOL    HW241663   6.179   0.907   4.910 -0.7399  1.8086 -1.1011
12583SOL     OW41664   7.948   6.197   4.629  0.1111 -0.8289 -0.2654
12583SOL    HW141665   7.988   6.284   4.631  1.2070 -1.3201 -0.2241
12583SOL    HW241666   8.016   6.138   4.662 -1.0017 -1.5633  0.8280
12584SOL     OW41667   3.183   7.272   4.214 -0.2851  0.0816 -0.4340
12584SOL    HW141668   3.240   7.195   4.214  0.7930  0.8431 -0.2894
12584SOL    HW241669   3.240   7.343   4.244 -1.6472  0.6481  0.9784
12585SOL     OW41670   5.897   4.498   8.311 -0.9535  0.3048  0.4472
12585SOL    HW141671   5.945   4.482   8.393  0.3557  0.3032 -0.2965
12585SOL    HW241672   5.846   4.577   8.328 -0.8832  0.1711  1.3397
12586SOL     OW41673   3.291   3.283   6.673 -0.0783  0.6571  0.2479
12586SOL    HW141674   3.213   3.234   6.645 -0.3098 -0.0030  1.9458
12586SOL    HW241675   3.341   3.295   6.593 -1.3931  0.1039 -0.6949
12587SOL     OW41676   5.309   3.159   2.056  0.7637 -0.6675  0.0258
12587SOL    HW141677   5.385   3.162   1.997  1.1657  2.2229  0.5217
12587SOL    HW241678   5.345   3.131   2.140  1.1254 -0.1539  0.0461
12588SOL     OW41679   7.229   2.580   7.032  0.2537 -0.9102  0.1711
12588SOL    HW141680   7.237   2.626   7.115 -2.8356 -0.2336  0.2364
12588SOL    HW241681   7.156   2.519   7.045 -0.1253 -0.9983 -1.9176
12589SOL     OW41682   8.400   5.283   6.616  0.0658 -0.1120  0.1984
12589SOL    HW141683   8.318   5.303   6.571 -0.7916 -1.7872  0.9311
12589SOL    HW241684   8.396   5.335   6.696  0.1505  0.5009 -0.1885
12590SOL     OW41685   5.169   5.115   1.525 -0.1198 -0.1219 -0.5062
12590SOL    HW141686   5.190   5.197   1.571  1.6170 -1.2648  0.8561
12590SOL    HW241687   5.101   5.074   1.580  0.1972 -0.3510 -0.2821
12591SOL     OW41688   5.610   4.015   3.367 -0.2801 -0.0253 -0.3245
12591SOL    HW141689   5.594   3.924   3.341 -0.4318 -0.4446  1.1199
12591SOL    HW241690   5.640   4.009   3.458  2.1502  1.2082 -0.9732
12592SOL     OW41691   3.874   0.052   8.347 -0.0650 -0.7511  0.4452
12592SOL    HW141692   3.955   0.022   8.388 -0.6374 -0.5261  1.7919
12592SOL    HW241693   3.879   0.147   8.351  0.2870 -0.6968 -0.8827
12593SOL     OW41694   7.616   7.840   8.644 -0.3839 -0.6854 -0.3296
12593SOL    HW141695   7.569   7.872   8.721  0.7156 -1.9373  0.9034
12593SOL    HW241696   7.637   7.919   8.594 -1.3300  0.1277  0.5109
12594SOL     OW41697  10.069   8.731   5.971  0.2143  0.2392 -0.4775
12594SOL    HW141698  10.049   8.649   5.927 -1.9158  1.4803 -1.9927
12594SOL    HW241699   9.994   8.747   6.028  0.9861  0.7449  0.4326
12595SOL     OW41700   7.654   7.798   2.278 -0.1286  0.3658 -0.0279
12595SOL    HW141701   7.633   7.708   2.252 -0.2176  0.4474 -0.2444
12595SOL    HW241702   7.578   7.850   2.249  0.3597  0.6621 -0.8183
12596SOL     OW41703   7.565   8.261   0.862 -0.1794 -0.5900 -0.0141
12596SOL    HW141704   7.563   8.356   0.868  0.3279 -0.5697 -0.1123
12596SOL    HW241705   7.475   8.236   0.842 -0.3933 -0.1610  0.4154
12597SOL     OW41706   3.167   1.431   2.759  0.8707 -0.1285  0.2000
12597SOL    HW141707   3.180   1.470   2.672  1.6496 -0.4269  0.1725
12597SOL    HW241708   3.251   1.388   2.778  0.0984 -1.6341  0.3139
12598SOL     OW41709   0.051   8.668   1.982 -0.0614  0.4824  0.4415
12598SOL    HW141710  -0.000   8.591   2.008 -0.1267  0.5686  0.5692
12598SOL    HW241711   0.006   8.741   2.023 -0.3181  0.6515 -0.1369
12599SOL     OW41712   9.106   9.798   0.494 -0.0888  0.0783  0.0983
12599SOL    HW141713   9.052   9.861   0.446  0.6142  0.4426 -0.2257
12599SOL    HW241714   9.189   9.842   0.507  0.1317 -0.4723  0.6129
12600SOL     OW41715   0.917   3.888   9.625  0.1163 -0.4452 -0.3300
12600SOL    HW141716   0.953   3.805   9.656  1.3334  0.1965  0.0429
12600SOL    HW241717   0.830   3.866   9.592 -0.0979 -1.6402  0.9472
12601SOL     OW41718   0.828   4.509   6.276 -0.0941 -0.4146  0.0437
12601SOL    HW141719   0.890   4.542   6.340  1.0489 -1.5416 -0.4337
12601SOL    HW241720   0.752   4.567   6.283  0.0330 -0.4557  2.3230
12602SOL     OW41721   3.772   6.025   5.563 -0.0935 -0.0281 -0.0512
12602SOL    HW141722   3.861   6.053   5.540 -0.3263  0.3456 -0.5186
12602SOL    HW241723   3.780   5.931   5.582  0.2643 -0.1706 -0.8540
12603SOL     OW41724   1.178   1.028   4.026 -0.1731 -0.4793 -0.2225
12603SOL    HW141725   1.203   1.108   3.979  0.1811  0.4200  1.4001
12603SOL    HW241726   1.106   1.056   4.083  1.4549 -0.6600  2.0946
12604SOL     OW41727   4.715   4.374   8.385  0.3521  0.5094  0.6032
12604SOL    HW141728   4.623   4.383   8.361  0.6344  1.8020 -0.0942
12604SOL    HW241729   4.715   4.307   8.453 -0.7910 -1.3580 -1.1136
12605SOL     OW41730   8.470   6.587   3.373 -0.4561 -0.0438 -0.2036
12605SOL    HW141731   8.542   6.624   3.424 -0.2873  1.0013 -1.1659
12605SOL    HW241732   8.440   6.659   3.318 -2.0674 -0.5332 -0.0245
12606SOL     OW41733   4.741   3.530   7.949 -0.0464 -0.1551 -0.2444
12606SOL    HW141734   4.770   3.620   7.961 -0.5861 -0.1361  1.1662
12606SOL    HW241735   4.790   3.480   8.015  0.7942 -1.0356 -1.4983
12607SOL     OW41736   8.535   3.798   4.284  0.2797  0.0173 -0.6936
12607SOL    HW141737   8.554   3.704   4.295 -0.6776  0.0040  1.3219
12607SOL    HW241738   8.618   3.841   4.306  0.4136 -0.3241 -0.5066
12608SOL     OW41739   1.126   3.310   3.607 -0.5728  0.3412 -0.1425
12608SOL    HW141740   1.104   3.226   3.565  2.9947  0.1322 -2.0273
12608SOL    HW241741   1.176   3.285   3.684  2.6436  0.4837 -1.9864
12609SOL     OW41742   1.897   1.060   3.279 -0.3137  0.3021  0.3733
12609SOL    HW141743   1.812   1.100   3.299 -1.0709 -2.2399  3.0488
12609SOL    HW241744   1.956   1.099   3.343 -0.1167  0.1484  0.2840
12610SOL     OW41745   6.223   8.339   4.976  0.6692  0.0699  0.2026
12610SOL    HW141746   6.165   8.351   4.901 -0.7926 -1.6605  0.9684
12610SOL    HW241747   6.261   8.252   4.963  1.3757  0.2759  0.8363
12611SOL     OW41748   6.094   6.347   4.047 -0.0081  0.4116 -0.1959
12611SOL    HW141749   6.064   6.359   3.957 -0.3465 -1.1526 -0.3291
12611SOL    HW241750   6.018   6.367   4.101 -0.4034 -0.5210 -0.3797
12612SOL     OW41751   3.810   4.360   3.545  0.0643 -0.0348  0.0477
12612SOL    HW141752   3.867   4.429   3.578 -0.6036  0.5843 -0.0721
12612SOL    HW241753   3.804   4.297   3.617  1.4114 -0.4382 -0.1717
12613SOL     OW41754   0.271   4.146   4.011 -0.2248 -0.0546  0.0748
12613SOL    HW141755   0.322   4.111   3.939  0.9808 -0.4131  1.0582
12613SOL    HW241756   0.289   4.240   4.009 -1.6950  0.2454 -1.2008
12614SOL     OW41757   7.857   3.185   7.219 -0.1458  0.6352  0.1462
12614SOL    HW141758   7.861   3.113   7.156  1.2073  0.2486  0.6347
12614SOL    HW241759   7.796   3.248   7.180 -1.9425 -1.0876  0.0780
12615SOL     OW41760   4.386   3.957   2.548  0.3190 -0.2655  0.2071
12615SOL    HW141761   4.450   4.015   2.506 -0.3901  0.5106  0.1725
12615SOL    HW241762   4.301   3.996   2.528 -0.0806 -0.3063  1.6937
12616SOL     OW41763   4.941   0.941   0.174 -0.0049  0.2529  0.2682
12616SOL    HW141764   4.880   0.954   0.101 -0.6896 -1.4445  0.4895
12616SOL    HW241765   4.908   0.998   0.243 -0.7728  0.0954  0.0449
12617SOL     OW41766   1.888   0.193   0.286  0.6227 -0.4000 -0.3847
12617SOL    HW141767   1.795   0.181   0.306  0.8668 -1.6336  0.1017
12617SOL    HW241768   1.930   0.200   0.372  1.0415 -0.3995 -0.5889
12618SOL     OW41769   2.175   0.877   0.502 -0.3166  0.0319 -0.1576
12618SOL    HW141770   2.197   0.853   0.592  0.3066  0.9511 -0.0499
12618SOL    HW241771   2.258   0.909   0.465 -0.5813 -0.2637 -1.0388
12619SOL     OW41772   1.072   7.651   6.831 -0.2030  0.0131 -0.2186
12619SOL    HW141773   1.014   7.592   6.784 -0.5291 -1.0189  1.4014
12619SOL    HW241774   1.035   7.655   6.920  1.2554  0.6690  0.3842
12620SOL     OW41775   6.342   4.956   3.309 -0.7326  0.3710  0.0586
12620SOL    HW141776   6.302   4.996   3.386  0.2331  0.9204  0.2856
12620SOL    HW241777   6.407   5.019   3.280  0.5877 -0.8587  0.2198
12621SOL     OW41778   3.895   6.414   6.773 -0.1392  0.1464  0.2998
12621SOL    HW141779   3.854   6.461   6.845 -0.0548  1.9752 -0.8019
12621SOL    HW241780   3.980   6.455   6.762  0.6237 -1.3532  0.3304
12622SOL     OW41781   8.780   0.647   0.448 -0.6518 -0.0268 -0.1178
12622SOL    HW141782   8.690   0.678   0.438 -1.7624 -3.0118 -0.2900
12622SOL    HW241783   8.780   0.559   0.411  2.1876 -0.4440  0.5851
12623SOL     OW41784   2.568   6.993   6.714  0.3753  0.2532 -0.4002
12623SOL    HW141785   2.635   6.942   6.760  1.0894 -0.1381 -1.7977
12623SOL    HW241786   2.574   7.081   6.753  1.6914  0.2166 -0.4545
12624SOL     OW41787   0.236   6.873   5.071 -0.3808  0.4827 -0.0732
12624SOL    HW141788   0.300   6.913   5.129  0.4980 -1.6230  0.5026
12624SOL    HW241789   0.278   6.793   5.040 -2.3016 -0.4066 -0.5709
12625SOL     OW41790   9.530   9.483   5.832  0.0729 -0.5113 -0.0223
12625SOL    HW141791   9.464   9.543   5.797 -0.7468 -1.7090 -0.6087
12625SOL    HW241792   9.613   9.514   5.796 -0.3577  0.1602 -0.4470
12626SOL     OW41793   8.928   0.385   4.612  0.5251 -0.2710 -0.6271
12626SOL    HW141794   8.936   0.339   4.696 -0.4424 -0.1691 -0.4664
12626SOL    HW241795   8.834   0.387   4.595  0.4388  2.3070 -0.2445
12627SOL     OW41796   7.734   9.638   4.658  0.4296  0.4859  0.3748
12627SOL    HW141797   7.789   9.600   4.726 -0.4640 -1.6258  0.0085
12627SOL    HW241798   7.651   9.658   4.703 -0.0820 -0.6970 -0.0166
12628SOL     OW41799   9.268   9.564   4.310  0.5718  0.1431 -0.1861
12628SOL    HW141800   9.176   9.556   4.283  0.3138 -0.1333  0.7441
12628SOL    HW241801   9.279   9.498   4.378  1.4807  0.1349 -0.3327
12629SOL     OW41802   4.096   2.012   7.304  0.0639  0.5898  0.1291
12629SOL    HW141803   4.153   2.066   7.250  1.5556 -0.5579  0.4904
12629SOL    HW241804   4.010   2.020   7.263  0.7435  1.3272 -1.2194
12630SOL     OW41805   4.571   6.022   9.715  0.5901  0.2994 -0.3848
12630SOL    HW141806   4.497   6.056   9.766 -0.1197  0.8150 -1.7057
12630SOL    HW241807   4.532   5.956   9.658  1.4477 -0.5726  0.0248
12631SOL     OW41808   9.001   0.789   5.108  0.2124 -0.4714 -0.6108
12631SOL    HW141809   9.062   0.738   5.055 -1.1821 -1.7522 -1.0172
12631SOL    HW241810   8.919   0.740   5.106 -1.5226  2.2513 -1.8467
12632SOL     OW41811   5.128   7.527   3.508  0.2753 -0.3905 -0.1684
12632SOL    HW141812   5.199   7.580   3.545 -0.0662  0.4633 -0.7121
12632SOL    HW241813   5.048   7.568   3.539 -0.0358  0.6152 -2.1377
12633SOL     OW41814   2.385   5.536   0.702 -0.4689  0.6782 -0.0620
12633SOL    HW141815   2.298   5.529   0.742  0.4333 -0.3738  1.8162
12633SOL    HW241816   2.426   5.451   0.718  1.9032  2.0018  1.5459
12634SOL     OW41817   9.306   1.819   7.352 -0.1795 -0.1507 -0.4998
12634SOL    HW141818   9.338   1.904   7.380 -1.3200  0.5158 -1.1219
12634SOL    HW241819   9.216   1.836   7.323 -0.0642 -1.3607 -1.6597
12635SOL     OW41820   9.162   7.188   9.584 -0.1752  0.5839  0.5443
12635SOL    HW141821   9.105   7.248   9.536 -0.4039  1.1230  1.4710
12635SOL    HW241822   9.150   7.103   9.541 -0.9164  0.9021  0.1112
12636SOL     OW41823   5.502   2.161   0.172 -0.9073 -0.4248  0.1368
12636SOL    HW141824   5.518   2.202   0.087  0.7384 -0.4466  0.4082
12636SOL    HW241825   5.486   2.234   0.232 -1.1735 -0.3573 -0.0178
12637SOL     OW41826   4.033   7.610   2.637  0.0398  0.1462  0.1899
12637SOL    HW141827   4.011   7.521   2.610 -2.0142  1.0593 -1.3923
12637SOL    HW241828   3.972   7.630   2.708 -1.0968  1.0403 -0.9955
12638SOL     OW41829   3.436   8.031   7.339  0.1416 -0.0799 -0.4438
12638SOL    HW141830   3.518   8.080   7.337 -0.4608  0.9116 -1.7635
12638SOL    HW241831   3.453   7.959   7.400  1.1957  1.4912  1.2099
12639SOL     OW41832   5.562   2.405   9.286  0.7320 -0.3051 -0.1988
12639SOL    HW141833   5.546   2.362   9.202 -0.9685 -0.4154  0.1474
12639SOL    HW241834   5.530   2.342   9.351 -1.9744  1.4180  0.3201
12640SOL     OW41835   1.271   2.785   2.457  0.8537 -0.1436 -0.4066
12640SOL    HW141836   1.261   2.857   2.394  1.0472 -1.0291 -1.4931
12640SOL    HW241837   1.333   2.818   2.522  0.6603  0.7942 -0.6826
12641SOL     OW41838   8.513   7.771   0.544 -0.1417 -0.5436  0.1708
12641SOL    HW141839   8.608   7.760   0.557 -0.2261 -0.8578  0.5371
12641SOL    HW241840   8.502   7.864   0.526  0.8319 -1.0740 -4.6650
12642SOL     OW41841   8.160   8.007   7.820 -0.0098  0.5793  0.3674
12642SOL    HW141842   8.200   7.956   7.750 -0.4460 -0.3313  0.7704
12642SOL    HW241843   8.073   8.029   7.786  0.9995  3.1702 -0.8066
12643SOL     OW41844   8.123   7.440   6.355 -0.1711  0.5931  0.4735
12643SOL    HW141845   8.160   7.463   6.270 -1.4213  1.5280  0.1483
12643SOL    HW241846   8.130   7.520   6.408  1.1583 -0.1534  1.4859
12644SOL     OW41847   1.260   3.402   7.121  0.1623 -0.9418  0.4008
12644SOL    HW141848   1.295   3.410   7.033 -0.0260 -2.3905  0.1644
12644SOL    HW241849   1.299   3.475   7.169  0.2657 -0.1360 -0.8679
12645SOL     OW41850   2.893   1.845  10.051 -0.0303 -0.3580 -0.0572
12645SOL    HW141851   2.895   1.760  10.094  2.0306  1.0970  3.0832
12645SOL    HW241852   2.966   1.843   9.989  0.1627 -0.7792  0.1824
12646SOL     OW41853   6.910   2.644   1.491  0.0536  0.3742 -0.0164
12646SOL    HW141854   6.960   2.650   1.409 -0.8283  0.2213 -0.5771
12646SOL    HW241855   6.902   2.735   1.520  2.2311  0.2904  1.0869
12647SOL     OW41856   1.213   7.193   3.454 -0.1200 -0.2282  0.0809
12647SOL    HW141857   1.176   7.253   3.519  0.5639 -0.3067  0.5486
12647SOL    HW241858   1.308   7.203   3.463  0.0708 -2.3145  1.0743
12648SOL     OW41859   6.564   6.188   0.760 -0.0316 -0.0304  0.5901
12648SOL    HW141860   6.578   6.275   0.723  0.9273  0.2145  1.4974
12648SOL    HW241861   6.489   6.199   0.819 -2.0980 -0.5990 -1.7586
12649SOL     OW41862   2.331   3.805   2.323 -0.2722  0.3814 -0.1490
12649SOL    HW141863   2.278   3.788   2.246 -2.2362 -1.0713  1.4184
12649SOL    HW241864   2.281   3.869   2.374  1.2318  1.7050 -0.2555
12650SOL     OW41865   6.425  10.083   1.430 -0.4296  0.4255  0.1240
12650SOL    HW141866   6.487  10.022   1.391  0.4424  1.1727  0.2865
12650SOL    HW241867   6.383  10.126   1.356  0.9709  1.5937 -0.0451
12651SOL     OW41868   3.661   4.916   9.861  0.7512 -0.2519 -0.0214
12651SOL    HW141869   3.711   4.844   9.900  1.9197 -0.0676 -1.0954
12651SOL    HW241870   3.728   4.972   9.821 -0.1680  1.1988  0.3909
12652SOL     OW41871   8.338   0.904   0.221  0.0709 -0.0584 -0.0515
12652SOL    HW141872   8.372   0.880   0.134 -0.7344  0.1660 -0.4355
12652SOL    HW241873   8.364   0.996   0.232  1.1616 -0.4023  0.4465
12653SOL     OW41874   5.724   1.770   2.299 -0.4130 -0.0421  0.1220
12653SOL    HW141875   5.748   1.678   2.292 -0.7773 -0.0744 -0.7408
12653SOL    HW241876   5.738   1.806   2.212  2.2449  1.3567  1.0140
12654SOL     OW41877   3.859   7.515   3.201 -0.2512  0.3490  0.0186
12654SOL    HW141878   3.802   7.461   3.256  0.9939 -0.2927  0.7248
12654SOL    HW241879   3.922   7.453   3.164 -0.6368  0.8736 -1.6139
12655SOL     OW41880   6.760   4.355   8.833 -0.3526 -0.9697  0.0286
12655SOL    HW141881   6.755   4.449   8.851  0.0477 -0.8589 -0.4049
12655SOL    HW241882   6.839   4.345   8.780  0.4399 -1.7515  1.2953
12656SOL     OW41883   6.216   8.676   9.043 -0.6466  0.3455 -0.8027
12656SOL    HW141884   6.216   8.771   9.031 -0.4858  0.4736  0.1462
12656SOL    HW241885   6.298   8.647   9.004  0.0545  0.7934  0.2990
12657SOL     OW41886   5.933   2.459   9.982 -0.2475 -0.3082 -0.0878
12657SOL    HW141887   5.985   2.404   9.923  0.7668 -1.5396  1.8703
12657SOL    HW241888   5.931   2.411  10.065 -1.9061  1.2013  0.8304
12658SOL     OW41889   6.956   2.227   6.260 -0.1727 -0.3213 -0.4874
12658SOL    HW141890   7.012   2.156   6.291  1.1979  1.0985  0.4807
12658SOL    HW241891   6.911   2.258   6.338 -0.7402 -0.0920 -0.8975
12659SOL     OW41892   2.878   2.184   4.922 -0.0932 -0.2384  0.5224
12659SOL    HW141893   2.848   2.093   4.930  0.7394 -0.6548 -0.7276
12659SOL    HW241894   2.917   2.204   5.006  0.2184 -1.2428  0.6252
12660SOL     OW41895   6.168   6.216   6.743  0.0992 -0.2139 -0.3279
12660SOL    HW141896   6.191   6.143   6.800  0.2996  0.8840  1.0798
12660SOL    HW241897   6.252   6.247   6.709 -0.1289 -1.7611 -2.4496
12661SOL     OW41898   8.205   2.285   8.081 -0.0114  0.7982  0.6062
12661SOL    HW141899   8.295   2.281   8.048 -0.4092 -0.1828 -0.4233
12661SOL    HW241900   8.186   2.378   8.089  1.0585  1.0182  0.7272
12662SOL     OW41901   9.576   2.870   4.291  1.1628  0.4907 -0.1450
12662SOL    HW141902   9.591   2.917   4.209  3.1953 -0.3249 -0.2969
12662SOL    HW241903   9.548   2.937   4.353 -0.4401  1.1180 -1.4728
12663SOL     OW41904   5.638   7.615   8.185 -0.3634 -0.2430  0.3719
12663SOL    HW141905   5.592   7.597   8.103 -0.1627  0.0069  0.2065
12663SOL    HW241906   5.722   7.650   8.158 -0.7478  0.9624  0.6987
12664SOL     OW41907   8.061  10.179   3.886  0.1037  0.2341 -0.4872
12664SOL    HW141908   8.031  10.132   3.964  0.3141  0.6864 -0.1259
12664SOL    HW241909   8.034  10.125   3.813 -1.0333  0.3202 -0.1439
12665SOL     OW41910   3.717   8.822   1.590  0.1116  0.0967  0.3076
12665SOL    HW141911   3.697   8.795   1.679 -0.2091  1.1295  0.5669
12665SOL    HW241912   3.643   8.877   1.565 -0.3791 -1.1027 -1.0280
12666SOL     OW41913   3.193   5.447   9.608 -0.4588  0.6561  0.3542
12666SOL    HW141914   3.184   5.524   9.664 -0.7304  1.0912 -0.2729
12666SOL    HW241915   3.201   5.373   9.669 -0.4933  1.1459  0.9584
12667SOL     OW41916   2.267   1.969   2.593  0.2604 -0.2723  0.2182
12667SOL    HW141917   2.334   2.030   2.563 -0.5495  1.8588  2.3625
12667SOL    HW241918   2.232   2.010   2.672 -3.7425 -1.1358 -0.9012
12668SOL     OW41919   9.965   3.105   8.178  0.0748 -0.2209 -0.3942
12668SOL    HW141920   9.887   3.050   8.177  0.1801 -0.4251  0.7299
12668SOL    HW241921  10.010   3.081   8.260 -0.9876  3.0792  1.3253
12669SOL     OW41922   7.361   9.596   6.781  0.5638 -0.3855 -0.0533
12669SOL    HW141923   7.397   9.586   6.693  1.1175  2.1334 -0.2008
12669SOL    HW241924   7.269   9.570   6.773  1.0467 -1.9699 -0.8834
12670SOL     OW41925   0.532   5.491   5.837  0.1965 -0.2975 -0.5740
12670SOL    HW141926   0.578   5.522   5.759  2.7225 -0.5230  0.6954
12670SOL    HW241927   0.600   5.445   5.887 -1.1266  0.4437  2.0881
12671SOL     OW41928   1.171   6.784   4.640 -0.2286 -0.0236  0.3077
12671SOL    HW141929   1.215   6.857   4.597  0.1461 -1.2425 -1.5357
12671SOL    HW241930   1.081   6.787   4.606  0.2517 -1.4068 -1.2450
12672SOL     OW41931   6.808   2.730   9.324 -0.2173  0.8878 -0.5103
12672SOL    HW141932   6.849   2.701   9.406 -0.5871  0.9359 -0.3009
12672SOL    HW241933   6.846   2.816   9.308  2.2147 -0.3635 -2.0803
12673SOL     OW41934   5.658   7.346   5.759  0.5411  0.1347 -0.1153
12673SOL    HW141935   5.630   7.414   5.821  0.0617 -0.2954  0.1458
12673SOL    HW241936   5.603   7.270   5.780  0.6439 -0.1398 -0.8099
12674SOL     OW41937   5.935   8.566   0.005 -0.2762  0.5053  0.3104
12674SOL    HW141938   5.974   8.535  -0.077 -1.3797 -0.7425  0.2171
12674SOL    HW241939   6.000   8.625   0.042  0.6545  0.3344 -0.9902
12675SOL     OW41940   6.352   8.885  10.117  0.5361 -0.1565  0.0084
12675SOL    HW141941   6.396   8.940  10.181  1.0942 -1.4779  0.7882
12675SOL    HW241942   6.412   8.883  10.042  0.8929 -0.3387  0.2942
12676SOL     OW41943   2.717   9.145   3.957 -0.0735 -0.1052 -0.0966
12676SOL    HW141944   2.766   9.121   3.879  2.1632 -0.1566  1.2556
12676SOL    HW241945   2.777   9.131   4.029 -0.6393  3.6804  1.3650
12677SOL     OW41946   8.548   2.462   5.864 -0.3419  0.3658 -0.8462
12677SOL    HW141947   8.454   2.458   5.878 -0.2238 -0.7126 -0.2238
12677SOL    HW241948   8.559   2.440   5.771 -0.6208 -1.2162 -0.5355
12678SOL     OW41949   4.674   2.228   9.421 -0.0787  0.0456 -0.6157
12678SOL    HW141950   4.705   2.310   9.459 -0.9013 -0.1982  0.6385
12678SOL    HW241951   4.753   2.176   9.408  0.3950  0.8386 -0.9417
12679SOL     OW41952   3.563   5.364   7.517  0.0252 -0.1749  0.4444
12679SOL    HW141953   3.472   5.382   7.492 -0.4471  0.2305  2.2865
12679SOL    HW241954   3.613   5.374   7.436 -1.4174  0.7543 -0.3718
12680SOL     OW41955   4.881   5.766   7.334 -0.0654  0.4003 -0.0354
12680SOL    HW141956   4.973   5.751   7.353 -0.2479  0.9656  1.4406
12680SOL    HW241957   4.836   5.740   7.415 -1.0769  1.3348 -0.2794
12681SOL     OW41958   1.370   0.685   7.865  0.0352 -0.1030  0.5499
12681SOL    HW141959   1.326   0.669   7.949  0.1131  0.3571  0.6803
12681SOL    HW241960   1.448   0.735   7.887 -1.8489  3.4543 -0.0997
12682SOL     OW41961   3.861   5.638   7.165  0.3617  0.2173 -0.2469
12682SOL    HW141962   3.769   5.660   7.176  0.3324 -0.2340  0.5184
12682SOL    HW241963   3.866   5.597   7.079  0.1215  1.5681 -0.9312
12683SOL     OW41964   3.469   4.494   6.175 -0.1804  0.6269  0.1857
12683SOL    HW141965   3.538   4.438   6.212 -0.1499  0.2842 -0.3696
12683SOL    HW241966   3.416   4.519   6.250  1.1107  1.7135  0.7786
12684SOL     OW41967   0.816   5.584   4.211 -0.0224  0.5451  0.1415
12684SOL    HW141968   0.782   5.656   4.159 -1.3129  0.1643  0.4256
12684SOL    HW241969   0.747   5.565   4.275  0.4633 -0.6566  0.3509
12685SOL     OW41970   4.137   3.461   1.494 -0.3459  0.0117 -0.3362
12685SOL    HW141971   4.074   3.532   1.483 -0.2910  0.2839  0.9848
12685SOL    HW241972   4.083   3.384   1.511 -0.3680 -0.0717 -0.7681
12686SOL     OW41973   7.439   6.786   1.868 -0.1242 -0.0553  0.1850
12686SOL    HW141974   7.506   6.748   1.923  0.3472  1.5525  0.7806
12686SOL    HW241975   7.405   6.860   1.918 -0.2386  0.9734 -1.3203
12687SOL     OW41976   6.387   5.948   4.327 -0.1571 -0.2900 -0.0477
12687SOL    HW141977   6.439   6.029   4.325 -0.5817 -0.0118 -0.0269
12687SOL    HW241978   6.450   5.880   4.352 -0.4609  0.5933  3.7072
12688SOL     OW41979   1.778   1.979   0.445  0.4267  0.0795  0.5237
12688SOL    HW141980   1.805   2.006   0.358 -1.1084 -0.9658 -0.3338
12688SOL    HW241981   1.839   1.909   0.469  0.9074  0.4317  0.3234
12689SOL     OW41982   0.503   2.775   5.404  0.0290 -0.1789  0.5028
12689SOL    HW141983   0.521   2.800   5.494  2.3073  1.5490 -0.3269
12689SOL    HW241984   0.528   2.683   5.399  0.4375 -0.1317  1.4944
12690SOL     OW41985   8.320   3.257   6.806  0.3465 -0.4327  0.3417
12690SOL    HW141986   8.290   3.348   6.808  1.9719  0.1225  0.4670
12690SOL    HW241987   8.271   3.214   6.876 -0.0516  0.4591  0.6224
12691SOL     OW41988   0.582  10.058   4.326 -0.3954 -0.2129 -0.2845
12691SOL    HW141989   0.652  10.034   4.266  0.8783  1.3516  0.4835
12691SOL    HW241990   0.612  10.027   4.412 -0.9544 -0.1256 -0.0512
12692SOL     OW41991   1.563   5.278   5.165 -0.2977  0.6135  0.0957
12692SOL    HW141992   1.637   5.312   5.215 -1.3794  1.5590  1.1281
12692SOL    HW241993   1.602   5.224   5.097  1.2718  0.0624  1.3884
12693SOL     OW41994  10.038   7.841   3.164 -0.8318 -0.0269  0.9513
12693SOL    HW141995  10.080   7.842   3.250 -1.0745 -1.1477  1.1002
12693SOL    HW241996  10.003   7.929   3.153 -0.0953  0.3663  1.6456
12694SOL     OW41997  10.082   3.279   3.499  0.2213 -0.3157  0.1401
12694SOL    HW141998   9.988   3.269   3.483  0.0016  1.3167  0.2221
12694SOL    HW241999  10.088   3.300   3.592  0.9588 -3.3230  0.8750
12695SOL     OW42000   5.454   0.948   9.291  0.3380  0.3031 -0.3235
12695SOL    HW142001   5.525   0.912   9.237  0.8996 -0.2639  0.7526
12695SOL    HW242002   5.471   1.042   9.293 -0.5032  0.5475 -2.2517
12696SOL     OW42003   7.456   7.998   2.801  0.0496  0.2937 -0.0662
12696SOL    HW142004   7.530   7.942   2.778  0.1293  0.6895 -0.8219
12696SOL    HW242005   7.381   7.940   2.801 -0.1009  0.3963 -2.2769
12697SOL     OW42006   5.725   4.288   8.744 -0.7686  0.4916 -0.4278
12697SOL    HW142007   5.691   4.372   8.775 -0.2022  0.0168  1.6083
12697SOL    HW242008   5.731   4.234   8.823  0.7517 -0.8075 -1.3766
12698SOL     OW42009   2.080   8.315   3.776  0.1385 -0.0762  0.0766
12698SOL    HW142010   2.142   8.358   3.834  1.0236 -1.1722 -0.0122
12698SOL    HW242011   2.000   8.306   3.828  0.5729 -0.0688  0.7595
12699SOL     OW42012   4.381   1.910   7.799 -0.2748  0.5824 -0.4429
12699SOL    HW142013   4.429   1.830   7.778 -0.4707 -0.5140  2.7045
12699SOL    HW242014   4.396   1.967   7.724  2.8273 -1.0726 -1.2812
12700SOL     OW42015   5.609   0.084   5.937 -0.5729  0.2756 -0.0646
12700SOL    HW142016   5.689   0.045   5.903 -0.2861 -0.0326  0.9107
12700SOL    HW242017   5.609   0.174   5.905  1.3091  0.9743  1.6886
12701SOL     OW42018   7.196   3.795   1.034  0.2120  0.0430 -0.4537
12701SOL    HW142019   7.210   3.717   1.089  0.5394  1.1028  1.0243
12701SOL    HW242020   7.106   3.787   1.004 -0.0556 -0.4664  0.4414
12702SOL     OW42021   6.197   7.886   1.180 -0.9538  0.7017 -0.1642
12702SOL    HW142022   6.164   7.822   1.243  3.6655 -0.5587  1.4201
12702SOL    HW242023   6.212   7.965   1.233  0.8446  0.3553 -0.0751
12703SOL     OW42024   1.354   1.048   4.732  0.2668 -0.0811  0.1535
12703SOL    HW142025   1.312   1.120   4.779  0.3281 -0.5376  0.9122
12703SOL    HW242026   1.448   1.059   4.750  0.4515  0.6343 -1.1178
12704SOL     OW42027   8.056   3.049   6.230 -0.3476 -0.1535  0.1632
12704SOL    HW142028   8.076   3.054   6.136 -1.8254 -2.6723 -0.4035
12704SOL    HW242029   7.985   3.112   6.242 -1.0322 -0.7205 -0.7346
12705SOL     OW42030   4.577   9.424   5.062  0.1411  0.2134 -0.2365
12705SOL    HW142031   4.485   9.420   5.036 -0.3793  0.5921  1.4235
12705SOL    HW242032   4.619   9.353   5.014 -1.3290 -0.9835  0.1826
12706SOL     OW42033   8.540   1.466   4.423 -0.3051 -0.0003 -0.3309
12706SOL    HW142034   8.447   1.442   4.431 -0.2712 -0.3992 -1.0664
12706SOL    HW242035   8.560   1.509   4.506 -1.5539  1.4855 -0.7515
12707SOL     OW42036   6.695   3.632   6.094 -0.0996 -0.0603  0.1199
12707SOL    HW142037   6.782   3.594   6.106 -0.1118  0.0334  0.4937
12707SOL    HW242038   6.635   3.563   6.122 -0.1231  0.2240  0.7627
12708SOL     OW42039   5.557   9.400   4.487 -0.1155 -0.0753 -0.3317
12708SOL    HW142040   5.506   9.480   4.470 -1.4159 -0.8730 -0.3351
12708SOL    HW242041   5.506   9.353   4.553  2.1564  0.4662  1.9689
12709SOL     OW42042   6.846   5.032   3.796  0.5785 -0.4507 -0.0240
12709SOL    HW142043   6.797   4.974   3.738  0.2135  0.3446 -0.5317
12709SOL    HW242044   6.877   5.102   3.739  2.9675 -1.3002  0.1359
12710SOL     OW42045   6.187   9.841   1.325 -0.3073 -0.7216  0.2878
12710SOL    HW142046   6.200   9.851   1.231  0.8784  0.3573  0.5294
12710SOL    HW242047   6.269   9.803   1.357 -0.1091  0.2967  1.0587
12711SOL     OW42048   5.565   8.007   8.054 -0.4961 -0.0480  0.0159
12711SOL    HW142049   5.539   8.096   8.029 -0.9688 -0.8751 -2.8123
12711SOL    HW242050   5.622   7.978   7.983  0.5589 -1.6468  1.4427
12712SOL     OW42051   6.804   6.029   6.457 -0.2515 -0.2288 -0.4015
12712SOL    HW142052   6.829   6.015   6.366 -0.1693 -1.2086 -0.2313
12712SOL    HW242053   6.800   5.942   6.496 -2.3432 -0.0080  0.0057
12713SOL     OW42054   1.651   2.140   8.705  0.7318  0.1832  0.0186
12713SOL    HW142055   1.646   2.152   8.610 -1.9656 -1.6633 -0.1639
12713SOL    HW242056   1.731   2.088   8.718  1.4250  0.9075 -1.1339
12714SOL     OW42057   3.073   5.624   4.813 -0.3881 -0.6085  0.3437
12714SOL    HW142058   3.126   5.598   4.737 -1.5362  0.6399 -0.9219
12714SOL    HW242059   3.105   5.567   4.884  0.3617 -2.1703 -1.1651
12715SOL     OW42060   4.279   8.778   9.918 -0.5347  0.4864 -0.5525
12715SOL    HW142061   4.244   8.829   9.845 -0.6745  0.6733 -0.3552
12715SOL    HW242062   4.277   8.687   9.887  1.0669  0.7139 -1.4741
12716SOL     OW42063   7.915   3.479   0.808  0.4589  0.9326  0.0813
12716SOL    HW142064   7.923   3.406   0.871  2.2186  2.7707  2.1611
12716SOL    HW242065   7.865   3.442   0.735  3.5536 -3.2021 -0.2767
12717SOL     OW42066   8.479   8.878   1.560 -0.6126  0.1722 -0.1479
12717SOL    HW142067   8.477   8.815   1.632 -0.9819 -0.5314 -0.7623
12717SOL    HW242068   8.566   8.869   1.522  0.9037  2.9437  2.2519
12718SOL     OW42069   5.101   0.244   7.367 -0.2223 -0.4406  0.6143
12718SOL    HW142070   5.062   0.236   7.454 -0.4300 -0.9813  0.4783
12718SOL    HW242071   5.116   0.338   7.356 -1.8657 -0.1593  0.5098
12719SOL     OW42072   6.149   8.594   7.950 -0.0092 -0.5741 -0.2698
12719SOL    HW142073   6.100   8.581   8.032 -0.6697 -1.3443 -0.7753
12719SOL    HW242074   6.215   8.659   7.973 -1.9146  1.3367  0.1801
12720SOL     OW42075   5.908   4.111   6.132 -0.3973 -0.0434 -0.7389
12720SOL    HW142076   5.970   4.040   6.152  2.2400  2.7323  1.9432
12720SOL    HW242077   5.937   4.145   6.048 -1.5234 -1.8412 -1.9248
12721SOL     OW42078   8.130   4.523   7.363 -0.2997 -0.2607 -0.1626
12721SOL    HW142079   8.220   4.538   7.391 -0.0451  0.7470 -1.4261
12721SOL    HW242080   8.113   4.432   7.386  1.6887 -1.0499 -1.5258
12722SOL     OW42081   8.698   3.859   0.266  0.9184 -0.2081 -0.4853
12722SOL    HW142082   8.732   3.771   0.283  0.1080 -0.8906 -2.1295
12722SOL    HW242083   8.710   3.871   0.172  1.8321  1.8392 -0.1495
12723SOL     OW42084   9.514   3.168   8.866 -0.3071 -0.0643  0.7873
12723SOL    HW142085   9.485   3.085   8.826 -1.1821 -0.2630  1.7742
12723SOL    HW242086   9.519   3.229   8.793 -1.3640 -0.5532  0.2837
12724SOL     OW42087   4.282   4.425   3.842 -0.2966  0.0052 -0.2817
12724SOL    HW142088   4.352   4.462   3.788  0.1135  1.3863  1.1041
12724SOL    HW242089   4.259   4.496   3.903 -1.4443 -1.1374  0.6753
12725SOL     OW42090   7.551   0.364   9.626 -0.3414  0.6833 -0.2146
12725SOL    HW142091   7.525   0.305   9.556  0.5663 -1.1993  0.9703
12725SOL    HW242092   7.638   0.395   9.600 -0.0958  0.1547 -0.0333
12726SOL     OW42093   2.705   4.685   3.712 -0.5624 -0.3314 -0.4423
12726SOL    HW142094   2.645   4.753   3.742 -0.9830 -0.4904 -0.9100
12726SOL    HW242095   2.767   4.732   3.656 -0.0037 -0.1001  0.3456
12727SOL     OW42096   6.589   8.443   8.308 -0.1397 -0.0676  0.1034
12727SOL    HW142097   6.565   8.508   8.241 -1.3639 -0.8556 -0.2511
12727SOL    HW242098   6.536   8.467   8.383 -1.5826 -1.3904 -0.4464
12728SOL     OW42099   1.125   9.008   3.765 -0.4104 -0.0130  0.0682
12728SOL    HW142100   1.206   9.047   3.731 -0.9648  0.5933 -0.5742
12728SOL    HW242101   1.097   8.948   3.697  0.0823 -1.0666  0.7719
12729SOL     OW42102   8.483   2.342   5.087  0.2208 -0.2064 -0.4576
12729SOL    HW142103   8.557   2.318   5.144 -0.5788 -2.0576 -0.1323
12729SOL    HW242104   8.524   2.387   5.013  1.4844  0.3961  0.5577
12730SOL     OW42105   6.023   7.576   3.632  0.1936 -0.3525 -0.0429
12730SOL    HW142106   6.109   7.544   3.658  0.1843 -1.4121 -1.2261
12730SOL    HW242107   5.965   7.552   3.705  0.9633  0.8425  0.9996
12731SOL     OW42108   1.827   6.427   2.963  0.2930  0.4197  0.3283
12731SOL    HW142109   1.841   6.438   2.869 -1.5016 -3.3097 -0.5568
12731SOL    HW242110   1.899   6.371   2.992  1.9943  3.1492  1.7655
12732SOL     OW42111   7.912   5.476   3.374 -0.0090 -0.3336  0.4395
12732SOL    HW142112   7.887   5.384   3.381 -2.0410 -0.0068 -1.4099
12732SOL    HW242113   7.839   5.524   3.413  0.7518  0.5270  0.8350
12733SOL     OW42114   6.680   8.849   3.381 -0.2217 -0.4119  0.3377
12733SOL    HW142115   6.651   8.761   3.404 -1.2243 -0.3187 -0.5288
12733SOL    HW242116   6.770   8.853   3.413 -0.7185 -1.1534  1.9119
12734SOL     OW42117   5.092   1.228   5.996 -0.2994  0.4513 -0.0350
12734SOL    HW142118   5.076   1.135   5.978  0.3815  0.0924  1.0950
12734SOL    HW242119   5.147   1.257   5.923 -0.6195  0.0038 -0.4640
12735SOL     OW42120   8.800   1.081   6.066 -0.1389 -0.4419  0.4706
12735SOL    HW142121   8.881   1.129   6.050  0.1801 -0.8172  0.9031
12735SOL    HW242122   8.762   1.068   5.979  0.6025 -0.8294  0.1873
12736SOL     OW42123   9.273   2.279   9.761  0.5466 -0.4270 -0.2499
12736SOL    HW142124   9.202   2.343   9.760  0.6729 -0.2870 -0.3246
12736SOL    HW242125   9.232   2.198   9.731  0.3573 -0.4128 -0.0331
12737SOL     OW42126   2.694   2.723   4.353 -0.4380 -0.4787  0.1788
12737SOL    HW142127   2.633   2.694   4.420 -0.5265  0.7274  0.6450
12737SOL    HW242128   2.642   2.728   4.273 -1.3458  1.8702  0.8475
12738SOL     OW42129   7.343   3.763   2.715 -0.5657 -0.0561  0.0679
12738SOL    HW142130   7.260   3.726   2.686 -0.9432  1.2133 -0.5855
12738SOL    HW242131   7.352   3.735   2.806 -1.0007 -1.3751 -0.2730
12739SOL     OW42132   3.097   3.846   3.675 -0.4186  0.2280 -0.6444
12739SOL    HW142133   3.185   3.880   3.686  0.2451 -1.4356 -0.4942
12739SOL    HW242134   3.045   3.889   3.742  0.4438  0.6834 -0.2615
12740SOL     OW42135   8.921   1.784   0.805  0.5946  0.7577 -0.1743
12740SOL    HW142136   8.954   1.786   0.715 -0.2386  0.2281 -0.5013
12740SOL    HW242137   8.851   1.849   0.807 -1.6584 -1.4918 -0.8571
12741SOL     OW42138   0.415   0.881   8.288  0.1577  0.1477  0.5712
12741SOL    HW142139   0.493   0.936   8.294  0.1377  0.1810  0.5195
12741SOL    HW242140   0.433   0.821   8.216  0.3946 -0.2506  0.9578
12742SOL     OW42141   4.431   1.583   7.237 -0.0654 -1.0728  0.0587
12742SOL    HW142142   4.488   1.649   7.277 -1.5046 -0.3130  0.9260
12742SOL    HW242143   4.383   1.630   7.169 -1.2408 -1.1345  0.8118
12743SOL     OW42144   4.682   1.847   9.053 -0.0925 -0.3099  0.5699
12743SOL    HW142145   4.637   1.932   9.055 -0.9192 -0.6673 -0.8980
12743SOL    HW242146   4.619   1.786   9.092  0.4090 -0.3133  1.4098
12744SOL     OW42147   1.247   0.632   6.825  0.2145  0.5788 -0.6139
12744SOL    HW142148   1.309   0.563   6.802 -0.0590 -0.4631  1.5144
12744SOL    HW242149   1.300   0.699   6.868 -0.0435 -0.2605  1.1023
12745SOL     OW42150   1.273   5.073   3.903  0.0779 -0.1715 -0.0840
12745SOL    HW142151   1.182   5.089   3.928  0.4402  0.9919  0.5883
12745SOL    HW242152   1.294   5.144   3.842  0.6736 -0.1191  0.1685
12746SOL     OW42153   4.203   5.745   6.868  0.1578  0.2208  0.2187
12746SOL    HW142154   4.170   5.792   6.792 -0.4892 -0.2849  0.1748
12746SOL    HW242155   4.291   5.717   6.843  0.1314  0.4734 -0.1615
12747SOL     OW42156   4.550   9.228   7.689 -0.0968 -0.7017  0.3864
12747SOL    HW142157   4.506   9.208   7.607 -0.1457  1.3526 -0.1635
12747SOL    HW242158   4.622   9.166   7.694 -0.2454 -1.0264 -1.0972
12748SOL     OW42159   9.882   1.547   5.700  1.1486  0.0670  0.0266
12748SOL    HW142160   9.804   1.597   5.724  0.4099 -0.8733 -0.3476
12748SOL    HW242161   9.947   1.613   5.678  0.6521  0.8796  0.9350
12749SOL     OW42162   7.430   4.695   8.585  0.0725 -0.0431  0.0248
12749SOL    HW142163   7.362   4.761   8.575 -1.5244 -1.8442 -2.2034
12749SOL    HW242164   7.437   4.655   8.499 -0.5118 -4.0623  1.6030
12750SOL     OW42165   3.876   4.869   3.127 -1.1657 -0.0046  0.1800
12750SOL    HW142166   3.843   4.791   3.081 -0.6309 -1.4834  2.1690
12750SOL    HW242167   3.944   4.835   3.186 -1.5971  1.8265  1.8209
12751SOL     OW42168   8.221   2.203   7.374 -0.0145  0.7876 -0.0697
12751SOL    HW142169   8.255   2.212   7.463 -0.3890  0.4271  0.1152
12751SOL    HW242170   8.298   2.188   7.320  0.0215 -2.2392  0.6370
12752SOL     OW42171   0.499   2.575   3.052 -0.4028  0.1436 -0.0109
12752SOL    HW142172   0.450   2.502   3.089  0.9024 -0.0220  1.5219
12752SOL    HW242173   0.591   2.549   3.061  0.0391  0.3422 -2.9826
12753SOL     OW42174   1.501   4.865   8.234  0.1213 -0.4437  0.5356
12753SOL    HW142175   1.544   4.815   8.303 -0.3326 -0.5251  0.7582
12753SOL    HW242176   1.414   4.885   8.268 -0.2191 -0.7493 -0.1294
12754SOL     OW42177   3.035   2.189   2.683  0.2856 -0.1635  0.4491
12754SOL    HW142178   3.028   2.278   2.718 -1.0963  0.0014 -0.1708
12754SOL    HW242179   3.012   2.198   2.590 -1.2452 -1.3536  0.6684
12755SOL     OW42180   2.777   2.649   0.991  0.0146  0.3953  0.6685
12755SOL    HW142181   2.700   2.667   1.045 -0.6684 -0.7969  0.1287
12755SOL    HW242182   2.784   2.725   0.933 -0.9535  0.3646  0.5045
12756SOL     OW42183   7.871   8.668   5.413  0.1273  0.5491  0.3644
12756SOL    HW142184   7.928   8.689   5.340  0.4151  1.1651  0.7587
12756SOL    HW242185   7.806   8.739   5.414 -1.2326 -0.6095 -0.6439
12757SOL     OW42186   1.635   1.118   4.751 -0.6660 -0.7227  0.0634
12757SOL    HW142187   1.644   1.063   4.673 -0.5772  0.0372 -0.4777
12757SOL    HW242188   1.722   1.155   4.765 -1.3020  1.4186 -1.2223
12758SOL     OW42189   6.531   8.206   5.418 -0.2579 -0.4625 -0.0369
12758SOL    HW142190   6.604   8.152   5.389  1.0175  0.7026  0.9104
12758SOL    HW242191   6.488   8.234   5.337  0.4179 -1.0447 -0.6133
12759SOL     OW42192   2.014   7.112   0.874 -0.0384 -0.3423  0.3058
12759SOL    HW142193   2.021   7.072   0.961 -2.0711 -1.7389 -0.0977
12759SOL    HW242194   1.935   7.166   0.878 -0.2472 -0.5480 -0.7009
12760SOL     OW42195   3.886   4.589   6.960 -0.3280  0.8709 -0.1935
12760SOL    HW142196   3.910   4.555   7.046  0.2363  0.0688 -0.6539
12760SOL    HW242197   3.814   4.650   6.978 -0.8156  0.0587  0.7493
12761SOL     OW42198   3.210   1.989   7.547  0.3052 -0.3765  0.4367
12761SOL    HW142199   3.183   2.062   7.603 -0.8096 -0.6297  0.2448
12761SOL    HW242200   3.255   2.031   7.474  0.9424  0.0181  1.0386
12762SOL     OW42201   9.858   1.554   1.863 -0.1392 -0.1323  0.1324
12762SOL    HW142202   9.880   1.577   1.773  1.4810 -1.9304 -0.0214
12762SOL    HW242203   9.798   1.622   1.892  0.9394  1.6588 -1.6074
12763SOL     OW42204   8.863   2.794   3.546 -0.1142  0.3362 -0.6816
12763SOL    HW142205   8.772   2.768   3.565  0.8526 -1.8965  1.3780
12763SOL    HW242206   8.894   2.729   3.483  0.8235 -0.5765  0.6788
12764SOL     OW42207   1.163  10.086   5.966  0.1584 -0.5254 -0.2233
12764SOL    HW142208   1.188  10.177   5.985  1.0058 -0.6888 -0.5361
12764SOL    HW242209   1.155  10.045   6.052  3.1683 -1.0386 -0.0653
12765SOL     OW42210   2.267   7.164   9.579 -0.2195 -0.5873 -0.4994
12765SOL    HW142211   2.350   7.185   9.623  0.2196  0.1342 -1.6137
12765SOL    HW242212   2.291   7.099   9.512 -0.6920 -0.9418 -0.3293
12766SOL     OW42213   4.489   0.852   6.988 -0.2611 -0.1539  0.3077
12766SOL    HW142214   4.427   0.810   7.048 -1.2461 -0.6632 -1.0300
12766SOL    HW242215   4.460   0.944   6.985  0.3568  0.0959  1.2802
12767SOL     OW42216   7.071   6.706   2.582 -0.4004 -0.4839  0.0999
12767SOL    HW142217   7.007   6.739   2.519  1.0231 -0.1193 -1.1982
12767SOL    HW242218   7.045   6.615   2.597 -2.1363  0.0935  0.8340
12768SOL     OW42219  10.045   2.280   8.882 -0.2021 -0.2888  0.8086
12768SOL    HW142220   9.986   2.204   8.887  0.4607 -1.0325 -1.3257
12768SOL    HW242221   9.987   2.353   8.859 -0.6273 -0.4728  1.2698
12769SOL     OW42222   3.552   1.711   0.688  0.3538 -0.6011  0.2136
12769SOL    HW142223   3.581   1.796   0.655  1.8187 -1.7648 -1.7713
12769SOL    HW242224   3.537   1.725   0.782  0.4562  1.8306 -0.0749
12770SOL     OW42225   9.525   1.124   9.274  0.2191  0.2128 -0.1833
12770SOL    HW142226   9.570   1.103   9.192 -0.9263 -1.0807 -0.5326
12770SOL    HW242227   9.480   1.207   9.257  1.7949  1.1227 -0.0763
12771SOL     OW42228   5.027   2.631   1.397 -0.5511 -0.5962 -0.5587
12771SOL    HW142229   4.979   2.623   1.480 -2.5897 -1.7294 -1.7533
12771SOL    HW242230   5.116   2.652   1.423 -1.2812 -0.1531  1.8880
12772SOL     OW42231   4.271   2.967   3.082  0.1730  0.1063 -0.2294
12772SOL    HW142232   4.357   2.991   3.049  1.0972 -0.4065  1.6587
12772SOL    HW242233   4.281   2.966   3.178 -1.6072 -1.1020 -0.0008
12773SOL     OW42234   2.444   5.246   0.474 -0.3821 -0.4542 -0.0427
12773SOL    HW142235   2.490   5.167   0.446 -1.2362 -1.5520  1.5367
12773SOL    HW242236   2.467   5.255   0.567 -0.6674  0.9072 -0.0848
12774SOL     OW42237   0.510   3.152   4.929 -0.2173 -0.2614 -0.5237
12774SOL    HW142238   0.482   3.076   4.879  0.3870 -0.5608 -0.4124
12774SOL    HW242239   0.603   3.163   4.907  0.3460 -1.0210  1.2803
12775SOL     OW42240   2.291   9.767   1.767 -0.7049  0.1216 -0.6018
12775SOL    HW142241   2.202   9.779   1.732  0.5907  0.2481 -4.2175
12775SOL    HW242242   2.338   9.721   1.698  2.1604  0.3226  1.0756
12776SOL     OW42243   8.475   1.849   5.453 -0.2143 -0.0631  0.6247
12776SOL    HW142244   8.472   1.775   5.514 -0.0903  0.0142  0.7229
12776SOL    HW242245   8.567   1.872   5.447 -0.1183 -0.6146 -0.2483
12777SOL     OW42246   0.078   4.486   7.428  0.0004 -0.1064 -0.6639
12777SOL    HW142247   0.158   4.499   7.478 -0.1687 -1.0259 -0.1389
12777SOL    HW242248   0.022   4.560   7.453  0.1616 -0.2105  0.0302
12778SOL     OW42249   6.300  10.193   6.578 -0.0213 -0.1135  0.0251
12778SOL    HW142250   6.346  10.238   6.508 -1.4739  1.1022 -0.2057
12778SOL    HW242251   6.356  10.202   6.654  0.3385  0.9055 -0.3575
12779SOL     OW42252   6.269   8.293   0.590  0.1273 -0.4645 -0.1427
12779SOL    HW142253   6.244   8.203   0.565 -0.2433  0.1189 -2.0727
12779SOL    HW242254   6.230   8.306   0.676 -0.4629 -1.8986 -0.1651
12780SOL     OW42255   9.975   9.866   4.136  0.2487  0.2081  0.1467
12780SOL    HW142256   9.884   9.843   4.153  0.7995 -4.8954 -2.0439
12780SOL    HW242257   9.983   9.864   4.041  2.8631 -0.9419  0.3029
12781SOL     OW42258  10.145   4.211   2.637 -0.1145  0.6128  0.1857
12781SOL    HW142259  10.232   4.230   2.673  0.7453 -1.4231 -0.6652
12781SOL    HW242260  10.113   4.139   2.692  0.1352 -0.7953 -1.4372
12782SOL     OW42261   2.031   4.158   0.485 -0.3424 -0.8757  0.3490
12782SOL    HW142262   2.060   4.118   0.403  1.9839 -0.3187  0.8246
12782SOL    HW242263   1.940   4.183   0.468  0.4630  0.5142 -2.5776
12783SOL     OW42264   3.688   0.825   1.961  0.4723 -0.3302 -0.2309
12783SOL    HW142265   3.709   0.918   1.954  1.3522 -0.4212  0.8688
12783SOL    HW242266   3.599   0.817   1.927 -0.5536  1.3364  1.8422
12784SOL     OW42267   8.659   8.592   7.371  0.0610  0.0153 -0.2095
12784SOL    HW142268   8.581   8.536   7.375  1.3242 -1.8327  0.1330
12784SOL    HW242269   8.649   8.652   7.445 -1.3085  0.2281 -0.5333
12785SOL     OW42270   0.219   5.051   0.312 -0.1482 -0.5585  0.2297
12785SOL    HW142271   0.163   5.125   0.336 -0.5776 -0.7136 -0.2745
12785SOL    HW242272   0.262   5.026   0.393 -1.1368 -0.7079  0.7270
12786SOL     OW42273   2.118   8.060   3.094 -0.2802 -0.4234 -0.0943
12786SOL    HW142274   2.074   7.981   3.064  0.3206 -1.6313  2.0153
12786SOL    HW242275   2.050   8.108   3.142 -0.2149 -0.4967  0.0715
12787SOL     OW42276   5.687   4.322   7.151  0.1698  0.4906  0.3825
12787SOL    HW142277   5.755   4.320   7.218 -0.4201  2.8312  1.1520
12787SOL    HW242278   5.614   4.274   7.190  0.4450  0.2904  0.6598
12788SOL     OW42279   8.475   1.744   2.157 -0.2421 -0.4883  0.1152
12788SOL    HW142280   8.425   1.670   2.191 -0.9282 -0.3573 -0.5737
12788SOL    HW242281   8.520   1.781   2.233 -0.4633 -1.1758  0.5817
12789SOL     OW42282   6.894   3.419   0.830  0.2457 -0.6040 -0.5668
12789SOL    HW142283   6.823   3.443   0.889  1.5317 -0.6342  1.0492
12789SOL    HW242284   6.857   3.349   0.775 -1.0867 -0.3195 -0.0553
12790SOL     OW42285   7.373   3.426  10.140 -0.2724 -0.0274  0.0833
12790SOL    HW142286   7.380   3.417  10.045 -0.8193  0.0322  0.0329
12790SOL    HW242287   7.324   3.507  10.153 -2.6313 -1.4054  0.3410
12791SOL     OW42288   0.481   9.866   1.087 -0.0005  0.1247 -0.1109
12791SOL    HW142289   0.401   9.867   1.139 -0.1104  0.6521 -0.2909
12791SOL    HW242290   0.487   9.954   1.050 -0.0987 -0.3253 -1.2463
12792SOL     OW42291   0.728   8.715   9.177 -0.3692  1.0168  0.2454
12792SOL    HW142292   0.814   8.728   9.137 -0.1596 -0.3986  0.1896
12792SOL    HW242293   0.692   8.803   9.187  1.0590  1.6227  0.2054
12793SOL     OW42294  10.148   3.003   1.150  0.4158 -0.4005 -0.1359
12793SOL    HW142295  10.215   3.047   1.099 -1.2293  0.4659 -1.6551
12793SOL    HW242296  10.130   3.062   1.224 -0.3707  0.5770 -1.0747
12794SOL     OW42297   9.541   2.379   8.416 -0.2042 -0.4364 -0.5776
12794SOL    HW142298   9.458   2.414   8.382 -0.3905 -1.4989 -1.2831
12794SOL    HW242299   9.521   2.288   8.438  0.3941 -0.2741  0.7248
12795SOL     OW42300   9.574   5.834   8.976  0.1503 -0.0881 -0.1412
12795SOL    HW142301   9.521   5.786   9.040  1.6327 -0.4179  0.8794
12795SOL    HW242302   9.559   5.926   8.998 -1.4794 -0.0876 -1.1101
12796SOL     OW42303   6.934   3.713   0.303  0.4083 -0.2831 -0.1332
12796SOL    HW142304   6.845   3.688   0.327  0.2457 -0.4481 -0.8569
12796SOL    HW242305   6.934   3.710   0.207  1.1882 -0.2789 -0.1411
12797SOL     OW42306   6.073   3.421   1.650 -0.1357 -0.5137 -0.2644
12797SOL    HW142307   6.056   3.408   1.557  1.7313 -0.7191 -0.5970
12797SOL    HW242308   6.133   3.495   1.654 -0.9889  0.1672  0.8739
12798SOL     OW42309   8.547   6.516   7.742 -0.0852  0.6649 -0.0999
12798SOL    HW142310   8.525   6.451   7.675  1.2627 -1.2119  1.1639
12798SOL    HW242311   8.596   6.584   7.696 -1.9284  1.0805 -1.5440
12799SOL     OW42312   6.933   6.605   8.953 -0.8131  0.1361 -0.0885
12799SOL    HW142313   6.837   6.605   8.959 -0.7753 -0.1631  0.6285
12799SOL    HW242314   6.959   6.689   8.990 -0.7212 -0.5341  1.4473
12800SOL     OW42315   2.311   1.093   2.381  0.3056 -0.2956 -0.0793
12800SOL    HW142316   2.344   1.179   2.405  2.6715 -1.4273  1.0864
12800SOL    HW242317   2.390   1.040   2.366 -1.0330 -2.4317 -0.0639
12801SOL     OW42318   1.035   4.867   3.987  0.4374 -0.1927 -0.3010
12801SOL    HW142319   0.988   4.945   4.015  0.3200 -0.0169 -0.9728
12801SOL    HW242320   0.971   4.796   3.997  1.1637 -0.5654  2.2634
12802SOL     OW42321   5.569   9.714   4.973  0.1125  0.2116 -0.0805
12802SOL    HW142322   5.484   9.752   4.952 -0.9142 -0.7730  1.9206
12802SOL    HW242323   5.606   9.687   4.889 -1.7706  0.2514 -0.9572
12803SOL     OW42324   5.823   6.794   2.153 -0.5243  0.4678 -0.3152
12803SOL    HW142325   5.893   6.742   2.115 -0.7542 -1.1127  1.2922
12803SOL    HW242326   5.800   6.857   2.085  1.7474  0.3709 -1.2394
12804SOL     OW42327   5.367   8.923   7.175 -0.2447 -0.0075  0.0545
12804SOL    HW142328   5.321   8.993   7.128 -0.2372 -0.0071  0.0476
12804SOL    HW242329   5.445   8.906   7.122  0.6386  1.1359  0.9249
12805SOL     OW42330   3.932   2.903   7.245 -0.8108  0.2455  0.1345
12805SOL    HW142331   3.963   2.858   7.323  1.1684 -0.2637 -0.8692
12805SOL    HW242332   3.889   2.834   7.193 -0.3827  0.1280 -0.0764
12806SOL     OW42333   6.017   1.331   1.487  0.1965 -0.2656  0.0139
12806SOL    HW142334   6.010   1.238   1.508  1.6898 -0.4244 -0.0881
12806SOL    HW242335   6.054   1.333   1.399  2.1317  0.3784  0.7634
12807SOL     OW42336   8.528   4.506   9.232 -0.4042 -0.3895  0.5035
12807SOL    HW142337   8.547   4.539   9.320  0.1470 -1.0466  0.6371
12807SOL    HW242338   8.475   4.428   9.246  1.7522 -1.9520  0.3948
12808SOL     OW42339   8.567   0.315   9.825  0.2066  0.5274  0.4103
12808SOL    HW142340   8.501   0.261   9.869 -0.9521 -1.3446 -3.2415
12808SOL    HW242341   8.516   0.380   9.777  1.1541  0.4781 -0.6846
12809SOL     OW42342   8.014   8.996   0.423  0.4254  0.4263  0.0495
12809SOL    HW142343   7.973   8.911   0.439 -1.0508  1.4285  2.1138
12809SOL    HW242344   8.091   8.977   0.370 -0.3483 -2.0730 -0.2726
12810SOL     OW42345   8.920   7.582   0.225  0.4489  0.4826 -0.1093
12810SOL    HW142346   8.972   7.609   0.149  1.7237 -0.7578  0.2763
12810SOL    HW242347   8.975   7.519   0.271 -2.0312 -2.3269 -0.6564
12811SOL     OW42348   5.066   8.229   9.380 -0.1378  0.5026  0.4020
12811SOL    HW142349   5.128   8.158   9.398  0.3749  1.2034  1.5181
12811SOL    HW242350   4.980   8.186   9.379  0.3136 -0.4247 -0.8308
12812SOL     OW42351   1.467   0.112   3.562  0.4476 -0.8253  0.5660
12812SOL    HW142352   1.496   0.203   3.551  0.2256 -1.0758 -4.5182
12812SOL    HW242353   1.446   0.105   3.655  2.8577  3.5267  1.7290
12813SOL     OW42354   1.963   9.023   2.994  0.2672 -0.5552 -0.9563
12813SOL    HW142355   1.900   9.021   3.066 -0.0344 -0.9952 -1.2263
12813SOL    HW242356   2.047   9.037   3.037 -0.0059  0.0241 -0.5889
12814SOL     OW42357   3.372   6.032   9.409  0.1172  0.2421  0.1317
12814SOL    HW142358   3.303   5.978   9.448 -0.4404 -0.6924 -2.0545
12814SOL    HW242359   3.381   6.106   9.470 -2.9147  0.4965  0.4439
12815SOL     OW42360   3.454   7.463   9.293 -0.3020 -0.6380 -0.2632
12815SOL    HW142361   3.392   7.535   9.283  0.9371  0.3037 -1.6605
12815SOL    HW242362   3.512   7.491   9.364  0.3039 -0.1331 -0.9422
12816SOL     OW42363   9.608   3.717   0.952  0.2133 -0.4838 -0.3103
12816SOL    HW142364   9.519   3.731   0.920  0.4394 -0.7040 -1.0450
12816SOL    HW242365   9.664   3.767   0.893  0.5072  0.5651  0.7995
12817SOL     OW42366   8.154   9.039   2.042  0.1883 -0.2744  0.7042
12817SOL    HW142367   8.061   9.020   2.036  0.0738 -0.0649  1.6380
12817SOL    HW242368   8.182   9.053   1.952 -1.0608  1.4463  0.5360
12818SOL     OW42369   5.723   0.211   3.528  0.0845  0.2409 -0.2559
12818SOL    HW142370   5.804   0.255   3.504 -0.4281  0.7943 -1.0175
12818SOL    HW242371   5.674   0.205   3.446 -0.1350 -1.1784 -0.0451
12819SOL     OW42372   9.181   2.241   3.282  0.7674  0.4642  0.1526
12819SOL    HW142373   9.104   2.212   3.233  1.9980 -3.0192  0.0337
12819SOL    HW242374   9.250   2.179   3.259  2.3742  0.6553  3.7165
12820SOL     OW42375   5.793   2.196   7.539  0.2324  0.3268  0.2910
12820SOL    HW142376   5.845   2.217   7.617  0.6574 -1.8398  0.6564
12820SOL    HW242377   5.858   2.176   7.472 -0.0953 -1.0098  0.3427
12821SOL     OW42378   6.055   2.011   3.862 -0.2689 -0.1138  0.3941
12821SOL    HW142379   5.988   2.062   3.816 -1.3102 -1.3334  0.5059
12821SOL    HW242380   6.072   2.060   3.942 -0.2150  0.7837 -0.1594
12822SOL     OW42381   6.529   8.483   1.535  0.1071 -0.7350 -0.2969
12822SOL    HW142382   6.460   8.545   1.510  2.0136  1.2789 -0.8299
12822SOL    HW242383   6.606   8.510   1.485  2.3255 -0.5777  2.8617
12823SOL     OW42384   4.791   3.427   5.634  0.0617  0.0164 -0.7645
12823SOL    HW142385   4.860   3.447   5.698 -0.1201 -0.3194 -0.4577
12823SOL    HW242386   4.742   3.508   5.626 -0.4998 -0.2042  0.2552
12824SOL     OW42387   5.347   7.680   4.191 -0.1970 -0.0617  0.0273
12824SOL    HW142388   5.421   7.692   4.131 -1.1307 -0.3388 -1.2215
12824SOL    HW242389   5.381   7.706   4.277  1.7355 -1.4238 -0.2647
12825SOL     OW42390   1.889   5.720   1.656 -0.1593 -0.5375 -0.5048
12825SOL    HW142391   1.894   5.714   1.560 -0.4435  0.2698 -0.5772
12825SOL    HW242392   1.915   5.810   1.676  0.5258 -0.8863  0.2312
12826SOL     OW42393   2.140   7.404   3.251  0.0313  0.5388 -0.8690
12826SOL    HW142394   2.136   7.423   3.345  1.7090 -0.4189 -0.5538
12826SOL    HW242395   2.195   7.474   3.215  0.0556  0.4571 -0.9905
12827SOL     OW42396   3.592   9.231   7.258  0.4889  0.2183  0.4080
12827SOL    HW142397   3.502   9.205   7.273 -0.0215  1.6454 -0.0214
12827SOL    HW242398   3.633   9.154   7.219 -0.0853 -0.9981  2.1194
12828SOL     OW42399   3.512   0.234   8.917  0.2328 -0.3826 -0.4584
12828SOL    HW142400   3.460   0.216   8.839 -3.5579 -0.5156  1.8704
12828SOL    HW242401   3.517   0.150   8.962 -1.8657  0.5539  1.6977
12829SOL     OW42402   3.693   0.631   0.269  0.2519 -0.0514  0.2157
12829SOL    HW142403   3.704   0.588   0.184  0.3518 -1.9125  1.1165
12829SOL    HW242404   3.778   0.674   0.284  0.5769 -0.5396 -0.1802
12830SOL     OW42405   8.384   3.151   6.035 -0.1455 -0.3057 -0.1657
12830SOL    HW142406   8.401   3.175   6.126 -0.9207  2.2591 -0.6103
12830SOL    HW242407   8.292   3.125   6.034  0.1163 -1.2704 -0.0755
12831SOL     OW42408   9.471   0.878   0.070  0.2012 -0.1116 -0.1795
12831SOL    HW142409   9.538   0.923   0.121  1.3610 -0.3480 -1.4563
12831SOL    HW242410   9.466   0.791   0.110  0.3534  0.0344  0.1682
12832SOL     OW42411   2.306   1.083   8.711  0.5800 -0.1479  0.0103
12832SOL    HW142412   2.342   1.021   8.773  0.1566 -2.2254 -1.6857
12832SOL    HW242413   2.381   1.133   8.679  1.2831 -1.2301 -0.0831
12833SOL     OW42414   5.783   5.411   6.584 -0.3334 -0.1158  0.2476
12833SOL    HW142415   5.715   5.462   6.627 -1.6166 -0.9352 -0.7398
12833SOL    HW242416   5.864   5.436   6.629 -1.4200  0.0444  2.2133
12834SOL     OW42417   6.303   3.875   8.005 -0.5952  0.1020  0.6358
12834SOL    HW142418   6.387   3.833   8.025 -1.3893 -1.9331 -0.0205
12834SOL    HW242419   6.250   3.860   8.083 -0.7204  0.3611  0.6014
12835SOL     OW42420   1.486   8.781   2.307  0.6854 -0.0980 -0.7362
12835SOL    HW142421   1.397   8.788   2.340  0.2988 -1.2080 -1.4857
12835SOL    HW242422   1.478   8.793   2.212  1.3284 -0.2157 -0.8108
12836SOL     OW42423   0.794   4.247   6.203 -0.5895 -0.3380  0.1657
12836SOL    HW142424   0.751   4.328   6.231  0.0571 -0.2549  0.9407
12836SOL    HW242425   0.886   4.260   6.223 -0.6301 -1.7281  1.4670
12837SOL     OW42426   4.778   7.296   6.228 -0.1067  0.2074 -0.0794
12837SOL    HW142427   4.821   7.377   6.254  0.2557  1.0817 -2.9471
12837SOL    HW242428   4.849   7.233   6.219  0.4151  1.0041 -2.5132
12838SOL     OW42429   2.610   9.499   4.541  0.4654 -0.2448 -0.7210
12838SOL    HW142430   2.673   9.470   4.474  1.1727 -0.7480  0.1478
12838SOL    HW242431   2.664   9.538   4.609 -0.2149 -0.1846 -0.2122
12839SOL     OW42432   9.576   9.605   1.753 -0.7053  0.2719  0.6139
12839SOL    HW142433   9.505   9.617   1.690 -0.7476  0.3005  0.6664
12839SOL    HW242434   9.532   9.598   1.838 -0.5686  2.1849  0.9036
12840SOL     OW42435   7.308   9.291   2.047  0.5569 -0.5467 -0.7593
12840SOL    HW142436   7.239   9.356   2.060 -0.8450 -1.8766 -1.2554
12840SOL    HW242437   7.345   9.278   2.134  0.5696  0.5875 -0.5805
12841SOL     OW42438   6.072   6.782   0.834 -0.1704 -0.5760  0.0964
12841SOL    HW142439   6.087   6.837   0.757 -2.2029 -0.6185 -0.3999
12841SOL    HW242440   6.154   6.734   0.846  0.5775  0.2725 -1.3598
12842SOL     OW42441   5.089   6.858   3.829 -0.6208  0.5285 -0.4144
12842SOL    HW142442   5.025   6.900   3.772 -0.0100  2.9787  0.5583
12842SOL    HW242443   5.074   6.765   3.817 -2.2184  0.9793 -2.5937
12843SOL     OW42444   5.886   6.410   2.470 -0.6107  0.4045 -0.2944
12843SOL    HW142445   5.960   6.432   2.527 -0.6922 -1.7621  0.7666
12843SOL    HW242446   5.926   6.374   2.391 -0.4058 -2.2657  0.9077
12844SOL     OW42447   0.601   2.882   6.441  0.1699  0.6389  0.4770
12844SOL    HW142448   0.575   2.863   6.531  0.2796  1.1801  0.6243
12844SOL    HW242449   0.526   2.928   6.403 -0.6777 -1.2613 -0.3159
12845SOL     OW42450   3.905   1.903   7.884 -0.1747 -0.3454 -0.2945
12845SOL    HW142451   3.817   1.941   7.879 -0.6146 -1.1728  0.8144
12845SOL    HW242452   3.891   1.809   7.874  0.7689 -0.3773 -1.7168
12846SOL     OW42453   1.242   2.709   5.072 -0.3425  0.2064  0.9116
12846SOL    HW142454   1.178   2.713   5.000 -1.3073  0.2286  1.7410
12846SOL    HW242455   1.284   2.624   5.061 -1.1033 -0.1728  0.8239
12847SOL     OW42456  10.153   1.908   1.279 -0.9678 -0.1728  0.0326
12847SOL    HW142457  10.102   1.942   1.353  0.9540  2.1236  0.4419
12847SOL    HW242458  10.170   1.817   1.301 -4.2392 -0.8759  0.1683
12848SOL     OW42459   5.986   7.475   1.681  0.3123  0.1941 -0.0010
12848SOL    HW142460   5.891   7.477   1.665  0.4104  0.9121 -0.5195
12848SOL    HW242461   6.015   7.564   1.663  0.7637  0.5669  2.2482
12849SOL     OW42462   9.360   3.441   3.991  0.6822  0.3980  0.3321
12849SOL    HW142463   9.417   3.518   3.991  0.0487  0.8840  0.2505
12849SOL    HW242464   9.334   3.430   3.900 -0.7183  1.2504  0.5869
12850SOL     OW42465   7.791   9.317   2.795  0.2409  0.6721 -0.8088
12850SOL    HW142466   7.783   9.377   2.721 -0.0428  0.5000 -0.9182
12850SOL    HW242467   7.794   9.230   2.756 -0.4345  0.5466 -0.5902
12851SOL     OW42468   0.432   9.838   8.312 -0.3933  0.2339  0.0115
12851SOL    HW142469   0.350   9.804   8.276  0.5516 -0.6249 -1.4244
12851SOL    HW242470   0.500   9.796   8.259  1.0522 -0.2840  2.1529
12852SOL     OW42471   4.880   7.450   4.510 -0.3078 -0.2317  0.0782
12852SOL    HW142472   4.928   7.503   4.574 -0.9756 -1.2651  1.4999
12852SOL    HW242473   4.908   7.360   4.527 -0.8115 -0.5754 -0.8178
12853SOL     OW42474   8.633   3.243   0.497 -0.2097  0.1237 -0.2536
12853SOL    HW142475   8.619   3.247   0.592 -1.1961  1.8894 -0.4244
12853SOL    HW242476   8.554   3.201   0.463  0.2800 -0.7929 -0.2932
12854SOL     OW42477   3.821   1.668   5.066  0.0367 -0.1859  0.6674
12854SOL    HW142478   3.745   1.642   5.014  1.4912 -1.6701 -0.8602
12854SOL    HW242479   3.891   1.608   5.038  2.1161  1.8924  1.0638
12855SOL     OW42480   1.202   9.485   4.580 -0.2655  0.6138 -0.0252
12855SOL    HW142481   1.207   9.576   4.552 -0.6629  0.7361  0.2992
12855SOL    HW242482   1.193   9.489   4.675 -1.3563  0.2805 -0.0944
12856SOL     OW42483   7.293   9.904   6.702  0.5589 -0.2067 -0.5140
12856SOL    HW142484   7.290   9.920   6.608  0.6774  0.3710 -0.4235
12856SOL    HW242485   7.320   9.812   6.710 -2.4522 -1.2769 -1.0929
12857SOL     OW42486   7.685   3.193   3.337  0.1265  0.1707 -0.1263
12857SOL    HW142487   7.781   3.189   3.337  0.0800 -1.8789  0.2890
12857SOL    HW242488   7.657   3.105   3.360 -1.8716  0.9716  0.7793
12858SOL     OW42489   8.056   8.533   2.080 -0.6970 -0.1398  0.0705
12858SOL    HW142490   8.105   8.614   2.064  1.4915 -1.4739 -0.3939
12858SOL    HW242491   8.049   8.528   2.176 -1.6192  0.9735  0.0939
12859SOL     OW42492   1.224   2.867   5.923  0.6416  0.4356 -0.4664
12859SOL    HW142493   1.226   2.878   6.018  2.3337 -0.7803 -0.3239
12859SOL    HW242494   1.146   2.812   5.907  1.3261 -0.8458  0.4301
12860SOL     OW42495   0.370   3.941   1.614 -0.0779  0.7210 -0.2389
12860SOL    HW142496   0.285   3.908   1.642  0.4189 -0.7575 -0.4030
12860SOL    HW242497   0.432   3.904   1.677  0.6366  0.3026 -1.1740
12861SOL     OW42498   6.748   9.544   1.101 -0.2400  0.0155  0.3024
12861SOL    HW142499   6.821   9.606   1.104 -0.6615  0.5387 -0.0760
12861SOL    HW242500   6.685   9.579   1.164 -0.8303  0.4315 -0.5032
12862SOL     OW42501   6.105   9.906   6.224 -0.0767 -0.2280  0.7859
12862SOL    HW142502   6.117   9.983   6.280 -0.7334 -0.8094  1.7510
12862SOL    HW242503   6.021   9.921   6.181 -0.8311 -1.0065  1.9704
12863SOL     OW42504   7.874   6.355   4.115 -0.2485  0.1485 -0.1035
12863SOL    HW142505   7.844   6.265   4.100 -0.2216  0.3071 -1.1668
12863SOL    HW242506   7.967   6.353   4.093 -0.4232  0.6158 -0.8819
12864SOL     OW42507   5.444   8.142   7.584 -0.3405  0.3115  0.0873
12864SOL    HW142508   5.534   8.112   7.590  0.0774  1.5251  0.2067
12864SOL    HW242509   5.394   8.065   7.557  0.3895 -0.9169  2.0560
12865SOL     OW42510   7.695   0.674   0.914 -0.9129  0.6489 -0.3904
12865SOL    HW142511   7.788   0.678   0.893 -0.6555  2.5699  0.9115
12865SOL    HW242512   7.655   0.634   0.837  0.8306  0.9167 -1.4897
12866SOL     OW42513   2.133   0.639   9.076 -0.1512 -0.2134  0.3832
12866SOL    HW142514   2.055   0.613   9.027 -1.5291 -0.2975  2.5098
12866SOL    HW242515   2.132   0.734   9.074  0.6548 -0.1929 -0.9384
12867SOL     OW42516   3.832   7.652   0.708  0.7656  0.1906  0.2920
12867SOL    HW142517   3.784   7.589   0.654  1.6419  0.8267 -1.2530
12867SOL    HW242518   3.913   7.607   0.732 -0.2861 -0.7033  2.5100
12868SOL     OW42519   4.580   9.670   9.212 -0.1615 -0.1081  0.4995
12868SOL    HW142520   4.592   9.678   9.117  1.0218 -1.5971  0.4753
12868SOL    HW242521   4.637   9.597   9.237  0.8862  1.3511  2.6440
12869SOL     OW42522   0.478   3.261   2.988  0.1377  0.2312  0.0939
12869SOL    HW142523   0.531   3.230   2.915  0.6327 -0.2877  0.6584
12869SOL    HW242524   0.408   3.196   2.996 -0.3170  0.6568 -0.3445
12870SOL     OW42525   3.036   3.819   4.786 -0.1132 -0.0951 -0.3852
12870SOL    HW142526   3.065   3.869   4.711  0.9010 -0.5562 -0.3144
12870SOL    HW242527   2.990   3.744   4.749  2.0193 -1.3499 -0.6585
12871SOL     OW42528   9.860   3.040   4.776  0.1479 -0.0662  0.4721
12871SOL    HW142529   9.841   3.039   4.870  0.4541 -0.0216  0.5363
12871SOL    HW242530   9.781   3.077   4.736 -0.1590 -0.4876  0.6691
12872SOL     OW42531   6.140   8.795   6.292 -0.0935 -0.3186  0.4413
12872SOL    HW142532   6.126   8.729   6.225  0.8869  2.0544 -2.3098
12872SOL    HW242533   6.235   8.799   6.303 -0.1005  0.9279  0.1968
12873SOL     OW42534   0.625   0.824   9.416  0.2964 -0.2503  0.1073
12873SOL    HW142535   0.639   0.893   9.351 -0.0122  0.1190  0.4263
12873SOL    HW242536   0.692   0.759   9.397  0.2258 -0.1306 -0.5612
12874SOL     OW42537   0.399   0.534   4.994 -0.0424  0.3826 -0.0703
12874SOL    HW142538   0.470   0.471   5.008 -0.3351 -0.5199 -2.2795
12874SOL    HW242539   0.440   0.606   4.947 -0.3827  0.2841 -0.5249
12875SOL     OW42540   8.142   6.367   6.876 -0.6079  0.6267 -0.3652
12875SOL    HW142541   8.101   6.306   6.815 -1.5093  0.3283  0.5206
12875SOL    HW242542   8.213   6.317   6.917 -0.6634  0.5106 -0.4125
12876SOL     OW42543   1.461   5.545   1.870 -0.0328  0.3557  0.0789
12876SOL    HW142544   1.510   5.510   1.944 -0.0659 -0.1274 -0.1290
12876SOL    HW242545   1.528   5.572   1.807 -0.0085 -2.0246 -1.0230
12877SOL     OW42546   4.920   5.729   5.286  0.4584  0.7852 -0.0138
12877SOL    HW142547   5.000   5.767   5.250  1.5287 -0.6586  0.7495
12877SOL    HW242548   4.948   5.647   5.327 -1.6936 -0.8471 -1.5224
12878SOL     OW42549   3.326   4.817   0.295 -0.2969 -0.0472 -0.5174
12878SOL    HW142550   3.252   4.797   0.353  0.1599  1.1506  0.5234
12878SOL    HW242551   3.381   4.739   0.298  0.9047  0.7770  2.5667
12879SOL     OW42552   4.771   0.336   3.154  0.4085 -0.0385 -0.1307
12879SOL    HW142553   4.740   0.345   3.064  0.5426  0.0176 -0.1715
12879SOL    HW242554   4.834   0.408   3.165  0.7849 -0.3563 -0.1614
12880SOL     OW42555   5.852   6.113   8.600 -0.2176 -0.5904 -0.4070
12880SOL    HW142556   5.866   6.185   8.661  1.6358 -3.2597  2.6412
12880SOL    HW242557   5.893   6.141   8.519 -0.4198  2.0932  0.3208
12881SOL     OW42558   6.415   1.606   5.880 -0.7883  0.0196  0.1669
12881SOL    HW142559   6.490   1.617   5.938 -1.5847 -2.7702  1.9221
12881SOL    HW242560   6.440   1.535   5.821 -0.8988  1.2320 -1.4280
12882SOL     OW42561   2.893   0.709   3.336 -0.3517  0.0832  0.4083
12882SOL    HW142562   2.799   0.704   3.352 -0.7420  0.4231 -1.5583
12882SOL    HW242563   2.926   0.763   3.408 -1.4185 -1.0986  1.8540
12883SOL     OW42564   5.152   4.329   2.422 -0.1537  0.2408 -0.4443
12883SOL    HW142565   5.225   4.355   2.366  1.3636  1.6873  2.0252
12883SOL    HW242566   5.168   4.236   2.439  2.1063  0.8511  1.2699
12884SOL     OW42567   6.390   1.479   5.486  0.1537 -0.2628  0.5261
12884SOL    HW142568   6.475   1.462   5.527  0.2954  1.8774  1.2088
12884SOL    HW242569   6.326   1.447   5.550  0.3690 -2.3503 -0.2022
12885SOL     OW42570   9.102   3.181   3.263  0.0687 -0.0094 -0.0747
12885SOL    HW142571   9.037   3.118   3.230  2.3915 -1.7479 -1.7542
12885SOL    HW242572   9.146   3.212   3.184  0.6462  1.9156  0.9400
12886SOL     OW42573   1.006   7.237   1.086  0.3844  0.8773 -0.1387
12886SOL    HW142574   1.095   7.269   1.074  0.1225  2.4867  1.7394
12886SOL    HW242575   0.973   7.224   0.997  2.3939  0.4689 -0.8553
12887SOL     OW42576   6.183   5.126   4.479 -0.2107 -0.1982  0.5186
12887SOL    HW142577   6.111   5.095   4.424  0.8136 -2.1613  0.1960
12887SOL    HW242578   6.249   5.057   4.474  1.9297  1.7338  0.4130
12888SOL     OW42579   0.552   1.018   5.099  0.0329 -0.4910  0.6858
12888SOL    HW142580   0.548   1.092   5.039  2.9514 -0.4974  0.3497
12888SOL    HW242581   0.557   0.941   5.042  4.1215 -0.4295  0.7068
12889SOL     OW42582   4.960   7.033   0.220  0.0727  0.0422 -0.8305
12889SOL    HW142583   4.941   7.017   0.127  2.2593  0.1713 -1.3349
12889SOL    HW242584   5.038   6.982   0.238  0.2247  0.7723  0.7105
12890SOL     OW42585   1.128   6.113   1.967 -0.1521  0.1599 -0.5713
12890SOL    HW142586   1.178   6.127   2.047 -1.4077 -0.1327  0.3036
12890SOL    HW242587   1.182   6.053   1.914  1.7982  2.2222 -1.0516
12891SOL     OW42588   7.001   2.522   2.412  0.4733 -0.1250 -0.6267
12891SOL    HW142589   6.949   2.455   2.367 -1.6898 -1.0337  2.8847
12891SOL    HW242590   6.944   2.599   2.413  0.3244 -0.2392  0.8090
12892SOL     OW42591   0.022   5.732   2.281  0.2465 -0.1643  0.1214
12892SOL    HW142592   0.099   5.718   2.336 -0.0165 -1.8760  0.1004
12892SOL    HW242593   0.024   5.660   2.218 -1.7678 -0.7295  0.6161
12893SOL     OW42594   5.715   6.638   7.793  0.3833  0.6613 -0.4053
12893SOL    HW142595   5.805   6.608   7.780  1.1230  2.6022 -0.0464
12893SOL    HW242596   5.711   6.665   7.885 -0.4216  1.0362 -0.5409
12894SOL     OW42597   5.736   4.253   5.072 -0.0688 -0.5216  0.2375
12894SOL    HW142598   5.641   4.256   5.084  0.0004 -0.1134  0.7067
12894SOL    HW242599   5.770   4.217   5.154  0.2879  0.7580  0.6813
12895SOL     OW42600   2.634   7.485   1.240  1.0565  0.1014 -0.1792
12895SOL    HW142601   2.565   7.550   1.224  2.5714  1.8124 -0.1463
12895SOL    HW242602   2.662   7.457   1.153  1.6994  0.9751 -0.2678
12896SOL     OW42603   4.567   9.218   7.143  0.1111  0.1798 -0.2111
12896SOL    HW142604   4.611   9.161   7.081  1.9787  2.3977 -1.0586
12896SOL    HW242605   4.635   9.277   7.175 -1.4247  1.0665  1.6813
12897SOL     OW42606   9.679   8.724   1.424  0.0845 -0.2014  0.7604
12897SOL    HW142607   9.621   8.783   1.472  0.1498 -0.6788  1.4409
12897SOL    HW242608   9.625   8.690   1.353  0.4825  1.8484 -0.6057
12898SOL     OW42609   8.737   8.187   0.508  0.1788 -0.1288 -0.2015
12898SOL    HW142610   8.703   8.212   0.422 -1.3034  0.4152  0.5033
12898SOL    HW242611   8.774   8.268   0.543  0.6439 -0.3143 -0.2534
12899SOL     OW42612   1.145   6.940   5.041 -0.9580  0.0542 -0.6546
12899SOL    HW142613   1.058   6.905   5.056 -1.0083  0.6836  0.6495
12899SOL    HW242614   1.204   6.875   5.078 -0.9600  0.4367  0.0247
12900SOL     OW42615   4.009   1.633   4.429  0.5696  0.0443 -0.0857
12900SOL    HW142616   4.030   1.653   4.338 -0.0322 -1.4321 -0.5734
12900SOL    HW242617   4.076   1.678   4.480  0.7225  1.1508 -1.2311
12901SOL     OW42618   0.451   3.846   4.077  0.2305 -0.1086 -0.2124
12901SOL    HW142619   0.477   3.924   4.027  0.6763 -0.1949 -0.1160
12901SOL    HW242620   0.356   3.856   4.087  0.1325 -0.0722 -1.0484
12902SOL     OW42621   7.636   6.316   0.018  0.5296  0.2925 -0.6339
12902SOL    HW142622   7.693   6.367  -0.040  0.3067 -1.6328 -2.6706
12902SOL    HW242623   7.693   6.250   0.056  0.2491  0.2516 -0.2771
12903SOL     OW42624   6.960   8.368   7.407  0.2855  0.0423 -0.4934
12903SOL    HW142625   6.941   8.362   7.501  0.5047  0.6281 -0.4107
12903SOL    HW242626   6.942   8.459   7.385 -1.0560 -0.3810 -1.3016
12904SOL     OW42627   8.448   1.170   6.729 -0.0231 -0.2387  0.1563
12904SOL    HW142628   8.447   1.110   6.654 -0.1212  0.6988 -0.6199
12904SOL    HW242629   8.426   1.255   6.691  1.0668  0.4774  1.0593
12905SOL     OW42630   3.554   7.140   0.101 -0.1924  0.1369  0.2172
12905SOL    HW142631   3.645   7.136   0.131  0.2073  0.9678 -0.8155
12905SOL    HW242632   3.531   7.049   0.082  0.4531 -0.0694  0.3945
12906SOL     OW42633   9.472   8.108   1.372  0.2441 -0.7859 -0.0768
12906SOL    HW142634   9.428   8.058   1.440 -0.1527 -1.1174 -0.5672
12906SOL    HW242635   9.563   8.113   1.401 -0.3235  0.9548  1.5581
12907SOL     OW42636   3.626   5.482   6.369 -0.1881  0.4416 -0.0906
12907SOL    HW142637   3.669   5.567   6.373  0.9231 -0.0531 -1.0788
12907SOL    HW242638   3.606   5.461   6.460  1.1311  0.9654  0.3408
12908SOL     OW42639   7.011   7.573   2.247 -0.4518  0.0410 -0.0171
12908SOL    HW142640   7.063   7.494   2.260 -0.4799 -0.0721 -0.5613
12908SOL    HW242641   7.075   7.640   2.222 -0.2998  0.4490  1.4100
12909SOL     OW42642   7.944   6.224   8.217 -0.4990  0.2883  0.0210
12909SOL    HW142643   7.918   6.295   8.277  0.9667  1.1245 -0.2866
12909SOL    HW242644   8.017   6.181   8.262  1.3290  1.5883 -1.5355
12910SOL     OW42645   6.120   7.289   8.479  0.5205 -0.5185  0.0855
12910SOL    HW142646   6.114   7.385   8.474  0.4933 -0.4738  0.8678
12910SOL    HW242647   6.072   7.258   8.403 -0.4558  0.0715  0.4346
12911SOL     OW42648   1.995   0.544   0.490  0.0166 -0.0495  0.3224
12911SOL    HW142649   1.954   0.621   0.450  0.6606 -0.3712 -1.0203
12911SOL    HW242650   1.925   0.502   0.539 -0.8122  0.3808 -0.4718
12912SOL     OW42651   2.717   9.094   2.699 -0.0010  0.5112 -0.1221
12912SOL    HW142652   2.669   9.153   2.641 -0.4366  0.3802  0.1060
12912SOL    HW242653   2.711   9.136   2.785 -1.9164 -0.7786  0.4318
12913SOL     OW42654   2.378   8.568   8.954  0.3933  0.2947 -0.2754
12913SOL    HW142655   2.296   8.538   8.993  0.5396 -0.8314 -0.8106
12913SOL    HW242656   2.372   8.664   8.957 -0.0912  0.2401  1.4583
12914SOL     OW42657   5.756   6.406   2.099 -0.0687 -0.4317 -0.4738
12914SOL    HW142658   5.699   6.483   2.088 -0.2050 -0.4188  0.2920
12914SOL    HW242659   5.697   6.331   2.089 -0.3405 -0.4142  0.8982
12915SOL     OW42660   8.375   7.989   2.599 -0.1252  0.0473 -0.2156
12915SOL    HW142661   8.394   8.057   2.534  0.2266  0.3116  0.1597
12915SOL    HW242662   8.279   7.990   2.607 -0.0872  0.9151  0.2235
12916SOL     OW42663   7.960   1.670   4.529  0.2984  0.5435  0.0820
12916SOL    HW142664   8.046   1.692   4.493  1.0567  0.0057  1.5227
12916SOL    HW242665   7.934   1.749   4.577  1.8938 -0.6241  3.1235
12917SOL     OW42666   7.981   8.624   3.948 -0.2140 -0.9573  0.0566
12917SOL    HW142667   8.001   8.563   3.877 -3.1389 -1.4450 -0.4740
12917SOL    HW242668   8.001   8.711   3.912  0.2891 -1.3267 -0.5782
12918SOL     OW42669   4.154   4.326   5.799 -0.1020  0.1718  0.1394
12918SOL    HW142670   4.164   4.376   5.880 -0.1244  0.7170 -0.1911
12918SOL    HW242671   4.135   4.392   5.732  1.0819 -0.1433 -0.5282
12919SOL     OW42672   3.380   0.046   6.501 -0.1491  0.1536  0.5142
12919SOL    HW142673   3.340   0.071   6.584  0.0750  0.8940  0.4030
12919SOL    HW242674   3.411  -0.044   6.515  3.2123  1.4754  2.4852
12920SOL     OW42675   2.264   4.259   1.166 -0.0874 -0.3895  0.3586
12920SOL    HW142676   2.262   4.334   1.106 -2.1239  0.1738  1.0386
12920SOL    HW242677   2.271   4.298   1.253 -0.3270 -1.0303  0.6707
12921SOL     OW42678   0.045   3.053   2.359 -0.1909  0.6345  0.1282
12921SOL    HW142679  -0.001   2.975   2.391  0.1687  0.3457 -0.0373
12921SOL    HW242680   0.041   3.115   2.431 -0.1418  0.3128  0.4094
12922SOL     OW42681   0.252   7.524   4.714 -0.1186 -0.2541  0.1969
12922SOL    HW142682   0.244   7.433   4.684 -0.5217 -0.1662  0.0204
12922SOL    HW242683   0.346   7.537   4.728 -0.0239 -0.5996 -0.0912
12923SOL     OW42684   5.865   6.566   1.576 -0.1898  0.4271 -0.2404
12923SOL    HW142685   5.898   6.649   1.611  1.7152 -0.8552  1.1972
12923SOL    HW242686   5.812   6.530   1.647 -1.3598  0.5637 -1.0134
12924SOL     OW42687   3.111   7.500   4.908  0.1294  0.3313 -0.1430
12924SOL    HW142688   3.076   7.553   4.835 -1.1820 -0.0905  0.1506
12924SOL    HW242689   3.200   7.532   4.920 -0.4605  2.1617 -0.2934
12925SOL     OW42690   0.638   6.141   4.222 -0.7810 -0.4108 -0.6235
12925SOL    HW142691   0.699   6.129   4.294  0.8844 -0.2845 -1.9337
12925SOL    HW242692   0.568   6.196   4.257 -0.2786 -0.7765  0.9995
12926SOL     OW42693   2.592   9.755   7.312 -0.4255  0.0206 -0.1820
12926SOL    HW142694   2.625   9.801   7.389 -0.2825 -0.5521  0.1022
12926SOL    HW242695   2.608   9.815   7.240  1.9939 -0.5501 -0.1984
12927SOL     OW42696   7.631   9.769   5.895  0.0734 -0.5731 -0.2726
12927SOL    HW142697   7.590   9.776   5.981 -0.3550 -0.0368 -0.5174
12927SOL    HW242698   7.662   9.857   5.875 -0.6510 -0.4807 -1.0648
12928SOL     OW42699   2.190   9.956   3.042  0.0165 -0.6896  0.0310
12928SOL    HW142700   2.158  10.011   3.113  0.0417  1.3002 -1.3949
12928SOL    HW242701   2.284   9.948   3.059  0.2059  0.6349 -0.2835
12929SOL     OW42702   3.867   4.707   9.356  0.0549  0.3101 -0.0794
12929SOL    HW142703   3.902   4.673   9.274  1.9015  1.3635  0.2256
12929SOL    HW242704   3.829   4.630   9.399  0.0524 -0.4671 -1.4012
12930SOL     OW42705  10.146   3.872   5.470 -0.3800  0.0335  0.4608
12930SOL    HW142706  10.172   3.891   5.380  0.4817  0.0380  0.7002
12930SOL    HW242707  10.087   3.796   5.462 -0.2729  0.0040 -0.0983
12931SOL     OW42708   9.534   5.125   2.330 -0.1215  0.3297 -0.1795
12931SOL    HW142709   9.568   5.069   2.260 -2.2011  2.6625 -3.2750
12931SOL    HW242710   9.496   5.063   2.393 -1.0251 -1.8659 -2.6962
12932SOL     OW42711   5.040   0.676   5.007  0.5311 -0.1041  0.8157
12932SOL    HW142712   5.128   0.712   5.008  0.5574 -0.1709  0.9173
12932SOL    HW242713   5.002   0.707   4.925  0.0668  1.2983  1.5195
12933SOL     OW42714  10.037   9.915   1.193 -0.7631  0.4168  0.0834
12933SOL    HW142715   9.941   9.916   1.183 -0.5888  1.1984 -2.4057
12933SOL    HW242716  10.056   9.988   1.251 -1.6922 -0.1070  1.0870
12934SOL     OW42717   9.106   9.018   2.029  0.6370  0.1439  0.0876
12934SOL    HW142718   9.101   9.112   2.047  1.3471  0.0181  1.0613
12934SOL    HW242719   9.137   9.012   1.939 -0.0888  0.8353 -0.2147
12935SOL     OW42720   8.276   6.212   7.200  0.8624  0.0335  0.0901
12935SOL    HW142721   8.267   6.171   7.114  0.5898 -0.8723  0.5368
12935SOL    HW242722   8.349   6.273   7.190 -1.0208  2.1947 -1.6157
12936SOL     OW42723   0.255   3.518   8.980  0.1672  0.1372 -0.8043
12936SOL    HW142724   0.266   3.578   8.906  1.3627  2.9889  1.4865
12936SOL    HW242725   0.335   3.465   8.980  0.4202  0.5147 -1.2151
12937SOL     OW42726   8.416   6.898   4.428 -0.1195  0.2705 -0.0522
12937SOL    HW142727   8.439   6.909   4.520  0.5967  1.4879 -0.3606
12937SOL    HW242728   8.500   6.898   4.382 -0.5316  0.8284 -0.8185
12938SOL     OW42729   3.914  10.040   3.931  0.1408 -0.0053  0.0394
12938SOL    HW142730   3.863  10.101   3.984 -0.6151 -1.9039  1.6214
12938SOL    HW242731   3.889  10.061   3.840  0.3729  2.3699  0.4684
12939SOL     OW42732   2.526   8.835   2.942 -0.1581 -0.2808 -0.1411
12939SOL    HW142733   2.557   8.800   2.858 -1.2900 -1.5473 -0.0656
12939SOL    HW242734   2.432   8.844   2.932 -0.4955 -1.5666  1.3281
12940SOL     OW42735   5.075   8.207   6.625  0.8339 -0.1173 -0.5206
12940SOL    HW142736   5.169   8.225   6.632  0.6423  0.5022  0.9183
12940SOL    HW242737   5.034   8.278   6.674 -0.3914 -0.4241 -1.0702
12941SOL     OW42738   0.694   9.633   9.889  0.0546 -0.5385 -0.0131
12941SOL    HW142739   0.634   9.602   9.821  0.2483  0.4423 -0.6583
12941SOL    HW242740   0.773   9.581   9.877  0.3190  0.0624 -0.9726
12942SOL     OW42741   8.635   6.832   4.993 -0.3932  0.4994 -0.2284
12942SOL    HW142742   8.542   6.852   4.978 -0.7495 -1.1995 -0.5157
12942SOL    HW242743   8.634   6.781   5.074  0.1714 -0.3659 -0.7586
12943SOL     OW42744  10.051   5.465   3.402 -0.3690  0.1314  0.0263
12943SOL    HW142745  10.033   5.450   3.310 -0.5046 -1.0467  0.2356
12943SOL    HW242746  10.146   5.457   3.410 -0.2605  1.0888 -0.1461
12944SOL     OW42747   2.275   4.688   7.882 -0.0593 -0.0446 -0.1275
12944SOL    HW142748   2.194   4.737   7.900 -0.4811 -0.8456  0.2150
12944SOL    HW242749   2.288   4.697   7.788  1.0118  2.4439  0.1893
12945SOL     OW42750   5.866   3.019   8.232  0.7182 -0.7783 -0.3456
12945SOL    HW142751   5.834   2.969   8.307  1.3538 -0.7489 -0.0490
12945SOL    HW242752   5.806   2.996   8.161  0.4304 -1.2233  0.0319
12946SOL     OW42753   3.755   5.170   7.567 -0.3207 -0.1284  0.0452
12946SOL    HW142754   3.680   5.230   7.570  0.2765  1.0557 -3.7495
12946SOL    HW242755   3.717   5.083   7.582 -1.6941  0.8036  2.5261
12947SOL     OW42756   2.482   3.300   4.030 -0.0330  0.0297 -0.2693
12947SOL    HW142757   2.420   3.262   4.092  0.3513 -1.1532 -0.5804
12947SOL    HW242758   2.505   3.227   3.972  2.1126  0.2529  0.2117
12948SOL     OW42759   2.243   7.364   2.201 -0.6235  0.1452 -0.4241
12948SOL    HW142760   2.272   7.272   2.199  0.4324  0.4384  0.3594
12948SOL    HW242761   2.149   7.360   2.189 -1.0909 -1.2853  2.7365
12949SOL     OW42762   3.097   4.033   2.440 -0.0417  0.2265  0.3101
12949SOL    HW142763   3.025   4.006   2.383 -0.6006  1.5677  0.3430
12949SOL    HW242764   3.088   3.979   2.518 -0.0123 -0.7606 -0.3615
12950SOL     OW42765   4.128   9.211   3.813 -0.3814  0.2840  0.3598
12950SOL    HW142766   4.144   9.305   3.814 -0.3915  0.2818  0.8836
12950SOL    HW242767   4.196   9.174   3.870 -1.0665  0.0869  1.0623
12951SOL     OW42768   8.751   9.136  10.126 -0.5391 -0.1060  0.3213
12951SOL    HW142769   8.822   9.149  10.189  1.0316  0.2078 -1.4450
12951SOL    HW242770   8.760   9.045  10.099  0.4367  0.4270 -1.2918
12952SOL     OW42771   3.229   5.073   7.842 -0.0009  0.2547  0.3428
12952SOL    HW142772   3.243   5.141   7.907  0.9942 -0.4755  0.9254
12952SOL    HW242773   3.169   5.112   7.778  0.7355  1.7520  0.5294
12953SOL     OW42774   6.408   4.608   8.773 -0.3060  0.5490  0.1161
12953SOL    HW142775   6.406   4.514   8.790  0.0602  0.1245 -1.9426
12953SOL    HW242776   6.486   4.639   8.819 -1.5208  0.2689  2.5047
12954SOL     OW42777   9.071   2.998   1.371  0.5308 -0.6866  0.2919
12954SOL    HW142778   9.035   2.947   1.444 -2.3294  2.1902  1.0993
12954SOL    HW242779   9.150   3.038   1.407 -1.1044  1.0992  2.1497
12955SOL     OW42780   6.340   9.204   5.352 -0.4549 -0.0971  0.1670
12955SOL    HW142781   6.290   9.163   5.282  1.1855 -2.5977  0.2947
12955SOL    HW242782   6.392   9.272   5.309 -1.7064  0.4934 -0.4554
12956SOL     OW42783   3.421   6.403   6.159  0.0436  0.0579 -0.2003
12956SOL    HW142784   3.375   6.477   6.199 -0.2910 -0.3897  0.2327
12956SOL    HW242785   3.468   6.443   6.085 -1.2572  0.4747 -0.8361
12957SOL     OW42786   1.252   6.282   7.251 -0.0596  0.2474  0.5723
12957SOL    HW142787   1.306   6.203   7.251 -1.0458 -0.4845 -0.8687
12957SOL    HW242788   1.292   6.339   7.186  0.4085  0.7968  1.3158
12958SOL     OW42789   0.165   7.078   7.641 -0.8635  0.2052 -0.7710
12958SOL    HW142790   0.069   7.079   7.644 -0.8959 -1.1376 -1.0097
12958SOL    HW242791   0.187   7.030   7.562  0.0207  0.8340 -0.9235
12959SOL     OW42792   6.461   4.986   3.591  0.5019  0.2276 -0.5897
12959SOL    HW142793   6.455   4.899   3.553  0.2577  0.3765 -0.8903
12959SOL    HW242794   6.490   4.970   3.681  0.3839 -0.1670 -0.6185
12960SOL     OW42795   5.727   7.528   6.206 -0.1883 -0.4909 -0.3027
12960SOL    HW142796   5.690   7.473   6.275  1.4918 -0.7021  0.4762
12960SOL    HW242797   5.719   7.476   6.126  0.2382 -1.3416  0.2036
12961SOL     OW42798   4.168   4.508   5.612  0.4543  0.4697  0.3348
12961SOL    HW142799   4.242   4.566   5.629 -0.3951  1.9104 -0.6290
12961SOL    HW242800   4.092   4.566   5.616 -0.3953 -0.4946 -1.1062
12962SOL     OW42801   0.288   0.927   5.493 -0.2663 -0.3744  0.2796
12962SOL    HW142802   0.280   0.957   5.402  0.3352  1.6241  0.8441
12962SOL    HW242803   0.375   0.955   5.520 -0.9772  0.3851  1.9211
12963SOL     OW42804   3.280   3.002   7.581 -0.2110 -0.0819 -0.5022
12963SOL    HW142805   3.239   2.998   7.668 -1.1825 -0.8393 -0.9746
12963SOL    HW242806   3.254   2.920   7.539 -0.6020  0.7249 -1.8762
12964SOL     OW42807   4.066   0.233   8.553 -0.1022  0.2237 -0.1667
12964SOL    HW142808   3.983   0.260   8.515 -0.6094  0.0170  0.7633
12964SOL    HW242809   4.119   0.205   8.478 -0.4737  1.3503 -0.8723
12965SOL     OW42810   4.602   4.683   7.542 -0.2441 -0.3846  0.1012
12965SOL    HW142811   4.692   4.651   7.532 -0.2536 -0.0606 -1.1828
12965SOL    HW242812   4.608   4.777   7.525 -0.8700 -0.4064 -0.2648
12966SOL     OW42813   2.187   3.230   7.241  0.4487 -0.1891  0.2249
12966SOL    HW142814   2.181   3.212   7.147 -0.6743 -0.2468  0.2857
12966SOL    HW242815   2.277   3.261   7.255  0.4488  0.4084 -0.9787
12967SOL     OW42816   7.574   5.120   5.537  0.6615 -0.1877  0.0057
12967SOL    HW142817   7.517   5.065   5.482 -1.6298  2.5879 -0.6221
12967SOL    HW242818   7.645   5.148   5.479  0.3254 -0.2859 -0.4530
12968SOL     OW42819   0.875   8.511   3.394 -0.0383  0.1876 -0.1389
12968SOL    HW142820   0.957   8.504   3.443 -0.8893 -0.9901  1.2232
12968SOL    HW242821   0.896   8.477   3.307  0.8942 -0.1602  0.2054
12969SOL     OW42822   4.651   8.426   9.645 -0.0284  0.4775  0.3507
12969SOL    HW142823   4.661   8.384   9.730 -2.4065  0.1056  0.4997
12969SOL    HW242824   4.580   8.490   9.657  0.6834  1.5796 -0.9581
12970SOL     OW42825   0.723   9.658   4.278  0.0160  0.0696 -0.1066
12970SOL    HW142826   0.763   9.640   4.193  0.6974  1.5663 -0.1382
12970SOL    HW242827   0.797   9.674   4.336 -0.4550 -0.6132  0.7089
12971SOL     OW42828   9.853   3.138   2.454  0.1338 -0.0252  0.0174
12971SOL    HW142829   9.888   3.109   2.538 -0.3424  0.2884  0.3292
12971SOL    HW242830   9.931   3.160   2.402  0.4563 -0.9946  0.0855
12972SOL     OW42831   3.272   4.245   6.919  0.1642  0.5429  0.1698
12972SOL    HW142832   3.249   4.208   6.834  1.5750  0.5834 -0.2434
12972SOL    HW242833   3.340   4.310   6.900 -1.0810  2.2049  1.0588
12973SOL     OW42834   3.593   8.629   5.992  0.2087 -0.2892 -0.8829
12973SOL    HW142835   3.629   8.676   6.067 -0.1627 -1.9219  0.4007
12973SOL    HW242836   3.643   8.659   5.917  2.8371 -0.9226  0.4958
12974SOL     OW42837   8.882   0.352   6.531 -0.2328  0.0787 -0.1550
12974SOL    HW142838   8.943   0.318   6.466 -2.0300 -2.3935 -0.7056
12974SOL    HW242839   8.796   0.343   6.490 -1.2294  0.6238  1.7040
12975SOL     OW42840   4.099   8.236   0.328  0.2935 -0.4963  0.4561
12975SOL    HW142841   4.053   8.241   0.244  1.4064 -0.1538 -0.1683
12975SOL    HW242842   4.084   8.322   0.368  0.3001 -0.4241  0.3057
12976SOL     OW42843   4.335   9.161   2.151  0.2697 -0.2048  0.0183
12976SOL    HW142844   4.347   9.201   2.064  0.4676  2.1830  1.0803
12976SOL    HW242845   4.240   9.153   2.160  0.2686 -1.3410 -0.7547
12977SOL     OW42846   3.159   8.112   3.112  0.5202 -0.2242  0.2586
12977SOL    HW142847   3.064   8.110   3.104  0.4772  0.2845  0.6186
12977SOL    HW242848   3.189   8.158   3.033  0.4226  0.1668  0.4440
12978SOL     OW42849   9.232   7.523   9.049 -0.3415 -0.4579  1.1369
12978SOL    HW142850   9.229   7.612   9.013 -0.3025 -1.0142 -0.3169
12978SOL    HW242851   9.277   7.533   9.133 -0.3894  0.9011  1.0266
12979SOL     OW42852   1.784   9.783   6.266 -0.1116 -0.5443 -0.4930
12979SOL    HW142853   1.814   9.871   6.241  0.2083 -0.4580  0.1624
12979SOL    HW242854   1.854   9.750   6.322 -2.3710  0.7592  3.4987
12980SOL     OW42855   7.785   1.065   9.345  0.5472  0.4329 -0.0117
12980SOL    HW142856   7.749   1.003   9.282  1.1393  0.0786 -0.0104
12980SOL    HW242857   7.726   1.141   9.340  0.9222  0.6679 -1.4396
12981SOL     OW42858   3.984   9.422   2.322  0.1104 -0.2591 -0.1088
12981SOL    HW142859   4.068   9.434   2.277 -0.8586  3.2133 -1.3486
12981SOL    HW242860   3.990   9.476   2.400 -0.8363 -0.2784 -0.0029
12982SOL     OW42861   8.524   7.921   6.705  0.3692 -0.0587 -0.3996
12982SOL    HW142862   8.541   7.829   6.683  4.7154  0.9350 -2.2187
12982SOL    HW242863   8.596   7.946   6.763 -1.2177  2.0326  0.8120
12983SOL     OW42864   9.115   2.154   9.176  0.4585  0.4634  0.2512
12983SOL    HW142865   9.095   2.061   9.179 -0.0970  0.5719  0.1852
12983SOL    HW242866   9.102   2.184   9.266  1.4077  0.3314  0.4376
12984SOL     OW42867   9.565   8.332   4.682 -0.0395 -0.0709  0.2931
12984SOL    HW142868   9.507   8.304   4.753 -0.3877  0.0169  0.0499
12984SOL    HW242869   9.532   8.418   4.657 -0.0729 -0.2029 -0.1325
12985SOL     OW42870   2.642   6.560   2.506  0.3480  0.0393  0.0020
12985SOL    HW142871   2.588   6.636   2.528  0.9552  0.2682  0.7383
12985SOL    HW242872   2.657   6.569   2.412  1.4928  1.5696  0.2872
12986SOL     OW42873   3.915   4.715   7.671 -0.2554  0.3546  0.3647
12986SOL    HW142874   3.915   4.805   7.638 -0.3834  0.6711  1.1957
12986SOL    HW242875   3.864   4.666   7.606 -3.7250  1.6443  1.8435
12987SOL     OW42876   1.363   5.712   6.767 -0.2627  0.3943 -0.6528
12987SOL    HW142877   1.319   5.653   6.829 -1.0863  0.1522 -1.4427
12987SOL    HW242878   1.384   5.789   6.818  1.3308 -0.7798  0.5557
12988SOL     OW42879   4.630   8.144   5.995 -0.4673  0.2270 -0.2692
12988SOL    HW142880   4.667   8.217   5.945 -2.9617  0.9528 -1.2100
12988SOL    HW242881   4.636   8.172   6.086  1.6204  0.1035 -0.3321
12989SOL     OW42882   0.666   2.572   7.526  0.6423 -0.6448 -0.4023
12989SOL    HW142883   0.756   2.564   7.494  0.3465  0.3632 -1.5664
12989SOL    HW242884   0.636   2.657   7.493 -0.2661 -0.3027  1.2034
12990SOL     OW42885   9.430   6.116   3.523  0.1630 -0.1295 -0.2112
12990SOL    HW142886   9.430   6.210   3.542  0.4739 -0.1387 -0.1488
12990SOL    HW242887   9.370   6.106   3.449 -0.3919  0.0262  0.2136
12991SOL     OW42888   7.866   9.553   9.235 -0.0190  0.7816 -0.2161
12991SOL    HW142889   7.915   9.609   9.174  1.6358 -0.0637  0.2621
12991SOL    HW242890   7.892   9.464   9.212 -1.1248  0.3148  0.2754
12992SOL     OW42891   4.508   0.127   4.841 -0.1174 -0.0677 -0.3471
12992SOL    HW142892   4.500   0.032   4.839 -0.8487 -0.1177  1.9878
12992SOL    HW242893   4.583   0.144   4.898 -1.2367  0.7238  0.9626
12993SOL     OW42894   5.314   5.971   6.092 -0.8778  0.5118 -0.0635
12993SOL    HW142895   5.258   5.976   6.015 -0.6909 -0.0972 -0.2450
12993SOL    HW242896   5.261   6.008   6.163 -0.6349  2.1559 -0.6963
12994SOL     OW42897   3.314   9.240   7.262  0.0848 -0.1079 -0.1140
12994SOL    HW142898   3.259   9.314   7.238 -0.1689  0.1100  1.0823
12994SOL    HW242899   3.259   9.187   7.320 -0.1341 -1.8223 -1.7627
12995SOL     OW42900   3.033   1.894   2.384 -0.3241 -0.0014 -0.4284
12995SOL    HW142901   3.126   1.888   2.404 -1.0326 -0.3429  3.6663
12995SOL    HW242902   3.020   1.833   2.311  2.5106 -0.4336 -0.6924
12996SOL     OW42903   9.909   8.787   7.541 -0.1621 -0.0689 -0.0698
12996SOL    HW142904   9.966   8.814   7.470  0.8739 -1.4604  0.1849
12996SOL    HW242905   9.835   8.743   7.499 -0.7312  1.1356 -0.3663
12997SOL     OW42906   4.554   6.287   5.102  0.5248  0.4448  0.0028
12997SOL    HW142907   4.498   6.337   5.161 -0.4407 -0.8336  0.2200
12997SOL    HW242908   4.528   6.314   5.015 -1.3250 -0.9758  0.0588
12998SOL     OW42909   0.201  10.133   1.388  0.2975 -0.3780 -0.0568
12998SOL    HW142910   0.296  10.144   1.391  0.1445  1.1004  0.0388
12998SOL    HW242911   0.179  10.141   1.295  0.4506 -2.8076 -0.3657
12999SOL     OW42912   1.692   8.517   0.360  0.0003  0.1258  0.4034
12999SOL    HW142913   1.763   8.569   0.321  0.8463  1.0895  3.0070
12999SOL    HW242914   1.644   8.579   0.415 -2.1317 -0.8148 -0.2846
13000SOL     OW42915   8.016   8.838   7.062  0.3830  0.0410  0.0706
13000SOL    HW142916   7.934   8.887   7.053  0.2554  0.1445  1.5697
13000SOL    HW242917   8.002   8.759   7.010 -0.5735  0.1927  0.0780
13001SOL     OW42918   8.256   4.403   3.615 -0.3310  0.0371 -0.2406
13001SOL    HW142919   8.308   4.403   3.534 -0.9483 -1.1556 -0.6495
13001SOL    HW242920   8.322   4.399   3.685  0.2049  0.9179 -0.6710
13002SOL     OW42921   2.170   1.326   7.444 -0.6546  0.8849  0.2605
13002SOL    HW142922   2.107   1.398   7.435 -3.0294 -1.1960 -1.1801
13002SOL    HW242923   2.123   1.259   7.494  1.0620 -0.1160  0.6090
13003SOL     OW42924   6.419   5.836   3.842  0.6255  0.1571 -0.2294
13003SOL    HW142925   6.466   5.800   3.918 -0.1587 -0.2196  0.0796
13003SOL    HW242926   6.415   5.930   3.860  2.4315  0.4114 -0.9069
13004SOL     OW42927   8.755   6.116   5.495  0.5387  0.0034 -0.3361
13004SOL    HW142928   8.838   6.070   5.512 -0.5409 -1.6096  0.9146
13004SOL    HW242929   8.779   6.189   5.438  2.7522 -0.6475 -0.3297
13005SOL     OW42930   0.799   7.425   2.117  0.2736  0.2150 -0.3071
13005SOL    HW142931   0.724   7.451   2.064 -1.5994 -0.4337  1.8941
13005SOL    HW242932   0.817   7.335   2.090  0.7727  0.5915 -1.3186
13006SOL     OW42933   7.490   9.873   4.002  0.1975  0.3616 -0.1546
13006SOL    HW142934   7.477   9.968   3.998 -0.1281  0.3674  0.6683
13006SOL    HW242935   7.512   9.847   3.913 -0.1795  1.1480 -0.4836
13007SOL     OW42936   4.121   7.831   7.022  0.3270 -0.0330  0.0614
13007SOL    HW142937   4.038   7.869   6.994 -0.0313  0.3436  1.5368
13007SOL    HW242938   4.158   7.898   7.080  2.0990  0.2012 -1.2517
13008SOL     OW42939   6.100   4.087   7.352 -0.1221 -0.3691 -0.1785
13008SOL    HW142940   6.148   4.006   7.367 -0.0087 -0.1151  0.8650
13008SOL    HW242941   6.009   4.066   7.376  0.1052  0.1076  1.1387
13009SOL     OW42942   4.225   5.161   0.406  0.2095 -0.8545 -0.6103
13009SOL    HW142943   4.154   5.096   0.405  0.2669 -0.9286 -0.2555
13009SOL    HW242944   4.182   5.243   0.430  0.1643 -0.7949 -0.8907
13010SOL     OW42945   8.950   1.526   4.076  0.3496  0.7896 -0.0533
13010SOL    HW142946   8.976   1.611   4.041 -2.8080  1.0677 -2.1503
13010SOL    HW242947   8.892   1.547   4.149 -0.3421  0.4803 -0.4977
13011SOL     OW42948   7.242   8.209   1.727  0.1324 -0.4161 -0.5456
13011SOL    HW142949   7.174   8.162   1.774  0.5883 -0.5371  0.0057
13011SOL    HW242950   7.322   8.189   1.776  0.1076  2.4250  0.8280
13012SOL     OW42951   3.801   1.520   2.605 -0.2816 -0.4453 -0.2330
13012SOL    HW142952   3.847   1.444   2.570 -0.9679 -1.9414  1.9378
13012SOL    HW242953   3.806   1.511   2.700 -1.0506  1.8390  0.1099
13013SOL     OW42954   2.895   8.110   7.611  0.0197 -0.1597  0.0976
13013SOL    HW142955   2.916   8.037   7.553 -0.2870 -1.1274  1.1498
13013SOL    HW242956   2.977   8.126   7.658  0.3224  0.7488 -0.7255
13014SOL     OW42957   7.117   9.841   4.209 -0.2049 -0.0659  0.4688
13014SOL    HW142958   7.081   9.900   4.142  0.5457  1.2773  1.2103
13014SOL    HW242959   7.052   9.842   4.279  0.4635  1.0667  1.1038
13015SOL     OW42960   3.459   5.253   3.156 -0.2332 -0.2771 -0.7029
13015SOL    HW142961   3.449   5.274   3.248  0.0120 -2.7903 -0.0171
13015SOL    HW242962   3.369   5.245   3.123 -0.3198  0.1285 -0.5692
13016SOL     OW42963   8.307   5.798   5.593  0.1846 -0.5471  0.3954
13016SOL    HW142964   8.341   5.709   5.602  0.5566 -0.5348 -0.7318
13016SOL    HW242965   8.345   5.830   5.511  0.6137  0.8999  1.1244
13017SOL     OW42966   9.190   3.926   3.202  0.1754  0.2181  0.3296
13017SOL    HW142967   9.124   3.894   3.262 -0.6864 -1.7127 -1.5035
13017SOL    HW242968   9.257   3.857   3.199  0.3169  0.3735 -0.7129
13018SOL     OW42969   1.882   5.702   1.380 -0.3219  0.5326 -0.2074
13018SOL    HW142970   1.924   5.621   1.349 -0.2985  0.2142  0.6446
13018SOL    HW242971   1.863   5.751   1.299  3.8803  1.8349 -0.6824
13019SOL     OW42972   4.140   8.908   9.724  0.1308 -0.0371  0.3494
13019SOL    HW142973   4.189   8.919   9.643 -1.1502  0.3546 -0.4006
13019SOL    HW242974   4.129   8.997   9.758 -0.4241 -0.0757  0.2814
13020SOL     OW42975   6.118   7.140   5.539 -0.2851 -0.3197 -0.2552
13020SOL    HW142976   6.031   7.166   5.567 -0.4550 -2.4903  1.5771
13020SOL    HW242977   6.108   7.048   5.512  1.4612 -0.7503  0.3778
13021SOL     OW42978   8.049  10.162   7.431  0.2859 -0.7691  0.3937
13021SOL    HW142979   8.071  10.069   7.431  1.0516 -0.5930  0.1920
13021SOL    HW242980   8.130  10.206   7.408 -0.0798 -0.0465  0.4558
13022SOL     OW42981   7.348   1.025   8.913 -0.0567 -0.2756  0.0205
13022SOL    HW142982   7.295   1.070   8.979 -2.1586 -0.9868 -1.1011
13022SOL    HW242983   7.323   0.933   8.920  0.9140 -0.6142 -0.6661
13023SOL     OW42984   8.735   8.389   8.770  0.0653 -0.5240  0.2709
13023SOL    HW142985   8.787   8.459   8.809  0.6298 -1.7723  1.8707
13023SOL    HW242986   8.678   8.433   8.706 -0.1290  1.4667  1.7447
13024SOL     OW42987   3.989   9.991   5.677 -0.8043 -0.1114  0.2412
13024SOL    HW142988   3.974  10.044   5.755  0.2691  1.4217 -0.5386
13024SOL    HW242989   3.902   9.960   5.652 -1.3639  0.6834  1.1447
13025SOL     OW42990   9.728   2.829   9.668  0.6497  0.1945  0.1103
13025SOL    HW142991   9.733   2.898   9.601  1.1405 -0.5907 -0.6881
13025SOL    HW242992   9.669   2.864   9.735  1.0598  1.4643 -0.1799
13026SOL     OW42993   9.802   0.019   8.101 -0.1829 -0.2589 -0.5235
13026SOL    HW142994   9.892  -0.001   8.124 -0.3368  0.0151  0.3623
13026SOL    HW242995   9.756   0.023   8.185 -0.5361  1.9380 -0.7506
13027SOL     OW42996   7.779   5.950   4.950 -0.8536 -0.5674  0.1387
13027SOL    HW142997   7.727   6.026   4.926 -1.4361 -1.1677 -0.5524
13027SOL    HW242998   7.737   5.916   5.030  0.0459  0.4292  1.0681
13028SOL     OW42999   3.846   6.305   7.609 -0.1099 -0.2246 -0.0126
13028SOL    HW143000   3.765   6.316   7.659 -0.8612 -0.0728 -1.2236
13028SOL    HW243001   3.873   6.215   7.627 -0.6674 -0.3486  0.2343
13029SOL     OW43002   5.497   3.661   5.555 -0.0254  0.2087  0.0907
13029SOL    HW143003   5.545   3.632   5.632  2.0127 -2.4283 -1.9847
13029SOL    HW243004   5.535   3.746   5.534  0.9525 -0.0459  0.7629
13030SOL     OW43005   6.793   2.774   5.096  0.1367 -0.4852  0.0825
13030SOL    HW143006   6.841   2.857   5.102 -0.5380 -0.0727 -0.1256
13030SOL    HW243007   6.859   2.707   5.117  0.6312  0.1132  0.4916
13031SOL     OW43008   3.325   0.909   2.760 -0.2495 -0.3520 -0.4605
13031SOL    HW143009   3.323   0.925   2.854 -0.3173  1.2569 -0.7109
13031SOL    HW243010   3.381   0.832   2.750  1.9052  0.9755  0.7137
13032SOL     OW43011   7.624   8.935   0.249  0.6061  0.3477 -0.1940
13032SOL    HW143012   7.612   8.996   0.175 -0.1340 -1.1771 -1.3825
13032SOL    HW243013   7.537   8.925   0.286  0.8471  0.5185  0.4332
13033SOL     OW43014   3.550   1.667   4.588  0.6015  0.1912  0.4993
13033SOL    HW143015   3.532   1.696   4.677  0.9228 -0.6412  0.8491
13033SOL    HW243016   3.645   1.660   4.583  0.5183 -1.9494  0.8431
13034SOL     OW43017   8.944  10.168   7.287  0.0560 -0.2557  0.5891
13034SOL    HW143018   8.932  10.113   7.364  0.4224  0.0602  0.8759
13034SOL    HW243019   8.901  10.120   7.216  3.6133 -2.8481 -0.0934
13035SOL     OW43020   9.128   0.299   2.810 -0.3029  0.5223 -0.5842
13035SOL    HW143021   9.087   0.226   2.764  1.5585 -1.4363  0.6983
13035SOL    HW243022   9.056   0.360   2.827 -1.5585 -0.0120 -3.4285
13036SOL     OW43023   8.319   3.418   8.939  0.0648  0.3147 -0.5885
13036SOL    HW143024   8.261   3.399   8.865  1.8764 -2.6170 -1.4358
13036SOL    HW243025   8.405   3.432   8.899  0.4624  2.1888  0.7938
13037SOL     OW43026   2.375   2.118   7.784  0.0203 -0.0560  0.3383
13037SOL    HW143027   2.280   2.114   7.792 -0.1219 -2.0500 -1.3863
13037SOL    HW243028   2.391   2.191   7.724 -0.4589  0.0647  0.3517
13038SOL     OW43029   0.040   0.769   7.975 -0.3366 -0.2894  0.3300
13038SOL    HW143030   0.003   0.746   7.890  0.9146 -0.9586 -0.0683
13038SOL    HW243031   0.117   0.713   7.983 -0.9572 -0.9320  2.3433
13039SOL     OW43032   0.001   2.249   6.261  0.1989  0.1622  0.2845
13039SOL    HW143033  -0.012   2.182   6.327 -2.1733  0.5971  0.3600
13039SOL    HW243034  -0.080   2.301   6.263  0.5353  0.9217 -2.1085
13040SOL     OW43035   8.186   7.606   9.668 -0.0141  0.1461 -0.5397
13040SOL    HW143036   8.251   7.558   9.616 -0.8692 -0.9647 -0.6463
13040SOL    HW243037   8.237   7.654   9.733  0.9084 -0.8385 -0.5042
13041SOL     OW43038   9.648   3.638   9.849 -0.6368  0.5139 -0.1104
13041SOL    HW143039   9.578   3.572   9.853 -0.5793  0.3423 -1.4619
13041SOL    HW243040   9.653   3.673   9.938  0.9458 -2.9750  1.3691
13042SOL     OW43041   8.839   8.707   8.741  0.4633  0.4902  0.0939
13042SOL    HW143042   8.792   8.688   8.659 -0.2319  1.4499  0.2504
13042SOL    HW243043   8.800   8.788   8.772  3.5463  2.4764 -0.7719
13043SOL     OW43044   9.193   4.606   3.439 -0.4374  0.3883  0.3163
13043SOL    HW143045   9.266   4.668   3.430 -0.1632  0.0764  0.3853
13043SOL    HW243046   9.142   4.618   3.359  0.6229 -0.6050 -0.5399
13044SOL     OW43047   2.242   6.606   1.332 -0.5986  0.2209 -0.8907
13044SOL    HW143048   2.233   6.700   1.341 -1.5256 -0.0220  1.2260
13044SOL    HW243049   2.333   6.588   1.357 -1.4177  0.2585  2.7439
13045SOL     OW43050   2.100   2.408   0.030  0.1871  0.2659  0.4461
13045SOL    HW143051   2.192   2.385   0.018  0.1525  1.2241 -2.4684
13045SOL    HW243052   2.065   2.414  -0.059 -2.6548  0.1881  1.4638
13046SOL     OW43053   7.014   3.277   6.250 -0.2406  0.5129 -0.4089
13046SOL    HW143054   7.076   3.209   6.277 -3.0013 -2.5267 -1.0189
13046SOL    HW243055   6.985   3.318   6.331 -0.6983 -1.1988  0.3435
13047SOL     OW43056   3.117   5.650   8.604  0.3815  0.4544 -0.4331
13047SOL    HW143057   3.034   5.602   8.596  0.0610  1.1729 -1.6826
13047SOL    HW243058   3.183   5.582   8.613 -0.0761 -0.2621 -2.1190
13048SOL     OW43059   2.894   2.739   5.245  0.1342  0.2010 -0.4288
13048SOL    HW143060   2.964   2.804   5.232 -1.0461  1.7588  0.5536
13048SOL    HW243061   2.841   2.745   5.166  0.3127  0.0653 -0.5591
13049SOL     OW43062   3.844   2.136   7.566 -0.0325 -0.1795  0.0715
13049SOL    HW143063   3.861   2.150   7.659  0.3452 -0.4486  0.0460
13049SOL    HW243064   3.888   2.208   7.522 -0.7371  0.3030  0.1337
13050SOL     OW43065   5.544   9.316   9.523 -0.1418 -0.6072  0.7024
13050SOL    HW143066   5.482   9.331   9.595  0.8464 -0.0719  1.4785
13050SOL    HW243067   5.518   9.380   9.457 -0.5994 -0.5855  0.8946
13051SOL     OW43068   7.408   3.683   6.441  0.3029  0.4997 -0.1428
13051SOL    HW143069   7.461   3.749   6.397  1.3723 -1.0380 -1.2826
13051SOL    HW243070   7.382   3.723   6.523  4.1147  1.0018  0.9906
13052SOL     OW43071   7.793   1.794   4.146  0.1756  0.0210  0.4551
13052SOL    HW143072   7.745   1.719   4.113  0.4374 -0.0567  0.2459
13052SOL    HW243073   7.769   1.866   4.087  0.6212 -0.1112  0.1024
13053SOL     OW43074   6.407   7.542   1.771  0.3206 -0.1734  0.0808
13053SOL    HW143075   6.492   7.582   1.789 -0.6909  2.1165  0.0280
13053SOL    HW243076   6.344   7.595   1.820 -1.3057 -0.5367 -1.5067
13054SOL     OW43077   0.310   0.018   2.702  0.2337  0.1645 -0.9614
13054SOL    HW143078   0.292   0.101   2.746 -4.7427 -1.5112  0.7413
13054SOL    HW243079   0.269   0.028   2.616  1.2393  0.0026 -1.4775
13055SOL     OW43080   5.817   4.035   6.612 -0.1327 -0.1875 -0.2111
13055SOL    HW143081   5.903   4.074   6.598  0.0453 -1.0549 -1.8975
13055SOL    HW243082   5.763   4.105   6.649  0.5963  1.1573 -1.6005
13056SOL     OW43083   8.674   7.026   6.247  0.3579 -0.0477  0.2663
13056SOL    HW143084   8.696   7.031   6.340 -2.2771 -1.7903  1.0903
13056SOL    HW243085   8.732   6.958   6.212  2.0227  1.2625  0.3264
13057SOL     OW43086   2.861   2.455   2.135  0.0460  0.2503 -0.1072
13057SOL    HW143087   2.821   2.472   2.049  2.2368 -1.3276 -1.5498
13057SOL    HW243088   2.838   2.365   2.155 -1.6867  1.0460  1.7686
13058SOL     OW43089   9.458   4.836   1.653  0.5417 -0.2870  0.6326
13058SOL    HW143090   9.543   4.803   1.682  1.0999  0.7028  0.1704
13058SOL    HW243091   9.465   4.839   1.557  1.1242  2.5999  0.6762
13059SOL     OW43092   1.199   2.883   1.575 -0.3422  0.0125 -0.0850
13059SOL    HW143093   1.209   2.806   1.519  3.0995  0.2528 -0.0272
13059SOL    HW243094   1.233   2.854   1.660 -0.0062  1.2654  0.2239
13060SOL     OW43095   1.847   7.526   7.424  0.0338  0.2311 -0.5052
13060SOL    HW143096   1.940   7.506   7.436 -0.2871 -2.4783 -1.7529
13060SOL    HW243097   1.817   7.550   7.512  1.9026  1.3018 -0.0962
13061SOL     OW43098   1.619   4.030   1.145  0.2328  0.1071 -0.2575
13061SOL    HW143099   1.703   3.986   1.160  0.1013 -0.2049 -0.4235
13061SOL    HW243100   1.619   4.051   1.052  0.1336  0.1159 -0.2552
13062SOL     OW43101   4.017   8.542   6.567 -0.3946  0.3943 -0.5179
13062SOL    HW143102   3.992   8.455   6.598  0.1155  0.1302 -0.8427
13062SOL    HW243103   4.102   8.530   6.526 -0.1644  1.1115 -0.2678
13063SOL     OW43104   9.435   5.396   3.447  0.0172 -0.6882  0.5869
13063SOL    HW143105   9.428   5.471   3.506 -0.7989  0.4515 -0.8897
13063SOL    HW243106   9.518   5.355   3.470  1.3233  1.6471  0.3839
13064SOL     OW43107   8.912   9.527   2.357 -0.8156  0.3009 -0.3722
13064SOL    HW143108   8.821   9.498   2.362 -0.9519  0.2749 -2.1268
13064SOL    HW243109   8.957   9.456   2.311  0.1359  0.2625  0.5796
13065SOL     OW43110   6.899   1.675   9.323  0.2045  0.4986 -0.4487
13065SOL    HW143111   6.991   1.692   9.304  0.4888  0.3678  0.7162
13065SOL    HW243112   6.869   1.622   9.249  0.3381  2.6997 -2.1537
13066SOL     OW43113   7.374   7.372   9.911 -0.2188 -0.0848  0.4983
13066SOL    HW143114   7.309   7.436   9.939  1.7366  1.8093  0.9876
13066SOL    HW243115   7.359   7.361   9.817 -1.4752 -0.0146  0.6725
13067SOL     OW43116   0.398   0.859   2.529  0.2399 -0.5338 -0.4177
13067SOL    HW143117   0.400   0.798   2.603  0.7451  1.2601  1.1342
13067SOL    HW243118   0.322   0.914   2.545 -0.0374 -0.5447 -1.6269
13068SOL     OW43119   4.902   4.645   7.911 -0.2259 -0.3198 -0.3201
13068SOL    HW143120   4.829   4.697   7.945 -0.9513 -0.2361 -1.9080
13068SOL    HW243121   4.951   4.705   7.855  0.1019 -0.7990 -0.5611
13069SOL     OW43122   9.064   1.962   9.952 -0.1086  0.0117 -0.5581
13069SOL    HW143123   9.042   2.052   9.977 -0.4367  0.2950 -1.8085
13069SOL    HW243124   9.116   1.929  10.026  0.7674  1.5145 -0.4452
13070SOL     OW43125   3.635   7.337   2.868 -0.2963 -0.2759  0.2861
13070SOL    HW143126   3.617   7.281   2.943 -0.5312 -1.1521 -0.4162
13070SOL    HW243127   3.572   7.310   2.802 -1.8664  2.2440  0.6205
13071SOL     OW43128   7.710   5.813   6.019 -0.0688 -0.0680 -0.2229
13071SOL    HW143129   7.730   5.730   5.975 -2.5963  1.0206 -3.8969
13071SOL    HW243130   7.615   5.819   6.016 -0.1826  1.6273  2.8446
13072SOL     OW43131   0.382   5.853   3.493  0.0537 -0.5585  0.1693
13072SOL    HW143132   0.422   5.811   3.416  1.4084  0.9669 -0.0223
13072SOL    HW243133   0.408   5.798   3.566 -1.6555 -2.3121 -0.4470
13073SOL     OW43134   3.100   9.862   0.960 -0.0353 -1.1561  0.7786
13073SOL    HW143135   3.069   9.780   0.999 -1.4810 -0.9686  0.0788
13073SOL    HW243136   3.193   9.846   0.942  0.0201 -2.1744  1.8323
13074SOL     OW43137   3.994   8.784   1.241 -0.4403 -0.2575  0.0243
13074SOL    HW143138   4.044   8.810   1.164  0.3579 -1.4565  0.1110
13074SOL    HW243139   4.055   8.732   1.293 -1.1400  0.0505  1.1950
13075SOL     OW43140   0.010   9.002   6.615 -0.3042  0.3445  0.4992
13075SOL    HW143141  -0.082   8.995   6.638 -0.2955  0.3247  0.5289
13075SOL    HW243142   0.013   9.068   6.546 -0.2394  0.9833  1.1022
13076SOL     OW43143   7.953   2.743   4.222  0.1246 -0.2170  0.4804
13076SOL    HW143144   7.931   2.763   4.131  1.1722  1.5304  0.5553
13076SOL    HW243145   7.983   2.652   4.220 -0.5142 -0.4184 -0.7976
13077SOL     OW43146   4.523   8.501   6.397  0.0415 -0.4111 -0.6772
13077SOL    HW143147   4.591   8.487   6.330 -0.6032  0.6985 -1.5875
13077SOL    HW243148   4.567   8.551   6.465  1.1554 -2.8787  0.5633
13078SOL     OW43149   7.230   2.636   0.155 -0.0039  0.0730 -0.1657
13078SOL    HW143150   7.267   2.634   0.066 -1.8941  0.9261 -1.0368
13078SOL    HW243151   7.302   2.666   0.210  0.4243  2.7139 -1.9484
13079SOL     OW43152   4.167   4.496   2.920  0.3167 -0.6010 -0.4130
13079SOL    HW143153   4.252   4.480   2.961  0.5203  2.9683  0.8757
13079SOL    HW243154   4.104   4.450   2.975  1.1734 -1.2188  0.0747
13080SOL     OW43155   4.912   1.213  10.035 -0.5124  0.2704  0.1813
13080SOL    HW143156   4.994   1.171  10.064  0.1267  2.0616  1.1190
13080SOL    HW243157   4.918   1.213   9.940 -0.0184 -0.7109  0.1901
13081SOL     OW43158   1.260   3.857   0.914 -0.2915  0.4511  0.2442
13081SOL    HW143159   1.256   3.949   0.942 -1.1597  0.9413 -1.3251
13081SOL    HW243160   1.334   3.854   0.854 -2.1778  0.9664 -2.2661
13082SOL     OW43161   0.377   4.971   4.241  0.1111 -0.0012 -0.5219
13082SOL    HW143162   0.456   4.945   4.287  0.2173  0.4073 -0.4658
13082SOL    HW243163   0.393   4.949   4.149  0.6185  0.8155 -0.6413
13083SOL     OW43164   1.176   4.917   1.726 -0.1796  0.3459  0.2712
13083SOL    HW143165   1.168   4.823   1.740 -0.1695  0.7220  3.6683
13083SOL    HW243166   1.270   4.932   1.718 -0.1798  0.0962 -0.2596
13084SOL     OW43167   5.448   4.724   7.427  0.2570 -1.1315  0.0191
13084SOL    HW143168   5.399   4.798   7.392  1.2468 -0.2795  0.3918
13084SOL    HW243169   5.400   4.698   7.506  0.0861 -0.6597  0.0734
13085SOL     OW43170   4.163   1.039  10.183 -0.3456  0.0095  0.1182
13085SOL    HW143171   4.202   1.004  10.103  0.3202  0.0574  0.4138
13085SOL    HW243172   4.088   1.089  10.153 -0.9076 -1.0967 -0.3663
13086SOL     OW43173   9.344   5.602   6.993 -0.5246  0.2376 -0.4433
13086SOL    HW143174   9.278   5.556   6.940 -1.5002 -0.6348  1.4109
13086SOL    HW243175   9.336   5.562   7.080  2.0487  0.5469  0.0175
13087SOL     OW43176   6.701   2.560   0.943 -0.3468  0.4581 -0.2882
13087SOL    HW143177   6.606   2.575   0.935 -0.4925 -0.8153 -1.2383
13087SOL    HW243178   6.712   2.468   0.922  1.0358  0.4051  0.5761
13088SOL     OW43179   1.840   6.191   7.005  0.0243 -0.1964 -0.4021
13088SOL    HW143180   1.871   6.110   7.045 -1.1258 -0.3546  0.2208
13088SOL    HW243181   1.838   6.254   7.077 -1.7557 -0.3954 -0.2311
13089SOL     OW43182   7.385   4.275   6.069  0.2123  0.0037 -0.1515
13089SOL    HW143183   7.386   4.183   6.094  0.2406  0.2201  0.6732
13089SOL    HW243184   7.438   4.319   6.135  0.4542  0.5708 -0.7119
13090SOL     OW43185   6.387   1.291   4.464  0.2581  0.2609  0.4151
13090SOL    HW143186   6.335   1.355   4.513 -1.2149  0.1428 -0.9373
13090SOL    HW243187   6.462   1.341   4.432 -0.9207  1.3985 -0.7014
13091SOL     OW43188   0.656   4.822   0.198 -0.8285  0.2184 -0.0653
13091SOL    HW143189   0.609   4.786   0.124 -0.2614 -0.1720 -0.2471
13091SOL    HW243190   0.723   4.878   0.159  0.8910 -1.6508 -0.0075
13092SOL     OW43191   6.502   7.098   9.301  0.6022 -0.4846 -0.4130
13092SOL    HW143192   6.576   7.093   9.362 -0.0406 -1.2516  0.3435
13092SOL    HW243193   6.426   7.113   9.358  0.3180  1.8264 -1.2876
13093SOL     OW43194   1.603   1.898   5.215  0.0025 -0.0916 -0.2446
13093SOL    HW143195   1.573   1.807   5.212  2.1713 -0.8452 -0.5154
13093SOL    HW243196   1.563   1.939   5.138 -1.2132 -0.7161  0.0283
13094SOL     OW43197   2.741   6.594   3.808  0.0570 -0.0961  0.6319
13094SOL    HW143198   2.835   6.587   3.828  0.3257 -2.1391 -0.9193
13094SOL    HW243199   2.739   6.614   3.714 -1.0338 -1.0273  0.4407
13095SOL     OW43200   7.009   3.375   5.261  0.1623 -0.1890  0.6159
13095SOL    HW143201   6.916   3.355   5.255  0.4791 -1.2493 -2.3649
13095SOL    HW243202   7.046   3.303   5.312 -0.6231  0.2460  1.8258
13096SOL     OW43203   7.892   2.455   5.980  0.2255  0.1375 -0.6978
13096SOL    HW143204   7.875   2.361   5.983  0.4585  0.0418 -1.8818
13096SOL    HW243205   7.824   2.490   5.923 -0.3981  0.8353  0.4352
13097SOL     OW43206   2.450   8.201   8.354  0.1428  0.6775  0.6237
13097SOL    HW143207   2.446   8.139   8.281  1.1593  3.4742 -1.9923
13097SOL    HW243208   2.501   8.155   8.421  0.4909 -1.4505 -0.9971
13098SOL     OW43209  10.135   2.085   7.025  0.3441 -0.0311  0.2072
13098SOL    HW143210  10.136   1.996   6.989  1.2709 -0.3081  0.8832
13098SOL    HW243211  10.114   2.141   6.950 -0.4520 -0.8277 -0.1808
13099SOL     OW43212   0.932   7.066   6.536 -0.0876 -0.3744 -0.1648
13099SOL    HW143213   1.006   7.102   6.585  0.7073 -0.8689 -0.9616
13099SOL    HW243214   0.868   7.137   6.534  0.8282  0.4722 -0.4299
13100SOL     OW43215   9.315   9.919   0.777  0.3596 -0.5834  0.0704
13100SOL    HW143216   9.233   9.895   0.819  0.5755  0.9846  1.5044
13100SOL    HW243217   9.377   9.852   0.805 -0.1259 -1.0376  0.0667
13101SOL     OW43218   2.889   3.501   7.527  0.0685  0.4197  0.2995
13101SOL    HW143219   2.850   3.480   7.442 -0.7740  0.4162  0.6860
13101SOL    HW243220   2.958   3.435   7.538 -0.9015 -0.6008  0.3627
13102SOL     OW43221   6.393   2.780   7.537  0.1371  0.2678 -0.2838
13102SOL    HW143222   6.363   2.733   7.459 -1.8797  1.3545 -0.2276
13102SOL    HW243223   6.380   2.873   7.515 -1.2024  0.5823  1.5736
13103SOL     OW43224   6.001   7.736   4.821 -0.3245 -0.5751  0.5102
13103SOL    HW143225   5.934   7.689   4.871 -0.8428 -1.2083 -0.7134
13103SOL    HW243226   6.060   7.667   4.791 -0.5070 -0.3346 -0.4326
13104SOL     OW43227   8.113   9.762   8.451 -0.1246 -0.1781 -0.2028
13104SOL    HW143228   8.161   9.809   8.519 -1.1866  1.2060 -0.3533
13104SOL    HW243229   8.022   9.763   8.481 -0.7682  1.2840 -2.0359
13105SOL     OW43230   2.459   9.184  10.092 -0.4333 -0.2625  0.0887
13105SOL    HW143231   2.497   9.121  10.153  0.0352  0.5210  0.6247
13105SOL    HW243232   2.530   9.207  10.032 -1.1282 -1.7072 -1.3555
13106SOL     OW43233   0.467   3.482   0.025 -0.6011  0.3558  0.2509
13106SOL    HW143234   0.400   3.438  -0.026  0.2689 -0.6219 -0.0897
13106SOL    HW243235   0.433   3.483   0.114 -1.5625  0.9171 -0.1102
13107SOL     OW43236   3.498   5.833   8.399 -0.5208 -0.0058  0.4047
13107SOL    HW143237   3.528   5.881   8.476 -0.9456 -1.0611  1.2458
13107SOL    HW243238   3.504   5.741   8.424  0.8013 -0.4547 -1.3704
13108SOL     OW43239   9.439   3.091   8.002 -0.0640 -0.2105 -0.5190
13108SOL    HW143240   9.370   3.153   7.982 -0.6340 -1.2522 -1.9581
13108SOL    HW243241   9.421   3.062   8.091 -0.7573  0.4217 -0.4472
13109SOL     OW43242   2.740   0.256   4.886  0.0213  0.2294  0.1846
13109SOL    HW143243   2.691   0.175   4.898 -0.1622  0.5012  1.4719
13109SOL    HW243244   2.702   0.296   4.808  0.0177 -0.8405 -0.3868
13110SOL     OW43245   2.683   1.252   1.525  0.2155 -0.5630  0.0351
13110SOL    HW143246   2.722   1.208   1.601  0.9657 -0.2293 -0.1462
13110SOL    HW243247   2.655   1.180   1.469  0.8594 -0.8171  0.0303
13111SOL     OW43248   0.503   5.722   0.426  0.1608 -0.8644  0.1249
13111SOL    HW143249   0.417   5.691   0.455 -0.3650 -0.5285 -0.9990
13111SOL    HW243250   0.535   5.776   0.498 -1.5942  0.8575 -0.3069
13112SOL     OW43251   0.720   8.922   3.911 -0.4781  0.2980 -0.0944
13112SOL    HW143252   0.666   8.995   3.940 -0.1114 -0.0084  1.4554
13112SOL    HW243253   0.810   8.949   3.930  0.0525  0.9461 -2.9394
13113SOL     OW43254   3.496   7.727   1.613 -0.2831  0.0859  0.3889
13113SOL    HW143255   3.441   7.768   1.680 -0.5377 -1.4848  1.1857
13113SOL    HW243256   3.519   7.798   1.554 -1.6163  1.1429  1.0991
13114SOL     OW43257   6.736   3.998   1.331 -0.2031 -0.1286 -0.5335
13114SOL    HW143258   6.812   3.945   1.354 -0.2237 -0.6408 -1.5748
13114SOL    HW243259   6.709   4.039   1.413  1.2192  0.1023 -0.1506
13115SOL     OW43260   8.804   0.984  10.070 -0.5631 -0.0989 -0.8177
13115SOL    HW143261   8.873   0.925  10.099 -1.5369 -0.2655  1.3645
13115SOL    HW243262   8.800   1.052  10.138  0.6245  2.6854 -3.2858
13116SOL     OW43263   2.579   5.307   3.230 -0.1954  0.2677  0.0806
13116SOL    HW143264   2.621   5.290   3.145 -1.0697  1.2368 -0.5737
13116SOL    HW243265   2.487   5.286   3.215 -0.0630 -1.4294  1.3763
13117SOL     OW43266   3.683   9.870   3.804  0.1240 -0.0045  0.1810
13117SOL    HW143267   3.776   9.891   3.806  0.3970 -1.1916  1.6338
13117SOL    HW243268   3.650   9.896   3.890 -0.8376  0.1194 -0.2053
13118SOL     OW43269   0.508   1.283   7.815 -0.3298  0.3232 -0.1522
13118SOL    HW143270   0.566   1.208   7.804 -1.2104 -0.1938 -1.6270
13118SOL    HW243271   0.446   1.256   7.883 -0.6802 -0.3314 -0.7206
13119SOL     OW43272   4.932   5.190   2.605  0.0728  0.4933  0.0733
13119SOL    HW143273   5.016   5.190   2.560  0.6490  1.3529  1.0955
13119SOL    HW243274   4.924   5.103   2.643  1.2601  0.8783  1.2826
13120SOL     OW43275   1.331   3.185   7.474  0.3751  0.1033  0.5950
13120SOL    HW143276   1.328   3.280   7.467  0.9015  0.0396 -1.0605
13120SOL    HW243277   1.414   3.167   7.519  0.4119  0.4237  0.6600
13121SOL     OW43278   7.973   0.762   8.705  0.1974 -0.5401 -0.5308
13121SOL    HW143279   7.939   0.719   8.783  1.6265 -3.0719 -1.1610
13121SOL    HW243280   7.900   0.814   8.672 -0.9659 -0.7635  1.5404
13122SOL     OW43281   9.639   1.282   6.585  0.2377 -0.4464 -0.9214
13122SOL    HW143282   9.575   1.332   6.636  2.7948  1.3619  0.7933
13122SOL    HW243283   9.623   1.191   6.610 -0.2284  0.1577  1.2748
13123SOL     OW43284   5.723  10.098   9.854  0.5802 -0.2819  0.1992
13123SOL    HW143285   5.669  10.176   9.839 -1.5343 -1.7511 -0.3214
13123SOL    HW243286   5.678  10.051   9.924  2.0456 -0.8576  0.7783
13124SOL     OW43287   8.833   4.658   9.416  0.5506  0.7517  0.1869
13124SOL    HW143288   8.926   4.640   9.425  1.1027  2.4368 -1.4538
13124SOL    HW243289   8.826   4.705   9.333 -1.3994  2.9680  1.4919
13125SOL     OW43290   1.722   3.046   4.023  0.2014  0.1084 -0.4922
13125SOL    HW143291   1.815   3.034   4.042 -0.1248 -2.3591 -0.0623
13125SOL    HW243292   1.692   3.109   4.089  1.5595  1.0770 -0.7550
13126SOL     OW43293   4.642   3.565  10.025 -0.0871  0.1836  0.9815
13126SOL    HW143294   4.606   3.527   9.945 -0.2523 -0.3442  1.3034
13126SOL    HW243295   4.565   3.596  10.073  0.0253  0.6650  0.8552
13127SOL     OW43296   2.854   1.894   9.324  0.1248 -0.1785  0.2889
13127SOL    HW143297   2.857   1.936   9.410 -0.6844 -0.3404  0.3955
13127SOL    HW243298   2.801   1.816   9.336  0.1773 -0.3134 -0.3119
13128SOL     OW43299   3.213   4.516   1.076 -0.0344  0.0267  0.0571
13128SOL    HW143300   3.251   4.552   0.996 -1.2748  0.8317 -0.1912
13128SOL    HW243301   3.286   4.471   1.119  1.5299  2.5343  0.2051
13129SOL     OW43302   2.098   3.865   4.665 -0.3948 -0.1927  0.1762
13129SOL    HW143303   2.092   3.837   4.573  0.1342  1.4036 -0.3679
13129SOL    HW243304   2.037   3.807   4.711 -1.5890 -0.2403 -1.3659
13130SOL     OW43305   9.466   6.986   5.720  0.4416 -0.0411 -0.0222
13130SOL    HW143306   9.384   7.034   5.710 -0.7513 -1.5391  1.9583
13130SOL    HW243307   9.526   7.050   5.760 -0.7910  0.1620  1.5897
13131SOL     OW43308   1.842   5.997   0.388 -0.0913 -0.2294  0.4789
13131SOL    HW143309   1.873   6.073   0.339 -1.6177  0.1208 -0.0017
13131SOL    HW243310   1.817   5.934   0.321  1.4278 -1.3102  0.8778
13132SOL     OW43311   4.327   9.138   3.999  0.2326 -0.5917 -0.1493
13132SOL    HW143312   4.391   9.144   4.069  0.0687 -1.5369  0.0963
13132SOL    HW243313   4.247   9.106   4.042 -0.2358  0.0110 -0.5510
13133SOL     OW43314   8.712   7.508   0.470 -0.4982 -0.2621  0.1381
13133SOL    HW143315   8.679   7.567   0.538 -0.1989 -1.2435  1.1726
13133SOL    HW243316   8.788   7.554   0.433 -0.9273  0.4752  0.1568
13134SOL     OW43317   2.794   7.706   8.307 -0.5937  0.3084  0.2128
13134SOL    HW143318   2.771   7.791   8.344 -1.0134 -0.4480  1.7606
13134SOL    HW243319   2.732   7.693   8.235  1.1675  2.4423 -1.8533
13135SOL     OW43320  10.083   0.248   2.975  0.5519 -0.2747 -0.2271
13135SOL    HW143321  10.006   0.193   2.962 -0.9673  2.1086 -2.3649
13135SOL    HW243322  10.059   0.306   3.047  1.7914 -1.7025  1.4180
13136SOL     OW43323   8.527   4.326   0.356 -0.4257 -0.0819 -0.1559
13136SOL    HW143324   8.559   4.276   0.281 -0.6974  1.0872 -1.0708
13136SOL    HW243325   8.467   4.266   0.401 -2.7556  0.1725 -2.6510
13137SOL     OW43326   3.219   5.211   3.033  0.0747  0.7398  0.0085
13137SOL    HW143327   3.215   5.124   2.994  0.1887  0.9388 -0.4553
13137SOL    HW243328   3.141   5.256   3.000 -0.4376  0.5441  0.9150
13138SOL     OW43329   0.877   8.376   5.543 -0.2937 -0.0158 -0.1776
13138SOL    HW143330   0.855   8.289   5.508 -2.1082  0.7911 -1.2170
13138SOL    HW243331   0.967   8.391   5.514 -0.7705 -0.5717 -2.1496
13139SOL     OW43332   9.483   4.469   1.512 -0.0763  0.4339  0.1823
13139SOL    HW143333   9.420   4.501   1.577  0.1278 -1.1020  1.1902
13139SOL    HW243334   9.568   4.478   1.554  0.0832 -0.3405  0.0422
13140SOL     OW43335   6.852   8.863   8.268 -0.0200  0.5475 -0.1390
13140SOL    HW143336   6.784   8.807   8.229  0.3813 -0.2878  0.3220
13140SOL    HW243337   6.803   8.932   8.313 -0.5584  0.1076 -0.0350
13141SOL     OW43338   0.196   4.177   9.973 -0.0400  0.4960  0.0856
13141SOL    HW143339   0.181   4.093   9.930  1.3711 -0.5260  1.4559
13141SOL    HW243340   0.288   4.198   9.955  0.1077  0.8743  1.1421
13142SOL     OW43341   4.815   7.292   1.648 -0.1532  0.2193 -0.1922
13142SOL    HW143342   4.854   7.377   1.628  0.9465  0.3577  2.2281
13142SOL    HW243343   4.733   7.292   1.599 -0.4160  2.8945  0.0834
13143SOL     OW43344   9.914   9.088   2.929 -0.2519 -0.0430  0.1118
13143SOL    HW143345   9.910   9.024   3.000 -1.3817  0.2932  0.3672
13143SOL    HW243346   9.846   9.152   2.950  0.3489  0.8410 -0.5364
13144SOL     OW43347   2.853   1.247   4.219 -0.1602 -0.1173  0.3961
13144SOL    HW143348   2.768   1.227   4.180 -0.6124  0.2602  1.1583
13144SOL    HW243349   2.892   1.161   4.237 -0.7984 -0.3139  0.9054
13145SOL     OW43350   0.461   0.562   5.510  0.5468  0.5157  0.2743
13145SOL    HW143351   0.529   0.630   5.512  3.0848 -1.8892  0.7899
13145SOL    HW243352   0.485   0.506   5.436 -0.7840 -0.5020  0.5771
13146SOL     OW43353   2.201   4.552   5.624  0.0597 -0.5713 -0.2085
13146SOL    HW143354   2.295   4.558   5.640  0.1625 -1.7371 -0.2942
13146SOL    HW243355   2.187   4.461   5.600 -0.6637  0.1701 -2.9692
13147SOL     OW43356   3.190   2.063   0.149 -0.1986  0.1190 -0.2032
13147SOL    HW143357   3.191   2.159   0.149 -0.5654  0.1256  0.1840
13147SOL    HW243358   3.126   2.040   0.216 -2.1515 -0.3572 -2.0990
13148SOL     OW43359   8.243   2.313   7.034 -0.1293 -0.0887  0.3925
13148SOL    HW143360   8.187   2.357   7.099 -0.7700 -0.8297  0.3511
13148SOL    HW243361   8.330   2.313   7.073 -0.1278  1.1306  0.4358
13149SOL     OW43362   9.777   4.075   2.097 -0.5681 -0.2743  0.0247
13149SOL    HW143363   9.721   4.013   2.050  0.4818 -0.3786 -1.1502
13149SOL    HW243364   9.857   4.079   2.044  1.1765 -1.2925  2.3882
13150SOL     OW43365   9.592   9.049   9.315 -0.3542  0.2542 -0.2237
13150SOL    HW143366   9.629   9.118   9.260 -0.8054 -0.9643 -2.1229
13150SOL    HW243367   9.609   8.968   9.268 -1.2722 -0.8016  1.1629
13151SOL     OW43368   6.443   2.794   7.800  0.2951 -0.1055  0.2066
13151SOL    HW143369   6.358   2.835   7.817  1.5644  2.8586 -0.1167
13151SOL    HW243370   6.446   2.786   7.704  0.5930  0.3373  0.1760
13152SOL     OW43371   3.804   4.820   8.458  0.2458  0.1141 -0.3427
13152SOL    HW143372   3.751   4.850   8.532  1.3181 -4.8988  2.9522
13152SOL    HW243373   3.893   4.847   8.479  0.5080 -1.0652  0.1699
13153SOL     OW43374   6.018   3.555   6.471  0.0480 -0.0892 -0.1665
13153SOL    HW143375   5.999   3.631   6.417  0.7032  1.0735  1.1493
13153SOL    HW243376   6.009   3.480   6.413 -1.3875  0.9284 -1.3120
13154SOL     OW43377   7.726   6.241   7.653  0.5686  0.0074  0.0237
13154SOL    HW143378   7.734   6.298   7.730  0.5731 -0.1283  0.1234
13154SOL    HW243379   7.742   6.299   7.579  0.3240  0.1902  0.1124
13155SOL     OW43380   0.037   1.540   1.753  0.1346 -0.3419 -0.5830
13155SOL    HW143381   0.091   1.566   1.678  0.0221 -1.3007 -1.0092
13155SOL    HW243382   0.022   1.446   1.740 -0.7633 -0.2994  0.0825
13156SOL     OW43383   3.191   4.704   5.094  0.1059 -0.0721  0.2661
13156SOL    HW143384   3.197   4.735   5.184  0.0560  3.5538 -0.8273
13156SOL    HW243385   3.282   4.697   5.065  0.1047  0.3458  0.1506
13157SOL     OW43386   8.823   3.938   6.953  0.1101 -0.4018  0.5731
13157SOL    HW143387   8.741   3.893   6.973 -0.4500  0.3022 -0.0540
13157SOL    HW243388   8.891   3.885   6.994 -0.7043 -0.6956  1.5896
13158SOL     OW43389   5.167   1.238   8.042  0.0344  0.2124  0.1243
13158SOL    HW143390   5.240   1.239   8.104  1.3080 -3.0403 -1.1180
13158SOL    HW243391   5.099   1.290   8.085  1.9381  0.7049  2.8021
13159SOL     OW43392   9.016   6.559   9.817 -0.5568 -0.2475 -0.2870
13159SOL    HW143393   8.924   6.586   9.825 -0.8373 -0.0766 -3.1803
13159SOL    HW243394   9.012   6.472   9.777  0.5666 -0.0478 -0.8613
13160SOL     OW43395   0.701   2.547   1.535 -0.3854 -0.1049  0.6458
13160SOL    HW143396   0.796   2.542   1.547 -0.4847  0.2681  1.7682
13160SOL    HW243397   0.665   2.519   1.620 -1.2245  1.7762  0.9827
13161SOL     OW43398   1.376   3.563   1.593 -0.3862  0.0929  0.1798
13161SOL    HW143399   1.375   3.609   1.509  0.4740 -0.3234 -0.0619
13161SOL    HW243400   1.409   3.628   1.655  1.1981 -0.2876 -0.2307
13162SOL     OW43401   2.628   8.771   2.149 -0.4229  0.2817  0.2011
13162SOL    HW143402   2.552   8.719   2.122  0.2199  0.9980 -3.5283
13162SOL    HW243403   2.591   8.857   2.171 -0.8283  0.2991 -0.5016
13163SOL     OW43404   6.407   2.145   4.493 -0.2435 -0.1609 -0.0186
13163SOL    HW143405   6.468   2.203   4.449  0.4258 -0.9284 -0.1306
13163SOL    HW243406   6.453   2.061   4.499 -1.3492 -0.8090 -0.2530
13164SOL     OW43407   1.822   1.242   2.469 -0.0225 -0.3380  0.5476
13164SOL    HW143408   1.895   1.181   2.480  0.2927  0.0983  0.8822
13164SOL    HW243409   1.763   1.221   2.541  1.4562  1.6805  2.4715
13165SOL     OW43410   2.949   4.858   3.242  0.0744  0.1720  0.1794
13165SOL    HW143411   2.868   4.832   3.286  0.1825  0.0108  0.2855
13165SOL    HW243412   2.938   4.951   3.224 -1.3375 -0.3979 -2.3338
13166SOL     OW43413   9.142   8.924   0.953 -0.1643 -0.2648 -0.1177
13166SOL    HW143414   9.067   8.868   0.931 -0.5130  0.4979 -0.9083
13166SOL    HW243415   9.113   8.973   1.031  0.5441 -1.9269  1.2622
13167SOL     OW43416   1.042   6.917   8.737 -0.3632  0.0117 -0.1424
13167SOL    HW143417   1.034   6.851   8.805  0.9644  1.6841  1.7713
13167SOL    HW243418   1.132   6.950   8.745 -1.6054  3.6877  0.7335
13168SOL     OW43419   7.049   2.745   4.493  0.3097 -0.3537 -0.4110
13168SOL    HW143420   6.964   2.741   4.537 -0.7239  1.0485 -2.1629
13168SOL    HW243421   7.101   2.806   4.546 -0.9584  1.4159 -1.1481
13169SOL     OW43422   2.146   6.047   4.489  0.2858 -0.1274  0.8111
13169SOL    HW143423   2.219   5.987   4.478  1.1374  0.8444  1.0707
13169SOL    HW243424   2.077   5.993   4.529 -0.0985 -1.7120 -1.7760
13170SOL     OW43425   2.631   9.661   6.461 -0.1057  0.2454  0.5128
13170SOL    HW143426   2.614   9.688   6.371  0.0490 -2.9226 -0.5925
13170SOL    HW243427   2.544   9.645   6.498 -0.2556  2.8010  1.4756
13171SOL     OW43428  10.103   5.574   6.478 -0.7048 -0.1663  0.2501
13171SOL    HW143429  10.070   5.662   6.461  1.7381  0.9852  1.0105
13171SOL    HW243430  10.171   5.586   6.544  1.0030 -2.3437 -0.9565
13172SOL     OW43431  10.151   4.750   1.734 -0.1414  0.0775 -0.2581
13172SOL    HW143432  10.138   4.734   1.640 -0.6616  1.5545 -0.4648
13172SOL    HW243433  10.218   4.818   1.738 -0.7674  0.6814  0.3915
13173SOL     OW43434   1.038   4.598   1.014  0.3405  0.2557  0.4603
13173SOL    HW143435   1.060   4.579   1.105  0.4325  1.2538  0.6600
13173SOL    HW243436   0.973   4.531   0.990  0.3457 -0.0321  1.2439
13174SOL     OW43437   4.143   1.065   4.510  0.1232  0.2848  0.2369
13174SOL    HW143438   4.181   0.981   4.536  0.0641  0.0381 -0.4667
13174SOL    HW243439   4.216   1.114   4.473  0.0570  0.3623  0.2093
13175SOL     OW43440   7.911   7.902   6.115  0.6111 -0.4695  0.6915
13175SOL    HW143441   7.854   7.884   6.190 -1.0621  1.9067  0.1205
13175SOL    HW243442   7.853   7.893   6.039  1.1019  1.3845  0.0460
13176SOL     OW43443   5.864   5.101   3.206 -0.2367  0.3788  0.3301
13176SOL    HW143444   5.861   5.049   3.125  1.8980 -0.4812  0.7123
13176SOL    HW243445   5.889   5.038   3.274  0.1247  1.4692  1.2528
13177SOL     OW43446   8.323   4.140   4.231 -0.5304 -0.5970  0.7117
13177SOL    HW143447   8.399   4.085   4.250  0.2382  0.6142  1.1981
13177SOL    HW243448   8.264   4.082   4.182  0.2149 -1.8788  1.2712
13178SOL     OW43449   0.074   9.174   9.440  0.5703 -0.0018  0.5198
13178SOL    HW143450   0.118   9.257   9.424 -0.3649  0.4941  0.4356
13178SOL    HW243451  -0.017   9.198   9.459  0.6153 -0.8731  2.0802
13179SOL     OW43452   7.835   2.865   6.000  0.1638  0.6021  0.6212
13179SOL    HW143453   7.821   2.800   5.932 -1.8403  0.1401  1.4152
13179SOL    HW243454   7.910   2.831   6.050 -1.5752 -1.8831  1.7950
13180SOL     OW43455   0.925   5.599   6.899  0.4004  1.2694  0.4524
13180SOL    HW143456   0.936   5.689   6.928 -1.6092  1.0465  2.2032
13180SOL    HW243457   0.931   5.547   6.979  1.5741 -0.1876 -0.5298
13181SOL     OW43458   4.507   6.359   4.830 -0.3011  0.6496 -0.3718
13181SOL    HW143459   4.507   6.421   4.756 -2.1943  1.5570  0.3320
13181SOL    HW243460   4.499   6.273   4.789 -1.1914  1.1295 -1.2429
13182SOL     OW43461   1.690   2.046   4.311  0.4122  0.2079 -0.2864
13182SOL    HW143462   1.625   2.062   4.243  0.1003 -0.6062 -0.1874
13182SOL    HW243463   1.765   2.008   4.266  0.2434 -0.2391 -0.1975
13183SOL     OW43464   8.541   1.242   4.934  0.6371  0.1293 -0.0778
13183SOL    HW143465   8.479   1.249   4.860  0.2532 -0.1190  0.2178
13183SOL    HW243466   8.531   1.325   4.981  0.8729  0.2827 -0.2934
13184SOL     OW43467   3.744   3.444   5.615  0.2326 -0.5309 -0.5711
13184SOL    HW143468   3.709   3.484   5.695 -1.1502 -0.1133 -1.3588
13184SOL    HW243469   3.827   3.489   5.601 -0.5061  0.9240 -0.5083
13185SOL     OW43470   5.075   9.504   2.957  0.3874 -0.1952 -0.7668
13185SOL    HW143471   5.057   9.426   3.010  0.5942 -0.7854 -1.5546
13185SOL    HW243472   5.025   9.492   2.877  0.7355  0.2979 -1.0677
13186SOL     OW43473   2.620   8.514   8.741 -0.0231 -0.8912  0.0722
13186SOL    HW143474   2.703   8.542   8.702 -0.6531  1.9478  0.6099
13186SOL    HW243475   2.555   8.527   8.672 -0.3851 -0.7059  0.4434
13187SOL     OW43476   4.925   4.776   1.326  0.1841  0.1297  0.2194
13187SOL    HW143477   5.001   4.828   1.354  0.5583  0.0954 -0.6986
13187SOL    HW243478   4.917   4.794   1.233 -0.7632 -0.1061  0.2500
13188SOL     OW43479   5.021   2.165   0.077 -0.1176  0.7009  0.1343
13188SOL    HW143480   5.097   2.127   0.119 -0.2738  0.9243  0.6202
13188SOL    HW243481   4.976   2.090   0.037  0.9149  0.6931 -1.0854
13189SOL     OW43482   2.587   7.929   0.009 -0.5541 -0.2135 -0.4023
13189SOL    HW143483   2.553   8.018   0.006 -0.6381 -0.2431 -0.3234
13189SOL    HW243484   2.680   7.939  -0.011  0.2622  0.3278  3.0354
13190SOL     OW43485   6.866   1.414   7.576  0.4995  0.0763 -0.1166
13190SOL    HW143486   6.879   1.336   7.631 -0.6445 -0.8780 -1.1185
13190SOL    HW243487   6.867   1.487   7.637 -0.0409 -0.8792  1.0960
13191SOL     OW43488   6.396   2.596   9.580  0.1522  0.2112  0.3213
13191SOL    HW143489   6.334   2.657   9.619 -0.8509  2.0840 -3.7032
13191SOL    HW243490   6.341   2.530   9.537  1.1404 -0.9502  0.7693
13192SOL     OW43491   8.163   1.407   9.459 -0.0365 -0.1180 -0.6310
13192SOL    HW143492   8.256   1.423   9.445 -0.1133 -0.0812 -1.1043
13192SOL    HW243493   8.138   1.344   9.391 -0.9471  1.8849 -2.2915
13193SOL     OW43494   4.824   1.683   0.117  0.0321  0.1181 -0.3107
13193SOL    HW143495   4.854   1.617   0.053  0.6878  0.4685 -0.3787
13193SOL    HW243496   4.861   1.765   0.084 -2.9924  1.0412 -1.7474
13194SOL     OW43497   4.691   6.461   5.518  0.3546  0.4899 -0.3171
13194SOL    HW143498   4.778   6.425   5.497  0.9427  1.5383  0.2482
13194SOL    HW243499   4.647   6.391   5.566  1.4155  0.4444  0.6261
13195SOL     OW43500   5.092   6.989   7.174  0.0574 -0.0508  0.4135
13195SOL    HW143501   5.040   6.921   7.216  0.7657 -0.6427  0.3512
13195SOL    HW243502   5.125   7.042   7.246 -0.3985  0.1585  0.4692
13196SOL     OW43503   2.654   6.059   3.348  0.2490  0.0983  0.7256
13196SOL    HW143504   2.622   6.147   3.368  2.5913  1.1569  0.2087
13196SOL    HW243505   2.713   6.038   3.420  1.8410  0.1582 -0.5105
13197SOL     OW43506   0.806   2.536   2.535  0.0553  0.4916 -0.2517
13197SOL    HW143507   0.789   2.565   2.446 -0.8075  1.9073  0.3493
13197SOL    HW243508   0.879   2.591   2.565 -0.3966  0.7985  0.2937
13198SOL     OW43509   2.477   7.296   2.364  0.1028  0.4376 -0.9466
13198SOL    HW143510   2.483   7.348   2.444 -0.0839  1.6422 -1.6910
13198SOL    HW243511   2.448   7.358   2.297 -2.5616 -1.0872 -1.3767
13199SOL     OW43512   0.139   9.781   5.436  0.6728 -0.0937 -0.1730
13199SOL    HW143513   0.228   9.815   5.428 -0.0798  1.7403 -1.5257
13199SOL    HW243514   0.149   9.686   5.439  2.7381  0.1133  1.2715
13200SOL     OW43515   0.969   9.854   6.888 -0.4266 -0.6307  0.2511
13200SOL    HW143516   1.062   9.876   6.888 -0.6720  0.4440  0.3355
13200SOL    HW243517   0.949   9.830   6.978 -0.3211 -0.4670  0.3177
13201SOL     OW43518   3.989   1.569   9.680  0.2748 -0.1781 -0.7942
13201SOL    HW143519   3.961   1.522   9.759 -0.3417  0.0501 -0.8675
13201SOL    HW243520   4.071   1.527   9.655 -0.7595 -1.9429 -1.4551
13202SOL     OW43521  10.180   2.685   3.999 -0.8574  0.1401 -0.2501
13202SOL    HW143522  10.242   2.678   3.927  0.3597  3.4385  0.2992
13202SOL    HW243523  10.107   2.735   3.963 -2.1436 -1.6078 -0.2044
13203SOL     OW43524   4.234   4.653   9.616 -0.1494 -0.0197  0.0492
13203SOL    HW143525   4.316   4.610   9.637  0.2574  0.1573 -1.1066
13203SOL    HW243526   4.167   4.599   9.659  0.3253 -1.9087 -1.4306
13204SOL     OW43527   0.367   2.184   1.352 -0.5512  0.7593 -0.4274
13204SOL    HW143528   0.274   2.163   1.347 -1.1472  3.2188 -1.1031
13204SOL    HW243529   0.384   2.236   1.273  1.6261 -0.3433 -0.7581
13205SOL     OW43530   3.127   8.681   6.121  0.5616 -0.3724 -0.2252
13205SOL    HW143531   3.036   8.678   6.152  1.2624 -1.4695  1.9016
13205SOL    HW243532   3.153   8.589   6.116  1.7732 -0.0423 -0.1818
13206SOL     OW43533   4.580   4.549   8.058  0.0416 -0.5041  0.5183
13206SOL    HW143534   4.637   4.625   8.046 -0.6190  0.0173  0.6228
13206SOL    HW243535   4.503   4.569   8.005  0.6484 -1.9564 -1.0089
13207SOL     OW43536   8.793   6.645   6.343  0.4386 -0.2438  0.0056
13207SOL    HW143537   8.852   6.680   6.409 -1.4773  1.4307  0.9386
13207SOL    HW243538   8.799   6.708   6.271 -0.2398 -0.0278  0.1354
13208SOL     OW43539   8.845   6.792   8.292 -0.0549 -0.4417  0.1492
13208SOL    HW143540   8.858   6.839   8.375  2.8184 -1.7312  0.5356
13208SOL    HW243541   8.824   6.861   8.229  0.2074  0.8841  1.4522
13209SOL     OW43542   8.547   3.413   6.610 -0.1645 -0.2049 -0.8516
13209SOL    HW143543   8.491   3.477   6.567 -2.3566 -1.6319 -0.2502
13209SOL    HW243544   8.527   3.423   6.704  1.8881  0.4002 -0.4214
13210SOL     OW43545   3.133   0.243   6.973 -0.7939  0.3538  0.0661
13210SOL    HW143546   3.184   0.282   7.043  0.0396 -0.8071  0.1278
13210SOL    HW243547   3.156   0.294   6.895 -0.4853  0.6078  0.3239
13211SOL     OW43548   4.699   7.686   7.030  0.4111  0.3347  0.6614
13211SOL    HW143549   4.759   7.697   6.956  1.1371  0.1712  1.2091
13211SOL    HW243550   4.719   7.598   7.063 -0.4244  0.1158  0.6060
13212SOL     OW43551   4.270   3.386   2.878  0.0111  0.6593 -0.0142
13212SOL    HW143552   4.195   3.429   2.918 -1.1114  0.2049 -1.5593
13212SOL    HW243553   4.272   3.299   2.917 -1.6174 -0.0973 -1.5004
13213SOL     OW43554   7.867   1.079   0.162  0.2858  0.1642  0.3770
13213SOL    HW143555   7.902   1.011   0.219 -0.2358 -1.2825 -0.9656
13213SOL    HW243556   7.828   1.142   0.222  1.3482 -0.3735  1.6881
13214SOL     OW43557   3.889   0.504   9.906 -0.3015 -0.6642  0.2752
13214SOL    HW143558   3.956   0.478   9.969 -0.4900 -0.6312  0.4890
13214SOL    HW243559   3.936   0.511   9.823  0.4548  1.5943  0.8243
13215SOL     OW43560   0.188   4.176   7.270 -0.1514  0.1358 -0.5485
13215SOL    HW143561   0.211   4.211   7.356 -1.8061 -0.9645  0.3973
13215SOL    HW243562   0.133   4.244   7.231 -0.2622  0.1956 -0.2938
13216SOL     OW43563   0.355   3.153   3.613  0.2262 -0.0588  0.2342
13216SOL    HW143564   0.288   3.206   3.656  0.5565  0.4637  0.1230
13216SOL    HW243565   0.411   3.218   3.569  1.9913 -0.3323  1.9859
13217SOL     OW43566   0.439   6.404   2.394  0.5064  0.0138  0.1151
13217SOL    HW143567   0.529   6.405   2.425  0.4779 -0.3144  0.2101
13217SOL    HW243568   0.443   6.364   2.307  0.4211 -0.2409  0.2266
13218SOL     OW43569   7.746   5.360   6.422  0.4159 -0.3024 -0.4068
13218SOL    HW143570   7.739   5.411   6.342  1.3217 -1.0385 -0.9763
13218SOL    HW243571   7.716   5.419   6.491  1.5676  1.0567 -1.0172
13219SOL     OW43572   1.952   3.108   7.736 -0.0771 -0.3818  0.0732
13219SOL    HW143573   1.978   3.134   7.647 -0.0798  0.4783  0.3166
13219SOL    HW243574   2.035   3.095   7.782 -0.0756 -0.8483 -0.0531
13220SOL     OW43575   7.639   5.885   3.684  0.0470 -0.1362  0.3435
13220SOL    HW143576   7.727   5.922   3.683  0.6230 -1.4159 -1.6250
13220SOL    HW243577   7.584   5.955   3.722  1.8539  0.7102  1.5350
13221SOL     OW43578   9.965   8.340   8.593  0.3211  0.2890  0.1362
13221SOL    HW143579  10.012   8.418   8.623 -0.1477  0.2783  0.9088
13221SOL    HW243580   9.965   8.349   8.497 -0.1985  1.5150  0.2308
13222SOL     OW43581   7.303   3.346   2.600  0.5679 -0.0105  0.0511
13222SOL    HW143582   7.358   3.391   2.536 -0.2851  0.1616 -0.5742
13222SOL    HW243583   7.264   3.274   2.551 -0.7142  0.5888  0.1674
13223SOL     OW43584   0.918   7.225   0.810 -0.0045  0.0237 -0.0423
13223SOL    HW143585   0.880   7.147   0.769  1.4171 -0.7695  0.0916
13223SOL    HW243586   0.925   7.288   0.739 -0.0333 -0.3951 -0.4203
13224SOL     OW43587   2.822   2.743   3.289 -0.2561  0.0225 -0.3141
13224SOL    HW143588   2.876   2.795   3.349  1.3550  0.0881 -1.7274
13224SOL    HW243589   2.884   2.712   3.223 -1.6873 -1.3817 -1.0466
13225SOL     OW43590   9.637   7.541   9.194 -0.6836  0.0884  0.0914
13225SOL    HW143591   9.594   7.485   9.260  0.6771  0.6830  1.5495
13225SOL    HW243592   9.587   7.622   9.196 -0.6027  0.1340  0.4728
13226SOL     OW43593   1.955   5.529   5.961  0.1382 -0.0843  0.0905
13226SOL    HW143594   1.994   5.578   6.033 -0.7131  0.2095  0.3711
13226SOL    HW243595   1.920   5.450   6.003 -1.7287  0.8000  0.3123
13227SOL     OW43596   4.717   2.672   5.685  0.2937  0.3983 -0.6368
13227SOL    HW143597   4.797   2.630   5.655  0.2795 -0.3541  0.3190
13227SOL    HW243598   4.714   2.654   5.779 -1.3086 -0.1418 -0.7526
13228SOL     OW43599   2.506   5.521   3.717  0.4926 -0.1203  0.3203
13228SOL    HW143600   2.513   5.484   3.629 -1.5727  0.7414 -0.2623
13228SOL    HW243601   2.597   5.535   3.744  1.1888 -0.8210 -1.4724
13229SOL     OW43602   8.509   8.765   5.074  0.7445 -0.0323 -0.3497
13229SOL    HW143603   8.593   8.754   5.030  0.2163  1.5966 -1.9323
13229SOL    HW243604   8.465   8.681   5.063  2.2141 -0.9731  0.6883
13230SOL     OW43605   5.779   4.157   9.296  0.5008  0.1598  0.5502
13230SOL    HW143606   5.871   4.144   9.320  0.7104 -0.0081 -0.3385
13230SOL    HW243607   5.769   4.112   9.212 -0.5543 -0.3952  0.9490
13231SOL     OW43608   5.472   4.471   1.530  0.0696 -0.5208 -0.2027
13231SOL    HW143609   5.553   4.521   1.534 -0.0260 -0.1290 -1.9640
13231SOL    HW243610   5.446   4.476   1.438 -1.4071 -1.5097  0.1219
13232SOL     OW43611   0.888   6.008   7.844 -0.2815  0.1861 -0.0019
13232SOL    HW143612   0.950   5.959   7.899 -0.9682 -1.2584 -0.4694
13232SOL    HW243613   0.802   5.986   7.881 -0.5933  1.2015 -0.1147
13233SOL     OW43614   7.437  10.105   5.487 -0.2779  0.4061  0.3332
13233SOL    HW143615   7.456  10.199   5.485 -1.4272  0.6565 -0.6779
13233SOL    HW243616   7.368  10.097   5.553 -0.1050  0.2552  0.4946
13234SOL     OW43617   6.861   3.411   5.888  0.1660  0.6442  0.4490
13234SOL    HW143618   6.809   3.348   5.838  0.4733 -0.1323  1.0844
13234SOL    HW243619   6.874   3.484   5.828  0.9310 -0.4604 -0.8037
13235SOL     OW43620   7.796   1.669   0.419 -0.1880  0.2341 -0.4350
13235SOL    HW143621   7.751   1.752   0.436  0.5472  0.2923  1.4533
13235SOL    HW243622   7.825   1.676   0.328 -1.6844  1.2752 -0.8719
13236SOL     OW43623   5.976   5.451   3.991  0.1416 -0.2669  0.8142
13236SOL    HW143624   5.993   5.387   4.061 -2.2869  0.7963  2.5134
13236SOL    HW243625   5.901   5.501   4.022 -0.0066  1.3729 -1.8801
13237SOL     OW43626   5.290   9.331   8.546 -0.8017  0.0932 -0.0282
13237SOL    HW143627   5.313   9.415   8.506 -0.1111 -0.3070 -0.4795
13237SOL    HW243628   5.338   9.266   8.495  0.0831 -0.4386  1.4236
13238SOL     OW43629   6.930   1.963   4.644  0.6304 -0.5549 -0.1618
13238SOL    HW143630   6.846   2.004   4.622  0.6549  0.2017  1.0065
13238SOL    HW243631   6.995   2.019   4.603  0.6164 -0.0257  0.5038
13239SOL     OW43632   0.393   7.293   4.120  0.1108 -0.1169  0.1491
13239SOL    HW143633   0.351   7.216   4.081 -0.0959 -0.3192  0.7496
13239SOL    HW243634   0.451   7.256   4.188  0.7476  0.2003 -0.2103
13240SOL     OW43635   3.525   1.703   2.879 -0.2212  0.4188 -0.8081
13240SOL    HW143636   3.575   1.752   2.814  1.0264  1.0281  0.5440
13240SOL    HW243637   3.434   1.723   2.859  0.1764  1.6050 -1.5865
13241SOL     OW43638   7.268   0.390   6.953 -0.2630 -0.1225 -0.2694
13241SOL    HW143639   7.306   0.450   6.889 -2.4010 -1.0029 -2.5272
13241SOL    HW243640   7.190   0.436   6.985 -0.4799 -0.6308 -0.0567
13242SOL     OW43641   3.363   8.157   6.434 -0.2076 -0.3535 -0.7330
13242SOL    HW143642   3.379   8.195   6.348  0.0680 -0.8117 -0.8906
13242SOL    HW243643   3.381   8.063   6.422 -0.0125 -0.3951 -0.1404
13243SOL     OW43644   6.512   0.243   7.141  0.8339 -0.1112  0.3318
13243SOL    HW143645   6.453   0.233   7.066 -0.4547  0.5494  1.1993
13243SOL    HW243646   6.483   0.176   7.203  0.7888  0.4029  0.8833
13244SOL     OW43647   1.763   8.680   8.321 -0.3286 -0.3245  0.1473
13244SOL    HW143648   1.722   8.734   8.388 -0.4204 -0.8478  0.5224
13244SOL    HW243649   1.693   8.623   8.289 -0.1717 -0.4096 -0.0524
13245SOL     OW43650   7.912   4.328   4.507  0.4428 -0.8771 -0.4274
13245SOL    HW143651   7.891   4.346   4.416  1.2292  1.4680 -0.2098
13245SOL    HW243652   8.000   4.290   4.504  0.3473 -1.0819 -0.6562
13246SOL     OW43653   1.287   4.067   8.993  0.1691  0.0633  0.1842
13246SOL    HW143654   1.238   4.055   8.912 -0.4792  0.0210  0.5768
13246SOL    HW243655   1.282   4.162   9.009 -1.7683 -0.1933  1.4227
13247SOL     OW43656   2.896   6.488   2.094 -0.1612  0.6357 -0.9286
13247SOL    HW143657   2.991   6.496   2.099  0.0498 -1.6183 -0.4144
13247SOL    HW243658   2.878   6.475   2.001  0.2581 -0.8277 -0.8323
13248SOL     OW43659   4.311   3.668   2.406  0.2303  0.3408  0.2938
13248SOL    HW143660   4.238   3.710   2.451  1.0636  1.7904  0.3652
13248SOL    HW243661   4.281   3.659   2.315 -0.2009  0.5047  0.4151
13249SOL     OW43662   8.688   5.073   3.647  0.5521  0.0131 -0.5060
13249SOL    HW143663   8.735   5.129   3.586 -1.0613  1.0776 -0.8550
13249SOL    HW243664   8.661   4.998   3.595  1.0040 -0.1177 -0.5533
13250SOL     OW43665   9.959   9.929   3.330  0.6789  0.2906 -0.1437
13250SOL    HW143666   9.997   9.847   3.299 -0.8554 -0.2600 -0.6756
13250SOL    HW243667   9.879   9.902   3.376  0.0580  1.4909 -0.4783
13251SOL     OW43668   8.555  10.151   1.699  0.0367 -0.3602 -0.0849
13251SOL    HW143669   8.583  10.190   1.782 -0.3714  1.5864 -0.7913
13251SOL    HW243670   8.469  10.113   1.718  0.3028 -0.6476  0.5590
13252SOL     OW43671   3.102   0.513   8.297  0.0618 -0.1454 -0.0316
13252SOL    HW143672   3.053   0.524   8.378 -1.6717  2.2787 -1.2949
13252SOL    HW243673   3.169   0.581   8.299 -0.4222  0.3831 -0.8905
13253SOL     OW43674   1.606   5.251   7.861  0.1829  0.2127 -0.7051
13253SOL    HW143675   1.635   5.318   7.799 -0.0665  0.6251 -0.3864
13253SOL    HW243676   1.511   5.244   7.847  0.0270  0.7184  0.0014
13254SOL     OW43677   9.624   3.580   0.675 -0.1778 -0.4170  0.1038
13254SOL    HW143678   9.698   3.614   0.624  1.1274 -0.9720  1.5356
13254SOL    HW243679   9.562   3.652   0.678 -0.0178 -0.1456 -1.6770
13255SOL     OW43680   1.883   2.211   1.090 -0.6433 -0.2542 -0.3582
13255SOL    HW143681   1.841   2.246   1.169 -0.6308 -0.3421 -0.3119
13255SOL    HW243682   1.971   2.187   1.119  0.2053  1.9178 -0.9453
13256SOL     OW43683   8.426   5.044   4.067 -0.0324  0.1508  0.2625
13256SOL    HW143684   8.403   5.091   4.147  0.6079  1.8526 -0.5025
13256SOL    HW243685   8.521   5.036   4.071  0.1671  1.5241 -0.9613
13257SOL     OW43686   8.869   1.796   9.812 -0.0091  0.5144 -0.3170
13257SOL    HW143687   8.940   1.849   9.847 -0.5368  0.7547  0.3971
13257SOL    HW243688   8.906   1.755   9.733  0.9781  0.4816  0.1551
13258SOL     OW43689   1.167   9.361   5.749 -0.0391  0.4228 -0.2747
13258SOL    HW143690   1.117   9.302   5.692 -0.9826 -1.6016  2.4533
13258SOL    HW243691   1.253   9.319   5.757  0.0423  0.6168 -0.1368
13259SOL     OW43692   5.126   7.710   6.531 -0.0147  0.3338  0.2791
13259SOL    HW143693   5.143   7.789   6.583 -1.7858  0.6900  0.3762
13259SOL    HW243694   5.111   7.743   6.442  0.1653  0.0137  0.1293
13260SOL     OW43695   8.803   7.622   3.411  0.3668 -0.8313  0.2170
13260SOL    HW143696   8.855   7.670   3.346  0.9948 -0.9248  0.6406
13260SOL    HW243697   8.765   7.689   3.466  0.8884 -0.7909  0.5389
13261SOL     OW43698   7.449   2.267   7.502  0.4940  0.1673  0.5496
13261SOL    HW143699   7.511   2.198   7.526  1.2680  0.8942  0.6812
13261SOL    HW243700   7.381   2.262   7.569  1.6507  0.9268  1.8476
13262SOL     OW43701   6.719   5.173   9.517  0.7100 -0.1325 -0.0944
13262SOL    HW143702   6.727   5.078   9.509  0.1862 -0.2318  0.4990
13262SOL    HW243703   6.632   5.187   9.552  0.1357  0.6606 -1.7060
13263SOL     OW43704   5.649   0.630   1.110 -0.0126 -0.6800  0.2388
13263SOL    HW143705   5.595   0.562   1.151 -0.2408 -1.6303 -1.5629
13263SOL    HW243706   5.588   0.679   1.055  0.4057  0.1951  0.5356
13264SOL     OW43707   6.320   2.829   2.545  0.3701  0.3233 -0.0734
13264SOL    HW143708   6.291   2.821   2.636  1.7741 -1.3780  0.2952
13264SOL    HW243709   6.240   2.844   2.495 -1.2780 -3.9946  0.8520
13265SOL     OW43710   7.902   3.148   5.683 -0.5873 -0.1565 -0.1177
13265SOL    HW143711   7.977   3.209   5.686  0.2449 -1.1822  1.1066
13265SOL    HW243712   7.875   3.148   5.591  1.3355 -0.2380 -0.7260
13266SOL     OW43713   8.050   1.515   9.683 -0.2306 -0.2222 -0.2556
13266SOL    HW143714   8.002   1.442   9.720 -1.5170  0.4758 -0.4923
13266SOL    HW243715   8.075   1.486   9.595  0.2244 -0.7631  0.0447
13267SOL     OW43716   7.338   7.981   6.870 -0.6148 -0.3793 -1.0015
13267SOL    HW143717   7.267   8.003   6.810 -0.5763 -0.9874 -1.2795
13267SOL    HW243718   7.417   7.992   6.818 -0.4464  0.8523 -0.5311
13268SOL     OW43719   2.756   6.198   6.754 -0.1951 -0.1496 -0.1779
13268SOL    HW143720   2.778   6.112   6.719 -0.3627 -0.6035  0.8073
13268SOL    HW243721   2.833   6.223   6.805 -1.0298 -0.7462  1.4286
13269SOL     OW43722   4.972   1.509   2.811 -0.1619 -0.1571  0.0972
13269SOL    HW143723   4.889   1.552   2.831 -0.4308 -0.5857 -0.0983
13269SOL    HW243724   4.986   1.450   2.885 -0.9891 -1.4948 -0.7866
13270SOL     OW43725   0.478   6.728  10.165 -0.1192  0.1419 -0.0321
13270SOL    HW143726   0.509   6.697  10.080 -0.7898 -3.6231  0.9280
13270SOL    HW243727   0.557   6.736  10.218 -0.0320 -2.2138  0.2857
13271SOL     OW43728   0.632   0.494   0.577  0.0843  0.8755 -0.1468
13271SOL    HW143729   0.693   0.482   0.504 -0.6283  2.7832 -1.1307
13271SOL    HW243730   0.580   0.414   0.579  1.2425  0.0937 -0.6220
13272SOL     OW43731   4.021   6.222  10.160  0.2448  0.7233 -0.2310
13272SOL    HW143732   4.091   6.230  10.225  0.1457 -0.5469  0.0604
13272SOL    HW243733   3.943   6.198  10.210 -0.1045  0.8790 -0.6908
13273SOL     OW43734   7.977   0.550   7.679 -0.2948  0.0684  0.5090
13273SOL    HW143735   7.922   0.497   7.738 -1.6917  0.7755 -0.1114
13273SOL    HW243736   8.034   0.486   7.637 -2.1985 -1.0676 -0.5056
13274SOL     OW43737   1.624   5.420   0.729  0.5906 -0.6698 -0.0145
13274SOL    HW143738   1.674   5.435   0.809 -1.9700  0.1629  1.5682
13274SOL    HW243739   1.577   5.338   0.745 -1.0080  0.2021 -0.0072
13275SOL     OW43740   0.830   4.908   0.412  0.6973 -0.2130  0.0166
13275SOL    HW143741   0.834   4.853   0.490 -1.3938  0.6198  0.7848
13275SOL    HW243742   0.754   4.875   0.363  1.1194  0.2037 -0.9461
13276SOL     OW43743   2.332   6.330   6.931  0.1513  0.0126  0.1897
13276SOL    HW143744   2.308   6.308   7.021 -1.0782 -1.6324 -0.4905
13276SOL    HW243745   2.257   6.303   6.878  0.9200  0.7580 -1.3637
13277SOL     OW43746   4.002   4.818   6.193 -0.2691  0.1679  0.0845
13277SOL    HW143747   3.962   4.764   6.125 -0.0755 -0.0051  0.1067
13277SOL    HW243748   3.929   4.866   6.231 -0.6910 -1.2019  1.0859
13278SOL     OW43749   2.193   7.638   4.044  0.4871  0.0985  0.0388
13278SOL    HW143750   2.170   7.624   3.952  0.5111 -1.3713  0.2236
13278SOL    HW243751   2.183   7.732   4.058 -0.3492  0.2202 -1.2386
13279SOL     OW43752   3.961   7.110   2.028  0.1023 -0.5876  0.0834
13279SOL    HW143753   4.055   7.123   2.045  0.5837 -0.4846 -2.3157
13279SOL    HW243754   3.927   7.197   2.011  0.2690 -0.8615 -1.9612
13280SOL     OW43755   9.679   8.886   9.991 -0.2603 -0.5125 -0.3912
13280SOL    HW143756   9.600   8.893   9.937 -0.9216 -0.4299  0.5727
13280SOL    HW243757   9.649   8.852  10.075  0.4149  1.2943  0.6453
13281SOL     OW43758   3.604   7.491   4.247 -0.2537 -0.4059 -0.1962
13281SOL    HW143759   3.633   7.418   4.192  1.4593 -0.0853  0.2227
13281SOL    HW243760   3.679   7.509   4.304 -1.8662 -0.5636  2.0916
13282SOL     OW43761   0.969   0.849   2.909 -0.6607 -0.1136  0.0590
13282SOL    HW143762   0.917   0.844   2.989 -1.4143  0.1639 -0.4026
13282SOL    HW243763   0.983   0.943   2.896  0.0375 -0.1881  0.2216
13283SOL     OW43764   0.382   3.472   3.100  0.1054 -0.7545  0.3290
13283SOL    HW143765   0.405   3.389   3.059  0.0838  0.0251 -1.3221
13283SOL    HW243766   0.300   3.498   3.059 -1.1778 -1.0262  2.5379
13284SOL     OW43767   3.852   5.866   8.377 -0.2980 -0.2121 -0.4606
13284SOL    HW143768   3.916   5.936   8.386 -0.9152  0.2233  0.7744
13284SOL    HW243769   3.791   5.897   8.310 -0.7113  0.5738  0.2586
13285SOL     OW43770   0.438   5.641  10.107  0.2705 -0.1919  0.5426
13285SOL    HW143771   0.414   5.723  10.064  3.4183  1.0304  0.8735
13285SOL    HW243772   0.425   5.658  10.200  1.6263  0.2349  0.6689
13286SOL     OW43773   9.462   7.463   0.196  0.4998 -0.4761  0.8796
13286SOL    HW143774   9.556   7.444   0.204  0.9622  1.4645  0.4079
13286SOL    HW243775   9.454   7.554   0.221 -1.1859 -0.4458  0.3075
13287SOL     OW43776   1.883   9.535   4.678 -0.1506 -0.0389  0.1365
13287SOL    HW143777   1.939   9.610   4.658  0.1709 -0.7270 -1.7063
13287SOL    HW243778   1.822   9.568   4.744  0.6403  1.5407  0.1238
13288SOL     OW43779   7.552   6.183   1.257 -0.1982 -0.2649 -0.1086
13288SOL    HW143780   7.493   6.111   1.236 -0.7255  0.4082 -1.0430
13288SOL    HW243781   7.522   6.216   1.341 -1.5855  0.4808 -0.8718
13289SOL     OW43782   7.292   1.421   8.949  0.4190  0.0390  0.1828
13289SOL    HW143783   7.282   1.360   9.021  0.9809 -1.7345 -1.1813
13289SOL    HW243784   7.246   1.380   8.876 -0.1823  1.8096 -0.4853
13290SOL     OW43785   6.174   3.750   9.225  0.2303  0.3657  0.1024
13290SOL    HW143786   6.142   3.691   9.294  1.5876  0.8890  1.2509
13290SOL    HW243787   6.267   3.762   9.246  0.9575 -0.3008 -2.4824
13291SOL     OW43788   1.189   9.951   8.877  0.4301 -0.2914 -0.1911
13291SOL    HW143789   1.184   9.946   8.973  0.5482  0.8920 -0.1022
13291SOL    HW243790   1.247   9.879   8.852  0.1184 -0.8276  0.5921
13292SOL     OW43791   0.794   7.318   5.911  0.0825 -0.1750  0.6643
13292SOL    HW143792   0.836   7.346   5.992  1.9525  1.0458 -0.6436
13292SOL    HW243793   0.839   7.237   5.887  1.9455  1.1875 -0.7912
13293SOL     OW43794   4.660   4.935   5.692 -0.5420 -0.3143 -0.4215
13293SOL    HW143795   4.667   4.843   5.717 -0.3709  0.1077  1.1720
13293SOL    HW243796   4.567   4.955   5.698 -0.5358 -0.2901 -0.4027
13294SOL     OW43797   2.631   1.462   4.505 -0.6983  0.2391  0.3901
13294SOL    HW143798   2.714   1.446   4.461 -0.5066 -0.3748  0.9628
13294SOL    HW243799   2.596   1.375   4.523 -0.1530  0.4068  2.5964
13295SOL     OW43800   7.580   3.200   1.333 -0.0601  0.5713  0.5348
13295SOL    HW143801   7.585   3.164   1.245 -0.8690  1.4121  0.1272
13295SOL    HW243802   7.532   3.134   1.384  0.2356  0.1764  0.3058
13296SOL     OW43803   4.451   0.145   1.060 -0.1170  0.5312 -0.3853
13296SOL    HW143804   4.457   0.201   1.137  1.2128  0.5051 -0.4474
13296SOL    HW243805   4.526   0.086   1.067 -0.6979 -0.3140 -1.0511
13297SOL     OW43806   5.203   9.132   1.934 -0.2348 -1.1231  0.5215
13297SOL    HW143807   5.234   9.142   2.024  0.9948  2.0528 -0.1000
13297SOL    HW243808   5.283   9.127   1.882 -0.8529 -0.2085 -0.5602
13298SOL     OW43809   4.999   8.053   1.452  0.0098  0.0304 -0.4708
13298SOL    HW143810   5.070   8.117   1.455 -1.5380  1.7975  0.3844
13298SOL    HW243811   4.935   8.085   1.515 -1.9493 -0.9963 -1.8297
13299SOL     OW43812   2.855   2.014   2.779 -0.2025  0.5568 -0.0274
13299SOL    HW143813   2.786   2.072   2.809 -0.8862  0.0771 -0.6324
13299SOL    HW243814   2.925   2.073   2.750 -0.0420  1.0354  1.2795
13300SOL     OW43815   8.187   1.563   2.419  0.0757 -0.0387 -0.3722
13300SOL    HW143816   8.214   1.652   2.441 -2.1841  0.6385 -0.0869
13300SOL    HW243817   8.226   1.509   2.488  0.3868  0.9033  0.2170
13301SOL     OW43818   1.089   9.775   5.185  0.1651  0.3130 -0.0093
13301SOL    HW143819   1.050   9.844   5.131 -0.4579 -1.0062 -1.3134
13301SOL    HW243820   1.138   9.822   5.253 -0.3643  2.0206 -0.7623
13302SOL     OW43821   1.726   6.748   6.806 -0.3026 -0.2313  0.1651
13302SOL    HW143822   1.634   6.773   6.794 -0.2975 -0.1351  0.3287
13302SOL    HW243823   1.757   6.802   6.879 -0.2975 -0.7218  0.5366
13303SOL     OW43824   8.673   8.337   2.067 -0.0176 -0.5860  0.8922
13303SOL    HW143825   8.596   8.286   2.092 -0.4058 -0.0896  0.7138
13303SOL    HW243826   8.722   8.348   2.149 -0.4120 -0.4413  1.1093
13304SOL     OW43827   1.101   7.287   7.080 -0.5746 -0.2589 -0.1530
13304SOL    HW143828   1.069   7.311   6.992 -0.7847 -1.4974 -0.4306
13304SOL    HW243829   1.192   7.261   7.066 -0.9509 -1.5936 -0.2199
13305SOL     OW43830   0.070   9.633   7.396 -0.1052 -0.2195 -0.7091
13305SOL    HW143831   0.157   9.596   7.412 -0.2242  0.6592  2.7539
13305SOL    HW243832   0.086   9.727   7.388 -0.5290 -0.2757 -2.4708
13306SOL     OW43833   9.584   7.762   4.963 -0.0461 -0.0350 -0.3496
13306SOL    HW143834   9.578   7.774   4.868  0.2995 -0.1262 -0.3866
13306SOL    HW243835   9.525   7.827   5.000  0.3130  0.4461 -0.6072
13307SOL     OW43836   7.963   6.771   5.143  0.1609 -0.5404  0.4338
13307SOL    HW143837   7.876   6.783   5.107  0.6076 -0.8260 -0.8195
13307SOL    HW243838   7.963   6.681   5.177  0.1702 -0.8044 -0.2372
13308SOL     OW43839   1.707   3.901   2.801 -0.1738  0.2273 -0.4627
13308SOL    HW143840   1.616   3.892   2.829 -0.1562  0.6759 -0.2587
13308SOL    HW243841   1.720   3.996   2.790  0.5024  0.2289  0.2821
13309SOL     OW43842   9.911   0.883   7.987 -0.3567  0.2534  0.4084
13309SOL    HW143843   9.817   0.887   7.971 -0.0776  2.5912 -1.0411
13309SOL    HW243844   9.933   0.969   8.023  1.5327  0.5532 -1.2915
13310SOL     OW43845   1.047   1.561   5.664  0.4284  0.3983  0.1361
13310SOL    HW143846   1.043   1.467   5.679 -0.3184  0.5586  1.0781
13310SOL    HW243847   1.060   1.599   5.752  0.5811  1.1716 -0.2105
13311SOL     OW43848   8.634   6.833   0.464 -0.0212  0.2192  0.0443
13311SOL    HW143849   8.644   6.827   0.559  1.7505  0.6130 -0.0890
13311SOL    HW243850   8.574   6.907   0.451  1.3197  1.5007  0.8315
13312SOL     OW43851   6.863   2.996   9.558 -0.1860  0.3510  0.2360
13312SOL    HW143852   6.780   3.002   9.512 -0.8222  2.7575  1.5329
13312SOL    HW243853   6.842   2.954   9.642  0.6277 -2.2537 -0.7406
13313SOL     OW43854   2.366   5.413   0.272 -0.3174  0.2740  0.2013
13313SOL    HW143855   2.401   5.344   0.328  0.2949 -0.7418 -1.3483
13313SOL    HW243856   2.381   5.494   0.320  0.3903 -0.5270  1.3765
13314SOL     OW43857   3.320   9.369   3.486  0.6904 -0.1644 -0.0068
13314SOL    HW143858   3.325   9.459   3.454 -2.6778  0.2273  0.1306
13314SOL    HW243859   3.277   9.321   3.416  0.0485 -1.0178  0.9385
13315SOL     OW43860   5.167   9.672   6.689  0.2524  0.7258  0.2440
13315SOL    HW143861   5.072   9.685   6.688 -0.1962 -1.9632  1.4466
13315SOL    HW243862   5.201   9.751   6.731 -1.5971  1.0703  1.1888
13316SOL     OW43863   3.397   9.025   3.730  0.0074 -0.0622  0.1097
13316SOL    HW143864   3.348   8.944   3.718  2.1092 -1.4526  0.3700
13316SOL    HW243865   3.360   9.063   3.810 -0.7511 -0.9788  0.2187
13317SOL     OW43866   2.484   6.069   9.292 -0.1614  0.1907  0.0968
13317SOL    HW143867   2.415   6.031   9.347  1.1469 -0.9294  1.0484
13317SOL    HW243868   2.438   6.101   9.215 -1.5050 -2.8705 -0.5459
13318SOL     OW43869   7.820   7.343   7.312 -0.2835  0.7841 -0.0981
13318SOL    HW143870   7.794   7.346   7.220  0.3369 -2.2392 -0.4642
13318SOL    HW243871   7.793   7.257   7.342  1.1846  0.9965  2.0466
13319SOL     OW43872   8.665   7.484   4.541  0.1511 -0.0456  0.5674
13319SOL    HW143873   8.623   7.512   4.623  1.1995 -2.1429  1.9216
13319SOL    HW243874   8.750   7.527   4.543  0.0759  0.1087  0.4458
13320SOL     OW43875   8.095   2.518   7.553  0.1535 -0.3831 -0.0015
13320SOL    HW143876   8.107   2.586   7.619  0.2003 -1.4756  1.1730
13320SOL    HW243877   8.097   2.564   7.470 -3.0421  1.5473  0.7938
13321SOL     OW43878   6.072   9.053   2.807 -0.4903  0.5123 -0.1437
13321SOL    HW143879   6.109   9.141   2.814 -0.0096  0.3581 -0.6780
13321SOL    HW243880   6.122   9.001   2.870 -0.2152  0.4412 -0.4191
13322SOL     OW43881   8.308   7.937   4.386 -0.4425 -0.2004  0.0111
13322SOL    HW143882   8.241   8.002   4.361 -1.7645 -1.4078  0.2809
13322SOL    HW243883   8.384   7.959   4.332 -0.8230  1.5985  0.1263
13323SOL     OW43884   4.125   8.438   5.605  0.5256 -0.2741  0.2432
13323SOL    HW143885   4.173   8.376   5.550 -1.4118 -1.7713  0.1513
13323SOL    HW243886   4.066   8.384   5.657  0.9845  1.2706  2.5071
13324SOL     OW43887   6.950   5.352   7.593  0.8018 -0.0547  0.1780
13324SOL    HW143888   6.891   5.420   7.562 -2.0690 -0.6946  3.6003
13324SOL    HW243889   6.984   5.311   7.513 -2.2223  1.3717 -2.0226
13325SOL     OW43890   0.374   6.590   0.693  0.1560  0.0438 -0.1980
13325SOL    HW143891   0.316   6.590   0.617 -0.0262  0.6996 -0.0598
13325SOL    HW243892   0.316   6.604   0.768  0.1565 -1.8676  0.2152
13326SOL     OW43893   6.691   5.501   4.365 -0.1559 -0.4853 -0.1456
13326SOL    HW143894   6.692   5.464   4.453  2.1199 -0.6385 -0.1953
13326SOL    HW243895   6.619   5.456   4.321  0.0041 -1.9368  1.0098
13327SOL     OW43896   0.103   1.509   9.090  0.1413  0.4936 -0.4814
13327SOL    HW143897   0.188   1.528   9.129  0.4334  1.2910 -1.4458
13327SOL    HW243898   0.116   1.425   9.045  0.3359  0.4728 -0.3860
13328SOL     OW43899   9.189   5.049   4.865 -0.3182 -0.2031 -0.1710
13328SOL    HW143900   9.100   5.068   4.896  0.6424 -0.0859  2.8502
13328SOL    HW243901   9.228   5.135   4.848  0.2169  0.0179  1.8453
13329SOL     OW43902   4.176   0.835   8.042 -0.3192 -0.2664  0.1328
13329SOL    HW143903   4.156   0.782   8.119 -0.5763  2.7209  2.2932
13329SOL    HW243904   4.139   0.921   8.061  0.7081  0.9795 -2.8066
13330SOL     OW43905   9.199   3.795   1.558 -0.4665  0.0056 -0.1941
13330SOL    HW143906   9.290   3.766   1.565 -0.4734  0.1152  0.3940
13330SOL    HW243907   9.201   3.868   1.497  0.0486  0.8603  0.8210
13331SOL     OW43908   1.730   4.329   1.531 -0.8425  0.5842  0.1177
13331SOL    HW143909   1.777   4.266   1.476 -1.2820  0.2696  0.0982
13331SOL    HW243910   1.643   4.336   1.491 -1.4361 -0.2204  1.1834
13332SOL     OW43911   5.814   3.721   2.157 -0.1481 -0.8605 -0.4280
13332SOL    HW143912   5.839   3.763   2.075  0.2386  0.2381  0.2291
13332SOL    HW243913   5.811   3.628   2.136 -1.1166 -0.5263 -1.9504
13333SOL     OW43914   6.278   9.832   9.697  0.5355  0.0138  0.5011
13333SOL    HW143915   6.186   9.854   9.706  0.5076 -0.2857  1.0079
13333SOL    HW243916   6.315   9.847   9.784  0.7661 -0.7379  0.5454
13334SOL     OW43917   6.583  10.131   0.587 -0.0573  0.3912 -0.5094
13334SOL    HW143918   6.675  10.103   0.582 -0.3021 -0.5185 -0.1764
13334SOL    HW243919   6.552  10.095   0.670 -1.3025 -1.1728 -1.6061
13335SOL     OW43920   9.788   4.263   1.695  0.4341  0.3497 -0.1539
13335SOL    HW143921   9.819   4.201   1.629  0.2865  1.2058 -1.0419
13335SOL    HW243922   9.817   4.349   1.663 -0.3082  0.8538  0.4938
13336SOL     OW43923  10.077   8.945   8.003 -0.2093  0.0611 -0.5089
13336SOL    HW143924   9.982   8.949   8.016 -0.3993 -0.6513 -1.5749
13336SOL    HW243925  10.091   8.978   7.914  0.6873  1.4188  0.0970
13337SOL     OW43926   9.687   4.240   3.247  0.3536  0.7416  0.1050
13337SOL    HW143927   9.671   4.184   3.323 -0.7007  1.4831  0.4583
13337SOL    HW243928   9.638   4.199   3.176 -1.1964  1.6553  0.5839
13338SOL     OW43929   5.673   4.606   3.418  0.1610  0.4958 -0.3098
13338SOL    HW143930   5.716   4.619   3.502 -0.3992 -1.5541  0.3452
13338SOL    HW243931   5.602   4.545   3.437 -1.1948  1.4821 -1.9236
13339SOL     OW43932   7.486   9.952   1.272  0.1289 -0.2463 -0.0429
13339SOL    HW143933   7.550   9.945   1.201  0.6084 -1.1365  0.4540
13339SOL    HW243934   7.464  10.045   1.275  0.3341 -0.1489 -1.1485
13340SOL     OW43935   4.117   8.099   2.620 -0.1740  0.0264 -0.0808
13340SOL    HW143936   4.174   8.026   2.593  1.0037  0.2134  1.7739
13340SOL    HW243937   4.177   8.165   2.653 -1.2087  1.9927 -1.8844
13341SOL     OW43938   7.613   6.565   4.533 -0.2470 -0.0505 -0.7406
13341SOL    HW143939   7.537   6.594   4.483 -0.6449 -0.2347 -0.2586
13341SOL    HW243940   7.677   6.539   4.467  0.4866  2.6936 -1.2247
13342SOL     OW43941   9.931   5.461   5.348 -0.3510  0.0758  0.3095
13342SOL    HW143942   9.982   5.381   5.363  0.2338  0.7800  2.4842
13342SOL    HW243943   9.920   5.465   5.253  3.1186 -0.4623 -0.2650
13343SOL     OW43944   2.843   3.439   0.421  0.1079 -0.6844  0.2996
13343SOL    HW143945   2.772   3.503   0.419 -0.9780 -1.8769 -0.6320
13343SOL    HW243946   2.871   3.430   0.330  0.8787 -0.8755  0.5408
13344SOL     OW43947   9.225   5.378   5.892  0.2800 -0.0678  0.3393
13344SOL    HW143948   9.286   5.447   5.865  1.3522 -0.3365  1.9491
13344SOL    HW243949   9.251   5.302   5.840  1.4674 -0.2313  1.1458
13345SOL     OW43950   2.098   4.111   2.171  0.1049  0.0372  0.2817
13345SOL    HW143951   2.082   4.079   2.082 -2.2287  0.2680  0.5669
13345SOL    HW243952   2.101   4.206   2.163  0.4930  0.0398  0.3932
13346SOL     OW43953   6.148   8.283   9.779 -0.1866  0.5831 -0.2564
13346SOL    HW143954   6.093   8.212   9.745  0.6373 -0.2317  0.0712
13346SOL    HW243955   6.117   8.362   9.734 -0.0247 -0.2450 -1.8921
13347SOL     OW43956   6.288   6.775   8.880  0.6749  0.1857  0.2384
13347SOL    HW143957   6.203   6.785   8.837  1.1883  1.7186 -0.4630
13347SOL    HW243958   6.348   6.751   8.809  1.4759  2.4726  0.0606
13348SOL     OW43959   7.543   5.482   9.322  0.8333  0.6112 -0.1583
13348SOL    HW143960   7.453   5.510   9.341  0.2219 -0.5129 -1.2557
13348SOL    HW243961   7.572   5.539   9.251  1.5311  1.8888  1.0856
13349SOL     OW43962  10.014   8.270   1.847 -0.1660  0.0195 -0.2845
13349SOL    HW143963   9.993   8.357   1.813  0.0634  0.1961  0.0252
13349SOL    HW243964  10.070   8.231   1.780  0.3703  0.4052 -0.0621
13350SOL     OW43965   6.420   8.582   8.890  0.1555  0.3734 -0.0816
13350SOL    HW143966   6.470   8.512   8.931 -2.0370 -1.1502  0.1584
13350SOL    HW243967   6.485   8.634   8.843  2.0849 -0.7209  1.2600
13351SOL     OW43968   4.783   4.980   9.005 -1.1215  0.3201 -0.0781
13351SOL    HW143969   4.702   4.940   9.035 -0.4765 -0.3415  0.8371
13351SOL    HW243970   4.847   4.909   9.003 -0.1180  1.1404  0.9620
13352SOL     OW43971   1.354   2.984   4.676 -0.7068  0.2812  0.6027
13352SOL    HW143972   1.325   2.981   4.584 -3.4025 -1.7483  1.3813
13352SOL    HW243973   1.384   3.074   4.689 -2.8947  1.4412 -1.5524
13353SOL     OW43974   4.314   6.222   3.520 -0.3628  0.0085  0.0312
13353SOL    HW143975   4.229   6.263   3.507 -0.3331 -0.7304 -3.4013
13353SOL    HW243976   4.369   6.291   3.556 -2.2108  0.6127  1.9119
13354SOL     OW43977   8.873   9.470   9.818  0.2733  0.3403  0.2694
13354SOL    HW143978   8.889   9.488   9.911  0.0345 -0.2067  0.4243
13354SOL    HW243979   8.874   9.556   9.776  1.3549  0.5089  0.6184
13355SOL     OW43980   5.013   8.037   7.782 -0.0323  0.2176 -0.1809
13355SOL    HW143981   5.071   8.032   7.858  0.9768  1.1352 -0.8654
13355SOL    HW243982   4.926   8.054   7.820  0.2413 -0.5482  0.8234
13356SOL     OW43983   1.226   6.121   2.454 -0.3332 -0.0573 -0.0819
13356SOL    HW143984   1.248   6.037   2.494 -1.9704 -0.4626  0.0514
13356SOL    HW243985   1.276   6.185   2.505 -0.7013 -0.7611  1.2175
13357SOL     OW43986   3.276   6.958   9.601 -0.0308  0.3011 -0.0865
13357SOL    HW143987   3.363   6.991   9.578  0.5975 -0.4989  1.0813
13357SOL    HW243988   3.259   6.888   9.538  0.3433  0.1919 -0.0652
13358SOL     OW43989   9.362   1.185   6.325 -0.1051  0.3500 -0.0940
13358SOL    HW143990   9.329   1.140   6.403 -1.0049  0.0719 -0.6085
13358SOL    HW243991   9.457   1.174   6.329  0.0967  2.2090  2.0664
13359SOL     OW43992   1.351   8.975   1.618  0.4138 -0.2460  0.5775
13359SOL    HW143993   1.317   8.886   1.629 -3.1654  0.7043 -1.2242
13359SOL    HW243994   1.380   8.977   1.527 -0.1257  0.5826  0.4190
13360SOL     OW43995   2.340   2.957   3.395 -0.2272 -0.3251 -0.2556
13360SOL    HW143996   2.338   3.047   3.363 -1.8282  0.0857  0.8808
13360SOL    HW243997   2.428   2.927   3.375  0.5009  1.6433 -0.2443
13361SOL     OW43998   9.273   7.110   1.388 -0.2783 -0.0172  0.2213
13361SOL    HW143999   9.214   7.078   1.319  1.3056  0.2683 -1.3454
13361SOL    HW244000   9.356   7.065   1.371  0.6627  1.3980  0.8576
13362SOL     OW44001   2.259   5.717   1.319  0.3811 -0.2391 -0.5607
13362SOL    HW144002   2.232   5.644   1.375  0.8699  1.0904  1.5274
13362SOL    HW244003   2.342   5.747   1.356  0.0324  1.5838 -1.1432
13363SOL     OW44004   5.118   5.779   9.027  0.5156  0.1327 -0.0019
13363SOL    HW144005   5.080   5.754   8.943  0.9438 -1.0399  0.1350
13363SOL    HW244006   5.204   5.735   9.029  0.3896 -0.0982  1.1609
13364SOL     OW44007   0.978   9.332   8.001 -0.4093  0.2591 -0.5434
13364SOL    HW144008   0.972   9.315   8.094 -1.4687 -0.9165 -0.7984
13364SOL    HW244009   1.052   9.392   7.992  0.2091 -0.2349  0.9574
13365SOL     OW44010   0.663   0.378   4.960  0.1640  1.0428  0.0929
13365SOL    HW144011   0.706   0.458   4.991  2.4273  0.6818 -1.8234
13365SOL    HW244012   0.700   0.308   5.015  0.1003  1.0018  0.0842
13366SOL     OW44013   6.248   3.278   1.166 -0.3428 -0.5437 -0.4031
13366SOL    HW144014   6.339   3.294   1.139  0.5917 -1.5095  1.9193
13366SOL    HW244015   6.221   3.203   1.113  0.5131 -0.7633 -0.5527
13367SOL     OW44016   4.198   2.003   0.315  0.5555  0.1131 -0.1869
13367SOL    HW144017   4.163   2.092   0.312 -0.7862 -0.3784 -0.1109
13367SOL    HW244018   4.219   1.983   0.224 -2.7378 -0.7725 -0.9184
13368SOL     OW44019   4.657   8.216   0.818 -0.2899 -0.4209 -0.0151
13368SOL    HW144020   4.568   8.198   0.788 -1.0364 -0.0147  1.8028
13368SOL    HW244021   4.675   8.149   0.884  0.7319 -0.4390 -0.2846
13369SOL     OW44022   3.704   3.728   6.672  0.1844 -0.0984 -0.1728
13369SOL    HW144023   3.784   3.777   6.653 -0.2335 -0.1137 -2.2350
13369SOL    HW244024   3.732   3.636   6.674  0.2656 -0.0862 -0.6543
13370SOL     OW44025   9.938   2.818   8.734 -0.0364  0.3189  0.4437
13370SOL    HW144026   9.876   2.870   8.786  0.5290 -0.7338  2.2583
13370SOL    HW244027   9.883   2.768   8.674 -0.8673  0.3190  1.1847
13371SOL     OW44028   2.998   4.965   0.035 -0.4199 -0.1603 -0.0097
13371SOL    HW144029   2.948   5.046   0.036 -0.0346  0.1397 -1.7272
13371SOL    HW244030   3.087   4.991   0.010 -0.4588 -1.1426 -1.3425
13372SOL     OW44031   1.630   6.319   3.542  0.2384  0.4757  0.5476
13372SOL    HW144032   1.665   6.398   3.584 -1.0764  0.8245  1.0437
13372SOL    HW244033   1.621   6.256   3.614 -0.9945  0.7065  0.6126
13373SOL     OW44034   1.417   2.594  10.019  0.4781  0.3115  0.0022
13373SOL    HW144035   1.456   2.512   9.990  0.8364  0.5086 -0.0950
13373SOL    HW244036   1.452   2.608  10.107  1.3442  0.9264 -0.4185
13374SOL     OW44037   0.868   9.280   5.037  0.1615 -0.1897  0.2071
13374SOL    HW144038   0.863   9.215   4.968  3.0635  0.5894 -0.8821
13374SOL    HW244039   0.928   9.243   5.101 -1.1612 -0.1635  1.5204
13375SOL     OW44040   1.343   6.229   7.613  0.2156  0.3129  0.6093
13375SOL    HW144041   1.286   6.207   7.540  0.5215 -0.5264  0.6127
13375SOL    HW244042   1.301   6.189   7.690  1.3565 -1.3104  0.4430
13376SOL     OW44043   6.045   5.600   7.135 -0.3474  0.6220  0.2665
13376SOL    HW144044   6.093   5.575   7.214 -3.3704 -1.7750  1.5521
13376SOL    HW244045   6.102   5.571   7.063  1.2484  0.2480  1.5972
13377SOL     OW44046   0.174   9.756   3.964 -0.5075  0.3537  0.1308
13377SOL    HW144047   0.197   9.844   3.995 -1.4094  0.7578 -0.3049
13377SOL    HW244048   0.257   9.717   3.938 -0.1682  1.3151 -0.2657
13378SOL     OW44049   5.542   3.929   6.326 -0.0925  0.4512  0.1540
13378SOL    HW144050   5.571   3.865   6.261 -1.6730  0.5563 -0.7167
13378SOL    HW244051   5.559   3.888   6.410  2.4448  0.5035 -0.2718
13379SOL     OW44052   4.012   9.542   4.285  0.4646 -0.1705  0.0962
13379SOL    HW144053   3.929   9.511   4.322  0.0492 -0.0942 -0.7501
13379SOL    HW244054   4.050   9.465   4.243  0.1880  0.0906 -0.6476
13380SOL     OW44055   7.988   4.914   5.562  0.2696  0.1694  0.1441
13380SOL    HW144056   7.979   4.819   5.563  0.3378  0.1419 -0.9149
13380SOL    HW244057   8.071   4.930   5.518 -0.1113  0.7362 -0.3885
13381SOL     OW44058   7.750   3.380   0.592  0.9309  0.2554  0.4741
13381SOL    HW144059   7.708   3.427   0.521 -0.3876 -0.1703  0.9274
13381SOL    HW244060   7.723   3.289   0.580  2.2119 -0.1387  0.4605
13382SOL     OW44061   3.646   5.544   2.573 -0.1063 -0.1087  0.0819
13382SOL    HW144062   3.577   5.571   2.634 -0.9813  0.2579 -1.0370
13382SOL    HW244063   3.689   5.471   2.617 -2.9067 -2.1467 -0.2659
13383SOL     OW44064   2.145   6.413   7.354 -0.3658  0.4043  0.6053
13383SOL    HW144065   2.064   6.406   7.303 -0.4864  0.1290  0.8314
13383SOL    HW244066   2.154   6.506   7.372 -0.3242  0.5068  0.0855
13384SOL     OW44067   3.243   4.797   6.689 -0.1097 -0.1487  0.1087
13384SOL    HW144068   3.210   4.850   6.761 -0.6941  0.6920 -0.7627
13384SOL    HW244069   3.296   4.857   6.637 -2.1603  0.0872 -1.8338
13385SOL     OW44070   5.543   1.716   4.093  0.2689 -0.1850  0.3957
13385SOL    HW144071   5.455   1.680   4.106  0.0264  0.2607  0.0330
13385SOL    HW244072   5.587   1.701   4.177 -0.9951  1.8533  1.5206
13386SOL     OW44073   4.010   2.252   3.860 -0.2253  0.6158  0.7002
13386SOL    HW144074   3.938   2.303   3.896  0.3523  0.0918  2.7091
13386SOL    HW244075   4.024   2.181   3.922  1.2676  0.0313 -0.2299
13387SOL     OW44076   3.836   5.311   6.851 -0.1634 -0.7691  0.1533
13387SOL    HW144077   3.909   5.264   6.891  0.5090  0.5849  0.5505
13387SOL    HW244078   3.758   5.261   6.878  0.3728 -0.5970  2.1447
13388SOL     OW44079   6.183   2.414   5.092 -0.0033  0.3692  0.2672
13388SOL    HW144080   6.099   2.405   5.046 -0.8020  3.2262  0.9266
13388SOL    HW244081   6.169   2.370   5.176 -0.7631  0.6071  0.2740
13389SOL     OW44082   1.044   4.276   7.479  0.4368 -0.0443  0.0275
13389SOL    HW144083   1.051   4.237   7.392 -1.6770 -0.1958 -0.1256
13389SOL    HW244084   1.022   4.368   7.463  3.0901  0.7407  0.4185
13390SOL     OW44085   0.775   9.312   6.086  0.2516  0.3030  0.9711
13390SOL    HW144086   0.789   9.222   6.117  0.3007  0.1143  0.4203
13390SOL    HW244087   0.864   9.348   6.077  0.5955 -1.0512 -2.9879
13391SOL     OW44088   6.027   7.552   6.084 -0.2566  0.4082 -0.3061
13391SOL    HW144089   5.969   7.611   6.035 -1.1525 -0.6976 -0.6346
13391SOL    HW244090   6.110   7.598   6.090 -0.2617  0.7807 -2.4635
13392SOL     OW44091   5.569   4.999   3.254 -0.1458 -0.1369 -0.4302
13392SOL    HW144092   5.483   4.977   3.290  0.6249 -1.4199  0.6863
13392SOL    HW244093   5.604   4.916   3.222 -0.0570  0.6680 -2.6244
13393SOL     OW44094   5.447   5.923   8.935 -0.1564  0.0000 -0.1085
13393SOL    HW144095   5.521   5.915   8.875 -0.9662  0.6748 -1.2475
13393SOL    HW244096   5.438   5.836   8.973  0.4326 -0.4324 -0.9130
13394SOL     OW44097   3.740   6.651   3.338 -0.5745 -0.4875 -0.3192
13394SOL    HW144098   3.774   6.703   3.410  0.3558 -1.3818 -0.0869
13394SOL    HW244099   3.745   6.709   3.262 -1.7210  0.5189  0.3418
13395SOL     OW44100   8.096   1.549   5.467  0.2828  0.0674  0.3539
13395SOL    HW144101   8.066   1.560   5.377  0.8846  2.3099  0.3693
13395SOL    HW244102   8.144   1.466   5.467 -0.2709 -0.2757 -1.2080
13396SOL     OW44103   5.455   1.462   0.917  0.1344  0.2893  0.1303
13396SOL    HW144104   5.419   1.524   0.853 -0.3707  0.8686  0.9604
13396SOL    HW244105   5.520   1.512   0.966 -2.3694  1.1565  2.8497
13397SOL     OW44106   3.871   9.031   9.009  0.1590 -0.2042  0.1148
13397SOL    HW144107   3.925   8.970   8.959 -0.4188  0.1825 -1.0161
13397SOL    HW244108   3.892   9.013   9.101  0.2087 -1.9020 -0.2031
13398SOL     OW44109   6.841   7.315   7.350 -0.1143  0.1056  0.3042
13398SOL    HW144110   6.919   7.365   7.372  0.0965 -0.5508  1.1082
13398SOL    HW244111   6.800   7.296   7.434 -1.5735  1.0860 -0.1469
13399SOL     OW44112   4.176   5.564   2.219 -0.3034 -0.4400 -0.3075
13399SOL    HW144113   4.156   5.567   2.312 -4.8860  0.2830 -1.0843
13399SOL    HW244114   4.180   5.471   2.198  0.1356 -0.6104  0.4896
13400SOL     OW44115   2.149   2.326   2.959 -0.0584 -0.5802  0.1033
13400SOL    HW144116   2.070   2.357   2.916  0.2679  0.1684  0.0110
13400SOL    HW244117   2.129   2.333   3.053 -0.2910 -0.9175  0.0802
13401SOL     OW44118   7.283   9.755   9.330 -0.1759  0.8063 -0.2797
13401SOL    HW144119   7.296   9.832   9.386 -1.0994  0.5009  0.3798
13401SOL    HW244120   7.191   9.761   9.303 -0.4282 -0.3624  0.2502
13402SOL     OW44121   1.338   7.882   6.463  0.5578  0.1381 -0.1142
13402SOL    HW144122   1.357   7.844   6.377  2.0074  1.0287 -0.2056
13402SOL    HW244123   1.396   7.835   6.523  1.0716  0.9675  0.0430
13403SOL     OW44124   5.008   5.469   7.539  0.2505  0.3733 -0.2346
13403SOL    HW144125   5.034   5.476   7.447 -0.0191 -0.4501 -0.3880
13403SOL    HW244126   5.000   5.374   7.554  1.1009  0.4536  0.8621
13404SOL     OW44127   0.551   8.428   5.470 -0.0821  0.0128  0.4760
13404SOL    HW144128   0.513   8.417   5.382 -2.4478  2.9213  0.9801
13404SOL    HW244129   0.644   8.445   5.454 -0.9012  3.4365 -1.8513
13405SOL     OW44130   5.716   0.469   2.921  0.1279  0.1603 -0.5006
13405SOL    HW144131   5.750   0.529   2.988 -1.5189 -0.5637  1.0642
13405SOL    HW244132   5.746   0.506   2.838  1.9693  1.2773  0.5915
13406SOL     OW44133   7.888   4.126   8.713 -0.0264  0.0513 -0.1923
13406SOL    HW144134   7.949   4.091   8.648  2.0892 -0.0095  1.6985
13406SOL    HW244135   7.908   4.219   8.718 -0.9539  0.2708 -0.4134
13407SOL     OW44136   4.490   5.978   9.310 -0.0921  0.4786  0.5435
13407SOL    HW144137   4.490   5.901   9.252 -2.2630  1.8058 -1.3748
13407SOL    HW244138   4.578   6.015   9.301  0.0745 -0.1830 -0.7710
13408SOL     OW44139   5.891   0.370   9.383  0.0970 -0.1051 -0.5186
13408SOL    HW144140   5.809   0.401   9.343 -0.0696 -0.9995 -0.8787
13408SOL    HW244141   5.953   0.442   9.369 -0.8185  0.9062  0.4162
13409SOL     OW44142   1.977  10.004   6.234 -0.0408  0.2528  0.7238
13409SOL    HW144143   1.917  10.034   6.165  1.6421  1.1886 -0.3981
13409SOL    HW244144   2.064  10.013   6.196  0.8042 -2.4412  1.7709
13410SOL     OW44145   6.373   4.508   1.660 -0.5171  0.0692  0.2475
13410SOL    HW144146   6.346   4.496   1.751  0.1930 -0.2221  0.4205
13410SOL    HW244147   6.320   4.582   1.630 -1.2984 -0.3003  0.6681
13411SOL     OW44148   1.349   6.017   4.507 -0.4887 -0.3924  0.3495
13411SOL    HW144149   1.255   6.016   4.487 -0.1749 -0.6109 -1.2370
13411SOL    HW244150   1.378   6.105   4.483 -0.2319 -0.4303  0.5189
13412SOL     OW44151   1.122   9.146   2.262  0.6421 -0.0714  0.0033
13412SOL    HW144152   1.107   9.214   2.197 -1.0562  0.7793  1.2033
13412SOL    HW244153   1.052   9.083   2.248 -0.7289  0.9227  1.9336
13413SOL     OW44154   7.702   0.304   5.122 -0.0180  0.6693  0.0100
13413SOL    HW144155   7.701   0.238   5.052  2.3470  0.4749  0.1019
13413SOL    HW244156   7.661   0.259   5.197  0.1437 -0.1620 -0.3857
13414SOL     OW44157   8.659   9.543   2.968 -0.1551  0.1630 -0.3310
13414SOL    HW144158   8.750   9.516   2.957 -0.0751  1.0882 -2.7054
13414SOL    HW244159   8.610   9.462   2.974  0.7828 -0.3538  0.6143
13415SOL     OW44160   0.818   4.036   7.027  0.0758 -0.1189  0.5453
13415SOL    HW144161   0.851   4.034   6.937  0.7649  0.4240  0.7798
13415SOL    HW244162   0.894   4.057   7.080 -0.1051 -1.4416  1.3751
13416SOL     OW44163   4.456   6.725   8.458 -0.4930  0.1622  0.1463
13416SOL    HW144164   4.497   6.787   8.518 -1.0593  0.8508 -0.1663
13416SOL    HW244165   4.512   6.647   8.462  1.7616  1.5865 -1.4352
13417SOL     OW44166   4.054   2.805   0.353 -0.1402  0.3529  0.0143
13417SOL    HW144167   4.134   2.787   0.401 -0.0566  0.3476 -0.1262
13417SOL    HW244168   4.068   2.891   0.313 -1.0683  1.4064  1.8043
13418SOL     OW44169   1.487   0.346   6.077  0.2870 -0.1444  0.3728
13418SOL    HW144170   1.507   0.317   5.988  3.0239  1.1054  0.4608
13418SOL    HW244171   1.478   0.265   6.127 -1.0572 -0.8658 -0.9440
13419SOL     OW44172   9.727   1.078   0.072 -0.1108 -0.1460  0.1707
13419SOL    HW144173   9.660   1.145   0.084 -1.0176 -0.4469 -2.4506
13419SOL    HW244174   9.783   1.085   0.149 -1.6696  1.8516  1.2102
13420SOL     OW44175   3.370   4.162   4.392 -0.1621  0.4607  0.2144
13420SOL    HW144176   3.293   4.135   4.343 -0.1256 -0.1698  0.5000
13420SOL    HW244177   3.437   4.096   4.372 -0.2887 -0.0728  1.4628
13421SOL     OW44178   7.936   6.897   3.760  0.1636 -0.0055  0.0128
13421SOL    HW144179   7.876   6.924   3.690 -1.5408  0.7438  1.6709
13421SOL    HW244180   7.897   6.818   3.796  1.1348 -0.5007  0.0050
13422SOL     OW44181   3.468   6.433   7.001 -0.1376  0.6416  0.3729
13422SOL    HW144182   3.547   6.380   7.011 -0.2743  0.5272  0.8272
13422SOL    HW244183   3.499   6.523   7.007 -0.1882  0.5839  1.6441
13423SOL     OW44184   3.336   0.318   1.062  0.2728 -0.0545  0.1790
13423SOL    HW144185   3.333   0.280   0.974 -2.2664  1.2218 -0.4143
13423SOL    HW244186   3.269   0.270   1.111  0.9094 -0.0294  1.0890
13424SOL     OW44187   4.470   6.495   6.408 -0.7871  0.3868 -0.1415
13424SOL    HW144188   4.543   6.550   6.436 -0.4461  0.1717 -0.6033
13424SOL    HW244189   4.430   6.542   6.336 -1.3143  0.6661  0.3325
13425SOL     OW44190   7.943   7.210   7.006 -0.3352 -0.1772 -0.1317
13425SOL    HW144191   7.991   7.199   6.924 -0.2386 -0.7955  0.0020
13425SOL    HW244192   8.006   7.253   7.065  0.1718 -1.2385  0.1299
13426SOL     OW44193   4.666   1.366   3.038  0.6015  0.4532  0.1678
13426SOL    HW144194   4.603   1.299   3.064 -0.5483  1.3777 -0.1854
13426SOL    HW244195   4.617   1.448   3.038  1.5984  1.0869 -0.8952
13427SOL     OW44196   5.807   2.040   9.606 -0.2938 -0.3049  0.2730
13427SOL    HW144197   5.826   1.985   9.682  0.9211 -1.6789 -0.9438
13427SOL    HW244198   5.889   2.039   9.556 -0.9373  0.9011 -0.8355
13428SOL     OW44199   4.574   3.978   7.728 -0.5488 -0.9257 -0.0299
13428SOL    HW144200   4.512   4.006   7.661  0.0982 -1.7558 -1.0055
13428SOL    HW244201   4.597   4.058   7.774  0.9441  0.1898 -2.4747
13429SOL     OW44202   5.368   5.021   7.419 -0.2632  0.0924  0.1439
13429SOL    HW144203   5.463   5.023   7.425 -0.2800  0.6878  0.2419
13429SOL    HW244204   5.350   5.041   7.327 -0.3044  0.3514  0.2076
13430SOL     OW44205   7.692   7.327   6.349  0.0831  0.4524  0.0815
13430SOL    HW144206   7.633   7.262   6.386 -1.5485  0.8090 -1.7156
13430SOL    HW244207   7.674   7.407   6.398 -0.7638  0.4846 -0.2585
13431SOL     OW44208   5.961   7.035   1.559 -0.2783 -0.4490 -0.2400
13431SOL    HW144209   6.010   6.954   1.542 -1.4442 -0.6626 -3.1583
13431SOL    HW244210   5.972   7.050   1.653  2.8369 -2.0953 -0.1873
13432SOL     OW44211   1.490   4.932   7.860 -0.4314  0.0300  0.0635
13432SOL    HW144212   1.436   5.001   7.820  0.9585 -0.0357 -2.0718
13432SOL    HW244213   1.565   4.979   7.898 -0.7694 -0.0987  0.9173
13433SOL     OW44214   8.924   9.495   8.823 -0.7040  0.1479  0.8885
13433SOL    HW144215   8.835   9.487   8.791 -0.7367  1.1837  0.6935
13433SOL    HW244216   8.935   9.421   8.883 -1.7542  0.1259  1.0704
13434SOL     OW44217   9.101   6.401   7.322  0.1211  0.5986 -0.1645
13434SOL    HW144218   9.086   6.489   7.289 -0.3030  0.8711  0.7329
13434SOL    HW244219   9.065   6.343   7.254 -3.4548  1.1823  1.0067
13435SOL     OW44220   9.653   8.598   4.039  0.3729  0.0318 -0.3088
13435SOL    HW144221   9.677   8.624   3.950  0.4848  0.7493 -0.0762
13435SOL    HW244222   9.627   8.680   4.082  1.6782 -0.0600  0.7390
13436SOL     OW44223   8.675   0.923   0.325  0.2745  0.3110  0.7758
13436SOL    HW144224   8.702   1.006   0.365 -0.1794  0.4799  0.7380
13436SOL    HW244225   8.622   0.881   0.393 -0.9494  0.8355  0.1931
13437SOL     OW44226   6.412   2.405   5.568  0.6494 -0.3099 -0.3207
13437SOL    HW144227   6.453   2.460   5.635  0.3212 -0.8868  0.3673
13437SOL    HW244228   6.424   2.316   5.600 -1.9468 -0.4829  0.4209
13438SOL     OW44229   5.211   9.811   5.468 -0.3847 -0.4353 -0.1868
13438SOL    HW144230   5.271   9.886   5.463 -0.4070 -0.4116 -0.0875
13438SOL    HW244231   5.266   9.735   5.449 -0.5242 -0.3173 -1.1354
13439SOL     OW44232   2.674   2.163   8.993  0.5292 -0.2873  0.2711
13439SOL    HW144233   2.593   2.112   8.994 -0.4848  1.1976 -0.7617
13439SOL    HW244234   2.663   2.226   9.065  0.2648  0.6012 -0.5247
13440SOL     OW44235   6.410   8.835   4.249  0.2924 -0.0768  0.7607
13440SOL    HW144236   6.361   8.763   4.209 -0.7717  0.5833  0.8638
13440SOL    HW244237   6.351   8.910   4.247  1.5931  0.9866  0.0935
13441SOL     OW44238   6.033   9.446   9.042  0.0575  0.4179  0.5190
13441SOL    HW144239   6.123   9.458   9.071 -0.6563  0.8164  2.7996
13441SOL    HW244240   5.988   9.527   9.067 -0.4873  1.3250 -2.8418
13442SOL     OW44241   5.153   3.902   9.750 -0.1832 -0.4971 -0.0497
13442SOL    HW144242   5.108   3.843   9.691 -2.3711  0.3202  0.6892
13442SOL    HW244243   5.114   3.988   9.733 -0.6473 -0.1628  2.2557
13443SOL     OW44244   5.089   3.955   6.543 -0.1208  0.2712  0.4076
13443SOL    HW144245   5.117   4.016   6.475  0.7864 -0.7047 -0.1279
13443SOL    HW244246   4.998   3.936   6.521  0.0756  0.1801 -0.3953
13444SOL     OW44247   8.844   6.504   4.071  0.4302  0.4664 -0.6041
13444SOL    HW144248   8.758   6.473   4.041  0.2600 -0.7405  1.0000
13444SOL    HW244249   8.834   6.598   4.079 -1.2215  0.2141  0.8801
13445SOL     OW44250   2.641   0.971   6.764  0.0446  0.0795 -0.5444
13445SOL    HW144251   2.660   1.060   6.795  0.2586 -0.2876  0.3951
13445SOL    HW244252   2.549   0.973   6.737 -0.3818  0.2007  0.8704
13446SOL     OW44253   6.100   5.878   4.360  0.4787 -0.6027 -0.2053
13446SOL    HW144254   6.180   5.900   4.312 -0.2871  0.0523 -1.2504
13446SOL    HW244255   6.104   5.783   4.372  2.7434 -0.3082  2.3073
13447SOL     OW44256   2.788   5.075   1.321 -0.1732  0.3882 -0.6002
13447SOL    HW144257   2.820   5.112   1.239  0.0367  3.0083  0.5741
13447SOL    HW244258   2.786   5.149   1.382 -1.2593 -1.2578  1.4991
13448SOL     OW44259   0.108   1.500   4.375  0.2738  0.2103  0.3199
13448SOL    HW144260   0.075   1.523   4.289 -0.9758 -1.1910  0.3737
13448SOL    HW244261   0.029   1.480   4.426  1.0423  0.0780  1.5020
13449SOL     OW44262   5.725   3.436   4.979  0.4688 -0.2065  0.2067
13449SOL    HW144263   5.650   3.479   5.019  1.4577  0.0039  1.9652
13449SOL    HW244264   5.687   3.375   4.915 -1.0302  1.8514 -0.9709
13450SOL     OW44265   2.582  10.199   3.127 -0.3695 -0.7895 -0.4992
13450SOL    HW144266   2.496  10.241   3.125 -0.3572 -0.7465 -0.1339
13450SOL    HW244267   2.563  10.106   3.113 -0.4429 -0.7303 -0.7915
13451SOL     OW44268   4.850   4.352   1.523 -0.2271  0.6646  0.2152
13451SOL    HW144269   4.838   4.419   1.457 -1.1326 -1.3201 -1.7548
13451SOL    HW244270   4.943   4.357   1.546  0.5493  0.2869 -2.5247
13452SOL     OW44271   8.306   6.567   0.702  0.2850  0.2070 -0.6312
13452SOL    HW144272   8.243   6.638   0.693 -0.2096 -0.3137 -1.5449
13452SOL    HW244273   8.312   6.551   0.796 -1.1462  0.1237 -0.5278
13453SOL     OW44274   6.438   1.431   1.394  0.4731  0.7360 -0.3059
13453SOL    HW144275   6.357   1.393   1.360  0.4851 -0.7964  1.2714
13453SOL    HW244276   6.504   1.408   1.329  0.3752 -1.5817  0.3248
13454SOL     OW44277   5.711   4.890   4.294 -0.0870  0.3722 -0.0595
13454SOL    HW144278   5.678   4.806   4.263  0.2761  0.7417 -1.4889
13454SOL    HW244279   5.635   4.948   4.291 -0.3063  0.1497  0.8038
13455SOL     OW44280   3.869   7.141   8.073  0.8314  0.0951 -0.1076
13455SOL    HW144281   3.858   7.084   8.149 -3.1053 -1.1661 -1.3592
13455SOL    HW244282   3.939   7.100   8.023  2.3519  0.0129  1.9653
13456SOL     OW44283   2.450   2.565   2.550  0.0839 -0.2456  0.6883
13456SOL    HW144284   2.389   2.618   2.603 -2.3119 -0.0140 -2.0799
13456SOL    HW244285   2.486   2.627   2.487  0.1209 -1.1816 -0.2219
13457SOL     OW44286   1.093   5.530   3.912 -0.2378  0.2530  0.1185
13457SOL    HW144287   1.014   5.476   3.919 -1.2573  1.2360 -2.5183
13457SOL    HW244288   1.164   5.468   3.899 -0.7405 -0.6015  1.3570
13458SOL     OW44289   9.980   3.037   2.763 -0.4439 -0.4027 -0.2782
13458SOL    HW144290   9.930   2.955   2.758  1.4949 -1.6729  0.0415
13458SOL    HW244291   9.972   3.064   2.855 -1.0073 -0.2739 -0.3607
13459SOL     OW44292   2.978   4.498   9.534 -0.0169  0.2766 -0.3511
13459SOL    HW144293   3.014   4.497   9.623  1.2526 -1.0758 -0.8455
13459SOL    HW244294   2.951   4.407   9.518  1.9724 -0.0703 -2.1677
13460SOL     OW44295   7.626   1.878   7.009 -0.4384  0.2746  0.8062
13460SOL    HW144296   7.564   1.938   7.051 -0.9198 -0.5629  1.3284
13460SOL    HW244297   7.579   1.794   7.007  1.1303 -0.6995  2.3548
13461SOL     OW44298   8.658   4.602   4.311  0.2473 -0.0777  0.4037
13461SOL    HW144299   8.605   4.682   4.314  1.6755  0.9086  0.2235
13461SOL    HW244300   8.595   4.532   4.297 -1.0977  0.9585  1.0382
13462SOL     OW44301   1.789   7.298   5.955 -0.3461  0.5606 -0.4005
13462SOL    HW144302   1.716   7.244   5.985  0.2828  0.3892  0.8910
13462SOL    HW244303   1.812   7.262   5.870  0.2417 -1.4341  0.5427
13463SOL     OW44304   5.103   1.779   9.857 -0.1500 -0.1469  0.1080
13463SOL    HW144305   5.090   1.776   9.952  0.7579 -1.1006  0.2180
13463SOL    HW244306   5.184   1.829   9.846  0.8513 -1.7507 -0.0255
13464SOL     OW44307   7.291   8.969   6.337 -0.2951 -0.0719 -0.2202
13464SOL    HW144308   7.288   8.925   6.422  1.1966 -2.0227 -1.1009
13464SOL    HW244309   7.212   9.022   6.335 -0.9820 -0.9054  1.8887
13465SOL     OW44310   8.967   2.002   1.097  0.5616 -0.1060 -0.4998
13465SOL    HW144311   8.958   2.060   1.021  1.0839 -1.1966 -1.4271
13465SOL    HW244312   8.915   2.044   1.165 -2.1613 -0.3755 -2.2221
13466SOL     OW44313   4.694   3.239   9.516  0.1102  0.1170  0.1960
13466SOL    HW144314   4.676   3.213   9.606  2.1034  1.2734  0.9967
13466SOL    HW244315   4.687   3.334   9.516  0.8988  0.2042 -0.6551
13467SOL     OW44316   0.641   7.557   7.385  0.0357  0.4302 -0.1131
13467SOL    HW144317   0.697   7.614   7.439 -0.0322 -0.3701  0.8321
13467SOL    HW244318   0.552   7.587   7.405  0.0060  0.0804  0.3010
13468SOL     OW44319   8.349   3.677   4.931 -0.0305 -0.7529 -0.1242
13468SOL    HW144320   8.287   3.738   4.893  1.0226  0.4152 -0.0486
13468SOL    HW244321   8.309   3.591   4.920 -0.3875 -0.3412 -2.6258
13469SOL     OW44322   3.936   6.608   7.862  0.0366  0.3355  0.3142
13469SOL    HW144323   3.878   6.629   7.789 -0.0798 -0.6643  0.0957
13469SOL    HW244324   4.024   6.621   7.828  0.0421 -1.5342 -0.5186
13470SOL     OW44325   6.279   5.202   5.581  0.3308  0.2828 -0.4633
13470SOL    HW144326   6.317   5.153   5.508 -0.1714 -2.0586  0.7588
13470SOL    HW244327   6.305   5.293   5.565  3.1570 -0.6466 -1.7008
13471SOL     OW44328   5.796   5.266   2.729 -0.3301 -0.2640 -0.0168
13471SOL    HW144329   5.763   5.207   2.662 -1.9810 -0.6874  1.1061
13471SOL    HW244330   5.800   5.212   2.809 -0.4495  0.7480  0.6915
13472SOL     OW44331   6.323   2.102   7.484 -0.6059 -0.2803  0.2926
13472SOL    HW144332   6.273   2.086   7.404  0.3096 -1.6957 -0.0191
13472SOL    HW244333   6.399   2.045   7.477  0.4341  0.9326  1.3357
13473SOL     OW44334   6.808   8.501   7.025 -0.5213 -0.1250 -0.0291
13473SOL    HW144335   6.900   8.524   7.041 -0.8492  1.0666  0.2601
13473SOL    HW244336   6.809   8.451   6.944  0.5775 -1.6258  0.8473
13474SOL     OW44337   5.591   5.950   1.574 -0.3031 -0.0549  0.0725
13474SOL    HW144338   5.510   5.993   1.545 -0.3657  0.1064  0.4700
13474SOL    HW244339   5.576   5.857   1.558 -0.3218  0.0314 -0.4327
13475SOL     OW44340   3.622   1.329   3.233 -0.0061 -0.0448  0.0575
13475SOL    HW144341   3.714   1.354   3.232 -0.2218  0.7410 -0.9226
13475SOL    HW244342   3.621   1.246   3.282  1.0911  0.3791  0.8488
13476SOL     OW44343   5.070   9.599   8.292  0.0300  0.2413  0.6407
13476SOL    HW144344   5.028   9.681   8.319  1.3449  1.3572 -0.5565
13476SOL    HW244345   5.161   9.609   8.319  0.5106 -0.2336 -0.7569
13477SOL     OW44346   5.492   2.042   5.674 -0.5135 -0.0760 -0.1860
13477SOL    HW144347   5.500   2.006   5.586 -1.0239 -1.9479  0.4909
13477SOL    HW244348   5.579   2.075   5.695 -0.0852 -0.7181 -0.9372
13478SOL     OW44349   1.166   1.460   6.919  0.2287  0.0156 -0.1203
13478SOL    HW144350   1.205   1.545   6.937 -1.0688  0.1169  2.7092
13478SOL    HW244351   1.172   1.413   7.002  0.5785 -2.5740 -1.4915
13479SOL     OW44352   5.831   3.024   6.240  0.4482  0.2517 -0.2200
13479SOL    HW144353   5.825   3.106   6.191 -2.6813  0.3195  0.0893
13479SOL    HW244354   5.743   2.988   6.239  1.3765 -2.3531  1.0240
13480SOL     OW44355   6.314   3.955   5.208 -0.7152  0.0530  0.4094
13480SOL    HW144356   6.366   4.033   5.230  1.4334 -1.0383 -0.4326
13480SOL    HW244357   6.296   3.964   5.115 -1.3319  0.0143  0.5235
13481SOL     OW44358   7.112   8.162   8.560  0.0271 -0.3655 -0.6031
13481SOL    HW144359   7.066   8.134   8.639  1.9156 -0.3422  0.5676
13481SOL    HW244360   7.196   8.116   8.563  0.0485 -0.6056 -2.7782
13482SOL     OW44361   5.961   4.215   9.735  0.1321  0.4953  0.6649
13482SOL    HW144362   6.047   4.174   9.733 -0.8684 -1.8753  1.6281
13482SOL    HW244363   5.955   4.255   9.821 -0.4447 -1.1852  1.4494
13483SOL     OW44364   6.211   2.576   5.458 -0.0408 -1.2867  0.4906
13483SOL    HW144365   6.132   2.549   5.504  0.8122  0.1598  2.9920
13483SOL    HW244366   6.281   2.526   5.500  0.8965  0.8832  1.6685
13484SOL     OW44367   9.390   6.112   9.795 -0.0286  0.1522  0.1185
13484SOL    HW144368   9.328   6.130   9.866  0.5517  0.2880  0.5979
13484SOL    HW244369   9.403   6.196   9.752 -1.9883 -0.3038 -1.5019
13485SOL     OW44370   3.713   1.221   4.799 -0.1440 -0.0348  0.1711
13485SOL    HW144371   3.788   1.169   4.771  1.8683  1.3051  2.6538
13485SOL    HW244372   3.692   1.276   4.723  0.1786 -1.6594 -1.1474
13486SOL     OW44373   3.576   8.452   8.130 -0.6530  0.7275  0.3427
13486SOL    HW144374   3.515   8.435   8.057 -1.5782  0.2117  1.2118
13486SOL    HW244375   3.587   8.547   8.130  0.7753  0.6294 -1.5696
13487SOL     OW44376   4.279   8.650   5.628 -0.1880  0.2735 -0.1123
13487SOL    HW144377   4.217   8.578   5.643 -0.7133  0.7020 -0.1631
13487SOL    HW244378   4.302   8.680   5.715  0.2633 -0.1446 -0.0847
13488SOL     OW44379   5.880   5.846   1.577  0.0861  0.1445  0.2997
13488SOL    HW144380   5.887   5.818   1.486 -1.4237  1.2802 -0.2017
13488SOL    HW244381   5.913   5.936   1.577 -1.1733  0.6315  0.5811
13489SOL     OW44382   6.932   1.370   1.228  0.4114 -0.8802 -0.7686
13489SOL    HW144383   7.022   1.337   1.235  0.2090 -1.1856  0.7144
13489SOL    HW244384   6.879   1.304   1.272 -0.0002  1.4610  2.5976
13490SOL     OW44385   3.953   7.744   8.055 -0.4263 -0.2850  0.1417
13490SOL    HW144386   3.996   7.676   8.004 -0.0406 -1.2918  1.7438
13490SOL    HW244387   3.939   7.816   7.993  0.7228 -1.1446 -1.1578
13491SOL     OW44388   1.009   5.810   3.546  0.2962  0.0483 -0.0179
13491SOL    HW144389   1.060   5.798   3.627  0.2259  1.3176  0.2419
13491SOL    HW244390   1.076   5.824   3.478  0.3337  1.0808  0.2113
13492SOL     OW44391   9.700   9.173   7.307  0.4071 -0.3527 -0.3674
13492SOL    HW144392   9.665   9.179   7.396  0.7609 -1.6629 -0.1119
13492SOL    HW244393   9.628   9.136   7.256  0.6847 -0.9848 -0.3062
13493SOL     OW44394   9.476   7.934   4.456  0.5401  0.5054  0.7584
13493SOL    HW144395   9.402   7.931   4.396  2.8148 -1.4087 -2.2848
13493SOL    HW244396   9.499   8.027   4.462 -0.6951  0.8889 -0.1005
13494SOL     OW44397   0.723   7.635   6.827  0.1552  0.2751  0.4128
13494SOL    HW144398   0.685   7.574   6.890 -1.2641  0.7833  0.0846
13494SOL    HW244399   0.735   7.582   6.748  1.0807 -0.1325  0.8115
13495SOL     OW44400   6.024   8.738   2.136 -0.2013  0.0604  0.5086
13495SOL    HW144401   6.012   8.786   2.054 -0.8670  2.5116  1.9304
13495SOL    HW244402   6.006   8.803   2.204 -1.4359 -2.3198  2.6112
13496SOL     OW44403   2.161   6.437   8.587  0.3241  0.0456  0.0522
13496SOL    HW144404   2.242   6.425   8.538  1.0115  2.6073  0.4074
13496SOL    HW244405   2.091   6.430   8.521  1.0969  1.3968 -0.9604
13497SOL     OW44406   2.151   0.545   6.759  0.4507 -0.3104  0.2148
13497SOL    HW144407   2.127   0.453   6.749 -0.9854 -0.1227  1.6567
13497SOL    HW244408   2.102   0.590   6.690 -1.5345 -0.2393  1.6103
13498SOL     OW44409   3.301   4.851   5.603 -0.0287  0.2838 -0.5471
13498SOL    HW144410   3.233   4.796   5.643 -0.2775  1.0308  0.0724
13498SOL    HW244411   3.333   4.906   5.675  1.2143 -0.0308 -0.8416
13499SOL     OW44412   1.841   9.487   1.232  0.2093 -0.2186  0.4621
13499SOL    HW144413   1.864   9.580   1.233 -0.5073 -0.0189 -0.4146
13499SOL    HW244414   1.924   9.442   1.249  0.3514  0.5932  2.1611
13500SOL     OW44415   5.966   7.379   6.284  0.8980 -0.6553 -0.2969
13500SOL    HW144416   6.002   7.451   6.232  2.5156 -2.3237 -1.6197
13500SOL    HW244417   5.882   7.360   6.242  0.5599  0.3015 -0.0754
13501SOL     OW44418   0.696   1.848   5.182 -0.4492 -0.1915  0.5249
13501SOL    HW144419   0.645   1.891   5.114  0.2780 -0.1404 -0.0054
13501SOL    HW244420   0.749   1.919   5.220 -0.8628 -0.2163  1.1576
13502SOL     OW44421   4.515   1.539   5.116 -0.0826 -0.0280  0.6334
13502SOL    HW144422   4.552   1.502   5.036  0.4751  0.6030  0.5950
13502SOL    HW244423   4.576   1.514   5.185 -0.2639 -0.0787  0.7779
13503SOL     OW44424   5.880   3.127   4.718 -0.0765  0.3146 -0.3010
13503SOL    HW144425   5.961   3.098   4.676 -0.6298 -1.9058 -0.0112
13503SOL    HW244426   5.813   3.114   4.650 -0.2549  1.8787 -0.4533
13504SOL     OW44427   6.827   3.877   1.917  0.3756 -0.3469 -0.1406
13504SOL    HW144428   6.837   3.802   1.976  0.1749  0.2246  0.6391
13504SOL    HW244429   6.782   3.842   1.841  0.8671 -1.1592 -0.0721
13505SOL     OW44430  10.064   0.262   5.537 -0.1482  0.1666 -0.2710
13505SOL    HW144431  10.124   0.320   5.584 -1.0335  0.2324  0.7998
13505SOL    HW244432  10.070   0.292   5.446 -0.6452  2.0157  0.2544
13506SOL     OW44433   6.371   2.271   5.314  0.6402  0.3447 -0.3074
13506SOL    HW144434   6.375   2.330   5.390 -1.7689 -1.0617  1.0281
13506SOL    HW244435   6.296   2.214   5.332  1.0200 -1.1467 -2.9903
13507SOL     OW44436   4.712   0.176   1.463  0.2018  0.1957 -0.0512
13507SOL    HW144437   4.779   0.125   1.509  0.6497  0.2061 -0.6693
13507SOL    HW244438   4.634   0.122   1.466  0.6542 -0.5080 -0.6443
13508SOL     OW44439   7.521   8.794   8.720  0.4879 -0.2117  0.3706
13508SOL    HW144440   7.573   8.816   8.797  0.3911 -0.9845  0.6630
13508SOL    HW244441   7.512   8.877   8.672 -0.5624  0.5789  1.8607
13509SOL     OW44442   0.883   4.996   6.691  0.6519 -0.1381 -0.5612
13509SOL    HW144443   0.903   4.983   6.599 -0.8954 -2.4941 -0.6588
13509SOL    HW244444   0.908   4.913   6.733 -1.1415 -0.1452  0.6268
13510SOL     OW44445   5.687   9.420   7.292  0.2345  0.3600  0.2017
13510SOL    HW144446   5.687   9.404   7.198  1.2423  1.5872 -0.0196
13510SOL    HW244447   5.779   9.428   7.316  0.0473 -0.7074  1.4548
13511SOL     OW44448   0.983   5.121   0.824  0.1776  0.2390  0.0864
13511SOL    HW144449   0.994   5.153   0.734  0.3839 -0.3420 -0.0959
13511SOL    HW244450   0.971   5.027   0.815  0.2659  0.1669  0.6771
13512SOL     OW44451   2.516   9.743   4.820  0.3553  0.0394 -0.0940
13512SOL    HW144452   2.599   9.791   4.829  0.1144  0.3057  0.8651
13512SOL    HW244453   2.526   9.693   4.739  0.9113  1.1357 -0.7335
13513SOL     OW44454   4.007   2.263   8.468 -0.4328  0.0453  0.1894
13513SOL    HW144455   3.996   2.317   8.390 -3.4166 -0.8614 -0.1149
13513SOL    HW244456   4.099   2.235   8.464  0.4912  2.8725 -1.0192
13514SOL     OW44457   0.364   6.486   5.779 -0.1120  0.0809 -0.4701
13514SOL    HW144458   0.363   6.416   5.844 -2.1344  0.1720 -0.3556
13514SOL    HW244459   0.417   6.451   5.707 -0.6869 -1.3766 -0.2108
13515SOL     OW44460   9.452   2.135   3.624 -0.0110  0.1890  0.0722
13515SOL    HW144461   9.479   2.045   3.643 -0.4354 -0.2219 -1.1599
13515SOL    HW244462   9.358   2.129   3.608  0.0705  0.7368 -0.6624
13516SOL     OW44463   1.630   8.622   1.660  0.4552 -0.2639  0.2407
13516SOL    HW144464   1.602   8.562   1.591  0.8615  0.5846 -0.6848
13516SOL    HW244465   1.682   8.568   1.719  1.2986 -0.7030 -0.8847
13517SOL     OW44466   8.228   3.496   2.450  0.4671 -0.1999 -0.8540
13517SOL    HW144467   8.232   3.462   2.539 -0.6803 -0.2953 -0.8259
13517SOL    HW244468   8.242   3.419   2.395  0.4818 -0.2591 -0.7683
13518SOL     OW44469   7.662   6.964   2.868 -0.6074 -0.1719 -0.1793
13518SOL    HW144470   7.706   7.024   2.928 -2.9921  0.4908  0.9888
13518SOL    HW244471   7.675   6.877   2.907  0.2980 -0.1033 -0.2927
13519SOL     OW44472   9.868   1.169   3.690  0.0043  0.0478  0.4696
13519SOL    HW144473   9.883   1.247   3.637 -0.5759 -0.7133 -0.8731
13519SOL    HW244474   9.899   1.192   3.777  1.3806  1.2078 -0.2932
13520SOL     OW44475  10.122   8.579   4.651  0.5076  0.1417 -0.0178
13520SOL    HW144476  10.208   8.557   4.688  0.1122 -0.8047  0.3475
13520SOL    HW244477  10.093   8.499   4.607 -0.0597  0.5535 -0.4035
13521SOL     OW44478   5.605   6.348   8.385  0.9485 -0.0927 -0.3849
13521SOL    HW144479   5.693   6.380   8.368  0.4841  0.8415 -1.0903
13521SOL    HW244480   5.591   6.364   8.479  1.4044  0.0556 -0.3435
13522SOL     OW44481   3.917   8.960   3.493  0.2224  0.2724  0.4689
13522SOL    HW144482   4.000   8.975   3.539  0.7136  0.0043 -0.3100
13522SOL    HW244483   3.862   9.034   3.518  0.1590 -0.2997  2.1594
13523SOL     OW44484   8.792   3.813   9.019 -0.0568 -0.2021  0.2002
13523SOL    HW144485   8.829   3.858   9.095  1.4344 -0.2629 -0.4502
13523SOL    HW244486   8.717   3.764   9.054  0.6426 -0.2890  1.6436
13524SOL     OW44487   3.736   6.874   3.509  0.1090 -0.0392 -0.0226
13524SOL    HW144488   3.715   6.854   3.600  2.5034  0.7894  0.7790
13524SOL    HW244489   3.690   6.956   3.491  1.1177  0.7815  1.0687
13525SOL     OW44490   7.652   3.025   2.872 -0.1706  0.0263 -0.3052
13525SOL    HW144491   7.606   3.084   2.811 -1.2575  0.3973  0.8414
13525SOL    HW244492   7.696   2.963   2.815 -1.5864  0.0420 -1.4870
13526SOL     OW44493   0.212   6.915   7.398 -0.3650  0.3299 -0.3719
13526SOL    HW144494   0.132   6.951   7.358  0.4622  4.4994  1.1718
13526SOL    HW244495   0.283   6.947   7.342  0.4238  0.9207  0.9138
13527SOL     OW44496   5.445   9.961   2.662 -0.2950 -0.2231  0.1300
13527SOL    HW144497   5.512   9.898   2.685 -0.8083 -1.4446 -1.4928
13527SOL    HW244498   5.473   9.996   2.577 -0.6375  0.8436  0.4395
13528SOL     OW44499   9.134   2.683   8.142 -0.0152  0.4500  0.0711
13528SOL    HW144500   9.143   2.641   8.228 -0.8953 -1.8199 -0.8505
13528SOL    HW244501   9.044   2.714   8.140 -0.2580 -0.2410 -0.2954
13529SOL     OW44502   2.567   2.220   0.127  0.4179  0.0972  0.2649
13529SOL    HW144503   2.653   2.224   0.084  0.4981  1.4423  0.5091
13529SOL    HW244504   2.584   2.249   0.217 -0.3961  1.0985  0.1184
13530SOL     OW44505   4.355   0.555   9.538 -0.4650 -0.7968  0.4946
13530SOL    HW144506   4.315   0.542   9.451  0.9746 -0.8276 -0.1946
13530SOL    HW244507   4.307   0.627   9.576  0.1044  0.5136 -1.1428
13531SOL     OW44508   6.878   5.569   9.294  0.1871 -0.1557  0.1430
13531SOL    HW144509   6.930   5.489   9.288  0.2254 -0.1225  0.0435
13531SOL    HW244510   6.847   5.570   9.385 -0.3293 -0.6052 -0.0228
13532SOL     OW44511   4.148   5.376   8.853 -0.3133  0.1557 -0.5497
13532SOL    HW144512   4.190   5.445   8.905  1.3323 -1.2438  0.1026
13532SOL    HW244513   4.132   5.306   8.917 -2.2212  0.0125 -1.1322
13533SOL     OW44514   2.878   5.113   3.189  0.0493  0.1871  0.5918
13533SOL    HW144515   2.887   5.103   3.094  0.2851  2.2653  0.3485
13533SOL    HW244516   2.791   5.152   3.201  0.0972  0.1133  1.2106
13534SOL     OW44517   8.856   0.700   4.592 -0.0374 -0.4573 -0.2173
13534SOL    HW144518   8.897   0.632   4.646 -0.5750 -0.9086 -0.3584
13534SOL    HW244519   8.897   0.691   4.506  0.0078 -0.4946 -0.1920
13535SOL     OW44520   0.683   5.652   1.202  0.1597 -0.3994  0.8390
13535SOL    HW144521   0.754   5.634   1.140 -0.5125  0.9938 -0.4058
13535SOL    HW244522   0.694   5.744   1.225  0.6422 -0.9807  3.2018
13536SOL     OW44523   1.939   1.764   4.003  0.0704  0.1476 -0.5309
13536SOL    HW144524   1.924   1.729   3.916 -0.4275 -0.8853 -0.0422
13536SOL    HW244525   1.855   1.804   4.027  0.5378  1.4278 -0.9562
13537SOL     OW44526   3.065   1.297   8.705  0.6185  0.3663 -0.3305
13537SOL    HW144527   3.066   1.347   8.787 -0.7700 -0.6724  0.3612
13537SOL    HW244528   3.076   1.363   8.636 -1.2865  1.6737  0.5417
13538SOL     OW44529   5.960   5.999   7.261 -0.0447  0.0446 -0.0136
13538SOL    HW144530   6.019   5.995   7.337  0.9171 -0.4446 -0.7617
13538SOL    HW244531   6.009   6.049   7.196 -1.0448  0.8516 -0.1749
13539SOL     OW44532   3.374   8.514   9.038  0.0841  0.1448  0.1509
13539SOL    HW144533   3.287   8.477   9.048 -0.4463  1.1786 -0.4888
13539SOL    HW244534   3.399   8.494   8.948 -0.6736  2.2332 -0.5730
13540SOL     OW44535   5.981   7.606   2.046  0.2927 -0.2423  0.3538
13540SOL    HW144536   5.964   7.686   1.995 -0.4868 -0.5168  0.1809
13540SOL    HW244537   5.903   7.552   2.034  0.1281 -0.3553  1.7714
13541SOL     OW44538   9.853   4.653   9.322  0.0628  0.0787  0.2715
13541SOL    HW144539   9.856   4.631   9.415 -0.6577 -1.5662 -0.0471
13541SOL    HW244540   9.925   4.715   9.309 -0.0077  0.5542  1.9613
13542SOL     OW44541   5.521   4.391   3.813 -0.1927 -0.2209  0.3147
13542SOL    HW144542   5.458   4.333   3.770 -0.6112  0.4889 -0.0434
13542SOL    HW244543   5.468   4.449   3.867  0.3430 -1.2600  2.0435
13543SOL     OW44544   6.611   2.588   7.529  0.4186  0.4412  0.1839
13543SOL    HW144545   6.586   2.613   7.618  1.4717  0.8857  0.3633
13543SOL    HW244546   6.530   2.594   7.479 -0.6232 -1.6028  1.4675
13544SOL     OW44547  10.074   0.638   3.763 -0.5898 -0.0646  0.2202
13544SOL    HW144548  10.007   0.655   3.829  0.5204  0.5406  1.2179
13544SOL    HW244549  10.087   0.543   3.767 -0.3373 -0.0022  1.0809
13545SOL     OW44550   8.483   4.808   4.734 -0.3486 -0.6957 -0.3982
13545SOL    HW144551   8.412   4.824   4.796  0.7996 -1.8906  1.3366
13545SOL    HW244552   8.452   4.735   4.681 -1.2185  0.1314 -1.0626
13546SOL     OW44553   6.294   4.932   8.974 -0.6835 -0.2522 -0.0736
13546SOL    HW144554   6.361   4.920   9.042 -0.9639  0.2831  0.3066
13546SOL    HW244555   6.335   4.990   8.910 -0.7903  0.1148  0.1829
13547SOL     OW44556   6.022   2.985   6.729  0.1511  0.1384 -0.3253
13547SOL    HW144557   6.062   2.900   6.710  0.3460  0.4570 -1.4506
13547SOL    HW244558   5.962   3.000   6.656 -1.3291  0.1163  0.8379
13548SOL     OW44559   2.943   7.878   2.886  0.1047  0.0112  0.0636
13548SOL    HW144560   3.001   7.935   2.835 -1.9279  2.0529 -0.1218
13548SOL    HW244561   2.855   7.910   2.867 -0.9700 -1.6547  1.9025
13549SOL     OW44562   4.312   2.182   5.794  0.0071 -0.0377  0.5904
13549SOL    HW144563   4.333   2.274   5.779  2.0074 -0.8228 -2.1548
13549SOL    HW244564   4.372   2.155   5.862  0.3049  0.3869  0.5027
13550SOL     OW44565   7.195   4.357   1.620  0.1281  0.0392  0.2007
13550SOL    HW144566   7.217   4.443   1.654  1.0721 -0.0957 -0.0381
13550SOL    HW244567   7.226   4.358   1.530 -0.7471 -0.2177 -0.1094
13551SOL     OW44568   0.471   7.191   4.909  0.1199 -0.0344  0.0784
13551SOL    HW144569   0.507   7.263   4.960 -0.8614 -0.0406  0.7995
13551SOL    HW244570   0.488   7.112   4.961 -2.7677  0.1632  1.5672
13552SOL     OW44571   7.856   8.257   8.492 -0.6662  0.0782  0.0440
13552SOL    HW144572   7.769   8.295   8.502 -0.3419  0.8430  0.0339
13552SOL    HW244573   7.856   8.219   8.404 -1.4871 -1.2854  0.5942
13553SOL     OW44574   8.804   6.009   1.644  0.0898 -0.0842  0.1431
13553SOL    HW144575   8.792   5.973   1.732  0.0533 -0.4339 -0.0041
13553SOL    HW244576   8.855   6.089   1.658  1.4665 -0.9505  0.3352
13554SOL     OW44577   6.279   5.615   6.170 -0.5621 -0.0809 -0.1710
13554SOL    HW144578   6.316   5.703   6.180 -1.2839  0.1417  0.7546
13554SOL    HW244579   6.243   5.614   6.081 -1.8707  1.1084  0.3006
13555SOL     OW44580   2.560   1.750   2.942 -0.2499  0.4813  0.6631
13555SOL    HW144581   2.560   1.685   2.872 -1.0078  0.3412  0.7883
13555SOL    HW244582   2.475   1.740   2.985  0.1632  0.6329  1.5386
13556SOL     OW44583   8.703   1.206   5.495 -0.4737 -0.7389  0.3582
13556SOL    HW144584   8.625   1.173   5.452 -1.1393  1.2933 -0.1123
13556SOL    HW244585   8.771   1.203   5.427 -0.6830 -0.5480  0.1409
13557SOL     OW44586   2.615   9.306   0.465 -0.5930  0.3167  0.4038
13557SOL    HW144587   2.531   9.273   0.497 -0.5083  0.0666  0.3714
13557SOL    HW244588   2.615   9.286   0.372 -0.2234 -0.2755  0.5264
13558SOL     OW44589  10.095   9.789   4.404  0.1894 -0.0057  0.6174
13558SOL    HW144590  10.015   9.778   4.455 -0.0803  0.0469  0.2142
13558SOL    HW244591  10.064   9.811   4.316  0.6659  2.5312  1.0003
13559SOL     OW44592   8.444   0.093   6.535  0.6882  0.2526 -0.1532
13559SOL    HW144593   8.353   0.085   6.508  0.1865  2.0221  0.8832
13559SOL    HW244594   8.454   0.030   6.607  0.1555  0.3707  0.0253
13560SOL     OW44595   8.899   7.072   1.745 -0.1106 -0.1829  0.3217
13560SOL    HW144596   8.876   7.165   1.746  0.0840 -0.0889 -1.3601
13560SOL    HW244597   8.944   7.059   1.662  1.3018 -1.4667  1.2342
13561SOL     OW44598   4.489  10.052   3.171  0.4069 -0.6124 -0.0308
13561SOL    HW144599   4.545  10.006   3.234  1.2862 -1.7904 -1.6040
13561SOL    HW244600   4.520  10.142   3.173  0.5703 -0.6812  1.0534
13562SOL     OW44601   6.334   7.369   8.795  0.1622  0.5731 -0.2530
13562SOL    HW144602   6.377   7.315   8.860  0.9271  1.0552 -0.3482
13562SOL    HW244603   6.264   7.413   8.843  1.4004  1.7651  0.5112
13563SOL     OW44604   6.946   3.615   4.194  0.5889 -1.0780  0.4601
13563SOL    HW144605   6.882   3.567   4.246 -2.4287 -1.3483 -3.1025
13563SOL    HW244606   6.932   3.585   4.104  3.4508  1.3784 -0.9988
13564SOL     OW44607   9.894   9.252   8.044  0.3522 -0.2061 -0.7885
13564SOL    HW144608   9.918   9.166   8.079  1.5389  0.5289  0.3166
13564SOL    HW244609   9.815   9.236   7.993  0.7860 -2.0261 -0.9796
13565SOL     OW44610   9.519   7.354   8.364  0.0885  0.5079 -0.2041
13565SOL    HW144611   9.480   7.442   8.365  0.9597  0.9184 -0.7789
13565SOL    HW244612   9.509   7.325   8.273 -0.3097 -0.0412  0.0170
13566SOL     OW44613   6.447   2.102   1.675  0.6092 -0.0868 -0.2682
13566SOL    HW144614   6.450   2.152   1.594  1.8181 -1.9895 -1.4602
13566SOL    HW244615   6.535   2.064   1.684 -0.3048 -2.2303  0.3643
13567SOL     OW44616   1.217   5.203   4.800 -0.5637 -0.5277  0.1964
13567SOL    HW144617   1.247   5.115   4.778 -1.6626 -1.5319  2.3879
13567SOL    HW244618   1.133   5.211   4.756 -0.1340 -0.2779 -0.5911
13568SOL     OW44619   9.722   4.452   3.938  0.0554 -0.1624 -0.2354
13568SOL    HW144620   9.680   4.367   3.928  0.0360 -0.1746 -0.0490
13568SOL    HW244621   9.680   4.492   4.014  0.1675 -0.0480 -0.2321
13569SOL     OW44622   4.018   2.449   3.658 -0.2329 -0.0628 -0.2085
13569SOL    HW144623   3.938   2.439   3.605 -2.4275 -0.7585  2.9252
13569SOL    HW244624   4.036   2.360   3.689  0.2412  0.4833  1.1222
13570SOL     OW44625   7.337   3.253   3.737  0.1442  0.0021 -0.4001
13570SOL    HW144626   7.295   3.316   3.796 -1.1052 -1.9060  0.8447
13570SOL    HW244627   7.425   3.242   3.773 -0.9431 -1.9767  1.9464
13571SOL     OW44628   2.044   7.909   8.841  0.2041  0.1008  0.0192
13571SOL    HW144629   1.973   7.920   8.905 -0.4700  0.0624 -0.7130
13571SOL    HW244630   2.124   7.921   8.893 -0.3430  0.9158  0.7122
13572SOL     OW44631   8.294   4.708   9.506  0.0119 -0.3966  0.3541
13572SOL    HW144632   8.270   4.720   9.414  0.0308  1.8179  0.5840
13572SOL    HW244633   8.389   4.696   9.505  0.0600  0.0027  0.1179
13573SOL     OW44634   5.478   5.169   0.925 -0.1207 -0.2627 -0.0353
13573SOL    HW144635   5.420   5.220   0.982  1.3606  0.9081  0.4757
13573SOL    HW244636   5.427   5.091   0.903 -3.2586  2.2180 -2.4437
13574SOL     OW44637   4.699   8.804   7.220 -0.1291 -0.8293  0.5407
13574SOL    HW144638   4.644   8.831   7.147 -0.2460  0.8853  1.2175
13574SOL    HW244639   4.692   8.876   7.284  2.9790 -0.4309  0.5922
13575SOL     OW44640   6.528   2.808   8.988 -0.9030 -0.9547  0.1815
13575SOL    HW144641   6.509   2.877   9.052 -2.2600 -1.3052  0.1833
13575SOL    HW244642   6.544   2.856   8.906 -1.0324 -0.5985  0.3606
13576SOL     OW44643   2.329   3.769   7.220 -0.0329 -0.2102  0.0550
13576SOL    HW144644   2.357   3.697   7.275  0.8266 -0.1416 -0.2758
13576SOL    HW244645   2.252   3.736   7.173 -2.6094  0.6029  3.2620
13577SOL     OW44646   7.221   6.129   3.652  0.3674  0.3623  0.2749
13577SOL    HW144647   7.294   6.177   3.612 -0.4400  0.2825 -1.3863
13577SOL    HW244648   7.227   6.041   3.615 -1.7321  0.8932 -1.5579
13578SOL     OW44649   5.571   1.759   3.154 -1.0011  0.1731  0.3693
13578SOL    HW144650   5.536   1.848   3.152  0.5451  0.8059  0.0897
13578SOL    HW244651   5.578   1.734   3.062  0.9285  0.7693  0.3108
13579SOL     OW44652   4.148   2.619   4.498 -0.2489 -0.1246 -0.4852
13579SOL    HW144653   4.160   2.710   4.525 -0.1750  0.2325 -1.6706
13579SOL    HW244654   4.124   2.573   4.579  1.3718  0.6168  0.4638
13580SOL     OW44655   1.031   1.961   7.710  0.2648 -0.1142  0.0394
13580SOL    HW144656   1.062   1.872   7.723  0.7846 -0.0911 -0.9135
13580SOL    HW244657   0.952   1.968   7.763  1.1459 -0.6038  1.4676
13581SOL     OW44658   6.702   4.819   3.698  0.2143 -0.0609 -0.0485
13581SOL    HW144659   6.653   4.767   3.762 -1.3357 -0.5382 -1.5405
13581SOL    HW244660   6.719   4.759   3.626 -0.0922  1.0306 -1.0675
13582SOL     OW44661   0.942   8.191   8.498  0.0244  0.2721 -0.7313
13582SOL    HW144662   0.972   8.238   8.576 -1.2155 -0.1131  0.0134
13582SOL    HW244663   0.847   8.186   8.508  0.0086 -1.4674 -1.2855
13583SOL     OW44664   8.686   3.119   7.900 -0.8913 -0.2218  0.4296
13583SOL    HW144665   8.685   3.165   7.817 -1.0316 -0.8825  0.0582
13583SOL    HW244666   8.779   3.113   7.923 -0.9059  0.6947  0.7387
13584SOL     OW44667   7.190   9.861   6.046  0.6059  0.2986  0.2785
13584SOL    HW144668   7.268   9.827   6.089 -0.5781 -1.4550  1.2047
13584SOL    HW244669   7.217   9.943   6.006  2.6863  0.1502  1.2801
13585SOL     OW44670   2.160   2.143   7.576  0.4083  0.0133 -0.6291
13585SOL    HW144671   2.120   2.144   7.489 -1.3336 -0.2617  0.1338
13585SOL    HW244672   2.176   2.235   7.596 -1.2855  0.2769 -0.3402
13586SOL     OW44673   3.976   3.572   4.789  0.2258  0.4466 -0.2731
13586SOL    HW144674   4.044   3.549   4.851  0.1606 -0.9094 -0.6793
13586SOL    HW244675   3.894   3.547   4.832  0.1949 -0.7299 -0.9733
13587SOL     OW44676   1.583   8.253   4.835 -0.1741 -0.4846  0.1218
13587SOL    HW144677   1.660   8.276   4.886 -1.5902  1.0158  1.6960
13587SOL    HW244678   1.539   8.185   4.886 -0.8919  0.0406  0.2150
13588SOL     OW44679   3.283   0.721   8.218  0.1181 -0.3048 -0.1968
13588SOL    HW144680   3.355   0.752   8.273 -0.9173 -0.7069  1.4753
13588SOL    HW244681   3.246   0.800   8.178  0.9652 -0.0145 -0.4116
13589SOL     OW44682   9.702   2.879   0.758  0.1813  0.0004 -0.2875
13589SOL    HW144683   9.792   2.912   0.768 -0.0096  0.4811 -0.1051
13589SOL    HW244684   9.712   2.790   0.725  0.7613 -0.4378  1.0174
13590SOL     OW44685   2.967   6.898   7.654  0.4395  0.4237 -0.1842
13590SOL    HW144686   2.981   6.871   7.744 -0.9908 -1.6086 -0.5097
13590SOL    HW244687   2.880   6.937   7.653  1.3403  2.5966 -0.3073
13591SOL     OW44688   0.908   1.384   4.060  0.4808  0.7834  0.5708
13591SOL    HW144689   0.924   1.304   4.111 -1.2948  0.6675  0.9950
13591SOL    HW244690   0.987   1.436   4.073  0.4859  0.3537  2.7195
13592SOL     OW44691   2.821   0.504   6.771  0.5656  0.0757  0.3710
13592SOL    HW144692   2.763   0.431   6.750  0.3665  0.8338 -2.0210
13592SOL    HW244693   2.790   0.576   6.716  1.7208  1.5115  1.5128
13593SOL     OW44694   1.544   3.417   6.496  0.2875  0.0542  0.1787
13593SOL    HW144695   1.580   3.389   6.581 -0.7919 -0.2140  0.5648
13593SOL    HW244696   1.452   3.392   6.500  0.5166 -1.2871 -1.6527
13594SOL     OW44697   4.552   0.124   9.096  0.1185 -0.0433  0.0528
13594SOL    HW144698   4.641   0.122   9.131  0.7258 -1.5860 -1.4223
13594SOL    HW244699   4.542   0.211   9.059  1.0378  0.1396  0.2141
13595SOL     OW44700   9.424   1.244   0.747 -0.5249 -0.0589 -0.1637
13595SOL    HW144701   9.381   1.280   0.825 -0.6476  0.3589 -0.4211
13595SOL    HW244702   9.397   1.302   0.676 -1.3720 -1.1261 -0.7465
13596SOL     OW44703   0.237   5.303   6.831 -0.3612  0.3299  0.1659
13596SOL    HW144704   0.281   5.359   6.895  0.5445 -0.4457  0.2488
13596SOL    HW244705   0.308   5.257   6.787 -1.0764 -1.4712  0.7779
13597SOL     OW44706   0.260   0.010   2.432  0.3844 -0.2915  0.7730
13597SOL    HW144707   0.277   0.062   2.354  1.5142 -1.5971  0.0923
13597SOL    HW244708   0.283  -0.080   2.406 -0.3682 -0.9457  2.2446
13598SOL     OW44709   9.780   3.534   4.512 -0.0065 -0.0181  0.0316
13598SOL    HW144710   9.800   3.598   4.445 -0.5565  2.0186  1.7052
13598SOL    HW244711   9.690   3.553   4.538  0.1664 -0.7898  1.2910
13599SOL     OW44712   4.071   5.754   0.480  0.0897 -0.3958 -0.0920
13599SOL    HW144713   3.979   5.766   0.458  0.0657 -0.7565 -0.1949
13599SOL    HW244714   4.099   5.680   0.425  0.9170  0.8493 -1.4234
13600SOL     OW44715   8.759   2.057   6.225  0.1137 -0.3035  0.1712
13600SOL    HW144716   8.837   2.087   6.271  0.5163 -1.7753  0.5303
13600SOL    HW244717   8.726   2.134   6.180  2.4419  0.1346 -0.9487
13601SOL     OW44718   6.249   2.600   0.389 -0.3558 -0.1486  0.1348
13601SOL    HW144719   6.283   2.512   0.377 -0.0401  0.0676 -0.6648
13601SOL    HW244720   6.322   2.657   0.366 -0.3044  0.3338  1.4140
13602SOL     OW44721   6.226   4.982   3.016 -0.7365  0.3189 -0.1124
13602SOL    HW144722   6.258   5.014   3.101 -0.8229  0.6039 -0.1845
13602SOL    HW244723   6.237   4.887   3.020 -1.6238  0.2268  0.6030
13603SOL     OW44724   4.804   6.751   8.932 -0.2175  0.1107  0.9945
13603SOL    HW144725   4.825   6.678   8.873  0.0666 -1.1007  2.5281
13603SOL    HW244726   4.857   6.735   9.010  0.8142  2.6583  0.9394
13604SOL     OW44727   3.455   7.156   4.223  0.5671 -0.0904  0.2271
13604SOL    HW144728   3.452   7.078   4.168  0.3043  0.3073 -0.3203
13604SOL    HW244729   3.520   7.213   4.182  1.6463 -0.5091  1.2852
13605SOL     OW44730   6.069   2.089   8.964  0.0264 -0.3216  0.1465
13605SOL    HW144731   6.110   2.039   9.034 -0.9639 -0.5957  0.5496
13605SOL    HW244732   6.119   2.170   8.959  0.1441 -0.3304  1.1287
13606SOL     OW44733   1.857   7.334   3.347 -0.3510  0.0795 -0.0279
13606SOL    HW144734   1.830   7.350   3.437 -1.0635 -1.6383  0.1165
13606SOL    HW244735   1.921   7.263   3.354 -0.2597  0.0674 -0.8535
13607SOL     OW44736   4.901   5.074  10.010  0.2322  0.5336  0.6423
13607SOL    HW144737   4.907   4.985   9.977  0.5105  0.4245  0.9876
13607SOL    HW244738   4.922   5.129   9.935  1.3132  0.2748  0.7325
13608SOL     OW44739   5.240   1.871   5.970 -0.3204 -0.5370  0.5504
13608SOL    HW144740   5.309   1.804   5.963  1.1437  1.1160 -2.4891
13608SOL    HW244741   5.164   1.830   5.930  0.6633 -0.3484 -1.6281
13609SOL     OW44742   7.808   8.227   3.627 -0.1910 -0.2566  0.3319
13609SOL    HW144743   7.786   8.319   3.634  1.4328  0.1285  0.8099
13609SOL    HW244744   7.839   8.203   3.714 -0.3961 -1.2019  0.1540
13610SOL     OW44745   2.046   7.861   0.264 -0.2918  0.0414  0.3849
13610SOL    HW144746   1.973   7.800   0.256  0.4110 -0.5439 -3.7943
13610SOL    HW244747   2.006   7.945   0.284 -1.8562 -0.6752  0.3947
13611SOL     OW44748   0.089   3.064   4.039 -0.9559 -0.1893  0.3516
13611SOL    HW144749   0.077   2.972   4.014  1.0650 -1.0464  2.1804
13611SOL    HW244750   0.181   3.069   4.065 -0.8529  2.5518 -0.3198
13612SOL     OW44751   5.839   5.104   3.801 -0.9817 -0.2605  0.3163
13612SOL    HW144752   5.886   5.176   3.760 -1.1344 -1.2082 -1.6377
13612SOL    HW244753   5.765   5.087   3.743 -0.5789 -2.3964  0.3247
13613SOL     OW44754   0.890   6.885   5.118 -0.3232 -0.0746 -0.2483
13613SOL    HW144755   0.860   6.933   5.195  0.5043 -1.5850  1.0690
13613SOL    HW244756   0.832   6.809   5.112 -1.2755  0.7253 -1.9937
13614SOL     OW44757   5.342   9.080   7.809  0.1880 -0.4240 -0.0934
13614SOL    HW144758   5.415   9.132   7.843  0.9909 -1.5247 -0.0841
13614SOL    HW244759   5.310   9.130   7.734  0.7281  0.2530  0.1204
13615SOL     OW44760   1.444   5.657   7.228 -0.1909  0.1291 -0.2169
13615SOL    HW144761   1.430   5.657   7.323  1.2686  2.0886  0.0830
13615SOL    HW244762   1.487   5.574   7.210 -0.8006 -0.4225  0.7763
13616SOL     OW44763   3.892   2.841   3.284 -0.0568 -0.1569 -0.4062
13616SOL    HW144764   3.848   2.768   3.240  0.2547 -0.7317  0.2169
13616SOL    HW244765   3.938   2.801   3.357  0.4141  0.6224 -0.2603
13617SOL     OW44766   0.823   2.383   1.831 -0.1726 -0.1313 -0.0289
13617SOL    HW144767   0.869   2.399   1.749  0.7974 -1.7711  0.1337
13617SOL    HW244768   0.748   2.329   1.806  1.8912 -3.5137  0.3806
13618SOL     OW44769   4.988   4.492   2.774  0.2204  0.1999 -0.3348
13618SOL    HW144770   4.980   4.400   2.801  2.3936 -0.0678 -0.4758
13618SOL    HW244771   5.021   4.536   2.852 -1.6597  1.0984  0.0248
13619SOL     OW44772   5.843   6.034   6.065 -0.2424 -0.7591 -0.8696
13619SOL    HW144773   5.875   5.949   6.034 -1.4849 -1.0641 -1.3632
13619SOL    HW244774   5.786   6.065   5.995  1.1722  1.1060 -1.2845
13620SOL     OW44775   4.906   5.572   1.626 -0.1174  0.7803 -0.4710
13620SOL    HW144776   4.900   5.666   1.609  0.5452  0.5133 -2.3244
13620SOL    HW244777   4.883   5.531   1.543 -3.0466 -0.8223  0.9739
13621SOL     OW44778  10.199   5.019   1.747  0.1997  0.6080  0.2994
13621SOL    HW144779  10.285   5.029   1.788  0.6067  0.9211 -0.6120
13621SOL    HW244780  10.183   5.102   1.703  0.4792 -0.2420 -1.4720
13622SOL     OW44781   1.851   6.993   8.108  0.7108  0.2182 -0.1132
13622SOL    HW144782   1.876   6.948   8.189 -0.0185 -0.5392 -0.2969
13622SOL    HW244783   1.854   6.925   8.041  0.2589  0.5944 -0.5203
13623SOL     OW44784   0.300   1.487   0.630  0.2467  0.4268  0.0623
13623SOL    HW144785   0.268   1.544   0.700 -1.0625 -0.0477 -0.1223
13623SOL    HW244786   0.337   1.412   0.675 -0.6148  0.1121  0.2609
13624SOL     OW44787   3.970   9.177   0.832  0.3405 -0.3349 -0.3172
13624SOL    HW144788   4.065   9.171   0.828  0.6226 -0.6419  3.2483
13624SOL    HW244789   3.940   9.086   0.831  0.2246 -0.3023  0.0041
13625SOL     OW44790   7.961   5.069   3.210 -0.0719  0.4299  0.3343
13625SOL    HW144791   8.008   5.092   3.130 -1.9721 -1.1832 -1.3284
13625SOL    HW244792   8.031   5.054   3.275  1.4918  2.4812 -0.7209
13626SOL     OW44793   7.806   1.134   2.285  0.0148  0.9622  0.2842
13626SOL    HW144794   7.826   1.102   2.197 -3.5131 -0.2678 -0.1960
13626SOL    HW244795   7.806   1.230   2.276 -0.5280  0.8486 -1.1348
13627SOL     OW44796   2.008   2.844   5.520  0.3289  0.0625  0.0657
13627SOL    HW144797   2.083   2.869   5.574 -0.8399 -0.2996  1.9118
13627SOL    HW244798   1.975   2.926   5.484  1.0303  0.3239  0.0017
13628SOL     OW44799   5.704   0.963   8.863 -0.3436 -0.5187 -0.0523
13628SOL    HW144800   5.748   0.964   8.779 -2.0263 -0.9277 -0.9839
13628SOL    HW244801   5.664   1.050   8.870  0.5494 -0.1539  0.7744
13629SOL     OW44802   8.686   3.185   3.938  0.3833 -0.2463  0.3060
13629SOL    HW144803   8.674   3.107   3.992 -2.4032  0.8572  1.4772
13629SOL    HW244804   8.776   3.213   3.956  0.5160 -1.6078  2.0701
13630SOL     OW44805   2.885   1.808   4.437 -0.3408 -0.1218 -0.1833
13630SOL    HW144806   2.950   1.844   4.497 -0.0647 -1.1638  0.1742
13630SOL    HW244807   2.810   1.868   4.444  0.6474  1.2243 -0.7887
13631SOL     OW44808   9.553   3.464  10.120  0.3958  0.4642 -0.1474
13631SOL    HW144809   9.544   3.378  10.078  0.0704  1.0799 -1.3651
13631SOL    HW244810   9.488   3.463  10.190  0.0307 -0.0800 -0.4852
13632SOL     OW44811   0.213   3.023   1.006  0.3969 -0.1449 -0.4318
13632SOL    HW144812   0.175   2.937   0.991  0.2980  0.0270 -1.2361
13632SOL    HW244813   0.252   3.047   0.922  2.7703 -0.5350  0.4827
13633SOL     OW44814   5.618   0.903   0.630 -0.2540  0.2049  0.1726
13633SOL    HW144815   5.558   0.911   0.704  0.6745 -0.0771  0.9861
13633SOL    HW244816   5.675   0.830   0.653  0.5295  0.5888 -0.4740
13634SOL     OW44817   8.570   8.062   2.841 -0.2206  0.1035  0.1680
13634SOL    HW144818   8.641   8.125   2.855  1.2234 -1.2670 -0.6079
13634SOL    HW244819   8.546   8.072   2.749  0.2858 -0.7046 -0.0662
13635SOL     OW44820   2.369   8.075   1.317  0.2325  0.5896 -0.3925
13635SOL    HW144821   2.417   7.998   1.348  0.0021  0.4370 -0.4153
13635SOL    HW244822   2.434   8.124   1.266  0.1806  0.0118 -1.0421
13636SOL     OW44823   5.630   9.764   9.016 -0.0471 -0.6130 -0.0934
13636SOL    HW144824   5.674   9.679   9.018 -0.7201 -0.9522  1.1643
13636SOL    HW244825   5.686   9.822   9.068  0.4536 -0.2489 -1.0166
13637SOL     OW44826   2.090   1.024   9.445 -0.4227 -0.1060 -0.3592
13637SOL    HW144827   2.096   1.004   9.538 -1.3281 -0.4070 -0.3598
13637SOL    HW244828   2.008   0.985   9.417 -0.6900  0.9118 -1.0517
13638SOL     OW44829   1.543   5.872   2.156  0.1745  0.3564 -0.3577
13638SOL    HW144830   1.467   5.834   2.199 -0.6912 -1.2679 -3.0972
13638SOL    HW244831   1.550   5.961   2.193  0.0152 -1.0526  3.5155
13639SOL     OW44832   3.120   8.823   3.390  0.7426 -0.0200  0.0798
13639SOL    HW144833   3.128   8.778   3.306 -1.2289  0.8936 -0.6484
13639SOL    HW244834   3.128   8.753   3.455 -1.5157 -1.4009 -1.0065
13640SOL     OW44835   0.067   1.017   1.402  0.6473 -0.4208 -0.4113
13640SOL    HW144836   0.032   1.105   1.390 -1.4505 -0.8774  1.7493
13640SOL    HW244837  -0.007   0.959   1.387  1.1887 -1.6081  1.2212
13641SOL     OW44838   5.533   8.680   3.212 -0.0916 -0.0473 -0.1241
13641SOL    HW144839   5.600   8.732   3.167  0.4084  0.3753  1.0603
13641SOL    HW244840   5.576   8.597   3.231 -0.3910 -0.3268 -0.6671
13642SOL     OW44841   0.997   1.797   7.386 -0.3121 -0.0883 -0.4055
13642SOL    HW144842   0.997   1.767   7.477 -1.9884 -0.8325 -0.6116
13642SOL    HW244843   0.911   1.838   7.374  0.3531  1.1013 -1.3274
13643SOL     OW44844   1.829   9.979   4.716 -0.2755 -0.6128 -0.4907
13643SOL    HW144845   1.889   9.910   4.691 -1.0687 -1.0722 -1.1609
13643SOL    HW244846   1.783  10.002   4.635 -0.2808  0.4507 -0.2090
13644SOL     OW44847   2.463   8.353   9.144  0.2775 -0.2919  0.0171
13644SOL    HW144848   2.507   8.345   9.229 -0.5146  0.6716  0.5478
13644SOL    HW244849   2.369   8.350   9.166  0.0667 -0.1185 -0.8358
13645SOL     OW44850   6.091   5.473   6.321 -0.1547  0.0430 -0.2168
13645SOL    HW144851   6.151   5.516   6.259 -0.8982 -1.2879 -1.9194
13645SOL    HW244852   6.149   5.424   6.380  0.5010 -0.2077 -1.0498
13646SOL     OW44853   1.402   1.390   2.360  0.5440 -0.2537  0.3904
13646SOL    HW144854   1.433   1.376   2.450  1.2017  2.1733  0.6151
13646SOL    HW244855   1.478   1.424   2.314 -0.2459  0.1238 -0.6509
13647SOL     OW44856  10.202   8.589   8.283  0.0921 -0.1226  0.4107
13647SOL    HW144857  10.195   8.645   8.205 -1.4798 -0.2377  0.4468
13647SOL    HW244858  10.193   8.649   8.357 -0.8860 -0.3232  0.4601
13648SOL     OW44859   7.650   0.057   5.733  0.3110  0.2436  0.4961
13648SOL    HW144860   7.739   0.091   5.727  1.2687 -2.0990  0.4497
13648SOL    HW244861   7.620   0.052   5.643 -0.3348  2.0309  0.5657
13649SOL     OW44862   0.069   3.982   6.346 -0.3020  0.0594  0.5708
13649SOL    HW144863   0.084   3.912   6.409 -0.4238  0.3738  0.9555
13649SOL    HW244864   0.096   3.945   6.262  2.2782  0.4620  1.1360
13650SOL     OW44865   6.403   0.574   9.982  0.2705  0.2342 -0.3466
13650SOL    HW144866   6.398   0.559   9.888  0.8065  1.9705 -0.6989
13650SOL    HW244867   6.493   0.602   9.997  0.1222  0.2133  0.6361
13651SOL     OW44868   2.860   6.482   7.608  0.5073  0.3807 -0.2433
13651SOL    HW144869   2.921   6.409   7.618 -0.9573 -1.1734 -1.9739
13651SOL    HW244870   2.889   6.527   7.529  0.6842  0.9660  0.1490
13652SOL     OW44871   0.582   4.650   1.967  0.1084  0.1452  0.2135
13652SOL    HW144872   0.565   4.579   1.904  0.5739 -0.0963  0.3558
13652SOL    HW244873   0.677   4.648   1.980 -0.0076  0.0537  1.0920
13653SOL     OW44874   7.094   1.797   2.875  0.0273  0.9464  0.3416
13653SOL    HW144875   7.123   1.832   2.959 -1.5478  0.6437  1.0558
13653SOL    HW244876   7.066   1.708   2.895 -1.8665  1.3863 -0.1366
13654SOL     OW44877   1.104   3.821   1.997  0.5816 -0.2353  0.0030
13654SOL    HW144878   1.078   3.845   2.086  1.0032  0.3219 -0.0205
13654SOL    HW244879   1.146   3.900   1.962  0.9923 -0.6550 -0.4661
13655SOL     OW44880   8.015   2.625   1.101 -1.0381 -0.4232  0.6513
13655SOL    HW144881   8.010   2.531   1.081 -0.1044 -0.1498 -1.0303
13655SOL    HW244882   8.031   2.667   1.016 -2.1013  1.3357  1.2670
13656SOL     OW44883   6.592   6.247   9.741  0.4577  0.5230 -0.2056
13656SOL    HW144884   6.501   6.273   9.755  0.3907 -0.5897  1.8558
13656SOL    HW244885   6.587   6.174   9.679 -0.0709  0.4529 -0.0868
13657SOL     OW44886   0.256   9.516   1.801 -0.3396  0.0755 -0.1932
13657SOL    HW144887   0.262   9.599   1.753  2.3945 -1.2653 -2.4674
13657SOL    HW244888   0.330   9.518   1.861 -1.0178 -0.2465  0.6748
13658SOL     OW44889   0.296   4.198   6.280  0.3789  0.4510 -0.4139
13658SOL    HW144890   0.386   4.167   6.277  0.7784  1.5648 -0.5420
13658SOL    HW244891   0.253   4.143   6.345  1.6495  1.1592  1.0713
13659SOL     OW44892   7.228   7.198   2.837  0.1698 -0.3336  0.7203
13659SOL    HW144893   7.155   7.233   2.888 -0.7467 -0.5685 -0.4049
13659SOL    HW244894   7.271   7.275   2.800 -0.3051 -0.2550  0.3227
13660SOL     OW44895   2.086   3.123   6.974  0.7599  0.7681 -0.3251
13660SOL    HW144896   2.052   3.175   6.902 -0.8518 -0.6628 -0.6569
13660SOL    HW244897   2.156   3.071   6.935 -0.2957 -0.2148 -0.9851
13661SOL     OW44898   1.511   0.862   9.280 -0.1801  0.3524 -0.0563
13661SOL    HW144899   1.435   0.833   9.331  0.3023 -0.7469  0.0788
13661SOL    HW244900   1.554   0.927   9.336 -0.5182  0.2934  0.2749
13662SOL     OW44901   7.746   3.634   4.744 -0.1210 -0.3411 -0.3104
13662SOL    HW144902   7.712   3.722   4.734 -2.3106 -1.0196  0.6918
13662SOL    HW244903   7.751   3.620   4.839  1.0253 -1.0131 -0.4440
13663SOL     OW44904   3.270   7.521   5.262 -0.2713  0.0714 -0.0107
13663SOL    HW144905   3.296   7.430   5.248  1.2011  0.3037  1.0291
13663SOL    HW244906   3.348   7.572   5.240 -1.6141  1.2809 -2.4364
13664SOL     OW44907   5.991   7.451   3.001 -0.0964 -0.4869 -0.2651
13664SOL    HW144908   5.956   7.406   2.924  0.2002 -0.7848 -0.2268
13664SOL    HW244909   5.914   7.468   3.055 -0.8471  2.6218 -2.0482
13665SOL     OW44910   0.599   9.285   1.489 -0.4368 -0.6442  0.1504
13665SOL    HW144911   0.689   9.288   1.457 -0.6404  2.9169 -0.5958
13665SOL    HW244912   0.547   9.264   1.412 -0.5218  2.7950 -0.9091
13666SOL     OW44913   3.340   5.149   2.692 -0.0264 -0.4554  0.2907
13666SOL    HW144914   3.341   5.093   2.614 -0.3445  0.1885 -0.1883
13666SOL    HW244915   3.412   5.116   2.746 -1.1365 -2.3195  0.7503
13667SOL     OW44916   9.657   2.243   3.149  0.0947  0.6039  0.6819
13667SOL    HW144917   9.646   2.196   3.066 -3.4745 -0.4833  1.5867
13667SOL    HW244918   9.657   2.335   3.124  0.7383  0.2796 -0.6229
13668SOL     OW44919   7.940   3.538   5.049 -0.2481  0.1174  0.1339
13668SOL    HW144920   7.856   3.583   5.043 -0.8555 -0.7208  1.7767
13668SOL    HW244921   7.918   3.447   5.070  1.0853  0.1326  1.7912
13669SOL     OW44922   1.819   7.824   0.951  0.1955  0.1626  0.0561
13669SOL    HW144923   1.838   7.733   0.972  0.7259  0.4062  0.6728
13669SOL    HW244924   1.724   7.829   0.948  0.1712 -0.4663 -0.2299
13670SOL     OW44925   6.128   7.146   9.853 -0.1763  0.3485  0.5981
13670SOL    HW144926   6.127   7.079   9.784  0.6563  1.3693 -0.4452
13670SOL    HW244927   6.160   7.099   9.930 -0.5590 -0.6842  0.1532
13671SOL     OW44928   3.761   0.168   3.416 -0.2441 -0.0180 -0.0201
13671SOL    HW144929   3.665   0.159   3.419 -0.3724 -0.5883 -2.7609
13671SOL    HW244930   3.776   0.261   3.399 -0.3437 -0.0245 -0.1475
13672SOL     OW44931   9.759   4.433   4.336 -0.0240 -0.4645 -0.1778
13672SOL    HW144932   9.667   4.457   4.332  0.6966  2.9804  0.8023
13672SOL    HW244933   9.805   4.516   4.344  3.1447 -2.1125  0.2354
13673SOL     OW44934   0.795   1.149   6.089 -0.5050 -0.3549 -0.0385
13673SOL    HW144935   0.819   1.166   6.180  0.3136 -3.1288  0.3493
13673SOL    HW244936   0.705   1.115   6.094 -1.1956  1.2966 -0.5267
13674SOL     OW44937   1.063   3.396   4.572 -0.3713  0.0592 -0.3820
13674SOL    HW144938   1.078   3.490   4.579 -0.0207 -0.0982  1.6192
13674SOL    HW244939   1.138   3.363   4.523 -0.1158  0.7271 -0.4499
13675SOL     OW44940   8.518   5.860   9.406 -0.2680  0.2628 -0.4168
13675SOL    HW144941   8.532   5.860   9.311  1.1898  2.1309 -0.2809
13675SOL    HW244942   8.447   5.798   9.421 -0.9754  0.4242 -2.8042
13676SOL     OW44943   7.396   8.407   3.856 -0.8343  0.2077 -0.3407
13676SOL    HW144944   7.344   8.400   3.776  0.3463 -3.5284 -0.9827
13676SOL    HW244945   7.467   8.468   3.833 -1.4034  0.4248 -1.6233
13677SOL     OW44946   6.348   9.665   1.519  0.5150 -0.9758 -0.2133
13677SOL    HW144947   6.286   9.631   1.584  1.3617 -0.7315  0.7402
13677SOL    HW244948   6.392   9.738   1.563 -0.3111  0.5302 -1.7574
13678SOL     OW44949   2.044   1.745   7.466  0.2170  0.4028  0.4878
13678SOL    HW144950   2.042   1.789   7.551 -0.6860  0.5877  0.3786
13678SOL    HW244951   2.002   1.660   7.482 -2.0413  1.3291 -0.2450
13679SOL     OW44952   8.215   4.852   1.667 -0.4206  0.1301  0.2551
13679SOL    HW144953   8.191   4.764   1.638 -0.7315  0.7919 -1.6585
13679SOL    HW244954   8.291   4.839   1.724  0.3862 -1.3109 -1.0619
13680SOL     OW44955   0.962   9.580   1.491 -0.6723 -0.0696  0.2068
13680SOL    HW144956   1.030   9.522   1.528 -1.0435  0.3488  1.6137
13680SOL    HW244957   0.898   9.521   1.453 -0.0295 -0.5054 -0.2226
13681SOL     OW44958   9.843   2.554   4.402 -0.0507 -0.0929  0.1913
13681SOL    HW144959   9.841   2.626   4.465  2.3197  0.3529 -0.1473
13681SOL    HW244960   9.828   2.476   4.455  1.1986  0.3360  1.2483
13682SOL     OW44961   4.987   6.558   0.665  0.1922  0.1038  0.2173
13682SOL    HW144962   4.998   6.585   0.757  1.0989 -0.6291  0.3352
13682SOL    HW244963   4.929   6.625   0.628  0.5801  0.9561  1.0767
13683SOL     OW44964   1.384   3.632   7.256 -0.0633 -0.0140  0.2938
13683SOL    HW144965   1.464   3.580   7.254 -0.7886 -1.1445 -1.2885
13683SOL    HW244966   1.414   3.723   7.254  1.1870 -0.4287 -0.7231
13684SOL     OW44967   1.620   2.704   3.132  0.1013 -0.6381 -0.2820
13684SOL    HW144968   1.543   2.659   3.097  0.1940 -1.6350  0.7315
13684SOL    HW244969   1.693   2.671   3.080  0.0495 -0.9825 -0.1397
13685SOL     OW44970   9.910   8.034   5.762  0.1333  0.0994  0.4010
13685SOL    HW144971   9.911   7.940   5.747 -1.3948  0.0552  0.4735
13685SOL    HW244972   9.997   8.064   5.734  0.3639 -1.2088 -0.3297
13686SOL     OW44973   1.109   3.454   4.232  0.1008  0.6154  0.2178
13686SOL    HW144974   1.083   3.395   4.161 -0.7315  0.9057  0.2688
13686SOL    HW244975   1.153   3.398   4.296 -4.4608 -0.9280  2.3994
13687SOL     OW44976   4.588   4.299   1.659  0.3704 -0.2239  0.0186
13687SOL    HW144977   4.675   4.328   1.632 -0.3081  0.9022 -1.0536
13687SOL    HW244978   4.596   4.203   1.665  1.7274 -0.1315  0.1663
13688SOL     OW44979   1.790   4.400   3.118 -0.1881  0.4717  0.6393
13688SOL    HW144980   1.765   4.458   3.046  0.2965  0.5478  0.5289
13688SOL    HW244981   1.878   4.370   3.095 -0.1054  0.3507  1.1101
13689SOL     OW44982   4.963   0.469   5.757 -0.1115 -0.2398  0.6895
13689SOL    HW144983   5.044   0.460   5.807 -0.7376  0.8249  1.9779
13689SOL    HW244984   4.901   0.413   5.803 -0.7791  0.9958  1.3598
13690SOL     OW44985   8.409   6.195   9.705  0.1344 -0.1892  0.4501
13690SOL    HW144986   8.473   6.252   9.661 -0.1460 -0.4999 -0.3898
13690SOL    HW244987   8.374   6.249   9.776 -0.5001  0.8918 -0.6417
13691SOL     OW44988   4.697   6.687   6.759 -0.2862 -0.7040 -0.5454
13691SOL    HW144989   4.609   6.712   6.788 -0.0070 -0.7176  0.3353
13691SOL    HW244990   4.683   6.629   6.685 -0.9940  1.1327 -1.9367
13692SOL     OW44991   5.203   8.624   6.513  0.0257  0.1849 -0.4397
13692SOL    HW144992   5.266   8.654   6.579  0.2865  0.9880 -1.0429
13692SOL    HW244993   5.118   8.634   6.556  0.0483  2.3018 -0.7524
13693SOL     OW44994   5.589   1.689   8.031  0.0699 -0.0556  0.2472
13693SOL    HW144995   5.569   1.768   8.081 -0.5976 -0.8036  1.2174
13693SOL    HW244996   5.506   1.640   8.030  0.7131 -1.1755  0.5004
13694SOL     OW44997   3.143   5.456   8.115  0.0753  0.0928 -0.1743
13694SOL    HW144998   3.136   5.484   8.024 -2.0289 -1.3401 -0.5268
13694SOL    HW244999   3.104   5.528   8.166  0.2283  0.4152 -0.5127
13695SOL     OW45000   1.066   3.693   0.782 -0.1624 -0.0351 -0.1745
13695SOL    HW145001   1.119   3.752   0.836 -1.8628  0.8866  0.5728
13695SOL    HW245002   1.045   3.744   0.704 -0.2535 -0.2633 -0.3012
13696SOL     OW45003   9.939   6.268   8.773  0.6874  0.0018 -0.3267
13696SOL    HW145004   9.909   6.249   8.862  2.0233  0.4881  0.2542
13696SOL    HW245005   9.859   6.268   8.721 -0.0361 -1.0558  0.7262
13697SOL     OW45006   6.047   9.539   1.901 -0.1839  0.5815  0.0024
13697SOL    HW145007   6.006   9.458   1.931 -0.6184  0.3549 -1.1512
13697SOL    HW245008   6.141   9.520   1.901 -0.3771 -0.6334 -2.1612
13698SOL     OW45009   2.892   5.663   9.015  0.1174  0.2908  0.2394
13698SOL    HW145010   2.953   5.723   8.971  0.2877 -0.3742 -0.4372
13698SOL    HW245011   2.847   5.719   9.078 -0.4599  1.3854 -1.0759
13699SOL     OW45012   2.823   5.213   3.913  0.1333 -0.3076  0.7623
13699SOL    HW145013   2.733   5.236   3.889  0.1331 -0.4125  0.6633
13699SOL    HW245014   2.812   5.147   3.983  0.1332 -0.1376  0.9223
13700SOL     OW45015   6.606   7.965   2.101  0.0177 -0.2775  0.5129
13700SOL    HW145016   6.552   7.988   2.177  0.5566 -1.1614  1.1888
13700SOL    HW245017   6.543   7.934   2.036 -0.3209 -1.2358  1.2697
13701SOL     OW45018   9.042   0.835   8.039  0.1006  0.4950  0.4422
13701SOL    HW145019   9.096   0.864   7.965 -1.1778  0.3506 -0.5773
13701SOL    HW245020   9.099   0.776   8.089  1.8799  2.6408  1.0931
13702SOL     OW45021   0.918   8.398   3.101 -0.1639 -0.1603  0.0243
13702SOL    HW145022   0.956   8.314   3.127 -1.3471 -0.5464  0.6168
13702SOL    HW245023   0.965   8.422   3.021  1.9557 -0.1143  1.2189
13703SOL     OW45024   9.368   4.970   3.571 -0.2006 -0.0537 -0.3931
13703SOL    HW145025   9.459   4.991   3.552 -0.3837 -0.1940 -1.5377
13703SOL    HW245026   9.346   4.901   3.508 -0.5606 -1.3650  1.1130
13704SOL     OW45027   4.737   1.019   2.195 -0.0611 -0.0179 -0.4112
13704SOL    HW145028   4.791   0.940   2.198 -1.5341 -1.1105 -1.1305
13704SOL    HW245029   4.785   1.079   2.138  1.5365  0.0107  0.8817
13705SOL     OW45030   5.587   6.585   0.718  0.3415  0.4230 -0.0728
13705SOL    HW145031   5.607   6.492   0.727 -1.4433  0.1896  2.7997
13705SOL    HW245032   5.673   6.628   0.716  1.2012 -1.1501  0.9024
13706SOL     OW45033   2.246   8.015   1.926  0.2150  0.0156 -0.3108
13706SOL    HW145034   2.306   8.047   1.859  2.2461 -0.0707  1.3724
13706SOL    HW245035   2.271   7.924   1.939 -0.4157 -0.0774  0.3231
13707SOL     OW45036   7.712   7.591   0.258  0.1938  0.4445 -0.2995
13707SOL    HW145037   7.628   7.627   0.287 -0.4240 -0.9068 -0.3189
13707SOL    HW245038   7.707   7.498   0.281  1.3816  0.1919 -0.9865
13708SOL     OW45039   7.464   9.302   3.682 -0.6610 -0.4454 -0.7923
13708SOL    HW145040   7.389   9.362   3.687 -0.2094  0.0380  0.8908
13708SOL    HW245041   7.527   9.347   3.626 -1.1853 -0.3749 -1.3421
13709SOL     OW45042   6.026   3.940   4.506 -0.2004 -0.1683 -0.2705
13709SOL    HW145043   5.947   3.995   4.510  0.4701  1.0153 -2.1308
13709SOL    HW245044   5.999   3.861   4.459 -0.4738 -0.1401 -0.1620
13710SOL     OW45045   6.361   5.467   5.548 -0.0509  0.0337 -0.0210
13710SOL    HW145046   6.450   5.480   5.580  0.0838  0.9015 -0.7071
13710SOL    HW245047   6.308   5.530   5.596 -0.4215 -0.8891  0.8243
13711SOL     OW45048   5.321   0.310   8.336  0.4957  0.1768  0.1055
13711SOL    HW145049   5.405   0.263   8.331 -0.2651 -1.1792 -0.6023
13711SOL    HW245050   5.257   0.242   8.357 -0.8383  0.6304 -2.1211
13712SOL     OW45051   4.885   0.662   1.079 -0.0599  0.6220 -0.5114
13712SOL    HW145052   4.828   0.738   1.090 -0.3085  0.4522 -0.5848
13712SOL    HW245053   4.824   0.591   1.055  0.0993  0.2665  0.1250
13713SOL     OW45054   0.645   5.957   3.785  1.0455  0.5401  0.2250
13713SOL    HW145055   0.726   6.007   3.777  1.1261  0.1278 -3.1116
13713SOL    HW245056   0.575   6.020   3.767  0.9334  0.1240 -0.8634
13714SOL     OW45057   6.289   7.066   8.906  0.3928 -0.2504 -0.5109
13714SOL    HW145058   6.271   6.975   8.931  0.2590 -0.0062  0.3024
13714SOL    HW245059   6.232   7.082   8.831  0.0233 -0.6732 -0.3275
13715SOL     OW45060   6.456   8.634   6.022  0.8942 -0.3768 -0.0873
13715SOL    HW145061   6.545   8.601   6.030  0.9935 -0.1218 -0.1341
13715SOL    HW245062   6.421   8.589   5.944  0.6844 -1.1408  0.4392
13716SOL     OW45063   9.207   8.114   9.685 -0.0611 -0.1486  0.3311
13716SOL    HW145064   9.176   8.115   9.594 -3.3579  0.2766  1.3080
13716SOL    HW245065   9.259   8.193   9.694 -0.8086  0.5143 -0.8697
13717SOL     OW45066   8.333   2.464   6.834 -0.2199  0.0874  0.1852
13717SOL    HW145067   8.321   2.406   6.909 -1.3840  0.3572  0.2378
13717SOL    HW245068   8.272   2.431   6.768 -0.6619  1.0191  0.0973
13718SOL     OW45069   7.368   7.813   6.391  0.0704  0.0654 -0.0120
13718SOL    HW145070   7.403   7.822   6.480  0.4758  0.5458 -0.2163
13718SOL    HW245071   7.421   7.873   6.338 -2.1916  2.1945 -0.0333
13719SOL     OW45072   1.659   0.005   8.839 -0.1358  0.1207 -0.2775
13719SOL    HW145073   1.574  -0.034   8.856 -0.5451  0.3830 -1.5586
13719SOL    HW245074   1.721  -0.050   8.885 -0.9231 -0.5780 -0.0296
13720SOL     OW45075   0.174   9.314   4.319  0.3619 -0.0714  0.0000
13720SOL    HW145076   0.251   9.353   4.362 -0.3254 -2.2910  3.6467
13720SOL    HW245077   0.131   9.388   4.276  1.4996  2.3805  2.7230
13721SOL     OW45078   3.228   8.460   7.751 -0.1974 -0.1493  0.0554
13721SOL    HW145079   3.220   8.399   7.678 -0.5921 -2.0666  1.6241
13721SOL    HW245080   3.307   8.433   7.797 -1.0374 -0.2830  1.4645
13722SOL     OW45081   1.536   8.044   3.918  0.5548 -0.0120  0.2215
13722SOL    HW145082   1.529   8.128   3.964 -1.1115 -0.0737  0.1342
13722SOL    HW245083   1.504   8.063   3.829  0.1861 -0.7286  0.1928
13723SOL     OW45084   1.369   0.949   4.210  0.2372  0.0620  0.1021
13723SOL    HW145085   1.296   0.997   4.170 -0.0687  0.4549  1.1150
13723SOL    HW245086   1.385   0.994   4.293  1.4415 -0.2048  0.0298
13724SOL     OW45087   0.296   1.649   7.774  0.4829 -1.2766 -0.8670
13724SOL    HW145088   0.350   1.596   7.832  2.9055  2.2756  0.4876
13724SOL    HW245089   0.215   1.664   7.824  2.0140  0.6782  1.2454
13725SOL     OW45090   5.467   5.959   7.993  0.1465  0.4416 -0.0412
13725SOL    HW145091   5.473   5.907   8.073  0.6251  3.2049  1.8329
13725SOL    HW245092   5.378   5.943   7.961  0.5229 -2.1035 -0.0605
13726SOL     OW45093   9.137   5.502   1.695 -0.3861  0.1516 -0.2310
13726SOL    HW145094   9.176   5.589   1.695  2.1050 -0.8892 -1.2385
13726SOL    HW245095   9.161   5.464   1.611 -2.3629 -1.1625 -0.2908
13727SOL     OW45096   9.099   1.862   4.673 -0.0697 -0.4645 -0.3156
13727SOL    HW145097   9.108   1.892   4.764  1.1065  0.4019 -0.6933
13727SOL    HW245098   9.189   1.841   4.646 -0.2211  0.5316 -1.6854
13728SOL     OW45099   5.293   6.016   5.101  0.3130  0.2447  0.0137
13728SOL    HW145100   5.261   5.950   5.040  0.5844  0.7200 -0.6460
13728SOL    HW245101   5.218   6.074   5.115  0.1872  0.0173  0.3055
13729SOL     OW45102   5.673   5.648   3.097 -0.2820 -0.1208  0.1105
13729SOL    HW145103   5.681   5.615   3.007 -2.2425  1.6132 -0.7841
13729SOL    HW245104   5.753   5.617   3.140  0.1221 -2.1241 -1.8270
13730SOL     OW45105   4.690   7.149   4.654 -0.1369 -0.1782  0.7948
13730SOL    HW145106   4.653   7.064   4.677 -0.3456 -0.1700  0.4930
13730SOL    HW245107   4.724   7.183   4.737 -1.5481  0.1896  1.2563
13731SOL     OW45108   0.315   2.792   6.920  0.2193  0.2014  0.3856
13731SOL    HW145109   0.230   2.817   6.956  0.4015  0.2720  0.7749
13731SOL    HW245110   0.329   2.703   6.952  1.0048  0.7546  1.6680
13732SOL     OW45111   9.536   6.140   4.883 -0.0407 -0.4043  0.1526
13732SOL    HW145112   9.525   6.212   4.821 -1.2078  0.7621  1.6555
13732SOL    HW245113   9.490   6.168   4.962  0.3825 -2.3544  1.1605
13733SOL     OW45114   2.673   9.165   2.156 -0.1773 -0.7589 -0.2284
13733SOL    HW145115   2.671   9.251   2.197 -1.0839 -1.1091  0.5034
13733SOL    HW245116   2.604   9.116   2.200 -1.2192 -1.1517 -2.2028
13734SOL     OW45117   6.894   3.046   2.879 -0.8356 -0.0624 -0.1957
13734SOL    HW145118   6.823   2.992   2.846 -1.1419  0.5973 -0.6332
13734SOL    HW245119   6.935   3.083   2.801  1.2042 -1.8997 -0.0985
13735SOL     OW45120   7.213   2.973   4.131  0.0394  0.0766 -0.3982
13735SOL    HW145121   7.255   2.917   4.066 -0.3200 -1.0605  0.3298
13735SOL    HW245122   7.194   3.054   4.083 -0.8403 -0.9679 -1.9153
13736SOL     OW45123   3.873   5.653   5.956  0.4120 -0.0071  0.0995
13736SOL    HW145124   3.797   5.621   5.909  0.7531  1.1020 -1.2663
13736SOL    HW245125   3.923   5.575   5.978 -1.0227 -0.7394  0.9071
13737SOL     OW45126   3.570   1.608   9.013 -0.0160  0.3654 -0.0400
13737SOL    HW145127   3.617   1.691   9.016  0.6737 -0.0208 -0.0008
13737SOL    HW245128   3.596   1.562   9.093 -0.5734  0.1963  0.0552
13738SOL     OW45129   3.164   6.225  10.149 -0.3983  0.5508 -0.1046
13738SOL    HW145130   3.209   6.270  10.221 -0.5005  0.2440  0.1527
13738SOL    HW245131   3.180   6.132  10.165 -1.6407  0.3895  0.3550
13739SOL     OW45132   3.323   2.169   5.988 -0.1901  0.1377 -0.3334
13739SOL    HW145133   3.395   2.115   6.020 -0.5593 -0.5773 -0.6851
13739SOL    HW245134   3.244   2.124   6.018 -0.5106  0.2894 -0.9301
13740SOL     OW45135   6.707   4.740   7.071  0.4891 -0.2153 -0.3628
13740SOL    HW145136   6.711   4.742   7.167 -0.1803  1.3569 -0.3501
13740SOL    HW245137   6.634   4.681   7.051  0.0712  0.1371  0.1173
13741SOL     OW45138   5.508   3.901   5.144 -0.2885 -0.0338  0.1687
13741SOL    HW145139   5.593   3.892   5.187 -0.8396 -1.7956  0.9966
13741SOL    HW245140   5.445   3.863   5.206 -1.3988 -0.6396 -1.2640
13742SOL     OW45141   3.244   6.083   1.611 -0.1658  0.8555  0.1765
13742SOL    HW145142   3.158   6.119   1.587 -0.0709  1.4036  0.6381
13742SOL    HW245143   3.295   6.160   1.637  1.1988  0.8641 -2.1765
13743SOL     OW45144   0.399   4.427   6.696 -0.2183 -0.2308  0.2759
13743SOL    HW145145   0.410   4.394   6.785  0.4135 -1.0733 -0.1059
13743SOL    HW245146   0.313   4.470   6.697 -1.1515 -2.0163  0.7644
13744SOL     OW45147   1.518   7.998   5.558 -0.2074  0.2882 -0.1969
13744SOL    HW145148   1.587   7.976   5.620 -0.0403  2.8981  0.6432
13744SOL    HW245149   1.562   8.043   5.486 -0.8796  0.9749 -0.1995
13745SOL     OW45150  10.010   5.524   8.985  0.6043  0.2527  0.4560
13745SOL    HW145151   9.947   5.593   9.003 -0.5330 -0.9780  1.3889
13745SOL    HW245152   9.959   5.454   8.944  1.6472 -0.1981 -0.1311
13746SOL     OW45153   7.319   7.676   2.255 -0.3205 -0.3721 -0.6628
13746SOL    HW145154   7.277   7.749   2.301  0.9761 -0.2290  0.3556
13746SOL    HW245155   7.328   7.707   2.165 -0.5613  0.4008 -0.4319
13747SOL     OW45156   6.904   8.479   5.717  0.1741  0.1335 -0.1757
13747SOL    HW145157   6.996   8.505   5.724  0.2995 -0.6040  1.3716
13747SOL    HW245158   6.861   8.526   5.789 -0.5438 -0.0080 -0.5045
13748SOL     OW45159   5.239   6.934   9.973  0.5094  0.4227 -0.3024
13748SOL    HW145160   5.306   6.888   9.922  0.3024  0.5546 -0.6958
13748SOL    HW245161   5.278   7.018   9.995  0.3113  0.6785 -0.9126
13749SOL     OW45162   3.194   7.092   0.411 -0.2336 -0.0628 -0.0792
13749SOL    HW145163   3.139   7.018   0.435  0.1771 -0.2774  0.2144
13749SOL    HW245164   3.169   7.114   0.321  0.2107 -1.0812 -0.4653
13750SOL     OW45165   3.799   4.680   2.772 -0.1659 -0.1006 -0.4239
13750SOL    HW145166   3.883   4.721   2.791  0.0183 -0.8040  0.3242
13750SOL    HW245167   3.751   4.685   2.854 -0.7316 -0.0025 -0.7566
13751SOL     OW45168   7.061   6.428   6.293 -0.1462  0.0752  0.1879
13751SOL    HW145169   6.969   6.404   6.286  0.0534 -0.4754 -0.7023
13751SOL    HW245170   7.106   6.372   6.230  0.6164  1.3033 -0.4070
13752SOL     OW45171   8.300   6.753   3.658 -0.2864 -0.0195 -0.7042
13752SOL    HW145172   8.388   6.748   3.694 -1.0289  1.5701  1.5615
13752SOL    HW245173   8.309   6.804   3.577  0.6568  1.8250  0.5040
13753SOL     OW45174   3.992   6.052   0.620 -0.3972 -0.1032 -0.3801
13753SOL    HW145175   3.980   6.147   0.625  0.8701  0.0095  2.1993
13753SOL    HW245176   4.071   6.040   0.568 -0.2884  0.2762 -0.3068
13754SOL     OW45177   0.034   8.059   2.689 -0.0786  0.2835  0.2216
13754SOL    HW145178   0.038   8.061   2.785 -1.6308 -0.3782  0.3295
13754SOL    HW245179   0.037   8.151   2.663 -0.9905  0.5532  0.9971
13755SOL     OW45180   3.658   7.896   0.730 -0.2117 -0.1788  0.4143
13755SOL    HW145181   3.599   7.871   0.658  0.2964  0.3897 -0.2108
13755SOL    HW245182   3.666   7.817   0.782 -0.5757 -0.6117 -0.1669
13756SOL     OW45183   6.290   2.513   7.078 -0.0646  0.0759  0.0026
13756SOL    HW145184   6.218   2.452   7.066  0.8392 -0.7756 -1.3007
13756SOL    HW245185   6.257   2.596   7.044 -0.7512 -0.0620  0.3131
13757SOL     OW45186   6.935   4.511   2.231 -0.2748 -0.7893 -0.1483
13757SOL    HW145187   6.849   4.552   2.231  0.4761  0.8830 -0.2250
13757SOL    HW245188   6.977   4.543   2.152  0.5555 -1.2800  0.0764
13758SOL     OW45189   5.136  10.128   5.246  0.4252  0.2096 -0.2198
13758SOL    HW145190   5.167  10.211   5.211 -1.4669  0.7800 -0.6778
13758SOL    HW245191   5.126  10.144   5.340  0.3887  0.3902 -0.2538
13759SOL     OW45192   6.236   6.275   7.739  0.0539  0.3246 -0.5670
13759SOL    HW145193   6.268   6.213   7.673  1.6448  0.1002  0.3604
13759SOL    HW245194   6.211   6.352   7.689  1.9462  0.4478 -1.4106
13760SOL     OW45195   4.433   2.705   3.041  0.0416  0.0309  0.3852
13760SOL    HW145196   4.479   2.729   2.960  3.5764 -3.2942  1.1314
13760SOL    HW245197   4.452   2.777   3.101 -0.0105  1.0836 -0.8197
13761SOL     OW45198   2.771   3.288   6.269 -1.0571  0.5300  0.0887
13761SOL    HW145199   2.861   3.274   6.300 -0.8347  3.1763  0.8149
13761SOL    HW245200   2.773   3.374   6.228 -2.9724  0.0226 -1.1813
13762SOL     OW45201   0.543   9.985   4.714 -0.2417  0.1284 -0.1590
13762SOL    HW145202   0.631   9.966   4.680 -0.4792  1.5402 -1.6565
13762SOL    HW245203   0.496   9.901   4.707  1.2664 -0.9727  1.7870
13763SOL     OW45204   9.829   3.729   0.533  0.2088  0.5138  0.0225
13763SOL    HW145205   9.895   3.740   0.602  1.2208 -1.3099 -0.6160
13763SOL    HW245206   9.801   3.819   0.513  0.4555  1.1429  2.2323
13764SOL     OW45207   3.575   2.504   5.730  0.2856  0.6140  0.2409
13764SOL    HW145208   3.625   2.475   5.653 -0.0343 -0.8857  0.5696
13764SOL    HW245209   3.624   2.469   5.804 -1.2066 -0.8346  0.5738
13765SOL     OW45210   8.159   6.310   7.480 -0.1188  0.5139 -0.3936
13765SOL    HW145211   8.153   6.338   7.571 -1.6608  0.6417 -0.4991
13765SOL    HW245212   8.164   6.392   7.431 -1.5751  0.5500 -0.5281
13766SOL     OW45213   4.609   8.354   2.390  0.6613  0.3518  0.5748
13766SOL    HW145214   4.536   8.406   2.424  0.7445  0.5866  0.3956
13766SOL    HW245215   4.686   8.390   2.433  0.9581  1.6474 -0.9399
13767SOL     OW45216   1.968   1.837   9.851 -0.3313  0.4576 -0.2345
13767SOL    HW145217   1.940   1.928   9.863  1.9145  0.9324  2.6542
13767SOL    HW245218   1.911   1.787   9.910  0.3168  0.4564  0.4094
13768SOL     OW45219   9.387   9.576   7.657  0.4887  0.8048  0.7894
13768SOL    HW145220   9.466   9.576   7.602 -0.1399  0.3964 -0.1224
13768SOL    HW245221   9.350   9.664   7.647  0.3225  0.6988  0.4982
13769SOL     OW45222   3.268   1.667   5.580 -0.0639  0.1673 -0.4825
13769SOL    HW145223   3.338   1.667   5.516 -0.4028 -1.6109 -0.9237
13769SOL    HW245224   3.312   1.667   5.665  0.4406  0.1441 -0.7429
13770SOL     OW45225   7.477   1.933   4.214 -0.0849 -0.1020 -0.3400
13770SOL    HW145226   7.573   1.932   4.212 -0.0220  1.2244  0.7479
13770SOL    HW245227   7.452   1.842   4.231  1.1182  0.0427  2.8512
13771SOL     OW45228   1.722   5.473   9.511  0.1223  0.0257  0.2099
13771SOL    HW145229   1.729   5.390   9.558  2.3489 -0.0385 -0.1259
13771SOL    HW245230   1.682   5.451   9.427 -0.7922 -0.4053  0.7416
13772SOL     OW45231   8.904  10.062   7.529 -0.5237 -0.3171 -0.0993
13772SOL    HW145232   8.918   9.970   7.552 -0.8106 -0.1273  0.8792
13772SOL    HW245233   8.809  10.074   7.529 -0.4764  0.1898  0.7169
13773SOL     OW45234   8.849   4.647   4.151 -0.9081  0.0467  0.7651
13773SOL    HW145235   8.777   4.642   4.214  0.6089 -2.3671  2.4883
13773SOL    HW245236   8.897   4.565   4.162  0.7241  0.4569 -2.0621
13774SOL     OW45237   1.743   1.992   2.315  0.1930 -0.4267 -0.3580
13774SOL    HW145238   1.716   2.080   2.291 -1.9329  0.2581  3.7191
13774SOL    HW245239   1.669   1.936   2.290 -0.0634 -0.4351  0.4052
13775SOL     OW45240   5.060   3.128   1.950 -0.1406  0.6791  0.3892
13775SOL    HW145241   5.135   3.132   2.009 -1.1025  0.2390  1.6992
13775SOL    HW245242   5.086   3.064   1.883  0.5197  0.2543  1.0315
13776SOL     OW45243   9.025   3.384   2.767 -0.2114  0.4417  0.0732
13776SOL    HW145244   9.076   3.455   2.806 -0.3231  0.4979  0.1175
13776SOL    HW245245   8.944   3.382   2.818 -0.4540  0.6688 -0.2982
13777SOL     OW45246   5.082   7.500   0.028  0.0543  0.1198  0.0379
13777SOL    HW145247   5.076   7.424   0.087 -0.9035  0.3897  0.2996
13777SOL    HW245248   4.997   7.543   0.036  0.5592  1.1744 -0.1815
13778SOL     OW45249   8.603   4.287  10.041  0.0116 -0.3848 -0.4575
13778SOL    HW145250   8.537   4.218  10.036 -0.5938  0.2546 -1.5922
13778SOL    HW245251   8.666   4.265   9.972  0.6710 -0.6541  0.2156
13779SOL     OW45252   6.573   1.655   8.627 -0.3260  0.4039  0.0443
13779SOL    HW145253   6.493   1.675   8.677 -2.1589 -3.3213 -1.0688
13779SOL    HW245254   6.616   1.586   8.676 -0.2065 -0.7150 -1.5356
13780SOL     OW45255   6.353   1.320   1.627 -0.3421  0.2179  0.2017
13780SOL    HW145256   6.395   1.357   1.549  0.7289  0.0432  0.6776
13780SOL    HW245257   6.288   1.386   1.652 -0.2768  0.5556 -0.4759
13781SOL     OW45258   8.754   9.349   6.307 -0.2992 -0.2022  0.2168
13781SOL    HW145259   8.665   9.357   6.340  0.0636  1.2016  0.9281
13781SOL    HW245260   8.766   9.426   6.251 -0.0212 -1.1765 -1.1390
13782SOL     OW45261   0.021   5.631   4.199  0.0966 -0.4062 -0.0323
13782SOL    HW145262  -0.028   5.551   4.218 -1.2688  0.3320 -0.3052
13782SOL    HW245263   0.091   5.604   4.140  0.2169 -1.5406  0.6003
13783SOL     OW45264   7.041   6.558   0.866 -0.1578  0.2488  0.1368
13783SOL    HW145265   7.113   6.581   0.924 -0.6037  0.7833  0.4857
13783SOL    HW245266   6.986   6.636   0.862 -1.7104 -0.7186  1.3740
13784SOL     OW45267   7.585   1.381   7.929 -0.1433  0.4008 -0.3582
13784SOL    HW145268   7.509   1.323   7.929 -0.3341  0.6413 -0.8551
13784SOL    HW245269   7.636   1.355   8.006 -0.1941 -0.4632 -0.6088
13785SOL     OW45270   5.515   2.460   3.739  0.2637  0.3671  0.3633
13785SOL    HW145271   5.596   2.437   3.695  0.1620 -0.1466  0.4458
13785SOL    HW245272   5.454   2.481   3.668 -0.1238 -1.1826  0.2124
13786SOL     OW45273   1.477   9.633   3.326 -0.3596 -0.2310 -0.3097
13786SOL    HW145274   1.392   9.677   3.314 -0.4898 -0.3136  0.3125
13786SOL    HW245275   1.541   9.699   3.300 -0.6063 -0.1116 -0.6232
13787SOL     OW45276   5.449   7.859   0.164  0.5891  0.1923 -0.0727
13787SOL    HW145277   5.518   7.914   0.202  1.5782 -0.7606 -0.4166
13787SOL    HW245278   5.492   7.774   0.150  0.0924  0.2642 -2.5784
13788SOL     OW45279   5.463   1.226   9.318 -0.3122 -0.1194  0.1161
13788SOL    HW145280   5.390   1.286   9.302  0.5184  0.5521 -1.2916
13788SOL    HW245281   5.478   1.232   9.413 -2.8280 -1.2150  0.6748
13789SOL     OW45282   1.269   4.948   4.716 -0.0465  0.2088 -0.5666
13789SOL    HW145283   1.228   4.909   4.638  0.3950 -2.6978  0.5356
13789SOL    HW245284   1.240   4.893   4.788  0.4011  2.2033  1.2223
13790SOL     OW45285   1.012   5.953   4.922 -0.0312  0.6458 -0.0752
13790SOL    HW145286   0.922   5.944   4.955  0.0395  1.3882  0.3602
13790SOL    HW245287   1.016   6.044   4.890  0.7841  0.8629  0.6190
13791SOL     OW45288   7.204   2.250   3.919  0.6689 -0.5586 -0.1754
13791SOL    HW145289   7.256   2.172   3.899  1.7085  0.1485 -0.3317
13791SOL    HW245290   7.179   2.285   3.834  0.0073 -0.8428 -0.1015
13792SOL     OW45291   3.432   3.549   5.316  0.7294 -0.7414  0.1062
13792SOL    HW145292   3.419   3.540   5.221  0.0472  1.1970 -0.0299
13792SOL    HW245293   3.527   3.548   5.326  0.9312  1.3448 -0.9440
13793SOL     OW45294   4.483   5.755   9.186  0.3958  0.4942 -0.1869
13793SOL    HW145295   4.524   5.709   9.113  0.3256  1.4781 -0.8601
13793SOL    HW245296   4.464   5.686   9.250  0.1766 -0.4311 -1.2252
13794SOL     OW45297   7.828   0.946   1.170  0.4803  0.6401 -0.0790
13794SOL    HW145298   7.913   0.984   1.191 -0.8093  3.4397  0.4068
13794SOL    HW245299   7.788   0.927   1.254  1.2193 -2.3897 -0.2871
13795SOL     OW45300   4.508   4.395   4.470  0.2090  0.3193 -0.2480
13795SOL    HW145301   4.502   4.466   4.406 -0.0804  1.3278  0.8654
13795SOL    HW245302   4.505   4.439   4.555  0.1945 -1.0206  0.4686
13796SOL     OW45303   1.631   6.033   0.595 -0.2881 -0.6397 -0.3129
13796SOL    HW145304   1.696   6.005   0.531  1.1784  1.3537  0.1904
13796SOL    HW245305   1.645   6.128   0.604  0.4975 -0.9444  3.8454
13797SOL     OW45306   5.549   1.754   9.859 -0.1867 -0.4326  0.5137
13797SOL    HW145307   5.597   1.776   9.939 -0.4573 -0.8626  0.8011
13797SOL    HW245308   5.612   1.705   9.806 -0.7147 -2.3031  1.5292
13798SOL     OW45309   4.132   1.823   9.593 -0.2243  0.5761  0.1926
13798SOL    HW145310   4.225   1.834   9.612 -0.2954  1.1007  0.2533
13798SOL    HW245311   4.093   1.803   9.678  0.3771 -3.8329 -0.3313
13799SOL     OW45312   3.219   7.740   0.741  0.5188 -0.2152  0.4359
13799SOL    HW145313   3.190   7.765   0.829 -0.6761 -1.0248  0.3016
13799SOL    HW245314   3.189   7.649   0.732 -0.5316  0.2568 -1.2795
13800SOL     OW45315   0.162   3.852   4.078 -0.6872 -0.1142  0.1094
13800SOL    HW145316   0.121   3.936   4.096 -1.0892 -0.3669  0.3837
13800SOL    HW245317   0.125   3.792   4.143  0.5290 -0.2241  0.7279
13801SOL     OW45318   1.144   1.980   9.892  0.2039 -0.4854  0.6441
13801SOL    HW145319   1.236   2.003   9.882  0.4319 -1.3769  0.6396
13801SOL    HW245320   1.119   1.945   9.806  0.2538 -1.5657  1.0564
13802SOL     OW45321   5.186   6.641   5.738 -1.0132  0.3988 -0.6218
13802SOL    HW145322   5.126   6.712   5.759 -1.2052 -0.2307  1.1559
13802SOL    HW245323   5.232   6.623   5.821  1.5865  0.7983 -1.8634
13803SOL     OW45324   0.799   1.986   4.565  0.0151 -0.1687  0.1645
13803SOL    HW145325   0.795   1.974   4.470  0.5826  0.2851  0.0782
13803SOL    HW245326   0.761   2.072   4.580  0.2100 -0.1071  0.3119
13804SOL     OW45327   2.033   4.311   2.999  0.3841  0.3693  0.4379
13804SOL    HW145328   2.077   4.392   3.027  2.3859 -0.2623 -0.6997
13804SOL    HW245329   2.092   4.241   3.027 -0.7073 -0.6349  0.2933
13805SOL     OW45330   8.130   9.172   3.568 -0.1489  0.7570 -0.3559
13805SOL    HW145331   8.141   9.249   3.623  0.4471 -0.0230  0.6502
13805SOL    HW245332   8.168   9.100   3.618  0.4848  0.0177 -1.8153
13806SOL     OW45333   3.369   3.323   5.476 -0.2204  0.0554 -0.2180
13806SOL    HW145334   3.391   3.401   5.425  0.7813  0.1554  0.3423
13806SOL    HW245335   3.345   3.357   5.563  0.0172 -0.2387 -0.0347
13807SOL     OW45336   0.980   4.074   5.934 -0.3135  0.3527 -0.0935
13807SOL    HW145337   0.955   3.984   5.915  0.1063 -0.3479  2.3538
13807SOL    HW245338   0.897   4.119   5.950 -0.4845  0.3143 -0.8029
13808SOL     OW45339   6.756   4.541   9.864  0.2770 -0.4661 -0.6433
13808SOL    HW145340   6.846   4.535   9.895  0.4399  1.0711 -0.7420
13808SOL    HW245341   6.721   4.453   9.875  1.0427 -0.5593  1.6939
13809SOL     OW45342   6.736   0.242   6.154 -0.4614 -0.0346 -0.6595
13809SOL    HW145343   6.745   0.251   6.249 -1.4767  0.3343 -0.5874
13809SOL    HW245344   6.692   0.157   6.143 -0.4727 -0.0110 -0.7917
13810SOL     OW45345   8.738   8.633   4.980  0.3482 -0.5202 -0.1392
13810SOL    HW145346   8.690   8.632   4.897  2.0541 -1.3850 -1.1648
13810SOL    HW245347   8.769   8.543   4.991  1.4750 -0.0626  0.6194
13811SOL     OW45348   9.997   4.896   4.070  0.0749 -0.0751 -0.0786
13811SOL    HW145349   9.962   4.816   4.030 -0.2171  0.3628 -0.7279
13811SOL    HW245350   9.920   4.940   4.107 -0.2995  1.3754 -2.3665
13812SOL     OW45351   3.323   9.178   9.222  0.4118 -0.5650 -0.1507
13812SOL    HW145352   3.274   9.185   9.304 -0.6477 -1.1484 -0.7019
13812SOL    HW245353   3.334   9.084   9.209 -0.9305 -0.5885 -1.4886
13813SOL     OW45354   0.638   0.230   2.027 -0.2281 -0.0597 -0.0129
13813SOL    HW145355   0.674   0.298   2.084  0.0736 -1.0045  0.9439
13813SOL    HW245356   0.608   0.161   2.086  0.2699 -1.1543 -0.9862
13814SOL     OW45357   0.848   0.498   4.066  0.1984 -0.1984 -0.0529
13814SOL    HW145358   0.818   0.531   3.981  2.6780  1.7118 -0.2821
13814SOL    HW245359   0.807   0.556   4.130 -1.3926 -1.4255  0.1060
13815SOL     OW45360   0.206  10.159   0.469 -0.5347 -0.4745  0.1236
13815SOL    HW145361   0.229  10.082   0.520  0.0231  0.1527  0.8549
13815SOL    HW245362   0.261  10.229   0.506 -1.9587  0.5680  0.3502
13816SOL     OW45363   1.030   2.362   5.884  0.1319  0.4663 -0.2945
13816SOL    HW145364   1.069   2.280   5.913  0.5752  0.4284 -0.9502
13816SOL    HW245365   0.952   2.336   5.835  0.2287  0.4379 -0.4347
13817SOL     OW45366   2.371   6.699   1.898 -0.1314  0.1144 -0.6068
13817SOL    HW145367   2.337   6.680   1.811  0.4023  0.1342 -0.8226
13817SOL    HW245368   2.351   6.621   1.949  0.6508 -0.4103 -1.0778
13818SOL     OW45369   1.268   0.201   8.015  0.0354  0.1082 -0.6119
13818SOL    HW145370   1.313   0.176   7.934  0.0272  0.7146 -0.8070
13818SOL    HW245371   1.184   0.237   7.986 -0.0566  0.1348 -0.3215
13819SOL     OW45372   4.186   1.384   6.272 -0.2584 -0.1136 -0.0608
13819SOL    HW145373   4.164   1.292   6.257 -0.5314 -0.1478  0.5231
13819SOL    HW245374   4.106   1.431   6.248  0.3147  0.1103 -1.6970
13820SOL     OW45375   5.260   8.502   3.337  0.3615  0.1802 -0.1213
13820SOL    HW145376   5.181   8.522   3.287  1.0081  2.7752 -0.2491
13820SOL    HW245377   5.266   8.407   3.335 -0.8444  0.0665 -3.0696
13821SOL     OW45378   3.569   5.739   0.389 -0.7134 -0.4757 -0.4985
13821SOL    HW145379   3.645   5.727   0.332 -0.5799  1.6513 -0.8598
13821SOL    HW245380   3.605   5.733   0.478 -0.3738 -0.8904 -0.6623
13822SOL     OW45381   6.519   2.411   9.366  0.2195  0.0415  0.0021
13822SOL    HW145382   6.458   2.352   9.411  0.2522 -1.4971 -1.8062
13822SOL    HW245383   6.465   2.459   9.304  0.6933 -0.7210 -1.0265
13823SOL     OW45384   6.345   0.471   7.145 -0.2272  0.0410  0.2415
13823SOL    HW145385   6.273   0.408   7.146 -0.2791  0.0810  1.9211
13823SOL    HW245386   6.423   0.418   7.163 -0.2848  0.4168  1.7608
13824SOL     OW45387   6.033   5.000   7.633 -0.7518 -0.6516  0.0226
13824SOL    HW145388   5.980   4.921   7.625 -1.1009 -0.4117 -0.0710
13824SOL    HW245389   5.985   5.055   7.695 -0.1040 -0.8362  0.6941
13825SOL     OW45390   6.888   5.518   1.923  0.1456  0.4982  0.5336
13825SOL    HW145391   6.849   5.435   1.950 -1.8259  0.5281 -1.8647
13825SOL    HW245392   6.847   5.583   1.979  0.8095  0.0240  1.6140
13826SOL     OW45393   9.289   7.709  10.002 -0.0938 -0.1158 -0.5162
13826SOL    HW145394   9.267   7.746   9.917  0.7799 -0.2425 -0.8068
13826SOL    HW245395   9.343   7.633   9.982  0.0260 -0.2110  0.1428
13827SOL     OW45396   4.768   2.630   0.505  0.2183  0.4069  0.0339
13827SOL    HW145397   4.820   2.637   0.585 -0.2250  1.8947  0.2228
13827SOL    HW245398   4.806   2.696   0.446  1.4663 -1.6199 -1.5666
13828SOL     OW45399   4.733   2.767   4.820 -0.7798 -0.2947 -0.3747
13828SOL    HW145400   4.750   2.673   4.807  0.8100 -0.1506  0.3972
13828SOL    HW245401   4.652   2.770   4.870 -0.8005 -1.2723 -0.3249
13829SOL     OW45402   8.868   8.205   4.414 -0.2470  0.2660  0.1824
13829SOL    HW145403   8.920   8.172   4.341  1.1005  0.0510  1.2110
13829SOL    HW245404   8.875   8.300   4.407 -3.8923  0.5618 -2.6063
13830SOL     OW45405   9.350   7.631   5.460  0.4689  0.3833 -0.2286
13830SOL    HW145406   9.426   7.683   5.487  0.0412  0.9989 -0.1800
13830SOL    HW245407   9.307   7.608   5.543  0.7922 -0.2742 -0.2344
13831SOL     OW45408   7.441   2.689   2.899  0.4106  0.2438  0.3343
13831SOL    HW145409   7.359   2.650   2.928  0.7972 -0.7150  0.1666
13831SOL    HW245410   7.484   2.719   2.979  1.2118 -1.8681  0.7425
13832SOL     OW45411   6.613   1.794   8.349  0.0856  0.2125  0.3012
13832SOL    HW145412   6.696   1.762   8.314 -0.1168 -0.1780  0.1722
13832SOL    HW245413   6.621   1.782   8.444  0.1067 -0.0010  0.2737
13833SOL     OW45414   0.964   3.465   2.195 -0.4770  0.6863 -0.5045
13833SOL    HW145415   0.998   3.496   2.279 -0.2113  0.8038 -0.6549
13833SOL    HW245416   1.035   3.481   2.133 -0.4664  0.0967 -0.6496
13834SOL     OW45417   4.994   2.794   4.772 -0.7107  0.2192  0.3488
13834SOL    HW145418   4.899   2.781   4.770 -0.7299  0.1007  1.3476
13834SOL    HW245419   5.029   2.710   4.802 -0.2025 -0.0636 -0.9841
13835SOL     OW45420   8.069   6.072   1.743  0.0319  0.1278 -0.1016
13835SOL    HW145421   8.036   6.084   1.832 -0.6493  0.9163 -0.4430
13835SOL    HW245422   8.152   6.121   1.742  0.3804 -0.4380  0.2752
13836SOL     OW45423   5.467   6.227   8.138 -0.4769  0.0657 -0.6176
13836SOL    HW145424   5.429   6.224   8.226  0.7035  0.3947 -0.0879
13836SOL    HW245425   5.463   6.136   8.108 -0.3945 -0.1486 -0.0043
13837SOL     OW45426   1.172   6.788   2.974  0.2574 -0.1442 -0.0765
13837SOL    HW145427   1.077   6.789   2.960  0.4107  0.1775 -1.1901
13837SOL    HW245428   1.209   6.795   2.886  1.3179 -0.1570  0.3590
13838SOL     OW45429   7.116   9.449   2.098 -0.3813 -0.0374  0.1580
13838SOL    HW145430   7.104   9.513   2.168 -2.1541 -0.4363  0.2755
13838SOL    HW245431   7.045   9.386   2.111  0.1063 -0.9055 -1.1613
13839SOL     OW45432   3.858   4.655   4.885 -0.3670 -0.6910  0.0361
13839SOL    HW145433   3.813   4.739   4.887 -1.0011 -0.9877 -1.0257
13839SOL    HW245434   3.808   4.599   4.944 -0.3749 -0.5317  0.1802
13840SOL     OW45435   0.887   7.218   2.347  0.0119  0.2016 -0.8912
13840SOL    HW145436   0.825   7.276   2.303 -1.3618 -0.3696  0.2110
13840SOL    HW245437   0.925   7.272   2.416  1.2809  0.7479 -1.9807
13841SOL     OW45438   6.766  10.055   3.529 -0.5127  0.0764 -0.6922
13841SOL    HW145439   6.836  10.117   3.510  0.4631 -0.9326 -0.4968
13841SOL    HW245440   6.730  10.086   3.612  0.8189 -0.3147  0.0693
13842SOL     OW45441   6.255   6.712   5.318 -0.5837 -0.0649  0.1088
13842SOL    HW145442   6.280   6.626   5.352 -0.7241 -0.2227 -0.1762
13842SOL    HW245443   6.238   6.696   5.225 -3.6672 -0.4100  0.6143
13843SOL     OW45444   1.112   3.508   9.580 -0.5070  0.3499  0.0940
13843SOL    HW145445   1.057   3.567   9.631  0.3502  0.6570  0.6965
13843SOL    HW245446   1.160   3.565   9.520  0.5198  0.3222  0.8604
13844SOL     OW45447   9.164   0.197   4.045 -0.2278 -0.3890  0.0373
13844SOL    HW145448   9.171   0.126   4.109 -0.2786 -0.8836 -0.4969
13844SOL    HW245449   9.101   0.166   3.981 -1.2564  0.6945  0.4873
13845SOL     OW45450   1.349   4.665   3.051 -0.9684  0.4692 -0.5564
13845SOL    HW145451   1.256   4.671   3.072 -1.2187 -1.1307 -1.0728
13845SOL    HW245452   1.351   4.649   2.957 -0.2584 -0.9887 -0.3158
13846SOL     OW45453   6.073   8.667   2.875  0.6693  0.5526  0.4469
13846SOL    HW145454   6.132   8.688   2.802  1.2804  0.9949  1.0577
13846SOL    HW245455   6.045   8.752   2.909  0.2945  0.3481  0.6594
13847SOL     OW45456   4.942   0.884   1.784  0.3610  0.2038 -0.5166
13847SOL    HW145457   4.975   0.950   1.724  0.0867  0.7579 -0.0680
13847SOL    HW245458   4.847   0.895   1.782  0.3702  0.5872  0.4019
13848SOL     OW45459   2.918   9.641   3.058 -0.3217  0.3160  0.5655
13848SOL    HW145460   2.915   9.612   2.967  0.0262  1.5407  0.1514
13848SOL    HW245461   2.983   9.583   3.099 -0.0292  0.1482 -0.1112
13849SOL     OW45462   2.323   1.380   8.596 -0.2504  0.0914  0.1375
13849SOL    HW145463   2.407   1.359   8.637 -0.1924 -0.1043 -0.0816
13849SOL    HW245464   2.258   1.359   8.663 -0.1544 -0.2304  0.1347
13850SOL     OW45465   3.206   3.809   5.740  0.0812 -0.4757 -0.2946
13850SOL    HW145466   3.202   3.730   5.687  0.7687 -0.9590  0.3671
13850SOL    HW245467   3.286   3.853   5.712 -1.4345  1.2494 -2.3649
13851SOL     OW45468   3.330   4.769   4.041  1.0159 -0.8145 -0.1438
13851SOL    HW145469   3.264   4.824   4.084  2.0422 -0.1424  0.5928
13851SOL    HW245470   3.347   4.814   3.958  1.0377 -0.6270 -0.0388
13852SOL     OW45471   7.161   3.623   9.343 -0.4865  0.6161  0.6394
13852SOL    HW145472   7.246   3.583   9.361 -0.1588  1.6279  1.4218
13852SOL    HW245473   7.135   3.663   9.426 -2.4686 -0.9835  0.8775
13853SOL     OW45474   5.498   6.811   1.065 -0.1046 -0.0237  0.2475
13853SOL    HW145475   5.571   6.869   1.044 -1.0629  1.7818  1.5794
13853SOL    HW245476   5.538   6.737   1.111  1.0310  0.1259 -0.4657
13854SOL     OW45477   5.454   5.570   4.273  0.1422  0.0624  0.8900
13854SOL    HW145478   5.437   5.477   4.263  1.0465 -0.2845  2.3472
13854SOL    HW245479   5.382   5.613   4.226  0.1051 -1.3436 -0.4044
13855SOL     OW45480   6.375   0.317   8.658 -0.3918 -0.1710 -0.3885
13855SOL    HW145481   6.343   0.369   8.584 -0.6501 -1.7333 -1.4105
13855SOL    HW245482   6.297   0.292   8.706 -0.2957  0.0822 -0.0957
13856SOL     OW45483   6.885   7.132   6.061  0.3736  0.2999  0.3546
13856SOL    HW145484   6.886   7.227   6.052  0.8722  0.2431 -0.2428
13856SOL    HW245485   6.959   7.102   6.008  0.1135 -0.4303  0.3956
13857SOL     OW45486   6.969   2.188   8.104 -0.1879 -0.1711  0.2252
13857SOL    HW145487   7.029   2.261   8.089  1.0188 -0.8210  1.6457
13857SOL    HW245488   6.885   2.231   8.125  0.3110  0.7976  0.3072
13858SOL     OW45489   3.572   3.818   0.463 -0.0268 -0.2167  0.4489
13858SOL    HW145490   3.496   3.799   0.517  0.2196 -0.4365  0.7217
13858SOL    HW245491   3.543   3.886   0.402 -1.0418 -1.6725 -0.7698
13859SOL     OW45492   2.286   2.324   4.890  0.2776 -0.1968  0.5139
13859SOL    HW145493   2.312   2.267   4.962  0.9581  0.7653  1.0561
13859SOL    HW245494   2.239   2.396   4.933 -0.2989 -0.1883 -0.1219
13860SOL     OW45495   7.346   6.799  10.203  0.1028 -0.2173  0.2236
13860SOL    HW145496   7.439   6.787  10.181  0.6890  3.2340  0.2997
13860SOL    HW245497   7.315   6.865  10.141 -1.5309  0.6809  1.8959
13861SOL     OW45498   8.170   2.328   6.664  0.1693  0.0146  0.2932
13861SOL    HW145499   8.087   2.309   6.708 -0.9312 -0.2832 -1.7515
13861SOL    HW245500   8.144   2.360   6.577  2.1567 -2.3889 -1.3313
13862SOL     OW45501   7.873   7.853   9.728 -0.0452  0.3244 -0.4147
13862SOL    HW145502   7.893   7.913   9.656 -2.0798  1.7430  0.1278
13862SOL    HW245503   7.782   7.872   9.751  0.5533 -0.0035  2.6027
13863SOL     OW45504   1.645   9.557   6.204 -0.0439  0.4544 -0.2902
13863SOL    HW145505   1.618   9.529   6.292  0.3142 -0.1245 -0.3633
13863SOL    HW245506   1.685   9.643   6.217 -3.3962  2.1988 -0.3666
13864SOL     OW45507   7.409   5.282   5.711  0.0470 -0.4258 -0.1856
13864SOL    HW145508   7.435   5.199   5.751  1.5446  0.2066  0.2244
13864SOL    HW245509   7.397   5.262   5.619  2.7773 -0.6875 -0.5739
13865SOL     OW45510   7.068   1.716   6.608  0.4778  0.2180 -0.2943
13865SOL    HW145511   7.014   1.639   6.621  0.0077  0.5212 -0.4438
13865SOL    HW245512   7.155   1.682   6.585  0.7234 -0.2990  1.2806
13866SOL     OW45513   7.185   9.351   9.133  0.1886  0.4573  0.2831
13866SOL    HW145514   7.153   9.263   9.113  0.1900  0.8011 -1.3785
13866SOL    HW245515   7.172   9.400   9.051 -2.4545  2.8113  1.9502
13867SOL     OW45516   3.408   2.962   9.155  0.3543 -0.4475  0.5705
13867SOL    HW145517   3.477   2.933   9.096  0.7894  0.1832  0.7485
13867SOL    HW245518   3.432   2.923   9.240  2.0124  1.8472  1.2739
13868SOL     OW45519   4.684   9.686   0.301 -0.5936 -0.0593 -0.3906
13868SOL    HW145520   4.652   9.638   0.378  0.7747 -0.1436  0.1419
13868SOL    HW245521   4.664   9.628   0.228 -0.1240 -0.8861  0.1148
13869SOL     OW45522   2.273   2.472   5.613  0.2065  0.4007  0.0186
13869SOL    HW145523   2.287   2.523   5.534 -0.7866 -0.8801 -1.0325
13869SOL    HW245524   2.340   2.503   5.674 -0.1590  2.6781 -0.6620
13870SOL     OW45525   7.366   5.963   1.294 -0.0157  0.2284  0.0814
13870SOL    HW145526   7.313   6.030   1.337  0.9526  1.1730 -0.1445
13870SOL    HW245527   7.304   5.915   1.239 -0.7712  0.7830  0.4330
13871SOL     OW45528   2.365   6.505   0.013  0.6072 -0.1541 -0.4639
13871SOL    HW145529   2.438   6.499  -0.050  1.5998 -0.4512  0.6829
13871SOL    HW245530   2.369   6.595   0.045 -0.2087  0.1463 -1.1516
13872SOL     OW45531   6.504   8.007   1.579  0.2996  0.2272  0.0371
13872SOL    HW145532   6.461   8.074   1.525 -0.2327  1.1371  1.5200
13872SOL    HW245533   6.596   8.035   1.582  0.2832  0.3105 -0.1920
13873SOL     OW45534   3.654   2.196   0.901 -0.5995 -0.1704  0.4353
13873SOL    HW145535   3.594   2.255   0.855 -1.2755 -0.1828  1.2691
13873SOL    HW245536   3.693   2.251   0.970 -1.1818 -0.6592  1.1727
13874SOL     OW45537   0.983   0.310   4.967  0.5217 -0.3709 -0.3449
13874SOL    HW145538   1.035   0.390   4.956  1.5379 -1.1764 -1.6226
13874SOL    HW245539   0.952   0.290   4.878  2.3920 -2.7628 -0.5376
13875SOL     OW45540   5.371   1.450   3.208  0.3920  0.1398  0.5628
13875SOL    HW145541   5.375   1.400   3.290  1.5472 -0.1628  0.3389
13875SOL    HW245542   5.449   1.423   3.159  1.6604  2.8496  0.8561
13876SOL     OW45543   5.181   3.741   7.889  0.3659  0.2783  0.2920
13876SOL    HW145544   5.147   3.692   7.815 -0.8113  0.3906  0.7342
13876SOL    HW245545   5.259   3.784   7.855  0.6046 -0.7335 -0.5009
13877SOL     OW45546   0.221   2.116   4.876 -0.7029 -0.1883  0.0921
13877SOL    HW145547   0.155   2.184   4.873 -0.9915 -0.4840 -0.6589
13877SOL    HW245548   0.173   2.035   4.855 -0.4039 -0.6529  1.1298
13878SOL     OW45549   1.084   8.803   1.149  0.2780  0.0284  0.0687
13878SOL    HW145550   1.098   8.737   1.080 -0.5843  1.4179 -1.4960
13878SOL    HW245551   1.165   8.853   1.151  0.3374 -0.0683  0.1547
13879SOL     OW45552   6.198   0.369   6.208 -0.4151 -0.1112  0.5754
13879SOL    HW145553   6.157   0.456   6.206 -0.0699  0.0411 -0.0732
13879SOL    HW245554   6.179   0.332   6.121  1.7020  0.3783 -0.1563
13880SOL     OW45555   6.087   1.205   7.285 -0.0515  0.9930 -0.3221
13880SOL    HW145556   6.116   1.165   7.202  1.5565 -1.4850  1.2839
13880SOL    HW245557   6.051   1.131   7.335  2.9149  1.4418  2.7917
13881SOL     OW45558   1.876   1.619   3.692 -0.2208  0.3947 -0.0200
13881SOL    HW145559   1.915   1.562   3.759 -1.5318  0.9168  1.2382
13881SOL    HW245560   1.781   1.611   3.707 -0.5528  0.3356 -1.9914
13882SOL     OW45561   2.571   7.836   6.472  0.0892 -0.3707 -0.1345
13882SOL    HW145562   2.488   7.835   6.423  1.5245 -1.3873 -2.7479
13882SOL    HW245563   2.577   7.749   6.511 -0.2790 -0.1202  0.5023
13883SOL     OW45564   7.380   7.042   5.058  0.1507 -0.0601 -0.0260
13883SOL    HW145565   7.331   6.966   5.025  0.2211 -0.1559  0.0894
13883SOL    HW245566   7.328   7.117   5.031 -1.0266 -0.2188  1.6691
13884SOL     OW45567   3.705   5.485   0.509  0.1916 -0.0957 -0.1253
13884SOL    HW145568   3.643   5.475   0.437 -1.7643 -0.5239  1.5281
13884SOL    HW245569   3.769   5.415   0.496  0.0507  0.0263 -1.5984
13885SOL     OW45570   8.600   9.615   2.631  0.7258  0.1076  0.0922
13885SOL    HW145571   8.674   9.644   2.684 -0.1847  2.2056  0.3112
13885SOL    HW245572   8.527   9.607   2.693  0.5094 -0.9325 -0.2794
13886SOL     OW45573   6.574   2.936   1.544  0.9501  0.5126 -0.0561
13886SOL    HW145574   6.541   3.003   1.484  0.1287 -0.6330 -0.9313
13886SOL    HW245575   6.504   2.926   1.609 -0.2659 -1.4371 -1.5308
13887SOL     OW45576   9.505   6.114   0.930  0.3280 -0.5217  0.7033
13887SOL    HW145577   9.580   6.154   0.885 -2.1411  0.7476 -2.6372
13887SOL    HW245578   9.501   6.158   1.014  0.9826  2.3778 -0.6785
13888SOL     OW45579   2.113   4.572   9.555  0.0267 -0.3783 -0.6216
13888SOL    HW145580   2.100   4.541   9.644 -0.4898  0.7809 -0.2607
13888SOL    HW245581   2.203   4.605   9.554 -0.0739 -0.0905 -0.4234
13889SOL     OW45582   8.259   6.519   2.625 -0.3338  0.4755 -0.1005
13889SOL    HW145583   8.188   6.457   2.609  0.3924 -0.4292  0.0722
13889SOL    HW245584   8.338   6.472   2.596  0.5278  0.3696  2.1999
13890SOL     OW45585   2.628   6.206   7.893  0.4438  0.5355 -0.5358
13890SOL    HW145586   2.679   6.165   7.823  0.8818  0.5738 -0.2384
13890SOL    HW245587   2.565   6.262   7.846  1.5719  1.5558 -0.8802
13891SOL     OW45588   1.753   6.827   6.106 -0.1690  0.5277  0.0620
13891SOL    HW145589   1.671   6.850   6.150  0.0507  1.2134  0.1285
13891SOL    HW245590   1.726   6.796   6.019 -0.4376  2.0053 -0.4164
13892SOL     OW45591   3.999   0.872   8.652 -0.6003 -0.7647  0.4523
13892SOL    HW145592   3.905   0.886   8.665 -0.6735 -0.6928 -0.1095
13892SOL    HW245593   4.004   0.787   8.606 -0.4996 -0.0691 -0.8843
13893SOL     OW45594   5.737   2.662   6.201 -0.5108 -0.2504 -0.2125
13893SOL    HW145595   5.673   2.713   6.151 -1.4125  0.3347  1.4412
13893SOL    HW245596   5.775   2.602   6.138  0.4140  2.2474 -2.2225
13894SOL     OW45597   1.531   6.065   3.976 -0.3832  0.2774 -0.2951
13894SOL    HW145598   1.513   6.149   4.018 -1.1708 -0.6294  1.2398
13894SOL    HW245599   1.626   6.056   3.982 -0.0005  1.9983 -2.4224
13895SOL     OW45600   6.389   7.058   3.339  0.2314  0.6010 -1.1351
13895SOL    HW145601   6.298   7.026   3.338  0.2593  0.5198 -1.0877
13895SOL    HW245602   6.433   7.005   3.273  0.6464 -0.5445  0.0178
13896SOL     OW45603   3.101   7.059   3.572  0.2291  0.1795 -0.1381
13896SOL    HW145604   3.176   7.102   3.613 -0.1149  0.2545  0.4207
13896SOL    HW245605   3.025   7.110   3.601 -0.5215 -2.2948  2.7293
13897SOL     OW45606   2.166   0.760   3.160 -0.0343  0.2164  0.1487
13897SOL    HW145607   2.213   0.760   3.077  2.0178  0.6993  1.2429
13897SOL    HW245608   2.173   0.850   3.192 -2.1840  0.4428  0.1539
13898SOL     OW45609   5.253   4.837   8.111  0.5635 -0.2150 -0.0021
13898SOL    HW145610   5.196   4.784   8.056 -1.0609 -0.5759  1.9076
13898SOL    HW245611   5.318   4.777   8.144  0.4386 -0.3971 -0.0874
13899SOL     OW45612   4.984   2.466   6.955 -0.4962  0.6006  0.5159
13899SOL    HW145613   5.032   2.491   7.034 -0.9888  0.9998  0.7022
13899SOL    HW245614   4.925   2.540   6.939 -0.3719  0.5461 -0.2569
13900SOL     OW45615   5.957   5.737   6.870 -0.3195  0.0378  0.0105
13900SOL    HW145616   6.007   5.716   6.949 -1.2363 -1.0196  0.3287
13900SOL    HW245617   6.005   5.810   6.831  1.3972 -0.8543  0.3580
13901SOL     OW45618   7.922   8.256   6.642 -0.1614 -0.1800  0.5453
13901SOL    HW145619   8.004   8.273   6.595 -0.9295  0.2042 -0.7059
13901SOL    HW245620   7.928   8.310   6.721 -0.7001  2.6725 -1.2378
13902SOL     OW45621   1.976   8.603   1.469 -0.4706 -0.5349  0.0891
13902SOL    HW145622   1.997   8.529   1.526  3.0462 -1.4172 -2.0915
13902SOL    HW245623   1.965   8.564   1.383 -2.4867  1.1321 -0.4787
13903SOL     OW45624   9.881   7.091   9.050  0.6292 -0.1257  0.1432
13903SOL    HW145625   9.842   7.070   9.135  0.8672  1.1543  0.6031
13903SOL    HW245626   9.841   7.029   8.989 -0.6749 -0.1066  0.9278
13904SOL     OW45627   1.102   9.079   7.126 -0.4380 -0.2209 -0.3001
13904SOL    HW145628   1.121   8.992   7.163  1.3733 -0.0329 -0.6771
13904SOL    HW245629   1.058   9.061   7.043 -0.1305 -0.7924 -0.3467
13905SOL     OW45630   4.547   9.365   2.618 -0.0290 -1.0342 -0.2785
13905SOL    HW145631   4.547   9.277   2.655  1.8187 -0.8967  0.1229
13905SOL    HW245632   4.572   9.422   2.691 -2.2613 -0.0007 -0.2383
13906SOL     OW45633   8.864   6.332   6.001 -0.3595  0.6771 -0.0339
13906SOL    HW145634   8.883   6.379   6.082 -0.4298  1.8806 -0.6860
13906SOL    HW245635   8.898   6.389   5.932  0.9036 -0.9354 -0.8109
13907SOL     OW45636   8.075   3.471   1.883 -0.3112 -0.6809  0.5203
13907SOL    HW145637   8.087   3.380   1.857  3.4617 -0.1960 -0.0261
13907SOL    HW245638   7.996   3.471   1.937 -0.3605 -4.2699  0.6575
13908SOL     OW45639   4.446   2.097   9.309 -0.2944 -0.6891 -0.3472
13908SOL    HW145640   4.375   2.131   9.363  0.5455  0.8277 -0.1401
13908SOL    HW245641   4.525   2.140   9.343  0.4452 -0.7919 -1.8393
13909SOL     OW45642   1.837   7.590   1.181  0.2174  0.0462 -0.4286
13909SOL    HW145643   1.827   7.533   1.105 -0.2246 -1.0760  0.4432
13909SOL    HW245644   1.749   7.625   1.197  0.3908  0.6030 -0.6672
13910SOL     OW45645   8.703   5.454   6.047 -0.7969  0.1549  0.2633
13910SOL    HW145646   8.796   5.455   6.024 -0.7569  0.7876  0.4273
13910SOL    HW245647   8.703   5.437   6.141 -0.9119 -1.2713  0.0180
13911SOL     OW45648   3.018   2.416   6.972 -0.3821  0.2205  0.0123
13911SOL    HW145649   3.099   2.390   7.016 -0.1064  0.8296 -0.1226
13911SOL    HW245650   3.010   2.355   6.898 -0.8992 -0.8759  0.9270
13912SOL     OW45651   1.699   3.251   2.632  0.0953  0.1349 -0.0692
13912SOL    HW145652   1.709   3.197   2.710 -1.4474 -0.5170 -0.2730
13912SOL    HW245653   1.619   3.302   2.648  0.1087  0.4575 -0.9412
13913SOL     OW45654   2.627   1.331   0.111  0.0214  0.5417 -0.1881
13913SOL    HW145655   2.553   1.341   0.172 -0.5316  0.7542 -0.8831
13913SOL    HW245656   2.609   1.394   0.042  0.0931 -0.4161 -1.1050
13914SOL     OW45657   6.740   9.057   6.519  0.0506 -0.1447 -0.2443
13914SOL    HW145658   6.646   9.060   6.500  0.1842  0.4540 -0.8513
13914SOL    HW245659   6.751   9.118   6.592 -0.0349 -0.2583 -0.1344
13915SOL     OW45660  10.056   0.153   8.505 -0.7603  0.3357  0.1578
13915SOL    HW145661  10.110   0.177   8.581 -0.9398  0.1552  0.3447
13915SOL    HW245662  10.084   0.213   8.436 -1.0412  0.9308  0.5513
13916SOL     OW45663   8.664   5.662   1.822  0.1578 -0.1021 -0.0907
13916SOL    HW145664   8.724   5.737   1.817  1.3530 -1.1264 -2.2424
13916SOL    HW245665   8.718   5.590   1.855 -0.3863 -0.5947 -0.2576
13917SOL     OW45666   0.086   2.159   9.799 -0.2549  0.5325 -0.3106
13917SOL    HW145667   0.034   2.190   9.874 -0.6624  0.6983 -0.6514
13917SOL    HW245668   0.061   2.067   9.790 -0.6905  0.6755 -0.6271
13918SOL     OW45669   5.512   5.155   8.653 -0.5262  0.1101 -0.6074
13918SOL    HW145670   5.466   5.088   8.703 -0.7155  1.2169  0.7678
13918SOL    HW245671   5.602   5.150   8.683 -0.5015  0.3557 -0.6370
13919SOL     OW45672   6.417   2.752   9.356  0.0876  0.0748  0.1266
13919SOL    HW145673   6.409   2.682   9.291 -0.4128 -0.9938  1.3011
13919SOL    HW245674   6.389   2.712   9.439 -1.4934  2.0336  0.6175
13920SOL     OW45675   8.493   0.344   6.994 -0.5478 -0.2935 -1.0818
13920SOL    HW145676   8.566   0.332   6.933 -0.1123 -1.9264 -0.2929
13920SOL    HW245677   8.501   0.434   7.024  2.0564 -0.8245  0.0804
13921SOL     OW45678   2.503   5.229   9.683  0.2081  0.1508  0.0818
13921SOL    HW145679   2.528   5.312   9.642  0.1813 -0.3193 -0.9144
13921SOL    HW245680   2.409   5.239   9.700  0.1920  0.2976 -0.0903
13922SOL     OW45681   6.809   0.471   1.610  0.1804 -0.4910 -0.0236
13922SOL    HW145682   6.865   0.442   1.538  1.3282 -0.9487  1.0064
13922SOL    HW245683   6.843   0.425   1.687 -0.8707  0.1381  0.8541
13923SOL     OW45684   8.603   0.751   7.998 -0.7554 -0.4788 -0.4596
13923SOL    HW145685   8.656   0.728   8.074  0.0718  0.6172 -0.6796
13923SOL    HW245686   8.602   0.672   7.944  0.1594 -0.7095 -0.1596
13924SOL     OW45687   0.401   3.554   3.948 -0.6188  1.2232  0.0303
13924SOL    HW145688   0.365   3.613   4.014  0.1985  0.8603  0.8234
13924SOL    HW245689   0.466   3.606   3.902 -2.3982  2.0403 -1.7463
13925SOL     OW45690   9.068   3.849   5.104 -0.6894 -0.1120 -0.5791
13925SOL    HW145691   9.054   3.762   5.143  0.0715 -0.7332 -1.6452
13925SOL    HW245692   9.162   3.854   5.090 -0.5693  1.3793  0.5074
13926SOL     OW45693   4.112   7.484   6.184 -0.3451  0.0473 -0.4114
13926SOL    HW145694   4.090   7.547   6.115 -1.7680 -0.4753 -0.4700
13926SOL    HW245695   4.042   7.419   6.181  0.9672 -1.4640 -0.2301
13927SOL     OW45696   6.466   8.632   1.916  0.2756  0.8454  0.1278
13927SOL    HW145697   6.432   8.697   1.978  1.2095  2.2702 -0.7821
13927SOL    HW245698   6.421   8.653   1.834  2.1601  1.7798 -0.7094
13928SOL     OW45699   3.509   3.307   0.952  0.5873 -0.2367  0.0276
13928SOL    HW145700   3.558   3.250   0.893  0.1436  0.0068 -0.5904
13928SOL    HW245701   3.524   3.271   1.039  2.4254  0.2371 -0.0557
13929SOL     OW45702   0.249   2.752   7.748 -0.2155 -0.0074  0.5677
13929SOL    HW145703   0.320   2.689   7.739 -0.2979 -0.1052  0.6053
13929SOL    HW245704   0.170   2.704   7.721 -0.4212 -0.2119  1.5047
13930SOL     OW45705   8.378   8.664   6.498  0.5060 -0.3283  0.4477
13930SOL    HW145706   8.462   8.619   6.505 -0.1934 -1.7400  0.2306
13930SOL    HW245707   8.347   8.671   6.588  2.6922  4.0829  1.1265
13931SOL     OW45708   4.099   0.254   4.105  0.0421 -0.0851  0.6395
13931SOL    HW145709   4.193   0.243   4.113 -0.0008 -1.1622 -0.1218
13931SOL    HW245710   4.073   0.298   4.185  1.1010 -0.3947  1.1677
13932SOL     OW45711   1.607   3.865   9.367  0.0692 -0.0193 -0.3048
13932SOL    HW145712   1.599   3.845   9.460  1.1732 -0.1620 -0.2236
13932SOL    HW245713   1.529   3.917   9.347  0.6630  1.5299  1.1172
13933SOL     OW45714   8.624   8.783   6.706  0.4127  0.3420  0.0194
13933SOL    HW145715   8.556   8.823   6.761 -0.5163 -2.0835  0.7386
13933SOL    HW245716   8.619   8.690   6.725  2.2186 -0.2180 -1.8822
13934SOL     OW45717  10.125   3.902   1.603  0.0182 -0.4510 -0.4835
13934SOL    HW145718  10.107   3.816   1.565  1.6126 -0.8264 -0.4566
13934SOL    HW245719  10.038   3.938   1.622 -0.7709 -1.2024 -2.3263
13935SOL     OW45720   7.838   2.761   6.431  0.2825 -0.3114 -0.3962
13935SOL    HW145721   7.893   2.718   6.365  0.1495  0.4401 -1.0142
13935SOL    HW245722   7.789   2.827   6.382  1.7056  1.7092  0.7524
13936SOL     OW45723   0.555   3.847   1.800  0.4804 -0.1056  0.2011
13936SOL    HW145724   0.636   3.881   1.838 -0.2360  0.5787  1.1511
13936SOL    HW245725   0.517   3.792   1.868 -0.8225  1.1417  0.5364
13937SOL     OW45726   6.426   0.013   8.683  0.5828  0.1165  0.1715
13937SOL    HW145727   6.371   0.007   8.605  0.3878 -0.6753  0.3582
13937SOL    HW245728   6.363   0.018   8.755  0.7625  0.4216  0.3069
13938SOL     OW45729   1.194   6.261   8.299  0.1041 -0.4145 -0.5568
13938SOL    HW145730   1.162   6.284   8.212  0.8565  1.3617 -0.4074
13938SOL    HW245731   1.177   6.339   8.352  2.6543 -0.1649  0.0392
13939SOL     OW45732   4.950   2.601   2.231  0.2823  0.6139 -0.6611
13939SOL    HW145733   4.997   2.532   2.183  0.4333  0.3671 -0.1584
13939SOL    HW245734   5.019   2.649   2.277  0.0205  0.0829  0.2944
13940SOL     OW45735   6.762   2.871   2.680 -0.0861  0.1520  0.4943
13940SOL    HW145736   6.727   2.930   2.612  0.6972  1.1701  0.9524
13940SOL    HW245737   6.693   2.870   2.747 -0.4835 -0.1576  0.0889
13941SOL     OW45738   5.864   5.797   2.861  0.2433  0.2906  0.1587
13941SOL    HW145739   5.877   5.851   2.783  2.4526  1.7439  1.4226
13941SOL    HW245740   5.796   5.842   2.911  0.6343  0.7981  0.2453
13942SOL     OW45741   2.498   0.223   7.968 -0.3254 -0.4063 -0.2892
13942SOL    HW145742   2.541   0.143   7.998  1.0190  0.5283  0.3311
13942SOL    HW245743   2.508   0.220   7.873 -0.3251 -0.9944 -0.2779
13943SOL     OW45744   8.140   1.661   8.221  0.3088 -0.0203 -0.6260
13943SOL    HW145745   8.225   1.695   8.193  0.5761  0.2363  0.4484
13943SOL    HW245746   8.077   1.721   8.182  0.6293 -0.0085 -1.1453
13944SOL     OW45747   8.226   7.712   2.776  0.7149 -0.1180 -0.3554
13944SOL    HW145748   8.315   7.676   2.784  0.1971 -1.0377  2.3127
13944SOL    HW245749   8.227   7.790   2.832 -0.2049 -0.2550 -0.1323
13945SOL     OW45750   9.005   9.547   2.598 -0.1244  0.2629 -0.1011
13945SOL    HW145751   9.031   9.639   2.598  1.1106 -0.0605 -0.7904
13945SOL    HW245752   8.968   9.531   2.511 -1.2649  0.3347  0.3539
13946SOL     OW45753   6.046   6.654   2.625 -0.9612  0.8940 -0.2009
13946SOL    HW145754   6.085   6.662   2.538  0.2037 -2.3196 -0.1073
13946SOL    HW245755   5.952   6.665   2.610 -0.8008  0.2153 -1.9232
13947SOL     OW45756   1.426   7.719   1.921  0.0964  0.2167  0.0841
13947SOL    HW145757   1.387   7.807   1.919  0.1163  0.2206 -0.2621
13947SOL    HW245758   1.358   7.661   1.888  0.2452  0.1705 -0.1476
13948SOL     OW45759   0.807   0.051   9.665  0.2830  0.4122  0.1736
13948SOL    HW145760   0.779  -0.014   9.601  0.5906 -0.9752  1.3832
13948SOL    HW245761   0.811   0.003   9.748 -0.8909  2.3175  1.4131
13949SOL     OW45762   8.178   5.914   9.794 -0.2151 -0.7707 -0.0606
13949SOL    HW145763   8.170   5.939   9.703 -1.1596 -0.9703 -0.0385
13949SOL    HW245764   8.273   5.912   9.810 -0.0637  0.1734 -0.7668
13950SOL     OW45765   6.083   9.528   3.744  0.1929  0.4920 -0.1395
13950SOL    HW145766   6.116   9.586   3.812  4.0302 -1.6140  0.0378
13950SOL    HW245767   6.124   9.559   3.664  0.2229 -0.4117 -0.4834
13951SOL     OW45768   3.830   2.725   9.282  0.0569 -0.2795  0.0640
13951SOL    HW145769   3.857   2.690   9.197  2.3583 -1.5793  1.2480
13951SOL    HW245770   3.754   2.671   9.307 -1.3034  0.7883 -1.5451
13952SOL     OW45771   3.360   3.474   7.898  0.1614 -0.1259  0.0313
13952SOL    HW145772   3.285   3.525   7.927  1.1888 -0.1607  3.1042
13952SOL    HW245773   3.435   3.533   7.908  0.8705 -0.9202 -0.4297
13953SOL     OW45774   0.874   7.461   3.435  0.1784 -0.2606  0.3648
13953SOL    HW145775   0.875   7.388   3.373  0.4803 -1.3620  1.6128
13953SOL    HW245776   0.930   7.432   3.507 -0.1897  0.9635  1.1792
13954SOL     OW45777   3.809   9.636   3.005  0.9105  0.0699  0.0984
13954SOL    HW145778   3.718   9.619   3.029  0.6411 -2.2249 -2.1558
13954SOL    HW245779   3.860   9.598   3.076  0.1384  0.2962  0.7949
13955SOL     OW45780   2.568   3.905   4.179 -0.4427 -0.3062 -0.3669
13955SOL    HW145781   2.661   3.929   4.182 -0.2620 -0.3831 -2.8747
13955SOL    HW245782   2.534   3.930   4.265  1.4976  1.3638  0.0052
13956SOL     OW45783   3.617   1.862   9.817  0.4900 -0.0161 -0.1854
13956SOL    HW145784   3.606   1.784   9.872  0.3717 -0.2784 -0.5772
13956SOL    HW245785   3.529   1.899   9.811  0.5523  0.1763  0.0310
13957SOL     OW45786   6.421   9.273   6.860  0.1351 -0.0302  0.0740
13957SOL    HW145787   6.474   9.250   6.936 -0.0374  1.5353  0.7188
13957SOL    HW245788   6.484   9.291   6.791  0.3700  0.0308  0.3029
13958SOL     OW45789   7.440   0.459   8.134  0.5172  0.1235  0.2360
13958SOL    HW145790   7.365   0.490   8.084  1.0936  1.0405 -0.0692
13958SOL    HW245791   7.474   0.536   8.177  1.1568 -0.3280  0.5509
13959SOL     OW45792   0.269   4.428   3.514 -0.0483 -0.0036 -0.1994
13959SOL    HW145793   0.192   4.458   3.467  0.0708  0.0156 -0.3821
13959SOL    HW245794   0.324   4.506   3.522 -0.3085  0.1224  0.4485
13960SOL     OW45795   4.450   2.718   1.356 -0.2692  0.1883 -0.2533
13960SOL    HW145796   4.442   2.626   1.333  0.8249  0.3305 -1.2962
13960SOL    HW245797   4.421   2.765   1.278  1.1519  0.6974 -0.5063
13961SOL     OW45798   4.811   8.491   0.009  0.3570  0.4361  0.2228
13961SOL    HW145799   4.878   8.557  -0.007 -0.1446  1.3412  1.6305
13961SOL    HW245800   4.732   8.541   0.028 -0.0468 -0.5587  1.3103
13962SOL     OW45801   1.416   5.697   0.188 -0.1067  0.2703 -0.4642
13962SOL    HW145802   1.468   5.618   0.204  0.3039  0.2672 -1.7508
13962SOL    HW245803   1.455   5.763   0.246  0.3358 -0.1344 -0.2923
13963SOL     OW45804   1.721   3.714   1.643  0.1463  0.1248 -0.0145
13963SOL    HW145805   1.812   3.715   1.673  0.2699 -0.5106 -0.3577
13963SOL    HW245806   1.727   3.719   1.547 -0.2442  2.2037  0.0148
13964SOL     OW45807   3.803   0.979   3.928  0.3983  0.8203 -0.3672
13964SOL    HW145808   3.897   0.961   3.925  0.0044 -2.3029  1.2085
13964SOL    HW245809   3.790   1.025   4.011  0.4310  0.0510  0.0768
13965SOL     OW45810   8.559   2.303   6.362  0.1836  0.9057  0.2550
13965SOL    HW145811   8.646   2.264   6.370 -0.4253 -0.3991  0.9057
13965SOL    HW245812   8.499   2.233   6.389 -1.0660  1.7937 -0.1141
13966SOL     OW45813   3.247   1.140   2.638 -0.2642 -0.7593  0.0687
13966SOL    HW145814   3.280   1.059   2.676 -0.5066 -0.2324  1.5058
13966SOL    HW245815   3.152   1.128   2.633 -0.4657 -0.0879  1.6175
13967SOL     OW45816   9.536   1.303   7.323  0.2822 -0.2945  0.0881
13967SOL    HW145817   9.627   1.275   7.314  0.6587  0.5746  0.9721
13967SOL    HW245818   9.527   1.328   7.415 -0.5662  0.5511 -0.1996
13968SOL     OW45819   7.960   9.443   3.427 -0.1866  0.5900  0.5425
13968SOL    HW145820   7.963   9.389   3.506 -2.1903 -1.9644 -1.0048
13968SOL    HW245821   7.892   9.508   3.445 -0.2156  0.4098  1.1083
13969SOL     OW45822   0.147   9.304   0.095  0.2126  0.1012 -0.1892
13969SOL    HW145823   0.143   9.213   0.067 -2.5808 -0.2289  1.0330
13969SOL    HW245824   0.068   9.345   0.060  0.6877  1.6972  0.4792
13970SOL     OW45825   2.227   6.032   2.993  0.4502 -0.0808 -0.2450
13970SOL    HW145826   2.300   6.033   3.055  0.4121 -0.4768 -0.1872
13970SOL    HW245827   2.254   6.090   2.922  0.1517  1.0330  0.5222
13971SOL     OW45828   2.103   6.905   7.103  0.2507 -0.0931  0.2019
13971SOL    HW145829   2.084   6.825   7.054  1.5740 -0.2670 -0.0874
13971SOL    HW245830   2.139   6.965   7.037  0.2069  0.3740  0.5991
13972SOL     OW45831   5.590   1.925   1.603 -0.8468  0.2852  0.3227
13972SOL    HW145832   5.672   1.967   1.577 -1.7657  1.2585 -1.1453
13972SOL    HW245833   5.585   1.846   1.549 -0.9375  0.3014  0.3068
13973SOL     OW45834   3.758   3.716   1.068  0.0375  0.4425  0.5719
13973SOL    HW145835   3.820   3.777   1.030  0.7500  0.5199  1.8264
13973SOL    HW245836   3.791   3.629   1.043 -0.1819  0.5176  0.0014
13974SOL     OW45837   3.950   5.431   4.682  0.6380 -0.0701 -0.3472
13974SOL    HW145838   3.951   5.376   4.760  3.1101 -1.5975 -1.3365
13974SOL    HW245839   3.997   5.510   4.707  0.8920 -0.2902 -0.1256
13975SOL     OW45840   1.976   7.180   7.463  0.4675  0.1528  0.3155
13975SOL    HW145841   1.897   7.200   7.513  0.5761  1.4449  0.0240
13975SOL    HW245842   1.993   7.088   7.480 -1.4853 -0.3289 -0.1724
13976SOL     OW45843   3.653   8.368   5.944  0.4123 -0.3135 -0.2692
13976SOL    HW145844   3.620   8.454   5.969  1.9765  0.5394 -1.0264
13976SOL    HW245845   3.680   8.327   6.026 -1.9210 -0.8298  0.3126
13977SOL     OW45846   7.793   3.072   6.982 -0.2944  0.3005  0.2237
13977SOL    HW145847   7.791   2.989   6.933 -0.7987  0.7798 -0.6042
13977SOL    HW245848   7.718   3.122   6.947 -0.3390  0.8792  1.1155
13978SOL     OW45849   2.442   0.734   9.999 -0.0075 -0.1473 -0.4718
13978SOL    HW145850   2.400   0.659  10.040  1.1122 -1.1898 -1.1603
13978SOL    HW245851   2.527   0.701   9.969  0.6681  1.4811 -0.4783
13979SOL     OW45852  10.169   2.616   9.214  0.6223  0.2039 -0.1741
13979SOL    HW145853  10.122   2.594   9.294  0.4715 -2.1906 -0.8519
13979SOL    HW245854  10.236   2.679   9.241 -0.5919  0.8494  1.4619
13980SOL     OW45855   5.425   9.093   8.406 -0.5793  0.0990 -0.6771
13980SOL    HW145856   5.392   9.010   8.374  2.1507 -0.3216 -2.7617
13980SOL    HW245857   5.414   9.154   8.333  0.8126  0.5709 -0.5286
13981SOL     OW45858   8.217   9.357   5.926  0.1586 -0.3753  1.0389
13981SOL    HW145859   8.134   9.329   5.887 -0.3436 -0.8165  2.4025
13981SOL    HW245860   8.280   9.349   5.854 -0.9545 -0.0281 -0.0262
13982SOL     OW45861   0.148   8.631   7.024 -0.1716  0.6193 -0.3132
13982SOL    HW145862   0.090   8.605   6.952 -0.8399  0.8944  0.1127
13982SOL    HW245863   0.113   8.585   7.101  0.0430  0.9564 -0.0076
13983SOL     OW45864   5.402   5.108   7.893 -0.6373 -0.6364  0.0492
13983SOL    HW145865   5.410   5.077   7.983  1.6741 -1.9246 -0.5317
13983SOL    HW245866   5.397   5.029   7.840  1.8943 -0.0952 -1.1921
13984SOL     OW45867   8.987   9.898   8.399  0.3806  0.4432  0.3527
13984SOL    HW145868   8.960   9.984   8.432 -1.1451  0.3984 -0.6452
13984SOL    HW245869   8.946   9.892   8.312 -1.5861 -2.1936  1.3050
13985SOL     OW45870   4.211   3.849   9.939 -0.3329  0.2693  0.2174
13985SOL    HW145871   4.242   3.771   9.892  1.9324  0.2778  1.5735
13985SOL    HW245872   4.132   3.819   9.984  0.7620 -1.4210  1.1095
13986SOL     OW45873   7.488   1.376   5.156  0.0015  0.5213 -0.3719
13986SOL    HW145874   7.395   1.359   5.170  0.2081  0.8024  1.6892
13986SOL    HW245875   7.529   1.358   5.241  1.9572 -0.3122 -1.4109
13987SOL     OW45876   6.852   5.519   7.390  0.1053  0.4904  0.0931
13987SOL    HW145877   6.786   5.576   7.431  0.8355  3.1749 -2.1252
13987SOL    HW245878   6.928   5.576   7.377  1.4483 -1.4353 -0.9602
13988SOL     OW45879   5.996   2.591   0.465  0.5376 -0.0864 -0.1456
13988SOL    HW145880   5.982   2.660   0.530  0.1219 -0.2952 -0.0075
13988SOL    HW245881   6.091   2.590   0.451  0.5465  0.5252 -0.1668
13989SOL     OW45882   4.226   2.489   1.653 -0.2362 -0.7642  0.2935
13989SOL    HW145883   4.235   2.512   1.745 -0.2141 -1.3056  0.4304
13989SOL    HW245884   4.303   2.435   1.634  1.0857  1.3397 -0.6888
13990SOL     OW45885   4.423   8.034   0.505 -0.5219  0.6357 -0.1950
13990SOL    HW145886   4.417   8.046   0.410  2.0344 -0.5905 -0.6042
13990SOL    HW245887   4.517   8.028   0.523 -0.9647 -0.5657  2.2268
13991SOL     OW45888   5.936   5.199   7.782  0.2504 -0.1021  0.0385
13991SOL    HW145889   5.972   5.288   7.783  0.6786 -0.1987 -2.2603
13991SOL    HW245890   5.843   5.211   7.764  0.3932 -0.1246 -0.7377
13992SOL     OW45891   2.761   2.600   8.037  0.0263  0.0764  0.5496
13992SOL    HW145892   2.763   2.696   8.035  1.0749  0.0602 -0.3910
13992SOL    HW245893   2.677   2.576   7.998 -1.0834  0.6167  2.4993
13993SOL     OW45894   4.970   3.316   9.634  0.0297 -0.0962  0.0215
13993SOL    HW145895   4.883   3.297   9.669  0.0117 -2.8192 -1.2879
13993SOL    HW245896   4.990   3.243   9.576  2.1400  1.7180 -1.7427
13994SOL     OW45897   2.464   8.037   6.245  0.5565  0.1076 -0.1801
13994SOL    HW145898   2.558   8.026   6.258  0.4541  0.5634  1.0778
13994SOL    HW245899   2.448   8.002   6.158  1.9669  0.4734 -0.6190
13995SOL     OW45900   5.698   9.601   4.751  0.3445 -0.2205  0.4727
13995SOL    HW145901   5.647   9.606   4.670  3.0297  0.0426 -1.3366
13995SOL    HW245902   5.700   9.508   4.772 -0.1565 -0.3257  0.0845
13996SOL     OW45903   0.438   5.976   5.580  0.0051  0.0576 -0.1004
13996SOL    HW145904   0.399   5.926   5.509  0.3924  0.8276 -0.8715
13996SOL    HW245905   0.507   5.918   5.614 -0.9747 -0.8067  0.4722
13997SOL     OW45906   5.632   9.120   6.548  0.1005  0.3614  0.0247
13997SOL    HW145907   5.539   9.128   6.528 -0.7063 -3.0702  1.6333
13997SOL    HW245908   5.672   9.092   6.465 -0.6754 -0.1088 -0.2029
13998SOL     OW45909   0.994   3.350   3.938 -0.5068  0.0693 -0.0316
13998SOL    HW145910   0.966   3.258   3.941  0.7144 -0.3860 -1.2061
13998SOL    HW245911   1.089   3.344   3.925 -0.4725  1.5101 -0.5088
13999SOL     OW45912   6.631   5.075   0.133  0.5004 -0.7076 -0.5332
13999SOL    HW145913   6.559   5.084   0.071 -0.1361  0.8874  0.3867
13999SOL    HW245914   6.595   5.022   0.204 -0.0678  0.7941  0.3254
14000SOL     OW45915   3.284   3.094   4.261  0.4068  0.1749 -0.0812
14000SOL    HW145916   3.369   3.121   4.227  0.1679  0.4677 -0.4615
14000SOL    HW245917   3.240   3.052   4.187  0.4151 -0.4250  0.2554
14001SOL     OW45918   2.276   0.019   3.766  0.4326 -0.0525 -0.1814
14001SOL    HW145919   2.344   0.059   3.712  0.8989 -0.6328 -0.0375
14001SOL    HW245920   2.255   0.085   3.832  0.7442  0.1851 -0.3191
14002SOL     OW45921   3.173   5.695   1.733 -0.0342  0.0671 -0.8215
14002SOL    HW145922   3.196   5.672   1.642  1.4729 -0.1252 -0.4191
14002SOL    HW245923   3.120   5.774   1.725 -2.6858 -1.6637 -2.0506
14003SOL     OW45924   7.503   1.459   7.304  0.1449 -0.5334  0.6106
14003SOL    HW145925   7.537   1.549   7.299 -0.7974 -0.0193  2.2874
14003SOL    HW245926   7.565   1.414   7.361  0.2160 -0.7275  0.3762
14004SOL     OW45927   8.058   2.965   9.320  0.1314  0.3760 -0.0693
14004SOL    HW145928   8.052   2.925   9.233  1.2923  0.7731 -0.3486
14004SOL    HW245929   8.146   3.002   9.324  0.2078  0.1173  1.3932
14005SOL     OW45930   2.681  10.196   4.965  0.1659  0.2933 -0.4123
14005SOL    HW145931   2.697  10.109   4.931  0.4097  0.4129 -0.6104
14005SOL    HW245932   2.768  10.230   4.986  0.2451  1.1172 -1.8912
14006SOL     OW45933  10.001   1.111   5.618 -0.1436  0.2522 -0.1833
14006SOL    HW145934  10.035   1.105   5.708  1.1997  1.5349 -0.5659
14006SOL    HW245935   9.913   1.075   5.623 -0.5563  1.4008  1.9239
14007SOL     OW45936   7.559   7.998   6.243  0.0664  0.0371  0.4781
14007SOL    HW145937   7.617   7.924   6.259 -0.8993 -0.7060  0.6641
14007SOL    HW245938   7.606   8.073   6.278  0.2796 -0.7691  2.0120
14008SOL     OW45939   6.977   6.549   4.127  0.1396  0.3366  0.0793
14008SOL    HW145940   7.003   6.486   4.060  0.3651 -0.6509  1.0607
14008SOL    HW245941   6.953   6.495   4.202  0.7501  1.4385  1.0996
14009SOL     OW45942   6.920   0.463   8.877 -0.0353 -0.3367  0.1315
14009SOL    HW145943   6.894   0.430   8.791 -0.3860  1.4255 -0.4914
14009SOL    HW245944   6.938   0.385   8.929 -4.1102 -1.7057 -0.1331
14010SOL     OW45945   5.486   4.808   2.751  0.5063 -0.2337 -0.2109
14010SOL    HW145946   5.509   4.900   2.762 -0.9597  0.4176 -2.1086
14010SOL    HW245947   5.525   4.783   2.667  1.0217 -1.4131  0.3558
14011SOL     OW45948   9.050   7.160   1.531 -0.2747  0.3528  0.0621
14011SOL    HW145949   9.128   7.122   1.490 -0.2571 -1.3969  1.6010
14011SOL    HW245950   9.013   7.216   1.463 -0.6021 -2.8340 -2.6441
14012SOL     OW45951   2.386   7.921   3.214 -0.2852 -0.1001  0.1906
14012SOL    HW145952   2.292   7.936   3.206 -0.2732 -0.1018  0.0321
14012SOL    HW245953   2.410   7.960   3.297 -0.2053  0.9908 -0.3272
14013SOL     OW45954   7.253   9.327   1.790  0.4542 -0.1900  0.2128
14013SOL    HW145955   7.269   9.303   1.881  0.2783 -0.9682  0.0452
14013SOL    HW245956   7.203   9.254   1.754 -1.5413  1.1344  0.1151
14014SOL     OW45957   5.820   9.709   9.711 -0.3462 -0.2106 -0.2186
14014SOL    HW145958   5.911   9.679   9.716 -0.3842 -0.3616 -0.4425
14014SOL    HW245959   5.768   9.629   9.711 -0.5512 -0.1191  1.2875
14015SOL     OW45960   2.678   3.362   1.983  0.1888 -0.0940  0.7709
14015SOL    HW145961   2.661   3.380   2.075 -1.5465  2.0181  0.1265
14015SOL    HW245962   2.595   3.329   1.949  0.8692 -1.0537 -0.0000
14016SOL     OW45963   0.469   0.777   7.244  0.3481  0.0857  0.1904
14016SOL    HW145964   0.465   0.863   7.286  0.9029  0.4595 -0.4984
14016SOL    HW245965   0.559   0.771   7.211  0.5318 -1.0570  0.8311
14017SOL     OW45966   5.398   7.490   8.037  0.4447  0.0586  0.1196
14017SOL    HW145967   5.422   7.403   8.072  1.2052 -0.1125 -0.7886
14017SOL    HW245968   5.314   7.509   8.078  1.3075 -0.1003  2.1103
14018SOL     OW45969   5.412   2.028   1.323  0.8215 -0.1186  0.0766
14018SOL    HW145970   5.401   2.052   1.415  1.4994 -2.6256  0.8902
14018SOL    HW245971   5.322   2.016   1.291  0.6069 -0.5854  0.8203
14019SOL     OW45972   9.801   9.680   0.514 -0.2141  0.0577 -0.1967
14019SOL    HW145973   9.799   9.644   0.425  1.2026  1.0700 -0.6866
14019SOL    HW245974   9.861   9.623   0.562 -0.5466 -0.1633 -0.0411
14020SOL     OW45975   7.111   5.586   5.103 -0.4145  0.1597  0.2674
14020SOL    HW145976   7.127   5.641   5.180 -2.7171 -0.9655  1.6708
14020SOL    HW245977   7.169   5.511   5.115  1.2125  1.2319 -0.5689
14021SOL     OW45978   9.978   8.049   0.590  0.1677 -0.3851 -0.2626
14021SOL    HW145979   9.925   7.985   0.541  0.4848 -0.7280 -0.1622
14021SOL    HW245980   9.976   8.128   0.537  0.2960 -0.6762 -0.7051
14022SOL     OW45981   2.184   0.613   7.019 -0.3570 -0.1026  0.1247
14022SOL    HW145982   2.213   0.596   6.929 -0.1787 -0.7374  0.3003
14022SOL    HW245983   2.245   0.679   7.052 -0.7896  0.5754 -0.4178
14023SOL     OW45984   8.702   1.350   2.734 -0.0577  0.5363  0.5831
14023SOL    HW145985   8.659   1.406   2.669  0.5265  0.5727  0.2253
14023SOL    HW245986   8.711   1.406   2.811 -0.4183  0.6074  0.5775
14024SOL     OW45987  10.164   8.196   1.592 -0.0667 -0.3038 -0.3255
14024SOL    HW145988  10.098   8.193   1.522  0.3985 -0.6405 -0.7576
14024SOL    HW245989  10.248   8.195   1.545  0.2672  1.4059  0.1487
14025SOL     OW45990   6.765   5.498   3.937 -0.3008  0.6780 -0.9149
14025SOL    HW145991   6.851   5.498   3.978 -0.5081 -1.4763 -0.3665
14025SOL    HW245992   6.783   5.515   3.844  0.6577  0.6711 -0.7384
14026SOL     OW45993   7.155  10.037   4.562 -0.3024 -0.0073 -0.5598
14026SOL    HW145994   7.164  10.041   4.657  2.2560  0.0061 -0.7438
14026SOL    HW245995   7.176   9.946   4.540 -1.9124 -0.2872 -1.0685
14027SOL     OW45996   4.667   0.022   7.114 -0.4222  0.2292 -0.2577
14027SOL    HW145997   4.735   0.081   7.144  0.4678 -0.2088 -1.3670
14027SOL    HW245998   4.627   0.066   7.039  0.9048 -0.9370 -1.7222
14028SOL     OW45999   2.524   5.029   7.216 -0.4294 -0.2528  0.0214
14028SOL    HW146000   2.490   5.118   7.208 -0.9730 -0.5451 -1.0039
14028SOL    HW246001   2.591   5.036   7.284 -0.4308  0.9452 -0.0695
14029SOL     OW46002   5.655   7.187   4.471 -0.9007  0.2102  0.2203
14029SOL    HW146003   5.684   7.230   4.391 -0.1214  0.6759  0.7313
14029SOL    HW246004   5.690   7.243   4.541  2.8016 -2.7387  1.0385
14030SOL     OW46005   3.461   7.391   6.490 -0.2915  0.1882  0.0802
14030SOL    HW146006   3.504   7.465   6.533  0.6476 -1.1396  1.5409
14030SOL    HW246007   3.383   7.373   6.542  0.6112 -1.1452  1.0370
14031SOL     OW46008   3.389   9.364   2.010 -0.0851 -0.0899 -0.2218
14031SOL    HW146009   3.437   9.445   2.028 -1.7046  0.8578  0.0685
14031SOL    HW246010   3.445   9.315   1.950  1.4878  0.6732  0.5717
14032SOL     OW46011   1.178   1.079   5.157 -0.0161 -0.5344  0.3688
14032SOL    HW146012   1.235   1.118   5.091  1.1782 -1.1766  1.0055
14032SOL    HW246013   1.101   1.049   5.107 -0.9346  2.3987 -0.1806
14033SOL     OW46014   6.928   9.780   0.567 -0.2281 -0.1065  0.2647
14033SOL    HW146015   6.992   9.768   0.497 -0.2989 -1.4070  0.4139
14033SOL    HW246016   6.917   9.693   0.605 -0.1233  0.5821  1.9607
14034SOL     OW46017   0.453   1.107   4.151  0.6495  0.1326 -0.1068
14034SOL    HW146018   0.466   1.129   4.244 -0.4516  1.0077 -0.1457
14034SOL    HW246019   0.406   1.024   4.153  0.5386  0.1984  0.1276
14035SOL     OW46020   1.358   3.632   2.329  0.0034 -0.2928 -0.1057
14035SOL    HW146021   1.416   3.575   2.277 -0.6455 -1.3229  0.2601
14035SOL    HW246022   1.340   3.706   2.271  0.1226 -0.9133 -0.9648
14036SOL     OW46023   9.864   6.101   3.067 -0.3235  0.4414  0.5209
14036SOL    HW146024   9.795   6.062   3.122  0.1489  0.2114  0.9594
14036SOL    HW246025   9.929   6.131   3.130 -1.0723  2.7735  0.2827
14037SOL     OW46026   6.351   3.896   6.697  0.5743  0.0519 -0.5280
14037SOL    HW146027   6.431   3.929   6.738  0.4606 -0.2144 -0.0799
14037SOL    HW246028   6.293   3.973   6.693 -0.5046 -0.4502  2.4859
14038SOL     OW46029  10.048   6.133   1.968 -0.2233  0.0182 -0.0550
14038SOL    HW146030  10.059   6.042   1.997 -2.3053  0.1614  1.4285
14038SOL    HW246031  10.094   6.185   2.034 -0.3933  0.1078 -0.0059
14039SOL     OW46032   7.155   3.392   5.930 -0.0274 -0.1092 -0.3259
14039SOL    HW146033   7.151   3.468   5.871 -2.7012 -1.9340 -2.7924
14039SOL    HW246034   7.248   3.379   5.946  0.6670  1.9600 -2.1945
14040SOL     OW46035   8.697   3.938   5.852 -0.1569  0.2638  0.2412
14040SOL    HW146036   8.760   4.009   5.844 -2.4487  2.4092  0.0255
14040SOL    HW246037   8.719   3.877   5.781  1.3906  1.1140 -0.0460
14041SOL     OW46038   4.947   9.924   5.525 -0.4874  0.3396  0.1043
14041SOL    HW146039   5.039   9.901   5.508 -0.3681  0.4905  0.5319
14041SOL    HW246040   4.948   9.961   5.613 -1.0780 -0.3452  0.4100
14042SOL     OW46041   8.862   4.133   5.779  0.3350 -0.7012 -0.4342
14042SOL    HW146042   8.822   4.146   5.692  1.6337 -0.6781 -1.0587
14042SOL    HW246043   8.840   4.213   5.827 -0.1117 -0.5580 -0.8630
14043SOL     OW46044   2.333   4.221   3.640 -0.2998 -0.4279  0.1360
14043SOL    HW146045   2.383   4.247   3.563 -0.2103 -1.2500 -0.0913
14043SOL    HW246046   2.273   4.153   3.608  0.5190 -1.5853  1.0032
14044SOL     OW46047   0.454   0.599   8.846  0.2649 -0.1388  0.4221
14044SOL    HW146048   0.441   0.505   8.862 -1.9739  0.2419  1.1551
14044SOL    HW246049   0.515   0.602   8.772 -0.5061 -2.1813 -0.3759
14045SOL     OW46050   0.988   2.826   7.124 -0.1303 -0.2907  0.0279
14045SOL    HW146051   0.967   2.734   7.140  1.1993 -0.5232  0.5336
14045SOL    HW246052   0.905   2.872   7.136 -0.2067 -1.0176  3.1209
14046SOL     OW46053   9.587   9.566   7.457 -0.7660 -0.8914  0.0128
14046SOL    HW146054   9.598   9.612   7.373 -0.9731 -3.8701 -1.7716
14046SOL    HW246055   9.640   9.617   7.518  1.1324  0.2531 -2.3756
14047SOL     OW46056   0.905   7.440   0.604 -0.6291  0.1480 -0.5987
14047SOL    HW146057   0.972   7.507   0.597 -1.2875  0.8154 -0.6013
14047SOL    HW246058   0.824   7.488   0.618 -1.1296 -0.6406 -0.7226
14048SOL     OW46059   4.046   1.858   7.643  0.3721  0.2225 -0.0486
14048SOL    HW146060   4.016   1.934   7.694  0.3870 -0.1656  0.5538
14048SOL    HW246061   4.109   1.894   7.581  1.3297  0.5451  1.0653
14049SOL     OW46062   9.375   7.029   6.249  0.2471 -0.4769  0.4426
14049SOL    HW146063   9.356   7.022   6.156  1.6467 -2.1856  0.2351
14049SOL    HW246064   9.471   7.032   6.254  0.1804  1.7274  1.7312
14050SOL     OW46065   5.999   3.612   0.842 -0.4439  0.2643 -0.6130
14050SOL    HW146066   6.094   3.618   0.850 -0.5293  0.4245  0.3748
14050SOL    HW246067   5.972   3.696   0.805 -0.2761  0.5577 -0.0792
14051SOL     OW46068   5.423   8.427   0.459 -0.2024  0.0273 -0.5075
14051SOL    HW146069   5.348   8.393   0.410  0.9663 -0.9719 -1.6713
14051SOL    HW246070   5.496   8.370   0.434  1.0457  1.2169  0.2757
14052SOL     OW46071   5.519   9.009   8.102  0.4080  0.2809  0.0032
14052SOL    HW146072   5.513   8.913   8.096 -0.7400  0.3858 -0.6935
14052SOL    HW246073   5.541   9.025   8.193 -1.4950 -0.5840  0.6681
14053SOL     OW46074   6.439   9.198   7.245  0.2143 -0.1434 -0.0452
14053SOL    HW146075   6.482   9.139   7.306  0.1725  0.4347  0.5584
14053SOL    HW246076   6.496   9.201   7.169  1.5152  0.9998  0.9331
14054SOL     OW46077   0.043   7.001   6.863  0.3160  0.3862  0.2568
14054SOL    HW146078   0.134   7.027   6.846  0.6002  0.1203  1.3114
14054SOL    HW246079   0.050   6.917   6.907 -0.4044  0.8148  1.2200
14055SOL     OW46080   6.321   1.899   1.401 -0.0132  0.3491 -0.1509
14055SOL    HW146081   6.405   1.894   1.355 -0.7853 -1.7424 -1.4456
14055SOL    HW246082   6.336   1.852   1.483  0.3391  0.8796  0.0970
14056SOL     OW46083   1.741   8.860   1.860  0.7628  0.3591  0.1677
14056SOL    HW146084   1.830   8.831   1.876  1.0692  1.4101  0.4926
14056SOL    HW246085   1.749   8.925   1.790  0.0584 -0.5957 -0.8254
14057SOL     OW46086   5.958   8.232   1.178  0.6177  0.4159  0.5563
14057SOL    HW146087   5.927   8.267   1.261  1.0288  0.5034  0.6746
14057SOL    HW246088   5.878   8.207   1.131  0.3025  1.6512  0.4036
14058SOL     OW46089   3.857   7.202   5.603  0.7099  0.1406  0.0797
14058SOL    HW146090   3.881   7.172   5.516  0.3456  0.9651 -0.3092
14058SOL    HW246091   3.763   7.216   5.599  0.2719 -1.9755  1.2741
14059SOL     OW46092   5.604   0.110   2.779 -0.1302 -0.1498  0.0713
14059SOL    HW146093   5.650   0.154   2.851 -1.2017 -0.8922  1.2513
14059SOL    HW246094   5.667   0.045   2.747  0.2626 -0.0029  0.5304
14060SOL     OW46095   5.686   2.910   1.579  0.7446  0.1319 -0.7815
14060SOL    HW146096   5.691   2.824   1.538  1.6021  0.3256 -1.1048
14060SOL    HW246097   5.772   2.922   1.620 -0.2332 -0.3142  1.6232
14061SOL     OW46098   2.209   3.621   3.775 -0.1010  0.5454 -0.4200
14061SOL    HW146099   2.128   3.572   3.788 -0.3341  1.0193 -0.0484
14061SOL    HW246100   2.259   3.568   3.713  0.3924 -1.0245  1.2343
14062SOL     OW46101   3.878   0.313   1.526  0.8980 -0.6143  0.7707
14062SOL    HW146102   3.785   0.334   1.520  1.0705  0.0175  0.1227
14062SOL    HW246103   3.917   0.354   1.448  1.5018 -2.0398  0.2699
14063SOL     OW46104   3.186   4.367  10.179  0.3142 -0.4130  0.0620
14063SOL    HW146105   3.254   4.343  10.116  0.1498  0.6495 -0.5502
14063SOL    HW246106   3.126   4.292  10.179 -0.6872  0.2788 -2.4820
14064SOL     OW46107   7.508   5.621   1.026  0.1864  0.2070  0.3393
14064SOL    HW146108   7.600   5.596   1.018  0.6190  1.4739  1.0184
14064SOL    HW246109   7.479   5.581   1.108  1.7599  4.1475  3.1340
14065SOL     OW46110   5.690   8.364   7.702 -0.8301 -0.7246  0.3219
14065SOL    HW146111   5.695   8.354   7.607 -0.8782 -0.7862  0.3260
14065SOL    HW246112   5.716   8.279   7.737 -1.9528 -1.0811  0.3434
14066SOL     OW46113   0.486   0.574   9.448  0.6962 -0.3830 -0.0166
14066SOL    HW146114   0.452   0.543   9.532  0.1201  1.7682  0.6034
14066SOL    HW246115   0.520   0.661   9.467  0.2529  0.2824 -2.0793
14067SOL     OW46116   3.151   5.166   5.403  0.2072  0.2032  0.0285
14067SOL    HW146117   3.123   5.109   5.332  0.5363 -0.0705  0.1162
14067SOL    HW246118   3.247   5.158   5.404  0.2594  0.7690  0.0311
14068SOL     OW46119   1.431   8.364   5.960  0.1775 -0.1351  0.3443
14068SOL    HW146120   1.385   8.349   6.042 -0.0674 -0.7442  0.1035
14068SOL    HW246121   1.482   8.444   5.975  0.6468 -0.5989  1.3068
14069SOL     OW46122   9.031   7.942   1.339  0.0757  0.0399  0.8033
14069SOL    HW146123   8.987   7.874   1.390 -3.9897 -1.2304 -3.6441
14069SOL    HW246124   8.971   8.017   1.343  0.1199  0.2312 -1.0816
14070SOL     OW46125   3.243   6.110   8.092  0.7592  0.4178  0.0627
14070SOL    HW146126   3.151   6.087   8.086  1.1697 -1.2954 -0.2078
14070SOL    HW246127   3.282   6.040   8.145  1.8462  1.3217  0.5106
14071SOL     OW46128   3.502   4.713   2.340 -0.3632 -0.3689 -0.1643
14071SOL    HW146129   3.515   4.761   2.259  0.2890  1.1041  0.7647
14071SOL    HW246130   3.477   4.625   2.313  0.6884 -0.1484 -1.9542
14072SOL     OW46131   2.146   2.376   1.742  0.0747 -0.4021  0.1104
14072SOL    HW146132   2.115   2.462   1.715 -0.1818 -0.1857  1.0597
14072SOL    HW246133   2.234   2.391   1.776  0.1638 -0.5665 -0.0500
14073SOL     OW46134   9.441   5.904   2.550 -0.4798 -0.2146 -0.0027
14073SOL    HW146135   9.460   5.817   2.514  1.0640 -0.0958  0.4555
14073SOL    HW246136   9.444   5.963   2.474 -3.2541 -0.7227 -0.6225
14074SOL     OW46137   1.042   0.182   2.363 -0.3641  0.6557 -0.0418
14074SOL    HW146138   1.004   0.121   2.299  1.2254  1.6262 -2.0346
14074SOL    HW246139   1.008   0.268   2.336 -0.6442  0.9531  1.2149
14075SOL     OW46140   2.892   9.683   2.266  0.0588  0.0171 -0.9041
14075SOL    HW146141   2.941   9.753   2.309 -3.2300  2.0952 -0.1876
14075SOL    HW246142   2.904   9.699   2.172  0.7450  0.4674 -0.7440
14076SOL     OW46143   4.518   5.185  10.086  0.0172 -0.0566 -0.5144
14076SOL    HW146144   4.605   5.159  10.117 -0.1772 -0.5335 -0.3578
14076SOL    HW246145   4.530   5.274  10.053  0.5052 -0.0134 -0.2360
14077SOL     OW46146   7.881   9.651   2.682  0.1013  0.7351 -0.8453
14077SOL    HW146147   7.915   9.667   2.594  2.1637  0.6302 -0.1409
14077SOL    HW246148   7.954   9.609   2.728 -1.9690 -2.1331  0.0557
14078SOL     OW46149   1.140   0.671   3.157  0.4531  0.0689 -0.2109
14078SOL    HW146150   1.059   0.693   3.201 -0.4244 -1.3021 -1.0699
14078SOL    HW246151   1.205   0.665   3.227 -0.7098 -1.2461  0.7978
14079SOL     OW46152   0.501   5.183   9.480  0.0317  0.3233 -0.0452
14079SOL    HW146153   0.411   5.159   9.502  0.3936  0.4913  1.8512
14079SOL    HW246154   0.554   5.121   9.529  0.9506  1.3430  0.2868
14080SOL     OW46155   4.158   4.806   1.136  0.1082 -0.5396  0.3863
14080SOL    HW146156   4.242   4.833   1.099  0.4594 -0.3558  1.2889
14080SOL    HW246157   4.179   4.780   1.226 -0.4592 -2.4081  0.0376
14081SOL     OW46158   4.615   5.236   3.168  0.1090  0.1178 -0.0117
14081SOL    HW146159   4.703   5.198   3.171 -0.0477 -0.2182  0.3762
14081SOL    HW246160   4.607   5.272   3.080  0.8118  0.5662  0.0986
14082SOL     OW46161   8.724   9.637   6.159  0.5816 -0.4308 -0.4885
14082SOL    HW146162   8.704   9.596   6.075  0.0483 -0.0109 -0.5766
14082SOL    HW246163   8.640   9.673   6.189  0.5911 -1.2782  0.6162
14083SOL     OW46164   8.647   3.896   2.794  0.1688 -0.5865 -0.2259
14083SOL    HW146165   8.563   3.941   2.797  0.0682 -0.6716 -1.3722
14083SOL    HW246166   8.662   3.867   2.884 -0.8547 -0.2595  0.0632
14084SOL     OW46167   6.646   1.634   6.958  0.1032 -0.2426  0.3452
14084SOL    HW146168   6.596   1.578   6.899 -0.7900  0.4836  0.3898
14084SOL    HW246169   6.647   1.588   7.041  0.7231 -0.9166 -0.0174
14085SOL     OW46170   3.232   5.352   7.604  0.4155 -0.4123 -0.3225
14085SOL    HW146171   3.157   5.312   7.561  0.6117 -0.8985 -0.2267
14085SOL    HW246172   3.222   5.446   7.589 -0.7049 -0.3880  0.4898
14086SOL     OW46173   5.039   5.097   9.293  0.0850  0.1996  0.7369
14086SOL    HW146174   4.967   5.158   9.277  1.5653  1.8934  0.2232
14086SOL    HW246175   4.996   5.013   9.307 -1.9028  0.5029 -2.4808
14087SOL     OW46176   2.112   9.169   9.226  0.0988  0.4558 -0.1186
14087SOL    HW146177   2.124   9.187   9.132 -0.5286  0.3461 -0.2263
14087SOL    HW246178   2.184   9.112   9.249  0.3707  0.6429 -0.4927
14088SOL     OW46179   5.604   9.849   1.891  0.3866 -0.2739 -0.0783
14088SOL    HW146180   5.634   9.887   1.808  1.4188 -1.3219 -0.2287
14088SOL    HW246181   5.539   9.784   1.865  0.3661 -0.2733 -0.0296
14089SOL     OW46182   6.073   5.506   0.579  0.6208 -0.5981  0.3548
14089SOL    HW146183   6.088   5.567   0.652  1.2004  0.5926 -0.7225
14089SOL    HW246184   6.103   5.421   0.612  0.1738 -0.2454  1.7496
14090SOL     OW46185   1.285   1.754   3.992 -0.1393 -0.2514  0.7691
14090SOL    HW146186   1.327   1.688   3.937 -0.3762  1.6486 -1.8627
14090SOL    HW246187   1.357   1.797   4.038  0.4796  0.4333 -0.7820
14091SOL     OW46188   9.110   0.626   4.685 -0.0085 -0.3710  0.0960
14091SOL    HW146189   9.152   0.585   4.609  1.3203 -0.0102  0.6075
14091SOL    HW246190   9.064   0.554   4.728  0.3479 -0.8491 -0.3072
14092SOL     OW46191   7.614   6.534   9.888 -0.2251 -0.0861  0.6445
14092SOL    HW146192   7.639   6.441   9.894 -0.5557 -0.2382 -0.1751
14092SOL    HW246193   7.569   6.541   9.804  1.2105  1.1558 -0.0610
14093SOL     OW46194   6.704   1.989   1.677 -0.1835 -0.0411  0.1991
14093SOL    HW146195   6.731   1.936   1.603 -0.9194 -0.8289  0.4810
14093SOL    HW246196   6.678   1.926   1.744  0.0938  0.6582  0.9937
14094SOL     OW46197   3.252   2.539   0.269  0.2829  0.0694  0.1792
14094SOL    HW146198   3.240   2.470   0.203 -0.6697  0.5827 -0.2156
14094SOL    HW246199   3.176   2.529   0.327 -0.3276  1.2774 -0.3666
14095SOL     OW46200   8.342   6.968   9.601  0.0672 -0.3235 -0.0732
14095SOL    HW146201   8.425   6.922   9.591  0.4576  0.2782  0.2897
14095SOL    HW246202   8.364   7.047   9.651 -0.8115 -0.4093  0.4870
14096SOL     OW46203   8.548   8.172   0.123  0.6004 -0.1218 -0.0746
14096SOL    HW146204   8.594   8.096   0.087  1.6468  0.6848 -0.4813
14096SOL    HW246205   8.456   8.147   0.120  0.5890 -0.1666 -3.2649
14097SOL     OW46206   4.945   1.327   1.683  0.2384  0.2875 -0.1124
14097SOL    HW146207   4.861   1.286   1.704  0.2589  0.6570  0.7393
14097SOL    HW246208   4.964   1.383   1.758  1.3257  0.0949 -0.2199
14098SOL     OW46209   5.434   0.737   7.687  0.2277 -0.0717  0.0142
14098SOL    HW146210   5.379   0.813   7.706 -1.1264 -0.3594 -2.3747
14098SOL    HW246211   5.499   0.769   7.626  1.1505 -0.3253  0.8446
14099SOL     OW46212   5.448   5.500   8.155  0.1498  0.1841  0.6827
14099SOL    HW146213   5.389   5.442   8.203 -1.1289  1.4099  0.6446
14099SOL    HW246214   5.526   5.446   8.139 -0.8087 -1.3796  1.0115
14100SOL     OW46215   6.938   4.363   1.655  0.3831  0.5841  0.0882
14100SOL    HW146216   6.893   4.297   1.603 -0.6082  0.5478  0.9633
14100SOL    HW246217   7.031   4.341   1.647  0.4832  1.6932 -3.1594
14101SOL     OW46218   4.289   0.008   9.913 -0.2666 -0.2163  0.6473
14101SOL    HW146219   4.236  -0.054   9.864  1.1851 -0.4337 -0.7476
14101SOL    HW246220   4.300   0.082   9.854 -0.3379  0.5116  1.5283
14102SOL     OW46221   3.725   6.781   6.503  0.0778  0.8309 -0.0546
14102SOL    HW146222   3.744   6.701   6.553  0.3556  0.4102 -0.8216
14102SOL    HW246223   3.633   6.800   6.523  0.0112  0.3295  0.1490
14103SOL     OW46224   8.954   4.376   1.412 -0.1033  0.2552  0.4608
14103SOL    HW146225   8.980   4.462   1.378  0.0439 -0.8507 -2.4447
14103SOL    HW246226   8.859   4.375   1.405 -0.4931  1.3857  3.8170
14104SOL     OW46227   5.142   3.236   4.976  0.0979 -0.3845 -0.5702
14104SOL    HW146228   5.163   3.212   4.886 -0.2414 -1.6036 -0.3385
14104SOL    HW246229   5.226   3.238   5.022  0.3869  1.2145 -1.1184
14105SOL     OW46230   2.310   6.370   0.661 -0.1787  0.5234  0.4666
14105SOL    HW146231   2.342   6.421   0.735  0.9105 -0.4064  0.6779
14105SOL    HW246232   2.265   6.433   0.605  1.0154  1.6834  0.7692
14106SOL     OW46233   2.693   3.505   2.732 -0.1943 -0.1401  0.1885
14106SOL    HW146234   2.696   3.586   2.681  0.6708 -0.2207  0.1015
14106SOL    HW246235   2.614   3.460   2.702 -0.6945  0.6796  0.2561
14107SOL     OW46236   7.515   9.275   3.970 -0.6985  0.2564  0.3664
14107SOL    HW146237   7.557   9.357   3.941  0.1127 -0.0203  0.7122
14107SOL    HW246238   7.484   9.235   3.889 -0.1699  0.4112  0.0791
14108SOL     OW46239   8.001   9.653   3.920  0.1601 -0.1986  0.0727
14108SOL    HW146240   8.050   9.574   3.941 -0.3233 -0.2719  0.9777
14108SOL    HW246241   7.919   9.644   3.968  0.2782  1.0533  0.5364
14109SOL     OW46242   2.567   0.457   0.818 -0.3191  0.1032 -0.4941
14109SOL    HW146243   2.605   0.380   0.861 -1.6449 -0.5674 -0.4616
14109SOL    HW246244   2.571   0.437   0.724  0.4743  0.5544 -0.5618
14110SOL     OW46245   9.040   6.165   8.172 -0.8217 -0.2668  0.1937
14110SOL    HW146246   9.036   6.213   8.254 -0.9410 -1.4976  0.9361
14110SOL    HW246247   8.953   6.173   8.134 -0.8489  0.0591  0.3250
14111SOL     OW46248   2.292   9.044   8.633  0.1933  0.0874  0.1114
14111SOL    HW146249   2.202   9.025   8.661  0.0318 -0.4810 -0.7543
14111SOL    HW246250   2.283   9.070   8.541  0.7466  1.6056  0.4587
14112SOL     OW46251   4.707   6.925   7.187  0.1868  0.6705  0.5261
14112SOL    HW146252   4.713   6.831   7.205  0.3221  0.6790  0.5237
14112SOL    HW246253   4.614   6.940   7.166  0.2743  0.4408 -0.0361
14113SOL     OW46254   3.852  10.019   6.637  0.0955  0.5181 -0.4869
14113SOL    HW146255   3.780  10.040   6.696  0.0724 -0.1227 -0.2779
14113SOL    HW246256   3.915   9.973   6.692  0.5556  0.8627 -0.7255
14114SOL     OW46257   6.772   9.486   3.526 -0.3119  0.6912 -0.1035
14114SOL    HW146258   6.835   9.558   3.529 -0.1949  0.5961 -0.2706
14114SOL    HW246259   6.801   9.425   3.594  0.4537  0.0928 -0.9448
14115SOL     OW46260   7.480   5.509   1.292 -0.2826 -0.2274 -0.0816
14115SOL    HW146261   7.548   5.535   1.355 -0.0781  0.1985 -0.4739
14115SOL    HW246262   7.403   5.558   1.318  0.2511  1.2362 -1.1553
14116SOL     OW46263   5.607   1.913   7.630  0.6885  0.2212 -0.5568
14116SOL    HW146264   5.678   1.945   7.685 -0.2542  0.9248  0.2909
14116SOL    HW246265   5.633   1.825   7.605  1.3046  0.0187  0.7397
14117SOL     OW46266   8.746   8.124   9.235  0.7211  0.9553 -0.5350
14117SOL    HW146267   8.716   8.157   9.150  2.1193  0.2036 -1.3433
14117SOL    HW246268   8.824   8.176   9.254  0.3255  1.2284  0.3854
14118SOL     OW46269   5.098   4.614   1.682  0.0880 -0.7228  0.5568
14118SOL    HW146270   5.164   4.671   1.723 -0.1398 -0.1356  0.1306
14118SOL    HW246271   5.017   4.666   1.686  0.2412 -0.2547 -1.4312
14119SOL     OW46272   1.623   9.340   8.106  0.2190 -0.1173  0.1120
14119SOL    HW146273   1.584   9.356   8.020 -0.4565 -0.2780  0.3786
14119SOL    HW246274   1.549   9.338   8.166  0.6765 -0.0947  0.6879
14120SOL     OW46275   5.641   8.413   2.728 -0.3270  0.3173  0.2785
14120SOL    HW146276   5.735   8.413   2.744 -0.5878 -1.1787  2.0865
14120SOL    HW246277   5.612   8.501   2.751  0.1248 -0.2514  3.4973
14121SOL     OW46278   0.184   3.919   2.246 -0.0253 -0.1977  0.1648
14121SOL    HW146279   0.103   3.869   2.233 -0.5271  0.7920 -0.7221
14121SOL    HW246280   0.186   3.939   2.339  0.2302 -1.9050  0.5528
14122SOL     OW46281   2.329   5.612   2.067  0.8283  0.1913  0.1860
14122SOL    HW146282   2.395   5.602   2.135 -0.7054 -1.6872  1.5040
14122SOL    HW246283   2.262   5.547   2.088 -1.2970  1.7523 -1.2729
14123SOL     OW46284   1.192   2.322   9.918 -0.6724 -0.1529 -0.3413
14123SOL    HW146285   1.280   2.293   9.943 -2.1584 -2.3692  3.0987
14123SOL    HW246286   1.180   2.288   9.829  1.6283 -0.5442 -0.5558
14124SOL     OW46287   5.937   2.223   1.902 -0.1462  0.2294  0.3299
14124SOL    HW146288   5.993   2.186   1.833 -0.3175 -0.3215  0.4819
14124SOL    HW246289   5.848   2.214   1.869 -0.1904  0.5063  0.3713
14125SOL     OW46290   5.430   4.097   0.806  0.3528  0.2376 -0.4275
14125SOL    HW146291   5.417   4.192   0.796 -2.0832  0.4839  3.2477
14125SOL    HW246292   5.358   4.058   0.757 -0.2036  0.4350  0.2260
14126SOL     OW46293   6.905   1.675   6.188 -0.1269 -0.3204  0.0211
14126SOL    HW146294   6.959   1.622   6.246 -0.1407 -1.7610 -1.2451
14126SOL    HW246295   6.833   1.705   6.244  0.6096 -0.4908  1.0839
14127SOL     OW46296   5.020   0.543   0.646  0.5272 -0.0986  0.6360
14127SOL    HW146297   4.959   0.499   0.705 -0.2599 -0.9167 -0.7481
14127SOL    HW246298   4.976   0.542   0.561  1.6877  0.9434  0.0003
14128SOL     OW46299   4.588   2.439   8.023  0.1986  0.0862 -0.5763
14128SOL    HW146300   4.671   2.399   8.048  0.3383 -0.2742 -1.5686
14128SOL    HW246301   4.613   2.513   7.967 -0.1471 -0.8091 -1.9831
14129SOL     OW46302   6.765   6.618   8.123 -0.2629 -0.7954 -0.0079
14129SOL    HW146303   6.849   6.572   8.127  0.5417  0.4260 -1.7787
14129SOL    HW246304   6.765   6.663   8.038 -2.5496 -0.4370  0.0973
14130SOL     OW46305   5.810   1.613   6.939  0.2036 -0.2975  0.3015
14130SOL    HW146306   5.837   1.599   7.030 -0.2778 -0.3937  0.4313
14130SOL    HW246307   5.816   1.526   6.899 -0.1598 -0.3680  0.3979
14131SOL     OW46308   6.627   6.902   2.576  0.2038  0.2727  0.1352
14131SOL    HW146309   6.561   6.834   2.584 -0.8858  0.8994 -2.4547
14131SOL    HW246310   6.694   6.865   2.519 -0.5059  1.3729 -1.4821
14132SOL     OW46311   2.384   2.723   1.317  0.3140  0.5263 -0.1618
14132SOL    HW146312   2.337   2.663   1.374  0.2549  0.4140 -0.3310
14132SOL    HW246313   2.372   2.809   1.358 -0.3886  0.5609 -0.4372
14133SOL     OW46314   7.649   4.329   5.459  0.5221  0.4511 -0.0169
14133SOL    HW146315   7.685   4.345   5.372 -0.6547 -0.0259 -0.6002
14133SOL    HW246316   7.716   4.363   5.519  1.4277  0.6056 -1.0928
14134SOL     OW46317   5.327   5.475   2.951  0.1376 -0.3807  0.0651
14134SOL    HW146318   5.307   5.514   2.866  0.6114 -0.2399  0.0139
14134SOL    HW246319   5.244   5.478   3.000  0.4053  1.6799  0.4640
14135SOL     OW46320   2.619   6.065   6.050 -0.9643 -0.4748 -0.1758
14135SOL    HW146321   2.620   6.159   6.035 -1.1772 -0.6728 -1.5341
14135SOL    HW246322   2.529   6.045   6.077 -0.8478 -0.2571  0.3815
14136SOL     OW46323   2.144   1.335   1.932  0.3512  0.0220  0.3752
14136SOL    HW146324   2.176   1.279   1.861 -0.0749 -0.4237  0.5283
14136SOL    HW246325   2.075   1.284   1.974 -0.6814  1.0020 -0.0393
14137SOL     OW46326   3.110   7.136   0.135 -0.9543 -0.8087 -0.0052
14137SOL    HW146327   3.140   7.111   0.048  0.3926  0.7992 -0.0597
14137SOL    HW246328   3.089   7.229   0.127  0.5805 -0.2420  1.6880
14138SOL     OW46329   3.930   0.005   1.145  0.3198 -0.1463 -0.1041
14138SOL    HW146330   3.901   0.086   1.103 -2.3158  0.5030  2.6871
14138SOL    HW246331   4.003   0.032   1.200  2.9532 -0.7846 -2.9756
14139SOL     OW46332   0.129   5.033   6.234 -0.4700  0.1100  0.2988
14139SOL    HW146333   0.152   5.004   6.146  0.3311  1.5479 -0.0005
14139SOL    HW246334   0.036   5.011   6.243 -0.4933 -0.3106 -0.8048
14140SOL     OW46335   3.718   1.186   9.199 -0.3031  0.6073  0.2632
14140SOL    HW146336   3.797   1.167   9.250  0.0855  1.7213  0.1225
14140SOL    HW246337   3.734   1.146   9.114  0.1320  0.8367  0.2320
14141SOL     OW46338   2.716   2.937   2.967  0.2941  0.4859 -0.0884
14141SOL    HW146339   2.656   3.011   2.967 -1.0723 -0.5430  1.2548
14141SOL    HW246340   2.660   2.861   2.952  1.6589 -0.3044 -1.4570
14142SOL     OW46341   9.994   5.087   9.053 -0.3877  0.3027  0.1151
14142SOL    HW146342  10.071   5.120   9.100 -0.0977  1.0315 -0.8337
14142SOL    HW246343  10.023   5.006   9.013 -0.2917  0.2677  0.2549
14143SOL     OW46344   0.772   8.899   6.566  0.2902 -0.3381 -0.3792
14143SOL    HW146345   0.731   8.847   6.497 -0.2777 -0.2997 -0.0706
14143SOL    HW246346   0.803   8.977   6.521 -1.1444  0.2501 -0.3947
14144SOL     OW46347   3.250   0.246   9.452 -0.6527 -0.6892  0.1526
14144SOL    HW146348   3.316   0.225   9.387 -0.2722 -1.7464  0.8493
14144SOL    HW246349   3.264   0.339   9.471  0.0946 -0.6981 -0.3016
14145SOL     OW46350   4.527   5.197   1.750 -0.5863  0.1385  0.0570
14145SOL    HW146351   4.494   5.180   1.838 -0.0236 -0.8798  0.0851
14145SOL    HW246352   4.526   5.112   1.706 -0.9041  0.6351 -0.9460
14146SOL     OW46353  10.132   4.145   6.728 -0.1424 -0.1105 -0.3118
14146SOL    HW146354  10.185   4.201   6.784 -0.0363 -0.5095 -0.0034
14146SOL    HW246355  10.183   4.064   6.720 -0.1936 -0.0826 -0.9237
14147SOL     OW46356   8.701   9.119   2.336 -0.3496 -0.5857  0.0513
14147SOL    HW146357   8.699   9.023   2.332  0.4424 -0.6811  1.1570
14147SOL    HW246358   8.679   9.139   2.427  0.5069  0.2239  0.1015
14148SOL     OW46359   1.531   9.540   6.450 -0.1986 -0.7869 -0.5978
14148SOL    HW146360   1.449   9.492   6.441 -1.1319  0.3105  1.3231
14148SOL    HW246361   1.523   9.585   6.534  2.7670 -1.3588  0.1116
14149SOL     OW46362   8.540   3.826   2.343 -0.6446  0.4185 -0.8118
14149SOL    HW146363   8.480   3.827   2.418  1.4989  1.1461  1.0144
14149SOL    HW246364   8.587   3.743   2.352  0.1881  0.8813 -0.8777
14150SOL     OW46365   2.954   7.450   4.180 -0.2772  0.3096  0.0981
14150SOL    HW146366   2.868   7.440   4.221  0.0923 -0.7590  0.6661
14150SOL    HW246367   2.990   7.362   4.179  1.2558  0.8969  0.8646
14151SOL     OW46368   2.179   6.541   9.453 -0.1420  0.5562 -0.3783
14151SOL    HW146369   2.131   6.621   9.472  0.7684  1.0347 -0.0383
14151SOL    HW246370   2.128   6.499   9.383 -0.8213  1.2470 -0.3128
14152SOL     OW46371   9.729   8.339   8.067  0.3232  0.5367 -0.0803
14152SOL    HW146372   9.701   8.421   8.027  0.6481  0.5643 -0.2462
14152SOL    HW246373   9.672   8.330   8.144 -0.9951 -0.0264 -1.0902
14153SOL     OW46374   4.531   3.215   5.140 -0.4894  0.2868 -0.0980
14153SOL    HW146375   4.604   3.195   5.082  0.1364 -0.0900  0.7975
14153SOL    HW246376   4.456   3.169   5.101 -0.0089 -0.2225 -0.4368
14154SOL     OW46377   7.636   9.201   3.378 -0.5207 -0.0330  0.3257
14154SOL    HW146378   7.723   9.224   3.345 -0.2587 -0.5644  0.6364
14154SOL    HW246379   7.613   9.273   3.438  0.5948 -0.8714  1.8291
14155SOL     OW46380   7.872   3.124   1.404 -0.5268  0.2190 -0.1570
14155SOL    HW146381   7.872   3.061   1.476 -0.5041  0.7342  0.2983
14155SOL    HW246382   7.780   3.136   1.382 -0.5464  0.2191 -0.0746
14156SOL     OW46383   4.655   0.763   5.269 -0.1869  0.5514  0.1208
14156SOL    HW146384   4.670   0.778   5.363  0.3953  0.8382 -0.0149
14156SOL    HW246385   4.597   0.686   5.266 -0.5540  0.7959  0.7258
14157SOL     OW46386   1.127   0.094   4.542 -0.1259  0.1821  0.0014
14157SOL    HW146387   1.042   0.136   4.527 -0.3846 -0.5505 -0.6276
14157SOL    HW246388   1.135   0.090   4.638 -0.5769  0.7020  0.0636
14158SOL     OW46389   7.894   0.748   3.756 -0.1816  0.6060 -0.5033
14158SOL    HW146390   7.939   0.758   3.840  1.1640 -1.3891 -0.9199
14158SOL    HW246391   7.906   0.833   3.712 -1.5049  1.9224  1.5242
14159SOL     OW46392   2.131   8.074   5.233 -0.0451 -0.4531  0.1202
14159SOL    HW146393   2.051   8.024   5.251  1.2170 -2.2562  0.9374
14159SOL    HW246394   2.161   8.042   5.148  0.2410 -0.3506  0.1805
14160SOL     OW46395   7.932   8.417   5.815  0.1925  0.2552 -0.0296
14160SOL    HW146396   7.890   8.503   5.819 -4.2557 -1.6711  2.5216
14160SOL    HW246397   7.971   8.414   5.728 -0.3748  4.3680 -0.6554
14161SOL     OW46398   8.013   0.735   2.832 -0.8167  0.8682  0.0142
14161SOL    HW146399   8.084   0.672   2.847 -0.9088  0.5582 -0.7896
14161SOL    HW246400   7.941   0.703   2.886 -0.5698  0.7930  0.3029
14162SOL     OW46401   7.801   2.031   7.321  0.1726 -0.1701 -0.2949
14162SOL    HW146402   7.865   2.023   7.250 -0.5759  0.9575 -1.1409
14162SOL    HW246403   7.845   2.083   7.388  0.4178 -0.1084 -0.5034
14163SOL     OW46404   9.054   6.628   1.240 -0.4495  0.0953 -0.0304
14163SOL    HW146405   9.014   6.698   1.292  1.3728  0.8578  0.4241
14163SOL    HW246406   9.139   6.663   1.214  0.0744 -1.5664 -0.6857
14164SOL     OW46407   4.852   7.716   9.045 -0.0758  0.3263  0.1099
14164SOL    HW146408   4.857   7.735   8.952 -0.2617  0.4936  0.1343
14164SOL    HW246409   4.914   7.778   9.085  1.7040 -1.2315 -0.1130
14165SOL     OW46410   8.935   6.598   3.393  0.2588  0.1794  0.1206
14165SOL    HW146411   8.869   6.586   3.461  2.0832 -0.2157  1.8789
14165SOL    HW246412   8.896   6.664   3.334 -1.3279  0.5832  1.5402
14166SOL     OW46413   4.490   0.501   1.555 -0.4262 -0.4806 -0.0873
14166SOL    HW146414   4.481   0.445   1.632 -0.4594 -1.1668 -0.5737
14166SOL    HW246415   4.413   0.481   1.502 -0.8128  0.5677  0.0577
14167SOL     OW46416   4.306   6.931   5.453  0.3412  0.0859 -0.4937
14167SOL    HW146417   4.372   6.952   5.387 -0.0236 -0.2883 -0.9812
14167SOL    HW246418   4.223   6.932   5.405  0.1329 -0.7425 -0.1615
14168SOL     OW46419   5.352   8.001   1.185  0.6353 -0.1587  0.6565
14168SOL    HW146420   5.408   7.946   1.130 -0.6600 -0.3979 -0.4861
14168SOL    HW246421   5.340   8.081   1.134  0.3471  0.0900  1.1109
14169SOL     OW46422   4.383   6.464   3.772 -0.1602 -0.0146  0.2367
14169SOL    HW146423   4.290   6.447   3.789 -0.3039 -0.0157 -0.4817
14169SOL    HW246424   4.384   6.500   3.683  0.4230  1.0403  0.6624
14170SOL     OW46425   2.729   3.915   3.559  0.0383  0.1874 -0.3479
14170SOL    HW146426   2.814   3.926   3.516 -0.2189  0.5504 -0.7807
14170SOL    HW246427   2.740   3.841   3.617  0.3195 -0.5193 -1.2782
14171SOL     OW46428   4.788   5.124   4.034  0.0288 -0.3072  0.3165
14171SOL    HW146429   4.697   5.142   4.057 -0.2572 -0.9893 -0.2553
14171SOL    HW246430   4.788   5.115   3.938  0.6254 -0.6713  0.3422
14172SOL     OW46431   7.520   2.602   6.131 -0.0670  0.1105  0.1004
14172SOL    HW146432   7.504   2.690   6.097 -0.8874  0.1288  0.5108
14172SOL    HW246433   7.523   2.546   6.053 -0.6016  0.3457 -0.0901
14173SOL     OW46434   9.954   9.059   5.753  0.1198 -0.0438 -0.1945
14173SOL    HW146435   9.859   9.063   5.745  0.1220 -0.7987 -0.7202
14173SOL    HW246436   9.982   9.009   5.676  0.8186 -1.1068  0.7152
14174SOL     OW46437   9.278   4.321   2.153  0.2958  0.2114  0.5141
14174SOL    HW146438   9.200   4.274   2.124  0.4317 -1.0371  2.0119
14174SOL    HW246439   9.270   4.408   2.114 -0.7182 -0.5821 -1.1435
14175SOL     OW46440   1.312   8.239   9.479 -0.3485 -0.1687 -0.2486
14175SOL    HW146441   1.324   8.292   9.557  0.0750 -0.1313 -0.3374
14175SOL    HW246442   1.400   8.230   9.442 -0.2038 -1.9485  0.4318
14176SOL     OW46443   7.968   5.942   9.067  0.1575  0.6719  0.0773
14176SOL    HW146444   7.939   5.861   9.024  0.0399  0.7149  0.0740
14176SOL    HW246445   7.903   5.957   9.136  0.0832  0.8567 -0.0324
14177SOL     OW46446   0.185  10.189   3.540 -0.1736 -0.0918  0.4713
14177SOL    HW146447   0.270  10.197   3.496  0.0006 -0.7378  0.6772
14177SOL    HW246448   0.173  10.273   3.585  0.3874 -0.0231  0.4995
14178SOL     OW46449   9.454   1.208   7.866  0.5385 -0.2245  0.2625
14178SOL    HW146450   9.401   1.132   7.843  1.4507 -0.9182  0.3933
14178SOL    HW246451   9.393   1.282   7.863 -0.4055 -0.9832  0.3293
14179SOL     OW46452   2.857   1.751   9.653  0.2495 -0.3275  0.5024
14179SOL    HW146453   2.942   1.727   9.688  0.9462  1.2044 -0.0762
14179SOL    HW246454   2.852   1.704   9.569 -0.3086 -1.8946  1.3621
14180SOL     OW46455   9.100   3.095   0.552  0.3736  0.0892 -0.0302
14180SOL    HW146456   9.099   3.004   0.581  1.1856  0.5278  1.4585
14180SOL    HW246457   9.056   3.143   0.622  1.1458  1.0168 -0.1639
14181SOL     OW46458   0.033   5.490   1.810  0.0475  0.2384  0.6169
14181SOL    HW146459   0.105   5.446   1.764  0.1490 -0.2887  1.2823
14181SOL    HW246460   0.053   5.583   1.800 -1.4800  0.3724 -3.0095
14182SOL     OW46461   5.958   4.150   1.736 -0.4859 -0.5094 -0.1664
14182SOL    HW146462   6.028   4.096   1.772 -0.0178 -0.2331 -0.6554
14182SOL    HW246463   5.999   4.199   1.665 -0.8231  0.7342  0.4635
14183SOL     OW46464  10.059   8.390   4.892 -0.2278  0.5085 -0.0048
14183SOL    HW146465   9.967   8.405   4.870 -0.7930 -0.2385  1.6919
14183SOL    HW246466  10.068   8.424   4.981  0.5595 -1.4095  0.6941
14184SOL     OW46467   7.547   3.414   3.228  0.1910  0.1693 -0.3265
14184SOL    HW146468   7.476   3.392   3.288  2.7392 -0.2380  2.7941
14184SOL    HW246469   7.606   3.339   3.231  0.4255  0.0887 -3.5565
14185SOL     OW46470   1.210   3.569   3.639 -0.2699 -0.3391  0.1111
14185SOL    HW146471   1.294   3.541   3.674 -0.3913 -0.6511  0.1534
14185SOL    HW246472   1.154   3.492   3.646 -0.5111 -0.1818 -0.0730
14186SOL     OW46473   9.729   5.560   3.311 -0.2318  0.2252 -0.6168
14186SOL    HW146474   9.718   5.524   3.223 -0.9305  2.3739 -1.4782
14186SOL    HW246475   9.802   5.622   3.302 -0.5971  0.7895  0.2119
14187SOL     OW46476   3.300   3.645   2.087 -0.2145 -0.2976  0.5798
14187SOL    HW146477   3.250   3.720   2.119 -0.0937 -0.0020  0.0828
14187SOL    HW246478   3.238   3.572   2.090 -0.8523  0.1687 -0.5010
14188SOL     OW46479   5.812   1.895   4.598 -0.2484 -0.6389  0.3313
14188SOL    HW146480   5.765   1.960   4.546 -1.5268 -1.7787  0.0140
14188SOL    HW246481   5.869   1.850   4.534 -0.2099 -0.5910  0.3318
14189SOL     OW46482   6.528   6.086   3.682 -0.1884 -0.5282  0.4310
14189SOL    HW146483   6.517   6.175   3.647 -1.1258 -1.5266 -2.0103
14189SOL    HW246484   6.513   6.096   3.776 -0.0202  1.9239  0.2765
14190SOL     OW46485   9.759   5.693   3.729 -0.8456 -0.2320  0.3461
14190SOL    HW146486   9.811   5.628   3.776  1.2075  1.1861  0.1348
14190SOL    HW246487   9.713   5.741   3.799  0.8764  0.7557  0.8623
14191SOL     OW46488   0.914   9.571   2.006 -0.0503 -0.1597  0.4290
14191SOL    HW146489   1.001   9.555   1.968 -1.1671 -0.4228 -2.2067
14191SOL    HW246490   0.903   9.501   2.071  0.6497 -1.7817 -1.1288
14192SOL     OW46491   6.491   1.848   2.262  0.0428 -0.1274  0.2370
14192SOL    HW146492   6.439   1.894   2.197 -0.2241  0.2171  0.6848
14192SOL    HW246493   6.427   1.805   2.319  0.1614  1.1674  1.4289
14193SOL     OW46494   9.860   6.798   0.309 -0.5035  0.1191 -0.7721
14193SOL    HW146495   9.951   6.768   0.310 -0.2479  0.7871 -1.8998
14193SOL    HW246496   9.865   6.888   0.276 -1.1722  1.8277  3.2579
14194SOL     OW46497   0.821   1.159   2.449 -1.0026 -0.1235 -0.2584
14194SOL    HW146498   0.876   1.170   2.372 -2.0580 -0.3706 -1.0751
14194SOL    HW246499   0.874   1.191   2.522  0.2059 -0.3703 -1.0110
14195SOL     OW46500   9.401   0.897   3.583  0.1813 -0.1159  0.1256
14195SOL    HW146501   9.387   0.815   3.630  1.8669  0.7685  2.4089
14195SOL    HW246502   9.347   0.961   3.629 -1.6340  0.0181 -2.0354
14196SOL     OW46503   0.251   0.787   8.807  0.3651 -0.3815  0.2939
14196SOL    HW146504   0.187   0.756   8.743  0.2133 -1.1404  0.7884
14196SOL    HW246505   0.311   0.713   8.818  1.3324  0.3214 -0.1578
14197SOL     OW46506   9.871   0.171   0.729 -0.3261  0.1932 -0.0558
14197SOL    HW146507   9.915   0.141   0.650 -0.5175 -1.0042  0.2775
14197SOL    HW246508   9.786   0.128   0.728  0.0630 -0.6666  1.2985
14198SOL     OW46509   5.744   6.936   4.291  0.1406  0.0383  0.4722
14198SOL    HW146510   5.738   6.907   4.200 -2.6263  1.0226  0.2601
14198SOL    HW246511   5.749   7.031   4.286 -3.7430  0.4443  1.2712
14199SOL     OW46512   7.682   7.349   1.736  0.6025 -0.1597 -0.3015
14199SOL    HW146513   7.694   7.415   1.805  0.0979  0.2221 -0.5730
14199SOL    HW246514   7.769   7.338   1.698  0.5328  1.0391 -0.8579
14200SOL     OW46515   5.007   2.361   9.773  0.5391  0.4890 -0.0684
14200SOL    HW146516   5.046   2.431   9.720  0.9897  1.3772  1.3851
14200SOL    HW246517   5.078   2.298   9.785  0.3858  0.1965 -0.6325
14201SOL     OW46518   6.481   4.898   9.693 -0.6641 -0.5130 -0.3596
14201SOL    HW146519   6.460   4.818   9.741  0.0167 -0.8282 -0.5729
14201SOL    HW246520   6.563   4.929   9.732 -0.8914  0.0509 -0.3181
14202SOL     OW46521   6.440   8.089   3.134  0.0439  0.4935  0.3322
14202SOL    HW146522   6.511   8.025   3.133  0.1026  0.5246 -1.4779
14202SOL    HW246523   6.379   8.058   3.068  0.7928  3.0192 -1.7212
14203SOL     OW46524   5.993   1.425   0.245  0.0689  0.1627 -0.1700
14203SOL    HW146525   6.056   1.426   0.173  1.2182  0.2179  0.8052
14203SOL    HW246526   6.047   1.420   0.324 -1.0575  2.3729  0.8140
14204SOL     OW46527   2.336   6.819   6.280  0.1008  0.4083  0.0489
14204SOL    HW146528   2.309   6.745   6.335 -1.4014 -0.2820 -1.5030
14204SOL    HW246529   2.413   6.786   6.233  1.3014  0.9511  1.5601
14205SOL     OW46530   5.026   1.165   1.119 -0.3812  0.3536  0.0256
14205SOL    HW146531   5.081   1.099   1.162 -0.2199  1.5045  1.6987
14205SOL    HW246532   5.088   1.229   1.085 -0.5809  0.1585 -0.7175
14206SOL     OW46533   0.057   6.869   7.905  0.0214 -0.3720  0.1032
14206SOL    HW146534   0.011   6.949   7.933 -0.2764 -0.7579  0.7355
14206SOL    HW246535   0.118   6.851   7.977  1.1800  0.1330 -0.7260
14207SOL     OW46536   6.031   5.994   9.289  0.2358  0.4091  0.3544
14207SOL    HW146537   6.026   6.023   9.380 -1.1465 -2.2172  1.2335
14207SOL    HW246538   6.004   6.070   9.238  1.4837  2.0854  2.0606
14208SOL     OW46539   3.649   9.868   9.358 -0.1616  0.1231 -0.1982
14208SOL    HW146540   3.707   9.945   9.362  0.8716 -0.6473  0.1568
14208SOL    HW246541   3.601   9.879   9.276  0.6825  0.6575 -0.6378
14209SOL     OW46542   3.255   2.708   5.240  0.0589 -0.7976 -0.2375
14209SOL    HW146543   3.187   2.712   5.307  1.7241 -0.1120  1.5227
14209SOL    HW246544   3.209   2.683   5.160 -2.4964  1.2246  0.4748
14210SOL     OW46545   5.511   8.190   0.697 -0.7764 -0.5538 -0.3014
14210SOL    HW146546   5.457   8.267   0.717  0.0818 -0.1488  0.5015
14210SOL    HW246547   5.558   8.215   0.617  0.6613  0.3877  0.8054
14211SOL     OW46548   9.043   3.486   0.267 -0.1142  0.2894 -0.0037
14211SOL    HW146549   9.021   3.486   0.174  0.9125  1.6326 -0.2796
14211SOL    HW246550   9.063   3.394   0.286  1.0816  0.1826 -1.4929
14212SOL     OW46551   2.713   7.413   9.585  0.1055 -0.4925 -0.6504
14212SOL    HW146552   2.743   7.388   9.497  0.1808 -1.6505 -0.3184
14212SOL    HW246553   2.782   7.381   9.643  0.0740  0.3088 -0.1665
14213SOL     OW46554   9.092   8.877   6.966  0.3542 -0.1643  0.0575
14213SOL    HW146555   9.092   8.800   7.023  2.2048 -1.7618 -1.9199
14213SOL    HW246556   9.016   8.864   6.909  0.7787 -0.6405 -0.4029
14214SOL     OW46557   2.920   7.384   9.217 -0.0508 -0.1377 -0.0570
14214SOL    HW146558   2.970   7.421   9.144 -1.4136 -0.9748 -1.4832
14214SOL    HW246559   2.828   7.388   9.188 -0.4611 -2.3508  0.7327
14215SOL     OW46560   1.804   0.214   7.708  0.1162 -0.1260  0.0875
14215SOL    HW146561   1.810   0.122   7.734 -2.0055 -0.6658 -1.0800
14215SOL    HW246562   1.800   0.262   7.790  1.4460 -1.0298  0.7167
14216SOL     OW46563   7.382   7.693   1.023 -0.8069  0.1080 -0.5448
14216SOL    HW146564   7.428   7.678   1.106 -0.9529  0.0993 -0.4638
14216SOL    HW246565   7.451   7.701   0.958 -0.6012  1.7726 -0.1763
14217SOL     OW46566   3.680   2.323   5.962  0.0603 -0.3386  0.0670
14217SOL    HW146567   3.751   2.371   6.006  0.6906 -0.8944 -0.3402
14217SOL    HW246568   3.722   2.246   5.924 -0.2445  0.6257 -2.4310
14218SOL     OW46569   5.764   3.084   9.677  0.3789  0.8310  0.2063
14218SOL    HW146570   5.727   3.161   9.633 -0.1806  0.5592  0.1874
14218SOL    HW246571   5.813   3.120   9.751  3.4603  1.4885 -1.9744
14219SOL     OW46572   5.431   9.841   8.194 -0.4154 -0.2133 -0.3212
14219SOL    HW146573   5.417   9.877   8.106  1.1748  0.9027 -0.1622
14219SOL    HW246574   5.353   9.868   8.243 -0.6692  0.3922 -1.0274
14220SOL     OW46575   5.873   4.851   7.298 -0.4199 -0.4302 -0.1303
14220SOL    HW146576   5.843   4.782   7.357  2.7522 -0.5301  1.6067
14220SOL    HW246577   5.860   4.815   7.211 -3.7276 -0.9725  0.4771
14221SOL     OW46578   6.733   9.138   9.470 -0.2255  0.0728  0.1599
14221SOL    HW146579   6.759   9.179   9.387 -0.8141  2.4739  1.0717
14221SOL    HW246580   6.813   9.096   9.501  0.9138  1.8988 -0.1225
14222SOL     OW46581   1.970   3.473   9.337  0.7224  0.4121  0.0982
14222SOL    HW146582   1.966   3.465   9.432 -0.3171 -0.6584 -0.0185
14222SOL    HW246583   1.981   3.384   9.306  2.2993  0.8719 -0.7580
14223SOL     OW46584   2.339   5.385   3.080 -0.6152 -0.4358  0.2012
14223SOL    HW146585   2.339   5.431   3.163  0.0554 -1.6614  0.9102
14223SOL    HW246586   2.378   5.447   3.018  1.4338 -0.4592  1.3913
14224SOL     OW46587   0.553   0.034  10.012 -0.3332  0.2045  0.0215
14224SOL    HW146588   0.592  -0.035   9.958 -0.6641 -1.2440  1.5450
14224SOL    HW246589   0.461   0.036   9.985 -0.1908  0.4773 -0.4486
14225SOL     OW46590   9.472   4.902   3.902 -0.5356 -0.5723  0.5245
14225SOL    HW146591   9.462   4.998   3.901  0.7724 -0.4051 -0.8686
14225SOL    HW246592   9.520   4.884   3.982  0.4060  0.1150  0.1386
14226SOL     OW46593   3.256   9.145   3.943  0.5248  0.9259  0.5177
14226SOL    HW146594   3.209   9.062   3.950  0.4545  0.8002 -1.1544
14226SOL    HW246595   3.262   9.176   4.033  0.8410 -1.0394  1.2264
14227SOL     OW46596   7.199   7.142   2.377  0.8037 -0.4688  0.2249
14227SOL    HW146597   7.160   7.173   2.459 -1.4976  0.6063 -1.1768
14227SOL    HW246598   7.294   7.144   2.393  0.4412  0.2734  2.6322
14228SOL     OW46599   8.445   0.703   1.280 -0.3479  0.0210  0.0751
14228SOL    HW146600   8.423   0.634   1.218 -1.8716 -0.5345  1.1784
14228SOL    HW246601   8.485   0.657   1.354  2.3819  0.7728 -0.8351
14229SOL     OW46602   0.628   2.216   1.638 -0.7196  0.0031  0.0482
14229SOL    HW146603   0.682   2.180   1.568  0.3915  0.0560  0.8342
14229SOL    HW246604   0.548   2.164   1.637  0.5136 -2.0198  0.6393
14230SOL     OW46605   4.864   7.359   5.872 -0.4059 -0.1282  0.7252
14230SOL    HW146606   4.848   7.445   5.909  0.2782 -0.1323  1.0473
14230SOL    HW246607   4.778   7.318   5.868 -0.6891  0.4415  0.8813
14231SOL     OW46608   1.640   9.688   0.415 -0.0497  0.3257  0.5861
14231SOL    HW146609   1.570   9.706   0.351  1.1992  1.5634 -0.4876
14231SOL    HW246610   1.594   9.678   0.498 -1.4030  3.0493  0.2707
14232SOL     OW46611   2.026   8.521   7.277  0.1788  0.1800  0.0157
14232SOL    HW146612   1.940   8.546   7.310 -0.3828 -1.9697  0.3418
14232SOL    HW246613   2.064   8.602   7.244 -1.4084  1.4257  1.1058
14233SOL     OW46614   8.083   7.314   9.486 -0.0009  0.5466 -0.0973
14233SOL    HW146615   8.073   7.359   9.570 -2.5574  0.3671 -0.2122
14233SOL    HW246616   8.050   7.376   9.421 -0.9056 -0.3939 -0.5781
14234SOL     OW46617   4.197   2.583   5.986 -0.1927  0.2220  0.4099
14234SOL    HW146618   4.149   2.500   5.977 -0.8338  0.6556 -0.3081
14234SOL    HW246619   4.289   2.558   5.976 -0.4250 -0.3146 -0.5895
14235SOL     OW46620   6.694   8.832   1.452 -0.0787  0.4247  0.1255
14235SOL    HW146621   6.601   8.855   1.454 -0.1294  0.2361 -0.0170
14235SOL    HW246622   6.730   8.872   1.532 -0.3252  0.3138  0.2956
14236SOL     OW46623   6.787   3.616   9.563  0.0520 -0.1137 -0.0706
14236SOL    HW146624   6.799   3.535   9.611 -2.9220 -0.2016  0.7124
14236SOL    HW246625   6.853   3.675   9.598 -0.0444 -1.1230  1.9240
14237SOL     OW46626   5.110   9.246   7.979  0.0102 -0.1134 -0.0011
14237SOL    HW146627   5.148   9.304   7.913 -0.1790 -0.9525 -0.8659
14237SOL    HW246628   5.023   9.224   7.944  0.4378 -1.6410 -0.1371
14238SOL     OW46629   5.705   7.279   2.603  0.2964  0.6116  0.0676
14238SOL    HW146630   5.641   7.230   2.552  0.5205 -0.5448  0.8632
14238SOL    HW246631   5.715   7.362   2.556 -0.5714  0.1566 -0.9507
14239SOL     OW46632   0.985   3.080   6.264 -0.7208  0.0589  0.2182
14239SOL    HW146633   0.997   3.122   6.179 -0.2753 -0.6550 -0.0856
14239SOL    HW246634   0.908   3.024   6.253 -0.5821 -0.1377  0.2392
14240SOL     OW46635   0.688   5.706   9.283  0.1456 -0.3671  0.2149
14240SOL    HW146636   0.777   5.686   9.312 -0.3658 -0.6139  1.7303
14240SOL    HW246637   0.641   5.728   9.364 -0.8818  0.9212 -0.6958
14241SOL     OW46638   8.218   3.372   0.317 -0.3751  0.3439  0.5393
14241SOL    HW146639   8.271   3.297   0.344  0.0333  0.9116  1.3489
14241SOL    HW246640   8.152   3.382   0.386 -0.8285  0.3478  0.1148
14242SOL     OW46641   2.795   5.239   6.141  0.2978  0.4214  0.0777
14242SOL    HW146642   2.763   5.153   6.170 -0.4231  0.9671  0.9420
14242SOL    HW246643   2.747   5.257   6.060 -0.6834  0.6766  0.7024
14243SOL     OW46644   9.761   8.123   5.539  0.2666  0.1394 -0.6944
14243SOL    HW146645   9.806   8.082   5.613  0.1564  0.0552 -0.6732
14243SOL    HW246646   9.774   8.217   5.551  0.1892  0.1298 -0.5283
14244SOL     OW46647   4.994   9.578   8.023  0.0872 -0.4913  0.4953
14244SOL    HW146648   4.994   9.572   8.118  0.2472 -2.3135  0.4075
14244SOL    HW246649   4.905   9.551   7.997  0.0697 -0.0908  0.1111
14245SOL     OW46650   8.440   8.440   5.921 -0.3344  0.2830  0.3220
14245SOL    HW146651   8.471   8.369   5.977 -0.6751 -0.8273 -0.8443
14245SOL    HW246652   8.365   8.476   5.969  1.0925  1.2687  1.9104
14246SOL     OW46653   4.194   1.346   2.533  0.2680 -0.1287  0.3239
14246SOL    HW146654   4.108   1.313   2.556 -0.3519 -0.0451 -1.7187
14246SOL    HW246655   4.218   1.300   2.453  0.8462  1.8882 -0.7367
14247SOL     OW46656   5.599   3.171   0.566 -0.0566 -0.0828 -0.3935
14247SOL    HW146657   5.673   3.231   0.579 -1.0049  1.3055 -1.1612
14247SOL    HW246658   5.574   3.145   0.655  1.2391 -0.4678 -0.1191
14248SOL     OW46659   3.343   5.506   9.860 -0.2527 -0.1082  0.0335
14248SOL    HW146660   3.251   5.531   9.866  0.2279  1.7098  0.4127
14248SOL    HW246661   3.385   5.579   9.814  1.4426  0.4404  2.2767
14249SOL     OW46662   9.472   3.798   3.441  0.1848 -0.4839 -0.5085
14249SOL    HW146663   9.386   3.841   3.445 -0.0823 -1.0044 -0.5620
14249SOL    HW246664   9.519   3.846   3.373  0.1583  0.1947 -0.0626
14250SOL     OW46665   1.832   8.585   6.591 -0.2111 -0.0536 -0.0923
14250SOL    HW146666   1.912   8.620   6.631  1.4828 -0.9023 -2.4822
14250SOL    HW246667   1.850   8.586   6.497 -1.2503 -4.1836 -0.5384
14251SOL     OW46668   0.115   0.119   6.297  0.0593  0.4163 -0.3991
14251SOL    HW146669   0.082   0.100   6.209 -0.2480  0.4238 -0.2860
14251SOL    HW246670   0.162   0.039   6.322 -1.2371 -0.2208  0.0765
14252SOL     OW46671   2.237   3.461   0.116 -0.2241 -0.2376 -0.3311
14252SOL    HW146672   2.208   3.531   0.175  0.7123  0.5433 -0.7645
14252SOL    HW246673   2.260   3.506   0.035 -0.9646 -1.2310 -1.1195
14253SOL     OW46674   0.219   4.568   4.888 -0.1952  0.4492  0.1474
14253SOL    HW146675   0.263   4.642   4.930  0.1307 -0.0524  0.6988
14253SOL    HW246676   0.176   4.607   4.811  2.6675  0.6957 -1.5026
14254SOL     OW46677   1.811   4.753   9.780 -0.2748 -0.4674 -0.3855
14254SOL    HW146678   1.791   4.754   9.687  0.1594 -1.4192 -0.4987
14254SOL    HW246679   1.730   4.721   9.821 -1.0740  1.5524 -0.2384
14255SOL     OW46680   3.456   8.904   1.507 -0.5638 -0.3334  0.1914
14255SOL    HW146681   3.391   8.834   1.499  0.0395 -1.0023  0.9458
14255SOL    HW246682   3.407   8.985   1.490 -1.4478 -0.8743  0.1126
14256SOL     OW46683   2.763   4.642   6.759 -0.4415  0.4011  0.5776
14256SOL    HW146684   2.676   4.682   6.765  0.0458  1.4923  0.4825
14256SOL    HW246685   2.775   4.625   6.666 -0.3804  0.6526  0.5385
14257SOL     OW46686   9.743   0.315   8.839  0.2025 -0.0774  0.1759
14257SOL    HW146687   9.836   0.323   8.861  0.3016 -0.3899 -0.1213
14257SOL    HW246688   9.733   0.225   8.808 -0.3999 -0.3588  1.1365
14258SOL     OW46689   3.839   6.960   1.446  0.3070 -0.0361  0.2456
14258SOL    HW146690   3.925   6.929   1.417 -0.1396 -1.5162  0.4224
14258SOL    HW246691   3.806   7.012   1.372  1.2257  0.3112  0.0660
14259SOL     OW46692   3.769   7.847   7.519  0.5955  0.5227 -0.7469
14259SOL    HW146693   3.685   7.810   7.492  0.4770  0.4878 -0.3315
14259SOL    HW246694   3.747   7.929   7.563  0.7962  0.6204 -0.8226
14260SOL     OW46695   7.214   8.517   0.576  0.3088 -0.2636 -0.2924
14260SOL    HW146696   7.136   8.541   0.526 -0.1587 -0.3007  0.3920
14260SOL    HW246697   7.243   8.435   0.538 -0.8606 -1.0182  0.3737
14261SOL     OW46698   6.556   3.189   7.760 -0.3688  0.1118  0.0043
14261SOL    HW146699   6.536   3.096   7.769  1.6317 -0.4867 -1.1210
14261SOL    HW246700   6.608   3.210   7.838 -1.5733  0.5571  0.7183
14262SOL     OW46701   6.438   0.763   1.827 -0.5798 -0.2464  0.1716
14262SOL    HW146702   6.397   0.786   1.744 -1.9227 -2.7340  0.0519
14262SOL    HW246703   6.532   0.768   1.809 -0.8120 -2.0077 -1.9575
14263SOL     OW46704   1.014   6.608   5.097  0.6002 -0.4140  0.1310
14263SOL    HW146705   1.076   6.630   5.166  1.6782 -3.0359  0.1105
14263SOL    HW246706   0.928   6.612   5.140  0.9734  0.7672  0.8202
14264SOL     OW46707   4.752   6.784   4.440 -0.0793  0.2568 -0.1597
14264SOL    HW146708   4.837   6.826   4.434 -0.4677  1.1884  0.5641
14264SOL    HW246709   4.748   6.727   4.363  1.6997 -0.7983  0.4723
14265SOL     OW46710   2.753   6.572   0.692 -0.0808 -0.5166 -0.0806
14265SOL    HW146711   2.667   6.598   0.660 -0.9638 -1.6483  1.2295
14265SOL    HW246712   2.812   6.640   0.662 -1.4918  0.4683 -0.7239
14266SOL     OW46713   3.058   2.216   5.134 -0.8688 -0.0830 -0.8630
14266SOL    HW146714   3.067   2.125   5.160 -3.4390 -0.3540 -0.6884
14266SOL    HW246715   3.012   2.258   5.206  1.2477  1.6914 -0.4288
14267SOL     OW46716   2.212   3.916   0.795 -0.1386 -0.0836  0.0438
14267SOL    HW146717   2.138   3.971   0.768 -1.5901 -2.4742 -1.1956
14267SOL    HW246718   2.181   3.827   0.781  1.7376 -1.3053  2.9674
14268SOL     OW46719   4.668   8.472   3.176  0.1478 -0.0802  0.1012
14268SOL    HW146720   4.699   8.437   3.260 -1.2978 -0.7019  0.3984
14268SOL    HW246721   4.724   8.549   3.161 -0.0090  0.4627  1.9828
14269SOL     OW46722   1.955   7.051   9.608  0.0077 -0.4462  0.0291
14269SOL    HW146723   1.985   7.140   9.591  0.1142 -0.6334 -0.8433
14269SOL    HW246724   1.948   7.045   9.703  3.6189 -0.6389  0.4240
14270SOL     OW46725   6.262   9.866   5.085  0.0814 -0.1624 -0.3406
14270SOL    HW146726   6.180   9.817   5.078  0.0229 -0.2062  0.5539
14270SOL    HW246727   6.326   9.811   5.041 -0.3670 -0.1253 -1.0553
14271SOL     OW46728   5.569   8.851   6.704 -0.2275 -0.2903 -0.0947
14271SOL    HW146729   5.574   8.941   6.671 -1.2131  0.3562  1.4117
14271SOL    HW246730   5.656   8.814   6.688 -0.0871  0.6146 -1.5657
14272SOL     OW46731   2.342   9.163   2.838 -0.1230 -0.2250  0.0023
14272SOL    HW146732   2.433   9.138   2.853 -0.0022 -1.5058 -2.4484
14272SOL    HW246733   2.346   9.256   2.815  0.7124 -0.5368 -1.1714
14273SOL     OW46734   7.155   4.692   0.921 -0.3300  0.1400  0.4433
14273SOL    HW146735   7.096   4.657   0.855 -0.7039 -0.2700  0.9797
14273SOL    HW246736   7.162   4.785   0.901  1.2127 -0.3152 -1.4190
14274SOL     OW46737   7.501   1.804   4.561  0.4953 -0.2476  0.2021
14274SOL    HW146738   7.491   1.883   4.614 -0.1677 -0.4638  0.4118
14274SOL    HW246739   7.541   1.740   4.619  1.5715  0.0874 -0.1317
14275SOL     OW46740   8.024   5.224   2.462  0.6256  0.0717 -0.0477
14275SOL    HW146741   7.932   5.203   2.478  1.0069 -1.9919 -0.3436
14275SOL    HW246742   8.020   5.299   2.402 -0.8316  0.6537  0.7148
14276SOL     OW46743   1.115   5.395   2.450  0.2228  0.0278  0.3329
14276SOL    HW146744   1.148   5.480   2.422 -0.6400 -0.1120 -1.2291
14276SOL    HW246745   1.020   5.406   2.453  0.1306 -0.7584  0.5321
14277SOL     OW46746   9.711   9.681   7.661  0.7977 -0.4070  0.2533
14277SOL    HW146747   9.728   9.734   7.739  1.4460  1.0080 -0.7886
14277SOL    HW246748   9.797   9.672   7.619  0.2670  0.0966 -1.0106
14278SOL     OW46749   8.596   0.684   7.575 -0.2713 -0.5880 -0.3610
14278SOL    HW146750   8.553   0.645   7.651  0.3803  0.2233  0.4541
14278SOL    HW246751   8.626   0.609   7.523 -0.9202 -1.1519  0.0700
14279SOL     OW46752   3.891  10.069   9.993  0.2346 -0.0426 -0.2782
14279SOL    HW146753   3.921  10.150   9.952  1.5786 -0.1985  0.3484
14279SOL    HW246754   3.815  10.043   9.941  0.7812  0.7352 -1.5168
14280SOL     OW46755   6.341   2.904   1.711  0.3879  0.0639 -0.0687
14280SOL    HW146756   6.282   2.851   1.658  0.2240  1.6334 -1.5351
14280SOL    HW246757   6.351   2.855   1.792 -4.6047  0.6505  1.2288
14281SOL     OW46758   3.118   4.769   9.060 -0.2000  0.5642 -0.1126
14281SOL    HW146759   3.171   4.693   9.082  0.8508  0.6997 -1.9180
14281SOL    HW246760   3.040   4.733   9.017 -0.6007  0.4505  0.6935
14282SOL     OW46761   2.420   7.677   1.235  0.2926  0.0185 -0.0672
14282SOL    HW146762   2.358   7.691   1.164 -0.3404  1.2558  0.6821
14282SOL    HW246763   2.392   7.595   1.276  0.7323 -0.7677 -1.2698
14283SOL     OW46764   0.533   1.589   1.519 -0.3906 -0.7870  0.1368
14283SOL    HW146765   0.591   1.653   1.479 -0.9079 -0.4950 -0.1537
14283SOL    HW246766   0.523   1.618   1.610  1.1575 -1.7097  0.6306
14284SOL     OW46767   8.418   3.462   0.855 -0.2920  0.5696  0.1700
14284SOL    HW146768   8.337   3.443   0.808 -0.8799 -0.8368  1.6505
14284SOL    HW246769   8.395   3.530   0.918 -0.7484 -0.8563  1.5971
14285SOL     OW46770   2.480   5.638   6.486 -1.3007 -0.0966 -0.3409
14285SOL    HW146771   2.531   5.573   6.437 -1.2546 -0.1062 -0.2803
14285SOL    HW246772   2.505   5.722   6.448 -1.9032 -0.1677 -0.9102
14286SOL     OW46773   4.228   5.935   5.673  0.9219 -0.6813 -0.7394
14286SOL    HW146774   4.146   5.912   5.718  0.4575  0.4607 -0.9545
14286SOL    HW246775   4.297   5.903   5.731  0.4083  2.5016  1.9741
14287SOL     OW46776   2.404   6.625   4.098  0.2057 -0.0534 -0.3631
14287SOL    HW146777   2.365   6.604   4.183 -1.1010 -1.7721 -1.3292
14287SOL    HW246778   2.329   6.635   4.039  1.1260 -0.3061 -1.6281
14288SOL     OW46779   4.100   5.869   4.573 -0.0618  0.3830 -0.6054
14288SOL    HW146780   4.168   5.936   4.574  1.5557 -1.1271  1.3382
14288SOL    HW246781   4.018   5.918   4.567  1.1166  2.3561 -1.7195
14289SOL     OW46782   1.361   5.761   2.327 -0.2282 -0.2383  0.3320
14289SOL    HW146783   1.401   5.773   2.413  0.0222 -1.9048  0.4924
14289SOL    HW246784   1.337   5.668   2.325  0.0178 -0.2961 -1.4877
14290SOL     OW46785   2.027   2.867   6.541 -0.6282 -0.0301  0.0898
14290SOL    HW146786   2.108   2.911   6.514 -1.3295  0.9193 -0.5547
14290SOL    HW246787   1.979   2.853   6.459 -1.2317 -0.3511  0.4872
14291SOL     OW46788   2.576   5.778   4.285 -0.3681 -0.3524 -0.0429
14291SOL    HW146789   2.581   5.775   4.189  0.4843  0.0854 -0.0241
14291SOL    HW246790   2.490   5.814   4.303  0.2716  1.6589 -0.7179
14292SOL     OW46791   1.201   2.970   2.258 -0.0622  0.2294 -0.1575
14292SOL    HW146792   1.212   3.052   2.305 -1.2370  0.9562 -1.0980
14292SOL    HW246793   1.108   2.968   2.236  0.0775 -1.0559 -0.7031
14293SOL     OW46794   4.463   7.703   6.582 -0.6947 -0.1200 -0.6270
14293SOL    HW146795   4.437   7.736   6.668 -0.6853 -0.6989 -0.4016
14293SOL    HW246796   4.473   7.609   6.594 -0.8997 -0.2348 -1.3109
14294SOL     OW46797   7.702   1.294   0.255 -0.8211  0.2574 -0.6942
14294SOL    HW146798   7.716   1.378   0.297  0.3865  0.5718 -1.6772
14294SOL    HW246799   7.606   1.283   0.255 -1.0553  2.0135 -1.2881
14295SOL     OW46800   9.719   2.660   4.128  0.0169 -0.4340  0.6296
14295SOL    HW146801   9.764   2.576   4.135 -1.0295 -1.0198  0.5793
14295SOL    HW246802   9.746   2.709   4.205  0.8082 -0.7253  0.5464
14296SOL     OW46803   9.504   1.815   4.850 -0.4765  0.0184 -0.0343
14296SOL    HW146804   9.573   1.857   4.900  0.3469 -0.2398 -0.9158
14296SOL    HW246805   9.550   1.765   4.782 -1.5510  0.9210 -1.4967
14297SOL     OW46806   8.871   1.102   9.313  0.4706 -0.4762 -0.7248
14297SOL    HW146807   8.908   1.122   9.228 -0.2713 -0.2790 -1.0027
14297SOL    HW246808   8.896   1.176   9.368 -0.4931  0.2308 -1.2135
14298SOL     OW46809   2.883   3.916   8.656 -0.0486 -0.0442  0.1678
14298SOL    HW146810   2.850   3.960   8.577  1.2806 -1.5812 -1.3260
14298SOL    HW246811   2.934   3.983   8.701  0.1590  0.5478 -0.9097
14299SOL     OW46812   2.145   3.069   4.761  0.5127  0.2272  0.2011
14299SOL    HW146813   2.194   3.008   4.816  0.5270 -0.6408 -0.7438
14299SOL    HW246814   2.198   3.080   4.682 -0.1472  0.3458 -0.2422
14300SOL     OW46815   9.058   4.027   1.168 -0.7327 -0.5873 -0.8209
14300SOL    HW146816   9.115   3.952   1.152 -0.1192 -0.3204  0.0924
14300SOL    HW246817   9.010   4.005   1.248  0.4085  0.5430  0.2001
14301SOL     OW46818   9.194   1.472   3.951  0.1821  0.2018 -0.0273
14301SOL    HW146819   9.104   1.478   3.984  0.6035 -0.3887  1.2856
14301SOL    HW246820   9.190   1.408   3.880 -0.2152 -0.8100  0.8838
14302SOL     OW46821   5.750   1.693   1.751 -0.6386  0.1639  0.3370
14302SOL    HW146822   5.800   1.615   1.729 -0.2743  0.8913 -1.6637
14302SOL    HW246823   5.725   1.731   1.666 -1.1291  2.0086  1.2349
14303SOL     OW46824   0.635   8.730   5.418  0.2096 -0.4740 -0.8441
14303SOL    HW146825   0.728   8.708   5.414  0.4201  0.3088 -0.3508
14303SOL    HW246826   0.599   8.695   5.337  0.7850 -1.4576 -0.6902
14304SOL     OW46827   6.505   3.211   3.651  0.5079  0.5591  0.0456
14304SOL    HW146828   6.486   3.124   3.617  1.2917  0.6344 -0.6214
14304SOL    HW246829   6.549   3.256   3.578  0.5514  1.3456  0.5462
14305SOL     OW46830   4.798   3.031   4.729  0.0848 -0.1924 -0.2768
14305SOL    HW146831   4.789   2.937   4.744  0.8615 -0.2680 -0.2283
14305SOL    HW246832   4.748   3.072   4.800 -0.1017 -0.5698 -0.1897
14306SOL     OW46833   2.091   1.755   8.780 -0.0089  0.1670  0.4800
14306SOL    HW146834   2.085   1.679   8.837 -0.3998 -1.0862 -1.1712
14306SOL    HW246835   2.049   1.728   8.698  1.8675  1.3459 -0.9763
14307SOL     OW46836   4.728   4.401   7.382 -0.2035 -0.6830  0.1371
14307SOL    HW146837   4.759   4.434   7.466 -1.7165 -0.9659  0.8452
14307SOL    HW246838   4.757   4.466   7.318  0.5484 -0.2127  0.9377
14308SOL     OW46839   1.431   8.568   7.866  0.4575  0.0230  0.6348
14308SOL    HW146840   1.357   8.624   7.886  0.8445 -0.3196  3.4636
14308SOL    HW246841   1.399   8.507   7.800 -1.2651  0.8873  0.6373
14309SOL     OW46842   7.489   5.024   9.283  0.9534  0.3023  0.2551
14309SOL    HW146843   7.572   4.987   9.312  1.1467  0.2413 -0.3503
14309SOL    HW246844   7.471   5.094   9.345  2.0695  1.1037 -0.2848
14310SOL     OW46845   6.372   9.433   3.821  0.4582  0.2566  0.0595
14310SOL    HW146846   6.431   9.402   3.753  1.1751  0.8652  0.3816
14310SOL    HW246847   6.286   9.436   3.780  0.6773 -0.4873 -0.4679
14311SOL     OW46848   5.953   8.096   8.528  0.0108  0.2624  0.1740
14311SOL    HW146849   5.908   8.101   8.443  1.3438  1.3463 -0.5214
14311SOL    HW246850   5.896   8.145   8.588  0.4562  2.1204 -0.8189
14312SOL     OW46851   1.244   8.235   8.264 -0.0246  0.4957  0.3153
14312SOL    HW146852   1.283   8.154   8.297  1.6102  1.5021  0.9849
14312SOL    HW246853   1.153   8.231   8.292 -0.2639 -1.6073 -0.6359
14313SOL     OW46854   1.706   2.634   3.402  0.1955  0.8921  0.2130
14313SOL    HW146855   1.780   2.694   3.410  1.0443 -0.0335 -0.3377
14313SOL    HW246856   1.665   2.657   3.319 -0.1637  1.4247  0.5314
14314SOL     OW46857   2.620   4.862   6.474 -0.2392  0.1341 -0.0283
14314SOL    HW146858   2.599   4.949   6.438  1.9106  0.7272  0.0069
14314SOL    HW246859   2.541   4.810   6.457 -0.9691  1.6164 -1.5777
14315SOL     OW46860   6.481   0.164   1.145 -0.0177 -0.0466 -0.3749
14315SOL    HW146861   6.447   0.251   1.125 -0.3307 -0.0908 -0.0581
14315SOL    HW246862   6.404   0.113   1.168 -0.1304 -1.0495 -2.7122
14316SOL     OW46863   5.815   3.069   7.191 -0.4068  0.0099 -0.2353
14316SOL    HW146864   5.859   3.036   7.114  1.5401  2.2003 -0.1486
14316SOL    HW246865   5.816   3.164   7.182 -2.2602  0.2726  1.3741
14317SOL     OW46866   6.511   5.598   7.391  0.6078  0.6722  0.1079
14317SOL    HW146867   6.425   5.639   7.401  0.1919 -0.4967  1.7431
14317SOL    HW246868   6.497   5.527   7.328  0.6952  1.2710 -0.6039
14318SOL     OW46869   0.269   1.784   2.187 -0.2680 -0.2081  0.1245
14318SOL    HW146870   0.262   1.722   2.114 -1.2019  0.6890 -0.5778
14318SOL    HW246871   0.210   1.749   2.254 -0.7536 -0.1110 -0.2488
14319SOL     OW46872   9.302   3.610   0.035 -0.7198 -0.6783 -0.1783
14319SOL    HW146873   9.244   3.637  -0.036 -1.7701 -2.4645 -0.0659
14319SOL    HW246874   9.248   3.555   0.091  0.8865 -1.7972  0.3594
14320SOL     OW46875   8.744   4.359   0.529  0.4355 -0.0212 -0.0853
14320SOL    HW146876   8.656   4.359   0.489  0.1542  2.1894  0.3750
14320SOL    HW246877   8.802   4.387   0.458  0.2061  2.0568  0.4920
14321SOL     OW46878   0.970   5.079   1.635 -1.1033  0.1598  0.1940
14321SOL    HW146879   1.038   5.016   1.657  0.0225  1.4683  0.5887
14321SOL    HW246880   0.977   5.090   1.540 -0.8151  0.2284  0.2225
14322SOL     OW46881   8.914   0.986   3.538  0.5340 -0.3846  0.3180
14322SOL    HW146882   8.977   1.007   3.470  0.3916 -0.0653  0.2813
14322SOL    HW246883   8.836   1.039   3.516  0.5081 -0.2368  0.7523
14323SOL     OW46884   0.857   7.120   7.477  0.0855  0.1296  0.3097
14323SOL    HW146885   0.890   7.031   7.480 -3.0058 -1.5034 -3.8553
14323SOL    HW246886   0.920   7.167   7.421  0.3550 -0.1760  0.3552
14324SOL     OW46887   5.215   8.298   4.873 -0.0477 -0.8453  0.2166
14324SOL    HW146888   5.303   8.262   4.870  0.3778  0.1384  0.4411
14324SOL    HW246889   5.208   8.350   4.793  0.4307  0.9408  1.2815
14325SOL     OW46890   8.140   8.793   8.413  0.6929 -0.6059 -0.4380
14325SOL    HW146891   8.160   8.777   8.505 -0.8344 -1.7420 -0.2604
14325SOL    HW246892   8.119   8.886   8.409 -0.7987 -0.8635  0.7028
14326SOL     OW46893   2.950   7.461  10.075 -0.3566  0.6063  0.1071
14326SOL    HW146894   3.021   7.425  10.127 -0.6415 -1.1227 -0.6293
14326SOL    HW246895   2.991   7.531  10.024  0.8234 -0.2976 -0.2398
14327SOL     OW46896   8.444   9.619   7.860 -0.1314  0.0397 -0.1970
14327SOL    HW146897   8.410   9.604   7.772 -1.3022 -1.5731  0.4791
14327SOL    HW246898   8.535   9.591   7.856 -0.5819 -1.4465 -0.5544
14328SOL     OW46899   9.392   7.753   2.605  0.3811  0.1491 -0.6892
14328SOL    HW146900   9.353   7.723   2.523  1.7877 -1.3382 -0.8655
14328SOL    HW246901   9.483   7.772   2.583  0.6836  0.0891  0.4445
14329SOL     OW46902  10.117   3.528   8.713 -0.0023 -0.3148  0.3553
14329SOL    HW146903  10.164   3.452   8.748  0.9387  0.3637  0.6255
14329SOL    HW246904  10.103   3.584   8.789  0.0536  0.1550  0.0219
14330SOL     OW46905   5.783   7.138   6.353 -0.8314  1.1999 -0.3405
14330SOL    HW146906   5.805   7.138   6.259 -0.5560 -2.2808 -0.4337
14330SOL    HW246907   5.864   7.164   6.397 -0.2266  0.6021 -1.0577
14331SOL     OW46908   1.279   9.737   2.808  0.0605  0.2967 -0.1559
14331SOL    HW146909   1.186   9.739   2.786 -0.3718 -3.0234  0.8312
14331SOL    HW246910   1.308   9.650   2.781  2.5189  0.6893  0.9576
14332SOL     OW46911   6.461   0.767   3.377  0.2221  0.3329 -0.3123
14332SOL    HW146912   6.515   0.757   3.456  1.9402  2.8445 -1.0642
14332SOL    HW246913   6.507   0.716   3.310 -0.3039 -0.3895 -0.1405
14333SOL     OW46914   6.303   4.649   0.923 -0.3782  0.3027 -0.2515
14333SOL    HW146915   6.352   4.626   0.844 -1.0637  2.4243 -1.3904
14333SOL    HW246916   6.366   4.639   0.994  1.1704  1.1395 -1.4361
14334SOL     OW46917   3.896   6.254   9.926 -0.0073 -0.0397 -0.1885
14334SOL    HW146918   3.950   6.241  10.004  0.7453 -0.5463 -0.7772
14334SOL    HW246919   3.809   6.273   9.960  0.0346 -1.4281  0.7825
14335SOL     OW46920   8.025   7.026   5.006  0.3955 -0.0534  0.3712
14335SOL    HW146921   7.987   6.942   5.032  1.5795 -0.0629  2.2059
14335SOL    HW246922   8.059   7.011   4.918 -2.3819 -0.4813 -0.7461
14336SOL     OW46923   8.199   1.080   5.824  0.3559 -0.3604  0.1029
14336SOL    HW146924   8.171   1.167   5.794  1.2262 -0.5460 -1.3801
14336SOL    HW246925   8.118   1.029   5.830 -0.1223  0.4349  0.6310
14337SOL     OW46926   4.841   9.365   6.854  0.1430  0.2787  0.0426
14337SOL    HW146927   4.832   9.397   6.944  1.8395 -0.8428  0.6635
14337SOL    HW246928   4.795   9.430   6.800  1.4260  2.4596  1.4446
14338SOL     OW46929   0.668   5.303   3.249 -1.0729  0.1834  0.2108
14338SOL    HW146930   0.653   5.253   3.329 -0.8814  0.2357  0.2803
14338SOL    HW246931   0.638   5.391   3.269 -0.5995  0.3110  0.3810
14339SOL     OW46932   4.642   9.899   5.077 -0.0672 -0.3765 -0.0625
14339SOL    HW146933   4.687   9.815   5.079  0.1593 -0.2548  0.1121
14339SOL    HW246934   4.693   9.952   5.017  0.2443 -0.1187  0.4204
14340SOL     OW46935   0.974   3.288   0.329  0.0194 -0.4393 -0.0006
14340SOL    HW146936   1.035   3.357   0.302 -0.9579  0.8115  0.9048
14340SOL    HW246937   1.001   3.266   0.418 -0.5781 -0.1689  0.2522
14341SOL     OW46938   2.711  10.152   5.490  0.9579 -0.0763  0.3308
14341SOL    HW146939   2.658  10.204   5.550 -3.3624  0.8253 -3.7290
14341SOL    HW246940   2.681  10.062   5.504  1.0310 -0.0827  0.4545
14342SOL     OW46941   9.324   9.462   5.555  0.3006  0.0951 -0.2128
14342SOL    HW146942   9.242   9.424   5.524  0.6858 -1.1800  0.2790
14342SOL    HW246943   9.301   9.503   5.638  0.3805 -1.3265  0.5385
14343SOL     OW46944   3.367   2.428   3.545 -0.6984  0.6137 -0.2090
14343SOL    HW146945   3.441   2.473   3.505 -1.2151  1.3477 -0.3496
14343SOL    HW246946   3.311   2.404   3.472 -1.2085  1.1676 -0.0024
14344SOL     OW46947   2.357   9.441   7.013  0.3242 -0.0714 -0.6291
14344SOL    HW146948   2.354   9.449   7.109  1.5138  0.4804 -0.6147
14344SOL    HW246949   2.359   9.531   6.982 -0.0219 -0.2518 -1.1776
14345SOL     OW46950   2.227   5.734   8.621  0.0506 -0.1675  0.1337
14345SOL    HW146951   2.260   5.695   8.540  0.2090 -0.5015  0.3541
14345SOL    HW246952   2.131   5.733   8.611  0.0956  1.5433 -0.8500
14346SOL     OW46953   7.185   2.884   5.303  0.4178 -0.5421  0.8923
14346SOL    HW146954   7.209   2.846   5.387 -1.4700  0.3900  1.9392
14346SOL    HW246955   7.191   2.812   5.241  2.3987 -1.1175  1.6738
14347SOL     OW46956   5.852   1.119   6.681 -0.1044 -0.3890  0.1909
14347SOL    HW146957   5.783   1.071   6.634  0.9202 -0.7098 -1.0615
14347SOL    HW246958   5.922   1.054   6.693 -0.0997 -0.1306  1.6352
14348SOL     OW46959   5.723   7.294   1.817  0.2912  0.1186  0.4679
14348SOL    HW146960   5.724   7.340   1.733  1.7851 -2.1108 -0.8512
14348SOL    HW246961   5.635   7.256   1.822  0.2479  0.1211 -0.1789
14349SOL     OW46962   2.448   3.335   4.425  0.2191 -0.5056 -0.1084
14349SOL    HW146963   2.531   3.298   4.393  0.1913 -0.3476 -0.3660
14349SOL    HW246964   2.469   3.426   4.446  0.3159 -0.6941  0.6368
14350SOL     OW46965   5.898   5.702   4.648 -0.0292 -0.3515 -0.0988
14350SOL    HW146966   5.916   5.635   4.582 -0.1951 -1.0162  0.5163
14350SOL    HW246967   5.820   5.671   4.694 -0.5981  0.6747 -0.3325
14351SOL     OW46968   2.055   0.595   3.786 -0.1901  0.9442 -0.0911
14351SOL    HW146969   1.972   0.639   3.767  0.4579  1.5101 -1.7939
14351SOL    HW246970   2.064   0.529   3.716 -0.0175 -0.3110  1.0740
14352SOL     OW46971   4.929   1.175   9.614 -0.2652 -0.6944  0.3669
14352SOL    HW146972   4.964   1.136   9.694 -0.3998 -1.3931  0.0891
14352SOL    HW246973   4.939   1.107   9.547  0.0360 -0.0538 -0.2650
14353SOL     OW46974   4.823   7.435   7.798 -0.1384 -0.0806 -0.2278
14353SOL    HW146975   4.838   7.458   7.707 -1.1631  2.5874  0.2002
14353SOL    HW246976   4.829   7.517   7.846  1.6873 -1.5576  2.3526
14354SOL     OW46977   1.907   7.096   9.904  0.7881 -0.0165 -0.2501
14354SOL    HW146978   1.921   7.176   9.955 -0.4539  0.8375 -1.1942
14354SOL    HW246979   1.960   7.030   9.949 -1.1544  0.3648  2.8894
14355SOL     OW46980   9.111   5.415   6.599  0.4396 -0.3373 -0.0998
14355SOL    HW146981   9.067   5.332   6.617  1.2200 -0.4591  1.4011
14355SOL    HW246982   9.137   5.448   6.685 -0.1176  1.6340 -0.6314
14356SOL     OW46983   7.939   4.624   1.416 -0.2502 -0.0454  0.0954
14356SOL    HW146984   7.910   4.714   1.401  0.4646  0.0806 -0.5942
14356SOL    HW246985   7.928   4.580   1.331 -0.7507 -0.6611  0.4656
14357SOL     OW46986   5.778   4.077   4.559  0.5738 -0.1608  0.5214
14357SOL    HW146987   5.745   4.134   4.628 -1.9232 -0.7836 -0.0557
14357SOL    HW246988   5.705   4.069   4.498  2.2806 -0.6076 -1.5898
14358SOL     OW46989   7.491   3.260   8.233 -0.4095  0.2973  0.0636
14358SOL    HW146990   7.551   3.309   8.177 -1.5153 -0.4732 -1.8847
14358SOL    HW246991   7.534   3.259   8.319  2.2491 -0.0542 -1.1643
14359SOL     OW46992   2.370   2.736   4.781  0.2378  0.4124 -0.2189
14359SOL    HW146993   2.437   2.675   4.811  1.1688  1.1110 -0.8187
14359SOL    HW246994   2.323   2.689   4.712  0.0436 -0.1111  0.2675
14360SOL     OW46995   8.559   2.333   8.295 -0.2063 -0.1757 -0.8272
14360SOL    HW146996   8.604   2.290   8.367  0.5220 -1.5500 -2.0402
14360SOL    HW246997   8.478   2.368   8.333 -0.0762 -1.2902  0.5322
14361SOL     OW46998   4.500   8.536   7.882  0.0201 -0.8176  0.5445
14361SOL    HW146999   4.459   8.579   7.807 -0.8228 -2.0410  0.2871
14361SOL    HW247000   4.460   8.579   7.958  0.0923 -0.3157  0.3066
14362SOL     OW47001   4.328   5.717   3.530 -0.1099 -0.1805 -0.2352
14362SOL    HW147002   4.296   5.757   3.611  1.0448  0.6179 -0.1532
14362SOL    HW247003   4.420   5.742   3.525 -0.0230 -0.6591 -1.5339
14363SOL     OW47004   3.725   0.180   4.600  0.0279  0.0705  0.3567
14363SOL    HW147005   3.717   0.095   4.645  1.5188 -0.5395 -0.4716
14363SOL    HW247006   3.793   0.226   4.649 -0.5274  0.6684  0.5837
14364SOL     OW47007   3.116   7.071   4.749  0.0881 -0.0008 -0.2470
14364SOL    HW147008   3.036   7.123   4.756 -0.4155 -0.9539  1.7457
14364SOL    HW247009   3.160   7.083   4.833  0.2735 -2.2409  0.0363
14365SOL     OW47010   4.969   3.464   6.829 -0.5036 -0.2376  0.3523
14365SOL    HW147011   4.880   3.467   6.795 -0.0441  1.7085 -0.8436
14365SOL    HW247012   4.963   3.507   6.914 -0.3325  2.3131 -0.8431
14366SOL     OW47013   4.059   2.272   1.571 -0.2485  0.9400 -0.1915
14366SOL    HW147014   4.039   2.225   1.652  1.6886  1.1695  0.4731
14366SOL    HW247015   4.101   2.353   1.600  0.5373  1.0001 -1.4324
14367SOL     OW47016   0.440   1.777   5.915  0.3810  0.6842  0.1646
14367SOL    HW147017   0.401   1.742   5.995  0.1720  0.5192 -0.0054
14367SOL    HW247018   0.461   1.700   5.862  0.0452  0.8026 -0.1540
14368SOL     OW47019   6.060   5.893   5.122 -0.5389  0.8084 -0.0375
14368SOL    HW147020   6.015   5.860   5.044 -0.7683  2.1254 -0.4884
14368SOL    HW247021   6.149   5.910   5.092 -0.4571  0.7099  0.1543
14369SOL     OW47022   2.703   4.580   0.024  0.4770 -0.1475  0.4309
14369SOL    HW147023   2.613   4.569   0.055  0.8902 -0.1414  1.7048
14369SOL    HW247024   2.753   4.598   0.103  1.7089 -0.7597 -0.1863
14370SOL     OW47025   6.707   9.764   1.554 -0.7711 -0.3597  0.1123
14370SOL    HW147026   6.635   9.801   1.605  0.4815  2.9870 -0.3141
14370SOL    HW247027   6.786   9.797   1.597  0.4275 -1.3168 -1.2836
14371SOL     OW47028   0.503   7.683   4.352 -0.5047 -0.0629 -0.0602
14371SOL    HW147029   0.509   7.744   4.425 -0.7755  0.2207 -0.2715
14371SOL    HW247030   0.535   7.600   4.387 -1.5857 -0.1895  0.6780
14372SOL     OW47031   8.636   6.310   9.569  0.2363  0.5306  0.0357
14372SOL    HW147032   8.656   6.231   9.619  2.7242  0.8365 -0.3399
14372SOL    HW247033   8.670   6.291   9.481  2.3187  2.5151  0.3277
14373SOL     OW47034   4.927   5.969   6.333 -0.0705 -0.8985 -0.3325
14373SOL    HW147035   4.895   5.879   6.330 -0.8017 -0.6971  0.7070
14373SOL    HW247036   4.865   6.015   6.390 -0.8457  0.7451 -2.3685
14374SOL     OW47037   2.827  10.146   2.572 -0.7557  0.0710 -0.8383
14374SOL    HW147038   2.886  10.103   2.634 -0.1347 -0.2583 -1.6312
14374SOL    HW247039   2.886  10.185   2.507 -1.3271  1.6325 -0.4520
14375SOL     OW47040   4.177   8.207   9.676 -0.6639  0.7280  0.2785
14375SOL    HW147041   4.208   8.297   9.664 -4.8353  2.2335 -0.8910
14375SOL    HW247042   4.111   8.213   9.745  0.1473 -1.8664  1.4184
14376SOL     OW47043   8.286   6.492   5.781  0.4302 -0.0621  0.0400
14376SOL    HW147044   8.299   6.413   5.728 -0.9790 -0.1188 -0.2485
14376SOL    HW247045   8.361   6.548   5.759  0.6147 -0.6689 -0.9356
14377SOL     OW47046   7.839   5.720   6.658  0.2330 -0.0485 -0.2221
14377SOL    HW147047   7.884   5.637   6.671  0.5074  0.2629  0.9558
14377SOL    HW247048   7.884   5.761   6.585  0.7475 -0.4926 -0.1576
14378SOL     OW47049   4.668   7.463   4.022  0.2762 -0.2101  0.1137
14378SOL    HW147050   4.665   7.490   4.114  0.0673  1.5294 -0.3722
14378SOL    HW247051   4.732   7.391   4.020  1.8015  1.0555  1.3026
14379SOL     OW47052   1.909   6.196   7.488 -0.0663  0.1167  0.8605
14379SOL    HW147053   2.001   6.185   7.462  0.4556  3.1385  1.0883
14379SOL    HW247054   1.859   6.165   7.413  1.1948  0.4974 -0.1760
14380SOL     OW47055   9.719   7.256   6.150  0.0514 -0.8038 -0.1863
14380SOL    HW147056   9.812   7.242   6.135  0.2826  1.5988 -1.4740
14380SOL    HW247057   9.716   7.323   6.218 -0.7308 -0.7759 -0.2403
14381SOL     OW47058   0.443   8.966   0.355  0.5194  0.3646  0.1206
14381SOL    HW147059   0.435   9.056   0.322  1.9902  1.3013  2.1333
14381SOL    HW247060   0.357   8.946   0.390 -0.6473 -0.1087 -2.7240
14382SOL     OW47061   3.502   5.146   2.039  0.0922 -0.2894  0.0517
14382SOL    HW147062   3.510   5.113   2.129  1.3897 -0.7605 -0.2051
14382SOL    HW247063   3.447   5.081   1.995  2.6302 -2.2764 -0.4463
14383SOL     OW47064   9.072   2.612   8.432  0.2356 -0.2090  0.0254
14383SOL    HW147065   9.049   2.670   8.504 -1.5462  0.6909 -1.1974
14383SOL    HW247066   9.026   2.530   8.451  0.7879 -0.4093  0.5254
14384SOL     OW47067   2.348   3.393   3.684  0.2888 -0.0932 -0.1434
14384SOL    HW147068   2.435   3.432   3.691  0.4293 -0.5757  1.2111
14384SOL    HW247069   2.314   3.423   3.600  1.0243  1.6263  0.1384
14385SOL     OW47070   2.467   1.612   2.495  0.0156 -0.5882 -0.2629
14385SOL    HW147071   2.398   1.560   2.537 -0.3415 -1.0803 -1.4092
14385SOL    HW247072   2.533   1.623   2.563 -1.3477  0.2427  0.9995
14386SOL     OW47073   8.366   6.853   5.028  0.3533 -0.3458 -0.2096
14386SOL    HW147074   8.349   6.902   5.108 -1.5109  0.0047 -0.7693
14386SOL    HW247075   8.345   6.762   5.050 -0.5401 -0.1928 -0.3716
14387SOL     OW47076   2.355   7.022   0.145 -0.1570 -0.1370  0.0631
14387SOL    HW147077   2.281   7.037   0.204 -0.5917  0.6454 -0.6505
14387SOL    HW247078   2.369   7.107   0.103  0.5598 -0.5147 -0.4831
14388SOL     OW47079   5.350  10.085   9.119  0.3102 -0.0894  0.2997
14388SOL    HW147080   5.388  10.074   9.205  0.0902 -0.0836  0.3980
14388SOL    HW247081   5.425  10.100   9.061  0.3880  1.1676  0.6873
14389SOL     OW47082   6.694   7.157  10.140 -0.0832  0.2239 -0.2847
14389SOL    HW147083   6.636   7.208  10.083 -1.4222 -1.0279 -0.0922
14389SOL    HW247084   6.637   7.120  10.207  1.2687  0.6113  1.1580
14390SOL     OW47085   4.387   6.328   7.982  0.1195  0.0304 -0.2903
14390SOL    HW147086   4.329   6.363   8.050 -1.7364 -1.2156 -1.1422
14390SOL    HW247087   4.403   6.238   8.007 -1.2529 -0.7042 -1.8250
14391SOL     OW47088   2.251   4.072   5.627  0.3574  0.3898  0.2697
14391SOL    HW147089   2.326   4.129   5.612  1.0108 -0.4429  0.3238
14391SOL    HW247090   2.271   3.991   5.580 -0.5341  0.1714  0.2302
14392SOL     OW47091   6.112   1.971   7.219  0.0401  0.0700  0.2316
14392SOL    HW147092   6.193   1.929   7.247 -1.1930 -1.9979  0.9138
14392SOL    HW247093   6.109   1.956   7.124 -0.6082 -1.9576  0.5213
14393SOL     OW47094   1.542   1.263   2.714 -0.1199  0.3050 -0.2281
14393SOL    HW147095   1.569   1.298   2.799 -2.3457  1.4415  0.0933
14393SOL    HW247096   1.581   1.176   2.711 -0.1886  0.1239  2.0964
14394SOL     OW47097   3.548   3.150   9.900 -0.3025 -0.3554 -0.6387
14394SOL    HW147098   3.554   3.088   9.828  1.0941  0.9580 -1.7179
14394SOL    HW247099   3.498   3.224   9.866 -1.4878 -0.6054  0.4586
14395SOL     OW47100   0.152   5.072   1.479  0.5211  0.3594 -0.2471
14395SOL    HW147101   0.180   5.085   1.389  0.5638 -0.6509 -0.3890
14395SOL    HW247102   0.194   4.990   1.506  1.6389  1.3577  1.1590
14396SOL     OW47103   4.836   9.450  10.012  0.5592  0.6124  0.4449
14396SOL    HW147104   4.883   9.470   9.932 -0.4502 -0.6658 -0.5027
14396SOL    HW247105   4.866   9.516  10.075 -0.1328  2.9540 -1.5385
14397SOL     OW47106   1.885   7.748   4.096  0.4879  0.3781  0.2266
14397SOL    HW147107   1.833   7.668   4.095 -0.3683  0.9024  1.0818
14397SOL    HW247108   1.838   7.809   4.041  0.5605  0.6362  0.4478
14398SOL     OW47109   2.961   9.316   2.702 -0.0739  0.4828 -0.3615
14398SOL    HW147110   3.055   9.297   2.705 -0.5917 -2.5822  0.2684
14398SOL    HW247111   2.931   9.277   2.620 -1.0678 -0.4412  0.4030
14399SOL     OW47112  10.104   1.133   9.039  0.3640 -0.2784 -0.5026
14399SOL    HW147113  10.117   1.038   9.037  0.7061 -0.2333 -2.1927
14399SOL    HW247114  10.165   1.167   8.974 -0.2129  1.0447 -0.3905
14400SOL     OW47115   1.077   1.194   9.795 -1.0276 -0.3711 -0.0846
14400SOL    HW147116   1.054   1.274   9.747  3.5841  0.2303 -1.8632
14400SOL    HW247117   1.084   1.127   9.727  0.9879 -0.6995  0.3722
14401SOL     OW47118   5.075   7.732   5.103 -0.3031 -0.1038 -0.1801
14401SOL    HW147119   5.061   7.751   5.196 -1.1975  1.7662 -0.6431
14401SOL    HW247120   5.013   7.789   5.058  0.8752 -0.1745 -1.9751
14402SOL     OW47121   5.779   9.197   6.143  0.2606 -0.1061  0.0504
14402SOL    HW147122   5.823   9.260   6.085 -0.5358  0.7617  0.3628
14402SOL    HW247123   5.728   9.142   6.083  0.4195 -0.0069 -0.1769
14403SOL     OW47124   1.139   0.984   3.311 -0.5585  0.1870  0.0638
14403SOL    HW147125   1.062   0.974   3.368  1.4253  0.7526  3.1034
14403SOL    HW247126   1.205   1.024   3.368  2.3965 -1.3901 -2.0095
14404SOL     OW47127   9.786   9.299   5.326 -0.2054  0.3716 -0.0639
14404SOL    HW147128   9.801   9.207   5.305 -0.4761 -0.2102  2.1289
14404SOL    HW247129   9.873   9.333   5.348 -0.3763  0.1205  1.0219
14405SOL     OW47130   1.865   7.546   1.620  0.3216  0.1905 -0.2403
14405SOL    HW147131   1.896   7.465   1.661  2.3795  1.0400  0.0210
14405SOL    HW247132   1.906   7.616   1.672 -0.4909  1.3770 -1.1387
14406SOL     OW47133   6.100   6.096   2.278 -0.0528  0.6235  0.2447
14406SOL    HW147134   6.114   6.185   2.309  0.7578  0.2535  0.9814
14406SOL    HW247135   6.177   6.078   2.223 -0.9083  0.8645 -1.0902
14407SOL     OW47136   7.167   5.059   3.109 -0.6034 -0.5110 -0.2643
14407SOL    HW147137   7.150   5.023   3.195  2.1496  0.6502  0.8772
14407SOL    HW247138   7.260   5.079   3.109 -0.4184 -0.7753 -3.6615
14408SOL     OW47139   3.434   2.106   3.593  0.3483 -0.0527  0.5617
14408SOL    HW147140   3.448   2.128   3.685  0.4186 -0.1663  0.5790
14408SOL    HW247141   3.407   2.014   3.594  0.7652 -0.1818  0.4397
14409SOL     OW47142   2.663   0.300   6.641 -0.3904  0.3265 -0.1326
14409SOL    HW147143   2.579   0.330   6.675 -0.3940  0.3307 -0.1452
14409SOL    HW247144   2.675   0.213   6.678 -1.1210 -0.3208 -1.3655
14410SOL     OW47145   8.286   1.486   7.364 -0.5101 -0.5171 -0.2833
14410SOL    HW147146   8.256   1.468   7.275 -0.4753 -1.3147 -0.1376
14410SOL    HW247147   8.345   1.414   7.385  0.6045  0.4149 -0.1280
14411SOL     OW47148   9.991   4.904   1.280 -0.3823  0.0241 -0.0229
14411SOL    HW147149   9.898   4.893   1.260 -0.6920  0.3753  1.1512
14411SOL    HW247150  10.003   4.999   1.281 -0.2061 -0.0038  0.6712
14412SOL     OW47151   1.352   0.976   7.572  0.9961  0.5685  0.1405
14412SOL    HW147152   1.317   0.890   7.547  1.9291 -0.0156  0.8180
14412SOL    HW247153   1.375   1.017   7.488  0.0418  0.3890 -0.2235
14413SOL     OW47154   0.692   2.863   4.145 -0.3278  1.0494 -0.2121
14413SOL    HW147155   0.750   2.807   4.196  0.2145  1.3630 -0.4784
14413SOL    HW247156   0.746   2.939   4.122 -0.9276  1.4836 -0.2143
14414SOL     OW47157   9.236   0.699   1.999  0.0998  0.0484 -0.5499
14414SOL    HW147158   9.230   0.622   1.943 -0.4642 -0.5200  0.2769
14414SOL    HW247159   9.324   0.695   2.036 -0.2803 -0.7869  0.3031
14415SOL     OW47160   0.492   2.889   7.124 -0.0606 -0.1747  0.2112
14415SOL    HW147161   0.446   2.833   7.061  0.5634  0.8915 -1.2443
14415SOL    HW247162   0.469   2.978   7.098  4.1004  0.5495 -1.7628
14416SOL     OW47163   3.447   8.039   6.107 -0.8392 -0.4531  0.0793
14416SOL    HW147164   3.382   8.102   6.074 -0.2871  0.1624  0.1620
14416SOL    HW247165   3.530   8.086   6.105 -0.2000 -1.5759 -1.0144
14417SOL     OW47166   6.078   9.109   1.138 -1.0228 -0.0802  0.4447
14417SOL    HW147167   6.162   9.064   1.149 -0.6878  0.5906  0.6751
14417SOL    HW247168   6.068   9.118   1.043 -0.3337  0.7443  0.4329
14418SOL     OW47169   1.381   5.642   3.353  0.1210  0.0311 -0.1070
14418SOL    HW147170   1.460   5.657   3.405 -0.5532  1.2350  0.6121
14418SOL    HW247171   1.316   5.702   3.390 -1.0688 -0.7637 -0.8362
14419SOL     OW47172   5.133   7.400   1.769  0.1246 -0.2792  0.1854
14419SOL    HW147173   5.124   7.312   1.732  1.3559  0.5935 -2.4841
14419SOL    HW247174   5.111   7.458   1.696  0.1833  1.6295  1.6258
14420SOL     OW47175   1.869   7.123   1.468  0.1395  0.6308 -0.6599
14420SOL    HW147176   1.864   7.164   1.555  1.7659  0.2295 -0.3476
14420SOL    HW247177   1.835   7.035   1.481  3.1958 -0.5444  0.3850
14421SOL     OW47178   4.695   4.516   6.046 -0.3994  0.1269  0.0077
14421SOL    HW147179   4.617   4.565   6.070 -0.7855  0.1024 -1.1495
14421SOL    HW247180   4.679   4.427   6.078 -0.5107  0.2939  0.4262
14422SOL     OW47181   9.185   2.211   3.551  0.2039  0.5412  0.2433
14422SOL    HW147182   9.106   2.165   3.579 -0.8065  2.7184  1.2623
14422SOL    HW247183   9.171   2.228   3.458 -0.5351  0.8863  0.4077
14423SOL     OW47184   9.492  10.126   8.895  0.0611  0.1373 -0.4127
14423SOL    HW147185   9.488  10.054   8.957 -1.6730  0.0796 -0.5457
14423SOL    HW247186   9.420  10.110   8.834 -0.6496  2.1743 -0.1968
14424SOL     OW47187   0.666   2.295   4.166 -0.4073 -0.2253  0.5550
14424SOL    HW147188   0.579   2.309   4.127  0.2427  2.0299 -0.2537
14424SOL    HW247189   0.726   2.305   4.092  0.6520  0.5999  1.5064
14425SOL     OW47190   6.355   8.905   9.438 -0.3647 -0.2316 -0.4965
14425SOL    HW147191   6.306   8.925   9.359  0.1480  0.1232 -0.7295
14425SOL    HW247192   6.338   8.979   9.497 -0.1904 -0.1556 -0.5403
14426SOL     OW47193   1.189   0.208   8.605 -0.5080 -0.6463  0.2214
14426SOL    HW147194   1.172   0.268   8.678 -0.3104 -0.1545 -0.1374
14426SOL    HW247195   1.102   0.185   8.573 -0.6002  1.9055 -1.6415
14427SOL     OW47196   7.653   2.865   4.253  0.0160  0.4609  0.1245
14427SOL    HW147197   7.607   2.880   4.335  1.6380  1.0338  0.9603
14427SOL    HW247198   7.744   2.885   4.272  0.3489  1.2562 -1.9844
14428SOL     OW47199   4.286   2.145  10.123  0.0283  0.2535 -0.0448
14428SOL    HW147200   4.381   2.151  10.122  0.0864 -0.6356 -0.0701
14428SOL    HW247201   4.267   2.068  10.176 -0.7012  0.8158  0.5377
14429SOL     OW47202   0.156   2.402   7.396 -0.1782 -0.0306 -0.7930
14429SOL    HW147203   0.131   2.384   7.306  0.9107  1.5476 -1.4620
14429SOL    HW247204   0.251   2.394   7.397 -0.3119 -3.8748  1.2060
14430SOL     OW47205   7.182   7.959   5.753 -0.3801  0.6723  0.2743
14430SOL    HW147206   7.136   8.037   5.782 -0.7991  0.9675 -1.1096
14430SOL    HW247207   7.269   7.965   5.793 -1.1751  0.6207  2.0954
14431SOL     OW47208   2.628   5.366   1.850 -0.0860  0.4082  0.1996
14431SOL    HW147209   2.592   5.400   1.931 -1.9572 -0.0716 -0.3643
14431SOL    HW247210   2.590   5.422   1.781 -0.9876 -1.0095 -0.5218
14432SOL     OW47211   3.719   7.933   8.059  0.1716  0.2573 -0.7199
14432SOL    HW147212   3.675   7.848   8.065  2.1137 -0.7561 -0.0215
14432SOL    HW247213   3.776   7.926   7.983  1.1317  0.5277 -0.0442
14433SOL     OW47214   5.468   6.214  10.033  0.2406 -0.3024 -0.0526
14433SOL    HW147215   5.507   6.128  10.017 -1.3439 -0.5492 -3.3066
14433SOL    HW247216   5.388   6.196  10.082  0.5473 -0.5073  0.3862
14434SOL     OW47217   1.497   7.368   2.990  0.3176 -0.1824 -0.5131
14434SOL    HW147218   1.498   7.274   3.004  0.6198 -0.1669 -0.4369
14434SOL    HW247219   1.588   7.396   3.002  0.1475  0.1877 -0.0495
14435SOL     OW47220  10.013   3.151   3.037  0.0823 -0.4608  0.3009
14435SOL    HW147221  10.072   3.106   3.097  1.0767 -0.3447 -0.5554
14435SOL    HW247222  10.065   3.224   3.002 -0.3045 -0.7880 -1.0170
14436SOL     OW47223   8.054   6.990   7.229  0.3873 -0.0520  0.3470
14436SOL    HW147224   8.072   6.896   7.228 -1.1296 -0.3567  0.5435
14436SOL    HW247225   8.122   7.027   7.172 -0.2816 -1.5072 -1.5155
14437SOL     OW47226   7.849   3.083   3.934 -0.2822  0.5588 -0.2240
14437SOL    HW147227   7.775   3.062   3.990 -0.9338  0.2667 -1.1759
14437SOL    HW247228   7.919   3.024   3.964 -0.1153  1.4502  1.2626
14438SOL     OW47229   6.784   0.027   9.232  0.0224  0.0137 -0.5730
14438SOL    HW147230   6.768  -0.049   9.176  2.6497 -1.6778  0.7536
14438SOL    HW247231   6.714   0.025   9.297 -0.7292 -0.3951 -1.3750
14439SOL     OW47232   0.482   9.576   1.425 -0.2728 -0.7546 -0.4065
14439SOL    HW147233   0.429   9.623   1.489  1.4891  1.2280 -0.3031
14439SOL    HW247234   0.538   9.518   1.478  2.4608  2.1619  0.2009
14440SOL     OW47235   0.814   8.050   9.109  0.3866  0.3384 -0.1639
14440SOL    HW147236   0.900   8.014   9.088  0.1752 -0.4427  0.2779
14440SOL    HW247237   0.822   8.083   9.198 -0.1640 -1.1162  0.4699
14441SOL     OW47238   8.194   2.599   4.985 -0.0464  0.0901 -0.3024
14441SOL    HW147239   8.236   2.559   5.061 -1.4035 -2.0666 -0.6102
14441SOL    HW247240   8.251   2.672   4.962  1.3241 -0.2652  1.7085
14442SOL     OW47241   0.166   9.500   9.035 -0.3085  0.7677  0.4046
14442SOL    HW147242   0.229   9.546   9.092  0.2511  1.6214 -0.8601
14442SOL    HW247243   0.082   9.512   9.078  0.1473  1.0735  1.2441
14443SOL     OW47244   8.898   0.370   1.214 -0.2580  0.1200 -0.4437
14443SOL    HW147245   8.825   0.415   1.170 -1.2609  0.2858  1.3099
14443SOL    HW247246   8.878   0.277   1.205 -2.1870  0.1630  2.2760
14444SOL     OW47247   1.989   7.346   5.709  0.2151 -0.2401  0.2340
14444SOL    HW147248   1.978   7.439   5.726  0.0547 -0.2872  0.3903
14444SOL    HW247249   2.048   7.315   5.777  0.1469 -0.2838  0.2736
14445SOL     OW47250   8.515   0.516   7.794 -0.1689  0.2076  0.4152
14445SOL    HW147251   8.522   0.434   7.745  1.1306 -0.1408  1.1378
14445SOL    HW247252   8.453   0.496   7.864 -1.7557  0.6021 -0.8159
14446SOL     OW47253   1.939   7.541   0.110  0.1399  0.6197 -0.3569
14446SOL    HW147254   1.954   7.586   0.193  0.5124  0.0721 -0.1230
14446SOL    HW247255   1.844   7.526   0.108  0.3993 -1.7613  1.2510
14447SOL     OW47256   2.998   1.208   9.617  0.0516 -0.0802  0.4570
14447SOL    HW147257   3.044   1.201   9.701 -0.5310  1.7545  0.9729
14447SOL    HW247258   2.914   1.248   9.640 -0.0641  0.5588 -1.0311
14448SOL     OW47259  10.112   7.571   5.053 -0.1355 -0.6553 -0.0850
14448SOL    HW147260  10.141   7.578   4.962  1.2633 -2.4517  0.1705
14448SOL    HW247261  10.062   7.490   5.057  1.3731 -1.5725  1.0922
14449SOL     OW47262   4.964   5.379   2.931 -0.2197 -0.0220 -0.1541
14449SOL    HW147263   4.981   5.445   2.864  0.9723  1.2434  1.3151
14449SOL    HW247264   4.903   5.420   2.992 -0.9515 -0.9920 -0.1978
14450SOL     OW47265   4.552   6.074   7.976 -0.0860 -0.0758  0.1604
14450SOL    HW147266   4.533   6.149   7.920 -1.0020  0.4984  1.2070
14450SOL    HW247267   4.619   6.025   7.928  0.7701  1.5717 -0.4048
14451SOL     OW47268   0.786   5.253   9.660 -0.4744 -0.0397  0.1677
14451SOL    HW147269   0.757   5.325   9.605  3.5007  1.1472 -0.7635
14451SOL    HW247270   0.820   5.295   9.739  1.4853 -0.8104 -0.1879
14452SOL     OW47271   0.781   7.968   2.670 -0.2926  0.5113  0.1685
14452SOL    HW147272   0.780   7.995   2.578 -2.1668 -1.3848 -0.4337
14452SOL    HW247273   0.824   8.041   2.715  0.4508  1.6166 -2.1492
14453SOL     OW47274   5.065   8.224   4.411 -0.1451  0.4614 -0.3514
14453SOL    HW147275   5.134   8.277   4.452 -0.7977  0.9609  0.1127
14453SOL    HW247276   5.104   8.137   4.404  0.3510  0.6173  0.3773
14454SOL     OW47277   4.831   1.433   3.704  0.1172  0.0903  0.5714
14454SOL    HW147278   4.862   1.388   3.782  0.3047 -0.6780  0.0645
14454SOL    HW247279   4.864   1.523   3.713  0.0045  0.0529  1.4371
14455SOL     OW47280   5.020   6.944   1.094  0.3864 -1.0521 -0.3110
14455SOL    HW147281   4.967   6.902   1.026 -0.3208  0.3689 -0.6905
14455SOL    HW247282   5.012   6.887   1.170 -2.0666 -0.6935 -0.2248
14456SOL     OW47283   5.038   6.855   9.591 -0.1942 -0.6784 -0.3512
14456SOL    HW147284   4.990   6.923   9.545 -0.0534 -1.6517 -1.9875
14456SOL    HW247285   5.025   6.876   9.684 -0.9567  0.9957 -0.7930
14457SOL     OW47286   0.505   8.424   7.433 -0.0901 -0.5816 -0.3144
14457SOL    HW147287   0.533   8.402   7.344  1.5985 -0.7120  0.2262
14457SOL    HW247288   0.536   8.514   7.446 -4.4362  1.4192 -1.4814
14458SOL     OW47289   6.669   6.199   8.341 -0.8567 -0.3382 -0.2909
14458SOL    HW147290   6.675   6.215   8.246 -0.9932 -0.7726 -0.3771
14458SOL    HW247291   6.684   6.105   8.350  0.0002 -0.1639  0.2021
14459SOL     OW47292   0.618   6.239   0.180  0.2658 -0.0660  0.2385
14459SOL    HW147293   0.581   6.229   0.092  0.1769 -0.5722  0.3293
14459SOL    HW247294   0.589   6.326   0.208 -1.1689 -0.5694  0.4339
14460SOL     OW47295   2.092   3.754   0.071 -0.4386 -0.9020  0.1778
14460SOL    HW147296   2.185   3.766   0.052 -0.7095 -1.8258 -1.8995
14460SOL    HW247297   2.063   3.841   0.099  1.2632 -0.8629  2.1382
14461SOL     OW47298   5.856   3.451   2.358 -0.3051  0.4068  0.0439
14461SOL    HW147299   5.889   3.539   2.374 -1.2157  0.6065  0.9591
14461SOL    HW247300   5.856   3.409   2.444 -2.4598  0.4626  0.1201
14462SOL     OW47301   3.507   5.148   1.339  0.3392  0.3451 -0.1583
14462SOL    HW147302   3.490   5.195   1.421 -0.7012  1.3153 -0.9089
14462SOL    HW247303   3.477   5.059   1.355  0.7130  0.3650  0.7049
14463SOL     OW47304   7.860   9.600   5.310  0.1294 -0.1932  0.0359
14463SOL    HW147305   7.875   9.507   5.330  0.7932 -0.6834 -2.4427
14463SOL    HW247306   7.945   9.641   5.325 -0.1748  0.0581  1.1734
14464SOL     OW47307   3.515   9.371   1.401 -0.2087 -0.4546  0.5494
14464SOL    HW147308   3.500   9.363   1.307  0.2875  0.8034  0.3511
14464SOL    HW247309   3.448   9.314   1.441 -1.8222  0.6306 -0.4840
14465SOL     OW47310   2.869   1.683   7.535  0.3841  0.5383 -1.0590
14465SOL    HW147311   2.930   1.738   7.487  0.9210  0.1123 -0.8827
14465SOL    HW247312   2.815   1.744   7.585  2.4311  0.8905  0.9027
14466SOL     OW47313   2.827   6.811   2.645  0.6686 -0.5525 -0.0353
14466SOL    HW147314   2.760   6.748   2.618  0.2948  0.5495 -1.8656
14466SOL    HW247315   2.839   6.867   2.569  0.5484  1.9875  1.7137
14467SOL     OW47316   0.413   9.714   0.482  0.2366  0.2354 -0.0893
14467SOL    HW147317   0.390   9.730   0.391 -0.1091  0.8942  0.1124
14467SOL    HW247318   0.445   9.623   0.483 -1.7699 -0.5285 -0.4845
14468SOL     OW47319   5.071   5.567   1.222 -0.1350 -0.2192  0.2115
14468SOL    HW147320   4.983   5.554   1.185 -0.7102  1.0636  1.0707
14468SOL    HW247321   5.095   5.481   1.255 -0.5810 -0.8566 -1.0255
14469SOL     OW47322   8.080   4.456   9.256 -0.1222  0.7161 -0.7628
14469SOL    HW147323   8.116   4.485   9.172 -0.6681  1.1002 -0.8668
14469SOL    HW247324   7.990   4.489   9.257  0.2233  1.7091  0.4519
14470SOL     OW47325   4.655   3.328   8.336 -0.3694 -0.1487  0.3887
14470SOL    HW147326   4.708   3.278   8.398  0.3720 -1.9882 -1.5845
14470SOL    HW247327   4.576   3.274   8.323 -1.1956  0.9324  0.8146
14471SOL     OW47328   2.557   5.812   7.771 -0.4736 -0.3598 -0.3078
14471SOL    HW147329   2.603   5.857   7.842  0.1680 -0.2594 -0.7741
14471SOL    HW247330   2.483   5.869   7.751 -0.9279 -0.6265  0.5958
14472SOL     OW47331   9.107   3.668   6.399  0.1144 -0.8011  0.0558
14472SOL    HW147332   9.027   3.719   6.386  0.0310 -0.8132  0.5120
14472SOL    HW247333   9.176   3.734   6.411  0.3962 -0.7672 -1.5416
14473SOL     OW47334   8.286   7.388   8.769  0.1244 -0.3398  0.0697
14473SOL    HW147335   8.322   7.450   8.831  0.7343 -1.0670  0.4541
14473SOL    HW247336   8.207   7.354   8.811  0.3321 -0.5555  0.2821
14474SOL     OW47337   8.400   6.027   9.021  0.2849  0.3642  0.3264
14474SOL    HW147338   8.332   5.970   9.057  0.3314 -1.9549 -2.8795
14474SOL    HW247339   8.354   6.106   8.994 -0.3229  0.6071  1.9327
14475SOL     OW47340   0.094   6.062   5.478 -0.1618 -0.1086  0.1102
14475SOL    HW147341   0.104   6.071   5.573  0.1081  1.2780 -0.0323
14475SOL    HW247342   0.068   5.971   5.465  0.7829 -0.5955  1.4364
14476SOL     OW47343   7.419   3.679   4.247 -0.1948 -0.2713 -0.0161
14476SOL    HW147344   7.339   3.709   4.289 -0.6726 -0.3537 -0.8344
14476SOL    HW247345   7.454   3.756   4.202  0.6178 -0.0424  0.9712
14477SOL     OW47346   8.177   4.510   8.530 -0.3596  0.2938  0.2542
14477SOL    HW147347   8.181   4.602   8.556 -0.9673  0.9750 -1.8849
14477SOL    HW247348   8.130   4.510   8.447 -1.0731 -2.0538  0.5740
14478SOL     OW47349   7.576   0.053   1.991 -0.2989 -0.6850 -0.1296
14478SOL    HW147350   7.571  -0.030   1.942 -0.9730 -0.8056  0.1253
14478SOL    HW247351   7.650   0.041   2.050 -0.2362 -1.0107 -0.2692
14479SOL     OW47352   1.949   7.779   4.623 -0.0658  0.1578 -0.0298
14479SOL    HW147353   1.932   7.815   4.536  1.3330  0.0560 -0.3639
14479SOL    HW247354   1.959   7.855   4.679  0.2439  0.2556 -0.2128
14480SOL     OW47355   8.381   2.436   8.907  0.6627 -0.5480 -0.1916
14480SOL    HW147356   8.364   2.347   8.939  1.4974 -0.7538 -0.2783
14480SOL    HW247357   8.441   2.473   8.972  0.2642 -0.0140 -0.1191
14481SOL     OW47358   6.334   2.323   0.287 -0.3288  0.6341  0.4787
14481SOL    HW147359   6.418   2.282   0.266 -0.8223 -0.2362  0.1634
14481SOL    HW247360   6.288   2.258   0.340 -1.8506 -0.0056 -1.5124
14482SOL     OW47361   3.627   9.164  10.024 -0.0229  0.3774  0.6531
14482SOL    HW147362   3.601   9.078   9.990  0.3074  0.3343  0.5010
14482SOL    HW247363   3.656   9.212   9.946 -0.7567  0.8325  0.6549
14483SOL     OW47364   8.109   1.508   4.680  0.0520 -0.1027 -0.2295
14483SOL    HW147365   8.076   1.446   4.746  1.4298  0.5642  1.1402
14483SOL    HW247366   8.030   1.539   4.636 -0.9852 -0.1848  1.4723
14484SOL     OW47367   3.547   5.403   1.958 -0.3767 -0.1085 -0.1127
14484SOL    HW147368   3.473   5.449   1.918 -0.4796  0.1719  0.3919
14484SOL    HW247369   3.510   5.321   1.989 -0.6371  0.3080  0.7234
14485SOL     OW47370   3.826   2.632   8.116  0.3011 -0.1985  0.1109
14485SOL    HW147371   3.919   2.652   8.103 -0.0430  1.2746 -0.3383
14485SOL    HW247372   3.782   2.680   8.046 -0.8415 -0.4380  0.6532
14486SOL     OW47373   2.872   5.227   1.096 -0.8967 -0.6210  0.0066
14486SOL    HW147374   2.965   5.206   1.092 -0.8903 -0.3928 -3.0530
14486SOL    HW247375   2.870   5.318   1.126 -0.1055 -0.4902 -0.3051
14487SOL     OW47376   9.322   9.315   0.615  0.5013  0.0265 -0.3248
14487SOL    HW147377   9.357   9.404   0.617  0.1639  0.1578 -0.0573
14487SOL    HW247378   9.396   9.259   0.638  0.4312  0.3401  0.7402
14488SOL     OW47379   3.159   3.960   1.518 -0.6173 -0.2019 -0.0671
14488SOL    HW147380   3.156   4.022   1.445 -2.5028  0.7726  0.7912
14488SOL    HW247381   3.068   3.952   1.548 -0.4138 -3.1239  0.1035
14489SOL     OW47382   5.692   7.628   7.399 -0.1690 -0.1292 -0.3145
14489SOL    HW147383   5.759   7.560   7.408 -1.0457 -0.7980  1.7045
14489SOL    HW247384   5.703   7.661   7.310  2.2566 -0.8131 -0.3385
14490SOL     OW47385   8.782   1.858   2.181 -1.1431 -0.0183  0.2319
14490SOL    HW147386   8.750   1.881   2.094  3.7130  3.6071 -1.0594
14490SOL    HW247387   8.766   1.936   2.234  1.8683  0.6276  0.4104
14491SOL     OW47388   1.193   0.064   6.669 -0.2118 -0.3802  0.3322
14491SOL    HW147389   1.252   0.085   6.596  0.2230 -0.4679  0.6542
14491SOL    HW247390   1.235  -0.010   6.713 -0.6381 -0.5373  0.4801
14492SOL     OW47391   8.519   0.264   3.994  0.0246  0.5125  0.2775
14492SOL    HW147392   8.433   0.223   3.990 -0.2389  1.1318 -0.8748
14492SOL    HW247393   8.512   0.342   3.938  1.0390  1.1300  0.9683
14493SOL     OW47394   1.302  10.049   2.344  0.1598  0.2283  0.0726
14493SOL    HW147395   1.246   9.987   2.390  0.2597  0.6605  0.7835
14493SOL    HW247396   1.321  10.117   2.408  1.1854  0.2844 -0.2681
14494SOL     OW47397   7.816   8.487  10.115 -0.5329  0.4871 -0.1558
14494SOL    HW147398   7.908   8.459  10.119 -0.4304  0.8889  0.6590
14494SOL    HW247399   7.784   8.453  10.032  0.1470 -0.3009 -0.1127
14495SOL     OW47400   4.520   8.530   5.965 -0.7508  0.1035  0.2800
14495SOL    HW147401   4.475   8.582   5.899 -0.9644 -1.1232 -0.5864
14495SOL    HW247402   4.535   8.590   6.038 -0.4637  1.5100 -0.9015
14496SOL     OW47403   7.643   4.119   1.434 -0.1501 -0.2140 -0.4081
14496SOL    HW147404   7.646   4.213   1.417  0.0560 -0.0571  0.4535
14496SOL    HW247405   7.699   4.106   1.510  0.9208 -1.2244 -1.3103
14497SOL     OW47406   9.737   5.242   5.450 -0.2249 -0.2342  0.1308
14497SOL    HW147407   9.648   5.267   5.474 -0.9521 -0.8024 -1.8112
14497SOL    HW247408   9.785   5.325   5.449 -0.9554  0.2026  0.2895
14498SOL     OW47409   8.292   4.136   9.840  0.2128  0.2132  0.3131
14498SOL    HW147410   8.217   4.084   9.808  1.4568 -2.1154  0.9821
14498SOL    HW247411   8.364   4.110   9.783  0.8462  1.4124  0.5479
14499SOL     OW47412   5.160   6.298   5.851 -0.7895 -0.0504  0.4499
14499SOL    HW147413   5.075   6.297   5.894 -1.7518 -0.8420 -1.3603
14499SOL    HW247414   5.169   6.387   5.818 -1.6541 -0.3686 -0.6918
14500SOL     OW47415   0.454   2.196   1.920  0.0285  0.0169  0.5525
14500SOL    HW147416   0.413   2.283   1.922 -1.5056 -0.6680  0.4759
14500SOL    HW247417   0.392   2.140   1.968  0.3313 -1.3002 -0.5489
14501SOL     OW47418   5.455   5.790   8.232  0.2855  0.5938 -0.1236
14501SOL    HW147419   5.528   5.794   8.294 -0.3958  1.4800  0.6689
14501SOL    HW247420   5.446   5.697   8.210 -0.5250 -0.0295  2.4789
14502SOL     OW47421   6.415   6.716   9.523 -0.2061 -0.4588  0.0092
14502SOL    HW147422   6.385   6.626   9.511  0.7572 -0.8318  0.2359
14502SOL    HW247423   6.342   6.770   9.493 -0.3688 -1.3089 -1.2213
14503SOL     OW47424   9.914   5.133   4.716 -0.3366 -0.0090 -0.0461
14503SOL    HW147425   9.963   5.187   4.655  1.4282 -1.2375  0.2290
14503SOL    HW247426   9.822   5.146   4.692  0.0782  2.4712 -0.4630
14504SOL     OW47427   3.576   8.430   3.286 -0.1879  0.8991 -0.5337
14504SOL    HW147428   3.618   8.473   3.211  0.5899  1.0975  0.0035
14504SOL    HW247429   3.492   8.476   3.296 -0.0694  1.2158 -0.9608
14505SOL     OW47430   9.434   8.623   2.184 -0.4500 -0.0942  0.5439
14505SOL    HW147431   9.523   8.639   2.153  0.2964  1.1377  3.0916
14505SOL    HW247432   9.386   8.702   2.161 -0.8330 -0.5926 -0.4603
14506SOL     OW47433   1.008   0.078   1.492 -0.1327 -0.1069  0.8411
14506SOL    HW147434   0.923   0.034   1.497  0.2748 -0.8819  1.0541
14506SOL    HW247435   1.043   0.072   1.581 -0.1896  0.9006  0.9430
14507SOL     OW47436   8.492   4.467   1.100 -0.2613 -0.0605 -0.3055
14507SOL    HW147437   8.398   4.488   1.102 -0.4227 -0.7910  0.1486
14507SOL    HW247438   8.497   4.385   1.050 -0.2051 -1.5916  2.0431
14508SOL     OW47439   3.594   0.368   3.685  0.1424 -0.1734  0.6411
14508SOL    HW147440   3.687   0.354   3.665  0.0777  0.6053 -0.2786
14508SOL    HW247441   3.592   0.375   3.781  0.9408 -0.7771  0.7206
14509SOL     OW47442  10.163   5.170   2.464 -0.2716 -0.2601  0.1503
14509SOL    HW147443  10.108   5.105   2.508  0.0165 -0.9081 -0.4287
14509SOL    HW247444  10.133   5.169   2.373  0.4378 -0.3508 -0.0912
14510SOL     OW47445   6.495   9.057   0.069  0.1328  0.7852 -0.5608
14510SOL    HW147446   6.457   9.144   0.051 -4.0948 -0.8441 -0.7921
14510SOL    HW247447   6.494   9.051   0.165  0.5706  1.0176 -0.5383
14511SOL     OW47448   8.697   2.220   6.635 -0.0701 -0.3774 -0.3024
14511SOL    HW147449   8.604   2.206   6.619 -0.2512 -0.3106  0.6532
14511SOL    HW247450   8.728   2.137   6.672 -0.3978  0.5009  2.1106
14512SOL     OW47451   8.822   1.792   3.062 -0.5230  0.0685 -0.4531
14512SOL    HW147452   8.891   1.726   3.054 -0.4251  0.1391 -0.1851
14512SOL    HW247453   8.822   1.837   2.977 -0.6993 -0.3819 -0.6993
14513SOL     OW47454   6.258   1.703   6.909 -0.7550  0.1511  0.8506
14513SOL    HW147455   6.267   1.615   6.874  1.1293  0.2227  1.0900
14513SOL    HW247456   6.279   1.694   7.002 -0.8498  0.8014  0.9394
14514SOL     OW47457   5.141   8.607   5.789  0.7978  0.3322 -0.1003
14514SOL    HW147458   5.088   8.557   5.727 -0.4282  0.2310  0.9855
14514SOL    HW247459   5.102   8.588   5.874  2.7694  0.0401  0.7896
14515SOL     OW47460   5.644   2.045   7.935  0.1328 -0.2217  0.2010
14515SOL    HW147461   5.561   2.000   7.922  0.8767 -2.0403  1.3461
14515SOL    HW247462   5.706   1.997   7.881  0.8610 -0.2953  1.0805
14516SOL     OW47463  10.113  10.042   0.589 -0.5306  0.6670 -0.4102
14516SOL    HW147464  10.186   9.987   0.617 -1.4812  0.1126  1.1063
14516SOL    HW247465  10.145  10.132   0.597  1.0287  0.4488 -2.8767
14517SOL     OW47466   9.507   7.000   1.316 -0.0810 -0.1119  0.5476
14517SOL    HW147467   9.563   7.002   1.394 -0.6702  0.0860  0.9707
14517SOL    HW247468   9.544   7.067   1.258  0.7099 -0.6540  0.3992
14518SOL     OW47469   8.709   2.883   1.090 -0.6781  0.1839 -0.6484
14518SOL    HW147470   8.690   2.818   1.022 -1.5489 -1.5037  1.1034
14518SOL    HW247471   8.623   2.914   1.117 -0.6415 -1.5865  1.8410
14519SOL     OW47472   1.092   1.928   5.858  0.2834  0.0354 -0.5672
14519SOL    HW147473   1.154   1.859   5.882  0.4531  0.7404  1.2016
14519SOL    HW247474   1.018   1.914   5.916  0.3640  1.3792 -0.1020
14520SOL     OW47475   3.916   2.747   6.558  0.0442 -0.2362 -0.0251
14520SOL    HW147476   3.880   2.684   6.621  2.1040 -0.9078  0.5767
14520SOL    HW247477   3.883   2.832   6.588  0.1458 -0.6519  1.3644
14521SOL     OW47478   4.559   6.862   0.735  0.2457  0.0463  0.3286
14521SOL    HW147479   4.515   6.792   0.688 -0.3793  0.3456  0.4517
14521SOL    HW247480   4.546   6.841   0.827 -0.7489  0.7924  0.3775
14522SOL     OW47481   1.806  10.025   6.019 -0.1395 -0.1938  0.2513
14522SOL    HW147482   1.848  10.040   5.934  1.6341 -0.9727  0.9513
14522SOL    HW247483   1.779   9.933   6.017  0.9771 -0.5463  0.9651
14523SOL     OW47484   7.127   6.357   8.686  0.8362 -0.0384 -0.1886
14523SOL    HW147485   7.101   6.395   8.770  0.9471 -0.1943 -0.0820
14523SOL    HW247486   7.044   6.343   8.639  0.8504  1.1953 -0.6135
14524SOL     OW47487   8.043   7.185   8.586  0.2565 -0.0364  0.0577
14524SOL    HW147488   8.106   7.255   8.566 -0.3365  0.7379  0.8273
14524SOL    HW247489   8.036   7.136   8.504  0.8494  0.6721 -0.4355
14525SOL     OW47490   5.438   9.357   2.140 -0.0793 -0.4343 -0.1629
14525SOL    HW147491   5.374   9.292   2.170  2.1153 -2.2574  0.8893
14525SOL    HW247492   5.517   9.338   2.191  1.9496  0.3914 -2.7408
14526SOL     OW47493   1.881   8.597   0.165 -0.1207 -0.4697 -0.4018
14526SOL    HW147494   1.845   8.666   0.110  1.6377 -0.3587 -1.4964
14526SOL    HW247495   1.965   8.575   0.124 -0.0819 -2.4141  0.6181
14527SOL     OW47496   3.565   0.868   0.314  0.1610  0.2140  0.1685
14527SOL    HW147497   3.630   0.923   0.357  1.2429 -0.5886 -0.3958
14527SOL    HW247498   3.603   0.781   0.315 -0.8063 -0.2306 -0.3895
14528SOL     OW47499   5.144   5.176   2.954  0.2287  0.1856 -0.4761
14528SOL    HW147500   5.097   5.253   2.921 -2.5168 -0.5833  1.3181
14528SOL    HW247501   5.172   5.200   3.042  1.2787 -0.1727 -0.6904
14529SOL     OW47502   6.347   0.500   0.257  0.0618 -0.0900 -0.2005
14529SOL    HW147503   6.366   0.487   0.350 -0.3031 -2.3369 -0.3871
14529SOL    HW247504   6.431   0.525   0.219  0.1246  1.3049  0.7741
14530SOL     OW47505   9.608   7.062   5.140  0.1776  0.0795  0.1027
14530SOL    HW147506   9.541   7.126   5.163 -0.2732 -0.6292  0.7989
14530SOL    HW247507   9.657   7.104   5.068 -1.3891  0.3502 -0.8518
14531SOL     OW47508   3.911   1.043   8.359  0.2081  0.7536 -0.0283
14531SOL    HW147509   3.866   0.965   8.393 -2.3915  2.2792  0.2734
14531SOL    HW247510   3.974   1.066   8.428  1.0352 -0.9986 -0.1197
14532SOL     OW47511   3.032   1.495   7.681 -0.4213  0.4263 -0.2762
14532SOL    HW147512   3.126   1.496   7.663 -0.0713 -0.5456  1.3448
14532SOL    HW247513   2.998   1.570   7.632  1.2041  0.8855 -0.7733
14533SOL     OW47514   8.285   3.217   4.761 -0.1793  0.2751  0.0191
14533SOL    HW147515   8.220   3.274   4.802 -2.8594 -0.7132 -2.5756
14533SOL    HW247516   8.306   3.259   4.678 -0.3059 -1.2592 -0.8252
14534SOL     OW47517   4.561   9.823   5.680 -0.0610  0.0253  0.7870
14534SOL    HW147518   4.595   9.878   5.609 -0.6083 -0.4407  0.1579
14534SOL    HW247519   4.466   9.833   5.674 -0.1669 -0.9844  0.6702
14535SOL     OW47520   5.706   1.212   6.056  0.0532 -0.0262 -0.2679
14535SOL    HW147521   5.696   1.129   6.009  1.4943 -0.4594  0.1324
14535SOL    HW247522   5.779   1.256   6.012  1.1668 -0.2596  1.2503
14536SOL     OW47523   0.743   1.546   3.788 -0.0892 -0.1554  0.1586
14536SOL    HW147524   0.685   1.493   3.843 -0.6796  0.0132 -0.3027
14536SOL    HW247525   0.808   1.580   3.849 -0.1455 -0.7939  0.5907
14537SOL     OW47526   6.930   3.063   5.142  0.1088 -0.5241  0.0371
14537SOL    HW147527   6.984   3.101   5.211 -0.0250 -0.0286 -0.1212
14537SOL    HW247528   6.840   3.068   5.176  0.1827 -1.6795  0.4510
14538SOL     OW47529   0.109   0.077   8.974  0.7337  0.2301 -0.3244
14538SOL    HW147530   0.039   0.022   9.008  2.6107 -1.8036  0.4886
14538SOL    HW247531   0.110   0.153   9.032 -0.7416  0.2800 -0.3357
14539SOL     OW47532   9.337   4.767   2.898 -0.7999 -0.3438 -0.0823
14539SOL    HW147533   9.265   4.724   2.853 -0.7214  1.0227 -1.6199
14539SOL    HW247534   9.413   4.754   2.840  0.3557 -2.1452  1.7122
14540SOL     OW47535   4.237   1.989   9.006  0.3871 -0.7845 -0.2509
14540SOL    HW147536   4.324   2.026   8.988  0.5751 -0.9431  0.3228
14540SOL    HW247537   4.255   1.907   9.050  0.0194 -2.3128 -2.7502
14541SOL     OW47538   9.669   1.526   4.171  0.4807 -0.4417 -0.0971
14541SOL    HW147539   9.732   1.524   4.243 -0.5104  2.4364  0.9815
14541SOL    HW247540   9.702   1.593   4.111 -1.0068  0.4028 -0.0183
14542SOL     OW47541   6.546   7.645   2.413 -0.1595  0.8584 -0.6887
14542SOL    HW147542   6.462   7.626   2.454 -0.7480  2.5843 -1.0256
14542SOL    HW247543   6.557   7.575   2.347  0.0045 -0.9512  1.1476
14543SOL     OW47544   3.747   1.995   5.842 -0.2132 -0.6239 -0.0304
14543SOL    HW147545   3.758   2.026   5.752 -0.6811  0.9646  0.4130
14543SOL    HW247546   3.800   1.916   5.848  0.2783 -0.4325 -1.5347
14544SOL     OW47547   0.107   2.690   2.604 -0.4120  0.3259  0.3291
14544SOL    HW147548   0.197   2.660   2.618 -0.6662 -0.0201  1.3138
14544SOL    HW247549   0.112   2.785   2.611  0.0593  0.4035 -0.7886
14545SOL     OW47550   6.212   8.360   6.090  0.5699  0.0822 -0.9647
14545SOL    HW147551   6.192   8.451   6.067 -0.3162  0.2054  0.1724
14545SOL    HW247552   6.126   8.320   6.105  0.9976 -0.6014 -0.2624
14546SOL     OW47553   7.514   0.521   8.596  0.3477  0.2779  0.0690
14546SOL    HW147554   7.438   0.568   8.561  0.2698 -1.0800 -1.7695
14546SOL    HW247555   7.576   0.590   8.618 -1.5528  1.4489  2.0982
14547SOL     OW47556   9.309   9.382   4.485  0.1802  0.3484  0.7547
14547SOL    HW147557   9.395   9.367   4.525 -0.5107 -1.1796  1.7363
14547SOL    HW247558   9.286   9.298   4.446 -0.1736  1.1988 -0.9475
14548SOL     OW47559   3.496   0.914   4.073  0.5821 -0.0333 -0.1094
14548SOL    HW147560   3.429   0.933   4.139  0.3835  0.0457 -0.3331
14548SOL    HW247561   3.476   0.973   4.000  1.0202  0.1367 -0.0944
14549SOL     OW47562   2.135   7.385   9.833  0.6593  0.6413  0.1302
14549SOL    HW147563   2.055   7.372   9.884  0.7561 -5.2406 -0.4684
14549SOL    HW247564   2.206   7.358   9.892  1.5022  0.2242 -1.0247
14550SOL     OW47565   5.598   1.931   7.292 -0.1831  0.1424  0.6368
14550SOL    HW147566   5.683   1.892   7.312  0.0554 -0.4598 -1.3863
14550SOL    HW247567   5.608   2.023   7.314  0.2323 -0.3074  2.5678
14551SOL     OW47568   8.270   6.417   3.284 -0.4169  0.0880  0.1429
14551SOL    HW147569   8.277   6.444   3.192 -0.6127  0.2237  0.1691
14551SOL    HW247570   8.343   6.461   3.328 -1.0415  0.9841  0.2855
14552SOL     OW47571   7.199   2.613   5.239  0.1993 -0.2389 -0.0020
14552SOL    HW147572   7.129   2.570   5.189  0.9436 -0.2800 -1.0329
14552SOL    HW247573   7.279   2.594   5.190  0.6569  1.6756 -0.0566
14553SOL     OW47574   1.585   1.926   2.725 -0.2458 -0.4540 -0.2253
14553SOL    HW147575   1.549   1.867   2.659 -0.0023 -0.3791 -0.4287
14553SOL    HW247576   1.524   1.999   2.729 -0.0396 -0.2554 -0.6757
14554SOL     OW47577   3.511   0.747   6.261 -0.6606  0.0293  0.5548
14554SOL    HW147578   3.506   0.658   6.295  0.1018  0.1267  0.9384
14554SOL    HW247579   3.595   0.750   6.214 -0.1116  0.8720  1.5374
14555SOL     OW47580   7.040   2.902   2.374  0.1347  0.1140 -0.0205
14555SOL    HW147581   7.035   2.853   2.456 -1.2945  0.6902  0.2787
14555SOL    HW247582   6.962   2.957   2.375 -0.5047 -0.6408 -2.2770
14556SOL     OW47583   0.054   5.464   4.615 -0.1537  0.0728  0.4198
14556SOL    HW147584   0.091   5.453   4.703  0.0403 -1.4892  0.1681
14556SOL    HW247585   0.086   5.550   4.586  1.9981 -0.5365  0.8152
14557SOL     OW47586   2.827   8.581   8.343 -0.3310 -0.2064 -0.0305
14557SOL    HW147587   2.868   8.545   8.422 -0.4968  0.6824  0.4762
14557SOL    HW247588   2.746   8.531   8.334 -0.9173  0.4829  1.0835
14558SOL     OW47589   8.745   9.535   3.848  0.2749 -0.1822 -0.4169
14558SOL    HW147590   8.719   9.625   3.829 -0.1212 -0.4325 -1.1293
14558SOL    HW247591   8.836   9.541   3.874  0.4279  0.3609 -1.0425
14559SOL     OW47592   0.436   7.155   9.651  0.0609 -0.1921 -0.0585
14559SOL    HW147593   0.479   7.070   9.640 -0.7217 -0.2912 -3.6144
14559SOL    HW247594   0.508   7.218   9.654  0.5872 -0.7407 -0.8113
14560SOL     OW47595   7.940   1.833   9.506 -0.5130 -0.1416 -0.3808
14560SOL    HW147596   8.006   1.902   9.517 -1.8875  1.4789 -1.7739
14560SOL    HW247597   7.982   1.769   9.448  0.3595  0.0590  0.0019
14561SOL     OW47598   8.458   9.093   3.136 -0.0617 -0.1048  0.0609
14561SOL    HW147599   8.398   9.163   3.162  0.0935 -0.2183  0.7293
14561SOL    HW247600   8.512   9.133   3.068 -1.3982 -0.2356 -1.1385
14562SOL     OW47601   6.033   2.101   1.372 -0.1052  0.2809  0.4425
14562SOL    HW147602   6.037   2.108   1.277  0.6847 -0.9326  0.3552
14562SOL    HW247603   5.962   2.039   1.388  0.7665 -0.7221  0.5439
14563SOL     OW47604   0.406   6.193   3.510  0.1500  0.4411  0.3140
14563SOL    HW147605   0.411   6.171   3.603 -2.4755  1.2273  0.7097
14563SOL    HW247606   0.350   6.271   3.506 -0.5997 -0.1284 -1.9820
14564SOL     OW47607   3.780   9.932   7.416 -0.0714 -0.1656  0.1254
14564SOL    HW147608   3.710   9.991   7.443  0.1245 -0.2937  0.9343
14564SOL    HW247609   3.793   9.874   7.491  2.3566  1.1946  0.8964
14565SOL     OW47610   3.689   2.549  10.041  0.1386  0.0688  0.4071
14565SOL    HW147611   3.647   2.495   9.974  0.7119  0.8149 -0.6011
14565SOL    HW247612   3.659   2.638  10.022 -2.1510 -0.0057  3.0788
14566SOL     OW47613   5.244   5.242   3.201  0.0400 -0.1868  0.2477
14566SOL    HW147614   5.336   5.268   3.205 -0.0472  0.2732 -0.5158
14566SOL    HW247615   5.240   5.158   3.246  1.1134 -0.9393 -0.9868
14567SOL     OW47616   9.393   9.127   5.512 -0.3512  0.1789 -0.1121
14567SOL    HW147617   9.350   9.135   5.598  1.1360  0.5222  0.6239
14567SOL    HW247618   9.320   9.118   5.450 -1.4447 -1.1029  1.2766
14568SOL     OW47619   8.873   5.345   8.566  0.1999 -0.5267  0.1861
14568SOL    HW147620   8.931   5.373   8.637  2.6594 -0.6778 -1.6547
14568SOL    HW247621   8.881   5.250   8.564  3.0270 -0.3863 -2.4090
14569SOL     OW47622   7.649   8.582   9.218 -0.0234  0.4368 -0.3786
14569SOL    HW147623   7.675   8.591   9.126 -1.8989  1.5344 -0.8731
14569SOL    HW247624   7.578   8.517   9.216  0.1164  0.2560  0.3435
14570SOL     OW47625   2.884   7.911  10.205  0.1069 -0.0217 -0.7510
14570SOL    HW147626   2.899   7.913  10.111 -0.9673  0.9386 -0.9209
14570SOL    HW247627   2.956   7.963  10.242  1.2668 -1.4569 -0.8993
14571SOL     OW47628   0.821   9.136   8.942  0.2167  0.4202  0.2769
14571SOL    HW147629   0.748   9.099   8.992  1.4688  0.1699  2.0084
14571SOL    HW247630   0.788   9.221   8.912 -0.6312  0.5530  1.4945
14572SOL     OW47631   7.180   7.283   1.532 -0.0175  0.1364 -0.5918
14572SOL    HW147632   7.170   7.188   1.526 -0.1098  0.1014  0.0097
14572SOL    HW247633   7.106   7.318   1.482  0.0416 -0.1074 -0.8505
14573SOL     OW47634   8.113   3.559   2.752  0.2763  0.2410  0.1181
14573SOL    HW147635   8.179   3.491   2.737  1.7118  1.3333  1.1494
14573SOL    HW247636   8.057   3.524   2.822  1.4089  0.3530  1.1091
14574SOL     OW47637   3.095   8.153   4.169  0.3723  0.3720  0.2856
14574SOL    HW147638   3.091   8.247   4.189 -0.2867  0.2240  0.8790
14574SOL    HW247639   3.111   8.112   4.254  0.9746 -0.0341 -0.0220
14575SOL     OW47640   7.817   3.711   6.584 -0.5021  0.4730  0.1160
14575SOL    HW147641   7.769   3.690   6.664 -1.2624 -1.1410 -0.7174
14575SOL    HW247642   7.881   3.777   6.611 -0.4340 -0.3535  2.1596
14576SOL     OW47643   0.085   2.823   9.350  0.3020  0.3271  0.1444
14576SOL    HW147644   0.139   2.889   9.307 -0.1966  0.7853  0.2149
14576SOL    HW247645   0.127   2.810   9.435  0.7861  0.0571 -0.1299
14577SOL     OW47646   5.377   6.396   4.096  0.0217 -0.4271  0.1466
14577SOL    HW147647   5.410   6.334   4.030  0.5811 -0.4598  0.4443
14577SOL    HW247648   5.304   6.350   4.137  1.2392 -1.4753  1.2658
14578SOL     OW47649   2.917   3.972   1.628 -0.0423  0.2692  0.0410
14578SOL    HW147650   2.838   3.933   1.590 -0.5924  1.1393  0.2673
14578SOL    HW247651   2.926   3.930   1.714  0.3200 -0.5625 -0.3943
14579SOL     OW47652   8.209   6.601   9.278 -0.6615 -0.0537  0.4711
14579SOL    HW147653   8.114   6.603   9.267 -0.5605  2.4378 -0.5324
14579SOL    HW247654   8.223   6.558   9.363 -2.6096 -1.1723  0.2672
14580SOL     OW47655   7.627   8.639   9.866  0.4136  0.5729 -0.1229
14580SOL    HW147656   7.687   8.662   9.937  1.7879  1.0633 -1.3894
14580SOL    HW247657   7.632   8.543   9.861  3.8252  0.6950 -2.3626
14581SOL     OW47658   4.470   8.083   7.319  0.0216 -0.0572 -0.1806
14581SOL    HW147659   4.527   8.024   7.270 -1.5861 -1.4954 -0.3983
14581SOL    HW247660   4.529   8.131   7.377  1.2959 -2.7604  0.9130
14582SOL     OW47661   3.387   3.130   4.877 -0.2203 -0.7733 -0.0593
14582SOL    HW147662   3.372   3.150   4.784 -1.9229  0.5628  0.4497
14582SOL    HW247663   3.436   3.048   4.876  0.8451 -0.1821 -2.1580
14583SOL     OW47664   1.362   6.577   2.328  0.0787 -0.0623  0.3311
14583SOL    HW147665   1.300   6.601   2.259  1.0196  1.4298 -0.0541
14583SOL    HW247666   1.421   6.652   2.334  1.0858 -0.9062  1.5550
14584SOL     OW47667   5.657   0.540   4.432 -0.0723  0.0493 -0.2462
14584SOL    HW147668   5.719   0.468   4.417 -0.9588 -0.7722 -0.0361
14584SOL    HW247669   5.676   0.602   4.362  1.7782  0.3735  0.4755
14585SOL     OW47670   7.020   7.047   7.585 -0.8162  0.2785 -0.0946
14585SOL    HW147671   7.091   7.097   7.546  0.9320  0.7316  3.3177
14585SOL    HW247672   6.941   7.097   7.564  0.4028  2.2886 -0.1589
14586SOL     OW47673   1.102   6.326   5.298  0.4099 -0.1028  0.1624
14586SOL    HW147674   1.145   6.324   5.383  0.9341  0.5413 -0.0729
14586SOL    HW247675   1.087   6.420   5.281  1.5206 -0.1102 -1.0365
14587SOL     OW47676   5.630   6.766   6.692  0.2123 -0.0206  0.4232
14587SOL    HW147677   5.665   6.827   6.626 -2.5559  0.9045 -0.3496
14587SOL    HW247678   5.538   6.792   6.702 -0.7553 -3.2327  1.0919
14588SOL     OW47679   8.914   4.182   7.988  0.5127  0.0570  0.6133
14588SOL    HW147680   8.967   4.239   7.931 -0.8735  1.0693  0.3012
14588SOL    HW247681   8.861   4.131   7.927  0.4664 -0.3067  0.9555
14589SOL     OW47682   9.614   4.702   2.178 -0.1347 -0.0466  0.3473
14589SOL    HW147683   9.623   4.618   2.132  0.0938 -0.1175  0.5241
14589SOL    HW247684   9.523   4.704   2.207 -0.4347  0.2295 -0.5681
14590SOL     OW47685   1.851   6.823   9.802  0.2842 -0.1272  0.1749
14590SOL    HW147686   1.771   6.876   9.807  0.0391 -0.4677 -0.0422
14590SOL    HW247687   1.904   6.852   9.876  0.1555  0.4269  0.0510
14591SOL     OW47688   5.021   7.695   8.550  0.6953  0.2141 -0.0805
14591SOL    HW147689   4.971   7.774   8.532 -0.9674 -0.7565  0.1532
14591SOL    HW247690   5.053   7.708   8.640  0.4378  0.6201 -0.0431
14592SOL     OW47691   6.250  10.025   7.382 -0.3953  0.2162  0.3702
14592SOL    HW147692   6.198   9.955   7.422 -1.2121  0.6560  0.0991
14592SOL    HW247693   6.186  10.080   7.338  0.5236 -0.8084 -2.4722
14593SOL     OW47694   1.549   6.580   9.833 -0.1100 -0.1931  0.1676
14593SOL    HW147695   1.465   6.569   9.878  0.0788  0.4740  0.7114
14593SOL    HW247696   1.527   6.583   9.740 -0.6069 -0.7422  0.2598
14594SOL     OW47697  10.108   3.945   8.456  0.4024  0.3224 -0.4747
14594SOL    HW147698  10.035   3.985   8.407 -0.1347 -0.8042 -0.6247
14594SOL    HW247699  10.179   4.009   8.450 -0.0154  0.6879 -1.7869
14595SOL     OW47700   3.105   4.126   5.496  0.0015 -0.3257 -0.2841
14595SOL    HW147701   3.138   4.179   5.423  0.2201 -1.0046 -0.6825
14595SOL    HW247702   3.015   4.155   5.508  0.2148  0.3672 -0.2783
14596SOL     OW47703   0.176   1.394   5.045  0.0497 -0.7137  0.5177
14596SOL    HW147704   0.255   1.343   5.023  0.7874  0.4673  0.3531
14596SOL    HW247705   0.104   1.331   5.037  0.8471 -1.5477 -0.4094
14597SOL     OW47706   7.233   4.228   8.818 -0.3996 -0.0152  0.2247
14597SOL    HW147707   7.142   4.203   8.833  0.2431 -1.7764  1.5267
14597SOL    HW247708   7.261   4.174   8.743 -0.8197  1.6371 -1.1754
14598SOL     OW47709   1.519   1.129   9.691  0.2519 -0.5712 -0.3646
14598SOL    HW147710   1.457   1.198   9.667  0.5565 -0.3101 -0.3971
14598SOL    HW247711   1.476   1.083   9.763 -0.1503 -0.6307 -0.6403
14599SOL     OW47712   3.322   1.551   3.862  0.1193  0.0290 -0.4521
14599SOL    HW147713   3.394   1.558   3.798  1.3040 -1.3686  0.6525
14599SOL    HW247714   3.357   1.593   3.941 -1.0110  0.9765 -0.4329
14600SOL     OW47715   2.060   9.747   3.537  0.0068 -0.0377 -0.2198
14600SOL    HW147716   2.021   9.789   3.461  2.6106 -0.3524 -1.8592
14600SOL    HW247717   1.991   9.690   3.571 -1.5939  0.9680 -1.6399
14601SOL     OW47718   7.288   2.058   9.366 -0.5555 -0.2774 -0.7219
14601SOL    HW147719   7.302   2.096   9.279  1.6677  0.1038 -0.2448
14601SOL    HW247720   7.375   2.034   9.396 -1.2821 -0.4582  1.3924
14602SOL     OW47721   7.754   6.654   3.570 -0.3501  0.1516 -0.2079
14602SOL    HW147722   7.691   6.725   3.581  0.2016  0.8454 -1.3016
14602SOL    HW247723   7.749   6.633   3.477  1.5028  0.6937 -0.4591
14603SOL     OW47724  10.151   2.581   9.521  0.4431  0.6045  0.3956
14603SOL    HW147725  10.244   2.565   9.507  0.4162  0.0198  0.8553
14603SOL    HW247726  10.141   2.587   9.616 -0.0633  0.2101  0.3714
14604SOL     OW47727   0.923   9.403   2.867 -0.6047  0.0575 -0.0630
14604SOL    HW147728   0.912   9.485   2.916 -1.7093 -0.2658  0.2629
14604SOL    HW247729   0.834   9.376   2.846 -0.3422 -1.6650  0.8478
14605SOL     OW47730   1.431   6.606   4.073  0.0317 -0.6291 -0.1771
14605SOL    HW147731   1.403   6.579   3.986 -1.9682 -0.5687  0.3948
14605SOL    HW247732   1.354   6.650   4.110  1.2338  0.4219  1.1703
14606SOL     OW47733   4.194   7.893   5.678 -0.0135  0.4045 -0.1244
14606SOL    HW147734   4.242   7.850   5.749  0.5730  0.4604 -0.4818
14606SOL    HW247735   4.122   7.938   5.722  1.1806  1.6469  0.6217
14607SOL     OW47736   2.836   7.382   1.461  0.3974 -0.8813 -0.5836
14607SOL    HW147737   2.866   7.342   1.379  0.9467  1.9170 -1.8651
14607SOL    HW247738   2.757   7.430   1.437 -0.3217 -1.2607  0.9116
14608SOL     OW47739   0.837   8.644   0.511 -0.4585 -0.1653 -0.2049
14608SOL    HW147740   0.808   8.694   0.587  0.6283  1.0859 -0.5572
14608SOL    HW247741   0.765   8.650   0.449 -0.5504  0.5406 -0.0379
14609SOL     OW47742   0.437   8.524   5.675  0.5976 -0.3035  0.2250
14609SOL    HW147743   0.478   8.611   5.683  0.9008 -0.4903  0.7811
14609SOL    HW247744   0.478   8.486   5.598  0.2890  0.1407 -0.1646
14610SOL     OW47745   8.637   9.275   0.371 -0.7851  0.2104 -0.7338
14610SOL    HW147746   8.710   9.254   0.430 -1.5443  0.1056  0.1964
14610SOL    HW247747   8.663   9.357   0.329 -0.8581  1.0888  0.8695
14611SOL     OW47748   2.953   5.944   2.464 -0.1320 -0.0718 -0.0969
14611SOL    HW147749   2.928   5.994   2.542 -1.8276 -0.1649 -0.5395
14611SOL    HW247750   2.876   5.891   2.444  0.1736  0.1397 -1.9963
14612SOL     OW47751  10.167   9.099   8.740  0.3553  0.3514  0.8341
14612SOL    HW147752  10.259   9.072   8.735  0.2760  0.1312  0.5060
14612SOL    HW247753  10.152   9.114   8.833  0.3488 -0.9803  1.0680
14613SOL     OW47754   8.124   9.303   7.952 -0.1131 -0.0456  0.0854
14613SOL    HW147755   8.087   9.319   8.039 -1.5277 -0.1065 -0.4688
14613SOL    HW247756   8.048   9.304   7.893  0.5944 -1.5721 -0.9449
14614SOL     OW47757   1.781   6.507   4.457 -0.5279 -0.3225  0.1103
14614SOL    HW147758   1.857   6.450   4.443 -0.8231 -0.6858 -0.0128
14614SOL    HW247759   1.787   6.532   4.549 -2.2935 -3.3525  1.1760
14615SOL     OW47760  10.039   4.395   4.121  0.6620 -0.0887  0.0701
14615SOL    HW147761   9.959   4.376   4.170  1.2332 -0.7162  0.7674
14615SOL    HW247762  10.110   4.381   4.184  1.4303 -1.1761 -0.9978
14616SOL     OW47763   8.481   3.987   3.428  0.2523  0.0383 -0.3896
14616SOL    HW147764   8.421   3.959   3.498 -0.6174 -1.7965 -1.7986
14616SOL    HW247765   8.517   4.070   3.460 -1.1499 -0.0465  1.6152
14617SOL     OW47766   7.628   8.542   2.015 -0.1140  0.3447 -0.2980
14617SOL    HW147767   7.703   8.522   1.959 -0.1040 -4.0970  0.9238
14617SOL    HW247768   7.556   8.558   1.954  0.4537 -1.9112 -1.6873
14618SOL     OW47769   8.163   1.140   2.119  0.3788 -0.1278 -0.4203
14618SOL    HW147770   8.219   1.185   2.182 -3.5480  2.4560  1.6434
14618SOL    HW247771   8.141   1.057   2.161  1.0844 -0.3023 -0.3819
14619SOL     OW47772   9.510   0.412   8.185 -0.6048 -0.1773  0.3348
14619SOL    HW147773   9.532   0.427   8.277 -0.5896  2.8877 -0.0394
14619SOL    HW247774   9.592   0.429   8.138 -0.9959 -0.0894 -0.3233
14620SOL     OW47775   5.168   7.245   7.387 -0.7911  0.9750 -0.2425
14620SOL    HW147776   5.109   7.320   7.385 -2.1340 -0.0452 -0.8690
14620SOL    HW247777   5.131   7.187   7.454 -0.2841  0.4759 -0.3821
14621SOL     OW47778   4.811   8.122   8.871  0.0022  0.2223 -0.2149
14621SOL    HW147779   4.740   8.182   8.890  0.8455  1.9330 -2.1061
14621SOL    HW247780   4.824   8.073   8.953 -2.2432  0.9602  0.6454
14622SOL     OW47781   9.529   3.361   2.683 -0.0035  0.0217 -0.1572
14622SOL    HW147782   9.491   3.338   2.598 -0.1579 -1.2145  0.2304
14622SOL    HW247783   9.572   3.280   2.712 -0.8429  0.1109  1.4194
14623SOL     OW47784   8.252   1.036   8.035  0.2855  0.3165  0.3071
14623SOL    HW147785   8.249   1.000   7.946  1.9528  0.4605  0.1434
14623SOL    HW247786   8.335   1.004   8.070 -1.3227 -1.5838  2.6783
14624SOL     OW47787   4.966   1.061   6.815  0.9499 -0.1486 -0.2041
14624SOL    HW147788   4.955   0.971   6.784  3.0128 -0.1248 -1.1538
14624SOL    HW247789   4.950   1.115   6.738 -1.7892  0.4808  0.6881
14625SOL     OW47790   3.319   8.697   1.432 -0.0712  0.1433 -0.1987
14625SOL    HW147791   3.322   8.674   1.339 -0.8308  0.7594 -0.3835
14625SOL    HW247792   3.374   8.630   1.474  1.9265  0.9980 -1.2914
14626SOL     OW47793   5.044   5.795   8.772  0.1742  0.2126 -0.0769
14626SOL    HW147794   5.028   5.885   8.745 -2.6175 -0.4030 -0.7079
14626SOL    HW247795   5.010   5.742   8.700 -2.8062 -1.4003  2.3314
14627SOL     OW47796   4.665   7.238   9.070 -0.0061 -0.4003 -1.0202
14627SOL    HW147797   4.655   7.228   9.164  1.5942  2.0818 -0.5024
14627SOL    HW247798   4.617   7.164   9.033 -1.4152 -0.9645  1.6830
14628SOL     OW47799   0.168   5.573   3.761 -0.6896  0.3409 -0.2774
14628SOL    HW147800   0.177   5.668   3.765 -1.0284  0.3369  1.8046
14628SOL    HW247801   0.073   5.558   3.752 -0.5651  0.1810 -1.5143
14629SOL     OW47802   5.646   1.377   0.578 -0.2087  0.0609  0.3037
14629SOL    HW147803   5.593   1.299   0.563  0.9849 -0.8410  0.6001
14629SOL    HW247804   5.672   1.371   0.671  1.5799 -0.3181 -0.1733
14630SOL     OW47805   6.171   7.921   6.612  0.2662 -0.5581 -0.1548
14630SOL    HW147806   6.093   7.975   6.624 -0.6304 -2.0159  1.0265
14630SOL    HW247807   6.240   7.970   6.656 -1.0830 -1.4590  3.3887
14631SOL     OW47808   3.153   5.298   9.970  0.6260 -0.1403 -1.0092
14631SOL    HW147809   3.227   5.292  10.030  1.6732  0.4720 -2.1777
14631SOL    HW247810   3.088   5.350  10.017  1.8001  1.1495 -0.7344
14632SOL     OW47811   1.064   6.755   6.002  0.4032  0.2808  0.3322
14632SOL    HW147812   0.987   6.811   6.002  0.5890  0.5416 -0.3377
14632SOL    HW247813   1.069   6.722   6.092 -1.0005 -0.4541  0.1638
14633SOL     OW47814   7.278   5.248   8.305  0.2200 -0.0681  0.5030
14633SOL    HW147815   7.287   5.293   8.389 -2.0874  0.7319  0.3818
14633SOL    HW247816   7.185   5.228   8.298  0.4969 -0.9051 -1.4829
14634SOL     OW47817   9.550   3.313   9.096 -0.4120  0.1979 -0.0365
14634SOL    HW147818   9.532   3.255   9.022  1.7367 -0.4467 -0.1377
14634SOL    HW247819   9.584   3.393   9.057  1.1818 -0.3221  0.2166
14635SOL     OW47820   6.001   6.223   8.376 -0.2039 -0.1013  0.1230
14635SOL    HW147821   5.973   6.315   8.371  1.6172  0.6061  1.6511
14635SOL    HW247822   6.065   6.213   8.306 -1.3424 -0.6233 -0.8836
14636SOL     OW47823   5.082   3.583   2.260 -0.1770 -0.1134 -0.1486
14636SOL    HW147824   5.018   3.570   2.191  1.3958 -1.5167 -1.4357
14636SOL    HW247825   5.075   3.505   2.315  0.2044 -0.1322 -0.1223
14637SOL     OW47826   0.649   1.847   1.488 -1.2330  0.8700  0.3150
14637SOL    HW147827   0.658   1.835   1.582  0.4332 -0.6098  0.0096
14637SOL    HW247828   0.700   1.926   1.469  1.9293 -1.0460  0.1874
14638SOL     OW47829   5.096   4.191   0.455  0.1506  0.0015  0.0756
14638SOL    HW147830   5.059   4.112   0.495  2.3423 -1.9484 -1.4597
14638SOL    HW247831   5.032   4.260   0.472 -1.4457 -1.8922  2.2567
14639SOL     OW47832   4.527   0.166   8.197  0.5554  0.3623  0.1454
14639SOL    HW147833   4.543   0.226   8.124 -1.1987 -1.9252 -2.3288
14639SOL    HW247834   4.607   0.169   8.249  2.7400  0.6949 -2.9802
14640SOL     OW47835   3.489   4.474   9.509  0.4466 -0.1550 -0.0223
14640SOL    HW147836   3.582   4.475   9.484  0.2794  1.1263 -0.6900
14640SOL    HW247837   3.467   4.566   9.524 -1.1893 -0.1940 -1.7762
14641SOL     OW47838   0.150   6.320   2.162  0.4026 -0.4205  0.4255
14641SOL    HW147839   0.181   6.230   2.167 -1.4436 -1.0421  1.3410
14641SOL    HW247840   0.075   6.323   2.221  0.1234  1.5975  0.0309
14642SOL     OW47841   3.341   7.829   8.762  0.4363  0.3260  0.2941
14642SOL    HW147842   3.340   7.894   8.692  1.6730  0.5358  0.4499
14642SOL    HW247843   3.388   7.871   8.833 -0.8101  0.1141  1.2784
14643SOL     OW47844   4.899   4.943   8.600  0.1036 -0.3628  0.4606
14643SOL    HW147845   4.958   4.873   8.573  1.7923  0.8172  0.9523
14643SOL    HW247846   4.821   4.897   8.631 -0.4076 -1.8707 -2.7084
14644SOL     OW47847   8.566   0.109   0.189 -0.1645 -0.0834 -0.5328
14644SOL    HW147848   8.638   0.155   0.147 -1.1712  1.4849 -0.6262
14644SOL    HW247849   8.604   0.074   0.270  0.5873  1.1821 -0.3101
14645SOL     OW47850   4.784   0.713   3.414 -0.8884  0.0062 -0.0372
14645SOL    HW147851   4.773   0.739   3.322 -0.8915 -1.0695 -0.3519
14645SOL    HW247852   4.796   0.796   3.460  0.1928  0.5099 -1.1511
14646SOL     OW47853   3.035   2.196   8.270 -0.4322  0.2289 -0.4276
14646SOL    HW147854   2.941   2.184   8.266 -0.5046  0.5349  0.2167
14646SOL    HW247855   3.069   2.110   8.297 -0.2239 -0.8337 -3.6493
14647SOL     OW47856   8.280   4.628   2.729  0.0421  0.1127 -0.4023
14647SOL    HW147857   8.215   4.601   2.794 -2.9025  0.3652 -2.9781
14647SOL    HW247858   8.272   4.723   2.726  2.4982  0.4424  0.9978
14648SOL     OW47859   8.636   8.592   4.713 -0.6671  0.0230 -0.2219
14648SOL    HW147860   8.545   8.600   4.743 -0.9377  0.4959 -1.1404
14648SOL    HW247861   8.631   8.539   4.634 -0.3679  1.4522 -1.2437
14649SOL     OW47862   8.600  10.050   7.562 -0.1020 -0.1774  0.0411
14649SOL    HW147863   8.606   9.956   7.579 -0.3747  0.1249  1.9911
14649SOL    HW247864   8.507  10.070   7.572 -0.1099  0.2372 -0.7949
14650SOL     OW47865   6.538   1.738   0.485  0.3989 -0.2001  0.0490
14650SOL    HW147866   6.589   1.664   0.519  2.8367  1.4835  0.3062
14650SOL    HW247867   6.596   1.781   0.422 -0.9117  1.5389 -0.0569
14651SOL     OW47868   5.183   1.788   5.219 -0.5284 -0.0613 -0.2397
14651SOL    HW147869   5.222   1.844   5.151 -0.0422 -0.4495 -0.2846
14651SOL    HW247870   5.098   1.828   5.236 -0.4965  0.2680 -0.8042
14652SOL     OW47871   9.852   0.597   0.478 -0.3603  0.2796  0.1965
14652SOL    HW147872   9.809   0.513   0.465  0.8158 -0.4787  1.0168
14652SOL    HW247873   9.857   0.607   0.573  0.1816  0.9249  0.1093
14653SOL     OW47874   5.417   4.998   3.914  0.1989 -0.1547 -0.0614
14653SOL    HW147875   5.323   4.981   3.908  0.0960  0.0919  0.7644
14653SOL    HW247876   5.430   5.033   4.002  1.1109 -0.4794 -0.0530
14654SOL     OW47877   2.650   1.235   0.844  0.3780 -0.2899  0.0968
14654SOL    HW147878   2.605   1.167   0.793  2.6427 -1.1570 -0.8751
14654SOL    HW247879   2.643   1.204   0.934 -3.2864  1.0345  0.4386
14655SOL     OW47880   2.035   1.547   5.552  0.1581 -0.0338  0.3311
14655SOL    HW147881   1.993   1.632   5.540 -1.3799 -0.5295  1.7935
14655SOL    HW247882   1.970   1.484   5.521  0.9671 -0.7078 -0.0120
14656SOL     OW47883   5.762   0.910   7.730  0.1235  0.3539  0.4012
14656SOL    HW147884   5.857   0.908   7.729  0.1185 -0.8373  0.1213
14656SOL    HW247885   5.737   0.867   7.648 -0.6426 -0.3935  1.0089
14657SOL     OW47886   3.825   3.184   1.451  0.2505  0.4755 -0.2906
14657SOL    HW147887   3.816   3.273   1.416 -0.5310  1.5233  2.3486
14657SOL    HW247888   3.908   3.185   1.499 -0.6033  0.3602  1.2333
14658SOL     OW47889   4.481   2.776   2.520  0.3463  0.6515 -0.3534
14658SOL    HW147890   4.392   2.750   2.497  0.1314  0.5762  0.5185
14658SOL    HW247891   4.471   2.853   2.576  0.6794 -0.4863  1.3902
14659SOL     OW47892   0.362   2.431   5.751  0.1787  0.1645  0.0831
14659SOL    HW147893   0.386   2.377   5.676  0.1636  0.7196 -0.3290
14659SOL    HW247894   0.350   2.369   5.823 -0.6258 -0.4550 -0.5746
14660SOL     OW47895   7.649   4.621   4.503  0.3654 -0.2915  0.1176
14660SOL    HW147896   7.627   4.580   4.420  1.9892  0.9880 -1.0000
14660SOL    HW247897   7.597   4.702   4.504  0.6150 -0.1322  0.1891
14661SOL     OW47898   4.438   3.472   6.082  0.3804  0.0487 -0.5673
14661SOL    HW147899   4.524   3.434   6.098  0.5798  0.9703  0.7126
14661SOL    HW247900   4.430   3.475   5.987  1.5496 -0.5249 -0.6921
14662SOL     OW47901   0.443   8.524   0.375  0.2439 -0.3526  0.4686
14662SOL    HW147902   0.390   8.486   0.306 -0.3076  0.6238  0.3397
14662SOL    HW247903   0.436   8.462   0.447 -1.9985  0.2501  0.8554
14663SOL     OW47904   0.565   9.306   8.592  0.0135 -0.1819  0.6802
14663SOL    HW147905   0.524   9.347   8.516  2.4722  0.6570 -0.2820
14663SOL    HW247906   0.578   9.215   8.566  0.7396  0.0737  0.1176
14664SOL     OW47907   8.892   9.840   0.221  0.0594 -0.1510 -0.4503
14664SOL    HW147908   8.960   9.833   0.154  0.7914 -1.6971  0.4079
14664SOL    HW247909   8.900   9.930   0.254  0.2014  0.3803 -1.8586
14665SOL     OW47910   3.866   6.559   8.114  0.5862 -0.3596  0.2725
14665SOL    HW147911   3.878   6.568   8.020 -0.4518 -2.8137 -0.1547
14665SOL    HW247912   3.785   6.606   8.133 -0.7194 -2.1621 -0.5860
14666SOL     OW47913   0.750   9.745   4.679 -0.8502 -0.0875 -0.5054
14666SOL    HW147914   0.660   9.730   4.709 -1.0313 -1.6868 -1.7084
14666SOL    HW247915   0.804   9.694   4.738 -0.8233  0.0657 -0.3965
14667SOL     OW47916   7.095   8.505   5.395 -0.7527 -0.4489  0.3758
14667SOL    HW147917   7.108   8.413   5.417 -1.5939 -0.4896  0.7442
14667SOL    HW247918   7.095   8.507   5.299 -0.0870 -0.7326  0.3674
14668SOL     OW47919   9.512   1.311   5.809  0.5594  0.0248 -0.3820
14668SOL    HW147920   9.496   1.235   5.754 -0.5603  1.3179 -1.9247
14668SOL    HW247921   9.607   1.323   5.807  0.5426  0.0063 -2.0040
14669SOL     OW47922   6.406  10.032   5.279  0.6893 -0.0636  0.1436
14669SOL    HW147923   6.457  10.073   5.210  0.7699  0.3911  0.4697
14669SOL    HW247924   6.331   9.993   5.234  1.4619 -0.9987 -0.3855
14670SOL     OW47925   1.868  10.039   8.656 -0.4092 -0.2101  0.1000
14670SOL    HW147926   1.938  10.051   8.720 -0.1305 -1.2187  0.0011
14670SOL    HW247927   1.836  10.127   8.638 -0.3407  0.1163  1.4682
14671SOL     OW47928   2.196   2.420   2.463 -0.2813 -0.0135  0.0278
14671SOL    HW147929   2.277   2.458   2.496 -1.0101 -0.0242  1.9422
14671SOL    HW247930   2.186   2.338   2.512 -0.5178 -0.9478 -1.5280
14672SOL     OW47931   3.289   4.105   7.585  0.1409 -0.3156  0.2423
14672SOL    HW147932   3.344   4.100   7.507 -1.0975  1.8836 -0.8712
14672SOL    HW247933   3.227   4.032   7.575  0.8884 -0.9157 -0.0771
14673SOL     OW47934   0.536   9.458   4.043 -0.2934 -0.0676  0.1014
14673SOL    HW147935   0.540   9.554   4.039 -2.1426  0.0210 -0.4539
14673SOL    HW247936   0.476   9.433   3.973 -0.3000 -1.6071  0.6144
14674SOL     OW47937   9.746   1.914   4.421 -0.2621 -0.0947 -0.2529
14674SOL    HW147938   9.662   1.883   4.453  0.6708 -0.1272  2.3915
14674SOL    HW247939   9.795   1.834   4.400 -0.1406 -0.1738  0.3137
14675SOL     OW47940   5.704   8.063   8.325 -0.3780 -0.0917 -0.1420
14675SOL    HW147941   5.715   8.014   8.243 -2.1389 -1.2558  0.2716
14675SOL    HW247942   5.652   8.140   8.300 -2.5604 -1.3970  0.1226
14676SOL     OW47943   3.207   9.564   8.752  0.1122  0.3772 -0.0713
14676SOL    HW147944   3.161   9.646   8.769 -0.0062  0.1002  1.0267
14676SOL    HW247945   3.186   9.542   8.661 -0.0597  1.4269 -0.2884
14677SOL     OW47946   8.961   8.539   9.881 -0.6443 -0.5437 -0.2157
14677SOL    HW147947   8.970   8.562   9.973 -0.8401 -1.7807  0.1307
14677SOL    HW247948   9.012   8.606   9.834 -1.8211  1.0262  0.6444
14678SOL     OW47949   9.189   6.146   7.938  0.6426 -0.3777 -0.1312
14678SOL    HW147950   9.169   6.143   7.844  0.8687 -1.6664 -0.1619
14678SOL    HW247951   9.104   6.141   7.981  0.5775 -0.5732 -0.2758
14679SOL     OW47952   2.989   0.991   7.332 -0.0334 -0.4023 -0.1609
14679SOL    HW147953   2.957   1.073   7.369 -1.3798 -0.7898 -0.4224
14679SOL    HW247954   3.068   0.971   7.383 -0.1476  0.6303  0.4460
14680SOL     OW47955   3.411   8.673   0.480  0.0926 -0.2365  0.1701
14680SOL    HW147956   3.440   8.592   0.523 -0.5254 -0.3437  0.3969
14680SOL    HW247957   3.338   8.703   0.534  0.1417  0.3252 -0.0775
14681SOL     OW47958   7.201   4.487   8.110  0.4255 -0.5765 -0.1434
14681SOL    HW147959   7.151   4.510   8.031  1.4320  1.3310 -0.2769
14681SOL    HW247960   7.135   4.472   8.177 -0.3846  0.7270 -0.6199
14682SOL     OW47961   1.789   4.851   4.085 -0.2705 -0.2299 -0.1749
14682SOL    HW147962   1.762   4.917   4.149  0.1750 -0.0173 -0.1979
14682SOL    HW247963   1.820   4.901   4.010 -0.0383 -0.4622 -0.2383
14683SOL     OW47964   7.314   3.892   0.446  0.1550 -0.6393  0.7252
14683SOL    HW147965   7.262   3.834   0.502 -0.8524 -0.5248 -0.0626
14683SOL    HW247966   7.249   3.944   0.398  1.0279  0.3817  0.6163
14684SOL     OW47967   8.074   2.996   8.325  0.6148 -0.0097 -0.1413
14684SOL    HW147968   8.062   2.949   8.407 -1.3051 -0.4025 -0.6061
14684SOL    HW247969   8.081   2.927   8.259  1.5398  0.3185 -0.4059
14685SOL     OW47970   8.561   3.538   8.867 -0.0508 -0.4574 -0.0507
14685SOL    HW147971   8.638   3.523   8.812 -0.2060 -0.5819 -0.2338
14685SOL    HW247972   8.504   3.592   8.813 -0.7250 -1.5683 -0.4762
14686SOL     OW47973   8.591   1.124   9.321 -0.9269 -0.4913  0.3830
14686SOL    HW147974   8.679   1.090   9.303 -1.2261 -0.6457 -0.8613
14686SOL    HW247975   8.568   1.085   9.406  0.2612 -0.3155  0.8090
14687SOL     OW47976   5.914   2.609   3.899  0.3870  0.1867 -0.1005
14687SOL    HW147977   5.925   2.701   3.925  2.0968 -0.5527  2.0927
14687SOL    HW247978   5.892   2.613   3.805  0.9095  2.7843 -0.1884
14688SOL     OW47979   2.759   5.576   1.588 -0.0710  0.3455  0.0339
14688SOL    HW147980   2.676   5.581   1.540  0.7450  2.8661 -1.2872
14688SOL    HW247981   2.737   5.605   1.677 -0.9429 -0.9451  0.2611
14689SOL     OW47982   4.341   3.033   4.386  0.2697  0.0744  0.0326
14689SOL    HW147983   4.333   3.049   4.480 -1.9436 -0.3132 -0.0238
14689SOL    HW247984   4.432   3.010   4.373  1.1561  2.2338  1.7351
14690SOL     OW47985   4.959   1.606   0.889  0.0758 -0.4192  0.2826
14690SOL    HW147986   4.995   1.577   0.973 -1.9745 -1.8837  0.7547
14690SOL    HW247987   4.910   1.530   0.857 -2.7487  1.4255 -0.1163
14691SOL     OW47988   1.235   3.973   4.279  0.8655  0.4238  0.3602
14691SOL    HW147989   1.197   4.042   4.225  1.3507  0.2646 -0.1995
14691SOL    HW247990   1.203   3.891   4.241 -0.3449  0.3323  1.4989
14692SOL     OW47991   9.655   8.871   9.609 -0.2374 -0.0145 -0.2496
14692SOL    HW147992   9.586   8.809   9.585  1.2862 -1.4676 -1.1866
14692SOL    HW247993   9.716   8.868   9.535  1.6078  0.0029  1.1896
14693SOL     OW47994   4.714   9.880   9.834  0.8358 -0.4084 -0.4010
14693SOL    HW147995   4.747   9.930   9.760  3.8039  1.2554  1.8688
14693SOL    HW247996   4.623   9.909   9.843  1.1131  1.1059 -1.9437
14694SOL     OW47997   1.829   3.830   7.602  0.2173 -0.3450 -0.3477
14694SOL    HW147998   1.759   3.881   7.643 -0.0563 -0.4892 -0.6295
14694SOL    HW247999   1.785   3.778   7.535  0.2731 -2.0229  0.8626
14695SOL     OW48000   4.677   3.675   2.109  0.3305 -0.3271  0.4570
14695SOL    HW148001   4.762   3.643   2.080 -0.0589  0.1910 -1.4105
14695SOL    HW248002   4.622   3.673   2.031 -1.8003 -1.8825  1.8716
14696SOL     OW48003   8.310   7.245   7.312 -0.3933  0.0528 -0.2580
14696SOL    HW148004   8.333   7.173   7.253 -2.0750 -0.5140 -0.2709
14696SOL    HW248005   8.383   7.250   7.373 -0.1838 -1.6000 -0.3323
14697SOL     OW48006   7.848   2.042   0.652 -0.4039  0.0512 -0.3973
14697SOL    HW148007   7.789   2.047   0.727  0.6017 -2.5566  0.6976
14697SOL    HW248008   7.929   2.082   0.684 -0.4461  0.3320 -0.6401
14698SOL     OW48009   3.653   4.938   0.621  0.1653 -0.0442  0.1203
14698SOL    HW148010   3.727   4.887   0.656 -0.0039 -0.0554  0.4723
14698SOL    HW248011   3.618   4.885   0.550  0.1520 -0.3003  0.3164
14699SOL     OW48012   5.052   8.576   6.064  0.5315 -0.3968 -0.4146
14699SOL    HW148013   5.114   8.504   6.079 -0.1863 -0.9983 -0.2726
14699SOL    HW248014   5.060   8.631   6.142  0.4937 -0.7656 -0.1493
14700SOL     OW48015   8.632   5.954   1.433  0.2643 -0.8618  0.2948
14700SOL    HW148016   8.697   5.981   1.497  0.2183  0.7856 -0.3228
14700SOL    HW248017   8.613   5.862   1.455  1.5010 -0.8389  1.5443
14701SOL     OW48018   1.537   0.511   3.482 -0.3634  0.3017 -0.1754
14701SOL    HW148019   1.585   0.457   3.419 -0.4006  1.1971 -0.9946
14701SOL    HW248020   1.604   0.569   3.519 -0.3865 -0.0581  0.4432
14702SOL     OW48021  10.089   5.589   3.815 -0.2155  0.2389 -0.0861
14702SOL    HW148022  10.063   5.609   3.725 -2.3603  0.8958  0.6077
14702SOL    HW248023  10.067   5.496   3.826  0.3761  0.0636 -0.3171
14703SOL     OW48024   8.641   6.108   5.106  0.1055 -0.3889  0.3204
14703SOL    HW148025   8.617   6.113   5.014 -1.3127  1.0456  0.7219
14703SOL    HW248026   8.735   6.092   5.105  0.0941 -0.5325 -1.3638
14704SOL     OW48027   1.784   8.975   7.990  0.0835 -0.1752  0.4757
14704SOL    HW148028   1.778   8.948   7.899 -0.5953 -0.0868  0.4903
14704SOL    HW248029   1.854   9.040   7.992  0.7926 -0.9225  0.2023
14705SOL     OW48030   4.021   5.416   5.922  0.1494 -0.5223 -0.2816
14705SOL    HW148031   4.049   5.452   6.006  0.1576 -0.9805 -0.0845
14705SOL    HW248032   4.100   5.378   5.885 -0.0561 -1.1736 -0.0563
14706SOL     OW48033   9.376   3.420   0.269  0.1120 -0.0328 -0.1907
14706SOL    HW148034   9.351   3.447   0.357  2.3965  0.8786  0.2506
14706SOL    HW248035   9.341   3.332   0.260  0.1441 -0.2911  1.7858
14707SOL     OW48036   8.530   2.665   1.011 -0.3307  0.4797 -0.2183
14707SOL    HW148037   8.448   2.714   1.002 -0.6912  0.0568  0.6523
14707SOL    HW248038   8.505   2.574   0.995 -0.2703  0.2026  1.1396
14708SOL     OW48039   1.168   4.180   6.914  0.2913  0.0658  0.0060
14708SOL    HW148040   1.121   4.176   6.997 -0.2159  2.7959 -0.0667
14708SOL    HW248041   1.132   4.107   6.863 -0.5456 -0.6798  1.5765
14709SOL     OW48042   6.790   2.342   9.537  0.4235 -0.3902  0.2389
14709SOL    HW148043   6.760   2.251   9.542 -1.4514  0.1496 -0.5016
14709SOL    HW248044   6.880   2.336   9.506  1.0405 -2.0690  2.1125
14710SOL     OW48045   9.872   4.163   6.641  0.3115  0.2876 -0.1776
14710SOL    HW148046   9.839   4.091   6.696  1.4212 -0.3656 -0.3401
14710SOL    HW248047   9.967   4.162   6.654  0.3008  2.2302  0.3943
14711SOL     OW48048   7.992   8.082   5.601 -0.1744 -0.4168  0.2656
14711SOL    HW148049   8.049   8.060   5.675 -1.0193  1.0601  1.4101
14711SOL    HW248050   7.952   7.999   5.576 -0.0835 -0.9135  1.6686
14712SOL     OW48051   0.446   8.612   4.451 -0.3210 -0.6495  0.5433
14712SOL    HW148052   0.454   8.687   4.509  0.8005  0.2612 -0.7407
14712SOL    HW248053   0.363   8.626   4.404  0.2109  0.1509 -0.1741
14713SOL     OW48054   9.258   7.669   7.484 -0.8847  0.5694  0.0195
14713SOL    HW148055   9.231   7.618   7.408  2.1885 -0.4107 -0.5400
14713SOL    HW248056   9.296   7.605   7.544  1.0057  1.8776  0.3058
14714SOL     OW48057   2.918   5.227  10.175  0.3122  0.3530  0.2643
14714SOL    HW148058   2.834   5.272  10.174  0.0392  0.0753  2.8995
14714SOL    HW248059   2.968   5.270  10.244  2.2415  0.2957 -1.0239
14715SOL     OW48060   9.467   9.951   5.583  0.1205  0.0722  0.3048
14715SOL    HW148061   9.556   9.920   5.600  0.8410  1.8094 -0.1265
14715SOL    HW248062   9.429   9.961   5.670 -0.4477 -2.6717  0.4780
14716SOL     OW48063   3.389   8.292   2.372 -0.1302 -0.3518  0.2962
14716SOL    HW148064   3.353   8.372   2.333  0.8919 -0.2138 -0.4033
14716SOL    HW248065   3.403   8.315   2.464 -1.0108 -0.1385  0.3808
14717SOL     OW48066   1.647   5.645   3.457 -0.3122 -0.1357 -0.4914
14717SOL    HW148067   1.673   5.733   3.433 -0.1789  0.1734  0.7332
14717SOL    HW248068   1.688   5.589   3.391  0.9854  0.5805 -0.3151
14718SOL     OW48069   3.265   3.131   3.903 -0.1892  0.3397  0.4256
14718SOL    HW148070   3.236   3.213   3.944  0.8423  0.5713  0.7146
14718SOL    HW248071   3.356   3.122   3.929  0.7493  0.8464 -2.3587
14719SOL     OW48072   1.484   6.329   5.257  0.4760 -0.0457 -0.1296
14719SOL    HW148073   1.492   6.331   5.162  0.4017 -0.0982 -0.1376
14719SOL    HW248074   1.534   6.405   5.287  3.0919 -1.7070 -0.0203
14720SOL     OW48075   6.234   3.232   3.407 -0.3034 -0.1310  0.5000
14720SOL    HW148076   6.272   3.286   3.338  1.5476  0.0490  1.5866
14720SOL    HW248077   6.222   3.292   3.481 -0.1355 -0.7539  1.0500
14721SOL     OW48078   0.858   1.660   8.956 -0.2264 -0.5646 -0.5904
14721SOL    HW148079   0.937   1.687   8.909 -0.0813  1.2564  0.5995
14721SOL    HW248080   0.819   1.591   8.901  0.9481  0.1203 -2.3594
14722SOL     OW48081   6.690   2.680   2.343 -0.0868 -0.2918 -0.5129
14722SOL    HW148082   6.669   2.653   2.432 -0.0709 -0.5044 -0.5745
14722SOL    HW248083   6.635   2.757   2.328  1.4180  1.0566  0.4303
14723SOL     OW48084   8.523   3.677   4.611 -0.0817 -0.4232  0.3272
14723SOL    HW148085   8.549   3.719   4.693  0.0845  0.6321 -0.2434
14723SOL    HW248086   8.564   3.591   4.614  1.2906  0.2097  0.6264
14724SOL     OW48087   5.529   5.855   4.632  0.1382  0.7751  0.0080
14724SOL    HW148088   5.466   5.828   4.565  1.4944 -1.6807 -0.4085
14724SOL    HW248089   5.599   5.898   4.582  0.8972 -0.5835 -0.1515
14725SOL     OW48090   7.273   0.001   3.294  0.1487  0.5299 -0.0950
14725SOL    HW148091   7.305   0.080   3.337  0.9192  0.9121 -1.3235
14725SOL    HW248092   7.352  -0.048   3.273 -0.2863 -0.1989 -0.0449
14726SOL     OW48093   2.332   7.534   4.742  0.0584 -0.4762  0.2234
14726SOL    HW148094   2.293   7.591   4.676 -1.7834 -0.9836  0.8195
14726SOL    HW248095   2.299   7.566   4.825  1.0706 -0.8443  0.7922
14727SOL     OW48096   1.736   1.507   8.626 -0.4382  0.0419  0.3887
14727SOL    HW148097   1.731   1.536   8.717 -2.0812  0.1054  0.3013
14727SOL    HW248098   1.818   1.546   8.593 -0.7538  1.5720  1.3001
14728SOL     OW48099   4.753   7.846   9.345  0.4432  0.3260 -0.5176
14728SOL    HW148100   4.844   7.871   9.358  0.6079 -0.3031 -0.3923
14728SOL    HW248101   4.734   7.786   9.418 -0.2139  0.8066 -0.2767
14729SOL     OW48102   8.737   1.049   0.696 -0.5134  0.2995 -0.2583
14729SOL    HW148103   8.785   1.027   0.776 -1.0905 -0.1451 -0.0299
14729SOL    HW248104   8.648   1.067   0.726 -0.6219  0.5817 -0.7462
14730SOL     OW48105   3.335   9.341   0.944 -0.4144  0.1926 -0.5856
14730SOL    HW148106   3.335   9.389   0.860  0.2043 -0.2932 -0.8665
14730SOL    HW248107   3.355   9.408   1.009  3.8435 -0.1202 -1.2775
14731SOL     OW48108   3.357   2.847   9.700 -0.5462 -1.2827 -0.2004
14731SOL    HW148109   3.384   2.755   9.703  0.3984 -1.0214 -0.2301
14731SOL    HW248110   3.428   2.892   9.654 -1.1248 -0.5748 -0.4341
14732SOL     OW48111   4.663   5.429   9.879  0.0530 -0.5495 -0.3228
14732SOL    HW148112   4.679   5.411   9.786  0.3346  2.8693 -1.0608
14732SOL    HW248113   4.726   5.497   9.902 -0.4136 -0.8833  2.2534
14733SOL     OW48114   7.004   9.533   5.834 -0.4093  0.0234 -0.0154
14733SOL    HW148115   6.976   9.478   5.761 -0.8557  0.3015 -0.0553
14733SOL    HW248116   7.099   9.519   5.840 -0.5990 -1.1586  0.3246
14734SOL     OW48117   7.498   3.916   6.998 -0.1633 -0.2715 -0.3334
14734SOL    HW148118   7.521   3.852   7.065 -1.5804  0.9521  1.4414
14734SOL    HW248119   7.402   3.913   6.994 -0.2343  1.3170 -0.5756
14735SOL     OW48120   4.793   8.115   7.939 -0.4398 -0.2866 -0.2500
14735SOL    HW148121   4.745   8.184   7.893 -0.1346  1.3477  1.7364
14735SOL    HW248122   4.725   8.060   7.977 -0.8308  1.3985  1.6502
14736SOL     OW48123   2.587   0.252   5.868  0.2716  0.0304 -0.1223
14736SOL    HW148124   2.665   0.222   5.821 -0.2812 -1.5844 -0.0820
14736SOL    HW248125   2.621   0.290   5.949  1.1328  1.3431 -1.0623
14737SOL     OW48126   2.107   5.347   4.436  0.2608  0.0841  0.5764
14737SOL    HW148127   2.169   5.282   4.402  0.3690 -0.7213  2.2170
14737SOL    HW248128   2.021   5.309   4.418  0.2368  0.7658 -0.8621
14738SOL     OW48129   8.620   5.436   2.679 -0.2096  0.3341 -0.4920
14738SOL    HW148130   8.633   5.386   2.599 -0.6473  0.8694 -0.9041
14738SOL    HW248131   8.616   5.370   2.748  2.3949 -0.0364 -0.5737
14739SOL     OW48132   3.030   2.765   4.028 -0.3355  0.0776  0.0139
14739SOL    HW148133   3.007   2.825   3.957 -0.5631 -0.0446 -0.0161
14739SOL    HW248134   3.125   2.758   4.023 -0.3925 -0.3512 -0.6233
14740SOL     OW48135   6.566   6.333   4.993 -0.1695 -0.5566 -0.1141
14740SOL    HW148136   6.499   6.307   5.055  0.6754 -2.1620  0.1847
14740SOL    HW248137   6.519   6.377   4.923 -1.0044  3.0106  2.4079
14741SOL     OW48138   2.787   5.772   2.373  0.0906  0.1414  0.3851
14741SOL    HW148139   2.810   5.781   2.280 -0.8438  2.5999  0.3256
14741SOL    HW248140   2.702   5.727   2.372  1.4127 -2.5929  0.2886
14742SOL     OW48141   2.013   1.664   0.250 -0.2278  0.5008 -0.0490
14742SOL    HW148142   2.087   1.687   0.194 -0.3859  1.1331 -0.0044
14742SOL    HW248143   1.966   1.597   0.200  1.1789 -1.0357  0.5750
14743SOL     OW48144   6.287   6.453   1.673  0.1199  0.2208  0.6045
14743SOL    HW148145   6.369   6.429   1.718  0.2486 -0.2595  0.1192
14743SOL    HW248146   6.218   6.424   1.733  0.2416 -2.1786 -0.3076
14744SOL     OW48147   7.403   2.801   8.643  0.1317  0.1232  0.0574
14744SOL    HW148148   7.337   2.732   8.647 -0.3300  0.5776  0.5660
14744SOL    HW248149   7.437   2.807   8.732 -1.0700  1.7038  0.4628
14745SOL     OW48150   7.741   5.477   2.579 -0.0733  0.5422 -0.5035
14745SOL    HW148151   7.772   5.514   2.661 -2.6889  1.7426  0.0250
14745SOL    HW248152   7.761   5.383   2.586 -2.1008  0.2026  2.4825
14746SOL     OW48153   4.807   6.614   0.054  0.2271  0.3640  0.0317
14746SOL    HW148154   4.773   6.548  -0.006  1.0618  1.0846 -1.2903
14746SOL    HW248155   4.813   6.694   0.001 -1.2973  1.6917  1.7083
14747SOL     OW48156   2.092   9.240   4.405  0.3029 -0.1460  0.1077
14747SOL    HW148157   2.066   9.156   4.442 -1.8028  0.4314  0.0953
14747SOL    HW248158   2.110   9.222   4.313 -0.3570 -0.5734  0.0549
14748SOL     OW48159   7.249   0.854   2.978  0.2139  0.0651  0.2232
14748SOL    HW148160   7.323   0.889   2.929  0.8186  0.0608  1.1126
14748SOL    HW248161   7.184   0.832   2.911  0.4344  1.4073 -0.4585
14749SOL     OW48162   3.936   2.506   2.251  0.3417 -0.6100  0.2891
14749SOL    HW148163   3.877   2.523   2.325  0.8875 -0.5778  0.7285
14749SOL    HW248164   3.987   2.430   2.278  1.8432  0.5052  0.7782
14750SOL     OW48165   0.214   7.907   7.773  0.2814 -0.3845 -0.0013
14750SOL    HW148166   0.253   7.993   7.758  0.5485 -0.7861 -1.7804
14750SOL    HW248167   0.289   7.848   7.780  0.0784 -0.6083  0.3198
14751SOL     OW48168   4.540   0.645   2.367  0.1002  0.4351  0.1965
14751SOL    HW148169   4.475   0.618   2.432  2.4166 -1.1680  2.0155
14751SOL    HW248170   4.508   0.608   2.285 -0.4122 -1.9188  1.3709
14752SOL     OW48171   0.787   6.604   7.007  0.2929 -0.1450 -0.3588
14752SOL    HW148172   0.854   6.537   7.022 -0.5299 -0.6497  1.4132
14752SOL    HW248173   0.704   6.558   7.023 -0.4759  0.5769 -2.0452
14753SOL     OW48174   1.408   3.288   8.995  0.2574 -0.2498  0.0214
14753SOL    HW148175   1.495   3.248   8.991  0.4526  0.2326 -1.0564
14753SOL    HW248176   1.421   3.372   9.038  0.3803 -0.0674 -0.3648
14754SOL     OW48177   7.528   0.107   1.110 -0.2296  0.1165 -0.7705
14754SOL    HW148178   7.614   0.067   1.125 -0.5817  0.2406  2.1342
14754SOL    HW248179   7.548   0.199   1.092  0.2607  0.1789  0.0394
14755SOL     OW48180   5.372   9.703   1.373 -0.0470 -0.6288  0.4088
14755SOL    HW148181   5.316   9.704   1.451  0.1606  0.2396  0.5579
14755SOL    HW248182   5.327   9.645   1.312 -0.5416 -0.8176  0.9363
14756SOL     OW48183  10.199   3.120   6.827 -0.4537  0.3041 -0.2549
14756SOL    HW148184  10.218   3.046   6.884 -0.0235  0.0759 -0.6910
14756SOL    HW248185  10.133   3.171   6.875 -0.1365  0.0909  0.4225
14757SOL     OW48186   6.704   4.909   8.650 -0.1366  0.2854  0.0967
14757SOL    HW148187   6.678   4.963   8.576  0.5440  1.0564  0.4069
14757SOL    HW248188   6.666   4.953   8.726  1.2674  0.9178  0.4559
14758SOL     OW48189   8.773   5.977   1.904 -0.1648  0.2666  0.5507
14758SOL    HW148190   8.712   6.016   1.967 -1.4503 -1.8793  0.7399
14758SOL    HW248191   8.858   5.978   1.950 -0.3879  1.6903  0.9886
14759SOL     OW48192   2.120   6.686   3.172 -0.3817 -0.1266  0.5586
14759SOL    HW148193   2.102   6.733   3.090 -1.5811 -0.7294  0.4569
14759SOL    HW248194   2.142   6.755   3.234  2.1127  0.2309 -0.6267
14760SOL     OW48195   7.894   6.391   5.239 -0.1033  0.5515 -0.5048
14760SOL    HW148196   7.812   6.398   5.191 -0.3159  0.5283 -0.1468
14760SOL    HW248197   7.873   6.336   5.315 -0.2480  2.1457  0.6564
14761SOL     OW48198   8.435   6.905   7.835 -0.1390  0.1400  0.1014
14761SOL    HW148199   8.393   6.847   7.899  0.3253  0.6472  0.8869
14761SOL    HW248200   8.362   6.954   7.796 -0.4139 -0.0668  0.3472
14762SOL     OW48201   2.490  10.082   1.230 -0.1436  0.3396  0.5216
14762SOL    HW148202   2.443  10.081   1.314  0.4308  1.5509  0.8809
14762SOL    HW248203   2.484   9.992   1.198 -0.0644 -0.2297  2.0347
14763SOL     OW48204   3.522   5.888   2.567 -0.7993  0.3396  0.0595
14763SOL    HW148205   3.540   5.846   2.651 -1.1427 -1.4990 -0.7205
14763SOL    HW248206   3.594   5.860   2.510 -0.1974  2.1197 -0.1186
14764SOL     OW48207   2.009   5.689   6.181 -0.0478  0.1073 -0.2712
14764SOL    HW148208   2.029   5.674   6.273  0.2320 -1.3770 -0.5446
14764SOL    HW248209   2.063   5.763   6.156  0.6172 -0.1015  0.5178
14765SOL     OW48210   4.138   9.729   2.238  0.0427 -0.3210 -0.2526
14765SOL    HW148211   4.221   9.768   2.209  0.4976 -0.4723  0.8030
14765SOL    HW248212   4.121   9.769   2.323 -0.4193 -1.0748  0.0178
14766SOL     OW48213   7.286   2.514   7.533 -0.3501  0.2269 -0.4033
14766SOL    HW148214   7.326   2.593   7.496 -1.7822  0.5781 -1.2581
14766SOL    HW248215   7.325   2.442   7.484  1.6702  0.2768  1.0079
14767SOL     OW48216   8.999   5.347   7.038  0.0338 -0.0489  0.2194
14767SOL    HW148217   9.082   5.366   6.995  0.7384 -3.5150 -0.2657
14767SOL    HW248218   9.005   5.393   7.122  1.6258  1.2141 -0.5225
14768SOL     OW48219   6.315   5.955   1.226 -0.6822  0.0319 -0.4813
14768SOL    HW148220   6.242   5.976   1.168 -2.2594  0.5583  1.5506
14768SOL    HW248221   6.358   5.881   1.185 -2.4799 -0.4224 -1.6862
14769SOL     OW48222   9.399   8.381   4.326 -0.2797 -0.1648 -0.4283
14769SOL    HW148223   9.413   8.459   4.379  2.1275 -0.4155 -0.5807
14769SOL    HW248224   9.470   8.383   4.262 -1.5188 -1.2996 -1.9289
14770SOL     OW48225   6.801   5.471   0.660 -0.3982 -0.1580 -0.0385
14770SOL    HW148226   6.759   5.513   0.585 -0.8553  0.9842  0.8222
14770SOL    HW248227   6.763   5.515   0.737  2.1583  0.7737  0.8145
14771SOL     OW48228   3.026   6.306   1.634 -0.2174  0.5315 -0.6880
14771SOL    HW148229   3.044   6.378   1.693  0.1817 -0.7290  0.7976
14771SOL    HW248230   3.067   6.331   1.551  1.8553  1.0545  0.4302
14772SOL     OW48231   1.331   8.848   8.078  0.7532 -0.0066 -0.1466
14772SOL    HW148232   1.271   8.790   8.032 -1.9392 -0.1431  3.0989
14772SOL    HW248233   1.297   8.936   8.060 -1.0656 -0.1157  2.2087
14773SOL     OW48234   1.210   7.585   3.025  0.2840  0.0958 -0.0035
14773SOL    HW148235   1.200   7.490   3.019 -1.1391  0.2707 -0.7796
14773SOL    HW248236   1.297   7.597   3.063  1.5338 -1.4764 -2.1639
14774SOL     OW48237   1.793   9.572   8.123  0.1152  0.5090 -0.2986
14774SOL    HW148238   1.733   9.646   8.111 -0.1323  0.2643 -0.6111
14774SOL    HW248239   1.738   9.495   8.108  0.4075  0.2671 -0.1352
14775SOL     OW48240   7.355   5.780   4.992  0.5112  0.7189  0.6113
14775SOL    HW148241   7.279   5.797   4.936 -2.1501  1.3533  4.0794
14775SOL    HW248242   7.370   5.686   4.984  2.0979  1.1038 -3.1100
14776SOL     OW48243   9.297   4.650   9.072 -0.1929  0.0746  0.2108
14776SOL    HW148244   9.367   4.586   9.061  0.4129  0.7781 -0.1302
14776SOL    HW248245   9.251   4.623   9.152 -1.0466 -1.7889 -0.8467
14777SOL     OW48246  10.081   8.400   2.381  0.3876  0.3506  0.0974
14777SOL    HW148247  10.130   8.367   2.456 -0.1841  0.0067  0.3275
14777SOL    HW248248  10.148   8.424   2.317  0.8676  0.3097  0.5738
14778SOL     OW48249   1.351   9.469   9.992 -0.1266 -0.1084 -0.1093
14778SOL    HW148250   1.431   9.509  10.026 -0.1486 -0.2287  0.0855
14778SOL    HW248251   1.374   9.438   9.905 -1.1987  4.2204 -2.2526
14779SOL     OW48252   8.665   6.459   6.490  0.1829 -0.1473 -0.4516
14779SOL    HW148253   8.709   6.525   6.436  1.1625 -0.0783  0.4205
14779SOL    HW248254   8.716   6.455   6.570 -2.5508  1.4702  1.5582
14780SOL     OW48255   4.989   3.125   9.418 -0.3934  0.4056  0.2937
14780SOL    HW148256   5.048   3.183   9.368  0.0804 -0.8088 -0.5925
14780SOL    HW248257   4.972   3.052   9.359  0.8228 -1.4904  2.1856
14781SOL     OW48258   5.436   3.830   9.026 -0.4643  0.3351  0.0391
14781SOL    HW148259   5.353   3.877   9.013 -3.3018 -3.3335  2.5583
14781SOL    HW248260   5.450   3.783   8.944 -1.5806  0.1060 -0.0398
14782SOL     OW48261   3.143   9.603   6.548 -0.1612  0.7067  0.2282
14782SOL    HW148262   3.074   9.541   6.569 -0.3012  0.5185 -0.7528
14782SOL    HW248263   3.207   9.552   6.498  0.9973  0.7267  1.6177
14783SOL     OW48264   8.719   2.566   4.022  0.2241  0.3399  0.3541
14783SOL    HW148265   8.671   2.560   3.939 -0.4047 -0.0666  0.7396
14783SOL    HW248266   8.782   2.636   4.008 -0.1995  0.6015 -0.3085
14784SOL     OW48267   5.090   8.100   6.952 -0.2725  0.2013  0.1088
14784SOL    HW148268   5.185   8.092   6.947 -0.1760 -0.6532  2.2988
14784SOL    HW248269   5.075   8.193   6.970  0.2769  0.0829  1.2971
14785SOL     OW48270   8.060   1.190   2.604 -0.7742  0.4199 -0.1700
14785SOL    HW148271   8.074   1.216   2.513  0.7306 -0.9459 -0.3815
14785SOL    HW248272   8.046   1.272   2.650  0.6895  1.3541 -1.2793
14786SOL     OW48273   7.960   8.567   7.030  0.1614 -0.0054 -0.0345
14786SOL    HW148274   7.872   8.542   7.058 -0.4269  1.2288 -0.6969
14786SOL    HW248275   8.011   8.571   7.111 -0.7307  0.5313  0.5222
14787SOL     OW48276   0.227   4.635   1.598 -0.2575  0.4348  0.0771
14787SOL    HW148277   0.206   4.621   1.691  2.4677 -0.4802  0.6482
14787SOL    HW248278   0.256   4.726   1.593 -2.2731  1.1101 -0.3438
14788SOL     OW48279   2.885   6.055   4.985 -0.3741  0.0202  0.1094
14788SOL    HW148280   2.819   6.009   4.934  0.7475 -0.3374 -1.0916
14788SOL    HW248281   2.838   6.128   5.026 -1.5497 -0.3842 -0.4775
14789SOL     OW48282   4.622   7.698   5.958 -0.0965  0.1786  0.1108
14789SOL    HW148283   4.669   7.747   6.025  0.8719 -0.0281 -0.4036
14789SOL    HW248284   4.613   7.610   5.994 -1.5966  0.6105  0.9187
14790SOL     OW48285   1.999   9.314   5.289  0.1825  0.0468 -0.2067
14790SOL    HW148286   1.914   9.317   5.334 -0.8095 -0.5900 -1.9143
14790SOL    HW248287   1.983   9.359   5.206  1.4923 -0.2069 -0.6119
14791SOL     OW48288   5.815   3.740   4.852  0.1224 -0.1779  0.7468
14791SOL    HW148289   5.758   3.797   4.801 -0.5641  0.8171  2.5359
14791SOL    HW248290   5.902   3.755   4.816 -0.1077  1.6525  0.8554
14792SOL     OW48291   9.375   4.306   7.322 -0.2966 -0.2585 -0.0595
14792SOL    HW148292   9.326   4.309   7.404  1.4083 -2.1992  1.1366
14792SOL    HW248293   9.309   4.313   7.253 -1.6382  3.4732  1.3646
14793SOL     OW48294   7.860  10.156   7.210 -0.2477 -0.2459 -0.1491
14793SOL    HW148295   7.885  10.152   7.302  0.7283 -0.4023 -0.4082
14793SOL    HW248296   7.935  10.197   7.166 -0.7570 -0.0407 -0.8589
14794SOL     OW48297   0.515   9.687   5.902  0.6810  0.3525  0.0319
14794SOL    HW148298   0.610   9.690   5.896  0.6637  1.4578  0.1246
14794SOL    HW248299   0.496   9.705   5.995  0.3595  1.0405 -0.1606
14795SOL     OW48300   4.362   8.477   2.445 -0.2226  0.0487 -0.0349
14795SOL    HW148301   4.275   8.498   2.481  0.0455  1.9152 -0.3668
14795SOL    HW248302   4.374   8.541   2.374  1.1392 -0.6420 -0.4539
14796SOL     OW48303   8.191   9.224   8.647  0.0288 -0.1835  0.2682
14796SOL    HW148304   8.274   9.254   8.684  0.8587 -1.5706 -0.3949
14796SOL    HW248305   8.152   9.169   8.715  0.6528 -1.1970 -0.1747
14797SOL     OW48306   9.194  10.127   7.579  0.2505 -0.6035  0.0528
14797SOL    HW148307   9.239  10.166   7.504  2.0307 -0.3207  1.2071
14797SOL    HW248308   9.109  10.170   7.581  0.8113  0.6198 -0.8226
14798SOL     OW48309   6.472   0.482   1.781  0.1179 -0.4850 -0.5579
14798SOL    HW148310   6.528   0.459   1.855 -0.1545 -1.9127 -0.7636
14798SOL    HW248311   6.439   0.570   1.802  0.1739 -0.7977  0.9368
14799SOL     OW48312   2.685   1.198   0.468 -0.0961 -0.6702 -0.1314
14799SOL    HW148313   2.644   1.278   0.435 -0.5652 -0.9380 -0.1996
14799SOL    HW248314   2.745   1.228   0.536 -1.0133 -0.3394  0.5574
14800SOL     OW48315   0.097   7.852   8.023  0.4006  0.1434  0.0399
14800SOL    HW148316   0.002   7.849   8.025  0.3013  1.9460 -0.2414
14800SOL    HW248317   0.118   7.885   7.936  1.2904 -0.3890  0.0428
14801SOL     OW48318  10.108   6.034   4.103  0.6658 -0.1401  0.2474
14801SOL    HW148319  10.116   6.026   4.007  1.1975 -0.1858  0.2929
14801SOL    HW248320  10.198   6.031   4.135  0.4156 -1.7486  0.8836
14802SOL     OW48321   0.672   9.447   7.693  0.0508  0.2857 -0.5790
14802SOL    HW148322   0.698   9.364   7.733 -0.8627 -0.4937 -1.5668
14802SOL    HW248323   0.629   9.423   7.611 -1.3359  1.6573 -0.3069
14803SOL     OW48324   3.425   6.519   8.266  0.1908 -0.5070  0.1215
14803SOL    HW148325   3.345   6.539   8.314  0.7179  0.5217  0.5888
14803SOL    HW248326   3.437   6.425   8.280 -0.9020 -0.6743  0.0791
14804SOL     OW48327   1.682   0.430   3.238 -0.4583 -0.6762  0.4174
14804SOL    HW148328   1.727   0.513   3.256 -0.9745 -0.5123  0.9675
14804SOL    HW248329   1.691   0.418   3.143 -0.8284  0.2691  0.2521
14805SOL     OW48330   1.977   8.943   3.515 -0.0132  0.5844 -0.3788
14805SOL    HW148331   1.959   9.036   3.522  0.0940  0.4844  1.9359
14805SOL    HW248332   2.060   8.931   3.561  0.3483 -0.5531 -1.2781
14806SOL     OW48333   3.828   5.447   1.033  0.2072  0.0276 -0.5980
14806SOL    HW148334   3.915   5.487   1.030  0.0508  0.5265  0.9225
14806SOL    HW248335   3.777   5.495   0.968  0.1845  1.9695  0.7645
14807SOL     OW48336   1.839   0.600   5.904  0.0432 -0.0489 -0.0459
14807SOL    HW148337   1.755   0.646   5.904  0.0312 -0.0730 -0.2833
14807SOL    HW248338   1.904   0.668   5.922  0.2094  0.3856 -2.1301
14808SOL     OW48339   6.265   3.661   2.950  0.7228  0.1891  0.4752
14808SOL    HW148340   6.345   3.714   2.945  1.1140 -0.5078 -1.6197
14808SOL    HW248341   6.253   3.628   2.861 -1.8946  0.2242  0.7505
14809SOL     OW48342   2.263   0.318   7.010 -0.2300  0.3420 -0.5977
14809SOL    HW148343   2.222   0.401   6.986  0.5216  0.2091 -2.4488
14809SOL    HW248344   2.247   0.310   7.104 -2.4562  1.3764 -0.8326
14810SOL     OW48345   7.549   7.780   7.116 -0.2777  0.4702 -0.1507
14810SOL    HW148346   7.549   7.734   7.032  0.8723  0.5873 -0.2321
14810SOL    HW248347   7.563   7.711   7.181  0.4550  0.5793 -0.1909
14811SOL     OW48348   8.646   7.403   3.547  0.1358  0.2099  0.1261
14811SOL    HW148349   8.697   7.477   3.513 -1.7111  1.0755 -0.9141
14811SOL    HW248350   8.653   7.336   3.479  0.7365 -0.0832  0.4709
14812SOL     OW48351   3.262   8.376   1.853 -0.3869 -0.1497  0.5997
14812SOL    HW148352   3.234   8.358   1.943 -1.2326  1.3675  0.6774
14812SOL    HW248353   3.182   8.405   1.809 -0.3587 -2.3763 -1.1310
14813SOL     OW48354   6.822   5.908   5.264  0.0657 -0.4323 -0.4879
14813SOL    HW148355   6.860   5.821   5.270  1.3064  0.2020  1.5822
14813SOL    HW248356   6.779   5.922   5.348  0.5743  1.2588 -0.4733
14814SOL     OW48357   3.622   2.981   3.644  0.5382 -0.0649  0.1963
14814SOL    HW148358   3.613   3.071   3.674 -0.1263 -0.7290  2.1324
14814SOL    HW248359   3.643   2.989   3.550  1.9282  2.1143  0.6109
14815SOL     OW48360   1.757   8.395   5.469 -0.0667 -0.0990  0.0042
14815SOL    HW148361   1.677   8.408   5.519 -0.1693  1.0857 -0.4177
14815SOL    HW248362   1.811   8.471   5.492  0.9551 -0.8950  0.3075
14816SOL     OW48363   5.254   0.788   2.664  0.3275 -0.0331  0.1648
14816SOL    HW148364   5.343   0.817   2.648  0.5510 -0.2857  0.9138
14816SOL    HW248365   5.245   0.709   2.612  0.6817 -0.2430  0.4200
14817SOL     OW48366   7.995   2.809   8.510  0.0910 -0.3439  0.3039
14817SOL    HW148367   8.000   2.758   8.591 -1.9512 -1.5247 -0.2483
14817SOL    HW248368   7.936   2.758   8.453  0.0482  1.3498 -1.2455
14818SOL     OW48369   4.530   7.326   8.612  0.1950  0.4980 -0.2993
14818SOL    HW148370   4.583   7.363   8.682  0.3704  0.2392 -0.2919
14818SOL    HW248371   4.585   7.331   8.535 -0.3486  1.6540 -0.6304
14819SOL     OW48372   5.042   5.256   0.855 -0.1061 -0.0275 -0.1042
14819SOL    HW148373   5.083   5.290   0.934 -2.0527  0.7368  0.6379
14819SOL    HW248374   5.060   5.322   0.788 -0.8534  0.7395  0.4342
14820SOL     OW48375   0.470   9.776   8.712  0.1961  0.1598 -0.0312
14820SOL    HW148376   0.532   9.707   8.737  0.6710  0.4348 -0.4448
14820SOL    HW248377   0.410   9.733   8.651 -0.3268 -0.2338  0.7443
14821SOL     OW48378   4.122   0.889   4.764 -0.1639  0.1143 -0.0802
14821SOL    HW148379   4.051   0.841   4.808  0.6558  0.5500  1.8145
14821SOL    HW248380   4.190   0.897   4.831  0.8948  1.4004 -1.2649
14822SOL     OW48381   3.846   1.153   3.708 -0.0017 -0.0757  0.2119
14822SOL    HW148382   3.864   1.109   3.791  0.6913 -1.2957 -0.5525
14822SOL    HW248383   3.816   1.240   3.733 -2.4469 -1.2713  1.8451
14823SOL     OW48384   9.656   2.227   9.071 -0.4360 -0.0967 -0.1220
14823SOL    HW148385   9.688   2.252   8.984  1.3928 -1.6121  0.0432
14823SOL    HW248386   9.568   2.263   9.076  0.1675  1.7879 -1.8005
14824SOL     OW48387   4.335   7.733   7.584  0.0025 -0.4073 -0.1548
14824SOL    HW148388   4.303   7.763   7.499 -1.8138  0.5432  0.7874
14824SOL    HW248389   4.350   7.640   7.573  0.2546 -0.2115 -1.6401
14825SOL     OW48390   6.402   1.283   6.392  0.1286  0.2587  1.1921
14825SOL    HW148391   6.396   1.210   6.331  2.7056  0.1226  0.9768
14825SOL    HW248392   6.335   1.265   6.458 -1.4982 -0.5207 -0.6022
14826SOL     OW48393   6.956   5.294   5.309  0.5279 -0.1446 -0.4198
14826SOL    HW148394   7.010   5.340   5.374  0.3561  0.6751 -0.8466
14826SOL    HW248395   6.930   5.213   5.353 -2.2774  1.7756  1.8556
14827SOL     OW48396   5.692   7.322   7.070 -0.6313 -0.2606  0.2831
14827SOL    HW148397   5.745   7.363   7.001 -2.4146 -0.2114 -1.1398
14827SOL    HW248398   5.732   7.353   7.152  0.0216  1.7730 -0.7126
14828SOL     OW48399   6.702   1.919   9.073 -0.2650  0.3472  0.4638
14828SOL    HW148400   6.763   1.991   9.087 -1.5994  1.8498 -0.9266
14828SOL    HW248401   6.626   1.960   9.031 -1.1806 -1.8453 -0.1845
14829SOL     OW48402   7.169   3.644   6.302  0.5899 -0.3770 -0.1902
14829SOL    HW148403   7.139   3.723   6.348  1.7467  1.6612 -2.7060
14829SOL    HW248404   7.254   3.625   6.342 -0.3294 -1.3373  1.4351
14830SOL     OW48405   5.329   3.043   9.577 -0.5691 -0.0946 -0.1017
14830SOL    HW148406   5.340   3.136   9.556 -1.1575 -0.0819 -0.3749
14830SOL    HW248407   5.376   3.031   9.659  0.4287  0.2066 -0.6145
14831SOL     OW48408   0.182   5.324   1.630 -0.0603 -0.2477 -0.4647
14831SOL    HW148409   0.275   5.341   1.647 -0.4957  0.7777  1.1274
14831SOL    HW248410   0.181   5.236   1.593  1.5347 -0.3475 -0.3744
14832SOL     OW48411   1.397   2.752   4.162 -0.0085 -0.0286 -0.6567
14832SOL    HW148412   1.462   2.783   4.099  0.7034 -0.3323 -0.0850
14832SOL    HW248413   1.315   2.792   4.133  0.4303  0.3806 -1.3758
14833SOL     OW48414   4.715  10.193   5.685 -0.0927 -0.6116  0.0011
14833SOL    HW148415   4.626  10.188   5.720 -0.9587  1.9623 -1.5489
14833SOL    HW248416   4.715  10.133   5.610 -0.9825  0.3326 -0.7846
14834SOL     OW48417   9.136  10.068   3.696 -0.1283  0.0631 -0.1027
14834SOL    HW148418   9.192  10.022   3.634  0.3153  1.5547 -0.8554
14834SOL    HW248419   9.138  10.014   3.775  1.5991 -0.4138 -0.4303
14835SOL     OW48420   5.331   4.911   6.470  0.0840  0.3371  0.5438
14835SOL    HW148421   5.276   4.969   6.418 -1.1439 -0.9857  0.2910
14835SOL    HW248422   5.292   4.824   6.458  1.4997 -0.4554  1.3721
14836SOL     OW48423   4.241   0.455   7.763 -0.0966  0.3487  0.0900
14836SOL    HW148424   4.296   0.491   7.694  1.7170 -1.3598  0.5573
14836SOL    HW248425   4.260   0.508   7.840 -1.1182  1.4021 -0.3464
14837SOL     OW48426   5.281   4.655   4.291 -0.2313 -0.2717 -0.0354
14837SOL    HW148427   5.297   4.749   4.298 -2.7313  0.0978  2.7099
14837SOL    HW248428   5.186   4.647   4.290 -0.0990 -2.8366  1.1872
14838SOL     OW48429   8.942   9.647   6.334 -0.3582  0.5113 -0.1015
14838SOL    HW148430   8.953   9.739   6.358 -0.7070  0.4031  0.4925
14838SOL    HW248431   8.861   9.646   6.281 -1.4839  0.2746  1.5611
14839SOL     OW48432   5.879   7.406   7.313 -0.2448  0.2503 -0.0167
14839SOL    HW148433   5.961   7.379   7.272 -0.6782  0.6968 -1.2266
14839SOL    HW248434   5.855   7.332   7.369 -0.0505 -0.7529 -1.2119
14840SOL     OW48435   8.966   8.272   6.938  0.2063  0.2823 -0.4455
14840SOL    HW148436   9.003   8.185   6.955 -0.5239  0.0036 -0.2541
14840SOL    HW248437   9.039   8.332   6.952  0.9283 -0.3568 -1.3290
14841SOL     OW48438   7.202   2.274   6.873 -0.1450 -0.1735 -0.0225
14841SOL    HW148439   7.290   2.254   6.843 -0.2303 -1.0242  0.2544
14841SOL    HW248440   7.199   2.240   6.962 -0.4048  0.8611  0.3726
14842SOL     OW48441   9.467   4.321   3.903  0.3448 -0.4476 -0.4909
14842SOL    HW148442   9.491   4.364   3.985  0.8397  1.0277 -1.3731
14842SOL    HW248443   9.372   4.330   3.898  0.4218  0.4344 -0.5829
14843SOL     OW48444   8.740   2.214   2.028 -0.3402  0.2470  0.2803
14843SOL    HW148445   8.726   2.125   1.994  0.5854 -0.2016  1.0055
14843SOL    HW248446   8.658   2.236   2.072 -0.5168 -0.3202  0.2428
14844SOL     OW48447   6.436   2.240   3.270 -0.2316 -0.6648 -0.2064
14844SOL    HW148448   6.430   2.175   3.340 -0.2455 -1.6897 -1.1359
14844SOL    HW248449   6.470   2.192   3.195  0.6023  0.6109 -0.6748
14845SOL     OW48450   3.876   9.384  10.207 -0.2241  0.3140 -0.3497
14845SOL    HW148451   3.873   9.464  10.154 -1.1801  1.5004  1.3776
14845SOL    HW248452   3.946   9.332  10.169  0.7367  2.1844 -1.2527
14846SOL     OW48453   9.435   9.216   6.604 -0.1153  0.0061  0.2220
14846SOL    HW148454   9.401   9.220   6.515  0.2226 -1.9532 -0.0423
14846SOL    HW248455   9.407   9.130   6.637  0.1987  0.4808  1.8227
14847SOL     OW48456   5.958   4.258   2.990  0.0247 -0.5183 -1.2104
14847SOL    HW148457   5.903   4.268   3.068  0.9946  2.2858 -0.7835
14847SOL    HW248458   5.996   4.170   2.999  0.0837 -0.3061  1.4518
14848SOL     OW48459   9.998   6.259   7.360  0.1234 -0.1185 -0.1102
14848SOL    HW148460   9.999   6.302   7.274 -0.7870  1.3373  0.5590
14848SOL    HW248461   9.906   6.260   7.386 -0.0619 -3.1354 -0.3052
14849SOL     OW48462   5.633   8.514   3.948 -0.2493 -0.5263  0.0400
14849SOL    HW148463   5.628   8.590   4.006 -1.1505 -0.7815  0.3232
14849SOL    HW248464   5.726   8.497   3.937  0.1059  1.9995 -1.8616
14850SOL     OW48465   4.785   2.191   5.444  0.3093  0.4049 -0.2558
14850SOL    HW148466   4.856   2.215   5.385  0.6879  0.2234  0.1205
14850SOL    HW248467   4.825   2.191   5.531 -0.0822  0.0274 -0.0711
14851SOL     OW48468   7.149   0.157   1.966  0.0728 -0.0412  0.5964
14851SOL    HW148469   7.109   0.088   1.913 -0.7442  0.2029  0.8800
14851SOL    HW248470   7.235   0.171   1.927 -0.7461  0.5855 -1.0548
14852SOL     OW48471   0.573   2.385   4.824  0.3840  0.4991 -0.1568
14852SOL    HW148472   0.493   2.431   4.797 -0.3583 -1.1508 -0.8824
14852SOL    HW248473   0.551   2.292   4.817  1.7610  0.0053  1.5121
14853SOL     OW48474   3.930   1.757   6.049  0.3642 -0.7729 -0.0508
14853SOL    HW148475   3.972   1.780   5.966  1.4971 -2.0041  0.1340
14853SOL    HW248476   3.848   1.716   6.024  0.3806 -0.5274 -0.5290
14854SOL     OW48477   2.312   7.704   2.627  0.1732  0.2059  0.0385
14854SOL    HW148478   2.352   7.786   2.653  0.9988 -0.0928 -0.2635
14854SOL    HW248479   2.330   7.644   2.700 -1.4531  0.5861  0.8072
14855SOL     OW48480   6.937   5.875   8.987  0.2007 -0.3651  0.0170
14855SOL    HW148481   6.947   5.902   9.078 -1.1296 -0.5020  0.2207
14855SOL    HW248482   6.885   5.795   8.991 -2.0106  0.9315 -0.9627
14856SOL     OW48483   8.339   5.303   1.454 -0.6913 -0.1675 -0.0760
14856SOL    HW148484   8.276   5.236   1.480 -0.0579 -0.8993 -0.3827
14856SOL    HW248485   8.391   5.319   1.533 -1.6105  0.8631  0.3464
14857SOL     OW48486   6.663   8.981   4.220  0.2698 -1.3320  0.5878
14857SOL    HW148487   6.598   8.919   4.187 -0.8181  0.0087  0.1354
14857SOL    HW248488   6.651   9.060   4.167  0.8151 -0.3210  1.9024
14858SOL     OW48489   6.226   5.865   6.920 -0.7372 -0.2657  0.4038
14858SOL    HW148490   6.188   5.859   6.833  2.8057 -1.5428 -1.2254
14858SOL    HW248491   6.311   5.907   6.907  0.8972 -2.4643  2.8179
14859SOL     OW48492   4.296   9.886   8.426  0.0489  0.7214 -0.3806
14859SOL    HW148493   4.212   9.866   8.466  0.1116 -1.7711 -1.3257
14859SOL    HW248494   4.274   9.935   8.347 -0.4171  1.1634  0.0175
14860SOL     OW48495   8.042   0.345  10.131 -0.2084 -0.1068 -0.2198
14860SOL    HW148496   7.954   0.380  10.117 -0.6356 -0.0782  2.2205
14860SOL    HW248497   8.030   0.250  10.133  0.1808 -0.2332 -1.8186
14861SOL     OW48498   6.093   3.295   7.085 -0.1156 -0.1986 -0.3682
14861SOL    HW148499   6.086   3.288   7.180  0.4701 -0.5481 -0.3449
14861SOL    HW248500   6.089   3.204   7.054  1.2846 -0.2257 -0.5496
14862SOL     OW48501   3.261   0.770   8.937  0.0670 -0.1768  0.3984
14862SOL    HW148502   3.265   0.675   8.924  0.2934 -0.1825  0.5088
14862SOL    HW248503   3.324   0.806   8.875 -0.2348 -0.0776  0.1479
14863SOL     OW48504   3.326   4.914   2.532  0.4310 -0.5692  0.1040
14863SOL    HW148505   3.348   4.917   2.439 -3.3274  1.7723 -0.9048
14863SOL    HW248506   3.279   4.831   2.543 -1.8609  0.5028 -0.9516
14864SOL     OW48507   1.488   3.805   1.759 -0.3736 -0.5672 -0.3787
14864SOL    HW148508   1.571   3.776   1.722 -0.3667 -0.9054 -0.1008
14864SOL    HW248509   1.486   3.899   1.743 -0.7047 -0.8139 -1.9263
14865SOL     OW48510   6.114   3.212   9.685  0.0756  0.2044  0.6675
14865SOL    HW148511   6.080   3.123   9.680  3.6426 -1.2361 -1.5471
14865SOL    HW248512   6.036   3.267   9.687 -2.3485 -2.8314 -1.1910
14866SOL     OW48513  10.032   5.878   2.853 -0.1720 -0.1728  0.0465
14866SOL    HW148514   9.982   5.959   2.859  1.5230  0.8612  1.1009
14866SOL    HW248515  10.056   5.857   2.944  0.2257 -1.3266 -0.2940
14867SOL     OW48516   5.412   1.305   2.519  0.6893  0.8220 -0.3566
14867SOL    HW148517   5.317   1.294   2.526  0.5939 -0.0042 -2.2495
14867SOL    HW248518   5.424   1.356   2.439  1.8732 -0.1028 -0.7994
14868SOL     OW48519   6.139   7.278   1.782  0.1010 -0.0511 -0.2154
14868SOL    HW148520   6.232   7.299   1.779  0.1302 -0.0583  0.6067
14868SOL    HW248521   6.097   7.350   1.733  0.6540 -0.8840 -1.9910
14869SOL     OW48522   5.619   3.846   4.713 -0.3626 -0.1609 -0.3687
14869SOL    HW148523   5.544   3.806   4.669  0.7389 -1.3963 -1.2225
14869SOL    HW248524   5.665   3.892   4.643  0.9796 -1.4732 -0.4019
14870SOL     OW48525   2.498   1.445   5.217  0.0542  0.0820  0.5540
14870SOL    HW148526   2.551   1.389   5.274  2.8476  0.4175 -1.5126
14870SOL    HW248527   2.478   1.389   5.141 -0.7084  0.6529  0.3220
14871SOL     OW48528   2.816   0.301   6.410  0.6821 -0.1804 -0.1844
14871SOL    HW148529   2.775   0.301   6.497  1.0551  0.0083 -0.0051
14871SOL    HW248530   2.763   0.363   6.359  0.3893 -0.3817 -0.1301
14872SOL     OW48531   6.950   7.313   1.991  0.4990  0.3816  0.0658
14872SOL    HW148532   7.028   7.317   2.046  0.4954  0.3719  0.0717
14872SOL    HW248533   6.884   7.270   2.046  0.2572  1.0770  0.3326
14873SOL     OW48534   6.706   6.202   8.061 -0.1081 -0.1089 -0.5680
14873SOL    HW148535   6.690   6.274   8.000 -1.3539  0.8851  0.8559
14873SOL    HW248536   6.694   6.123   8.008 -3.1468  0.6796 -1.2342
14874SOL     OW48537   1.328   0.058   9.503 -0.3646 -0.5344 -0.0292
14874SOL    HW148538   1.350  -0.025   9.545  0.6252  1.0849  2.8835
14874SOL    HW248539   1.238   0.045   9.472  0.2510 -3.1253 -1.0102
14875SOL     OW48540   1.916   0.845   2.787  0.0270 -0.2862  0.1742
14875SOL    HW148541   1.897   0.848   2.881  1.1503 -0.2470  0.4176
14875SOL    HW248542   2.003   0.804   2.782  0.0669 -0.0992 -0.8363
14876SOL     OW48543   9.967   7.063   0.417 -0.4968 -0.2870 -0.4754
14876SOL    HW148544  10.003   7.010   0.487 -1.6866 -0.5196 -0.0087
14876SOL    HW248545   9.968   7.153   0.451 -0.7237 -0.3505 -0.2945
14877SOL     OW48546   5.988   3.696   5.541  0.1296  0.4346  0.4898
14877SOL    HW148547   5.959   3.766   5.600  1.6331  0.2570  1.4910
14877SOL    HW248548   5.961   3.726   5.454 -2.0045  0.7768  1.1959
14878SOL     OW48549   1.899   3.743   8.122 -0.0816 -0.1389  0.0933
14878SOL    HW148550   1.927   3.669   8.068  0.0691 -0.4217  0.5590
14878SOL    HW248551   1.872   3.704   8.205  3.5568  0.5759  1.8025
14879SOL     OW48552   4.153   1.191   9.264 -0.1013 -0.0284  0.1593
14879SOL    HW148553   4.112   1.277   9.255 -0.2464 -0.0527  0.5778
14879SOL    HW248554   4.247   1.210   9.262 -0.1317  0.1382  0.2254
14880SOL     OW48555   2.929   9.050   2.235 -0.4759  0.5416  0.1863
14880SOL    HW148556   2.997   9.085   2.177 -0.4995  0.1386 -0.0906
14880SOL    HW248557   2.846   9.072   2.192 -0.4874 -2.2130 -1.4733
14881SOL     OW48558   8.508   9.710   9.228 -0.1591 -0.0168  0.6214
14881SOL    HW148559   8.575   9.762   9.184 -0.1803  0.5132  1.2107
14881SOL    HW248560   8.484   9.761   9.305 -1.2049 -0.2245  0.4491
14882SOL     OW48561   5.126   2.944   0.498  0.2023  0.1800  0.1175
14882SOL    HW148562   5.167   3.007   0.439 -1.9607 -0.1604 -1.8736
14882SOL    HW248563   5.179   2.865   0.489 -0.3053  0.0180 -1.7010
14883SOL     OW48564   0.961   7.764   8.480 -0.2218  0.1010  0.1766
14883SOL    HW148565   0.884   7.723   8.440 -0.0011  1.5718 -1.8906
14883SOL    HW248566   1.016   7.690   8.506 -1.2552 -0.9492 -0.5031
14884SOL     OW48567   2.073   4.615   5.874 -1.0593  0.2728  0.0912
14884SOL    HW148568   2.112   4.598   5.788 -2.1398  1.5576 -0.7009
14884SOL    HW248569   2.078   4.531   5.919 -0.9028 -0.5754 -1.4138
14885SOL     OW48570   6.155   2.127   5.682  0.6887 -0.1217  0.3969
14885SOL    HW148571   6.082   2.174   5.642  0.3252  0.2390  1.4305
14885SOL    HW248572   6.196   2.080   5.610  0.0258  0.4441 -0.3703
14886SOL     OW48573   9.800   5.962   4.366  0.0858  0.0690 -0.1853
14886SOL    HW148574   9.718   6.002   4.337  0.4562  0.1402 -1.1658
14886SOL    HW248575   9.826   5.904   4.294 -0.2882 -1.7698  1.0669
14887SOL     OW48576   5.123   5.166   4.503 -0.2606 -0.4453 -0.7617
14887SOL    HW148577   5.078   5.176   4.587  0.3204  3.6377 -0.7266
14887SOL    HW248578   5.053   5.163   4.438 -0.6626 -0.5506 -0.3264
14888SOL     OW48579   9.707   3.684   5.270  1.3253  0.1366 -0.2685
14888SOL    HW148580   9.668   3.600   5.246  1.3732  0.3942 -1.2852
14888SOL    HW248581   9.719   3.678   5.365  0.2008 -0.5172 -0.1502
14889SOL     OW48582   0.235   6.133   5.762 -0.1106  0.4664  0.1223
14889SOL    HW148583   0.281   6.067   5.815 -0.7691 -1.1332 -1.2272
14889SOL    HW248584   0.302   6.168   5.704 -0.2001 -0.6378 -0.6721
14890SOL     OW48585   4.594   4.192   7.051 -0.3904  0.5762  0.5313
14890SOL    HW148586   4.611   4.181   7.144 -1.0691  0.1460  0.6102
14890SOL    HW248587   4.667   4.149   7.008 -1.5273 -1.8192  0.8626
14891SOL     OW48588   3.508   1.708   8.185  0.0845  0.0271  0.0441
14891SOL    HW148589   3.442   1.737   8.247 -0.2056  0.0972 -0.2956
14891SOL    HW248590   3.463   1.643   8.131  0.0917  0.5830 -0.6399
14892SOL     OW48591   2.858   1.171   1.976 -0.3860  0.8524  0.3733
14892SOL    HW148592   2.881   1.150   1.885  0.3111 -0.0690  0.7378
14892SOL    HW248593   2.851   1.085   2.019  0.0427  1.2956  1.3604
14893SOL     OW48594   9.928   8.044   8.613  0.1534  0.2976  0.2087
14893SOL    HW148595   9.890   8.067   8.528  1.1214 -0.3656 -0.4277
14893SOL    HW248596  10.005   8.100   8.621 -0.4655  1.0537  1.1151
14894SOL     OW48597   9.524   2.504   3.053 -0.1489 -1.1169  0.0841
14894SOL    HW148598   9.433   2.532   3.055  0.4352  1.0803 -0.4902
14894SOL    HW248599   9.545   2.495   2.960  0.9021  1.1988  0.0126
14895SOL     OW48600   1.456   8.987   8.310  0.3274  0.7944  0.4572
14895SOL    HW148601   1.426   8.954   8.225  1.2652  0.2983  0.3066
14895SOL    HW248602   1.532   9.040   8.290  0.2001  1.1630  0.9375
14896SOL     OW48603   6.027   5.742   3.735 -0.0387 -0.3268 -0.1547
14896SOL    HW148604   5.940   5.725   3.771  0.1214  0.1493  0.4736
14896SOL    HW248605   6.033   5.684   3.659 -1.0807 -0.0130 -0.4848
14897SOL     OW48606   6.290   8.694   9.668  0.0877  0.6693  0.4120
14897SOL    HW148607   6.320   8.726   9.583  1.7377 -0.0746  0.6717
14897SOL    HW248608   6.370   8.688   9.720 -0.5403 -1.2582  1.2096
14898SOL     OW48609   4.692   7.376   1.117 -0.1290 -0.0291  0.1952
14898SOL    HW148610   4.686   7.436   1.192  2.3502  0.9968 -0.3249
14898SOL    HW248611   4.611   7.325   1.120 -0.5865  0.7136  2.9302
14899SOL     OW48612   5.152   8.630   3.990  0.2410 -0.1206 -0.7240
14899SOL    HW148613   5.138   8.539   4.018 -0.1831 -0.2264 -1.2630
14899SOL    HW248614   5.136   8.682   4.068  0.2962 -0.4967 -0.4602
14900SOL     OW48615   1.905   3.703   4.884 -0.3418  0.2346 -0.0534
14900SOL    HW148616   1.919   3.655   4.966  0.1090 -0.5878 -0.5937
14900SOL    HW248617   1.929   3.793   4.905  1.4969 -0.2717  0.2798
14901SOL     OW48618   9.622   9.028   1.957 -0.2270  0.0581 -0.6849
14901SOL    HW148619   9.697   9.051   2.013 -1.0716 -1.3456  1.1431
14901SOL    HW248620   9.654   9.039   1.868  1.3523  1.9215  0.0402
14902SOL     OW48621   3.662   4.269   3.806  0.0068  0.9346 -0.3809
14902SOL    HW148622   3.692   4.282   3.896 -0.2471 -2.0414  0.2318
14902SOL    HW248623   3.566   4.272   3.811 -0.0822 -0.9759 -0.1508
14903SOL     OW48624   5.155   1.365   7.542  0.0038  0.7625 -0.0233
14903SOL    HW148625   5.074   1.414   7.561  0.6518  2.0372 -0.4425
14903SOL    HW248626   5.166   1.373   7.447 -0.6111 -1.4281 -0.3380
14904SOL     OW48627   2.798   5.055   1.709 -0.1095 -0.0798 -0.0762
14904SOL    HW148628   2.784   5.140   1.668  0.4923 -0.2417 -0.6404
14904SOL    HW248629   2.861   5.011   1.652  1.3850 -0.0141  1.4160
14905SOL     OW48630   0.008   4.883   7.384 -0.1125 -0.5718  0.4210
14905SOL    HW148631  -0.038   4.803   7.409 -0.3027 -0.7114 -0.3380
14905SOL    HW248632   0.086   4.885   7.439 -0.0803 -1.3071  0.4071
14906SOL     OW48633   9.957   4.277   4.461  0.1440  0.7229  0.1077
14906SOL    HW148634   9.886   4.294   4.398  0.5038  1.7124 -0.0421
14906SOL    HW248635   9.936   4.191   4.497 -2.8946  2.2043  2.3890
14907SOL     OW48636   5.957   8.159   0.199 -0.4106  0.2442  0.0714
14907SOL    HW148637   5.862   8.161   0.187 -0.5645 -2.4282  0.3096
14907SOL    HW248638   5.992   8.187   0.114 -1.3306  2.4912  0.3557
14908SOL     OW48639   3.550   1.641   5.461 -0.3354 -0.4421  0.1930
14908SOL    HW148640   3.595   1.590   5.394 -0.3520 -0.1154 -0.0737
14908SOL    HW248641   3.569   1.732   5.437 -2.5172 -0.2095 -0.9359
14909SOL     OW48642   0.232   7.621   9.533  0.2587  0.2485 -0.0820
14909SOL    HW148643   0.267   7.534   9.553  0.2535  0.4930  1.0885
14909SOL    HW248644   0.285   7.681   9.586 -2.1816  0.5921  2.1785
14910SOL     OW48645   0.271   1.976   3.584 -0.4407  0.5592  0.0080
14910SOL    HW148646   0.261   1.978   3.489  0.0915  2.2122 -0.0413
14910SOL    HW248647   0.354   1.932   3.599  0.3512  1.8850 -0.3965
14911SOL     OW48648   8.039   3.768   3.705  0.3345  0.0409 -0.0902
14911SOL    HW148649   7.959   3.723   3.678  0.1111 -0.0514  0.6781
14911SOL    HW248650   8.093   3.699   3.744  0.6404  0.1659 -0.2918
14912SOL     OW48651   6.133   5.425   0.319 -0.3944 -0.3425 -0.1845
14912SOL    HW148652   6.071   5.479   0.270  0.7187  1.8757  0.6912
14912SOL    HW248653   6.119   5.450   0.411  1.6224  0.0969  0.0540
14913SOL     OW48654   0.250   5.732   8.672 -0.0516  0.3436  0.0508
14913SOL    HW148655   0.234   5.678   8.750 -1.0127 -0.3018 -0.5746
14913SOL    HW248656   0.166   5.773   8.653  0.7211  2.3392  0.6800
14914SOL     OW48657   1.444   4.060   4.653 -0.0478 -0.3030 -0.2922
14914SOL    HW148658   1.391   4.008   4.593 -0.9844  0.1392  0.1358
14914SOL    HW248659   1.393   4.065   4.733 -0.3246  1.7921 -0.5197
14915SOL     OW48660   0.293   0.182   9.420 -0.8749  0.3149 -0.0877
14915SOL    HW148661   0.307   0.088   9.424 -0.6163  0.3344 -0.5359
14915SOL    HW248662   0.365   0.219   9.470 -1.6160  0.2288  1.0815
14916SOL     OW48663   4.193   0.084   1.222 -0.3867 -0.0992  0.0793
14916SOL    HW148664   4.269   0.034   1.250  1.0955  1.2567 -1.3557
14916SOL    HW248665   4.222   0.132   1.145 -2.9905 -0.2898 -1.1451
14917SOL     OW48666   3.982   4.628   6.686 -0.3893  0.3361  0.3878
14917SOL    HW148667   3.965   4.619   6.780 -0.2123  0.0986  0.4000
14917SOL    HW248668   3.899   4.658   6.649 -0.1732  1.4195  0.7599
14918SOL     OW48669   5.478   9.044   2.334 -0.6701  0.1068 -0.1929
14918SOL    HW148670   5.513   9.127   2.366  0.7047 -0.5622  0.1266
14918SOL    HW248671   5.440   9.003   2.411  0.4505 -0.4245  0.0986
14919SOL     OW48672   2.685   0.494   2.175  0.0695 -0.4566 -0.4013
14919SOL    HW148673   2.757   0.431   2.184  0.0220 -0.2410  2.8678
14919SOL    HW248674   2.729   0.578   2.163  0.4693 -0.2947  1.7892
14920SOL     OW48675   9.024   8.947   0.163  0.1754 -0.0991 -0.1844
14920SOL    HW148676   9.076   8.913   0.236 -0.5791 -1.0460 -0.0623
14920SOL    HW248677   8.945   8.893   0.163 -1.1070  1.6491  0.0234
14921SOL     OW48678   5.273   0.892   6.703  0.1545  0.0977  0.4080
14921SOL    HW148679   5.250   0.926   6.616 -1.7072 -0.1425  0.7595
14921SOL    HW248680   5.356   0.847   6.690 -0.2091 -0.1434 -1.3268
14922SOL     OW48681   9.908   7.203  10.109  0.0992 -0.7741 -0.2083
14922SOL    HW148682   9.912   7.231  10.200  1.6202 -1.6938  0.0374
14922SOL    HW248683   9.906   7.285  10.059  0.0373 -0.2577  0.6148
14923SOL     OW48684   4.104   9.493   6.801  0.8235  0.3297 -0.0133
14923SOL    HW148685   4.087   9.587   6.798 -1.4757  0.0211  1.0136
14923SOL    HW248686   4.167   9.482   6.872  1.2014  1.1072 -0.2234
14924SOL     OW48687   5.539   9.259   2.501 -0.2279  0.1359  1.0481
14924SOL    HW148688   5.600   9.304   2.442 -0.2369 -1.0326  0.1287
14924SOL    HW248689   5.470   9.324   2.517 -0.9812  0.0212 -1.3909
14925SOL     OW48690   4.840   2.064   8.854 -0.4170 -0.1123 -0.0661
14925SOL    HW148691   4.845   1.982   8.806  0.6570  0.2347 -0.5784
14925SOL    HW248692   4.927   2.103   8.844 -0.1244 -0.0386  2.1828
14926SOL     OW48693   7.582   2.450   7.350 -0.7131  0.5316 -0.4463
14926SOL    HW148694   7.521   2.390   7.394 -1.0531  0.2694 -1.2626
14926SOL    HW248695   7.615   2.400   7.275  1.5462  0.1592  0.6908
14927SOL     OW48696   6.025   7.318   4.353  0.0697  0.2760 -0.2356
14927SOL    HW148697   6.045   7.260   4.427  0.1258  1.0703  0.3928
14927SOL    HW248698   5.975   7.263   4.292  0.2355 -0.4618  0.2760
14928SOL     OW48699   7.170   8.831   3.931 -0.2291 -0.2674 -0.1111
14928SOL    HW148700   7.250   8.788   3.960 -0.5669  0.7250  2.6029
14928SOL    HW248701   7.100   8.787   3.979 -1.2239 -0.3704 -1.5765
14929SOL     OW48702  10.067   1.625   8.199 -0.3077  0.0154  0.5812
14929SOL    HW148703  10.110   1.601   8.281  0.9166 -0.1033 -0.0725
14929SOL    HW248704   9.982   1.660   8.225  0.7929  1.7672  2.0357
14930SOL     OW48705   6.415   0.668   5.115 -0.1025 -0.2153 -0.0351
14930SOL    HW148706   6.456   0.735   5.168  2.8137 -1.5771 -0.3833
14930SOL    HW248707   6.441   0.689   5.025 -1.5130 -0.2682 -0.4819
14931SOL     OW48708   1.560   5.593   3.969  0.1497  0.6220  0.3690
14931SOL    HW148709   1.501   5.518   3.961  0.9562  0.1013 -1.1066
14931SOL    HW248710   1.562   5.612   4.063  0.5369 -1.7081  0.8981
14932SOL     OW48711   3.425   7.501   3.282 -0.5103 -0.7176  0.7611
14932SOL    HW148712   3.347   7.457   3.313 -0.4407  0.1035  2.1812
14932SOL    HW248713   3.495   7.437   3.292 -1.0893 -1.7515 -1.3091
14933SOL     OW48714   5.423   4.888   7.091  0.4449 -0.2151  0.5652
14933SOL    HW148715   5.329   4.868   7.095  0.0632  1.2904 -0.1403
14933SOL    HW248716   5.439   4.911   6.999  1.8426 -1.8880  0.3477
14934SOL     OW48717   6.411   7.750   4.178 -0.3250  0.3956 -0.3938
14934SOL    HW148718   6.360   7.708   4.248  0.4447  1.6157  0.9729
14934SOL    HW248719   6.408   7.843   4.200  2.1265  0.5623 -0.4825
14935SOL     OW48720   4.119   2.405   0.476  0.1456  0.4616 -0.2256
14935SOL    HW148721   4.099   2.458   0.553 -0.4740 -0.7154  0.4451
14935SOL    HW248722   4.064   2.443   0.407 -0.8148  0.2961  0.4136
14936SOL     OW48723   5.043   1.531   3.976 -0.0425 -0.3927 -0.0423
14936SOL    HW148724   5.009   1.618   3.952  2.7355  0.2551 -2.1226
14936SOL    HW248725   5.115   1.515   3.915  1.0630 -3.1866  1.7659
14937SOL     OW48726  10.132   2.722   6.264 -0.3052 -0.0541  0.0813
14937SOL    HW148727  10.063   2.784   6.288  2.0104  2.2968  1.1149
14937SOL    HW248728  10.127   2.654   6.331 -1.5426  0.0873  0.1608
14938SOL     OW48729   0.795   3.806   0.952 -0.1576  0.1783 -0.1589
14938SOL    HW148730   0.863   3.791   1.018 -0.1485 -1.4776 -0.5054
14938SOL    HW248731   0.795   3.726   0.899 -0.8029  1.1006 -1.6014
14939SOL     OW48732   2.329   2.409   4.646 -0.7742 -0.4263 -0.2122
14939SOL    HW148733   2.404   2.356   4.618  0.3726  0.1851  1.5286
14939SOL    HW248734   2.323   2.394   4.740 -1.6831  0.9763 -0.0125
14940SOL     OW48735   3.715   6.216   1.924  0.4559  0.1197 -0.1229
14940SOL    HW148736   3.722   6.133   1.878  0.7967  1.1956 -2.1117
14940SOL    HW248737   3.760   6.279   1.867 -0.2487  1.7646  1.0716
14941SOL     OW48738   8.794   1.600   4.296 -0.0225 -0.0899  0.1324
14941SOL    HW148739   8.834   1.637   4.374 -1.9196  0.4847  0.8772
14941SOL    HW248740   8.734   1.532   4.329 -1.7412  0.9597 -0.6830
14942SOL     OW48741   5.075   5.410   2.093 -0.0688  0.3041  0.1235
14942SOL    HW148742   5.118   5.472   2.151 -1.7188  1.2011  0.4642
14942SOL    HW248743   5.054   5.335   2.148  0.1687  0.2877  0.1913
14943SOL     OW48744   1.930   3.184   9.688 -0.1919 -0.5444 -0.6100
14943SOL    HW148745   1.892   3.179   9.775  0.1822 -0.2108 -0.4274
14943SOL    HW248746   1.918   3.275   9.661  2.3233  0.1421  0.3040
14944SOL     OW48747   6.642   3.491   7.321  0.2240  0.4582  0.1531
14944SOL    HW148748   6.677   3.404   7.302 -1.1608  0.1808 -1.2891
14944SOL    HW248749   6.595   3.479   7.404 -0.6182 -0.3911 -0.4215
14945SOL     OW48750   1.521   4.267   2.209  0.7911 -0.3234 -0.0782
14945SOL    HW148751   1.479   4.291   2.291 -0.0037  0.4963 -0.6902
14945SOL    HW248752   1.614   4.278   2.225  0.7336 -1.2215  1.0206
14946SOL     OW48753   6.935   5.378   2.248  0.4339  0.4651  0.1305
14946SOL    HW148754   6.888   5.386   2.330  0.7613 -1.0514  0.5032
14946SOL    HW248755   6.869   5.353   2.184 -0.2167  3.6652 -0.5950
14947SOL     OW48756   4.630   4.369   0.316  0.4133  0.0195 -0.2928
14947SOL    HW148757   4.599   4.388   0.405 -0.8059  0.9972 -0.8854
14947SOL    HW248758   4.634   4.274   0.311 -0.1425 -0.0624  0.6124
14948SOL     OW48759   7.543   1.188   6.936  0.4659 -0.5005  0.2652
14948SOL    HW148760   7.547   1.200   7.031 -0.2263  0.1295  0.2212
14948SOL    HW248761   7.453   1.210   6.913  0.0628 -2.5052 -0.2844
14949SOL     OW48762   3.526   8.603   5.614  0.1790 -0.2630 -0.0259
14949SOL    HW148763   3.610   8.646   5.631 -1.2843  3.3122 -0.7220
14949SOL    HW248764   3.487   8.590   5.700  0.9864 -0.9050  0.2463
14950SOL     OW48765   6.593   4.917   0.795  0.0717  0.0870  0.2307
14950SOL    HW148766   6.570   4.943   0.884  1.1054 -1.6429  1.0469
14950SOL    HW248767   6.511   4.886   0.757 -0.3662  0.7919  0.5672
14951SOL     OW48768   9.619   8.205   0.435 -0.5496 -0.3800 -0.4609
14951SOL    HW148769   9.709   8.221   0.408 -0.3185  0.9108  0.9247
14951SOL    HW248770   9.598   8.278   0.494 -1.7367 -1.8682  1.0637
14952SOL     OW48771   0.816  10.111   9.904  0.7788 -1.1630  0.1661
14952SOL    HW148772   0.805  10.018   9.920  1.1961 -1.2518 -0.0557
14952SOL    HW248773   0.822  10.151   9.991  0.0495 -1.2739  0.2695
14953SOL     OW48774   9.480   0.137   1.457  0.3456  0.1715  0.0661
14953SOL    HW148775   9.446   0.063   1.508  1.6011 -0.4196  0.0864
14953SOL    HW248776   9.456   0.117   1.367 -1.0137  0.7267  0.2814
14954SOL     OW48777   6.082   3.483   8.628  0.5364  0.2524 -0.6989
14954SOL    HW148778   6.091   3.446   8.716 -0.2591 -0.3691 -0.8695
14954SOL    HW248779   6.034   3.565   8.641  0.0977 -0.0169 -0.5804
14955SOL     OW48780   8.446   7.609   1.719  0.0869 -0.0714 -0.6450
14955SOL    HW148781   8.532   7.570   1.732  0.4364  1.1950  1.2462
14955SOL    HW248782   8.403   7.551   1.655  1.5434 -1.9390 -0.0427
14956SOL     OW48783   6.933   6.791   0.453 -0.2664  0.1156  0.0299
14956SOL    HW148784   6.846   6.791   0.492 -0.4433 -0.3166 -0.3475
14956SOL    HW248785   6.978   6.866   0.492 -1.4193  1.4697 -1.1148
14957SOL     OW48786   6.371   0.904   8.415  0.4395 -0.3759 -0.0247
14957SOL    HW148787   6.292   0.936   8.371  1.8280 -0.4143 -2.7648
14957SOL    HW248788   6.406   0.980   8.461 -0.6505 -0.1134  0.3972
14958SOL     OW48789   8.550   5.066   6.622  0.3740 -0.0201 -0.1247
14958SOL    HW148790   8.584   5.030   6.541 -0.8197 -0.4214 -0.4761
14958SOL    HW248791   8.527   5.156   6.601 -0.0004 -0.1447 -0.2625
14959SOL     OW48792   1.357   3.292   4.925 -0.4011 -0.0799  0.0463
14959SOL    HW148793   1.366   3.285   4.830 -0.7054 -0.0306  0.0118
14959SOL    HW248794   1.442   3.323   4.955  0.5070 -2.3830  0.0468
14960SOL     OW48795   4.997   5.419   9.298  0.1005 -0.2553 -0.0769
14960SOL    HW148796   4.971   5.349   9.357  0.4576  0.3575  0.8202
14960SOL    HW248797   5.023   5.374   9.217  1.7432 -1.2859  0.9746
14961SOL     OW48798   0.784   5.242   5.487  0.5454  0.4316 -0.3235
14961SOL    HW148799   0.879   5.227   5.490  0.5545  0.3113 -1.1565
14961SOL    HW248800   0.774   5.321   5.434  0.2150  0.8414  0.3395
14962SOL     OW48801   8.547   9.480   0.150 -0.4372  0.7533  0.3555
14962SOL    HW148802   8.600   9.538   0.205  0.1185  0.4597  0.1286
14962SOL    HW248803   8.481   9.538   0.112  0.7560  1.4734 -0.7082
14963SOL     OW48804   8.029   5.244   3.841  0.7419 -0.2001 -0.2825
14963SOL    HW148805   8.038   5.257   3.935 -0.8532  2.2600 -0.3778
14963SOL    HW248806   7.962   5.176   3.833  1.7501 -1.2832  0.3345
14964SOL     OW48807   3.078   3.440   4.844 -0.3971 -0.2720  0.5959
14964SOL    HW148808   3.173   3.426   4.853 -0.1931  0.6362 -0.0479
14964SOL    HW248809   3.045   3.430   4.934  0.5768  1.2704  1.1611
14965SOL     OW48810   7.439   0.616   8.934  0.0518  0.7515  0.2171
14965SOL    HW148811   7.386   0.683   8.977 -1.1372 -0.3754  0.5751
14965SOL    HW248812   7.419   0.625   8.841  1.0221  1.8291  0.0997
14966SOL     OW48813   6.593   8.701  10.118  0.6805  0.6193 -0.1591
14966SOL    HW148814   6.667   8.661  10.072 -0.1495  0.3072 -1.2549
14966SOL    HW248815   6.570   8.638  10.186  2.1952  1.2780  1.0358
14967SOL     OW48816   6.314   6.106   7.483  0.1807  0.4778 -0.3679
14967SOL    HW148817   6.245   6.053   7.443 -1.0917  2.7134 -1.3222
14967SOL    HW248818   6.349   6.158   7.410  0.5501  1.7986  0.7276
14968SOL     OW48819   7.700   7.239   7.880 -0.6491  0.2402 -0.7945
14968SOL    HW148820   7.732   7.329   7.872 -1.3150  0.4573 -1.0388
14968SOL    HW248821   7.686   7.226   7.973 -0.1548  0.2457 -0.7148
14969SOL     OW48822   8.534   0.693   8.579  0.5097  0.6456 -0.1778
14969SOL    HW148823   8.504   0.764   8.522  2.2439  0.0682 -1.8997
14969SOL    HW248824   8.563   0.625   8.519 -1.8763 -1.9703  1.3897
14970SOL     OW48825   9.541   5.607   6.350  0.5546 -0.4523  0.3728
14970SOL    HW148826   9.509   5.586   6.262  1.8348 -0.4952 -0.0918
14970SOL    HW248827   9.624   5.560   6.357  1.1761  0.7088  1.0666
14971SOL     OW48828   2.191   7.976   4.950  0.0445 -0.1655 -0.0568
14971SOL    HW148829   2.127   7.941   4.888  0.3307  0.1485 -0.5357
14971SOL    HW248830   2.196   8.070   4.930  1.4733 -0.3683 -0.7916
14972SOL     OW48831   0.365   2.537   4.328  0.9760 -0.4693  0.4497
14972SOL    HW148832   0.422   2.613   4.318  0.9888 -0.4374  0.7666
14972SOL    HW248833   0.376   2.487   4.246 -1.5652  1.5702 -1.3204
14973SOL     OW48834   2.086   5.929   1.246 -0.3487 -0.3954 -0.3403
14973SOL    HW148835   2.122   5.841   1.262 -1.2191 -0.8242 -0.6993
14973SOL    HW248836   2.161   5.980   1.214 -0.1017 -1.3431 -1.3180
14974SOL     OW48837   1.803   2.072   2.664 -0.1118  0.1829 -0.1104
14974SOL    HW148838   1.732   2.015   2.694 -0.1439 -0.4819 -1.3824
14974SOL    HW248839   1.759   2.142   2.615  0.0688  0.0421 -0.4784
14975SOL     OW48840   5.685   8.275   6.037  0.0474 -0.0928 -0.0382
14975SOL    HW148841   5.728   8.252   6.119  0.1644  0.7899  0.1614
14975SOL    HW248842   5.608   8.218   6.034 -0.0445 -0.0345  0.7651
14976SOL     OW48843   3.482   5.257   8.618 -0.0154 -0.3333  0.5232
14976SOL    HW148844   3.565   5.282   8.659 -0.9090  0.7048  1.8269
14976SOL    HW248845   3.504   5.240   8.527  1.1892  2.8016  0.1082
14977SOL     OW48846   2.240   2.724   2.168  0.4225  0.1545  0.7175
14977SOL    HW148847   2.145   2.713   2.180  0.4544 -1.6983 -0.3796
14977SOL    HW248848   2.277   2.639   2.189  1.9098  0.9226  1.3575
14978SOL     OW48849   8.328   6.694   7.552 -0.1505  0.1047 -0.3261
14978SOL    HW148850   8.273   6.653   7.619 -0.9248  2.1180  0.3363
14978SOL    HW248851   8.298   6.655   7.470 -0.9161 -0.5668  0.2576
14979SOL     OW48852   5.240   2.099   1.111  0.0688  0.1911 -0.6219
14979SOL    HW148853   5.280   2.056   1.036  1.1609  0.5875 -0.2952
14979SOL    HW248854   5.308   2.158   1.144 -0.2597 -0.2057  0.8644
14980SOL     OW48855   0.379   2.507   4.695  0.8884 -0.1182 -0.5673
14980SOL    HW148856   0.297   2.481   4.652  0.5224  2.3583 -1.5053
14980SOL    HW248857   0.395   2.596   4.665  2.2310  0.6596  2.1720
14981SOL     OW48858   3.591   9.744   8.946  0.1010  0.6796  0.1433
14981SOL    HW148859   3.561   9.690   8.873 -0.7486  1.8573 -0.4099
14981SOL    HW248860   3.686   9.732   8.948 -0.0506 -0.7791  0.0135
14982SOL     OW48861   8.159   4.356   8.087 -0.2392  0.0667 -0.0127
14982SOL    HW148862   8.125   4.414   8.156  0.2802 -2.0958  2.2164
14982SOL    HW248863   8.117   4.272   8.104  2.0120 -1.2495 -0.5943
14983SOL     OW48864   9.861   6.586   3.846 -0.4068  0.0444  0.4711
14983SOL    HW148865   9.784   6.641   3.860 -1.6069 -0.4441 -3.1903
14983SOL    HW248866   9.935   6.645   3.858 -1.5206  1.5885  0.0252
14984SOL     OW48867   1.443   9.961   1.776  0.1166 -0.3309 -0.3425
14984SOL    HW148868   1.401   9.904   1.711  0.4960 -0.0543 -0.8386
14984SOL    HW248869   1.481   9.900   1.840  0.7905 -0.6621 -1.0326
14985SOL     OW48870   5.879   1.385   3.690 -0.3692  0.1336  0.8821
14985SOL    HW148871   5.965   1.348   3.708 -0.9473 -0.8048  1.8572
14985SOL    HW248872   5.846   1.412   3.776 -1.2272  0.0661  0.5863
14986SOL     OW48873   9.603   0.927   2.905 -0.3276 -0.1133  0.9758
14986SOL    HW148874   9.519   0.967   2.927 -1.1616 -0.8453 -0.6716
14986SOL    HW248875   9.580   0.839   2.874  0.4647  1.0305 -3.6799
14987SOL     OW48876   7.624   4.194   7.790  0.3647  0.0362  0.4801
14987SOL    HW148877   7.556   4.192   7.858 -1.2647 -0.5993 -1.0871
14987SOL    HW248878   7.594   4.261   7.729  0.0338 -1.6592 -1.3029
14988SOL     OW48879   1.244   3.879   0.529  0.7157 -0.1275 -0.2348
14988SOL    HW148880   1.236   3.969   0.497 -1.0163 -0.2832 -0.2947
14988SOL    HW248881   1.156   3.843   0.523  1.1583 -1.4768  0.8659
14989SOL     OW48882   5.832   0.399  10.096  0.1421 -0.5611 -0.1297
14989SOL    HW148883   5.755   0.366  10.143 -1.2570 -0.0797 -2.0014
14989SOL    HW248884   5.873   0.320  10.060  0.4260 -0.7964  0.6834
14990SOL     OW48885   5.609   8.847   2.088  0.6186 -0.1156  0.4256
14990SOL    HW148886   5.571   8.762   2.107  1.7976 -0.4344  1.4492
14990SOL    HW248887   5.567   8.907   2.149  1.6179 -0.4421  1.4605
14991SOL     OW48888   0.167   0.865   5.736  0.4781  0.0045  0.1420
14991SOL    HW148889   0.193   0.879   5.645 -1.2544  0.1947 -0.3673
14991SOL    HW248890   0.240   0.898   5.787  1.1872  0.5673 -1.1785
14992SOL     OW48891   3.160   4.853   1.285  0.4153 -0.3474  0.4844
14992SOL    HW148892   3.075   4.875   1.323  0.3455 -1.2619  0.8927
14992SOL    HW248893   3.153   4.878   1.193  1.0875  3.2802  1.2634
14993SOL     OW48894   5.198   0.745   6.990 -0.0658 -0.0327 -0.6327
14993SOL    HW148895   5.273   0.729   7.048 -0.1260 -2.3624 -1.0985
14993SOL    HW248896   5.163   0.829   7.019  0.6321 -0.5402  1.9414
14994SOL     OW48897   1.456   5.507   9.030  0.0323 -0.1791 -0.3453
14994SOL    HW148898   1.548   5.528   9.048 -0.0321 -0.4214  0.2920
14994SOL    HW248899   1.449   5.414   9.049 -0.5199 -0.0017  0.3265
14995SOL     OW48900   3.479   7.227   4.496 -0.1673 -0.0336 -0.1457
14995SOL    HW148901   3.568   7.260   4.505 -0.5515  1.1742 -0.6009
14995SOL    HW248902   3.475   7.191   4.407 -0.2297  0.2158 -0.2439
14996SOL     OW48903   2.567   1.552   2.766  0.1401  0.0089  0.2311
14996SOL    HW148904   2.658   1.538   2.740  0.4854 -0.8750  1.8131
14996SOL    HW248905   2.532   1.464   2.779 -0.7705  0.3592  0.2179
14997SOL     OW48906   1.876   4.208   1.314 -0.4590 -0.0850  0.3535
14997SOL    HW148907   1.910   4.147   1.249 -1.0308  1.1242 -1.1308
14997SOL    HW248908   1.888   4.295   1.275 -3.2511  0.5365  0.6497
14998SOL     OW48909   5.581   0.849   5.647  0.1513 -0.0656 -0.1416
14998SOL    HW148910   5.552   0.830   5.558 -1.5448  1.2456  0.0810
14998SOL    HW248911   5.592   0.944   5.649  0.5945 -0.1197  0.9300
14999SOL     OW48912   7.473   3.915   8.376 -0.3425  0.2501  0.1132
14999SOL    HW148913   7.470   3.914   8.472  0.7487 -1.1785  0.1543
14999SOL    HW248914   7.549   3.969   8.355 -1.1462  1.3811 -0.0021
15000SOL     OW48915   0.587   7.667   0.145 -0.4384  0.1044  0.7638
15000SOL    HW148916   0.645   7.601   0.107  0.7984  1.5674  0.0168
15000SOL    HW248917   0.594   7.654   0.239  0.6399 -0.1407  0.6579
15001SOL     OW48918   4.014   5.538   2.990 -0.4573 -0.2719 -0.5091
15001SOL    HW148919   4.021   5.614   2.932 -1.9415 -0.1514 -0.5554
15001SOL    HW248920   4.086   5.480   2.962 -1.4982 -0.5160 -2.9215
15002SOL     OW48921   7.144   4.946   5.710  0.1416  0.1821 -0.4836
15002SOL    HW148922   7.051   4.926   5.711  0.3503 -0.8318  1.0184
15002SOL    HW248923   7.174   4.932   5.800  1.8931 -0.2663 -1.0804
15003SOL     OW48924   2.215   8.699   3.645  0.5132 -0.6575 -0.4318
15003SOL    HW148925   2.198   8.685   3.739  1.6979  0.0799 -0.0889
15003SOL    HW248926   2.294   8.753   3.643 -1.0339  1.7450 -1.7844
15004SOL     OW48927   6.356   0.132   2.448  0.8500 -0.5442  0.8423
15004SOL    HW148928   6.379   0.212   2.400 -0.0680 -0.0341  1.2222
15004SOL    HW248929   6.298   0.085   2.390 -0.4387  0.1794  1.5042
15005SOL     OW48930   7.207   8.942   1.921  0.3092 -0.4566 -0.1185
15005SOL    HW148931   7.191   8.986   1.837  0.3158 -2.0930 -1.0216
15005SOL    HW248932   7.193   8.849   1.902 -1.0131 -0.7506  2.0365
15006SOL     OW48933   1.852   4.088   7.110  0.7580 -0.5085 -0.3023
15006SOL    HW148934   1.842   4.183   7.102 -2.3787 -0.7512 -0.6052
15006SOL    HW248935   1.918   4.065   7.045  1.9642  1.4732  0.1334
15007SOL     OW48936   2.813  10.194   7.612 -0.4006  0.0664  0.3368
15007SOL    HW148937   2.856  10.180   7.696  2.7750  1.4643 -0.9094
15007SOL    HW248938   2.823  10.111   7.565  1.6547  0.5400 -0.1575
15008SOL     OW48939   8.481   1.612   4.112  0.3726  0.3042 -0.3988
15008SOL    HW148940   8.506   1.603   4.204 -0.6617  0.8032 -0.0542
15008SOL    HW248941   8.543   1.676   4.077 -0.5623  1.7756  0.5276
15009SOL     OW48942   2.347   3.000   7.448 -0.4960 -0.4194 -0.4532
15009SOL    HW148943   2.263   2.958   7.465 -0.8184 -0.3394 -1.7842
15009SOL    HW248944   2.396   2.936   7.397 -0.3810  0.1677 -1.0957
15010SOL     OW48945   3.401   5.465   8.220  0.3360 -0.3815  0.8424
15010SOL    HW148946   3.422   5.501   8.134 -1.2411  0.5109  0.7896
15010SOL    HW248947   3.306   5.451   8.218  0.2425 -0.2254  2.4605
15011SOL     OW48948   0.740   2.750   5.981  0.1065  0.1104  0.2992
15011SOL    HW148949   0.691   2.668   5.990 -2.1141  1.4826  1.4851
15011SOL    HW248950   0.695   2.799   5.913  1.9748  0.0519 -1.0731
15012SOL     OW48951   9.360   0.118   2.274 -0.2376  0.3139 -0.9900
15012SOL    HW148952   9.416   0.053   2.232  0.1007 -0.5902  0.7738
15012SOL    HW248953   9.421   0.179   2.315 -0.5090 -0.3960  0.5226
15013SOL     OW48954   7.143   5.521   9.002 -0.0270  0.0452 -0.5156
15013SOL    HW148955   7.187   5.589   9.053  1.6919 -0.5898 -1.0643
15013SOL    HW248956   7.089   5.569   8.940 -0.3809  0.8598  0.4037
15014SOL     OW48957   3.049   5.155   6.852  0.0192 -0.1405 -0.2733
15014SOL    HW148958   2.958   5.143   6.879 -0.2620 -0.3982 -1.2851
15014SOL    HW248959   3.043   5.214   6.777  0.7157  0.0881 -0.1491
15015SOL     OW48960   1.047   7.968   8.274  0.3075 -0.7415  0.0087
15015SOL    HW148961   0.998   7.904   8.223  0.0915 -0.3016 -0.3439
15015SOL    HW248962   1.133   7.972   8.232  0.3825 -0.9388  0.1451
15016SOL     OW48963   1.821   0.823   0.210  0.0906  0.0085 -0.3638
15016SOL    HW148964   1.907   0.863   0.195  0.0648  0.3227  0.2903
15016SOL    HW248965   1.814   0.755   0.142 -0.3653  1.8669 -2.3031
15017SOL     OW48966   2.216   5.737   7.998 -0.2316  0.3847 -0.1556
15017SOL    HW148967   2.151   5.683   8.044  0.8413 -0.5202  0.3459
15017SOL    HW248968   2.297   5.723   8.046  0.3368  1.5418 -0.7449
15018SOL     OW48969   6.147   3.182   4.695 -0.6843  0.8235  0.1802
15018SOL    HW148970   6.123   3.235   4.771  0.3134 -0.2611  1.3072
15018SOL    HW248971   6.241   3.164   4.707 -0.8053 -0.4788 -0.5775
15019SOL     OW48972   8.671   7.835   8.403 -0.0760  0.2587 -0.1478
15019SOL    HW148973   8.751   7.888   8.407  0.1154 -0.0750  1.3530
15019SOL    HW248974   8.697   7.756   8.355  0.1471  0.6927 -0.7508
15020SOL     OW48975   1.388   7.718   6.673  0.1466 -0.2799 -0.2299
15020SOL    HW148976   1.440   7.708   6.752  1.5927 -1.0378 -1.2267
15020SOL    HW248977   1.371   7.629   6.644  0.3730 -0.0202 -1.2172
15021SOL     OW48978   8.258   5.589   8.929 -0.0769 -0.2128 -0.0051
15021SOL    HW148979   8.294   5.569   9.016 -0.1719 -2.7856 -0.4723
15021SOL    HW248980   8.335   5.596   8.873 -0.0249  1.2401  0.2317
15022SOL     OW48981   8.221   5.976   2.601 -0.0074 -0.0946 -0.1197
15022SOL    HW148982   8.224   5.937   2.688  1.1454  1.5915  0.6493
15022SOL    HW248983   8.290   5.931   2.552 -0.0278 -0.3905  0.1211
15023SOL     OW48984   6.864   1.039   0.348  0.2598 -0.1867 -0.0224
15023SOL    HW148985   6.873   1.012   0.257 -0.0120  1.6474 -0.6323
15023SOL    HW248986   6.770   1.035   0.366  0.4040 -1.6089  0.5585
15024SOL     OW48987   9.520   9.470   8.272  0.5152  0.2390 -0.4805
15024SOL    HW148988   9.448   9.527   8.301  1.6383  0.5857  1.8619
15024SOL    HW248989   9.570   9.452   8.351  0.5621 -3.6262 -1.1980
15025SOL     OW48990   8.528   7.522   6.876 -0.4551 -0.6167 -0.5541
15025SOL    HW148991   8.588   7.589   6.845  0.3655 -1.5544 -1.0691
15025SOL    HW248992   8.477   7.564   6.945  0.7481  0.2116 -0.1505
15026SOL     OW48993   8.390   8.171   9.976 -0.8576  0.3734 -0.2314
15026SOL    HW148994   8.325   8.133   9.917  0.3409 -0.6473 -0.9147
15026SOL    HW248995   8.340   8.237  10.026 -2.4611 -0.5174 -0.5797
15027SOL     OW48996   4.640   1.232   4.517  0.0025 -0.4332 -0.1000
15027SOL    HW148997   4.585   1.310   4.515 -0.2649 -0.6088 -2.1966
15027SOL    HW248998   4.580   1.161   4.538  0.2858 -0.0991  2.0336
15028SOL     OW48999   6.607   6.617   1.442 -0.1575 -0.6796 -0.6566
15028SOL    HW149000   6.624   6.705   1.476  0.3718 -0.5621 -1.2121
15028SOL    HW249001   6.514   6.618   1.420  0.1820  0.3166 -2.2365
15029SOL     OW49002   0.582   5.146   1.382 -0.5886 -0.5056  0.1594
15029SOL    HW149003   0.541   5.071   1.338  0.9144 -0.9938 -0.4950
15029SOL    HW249004   0.545   5.145   1.471 -0.0826 -2.5109  0.4062
15030SOL     OW49005   3.052  10.105   1.063  0.2903  0.3090  1.0989
15030SOL    HW149006   3.057  10.017   1.024  1.4563  0.8514 -0.0616
15030SOL    HW249007   2.958  10.125   1.065  0.1082 -0.2384 -0.3767
15031SOL     OW49008   0.604   6.957   6.470 -0.3533 -0.1214  0.0591
15031SOL    HW149009   0.676   6.933   6.528 -0.0180  0.3696 -0.1499
15031SOL    HW249010   0.568   6.873   6.442  2.9907 -0.6914 -3.4505
15032SOL     OW49011   5.734   0.675   6.846  0.0629 -0.0937 -0.6750
15032SOL    HW149012   5.736   0.610   6.916 -1.0214 -0.7706 -1.2546
15032SOL    HW249013   5.826   0.691   6.825  0.3426 -2.3772 -1.3857
15033SOL     OW49014   2.303   6.764   9.603 -0.6927 -0.1272  0.4163
15033SOL    HW149015   2.397   6.772   9.616 -0.4906  0.6708 -1.2576
15033SOL    HW249016   2.287   6.670   9.597  0.2658 -0.2340 -0.8868
15034SOL     OW49017   0.973   8.379   8.904 -0.0352  0.0406  0.1215
15034SOL    HW149018   0.933   8.368   8.990  0.4792  1.9512  0.6752
15034SOL    HW249019   0.900   8.384   8.843 -0.4474 -0.5115  0.5669
15035SOL     OW49020   1.306   7.623   3.620  0.3182 -0.2080  0.0855
15035SOL    HW149021   1.338   7.712   3.636  1.1136 -0.5202  0.3304
15035SOL    HW249022   1.376   7.567   3.655 -0.0323 -0.9247 -0.3473
15036SOL     OW49023   4.251   5.804   4.204 -0.0383 -0.4433  0.2414
15036SOL    HW149024   4.315   5.807   4.275  0.7449  0.9314 -0.4766
15036SOL    HW249025   4.194   5.731   4.226 -0.4593  0.5670  2.8404
15037SOL     OW49026   4.674   3.745   6.951  0.1485  0.0128 -0.4043
15037SOL    HW149027   4.761   3.783   6.952  0.8855 -1.5859  0.8927
15037SOL    HW249028   4.629   3.789   6.879  1.1720  2.6983  0.4765
15038SOL     OW49029   9.925   5.243   0.130 -0.0923 -0.2688 -0.1503
15038SOL    HW149030   9.850   5.183   0.128  0.9441 -1.6282  0.2430
15038SOL    HW249031   9.921   5.289   0.046 -1.9901  0.5118  0.3182
15039SOL     OW49032   6.820   5.159   4.262 -0.4820 -0.3599 -0.2056
15039SOL    HW149033   6.875   5.236   4.277 -0.3805 -0.6793  1.2486
15039SOL    HW249034   6.858   5.116   4.186  1.4502 -0.6808  0.8718
15040SOL     OW49035   0.318   4.354   2.939  0.0763 -0.0842  0.2427
15040SOL    HW149036   0.283   4.365   3.027 -0.7817  0.3822 -0.1459
15040SOL    HW249037   0.248   4.384   2.881  0.4790 -0.7465 -0.6135
15041SOL     OW49038   2.587   1.199   4.147  0.7503  0.0923 -0.5104
15041SOL    HW149039   2.555   1.284   4.176 -1.5194 -0.2918 -1.6785
15041SOL    HW249040   2.511   1.141   4.150  1.7645 -1.3950 -1.6129
15042SOL     OW49041   4.893   4.839   1.667 -0.2409  0.3402 -0.0051
15042SOL    HW149042   4.888   4.926   1.626  0.5299  0.0273 -0.7887
15042SOL    HW249043   4.803   4.807   1.664 -0.1875  0.2598 -1.6512
15043SOL     OW49044   4.516   8.554   5.221  0.0174  0.5335  0.3960
15043SOL    HW149045   4.470   8.511   5.149 -1.3457  0.2244  1.4121
15043SOL    HW249046   4.545   8.483   5.277  0.8507  0.7857  0.2982
15044SOL     OW49047   7.279   1.115   6.249 -0.1761  0.5083  0.3536
15044SOL    HW149048   7.313   1.105   6.160  2.0045  2.3578  0.8653
15044SOL    HW249049   7.212   1.047   6.258  1.4091 -1.4826 -1.7919
15045SOL     OW49050   5.429   9.674   1.752  0.2686  0.9368 -0.2267
15045SOL    HW149051   5.333   9.685   1.752  0.2545  0.8562 -0.6883
15045SOL    HW249052   5.442   9.584   1.782  0.2333  1.1701  0.4991
15046SOL     OW49053   2.887   7.300   1.905 -0.1939 -0.4878  0.1848
15046SOL    HW149054   2.819   7.325   1.967 -0.9302 -0.1933 -0.7198
15046SOL    HW249055   2.962   7.354   1.929 -0.4186 -0.4755  0.9005
15047SOL     OW49056   4.311   4.254  10.049  0.0336  0.0580  1.0559
15047SOL    HW149057   4.220   4.268  10.025  0.3455 -0.0508 -0.2616
15047SOL    HW249058   4.334   4.328  10.105 -1.4138 -0.9296  3.0895
15048SOL     OW49059   9.278   7.521   8.751 -0.5264  0.5530  0.0221
15048SOL    HW149060   9.199   7.494   8.799 -0.2511  1.9440  1.2999
15048SOL    HW249061   9.282   7.616   8.761  0.1957  0.7628 -1.8080
15049SOL     OW49062   1.556   4.608   1.506  0.1879  0.6111  0.1386
15049SOL    HW149063   1.647   4.619   1.478 -0.2166  1.4180 -0.9606
15049SOL    HW249064   1.562   4.591   1.600  1.4740  0.5926  0.0794
15050SOL     OW49065   0.641   3.688   3.864 -0.2685  0.1233  0.0401
15050SOL    HW149066   0.718   3.630   3.866  0.3422  0.9348  2.1412
15050SOL    HW249067   0.676   3.774   3.840 -0.3169  0.7003  1.8978
15051SOL     OW49068   0.447   6.281   4.625 -0.1811 -0.1711  0.4827
15051SOL    HW149069   0.510   6.353   4.614 -0.0319 -0.3894 -0.1289
15051SOL    HW249070   0.401   6.302   4.706 -0.9466  1.2496 -0.2808
15052SOL     OW49071   7.897   7.324   2.913  0.2448 -0.3998 -0.0622
15052SOL    HW149072   7.801   7.321   2.912  0.1715  0.9346  0.7693
15052SOL    HW249073   7.921   7.280   2.995  0.2591  0.6349  0.4978
15053SOL     OW49074   1.582   5.128   8.954  0.4488 -0.0832 -0.6807
15053SOL    HW149075   1.660   5.164   8.912  0.7024 -0.8165 -0.8652
15053SOL    HW249076   1.525   5.101   8.882  0.7708 -1.1061 -0.5745
15054SOL     OW49077   8.590   3.809   7.034  0.3090  0.5590 -0.0077
15054SOL    HW149078   8.593   3.847   7.122 -0.1833 -0.3855  0.4385
15054SOL    HW249079   8.497   3.804   7.013  0.4290  0.9091 -0.6510
15055SOL     OW49080   6.120   3.757   1.530 -0.2267  0.7650  0.1717
15055SOL    HW149081   6.132   3.668   1.562 -0.1641  1.3256  1.7708
15055SOL    HW249082   6.203   3.801   1.549 -0.0654  1.0459 -1.0876
15056SOL     OW49083   5.167   4.718   9.898 -0.3877 -0.1231  0.4995
15056SOL    HW149084   5.194   4.744   9.986 -1.1321 -0.7005  0.9063
15056SOL    HW249085   5.245   4.675   9.861 -0.0223  0.2656  0.8052
15057SOL     OW49086   6.372   2.623  10.194  0.1526 -0.4767 -0.1244
15057SOL    HW149087   6.329   2.552  10.242 -0.3183  0.3231  0.6805
15057SOL    HW249088   6.341   2.614  10.104 -1.1803 -0.3435  0.3015
15058SOL     OW49089   2.106   7.178   1.909  0.0931 -0.5500 -0.5892
15058SOL    HW149090   2.168   7.143   1.973  0.0064 -2.7351 -1.6055
15058SOL    HW249091   2.112   7.118   1.834 -1.7784  0.3389 -1.5307
15059SOL     OW49092   9.768   7.548   5.848  0.5753  0.4216 -0.1316
15059SOL    HW149093   9.701   7.497   5.801  1.5161 -1.7419  0.7600
15059SOL    HW249094   9.830   7.573   5.780  0.9926 -1.1476 -0.3741
15060SOL     OW49095   8.598   5.335   5.814  0.3676 -0.3717 -0.3491
15060SOL    HW149096   8.645   5.357   5.895 -0.4905  1.2329 -0.2517
15060SOL    HW249097   8.621   5.404   5.753 -0.6559 -0.4030 -0.7870
15061SOL     OW49098   5.407   5.633   9.059 -0.0147  0.5089  0.0073
15061SOL    HW149099   5.404   5.568   9.129  0.0550 -1.2216 -1.5078
15061SOL    HW249100   5.447   5.587   8.986 -0.6497  2.0490 -1.3763
15062SOL     OW49101   2.924   5.402   9.522  0.2105  0.4599 -0.1858
15062SOL    HW149102   3.012   5.420   9.556  1.2942 -2.0732 -1.4088
15062SOL    HW249103   2.916   5.459   9.445 -0.1788  2.3297  1.1591
15063SOL     OW49104   3.796   7.027   2.253 -0.5534 -0.2925 -0.3330
15063SOL    HW149105   3.722   7.007   2.195  0.7678 -0.9794 -1.8783
15063SOL    HW249106   3.869   7.045   2.193  0.7185 -0.3807  1.1279
15064SOL     OW49107   4.390   1.474   8.427 -0.4042 -0.6014  0.6815
15064SOL    HW149108   4.367   1.410   8.360 -0.4375  0.1946 -0.0723
15064SOL    HW249109   4.309   1.522   8.445  0.3247  1.5370 -1.2659
15065SOL     OW49110   4.054   6.715   5.822 -0.3996 -0.3124 -0.1765
15065SOL    HW149111   4.020   6.798   5.788  0.7871 -0.3196 -1.4687
15065SOL    HW249112   4.058   6.658   5.745 -1.3562 -1.6490  0.7211
15066SOL     OW49113   0.085   9.809   6.772  0.2005 -0.7387  0.3139
15066SOL    HW149114   0.017   9.786   6.708 -0.6999  0.9034  0.6124
15066SOL    HW249115   0.051   9.775   6.855  0.4524 -1.2053  0.2256
15067SOL     OW49116   7.976   9.426   1.325 -0.4839 -0.5064 -0.0663
15067SOL    HW149117   7.925   9.371   1.266 -0.8651  1.7012 -1.9716
15067SOL    HW249118   7.912   9.483   1.368  0.0447 -0.1809  0.3106
15068SOL     OW49119   8.937   5.967   9.659  0.2602  0.2076 -0.1921
15068SOL    HW149120   8.847   5.982   9.632  0.2421  0.4660  0.0127
15068SOL    HW249121   8.948   6.017   9.740  0.2935 -0.6220  0.3310
15069SOL     OW49122   9.578   8.208   9.957 -0.2024  0.6231 -0.4372
15069SOL    HW149123   9.542   8.235  10.041 -1.2316  0.6056 -0.8520
15069SOL    HW249124   9.664   8.248   9.952 -0.0248  0.4049  0.7356
15070SOL     OW49125   1.071   2.532   5.615 -0.1200  0.2138 -0.5630
15070SOL    HW149126   1.118   2.585   5.551 -2.1144 -0.1228 -2.4135
15070SOL    HW249127   1.138   2.476   5.655  1.1401  0.1379 -2.6781
15071SOL     OW49128   3.111   6.344   7.694  0.3267 -1.0604 -0.6302
15071SOL    HW149129   3.079   6.272   7.749  0.0312 -1.1264 -0.8869
15071SOL    HW249130   3.206   6.339   7.701  0.2899 -0.8237  0.1943
15072SOL     OW49131   9.564   0.461   6.384  0.1512  0.0039  0.7504
15072SOL    HW149132   9.582   0.457   6.478 -0.6138 -0.3398  0.8925
15072SOL    HW249133   9.568   0.369   6.355  2.6193  0.2803 -0.0180
15073SOL     OW49134   5.017   2.133   5.933  0.6992 -0.6436  0.7234
15073SOL    HW149135   5.108   2.156   5.952  1.2257  0.2421 -2.3403
15073SOL    HW249136   4.967   2.211   5.959  1.3658  0.4847 -1.1644
15074SOL     OW49137   5.145   5.574   6.977  0.1645  0.8862 -0.1100
15074SOL    HW149138   5.142   5.494   7.030 -1.9157 -0.1804 -1.6821
15074SOL    HW249139   5.081   5.633   7.018  0.0236  0.8455 -0.2703
15075SOL     OW49140   5.663   2.995   5.286 -0.4398  0.4396 -0.6250
15075SOL    HW149141   5.708   3.060   5.233 -0.1323 -0.3581 -1.3673
15075SOL    HW249142   5.597   3.044   5.334  0.0374  1.3473 -0.8873
15076SOL     OW49143   6.677   3.076   6.156 -0.4378 -0.0393 -0.8039
15076SOL    HW149144   6.727   3.070   6.074  2.7537  0.9367  0.9015
15076SOL    HW249145   6.715   3.009   6.212 -0.4355  1.2954  0.8541
15077SOL     OW49146   0.841   9.780   3.735  0.2868  0.1426 -0.6429
15077SOL    HW149147   0.752   9.765   3.767 -0.2821  0.9974 -1.7365
15077SOL    HW249148   0.833   9.771   3.640  1.3762  0.2590 -0.7546
15078SOL     OW49149   8.567   1.140   4.116 -0.0474 -0.0969  0.1308
15078SOL    HW149150   8.595   1.049   4.106 -0.6841 -0.4644  1.5053
15078SOL    HW249151   8.647   1.192   4.104  0.5514 -0.9100  0.5676
15079SOL     OW49152   5.148   0.601   9.590 -0.1341  0.4018  0.3574
15079SOL    HW149153   5.211   0.628   9.523 -1.5420  1.5660 -0.5551
15079SOL    HW249154   5.062   0.615   9.550 -1.0391 -2.4991  1.0331
15080SOL     OW49155   1.530   1.808   3.080 -0.2943  0.4133  0.1714
15080SOL    HW149156   1.525   1.801   2.985  2.3947 -1.2788  0.0526
15080SOL    HW249157   1.562   1.897   3.097 -0.5469  0.6341 -0.5121
15081SOL     OW49158   7.716   6.867   9.616 -0.2013  0.0471 -0.0151
15081SOL    HW149159   7.685   6.902   9.532  0.7720  1.3791  0.1452
15081SOL    HW249160   7.779   6.932   9.647  0.0278 -0.8058  1.3906
15082SOL     OW49161   5.010   3.115   2.939 -0.2439 -0.2458 -0.1333
15082SOL    HW149162   4.955   3.141   2.865  0.7142 -0.3090 -0.8868
15082SOL    HW249163   5.010   3.020   2.936  0.0278 -0.2427 -0.2290
15083SOL     OW49164   4.443   1.478   2.810  0.2945 -0.4009  0.5534
15083SOL    HW149165   4.384   1.404   2.822 -0.5717  0.4041  1.3966
15083SOL    HW249166   4.409   1.546   2.869 -0.0585  1.3358 -1.5317
15084SOL     OW49167   3.562  10.160   4.263  0.0187  0.4202  0.1203
15084SOL    HW149168   3.520  10.243   4.244 -0.6150 -0.1393 -1.0633
15084SOL    HW249169   3.529  10.135   4.350 -0.8755  0.7412 -0.1180
15085SOL     OW49170   8.136   7.225   6.510 -0.7527  0.0215  0.1394
15085SOL    HW149171   8.138   7.313   6.473 -1.7521  0.4946  1.1558
15085SOL    HW249172   8.059   7.184   6.471 -1.2203  0.1701  0.8884
15086SOL     OW49173   5.645   9.689   2.344  0.0236 -0.4020  0.2687
15086SOL    HW149174   5.624   9.659   2.433  1.0707 -2.8466 -0.2436
15086SOL    HW249175   5.728   9.735   2.353 -0.8423  1.1070  0.8299
15087SOL     OW49176   1.841   0.500   6.589 -0.3174 -0.6007  0.3901
15087SOL    HW149177   1.753   0.465   6.602 -0.6869 -0.1473 -0.7521
15087SOL    HW249178   1.839   0.587   6.630 -0.4097 -0.5826  0.3473
15088SOL     OW49179   9.018   9.222   5.306  0.5497 -0.4121 -0.3664
15088SOL    HW149180   8.996   9.204   5.215 -1.7052 -0.6514  0.1553
15088SOL    HW249181   9.060   9.142   5.337 -1.0372 -1.3639 -0.5381
15089SOL     OW49182   3.910   9.369   7.730 -0.8912 -0.1495  0.2808
15089SOL    HW149183   3.956   9.430   7.673 -1.6759 -0.3342 -0.5709
15089SOL    HW249184   3.889   9.294   7.674  0.7073 -1.5767  1.4662
15090SOL     OW49185   8.472   6.161   3.844 -0.0227  0.6368  0.2866
15090SOL    HW149186   8.477   6.239   3.788  0.2473  0.0108 -0.5929
15090SOL    HW249187   8.418   6.099   3.794 -0.4814  0.3593  1.1062
15091SOL     OW49188   4.243   1.492   5.795 -0.4282  0.2142  0.4085
15091SOL    HW149189   4.216   1.568   5.848 -0.0664  0.1734  0.6520
15091SOL    HW249190   4.161   1.459   5.758 -0.4006  2.1810 -1.7040
15092SOL     OW49191  10.195   4.235   1.275 -0.7342  0.4241 -0.0714
15092SOL    HW149192  10.228   4.314   1.317 -1.8842  0.5930  0.5586
15092SOL    HW249193  10.217   4.164   1.337 -0.0677  0.2967 -0.4449
15093SOL     OW49194   9.333   8.945   4.168  0.1312  0.1283 -0.0735
15093SOL    HW149195   9.252   8.936   4.118 -0.4956  1.7525  0.5542
15093SOL    HW249196   9.310   9.003   4.241  1.9611  1.0263 -0.1391
15094SOL     OW49197   0.790   6.889   9.792  0.5161 -0.8447  1.1495
15094SOL    HW149198   0.854   6.924   9.730  0.7239 -1.6899  0.8668
15094SOL    HW249199   0.750   6.814   9.746 -0.6755 -0.3379  1.3230
15095SOL     OW49200   9.701   4.470   3.048 -0.1225 -0.0834  0.1977
15095SOL    HW149201   9.703   4.469   2.952 -1.2162 -0.2890  0.1617
15095SOL    HW249202   9.702   4.377   3.073 -2.1001 -0.1090  0.2940
15096SOL     OW49203   6.183   2.974   3.746  0.5838 -0.0831  0.1217
15096SOL    HW149204   6.147   2.885   3.741 -0.6244  0.0261  3.5356
15096SOL    HW249205   6.278   2.962   3.751  0.4294 -1.2256  0.5837
15097SOL     OW49206   9.108   0.410   0.889 -0.4274 -0.0421 -0.1056
15097SOL    HW149207   9.155   0.337   0.928 -1.1294 -0.5270 -0.1530
15097SOL    HW249208   9.144   0.488   0.932  0.7917 -0.3551 -0.5314
15098SOL     OW49209   8.005   8.851   3.848 -0.0621  0.0644 -0.1084
15098SOL    HW149210   7.937   8.912   3.821  0.3478  0.9457  0.7878
15098SOL    HW249211   8.084   8.883   3.806 -0.2382 -1.1897 -1.4769
15099SOL     OW49212   9.107   4.211   9.050 -0.5807 -0.4271 -0.0516
15099SOL    HW149213   9.179   4.267   9.022 -0.5435  0.3335  1.4733
15099SOL    HW249214   9.028   4.254   9.017 -0.4379 -0.4280 -0.3924
15100SOL     OW49215   2.504   4.200   0.147 -0.1481  0.3621  0.1596
15100SOL    HW149216   2.445   4.247   0.087  0.7808  1.3382 -0.0136
15100SOL    HW249217   2.446   4.163   0.213 -0.8511  2.8902  1.0784
15101SOL     OW49218   3.951  10.185   4.723 -0.0215 -0.2817  0.6108
15101SOL    HW149219   3.952  10.280   4.728 -0.7949 -0.2846  0.8661
15101SOL    HW249220   4.033  10.157   4.763  0.2152  0.2761  0.5109
15102SOL     OW49221   1.848   9.870   8.358  0.4574  0.4183 -0.4567
15102SOL    HW149222   1.795   9.881   8.279  0.4407 -0.1309 -0.5274
15102SOL    HW249223   1.892   9.955   8.370  1.4908  0.1095 -1.8240
15103SOL     OW49224   3.633   8.512   5.109 -0.0263 -0.4938  0.6095
15103SOL    HW149225   3.556   8.515   5.166 -0.9805 -1.7946 -0.5276
15103SOL    HW249226   3.707   8.524   5.168 -1.0186 -0.8526  1.9853
15104SOL     OW49227   1.716   6.622   7.100 -0.2875  0.2234  0.0173
15104SOL    HW149228   1.643   6.612   7.161  1.1970 -0.1192  1.8252
15104SOL    HW249229   1.736   6.716   7.101  0.6666  0.0239  1.2334
15105SOL     OW49230   1.795   7.195   7.680  0.6745 -0.0065  0.7001
15105SOL    HW149231   1.854   7.152   7.742  0.2763 -1.7796 -0.0847
15105SOL    HW249232   1.715   7.143   7.682  0.4114  0.2750 -0.8090
15106SOL     OW49233   6.580   6.944   8.834 -0.1583 -0.0569 -0.1738
15106SOL    HW149234   6.514   6.924   8.901 -0.3270  0.7908 -0.0701
15106SOL    HW249235   6.534   6.929   8.751  0.6306 -3.0048 -0.1666
15107SOL     OW49236   3.170   5.033   3.696 -0.0464  0.5156  0.7945
15107SOL    HW149237   3.169   5.120   3.656  0.7835  0.2772  0.2347
15107SOL    HW249238   3.172   5.049   3.790  1.5934  1.1331  0.6828
15108SOL     OW49239   0.538   2.997   0.324 -0.1751  0.3177  0.0328
15108SOL    HW149240   0.533   3.033   0.413  1.7882  0.5180  0.1116
15108SOL    HW249241   0.497   3.064   0.269  1.6815  1.8596  0.4136
15109SOL     OW49242   0.733   4.341   5.114  0.6517 -0.2299 -0.3385
15109SOL    HW149243   0.758   4.325   5.205  0.0855  0.3984 -0.0633
15109SOL    HW249244   0.674   4.270   5.092  1.6811 -1.0283 -0.5938
15110SOL     OW49245   5.779   4.796   9.669  0.0577  0.7780 -0.0578
15110SOL    HW149246   5.798   4.766   9.758  1.6007  1.3023 -0.1796
15110SOL    HW249247   5.743   4.884   9.681 -0.0405  0.7221  0.0613
15111SOL     OW49248   7.328   1.912   9.698  0.0038  0.1257 -0.1593
15111SOL    HW149249   7.265   1.889   9.630  0.9224 -1.8997 -0.3752
15111SOL    HW249250   7.404   1.944   9.650 -0.5360  1.8974  0.0801
15112SOL     OW49251   9.422   8.514   6.834  0.4336  0.5174  0.1046
15112SOL    HW149252   9.440   8.441   6.774  0.6863  0.8490 -0.2243
15112SOL    HW249253   9.427   8.592   6.779  1.5525  0.8986  0.7227
15113SOL     OW49254   1.042  10.096   3.941 -0.2551 -0.5682  0.2777
15113SOL    HW149255   1.125  10.139   3.960 -1.0050  1.1424 -0.1823
15113SOL    HW249256   1.040  10.087   3.845 -0.9088  0.0733  0.2218
15114SOL     OW49257   7.420   1.153   4.672 -0.1865  0.1953  0.2774
15114SOL    HW149258   7.503   1.189   4.642 -1.9521  3.3385 -1.3743
15114SOL    HW249259   7.444   1.085   4.736  3.5634  0.8665 -0.2156
15115SOL     OW49260   2.169   8.472   0.400 -0.0971  0.3132 -0.4176
15115SOL    HW149261   2.155   8.428   0.316 -1.7385 -0.8263  0.4101
15115SOL    HW249262   2.164   8.566   0.379 -2.4698  0.0437 -1.3300
15116SOL     OW49263   4.841   6.186   5.077 -0.6769 -0.6480 -0.6912
15116SOL    HW149264   4.748   6.208   5.072 -0.7097 -0.4109  0.5476
15116SOL    HW249265   4.856   6.129   5.002 -1.5880  0.1060 -1.4770
15117SOL     OW49266   2.921   6.847   6.555 -0.0232  0.3415 -0.0236
15117SOL    HW149267   3.007   6.850   6.513  0.4402  1.0834  0.9322
15117SOL    HW249268   2.899   6.939   6.569 -0.3442  0.1157  0.9849
15118SOL     OW49269   6.597   6.977   1.427 -0.1165 -0.2354  0.5216
15118SOL    HW149270   6.576   6.951   1.337  0.6231 -0.0151  0.2751
15118SOL    HW249271   6.515   6.966   1.475  0.2309 -3.7021  0.5977
15119SOL     OW49272   8.412   6.646   7.963  0.0876 -0.0274  0.0443
15119SOL    HW149273   8.442   6.610   7.879  2.7265 -1.6448  1.5162
15119SOL    HW249274   8.331   6.600   7.982  0.3352 -0.8656 -0.8750
15120SOL     OW49275  10.192   9.409   5.164  0.3746  0.3901 -0.1186
15120SOL    HW149276  10.278   9.376   5.138  0.0623  0.4330 -1.2641
15120SOL    HW249277  10.176   9.483   5.106 -0.0573  0.9425  0.6896
15121SOL     OW49278   5.653   5.627   4.774 -0.3772  0.4924 -0.0979
15121SOL    HW149279   5.611   5.713   4.779 -0.2753  0.4561  2.2840
15121SOL    HW249280   5.580   5.566   4.758 -0.4363  0.9591 -1.9102
15122SOL     OW49281   7.797   9.596   4.094 -0.1358  0.5225  0.2938
15122SOL    HW149282   7.806   9.646   4.175  0.3641 -1.1349  1.3087
15122SOL    HW249283   7.702   9.590   4.080 -0.2861 -0.3218  1.5239
15123SOL     OW49284   9.219   2.718   0.298  0.3895  0.6961  0.0689
15123SOL    HW149285   9.152   2.678   0.354  1.0888 -0.6159  0.0109
15123SOL    HW249286   9.298   2.718   0.353  1.0739 -0.5564 -0.8664
15124SOL     OW49287   7.832   4.795   3.205  1.1718  0.7386 -0.5264
15124SOL    HW149288   7.843   4.887   3.228  1.2943  0.8165 -0.8891
15124SOL    HW249289   7.915   4.771   3.163  2.6517 -0.5450  2.8002
15125SOL     OW49290   2.782   0.548   7.524 -1.1164 -0.4813 -0.6563
15125SOL    HW149291   2.868   0.567   7.563 -1.0589  0.4023 -1.1671
15125SOL    HW249292   2.787   0.457   7.497  0.4809  0.1062 -2.6276
15126SOL     OW49293   0.950   0.687  10.186  0.6025 -0.4588 -0.0776
15126SOL    HW149294   0.903   0.663  10.266  1.1872 -1.9428 -0.1583
15126SOL    HW249295   0.927   0.619  10.123 -0.0305  0.8127 -1.2706
15127SOL     OW49296   8.564   2.674   3.038  0.2259 -0.6099 -0.1873
15127SOL    HW149297   8.640   2.731   3.030  0.8197 -1.6061 -1.9237
15127SOL    HW249298   8.593   2.589   3.005 -1.3939 -1.2388 -0.0758
15128SOL     OW49299   1.185   7.788   4.757 -0.1996 -0.2513  0.4510
15128SOL    HW149300   1.188   7.883   4.770 -0.2837 -0.1394 -0.2710
15128SOL    HW249301   1.143   7.754   4.836 -1.2756  0.4386  0.1986
15129SOL     OW49302   8.063   2.032   7.631 -0.1703  0.2066  0.0819
15129SOL    HW149303   8.097   2.113   7.670  0.2801  0.4156 -0.7287
15129SOL    HW249304   8.012   1.992   7.701  0.8496  0.4370  0.9949
15130SOL     OW49305   8.240   6.130   4.056  0.2734 -0.1235  0.3993
15130SOL    HW149306   8.273   6.166   3.973  0.4062  1.8149  1.2272
15130SOL    HW249307   8.149   6.107   4.038 -0.3819  2.3301  0.2179
15131SOL     OW49308   3.394  10.172   3.839 -0.3088 -0.1426  0.0846
15131SOL    HW149309   3.487  10.173   3.863 -0.2654 -0.3422 -0.0757
15131SOL    HW249310   3.353  10.119   3.908 -0.0522 -1.4604 -0.7418
15132SOL     OW49311   4.977   5.902   7.723 -0.4767  0.2752  0.8396
15132SOL    HW149312   4.999   5.809   7.720  0.7938  0.4782  2.6144
15132SOL    HW249313   5.062   5.947   7.725 -1.0304  1.6033 -1.5866
15133SOL     OW49314   0.877  10.066   5.277  0.0431  0.6755  0.9112
15133SOL    HW149315   0.906  10.032   5.361  0.6396  0.9181  0.8069
15133SOL    HW249316   0.880  10.161   5.287  0.6538  0.7127  0.4448
15134SOL     OW49317   1.837   3.157   9.943 -0.0401 -0.1007 -0.1911
15134SOL    HW149318   1.884   3.233   9.978 -0.2438 -0.0886  0.0582
15134SOL    HW249319   1.883   3.082   9.978  0.1146 -0.0933 -0.3763
15135SOL     OW49320   4.737   9.063   0.036  0.2244 -0.1250 -0.1805
15135SOL    HW149321   4.768   9.128  -0.026 -0.5718  0.1414 -0.3047
15135SOL    HW249322   4.648   9.042   0.007  0.5080 -1.3687 -0.2299
15136SOL     OW49323   0.408  10.073   8.034  0.7815  0.0184  0.2208
15136SOL    HW149324   0.473  10.029   8.089  2.1001  0.5918 -0.8387
15136SOL    HW249325   0.437  10.164   8.030 -0.9528  0.6509  0.9639
15137SOL     OW49326   5.357   1.894   9.772  0.0800  0.1826 -0.1835
15137SOL    HW149327   5.414   1.836   9.823 -0.3780  0.6485  0.9058
15137SOL    HW249328   5.407   1.975   9.763 -0.1342  0.3608  0.1936
15138SOL     OW49329   7.384   9.471   2.460  0.3057  1.1297 -0.1801
15138SOL    HW149330   7.390   9.510   2.373 -0.4007  0.1866 -0.6792
15138SOL    HW249331   7.381   9.545   2.520 -2.6132  1.9740 -1.1854
15139SOL     OW49332   6.770   4.257  10.140 -0.4069  0.4536  0.1460
15139SOL    HW149333   6.822   4.180  10.162  0.4360  1.1184  0.5489
15139SOL    HW249334   6.735   4.239  10.053 -1.7552 -1.1625  0.9568
15140SOL     OW49335   5.374   3.171   5.120  0.1376 -0.3122 -0.2621
15140SOL    HW149336   5.407   3.119   5.048 -1.8086 -0.0856 -1.3884
15140SOL    HW249337   5.418   3.136   5.198  0.4738 -2.1741 -1.2490
15141SOL     OW49338   5.402   8.282   3.087  0.3203  0.2487  0.8987
15141SOL    HW149339   5.466   8.246   3.025  1.1450 -0.0461  1.8874
15141SOL    HW249340   5.358   8.352   3.038 -0.6104 -1.3866 -0.7224
15142SOL     OW49341   5.381   7.354   0.832  0.0926 -0.7808 -0.0312
15142SOL    HW149342   5.373   7.436   0.784 -0.6839 -0.4579  0.6376
15142SOL    HW249343   5.440   7.374   0.904 -1.1017 -0.4491  0.8783
15143SOL     OW49344   7.109   3.078   1.868 -0.6639  0.6748  0.4507
15143SOL    HW149345   7.053   3.012   1.909 -0.5496  0.1996 -0.1370
15143SOL    HW249346   7.063   3.160   1.882 -1.9897  0.1933 -0.7832
15144SOL     OW49347   5.502   4.577   6.436 -0.4595 -0.2331  0.2100
15144SOL    HW149348   5.411   4.604   6.449  0.4126  2.4901  1.5761
15144SOL    HW249349   5.496   4.495   6.387 -3.6092  0.0750 -0.1563
15145SOL     OW49350   1.833   1.689  10.041  0.0679  0.0511  0.0394
15145SOL    HW149351   1.874   1.603  10.040 -1.2512 -0.7103  2.4298
15145SOL    HW249352   1.740   1.671  10.059 -0.0303  1.9950  1.8288
15146SOL     OW49353   7.879   9.862   7.447 -0.4404 -0.0505  0.2950
15146SOL    HW149354   7.904   9.914   7.524 -0.0814 -0.0242  0.1661
15146SOL    HW249355   7.937   9.785   7.451 -0.2919  0.0433 -0.0517
15147SOL     OW49356   0.520   5.719   9.496 -0.1826  0.1485 -0.6123
15147SOL    HW149357   0.446   5.780   9.500 -0.3063  0.0733 -1.6564
15147SOL    HW249358   0.586   5.758   9.553 -0.4397  1.0149 -0.8945
15148SOL     OW49359   8.977   4.837   7.210  0.0477 -0.3959 -0.3153
15148SOL    HW149360   8.987   4.924   7.171  0.5358  0.0987  0.8533
15148SOL    HW249361   9.043   4.784   7.167  1.3022  0.4100  0.5466
15149SOL     OW49362   4.320   7.645   6.285  0.2558 -0.5302 -0.3319
15149SOL    HW149363   4.272   7.728   6.291  1.2996 -0.0029  2.8090
15149SOL    HW249364   4.254   7.580   6.262 -0.9177  0.8931 -1.1167
15150SOL     OW49365   6.859   3.664   5.732 -0.2342  0.3333  0.2854
15150SOL    HW149366   6.788   3.722   5.760 -2.7604 -2.3520 -0.0150
15150SOL    HW249367   6.843   3.650   5.639  0.4680 -0.6041  0.2919
15151SOL     OW49368   4.007   4.357   2.352 -0.1041  0.2837 -0.2470
15151SOL    HW149369   4.079   4.383   2.410  1.5832 -1.5020 -1.4494
15151SOL    HW249370   3.975   4.439   2.315  1.1956  1.1264  0.4414
15152SOL     OW49371   5.874   6.662   9.941  0.3622  0.1311  0.5528
15152SOL    HW149372   5.947   6.642   9.883  0.1756  1.0224 -0.0055
15152SOL    HW249373   5.862   6.757   9.933 -0.1131  0.1604  1.5185
15153SOL     OW49374   5.675   6.732   8.352 -0.1505  0.1027 -0.0416
15153SOL    HW149375   5.651   6.692   8.268 -0.3716  0.5139 -0.1821
15153SOL    HW249376   5.591   6.754   8.393 -0.0683  2.1206 -0.8157
15154SOL     OW49377   7.954   9.039   6.809 -0.3406 -0.5160  0.1410
15154SOL    HW149378   7.984   8.951   6.830 -0.7397 -0.5302  0.6621
15154SOL    HW249379   7.930   9.077   6.893  1.8248  0.8576  0.2100
15155SOL     OW49380   1.235   2.707   0.246 -0.6031 -0.0931 -0.2715
15155SOL    HW149381   1.302   2.775   0.231 -0.6703  0.1992  0.6885
15155SOL    HW249382   1.247   2.682   0.338  0.9782 -3.0727 -1.1614
15156SOL     OW49383   5.512   2.962   4.206  0.0317 -0.3192  0.4193
15156SOL    HW149384   5.486   2.989   4.294 -1.9914 -0.2941 -0.1504
15156SOL    HW249385   5.549   3.042   4.167  0.9055 -0.3237  1.1999
15157SOL     OW49386   4.539   4.869   4.270  0.3020 -0.3464 -0.0125
15157SOL    HW149387   4.513   4.950   4.226 -2.8106 -0.4782  1.2898
15157SOL    HW249388   4.502   4.876   4.357  2.6250 -1.9169  1.2049
15158SOL     OW49389   5.930   0.555   6.556  0.4958  0.8829  0.0346
15158SOL    HW149390   6.001   0.538   6.494 -0.0379 -1.3852 -0.0302
15158SOL    HW249391   5.909   0.469   6.593 -2.2625  1.4554  0.0122
15159SOL     OW49392   7.363   6.552   7.073 -0.3510  0.5663  0.5563
15159SOL    HW149393   7.282   6.599   7.091  0.0203  0.8200  1.6308
15159SOL    HW249394   7.428   6.593   7.130  0.4802  0.1843 -0.0820
15160SOL     OW49395   1.689   5.947   8.852 -0.1999 -0.0851 -0.0503
15160SOL    HW149396   1.730   5.970   8.769  0.7175 -0.7576  0.2016
15160SOL    HW249397   1.758   5.902   8.901  0.5328  3.4287  2.5736
15161SOL     OW49398   6.729   6.508   6.471  0.0562  0.0757 -0.1876
15161SOL    HW149399   6.697   6.419   6.484  0.6750  0.0204  1.1741
15161SOL    HW249400   6.745   6.515   6.377 -0.6617 -1.0095 -0.4095
15162SOL     OW49401   0.342   1.728   6.177  0.1191  0.7470 -0.5207
15162SOL    HW149402   0.348   1.824   6.182 -1.7688  1.0466 -2.5412
15162SOL    HW249403   0.384   1.697   6.257  0.1881  3.2865  0.5149
15163SOL     OW49404   4.048   2.988   9.280  0.3273  0.3384  0.6744
15163SOL    HW149405   4.002   3.062   9.319 -1.5241  0.6193 -1.7244
15163SOL    HW249406   4.115   3.027   9.225  1.1462  0.0773  1.4672
15164SOL     OW49407   9.662   5.067   8.716  0.1384 -0.0628  0.0526
15164SOL    HW149408   9.757   5.064   8.708  0.1629 -2.0557  0.6201
15164SOL    HW249409   9.638   5.155   8.687  2.1841  0.6384  0.3515
15165SOL     OW49410   0.622   1.039   8.361 -0.2185 -0.3820 -0.5711
15165SOL    HW149411   0.686   0.967   8.367 -0.3634 -0.6961 -2.2633
15165SOL    HW249412   0.675   1.118   8.358 -0.0211 -0.4653  0.4477
15166SOL     OW49413   7.821   6.763   0.210 -0.3549  0.0804 -0.4544
15166SOL    HW149414   7.884   6.713   0.158 -0.9515 -2.2173  0.8914
15166SOL    HW249415   7.737   6.719   0.196 -0.5925 -0.4999  2.1412
15167SOL     OW49416   1.389   7.226   4.184  0.8542  0.4275  0.4314
15167SOL    HW149417   1.443   7.149   4.162 -0.3722 -1.2756  2.8926
15167SOL    HW249418   1.300   7.193   4.188  0.1768  2.1819  0.7883
15168SOL     OW49419   5.112   5.417   9.009 -0.1121 -0.1550  0.0058
15168SOL    HW149420   5.153   5.353   9.067  0.0544  0.9313  1.1056
15168SOL    HW249421   5.179   5.437   8.944  0.2196 -0.2640  0.3153
15169SOL     OW49422   5.301   2.268   4.851  0.0954 -0.2544 -0.2042
15169SOL    HW149423   5.359   2.279   4.926  0.6168 -0.5435 -0.5558
15169SOL    HW249424   5.358   2.236   4.781 -0.2117  0.8532 -0.9862
15170SOL     OW49425   3.096   7.412   2.577 -0.7429 -0.0162 -0.1055
15170SOL    HW149426   3.091   7.467   2.655  0.9339 -0.0755  0.0710
15170SOL    HW249427   3.119   7.325   2.610 -1.2256 -0.3326 -0.5774
15171SOL     OW49428   9.878   1.303   1.514  0.0972  0.6879  0.0396
15171SOL    HW149429   9.892   1.215   1.480  0.7944  0.3788  1.0656
15171SOL    HW249430   9.805   1.294   1.576 -0.0311  0.8911 -0.0817
15172SOL     OW49431   5.120   8.962   4.466  0.1352 -0.5726  0.4357
15172SOL    HW149432   5.030   8.945   4.493 -0.5639 -0.1041 -1.4416
15172SOL    HW249433   5.131   8.912   4.385  2.3857 -2.5847  1.8381
15173SOL     OW49434   4.517   0.199   5.265 -0.2147 -0.4881  0.3471
15173SOL    HW149435   4.594   0.233   5.309 -0.1256  0.6795 -0.6526
15173SOL    HW249436   4.452   0.189   5.334  0.1921  0.4831  0.8828
15174SOL     OW49437   6.573   3.551   4.682 -0.4452  0.3341 -0.2252
15174SOL    HW149438   6.550   3.637   4.719  2.1832  1.8366 -1.8171
15174SOL    HW249439   6.637   3.515   4.743 -1.0476 -0.2506  0.0839
15175SOL     OW49440   3.974   6.116   5.903 -0.2730  0.1695 -0.1863
15175SOL    HW149441   3.923   6.097   5.982  0.3866 -1.1721 -0.0578
15175SOL    HW249442   4.017   6.033   5.881  0.4672  0.8151 -1.3007
15176SOL     OW49443   5.875   2.208   6.651  0.4617 -1.1226  0.1162
15176SOL    HW149444   5.837   2.291   6.622 -0.3721 -1.1200  1.1861
15176SOL    HW249445   5.833   2.142   6.595 -0.2442 -1.0054  0.5124
15177SOL     OW49446   3.014   9.179   3.066  0.2043 -0.3374 -0.0511
15177SOL    HW149447   2.976   9.134   2.991 -0.3752  0.2621 -0.1226
15177SOL    HW249448   3.050   9.260   3.030 -2.4372  1.2822  0.6681
15178SOL     OW49449   3.125   9.398   1.209  0.2946 -0.4482 -0.2686
15178SOL    HW149450   3.072   9.358   1.140 -0.5316  0.4186 -0.1487
15178SOL    HW249451   3.175   9.467   1.165 -0.4438  0.2916  0.0391
15179SOL     OW49452   4.564   7.027   3.789  0.3260  0.0675 -1.3539
15179SOL    HW149453   4.620   6.977   3.848 -0.2107 -0.7746 -1.5396
15179SOL    HW249454   4.546   6.967   3.716  0.1036  0.7184 -1.8488
15180SOL     OW49455   0.602   4.517   4.970 -0.5586  0.4492  0.0737
15180SOL    HW149456   0.583   4.585   5.035 -1.7746 -1.5149  1.9042
15180SOL    HW249457   0.642   4.446   5.019 -1.2948 -1.0286 -1.3448
15181SOL     OW49458   9.758   3.543   2.553 -0.2012  0.7075 -0.0293
15181SOL    HW149459   9.821   3.481   2.590 -1.4291  0.0256  0.9881
15181SOL    HW249460   9.676   3.494   2.549 -0.5518  1.3604 -1.9539
15182SOL     OW49461  10.191   9.698   7.982  0.8233 -0.3913 -0.1314
15182SOL    HW149462  10.255   9.701   7.911  2.0393 -0.4583  0.9260
15182SOL    HW249463  10.197   9.608   8.015  0.0296 -0.4556 -0.1495
15183SOL     OW49464   2.937   2.366   0.207 -0.0337  0.0117  0.0664
15183SOL    HW149465   2.921   2.294   0.145  0.9416 -0.3509  0.2156
15183SOL    HW249466   2.937   2.324   0.293  0.4384  0.1963  0.1611
15184SOL     OW49467   3.801   3.184   3.994  0.3557 -0.2264 -0.0648
15184SOL    HW149468   3.831   3.120   3.929  1.5322 -1.2857  1.4325
15184SOL    HW249469   3.761   3.130   4.063  2.3721  0.4772  1.7652
15185SOL     OW49470   7.080   4.707   4.775 -0.5203  0.1467  0.5283
15185SOL    HW149471   7.064   4.753   4.858 -1.1132 -2.9280  2.2653
15185SOL    HW249472   7.174   4.714   4.762 -0.2219 -0.3010  2.1543
15186SOL     OW49473   2.559   3.500   0.713  0.2688  0.0448 -0.4696
15186SOL    HW149474   2.515   3.420   0.683  1.3430 -0.4973 -0.6351
15186SOL    HW249475   2.488   3.553   0.750 -0.3070 -1.4793  0.7590
15187SOL     OW49476   9.307   8.815   8.698  0.3345 -0.3665  0.3237
15187SOL    HW149477   9.295   8.721   8.684 -0.0708 -0.2498 -0.1272
15187SOL    HW249478   9.262   8.833   8.781  1.5310 -0.8006  1.0977
15188SOL     OW49479   4.874   3.229  10.013  0.1493  0.2059  0.1203
15188SOL    HW149480   4.826   3.268  10.086  0.9081 -1.3831  1.5210
15188SOL    HW249481   4.941   3.175  10.054  1.2765  0.0695 -1.7760
15189SOL     OW49482   1.836   8.640   4.480 -0.2115  0.0960 -0.1434
15189SOL    HW149483   1.876   8.642   4.393 -2.1138 -0.7988 -1.1086
15189SOL    HW249484   1.783   8.720   4.483  1.6738  1.3729  1.1957
15190SOL     OW49485   9.340   1.536   5.336  0.1987  0.3907 -0.3425
15190SOL    HW149486   9.367   1.505   5.422 -0.9255 -2.6890 -0.9410
15190SOL    HW249487   9.398   1.490   5.275 -0.1801  1.1224 -1.2676
15191SOL     OW49488   1.874   0.795   2.515  0.2192  0.0416  0.0695
15191SOL    HW149489   1.908   0.821   2.601  0.7692 -2.1135  0.5639
15191SOL    HW249490   1.946   0.814   2.454  0.5296 -0.1198  0.3832
15192SOL     OW49491   5.671   9.512   2.591 -0.2713  0.1748  0.4827
15192SOL    HW149492   5.686   9.518   2.686 -0.5701 -0.4019  0.5720
15192SOL    HW249493   5.688   9.420   2.570  0.1123  0.3692 -0.0833
15193SOL     OW49494   5.960   7.666   8.132  0.4776 -0.7255  0.4395
15193SOL    HW149495   5.947   7.733   8.199 -0.7977 -1.0597  0.5563
15193SOL    HW249496   6.020   7.706   8.070  1.4022 -0.2711  1.5831
15194SOL     OW49497   1.439   0.001   2.949  0.1236 -0.1964  0.6700
15194SOL    HW149498   1.426   0.046   3.032 -1.6845 -2.0102  1.4246
15194SOL    HW249499   1.401  -0.085   2.961  0.0113 -0.6081 -1.9729
15195SOL     OW49500   9.066   6.538   0.004 -0.0984 -0.0889  0.0536
15195SOL    HW149501   9.091   6.455  -0.037  0.6211  0.2438 -0.1956
15195SOL    HW249502   8.993   6.570  -0.049 -0.2873 -0.4963  0.0665
15196SOL     OW49503   3.191   4.155   9.533  0.1616 -0.5847 -0.2999
15196SOL    HW149504   3.229   4.198   9.455  0.0694 -0.1388 -0.1013
15196SOL    HW249505   3.157   4.227   9.586 -1.2218 -0.9966 -0.5988
15197SOL     OW49506   9.753   6.280   3.304  1.1123 -0.5581  0.1277
15197SOL    HW149507   9.753   6.364   3.257  1.6873 -1.4287 -1.4918
15197SOL    HW249508   9.661   6.252   3.303  0.8651  0.1426  0.9242
15198SOL     OW49509   1.784   9.288   4.163 -0.1053  0.0672  0.4325
15198SOL    HW149510   1.861   9.234   4.142 -0.9504 -0.0016 -3.0876
15198SOL    HW249511   1.718   9.225   4.191  0.3485 -0.1667  0.9950
15199SOL     OW49512   5.177   4.999   2.055 -0.4310  0.9856  0.3685
15199SOL    HW149513   5.247   5.061   2.037  0.9056 -0.6841 -0.5020
15199SOL    HW249514   5.181   4.983   2.149  0.1531  1.1268  0.3680
15200SOL     OW49515   8.886   2.952   9.333  0.2604  0.3587  0.3463
15200SOL    HW149516   8.977   2.924   9.346  0.3285 -0.6433 -1.8626
15200SOL    HW249517   8.894   3.035   9.286  0.0169  0.2135  0.0548
15201SOL     OW49518   6.383   2.607   2.409 -0.1574  0.1977 -0.2834
15201SOL    HW149519   6.383   2.624   2.315 -0.6497 -1.3694 -0.5927
15201SOL    HW249520   6.359   2.691   2.449 -1.9361  0.4023 -1.6708
15202SOL     OW49521   1.963   1.963   3.074 -0.1991  0.2111 -0.2452
15202SOL    HW149522   1.969   1.908   3.152 -0.7796 -0.1690 -0.4609
15202SOL    HW249523   1.869   1.974   3.060 -0.0947  0.6547 -0.6319
15203SOL     OW49524   2.369   6.348   4.420 -0.0376 -0.2639 -0.0783
15203SOL    HW149525   2.331   6.376   4.502  0.8595 -1.6585  0.8604
15203SOL    HW249526   2.305   6.373   4.353 -0.0816  2.3202  0.8279
15204SOL     OW49527   4.558   9.480   7.890 -0.0254 -0.3986  0.0651
15204SOL    HW149528   4.500   9.411   7.921 -0.1880 -0.2186  0.1604
15204SOL    HW249529   4.507   9.526   7.823 -0.0265 -0.1789  0.2195
15205SOL     OW49530   4.466   3.240   5.691 -0.0988  0.1491 -0.3764
15205SOL    HW149531   4.397   3.208   5.633 -0.3247 -1.4095  0.6762
15205SOL    HW249532   4.427   3.315   5.736 -1.0014 -0.4804 -0.0775
15206SOL     OW49533   4.394   3.914   0.402 -0.3616  0.2081  0.1179
15206SOL    HW149534   4.320   3.897   0.460  2.0309 -1.8186  2.8775
15206SOL    HW249535   4.413   3.830   0.361  0.7517  0.5105 -0.0331
15207SOL     OW49536   5.020   9.346   1.121  0.0261 -0.5856 -0.0491
15207SOL    HW149537   5.055   9.326   1.034  0.1897 -1.9282  0.3085
15207SOL    HW249538   4.926   9.330   1.113 -0.0048 -0.3900 -0.0694
15208SOL     OW49539   4.142   9.054   2.545 -0.1997 -0.1087 -0.3657
15208SOL    HW149540   4.229   9.039   2.582  0.3546  1.1865 -1.0661
15208SOL    HW249541   4.119   8.971   2.503  1.5061  0.0665 -1.7497
15209SOL     OW49542   1.344   3.460   5.747  0.6736  0.2775 -0.1823
15209SOL    HW149543   1.319   3.400   5.817  0.4613  1.2732  0.6273
15209SOL    HW249544   1.316   3.416   5.666 -0.5757 -0.1767  0.4630
15210SOL     OW49545   4.525   0.971   8.150 -1.2015 -0.0541  0.4492
15210SOL    HW149546   4.563   0.885   8.169  0.2882  0.6607  0.8609
15210SOL    HW249547   4.454   0.979   8.214  0.1360 -0.0493  2.0192
15211SOL     OW49548   2.148   2.941   3.182 -0.1568  0.5508  0.2723
15211SOL    HW149549   2.162   2.908   3.270  1.1568  2.6573  0.9312
15211SOL    HW249550   2.230   2.924   3.136 -0.7530 -0.3359 -0.5000
15212SOL     OW49551   4.933   3.425   8.456  0.0455 -0.4591  0.1984
15212SOL    HW149552   4.930   3.386   8.543  2.3578  0.7409  0.8735
15212SOL    HW249553   5.008   3.383   8.413  0.8411  1.1710 -0.0645
15213SOL     OW49554   2.538   1.038   0.694 -0.4605 -0.2771 -0.4618
15213SOL    HW149555   2.535   1.058   0.601  0.8666 -0.0096 -0.4694
15213SOL    HW249556   2.539   0.942   0.698 -0.5884 -0.2901 -0.7170
15214SOL     OW49557   2.383   4.746   7.606 -0.0971 -1.0139 -0.2049
15214SOL    HW149558   2.445   4.806   7.563  0.7811 -0.7139  1.3890
15214SOL    HW249559   2.311   4.802   7.635  0.0041 -0.9780 -0.0227
15215SOL     OW49560   0.058   1.113   4.633  0.0497  0.3404  0.1161
15215SOL    HW149561  -0.007   1.178   4.659 -0.7408 -0.3906  0.0195
15215SOL    HW249562   0.007   1.034   4.615  1.0321 -0.4654  0.7430
15216SOL     OW49563   8.292   9.012   6.598  0.0216  0.1722  0.0229
15216SOL    HW149564   8.254   9.089   6.640  0.1480 -0.5419  1.5065
15216SOL    HW249565   8.317   8.955   6.671  0.7676 -0.8745 -1.0201
15217SOL     OW49566   1.239   8.210   4.996 -0.3376 -0.2044 -0.0969
15217SOL    HW149567   1.229   8.202   5.091  2.6737  0.2297  0.3434
15217SOL    HW249568   1.256   8.303   4.981  1.2748 -0.5732 -0.7629
15218SOL     OW49569   5.709   9.877   0.927  0.6938  0.3317 -0.2001
15218SOL    HW149570   5.680   9.836   1.008 -0.0596  0.8294 -0.2027
15218SOL    HW249571   5.696   9.971   0.941  0.3126  0.4068 -0.9848
15219SOL     OW49572   7.708   3.598   9.492  0.4247  0.4593  0.0564
15219SOL    HW149573   7.670   3.676   9.534  1.6674  1.0249  0.1671
15219SOL    HW249574   7.715   3.622   9.399  2.8675  1.3885  0.4089
15220SOL     OW49575   5.201   8.118   8.487 -0.2440  0.2035  1.0119
15220SOL    HW149576   5.120   8.067   8.487 -0.2419  0.1706 -0.3998
15220SOL    HW249577   5.251   8.083   8.413  1.2312 -0.0229  2.0552
15221SOL     OW49578   2.630   3.409   8.917 -0.4384  0.4619  0.2991
15221SOL    HW149579   2.657   3.488   8.964  0.2485  1.2723 -1.3890
15221SOL    HW249580   2.607   3.439   8.829  0.0023 -1.2373 -0.4408
15222SOL     OW49581   7.221   0.248   7.219  0.5948  0.0518  0.2388
15222SOL    HW149582   7.257   0.294   7.144  1.2531 -1.6393 -0.5221
15222SOL    HW249583   7.129   0.234   7.196  0.6889 -0.0772 -0.0647
15223SOL     OW49584   0.480   6.755   0.315 -0.1618  0.4790  0.4988
15223SOL    HW149585   0.543   6.819   0.281  2.0601 -1.2440  1.0887
15223SOL    HW249586   0.396   6.799   0.310  1.1969  3.3277  0.6089
15224SOL     OW49587   0.525   8.168   9.919 -0.5206 -0.1189  0.3599
15224SOL    HW149588   0.535   8.200   9.829 -0.1986 -0.5955  0.2248
15224SOL    HW249589   0.551   8.076   9.916 -0.2602 -0.0762  0.9900
15225SOL     OW49590   7.708   9.730   6.204 -0.1880 -0.2341 -0.1081
15225SOL    HW149591   7.762   9.673   6.259 -1.0948  0.0197  1.0819
15225SOL    HW249592   7.771   9.781   6.154  0.6630 -0.7629  0.3944
15226SOL     OW49593   4.540   5.687   2.734  0.1819 -0.4537  0.2931
15226SOL    HW149594   4.632   5.692   2.759 -0.2004 -1.1403  1.9386
15226SOL    HW249595   4.494   5.745   2.795 -0.5961 -0.9338  0.1823
15227SOL     OW49596   3.508   4.972   7.842 -1.1304 -0.1977  0.7290
15227SOL    HW149597   3.558   4.901   7.884 -0.9337  0.6747  2.0202
15227SOL    HW249598   3.418   4.958   7.871 -1.0163  0.3300  1.3556
15228SOL     OW49599   9.333   4.615   0.797  0.1598 -0.1926  0.7541
15228SOL    HW149600   9.301   4.544   0.853  1.8788 -2.3894 -0.8501
15228SOL    HW249601   9.424   4.626   0.824 -0.1177  1.5767  1.0626
15229SOL     OW49602   3.500   7.022   5.338  0.4422  0.0473  0.1287
15229SOL    HW149603   3.433   6.985   5.281  1.3654 -1.2341 -0.1630
15229SOL    HW249604   3.573   6.960   5.333  1.5392  1.2470  0.6689
15230SOL     OW49605   3.938   4.140   1.617 -0.4568  0.4344 -0.3158
15230SOL    HW149606   3.904   4.228   1.598 -3.9422 -0.5294  0.6406
15230SOL    HW249607   3.978   4.147   1.703 -0.8514  1.0689 -0.1797
15231SOL     OW49608   7.412   5.293   1.028 -0.3047 -0.0629 -0.1625
15231SOL    HW149609   7.355   5.228   1.068  0.0890  0.5498  1.4824
15231SOL    HW249610   7.463   5.329   1.102  0.2115  1.3593 -1.1711
15232SOL     OW49611   2.958   4.037   0.866  0.5474  0.1244 -0.0433
15232SOL    HW149612   2.994   4.029   0.778  1.5225 -1.1514  0.4285
15232SOL    HW249613   2.979   3.953   0.908  0.8479  1.0063  1.6680
15233SOL     OW49614   5.748   2.737   9.118  0.9902  0.3314 -0.6578
15233SOL    HW149615   5.719   2.680   9.046  2.1677 -0.2202 -0.7169
15233SOL    HW249616   5.841   2.751   9.102  0.7258  2.3888 -0.6977
15234SOL     OW49617   9.007   2.499   8.846 -0.4565 -0.3674  0.4109
15234SOL    HW149618   8.912   2.501   8.861 -0.3646  3.1140  1.5268
15234SOL    HW249619   9.043   2.465   8.927 -0.7226 -0.2226  0.5947
15235SOL     OW49620   2.205   4.170   4.501 -0.0118  0.9811  0.4314
15235SOL    HW149621   2.275   4.176   4.566  2.1005  3.0377 -1.7847
15235SOL    HW249622   2.124   4.176   4.551  1.4711  1.4673  2.9116
15236SOL     OW49623   0.458   5.166   3.815  0.2704 -0.2475  0.2837
15236SOL    HW149624   0.514   5.243   3.806  0.2999 -0.4707 -1.9638
15236SOL    HW249625   0.518   5.096   3.844  0.8288 -0.0809 -0.4378
15237SOL     OW49626   0.670   4.883   9.532 -0.5745  0.3622 -0.4787
15237SOL    HW149627   0.758   4.915   9.509 -0.6742  0.6714 -0.4302
15237SOL    HW249628   0.678   4.854   9.623  0.1747 -2.1041 -1.2346
15238SOL     OW49629   8.947   4.572   5.839  0.1628  0.5703  0.2836
15238SOL    HW149630   9.025   4.605   5.796  0.3553  0.9753  0.9387
15238SOL    HW249631   8.960   4.591   5.932  0.5689 -1.8701  0.7931
15239SOL     OW49632   6.871   3.962   2.608 -0.2515 -0.4062 -0.4011
15239SOL    HW149633   6.947   3.921   2.567  0.0221  0.4934 -0.8020
15239SOL    HW249634   6.908   4.024   2.671 -0.6624 -1.3763  0.8572
15240SOL     OW49635   6.199   5.160   7.518  0.6972 -0.3741  0.4826
15240SOL    HW149636   6.126   5.109   7.553 -1.5425  2.8680  0.9511
15240SOL    HW249637   6.195   5.145   7.423  0.5833 -1.5710  0.6571
15241SOL     OW49638   5.205   5.089   6.334 -0.3125 -0.3422 -0.3613
15241SOL    HW149639   5.214   5.153   6.264  0.7370 -1.1723 -1.0104
15241SOL    HW249640   5.128   5.117   6.382  0.3329  1.6136 -0.3997
15242SOL     OW49641   8.644   4.272   0.963 -0.3397  0.3147  0.6492
15242SOL    HW149642   8.715   4.334   0.946 -0.4867  0.7607  1.5866
15242SOL    HW249643   8.674   4.221   1.038 -0.8055  0.1803  0.7505
15243SOL     OW49644   4.381   6.834  10.027 -0.4836 -0.9094 -0.4606
15243SOL    HW149645   4.419   6.899   9.968  1.8173 -0.0459  1.7901
15243SOL    HW249646   4.378   6.753   9.975 -1.8977  0.5437 -2.8079
15244SOL     OW49647   3.775   9.059   8.182 -0.1330 -0.5364 -0.2035
15244SOL    HW149648   3.716   9.054   8.257  0.9396  0.5944  0.7521
15244SOL    HW249649   3.755   9.142   8.140 -1.3283 -1.5500 -1.7299
15245SOL     OW49650   9.240   9.129   3.107 -0.4854  0.3043 -0.1981
15245SOL    HW149651   9.229   9.037   3.081 -0.6502  0.6552 -1.4138
15245SOL    HW249652   9.155   9.153   3.145 -1.1551  0.5337 -1.7650
15246SOL     OW49653   4.886   4.877   7.701 -0.2548 -0.4533 -0.2619
15246SOL    HW149654   4.939   4.953   7.676  0.5105  0.0037  2.3948
15246SOL    HW249655   4.795   4.904   7.683  0.0868  0.6233 -0.4406
15247SOL     OW49656   4.483   0.614   3.192  0.1079 -0.1561  0.4356
15247SOL    HW149657   4.445   0.628   3.105  0.7701 -0.0536  0.1596
15247SOL    HW249658   4.561   0.668   3.194 -0.5764  0.8470  1.5773
15248SOL     OW49659   7.777   5.087   4.457  0.6327  0.3087  0.4346
15248SOL    HW149660   7.779   5.157   4.521  0.5280 -0.9431  1.8728
15248SOL    HW249661   7.814   5.011   4.503  1.0325 -0.5130 -1.1511
15249SOL     OW49662   7.433   7.790   1.945 -0.7358  0.2876 -0.2477
15249SOL    HW149663   7.485   7.799   1.866  0.5745  1.3301  0.6775
15249SOL    HW249664   7.389   7.875   1.955  0.7004  0.9307  1.1533
15250SOL     OW49665   5.681   1.585   5.853  0.6709 -0.4106 -0.7869
15250SOL    HW149666   5.718   1.508   5.812  0.2790 -2.0843  1.7493
15250SOL    HW249667   5.751   1.618   5.910 -0.5358 -1.7308  1.6346
15251SOL     OW49668   7.181   9.618  10.048 -0.3448  0.0801  0.0578
15251SOL    HW149669   7.108   9.627  10.110 -0.3246 -0.9402  0.2341
15251SOL    HW249670   7.144   9.646   9.964 -0.7909  0.0799  0.2478
15252SOL     OW49671   5.391   0.469   2.301 -0.2734  0.0762  0.0038
15252SOL    HW149672   5.437   0.400   2.350 -2.0863 -0.7231  0.6574
15252SOL    HW249673   5.459   0.534   2.284  1.0550 -0.9246  1.1325
15253SOL     OW49674   5.985   2.555   9.673 -0.1140  0.2771  0.0592
15253SOL    HW149675   6.031   2.474   9.695  1.0622  1.0119  0.4307
15253SOL    HW249676   5.929   2.532   9.599  2.4978 -0.2050 -1.9109
15254SOL     OW49677   1.462   5.466   4.996 -0.2738  0.1006  0.3492
15254SOL    HW149678   1.441   5.537   5.057 -1.5312 -0.1321  0.2118
15254SOL    HW249679   1.510   5.402   5.050 -1.0128  0.0823  1.0027
15255SOL     OW49680   2.645   7.185   5.384 -1.3682 -0.6440 -0.1056
15255SOL    HW149681   2.734   7.217   5.399 -1.4998 -0.3719  0.0914
15255SOL    HW249682   2.616   7.154   5.469 -0.0893 -4.2613 -0.8191
15256SOL     OW49683   4.815   5.993   2.887 -0.1573 -0.3014  0.9098
15256SOL    HW149684   4.884   5.979   2.822 -0.7678  1.9016 -0.3238
15256SOL    HW249685   4.734   5.994   2.836 -0.8180 -0.0782  1.9336
15257SOL     OW49686   3.863   7.692   2.381  0.0997  0.8598 -0.4997
15257SOL    HW149687   3.824   7.779   2.385 -0.9863  0.3505  1.2296
15257SOL    HW249688   3.909   7.683   2.465  0.4747 -0.1176 -0.8002
15258SOL     OW49689   8.177   7.388   4.604  0.1773  0.0541  0.0654
15258SOL    HW149690   8.229   7.468   4.610  0.0805  0.1007  0.3157
15258SOL    HW249691   8.225   7.331   4.544 -0.6771  0.9925 -1.5854
15259SOL     OW49692   9.362   4.794   6.959  0.8520  0.1548 -0.0936
15259SOL    HW149693   9.378   4.845   6.880 -0.5506 -0.0128 -0.5227
15259SOL    HW249694   9.290   4.735   6.935 -1.5242  1.9259  2.0501
15260SOL     OW49695   8.385   5.276   9.316 -0.3350  0.1653  0.3319
15260SOL    HW149696   8.347   5.189   9.330 -0.6669  0.2771  0.1280
15260SOL    HW249697   8.419   5.302   9.402 -0.0055 -0.2727  0.3414
15261SOL     OW49698  10.074   9.625   5.050  0.3608  0.3316  0.8616
15261SOL    HW149699  10.044   9.713   5.030 -0.6938  0.0990  1.3453
15261SOL    HW249700  10.152   9.613   4.997  0.3285  1.4377  0.5536
15262SOL     OW49701   2.734   3.347   0.925 -0.0506 -0.3763  0.3144
15262SOL    HW149702   2.830   3.354   0.916 -0.1429 -0.1353 -0.6182
15262SOL    HW249703   2.700   3.423   0.876 -0.7514 -1.2183 -0.5446
15263SOL     OW49704   8.040   7.033   2.766  0.0375  0.6700  0.3344
15263SOL    HW149705   8.113   7.018   2.707  0.6376 -0.4514  1.3146
15263SOL    HW249706   8.010   6.945   2.792 -1.5208  1.1018  0.1338
15264SOL     OW49707   2.029   5.008   4.233 -0.1260 -0.5586 -0.3200
15264SOL    HW149708   2.081   4.928   4.222  0.2666 -0.6152  1.6142
15264SOL    HW249709   2.065   5.069   4.168  1.5466 -0.9953  0.1514
15265SOL     OW49710   4.789   0.120   9.242  0.0492 -0.0417 -0.3561
15265SOL    HW149711   4.819   0.155   9.326 -2.5399 -0.4044  0.8182
15265SOL    HW249712   4.809   0.026   9.247 -2.9832 -0.7241  1.3919
15266SOL     OW49713   4.429   9.631   1.770 -0.4952  0.1070 -0.1884
15266SOL    HW149714   4.436   9.682   1.690  2.0910 -0.7329 -0.6014
15266SOL    HW249715   4.422   9.540   1.740  1.3575 -0.3012  0.4659
15267SOL     OW49716   0.319   3.954   7.190  0.1164  0.2375 -0.1711
15267SOL    HW149717   0.366   3.985   7.113 -0.0889 -0.1336 -0.4490
15267SOL    HW249718   0.287   4.034   7.232  0.9036  0.4818 -0.0309
15268SOL     OW49719   1.442   0.783   6.259 -0.0865 -0.2405  0.1237
15268SOL    HW149720   1.408   0.813   6.344  1.1334 -0.6356  0.7828
15268SOL    HW249721   1.437   0.688   6.264 -0.7583 -0.2503 -0.5868
15269SOL     OW49722   2.558   6.379   5.151 -0.1028  0.1314  0.1506
15269SOL    HW149723   2.563   6.450   5.215  0.2500  0.4011 -0.1669
15269SOL    HW249724   2.500   6.413   5.083  0.1690  0.1682 -0.0646
15270SOL     OW49725   5.853   2.782   2.743  0.1973  0.5177 -0.6733
15270SOL    HW149726   5.807   2.712   2.697 -0.9797  0.3591  0.6490
15270SOL    HW249727   5.868   2.849   2.676 -1.0434  0.1122 -1.4014
15271SOL     OW49728   4.649   8.643   1.179 -0.3869  0.0819 -0.2461
15271SOL    HW149729   4.678   8.554   1.158  0.7491  0.2516  0.5230
15271SOL    HW249730   4.665   8.693   1.099 -0.1085 -0.1896 -0.3627
15272SOL     OW49731   5.439   6.664   2.733  0.0980 -0.3303 -0.8640
15272SOL    HW149732   5.374   6.594   2.747 -1.4176  1.0864 -0.5021
15272SOL    HW249733   5.420   6.697   2.646  1.5211 -1.0297 -1.4762
15273SOL     OW49734   1.153   8.510   4.674 -0.4786  0.5915  0.2244
15273SOL    HW149735   1.080   8.448   4.666  1.4476 -1.7195 -0.5407
15273SOL    HW249736   1.188   8.496   4.761 -1.2126  2.1134  0.8099
15274SOL     OW49737  10.051   8.336   6.321  0.4014 -0.2148 -0.0370
15274SOL    HW149738  10.068   8.341   6.415  0.8498  0.5359 -0.1533
15274SOL    HW249739   9.957   8.315   6.314  0.9070 -3.2333  0.6027
15275SOL     OW49740   6.362   2.156   6.495 -0.0733 -0.0613 -0.2053
15275SOL    HW149741   6.294   2.153   6.563 -0.7191  1.1324 -0.7663
15275SOL    HW249742   6.386   2.249   6.491  0.6230 -0.2741 -0.9650
15276SOL     OW49743   4.907   4.819   9.889 -0.4917  0.9419  0.2944
15276SOL    HW149744   4.967   4.746   9.900  0.9128  1.8399 -0.9548
15276SOL    HW249745   4.825   4.779   9.859  0.0191 -0.1683  0.3326
15277SOL     OW49746   8.449   0.550   8.263  0.6854 -0.0474 -0.3379
15277SOL    HW149747   8.456   0.642   8.238  0.2607 -0.0392 -0.4325
15277SOL    HW249748   8.539   0.521   8.272  0.8479  0.0317 -1.5813
15278SOL     OW49749   5.033   6.464   6.700  0.3692 -0.2272  0.0097
15278SOL    HW149750   5.006   6.397   6.637 -1.5074  1.0035 -0.5759
15278SOL    HW249751   5.030   6.420   6.785  2.4180 -1.7702 -0.6317
15279SOL     OW49752   2.750   9.027   8.442  0.4059  0.2078 -0.0446
15279SOL    HW149753   2.752   9.034   8.347  1.4260  1.0614  0.0207
15279SOL    HW249754   2.664   9.061   8.467 -0.6808 -1.8459 -0.7475
15280SOL     OW49755   1.417   4.561   0.432  0.0254 -0.5985  0.7295
15280SOL    HW149756   1.476   4.513   0.373 -2.1378 -0.7175 -1.4979
15280SOL    HW249757   1.472   4.585   0.506  2.4920 -1.9503 -0.5249
15281SOL     OW49758   7.536   3.245   2.729 -0.0329  0.1768 -0.9808
15281SOL    HW149759   7.607   3.309   2.740  0.6262 -0.6159 -0.5333
15281SOL    HW249760   7.468   3.293   2.682  0.4087  1.2396 -0.5645
15282SOL     OW49761   0.896   8.572   4.437 -0.2520  0.0434  0.5171
15282SOL    HW149762   0.817   8.553   4.387  0.2982  0.5016 -0.5760
15282SOL    HW249763   0.916   8.490   4.482 -0.5517 -0.5186 -0.3432
15283SOL     OW49764   7.598   3.918   6.281  0.8625  0.3405  0.3956
15283SOL    HW149765   7.642   3.995   6.246 -0.0565 -0.2154 -2.2157
15283SOL    HW249766   7.635   3.844   6.232 -2.1906 -0.2229 -1.3157
15284SOL     OW49767   6.318   5.059   0.449  0.0571 -0.6863 -0.5156
15284SOL    HW149768   6.302   5.066   0.355  0.1782 -0.0440 -0.4962
15284SOL    HW249769   6.249   5.002   0.482 -1.0447  0.5015 -0.7209
15285SOL     OW49770   2.987   6.257   6.955 -0.4277 -0.8088  0.2437
15285SOL    HW149771   2.938   6.335   6.984  1.1213  0.3628 -0.1151
15285SOL    HW249772   2.995   6.203   7.034 -0.9203 -0.2455  0.6888
15286SOL     OW49773   7.088   7.440   0.488 -0.8734 -0.2913 -0.3143
15286SOL    HW149774   7.166   7.389   0.466 -1.7895 -2.0115  0.2272
15286SOL    HW249775   7.121   7.528   0.507  0.8913 -0.9080 -0.3705
15287SOL     OW49776   6.344   1.875   7.264 -0.3127 -0.7853 -0.1452
15287SOL    HW149777   6.355   1.796   7.211  1.1803 -0.8686  0.2515
15287SOL    HW249778   6.408   1.866   7.334 -0.7219  0.3796  0.3985
15288SOL     OW49779   6.489   4.759   8.439  0.0043  0.1317 -0.5774
15288SOL    HW149780   6.534   4.839   8.466  0.8907 -0.6825  0.4766
15288SOL    HW249781   6.404   4.764   8.483  1.4513 -1.2106  2.7631
15289SOL     OW49782   7.984   5.291   5.562 -0.7779 -0.9806 -0.2755
15289SOL    HW149783   7.958   5.305   5.471  0.1051  0.6685 -0.3106
15289SOL    HW249784   7.903   5.266   5.606 -1.9622  1.3711 -0.9018
15290SOL     OW49785   2.705   9.803   3.062 -0.2711  0.4184 -0.1773
15290SOL    HW149786   2.719   9.849   3.145  0.5457  3.1126 -1.6609
15290SOL    HW249787   2.779   9.743   3.055  0.2561  0.9611  0.5368
15291SOL     OW49788   0.400   7.994   8.775  0.2034 -0.0773  0.1601
15291SOL    HW149789   0.315   7.951   8.765 -0.2112  0.6023  0.7114
15291SOL    HW249790   0.393   8.073   8.721  0.3887  0.1109  0.4089
15292SOL     OW49791   2.311   8.985   2.506 -0.4571  0.0724 -0.0733
15292SOL    HW149792   2.277   9.071   2.533 -1.8112 -0.2524 -0.6738
15292SOL    HW249793   2.314   8.934   2.587  1.4176  0.9885  0.4958
15293SOL     OW49794   9.826   7.752   5.064 -0.1804  0.2581  0.5671
15293SOL    HW149795   9.750   7.748   5.006  1.4708  1.0478 -1.8024
15293SOL    HW249796   9.842   7.660   5.087 -0.1458 -0.2573 -1.3073
15294SOL     OW49797   8.745   7.198   8.478 -0.3406  0.0991 -0.3398
15294SOL    HW149798   8.790   7.117   8.505 -0.8653 -0.5777 -1.4146
15294SOL    HW249799   8.779   7.265   8.537  2.2698 -0.3092 -1.2267
15295SOL     OW49800   6.641   3.759  10.172 -0.1590 -0.2757  0.0659
15295SOL    HW149801   6.646   3.822  10.244 -0.5444 -1.7219  1.4158
15295SOL    HW249802   6.547   3.745  10.160 -0.1199  0.3876 -1.1417
15296SOL     OW49803   4.973   2.978   1.029  0.3279  0.5822  0.7143
15296SOL    HW149804   4.966   2.918   0.956  0.9760  0.9521  0.3333
15296SOL    HW249805   5.043   3.038   1.004  0.7579  0.5425  1.7566
15297SOL     OW49806   8.596   6.434   1.721 -0.3389  0.4701  0.0884
15297SOL    HW149807   8.690   6.449   1.710 -0.1706 -1.5286 -2.3073
15297SOL    HW249808   8.557   6.468   1.640 -0.8089 -3.9702 -1.8309
15298SOL     OW49809   4.639   6.552   1.597 -0.1515 -0.1768  0.1669
15298SOL    HW149810   4.571   6.586   1.656 -1.0269 -1.4794 -0.0350
15298SOL    HW249811   4.592   6.538   1.514  0.9710  1.2720 -0.7645
15299SOL     OW49812   9.545   7.565   9.998  0.1506 -0.0895  0.3288
15299SOL    HW149813   9.600   7.594  10.071  0.0598  0.2833  0.2514
15299SOL    HW249814   9.584   7.606   9.921 -0.5485  0.6391  0.3386
15300SOL     OW49815   4.572   0.294   4.630 -0.6932 -0.2465  0.1359
15300SOL    HW149816   4.527   0.239   4.694 -0.3667 -2.3040 -1.2853
15300SOL    HW249817   4.502   0.327   4.574 -0.7445 -0.8551 -0.1731
15301SOL     OW49818   4.558   8.952   9.305  0.3510  0.3994  0.3458
15301SOL    HW149819   4.569   8.869   9.260  0.6237  1.3549 -1.4239
15301SOL    HW249820   4.642   8.966   9.350  0.4858 -0.0362  0.2373
15302SOL     OW49821   1.674   9.519   5.757 -0.3038 -0.1040 -0.0961
15302SOL    HW149822   1.630   9.434   5.747 -2.9147  0.9457  1.4269
15302SOL    HW249823   1.727   9.528   5.678 -0.7688 -2.6694 -0.7946
15303SOL     OW49824   8.893   9.031   7.940  0.1213 -0.6692  0.1778
15303SOL    HW149825   8.924   9.112   7.980 -1.7302  0.2181 -0.0614
15303SOL    HW249826   8.816   9.057   7.888  0.1338 -2.4029 -0.8107
15304SOL     OW49827   9.255   4.291   5.301  0.4846  0.5010  0.4564
15304SOL    HW149828   9.184   4.331   5.250  0.5050  1.5349  1.2134
15304SOL    HW249829   9.248   4.198   5.281  0.0887  0.7969 -0.9301
15305SOL     OW49830   0.177   3.785   1.061  0.0334 -0.3024  0.4205
15305SOL    HW149831   0.163   3.879   1.058 -0.0770 -0.2640  1.7227
15305SOL    HW249832   0.227   3.770   1.141  0.0660 -1.3427  0.2209
15306SOL     OW49833   7.979   3.823   1.220  0.0317 -0.3359  0.1929
15306SOL    HW149834   7.970   3.728   1.209 -0.1937 -0.3051  0.1050
15306SOL    HW249835   8.033   3.833   1.299 -0.2956 -0.5327  0.4459
15307SOL     OW49836   4.654   2.613   5.943 -0.3986 -0.0376  0.1944
15307SOL    HW149837   4.749   2.603   5.944 -0.3530  0.2750 -0.3282
15307SOL    HW249838   4.638   2.698   5.983 -0.4821 -0.2468  0.6050
15308SOL     OW49839   4.792   4.914   6.325  0.3225  0.4110  0.1866
15308SOL    HW149840   4.714   4.880   6.368 -0.2703  1.0376 -0.3818
15308SOL    HW249841   4.771   4.910   6.232  1.4202 -0.5129 -0.0461
15309SOL     OW49842   0.117   9.923   7.330  0.5657 -0.0763  0.2175
15309SOL    HW149843   0.038   9.971   7.304  0.4870 -0.4925 -0.3190
15309SOL    HW249844   0.178   9.991   7.358  0.6514  0.3891 -1.0407
15310SOL     OW49845   4.141   0.424   5.130  0.0673 -0.5985 -0.0089
15310SOL    HW149846   4.171   0.420   5.221 -0.8837  0.2606  0.3621
15310SOL    HW249847   4.173   0.343   5.091  0.1806 -1.1537  1.1935
15311SOL     OW49848   2.916   2.246   2.451  0.7128 -0.1810 -0.7379
15311SOL    HW149849   2.915   2.217   2.360 -1.3639 -0.5685 -0.6409
15311SOL    HW249850   2.852   2.317   2.454  0.4041 -0.4910  0.5014
15312SOL     OW49851   3.864   8.365   9.004 -0.2695 -0.0033 -0.4131
15312SOL    HW149852   3.934   8.402   8.950  0.8316  1.3366  1.7836
15312SOL    HW249853   3.825   8.440   9.048 -0.0599 -1.1121  1.8167
15313SOL     OW49854   9.590   9.524   3.312 -0.0002  0.1480 -0.2420
15313SOL    HW149855   9.503   9.531   3.274 -0.0673 -2.0149 -0.6304
15313SOL    HW249856   9.605   9.430   3.320  1.9448  0.4845  0.6517
15314SOL     OW49857   9.063   7.400   5.499  0.7512  0.0225 -0.6199
15314SOL    HW149858   9.083   7.473   5.558 -0.9093  1.1106 -1.3159
15314SOL    HW249859   9.021   7.335   5.554  0.5776  0.3763 -0.3320
15315SOL     OW49860   2.325   7.564   3.135 -0.1395  0.0682  0.6877
15315SOL    HW149861   2.385   7.493   3.112 -1.0486 -0.6964  0.5827
15315SOL    HW249862   2.322   7.619   3.058  2.0581  1.3434  1.4256
15316SOL     OW49863   2.909   0.017   9.971 -0.3874  0.2660 -0.5775
15316SOL    HW149864   3.002   0.008   9.994 -0.0412 -0.6895 -2.2121
15316SOL    HW249865   2.890   0.109   9.987 -0.1028 -0.1363  2.9268
15317SOL     OW49866   5.193   3.594   6.090 -0.5948  0.3319  0.0963
15317SOL    HW149867   5.247   3.517   6.109  0.1067  0.5722 -0.8675
15317SOL    HW249868   5.226   3.662   6.149  0.4064  0.5765 -0.7193
15318SOL     OW49869   2.076   5.749   7.310 -0.5838 -0.0303  0.3032
15318SOL    HW149870   2.048   5.670   7.263 -1.4498  0.4747 -0.0575
15318SOL    HW249871   1.999   5.775   7.361 -0.3689  0.6920  0.2701
15319SOL     OW49872   4.272   6.553   8.304 -0.1295 -0.4723  0.2222
15319SOL    HW149873   4.332   6.478   8.308  0.8259  0.1816 -1.0576
15319SOL    HW249874   4.310   6.617   8.365 -0.3086 -0.5950  0.4625
15320SOL     OW49875   3.294   8.298   0.665 -0.0880 -0.5476  0.5714
15320SOL    HW149876   3.268   8.210   0.692  0.1565 -1.0060 -0.6250
15320SOL    HW249877   3.243   8.315   0.586  0.2271  0.1850  0.5213
15321SOL     OW49878   3.547   8.591   8.796  0.2620 -0.0435 -0.1290
15321SOL    HW149879   3.496   8.671   8.787 -0.2473 -0.0528  2.1538
15321SOL    HW249880   3.495   8.525   8.750  0.6198  0.8596 -1.9146
15322SOL     OW49881   6.644   7.667   4.481 -0.0138  0.0257  0.3107
15322SOL    HW149882   6.680   7.709   4.559 -0.2283 -0.7054  0.8159
15322SOL    HW249883   6.665   7.727   4.409 -1.6746  1.8003  1.2005
15323SOL     OW49884   8.928   6.742   4.818  0.0754  0.0136 -0.7656
15323SOL    HW149885   8.943   6.778   4.905 -0.0275 -0.0445 -0.7238
15323SOL    HW249886   8.876   6.810   4.773 -0.3293 -0.1854 -0.6064
15324SOL     OW49887   8.513   4.339   2.975 -0.6995  0.5327 -0.2883
15324SOL    HW149888   8.589   4.288   2.947  0.4135  0.2522  2.8295
15324SOL    HW249889   8.526   4.426   2.936  1.4331  0.5783  0.4016
15325SOL     OW49890   9.177   7.562   1.545 -0.2759  0.0458  0.7832
15325SOL    HW149891   9.207   7.615   1.472 -2.4043 -0.0703 -0.2702
15325SOL    HW249892   9.223   7.479   1.536  0.3076  0.4219  0.2285
15326SOL     OW49893   3.553   9.593  10.179 -0.3697  0.4928 -0.1736
15326SOL    HW149894   3.545   9.688  10.175 -1.5677  0.3984 -0.3311
15326SOL    HW249895   3.645   9.578  10.204  0.2471  1.6508 -1.5996
15327SOL     OW49896   8.856   3.958   9.663 -0.1772  1.1293 -0.0903
15327SOL    HW149897   8.915   4.014   9.714  0.0200  0.5068  0.3777
15327SOL    HW249898   8.799   3.917   9.729 -0.5753  1.0695 -0.4639
15328SOL     OW49899   6.695   5.536   8.377  0.0528  0.0864 -0.3477
15328SOL    HW149900   6.640   5.565   8.450  2.8369 -0.3912  2.1744
15328SOL    HW249901   6.659   5.451   8.351 -0.3560 -0.2792  1.3141
15329SOL     OW49902   6.014   9.990   7.118  0.2976 -0.1012  0.0118
15329SOL    HW149903   5.995  10.072   7.163 -1.7009  0.0161 -0.9038
15329SOL    HW249904   5.976   9.922   7.173 -0.0166 -0.1804 -0.2947
15330SOL     OW49905   0.488   5.145   4.720 -0.0382 -0.0117 -0.5570
15330SOL    HW149906   0.399   5.110   4.710  0.1097 -0.5040 -0.1725
15330SOL    HW249907   0.478   5.239   4.706 -0.6400 -0.0457 -0.4009
15331SOL     OW49908   7.664   4.634   2.404 -0.1652 -0.3529  0.0729
15331SOL    HW149909   7.729   4.580   2.359  1.3931  1.4597 -0.0319
15331SOL    HW249910   7.596   4.573   2.432  1.7653 -2.4313  0.5215
15332SOL     OW49911   9.072   9.613   1.638 -0.2658 -0.4790 -0.4759
15332SOL    HW149912   9.018   9.605   1.716  0.6989 -1.7765  0.1013
15332SOL    HW249913   9.061   9.704   1.610 -0.1172  0.1948  1.5249
15333SOL     OW49914   2.862   6.502   9.315 -0.0553  0.4732  0.0804
15333SOL    HW149915   2.878   6.407   9.312  0.7989  0.6082  0.0248
15333SOL    HW249916   2.888   6.527   9.404 -0.1520  0.6763  0.0498
15334SOL     OW49917   4.256   1.797   7.121 -0.8032 -0.4076  0.6057
15334SOL    HW149918   4.327   1.860   7.120 -0.4146 -0.7331  2.9425
15334SOL    HW249919   4.188   1.836   7.066 -0.4881  1.9155  1.7801
15335SOL     OW49920   8.287   9.460   3.541  0.0327  0.2255 -0.1460
15335SOL    HW149921   8.217   9.508   3.496 -0.5869 -0.2677  0.2686
15335SOL    HW249922   8.368   9.490   3.499 -0.2142  2.5302  0.8510
15336SOL     OW49923   8.220   0.116   3.702  0.1703  0.0802 -0.0679
15336SOL    HW149924   8.278   0.042   3.719 -0.9953 -0.8242  0.0689
15336SOL    HW249925   8.144   0.100   3.757 -0.0651  1.4474  0.0410
15337SOL     OW49926   1.880   3.573   8.848 -0.3721 -0.7282  0.3251
15337SOL    HW149927   1.793   3.569   8.808  0.6044 -2.2762 -1.8943
15337SOL    HW249928   1.922   3.646   8.803  0.5813 -2.1969 -1.3289
15338SOL     OW49929   6.713   5.574   8.086 -0.1200 -0.3684  0.6996
15338SOL    HW149930   6.629   5.602   8.123 -0.2864  1.6865 -1.0224
15338SOL    HW249931   6.777   5.592   8.155 -0.9345 -0.8801  1.6129
15339SOL     OW49932   3.980  10.024   0.939 -0.1708  0.4723  1.0503
15339SOL    HW149933   3.943  10.105   0.904  0.2149  0.6193  0.9743
15339SOL    HW249934   3.982  10.037   1.033  0.7279  0.9264  0.9843
15340SOL     OW49935   0.159   7.694   0.556 -0.4465  0.0868  0.2811
15340SOL    HW149936   0.211   7.766   0.592  1.9209 -0.8403 -1.0021
15340SOL    HW249937   0.120   7.651   0.632  1.1921  0.5039  1.4025
15341SOL     OW49938   4.731   9.649   4.992 -0.1655  0.1082  0.4171
15341SOL    HW149939   4.825   9.655   4.975 -0.3345 -0.4958 -0.8273
15341SOL    HW249940   4.715   9.557   5.009 -0.4910  0.2577  0.9418
15342SOL     OW49941   4.068   2.909   5.323 -0.0332 -0.2344 -0.3129
15342SOL    HW149942   4.004   2.839   5.336  1.1701 -1.2102  0.5636
15342SOL    HW249943   4.107   2.922   5.409 -0.1065  1.4337 -0.4869
15343SOL     OW49944   7.267   6.188   8.995  0.3720  0.1606  0.1474
15343SOL    HW149945   7.202   6.253   9.022  0.4335  0.3264 -0.0964
15343SOL    HW249946   7.292   6.214   8.906  1.5770  0.7458  0.6319
15344SOL     OW49947   2.551   1.876   1.541  0.1151 -0.1336 -0.3813
15344SOL    HW149948   2.632   1.833   1.512  0.2096  1.3425 -2.5708
15344SOL    HW249949   2.482   1.814   1.517  0.4964 -0.9637  0.5811
15345SOL     OW49950   4.640   3.041   7.058  0.5632 -0.2748  0.1499
15345SOL    HW149951   4.614   3.129   7.033 -0.8068 -1.0848 -1.4785
15345SOL    HW249952   4.645   3.043   7.154 -0.6473  1.2379  0.2174
15346SOL     OW49953   5.921   6.482   6.490 -0.2841 -0.1790 -0.0615
15346SOL    HW149954   5.950   6.396   6.460 -0.4897 -0.7083  1.2006
15346SOL    HW249955   5.976   6.501   6.565 -1.3214  0.0605  0.6495
15347SOL     OW49956   8.135   7.064   6.135 -0.2211  0.3952 -0.0829
15347SOL    HW149957   8.078   7.141   6.125 -0.4504  0.2197 -0.1563
15347SOL    HW249958   8.075   6.994   6.160 -0.0485  0.1860 -0.2530
15348SOL     OW49959   2.136   0.163   2.969  0.2216 -0.1397  0.3459
15348SOL    HW149960   2.208   0.116   3.011 -1.1165 -1.1068  1.6665
15348SOL    HW249961   2.089   0.097   2.920 -1.7620 -0.3290  2.3254
15349SOL     OW49962   2.258   6.046   4.028  0.0432 -0.3566  0.8657
15349SOL    HW149963   2.167   6.063   4.007 -0.3410 -1.8815  1.2081
15349SOL    HW249964   2.292   5.998   3.953  0.5369  0.0716  0.8061
15350SOL     OW49965   0.046   5.479   6.989 -0.3519 -0.2285 -0.4739
15350SOL    HW149966   0.127   5.442   7.025 -0.0119  0.1749 -0.8122
15350SOL    HW249967  -0.024   5.436   7.038  0.1019  0.5466  0.9285
15351SOL     OW49968   3.721   7.350   5.967  0.2900  0.6672 -0.0791
15351SOL    HW149969   3.790   7.347   5.901 -0.2117 -1.3138 -0.5922
15351SOL    HW249970   3.767   7.354   6.050  1.3226 -3.7044 -0.1805
15352SOL     OW49971   4.921   6.086   3.182 -0.0702 -0.1139 -0.1644
15352SOL    HW149972   4.935   6.175   3.148  0.6388  0.1041  0.6680
15352SOL    HW249973   4.894   6.035   3.105 -1.5004  1.0374 -0.4507
15353SOL     OW49974   3.333   6.975   3.852  0.1064  0.3500 -0.4402
15353SOL    HW149975   3.277   7.048   3.826  0.6746  1.0891  0.3471
15353SOL    HW249976   3.420   7.014   3.861 -0.1265  0.3949  3.2623
15354SOL     OW49977   9.217   6.163   4.035  0.0220 -0.0031  0.1768
15354SOL    HW149978   9.292   6.104   4.044  0.2111  0.4237  1.6913
15354SOL    HW249979   9.250   6.235   3.981  0.7634  0.2360  0.9209
15355SOL     OW49980   3.672   9.750   1.338  0.0978  0.1141 -0.6923
15355SOL    HW149981   3.716   9.835   1.347  0.1650  0.0621 -0.5057
15355SOL    HW249982   3.744   9.687   1.325  0.2193 -0.1961  1.2174
15356SOL     OW49983   5.003   2.988   7.391  0.4591 -0.2673  0.1367
15356SOL    HW149984   4.923   3.029   7.360  0.4312 -1.2866 -1.2459
15356SOL    HW249985   5.072   3.051   7.370  0.1808  0.0070  0.0365
15357SOL     OW49986   3.390   9.139   9.754 -0.0144  0.1726 -0.6385
15357SOL    HW149987   3.346   9.056   9.769  2.1494 -1.2981 -1.8793
15357SOL    HW249988   3.325   9.194   9.710 -1.1892 -1.1836 -0.6324
15358SOL     OW49989   6.583   1.522   7.892  0.3284 -0.3445  0.3785
15358SOL    HW149990   6.597   1.427   7.892  2.9786 -0.0759 -1.8560
15358SOL    HW249991   6.579   1.545   7.985 -1.2951 -2.7044  0.9818
15359SOL     OW49992   1.508   9.832   4.552  0.2461  0.2299 -0.9206
15359SOL    HW149993   1.576   9.769   4.526 -0.8792 -1.4868  0.0925
15359SOL    HW249994   1.451   9.839   4.475  1.4720  1.6080 -1.7433
15360SOL     OW49995   8.897   4.970   6.450  0.4191 -0.6520  0.3028
15360SOL    HW149996   8.940   5.017   6.522 -1.0575  0.1228  0.7286
15360SOL    HW249997   8.947   4.995   6.372  1.6883 -1.0342  0.9620
15361SOL     OW49998   7.038   5.120   6.552 -0.5598 -0.0004 -0.9079
15361SOL    HW149999   7.080   5.039   6.523 -0.3618  0.4206 -1.8413
15361SOL    HW250000   7.084   5.144   6.632 -0.2972 -0.5516 -0.8900
15362SOL     OW50001   2.433   0.628   6.353 -0.3050 -0.8765 -0.1467
15362SOL    HW150002   2.450   0.629   6.447  1.2559  4.6501 -0.1498
15362SOL    HW250003   2.341   0.651   6.344 -0.3511 -1.0018  0.0121
15363SOL     OW50004   9.924   8.433   0.137  0.1609 -0.5531  0.5710
15363SOL    HW150005   9.918   8.370   0.208  0.9908  0.1608  1.2886
15363SOL    HW250006   9.833   8.448   0.110 -0.0483 -1.9851  0.4378
15364SOL     OW50007   9.414   0.387   9.749 -0.0221  0.7017 -0.7552
15364SOL    HW150008   9.387   0.383   9.657 -1.8376  1.0305 -0.2647
15364SOL    HW250009   9.398   0.299   9.782 -1.1737  1.0814 -0.2838
15365SOL     OW50010   1.977   6.111   1.982  0.0751 -0.2660 -0.2804
15365SOL    HW150011   2.024   6.075   2.057 -1.8504  0.6673  1.4792
15365SOL    HW250012   2.035   6.179   1.948  0.9776 -0.6990  0.3499
15366SOL     OW50013   7.492   4.011   2.774 -0.0078  0.0604  0.1839
15366SOL    HW150014   7.489   4.034   2.867  0.2135  0.7660  0.0147
15366SOL    HW250015   7.460   3.920   2.772  0.4435 -0.1297  1.0006
15367SOL     OW50016   9.083   3.512   1.420  0.3283 -0.3105  0.2654
15367SOL    HW150017   9.024   3.588   1.417 -0.0836 -0.6537 -1.2645
15367SOL    HW250018   9.035   3.447   1.471 -1.2280 -1.0111 -1.9370
15368SOL     OW50019   1.673   2.785  10.178  0.2189  0.1361  0.3344
15368SOL    HW150020   1.673   2.862  10.236 -0.2230  1.6014 -1.5249
15368SOL    HW250021   1.622   2.719  10.225  2.0753  0.2894  2.7814
15369SOL     OW50022   2.446   4.527   8.927 -0.0199  0.0978 -0.8164
15369SOL    HW150023   2.510   4.475   8.878 -1.1836 -0.4765 -1.7821
15369SOL    HW250024   2.498   4.597   8.968  1.6476 -1.8765  0.6963
15370SOL     OW50025   7.192   8.100   6.387  0.6302  0.7132  0.0136
15370SOL    HW150026   7.162   8.189   6.403 -0.0870  0.8862 -2.0124
15370SOL    HW250027   7.278   8.110   6.347  0.3297  0.5347 -0.6938
15371SOL     OW50028   3.213   7.863   2.073 -0.4434 -0.6342 -0.1177
15371SOL    HW150029   3.265   7.942   2.063  1.7887 -1.8349  1.3510
15371SOL    HW250030   3.241   7.806   2.001  0.6030 -1.4242  0.8866
15372SOL     OW50031   6.567   1.639   4.066  0.1628 -0.0720 -0.3300
15372SOL    HW150032   6.625   1.712   4.044  0.7235 -0.2105  0.6666
15372SOL    HW250033   6.547   1.651   4.159 -1.6888  0.1675 -0.7166
15373SOL     OW50034   6.407   3.132   4.721  0.4472  0.3226  0.0280
15373SOL    HW150035   6.483   3.104   4.671 -0.7850 -2.3522 -0.5190
15373SOL    HW250036   6.438   3.135   4.812  0.8570 -2.6318  0.0924
15374SOL     OW50037   1.911   8.253   9.739 -0.3829 -0.1602 -0.3260
15374SOL    HW150038   1.958   8.173   9.760 -2.9230 -1.9546 -0.9926
15374SOL    HW250039   1.858   8.271   9.817 -1.8123 -0.7112 -1.1373
15375SOL     OW50040   7.800   9.562   0.667 -0.3961  0.1200  0.5538
15375SOL    HW150041   7.818   9.652   0.640  0.7506 -0.1206  0.4770
15375SOL    HW250042   7.870   9.540   0.728 -0.4576 -0.8395  0.2987
15376SOL     OW50043   5.017   2.005   8.525  0.6325  0.5356 -0.2288
15376SOL    HW150044   4.947   1.941   8.529 -1.0528  2.1161  5.4372
15376SOL    HW250045   5.091   1.962   8.568  1.1871  0.7778 -0.9260
15377SOL     OW50046   2.251   7.741   4.604  0.1855 -0.0965  0.8386
15377SOL    HW150047   2.275   7.776   4.518  1.1843  0.0027  1.1388
15377SOL    HW250048   2.159   7.766   4.615  0.3153  0.7179  0.2082
15378SOL     OW50049   4.372   7.899   5.045 -0.0279 -0.1769  0.0649
15378SOL    HW150050   4.390   7.922   4.953  2.0633  2.9007  1.0640
15378SOL    HW250051   4.435   7.830   5.065 -1.4286 -1.8691 -1.0935
15379SOL     OW50052   6.567   7.690   9.144  0.3060 -0.1566  0.2501
15379SOL    HW150053   6.640   7.682   9.083 -0.6496  0.7449 -1.0930
15379SOL    HW250054   6.499   7.735   9.093 -0.2067  1.5235  2.2802
15380SOL     OW50055   2.835   9.852   5.842 -0.1356  0.4242  0.1308
15380SOL    HW150056   2.829   9.762   5.873  0.5624  0.9782  2.0824
15380SOL    HW250057   2.929   9.870   5.841 -0.1118  0.4782 -2.4266
15381SOL     OW50058   9.477   3.643   4.963 -0.2905  0.3922  0.6474
15381SOL    HW150059   9.530   3.699   4.907 -0.1287  0.8895  1.2852
15381SOL    HW250060   9.540   3.594   5.015 -0.4425  0.6037  1.0376
15382SOL     OW50061   3.466   0.938   8.857 -0.4218 -0.2873 -0.4412
15382SOL    HW150062   3.478   1.030   8.882  0.4026 -0.3116 -0.6958
15382SOL    HW250063   3.474   0.889   8.939 -0.2639 -0.1728 -0.3870
15383SOL     OW50064   9.988   6.164   4.395  0.2275 -0.3479 -0.2036
15383SOL    HW150065   9.931   6.088   4.384 -1.2252  0.7851 -0.8677
15383SOL    HW250066   9.957   6.206   4.475  1.1905 -0.5741  0.3013
15384SOL     OW50067   0.486   8.098   6.079  0.2208 -0.5089  0.5129
15384SOL    HW150068   0.484   8.185   6.120  1.7476  0.4682 -1.3594
15384SOL    HW250069   0.419   8.103   6.010  1.1072 -0.4040 -0.3518
15385SOL     OW50070   4.787   9.487   9.240 -0.0662 -0.5361  0.3582
15385SOL    HW150071   4.879   9.472   9.261 -0.1263 -0.1365  0.9206
15385SOL    HW250072   4.771   9.433   9.162  0.8885  0.1515 -0.3372
15386SOL     OW50073   1.827   0.942   8.056  0.5113 -0.0655 -0.1367
15386SOL    HW150074   1.901   0.966   8.000  0.8046 -1.4676 -0.3947
15386SOL    HW250075   1.762   1.009   8.039  1.6929  1.1728  0.0480
15387SOL     OW50076   6.723   2.050   6.127  0.4480 -0.4304  0.0413
15387SOL    HW150077   6.779   2.118   6.092  0.9271 -0.9771 -0.2741
15387SOL    HW250078   6.741   2.049   6.221  0.4869 -0.1718  0.0350
15388SOL     OW50079   6.461   0.899   9.427  0.2247 -0.3441 -0.1048
15388SOL    HW150080   6.528   0.837   9.456  0.5076  0.3873  0.8582
15388SOL    HW250081   6.501   0.985   9.437 -1.5895  0.3099  2.8384
15389SOL     OW50082   4.429   1.129   6.980 -0.2819  0.3335  0.2965
15389SOL    HW150083   4.466   1.177   6.906  1.0985  2.2772  2.1132
15389SOL    HW250084   4.338   1.158   6.985 -0.2232  0.6361 -0.2920
15390SOL     OW50085   9.387   3.874   2.032 -0.2018  0.4384 -0.3669
15390SOL    HW150086   9.334   3.916   1.964  0.2767  1.9861  0.1908
15390SOL    HW250087   9.412   3.945   2.092  1.6807 -0.3929 -0.0722
15391SOL     OW50088   9.012   9.269   9.568 -0.1772 -0.1192  0.3286
15391SOL    HW150089   9.019   9.345   9.511  1.3954 -0.4321  0.0770
15391SOL    HW250090   9.081   9.210   9.539 -2.1437 -2.2514 -0.3199
15392SOL     OW50091   1.855   3.212   0.474 -0.3139  0.5146 -0.1599
15392SOL    HW150092   1.871   3.296   0.432 -1.3421  0.2634 -1.1196
15392SOL    HW250093   1.930   3.158   0.450  1.1612  1.5886  1.7796
15393SOL     OW50094   2.635   8.195   7.646  0.1694  0.4781  0.0591
15393SOL    HW150095   2.726   8.174   7.667 -0.3082 -0.3860  1.3656
15393SOL    HW250096   2.636   8.210   7.551  1.6220  0.2481  0.0068
15394SOL     OW50097   1.196   4.837   7.196  0.0385  0.6855 -0.3188
15394SOL    HW150098   1.150   4.789   7.127 -1.7944  2.1229 -0.1780
15394SOL    HW250099   1.283   4.798   7.198 -0.8207 -1.4346 -1.3518
15395SOL     OW50100   5.843   0.892   5.294 -0.4354 -0.0267 -0.0867
15395SOL    HW150101   5.911   0.877   5.361  0.3304  2.0019 -0.3432
15395SOL    HW250102   5.760   0.879   5.341  0.0785  1.6021  1.3717
15396SOL     OW50103   0.219   6.495   8.268  0.1641  0.0312 -0.5261
15396SOL    HW150104   0.257   6.439   8.201  0.7324 -1.3731  0.9063
15396SOL    HW250105   0.293   6.520   8.323 -0.5559 -0.4379  0.6921
15397SOL     OW50106   2.612   6.455   8.757 -0.0669 -0.2306 -0.4115
15397SOL    HW150107   2.593   6.365   8.729 -1.9572  0.2280 -0.6902
15397SOL    HW250108   2.703   6.451   8.787 -0.5083 -2.5473  0.8426
15398SOL     OW50109   1.609   8.793   9.218 -0.5299 -0.6774  0.1028
15398SOL    HW150110   1.573   8.713   9.257 -0.4231 -0.6052  0.3501
15398SOL    HW250111   1.542   8.822   9.157 -1.0638 -0.3210  0.8542
15399SOL     OW50112   3.627   6.141   9.635 -0.3962  0.5196  0.2371
15399SOL    HW150113   3.598   6.105   9.718 -0.5854 -0.2025 -0.1360
15399SOL    HW250114   3.558   6.201   9.608  0.1392  1.5438  1.0904
15400SOL     OW50115   4.514   9.696   3.241 -0.5463 -0.2576 -0.1351
15400SOL    HW150116   4.556   9.774   3.276 -0.3024  0.4790 -1.9977
15400SOL    HW250117   4.586   9.642   3.208 -0.8072 -0.6888 -0.0192
15401SOL     OW50118   6.471   5.922   1.478 -0.1103 -0.2793 -0.1142
15401SOL    HW150119   6.436   5.922   1.389 -0.6649 -2.1311  0.0587
15401SOL    HW250120   6.524   5.843   1.483 -1.0492 -0.8609  1.5424
15402SOL     OW50121   3.163   0.560   5.328  0.2186 -0.1641 -0.2544
15402SOL    HW150122   3.077   0.601   5.317 -0.1249 -1.0155 -0.8994
15402SOL    HW250123   3.195   0.593   5.412  0.1126  1.6602 -0.8826
15403SOL     OW50124   5.919   4.553   4.075 -0.0462 -0.3065 -0.1236
15403SOL    HW150125   5.964   4.517   3.998 -0.2213  0.1577 -0.4474
15403SOL    HW250126   5.988   4.560   4.141  0.0590 -0.9273 -0.1553
15404SOL     OW50127   5.397   3.018   9.299  0.3867  0.3797 -0.3786
15404SOL    HW150128   5.326   3.073   9.265  0.0621 -0.1462 -0.5711
15404SOL    HW250129   5.371   2.999   9.389 -0.4610 -0.9910 -0.8784
15405SOL     OW50130   5.322  10.089   1.719 -0.7195 -0.0624 -0.0440
15405SOL    HW150131   5.250  10.060   1.663 -1.7524  1.4469  0.4406
15405SOL    HW250132   5.396  10.033   1.694 -1.7123 -0.8085 -1.4384
15406SOL     OW50133   6.638   1.816   3.676 -0.2051  0.1257 -0.3257
15406SOL    HW150134   6.674   1.733   3.644  0.5779  0.3872 -0.1432
15406SOL    HW250135   6.656   1.816   3.770  3.1513  2.0797 -0.8196
15407SOL     OW50136   6.177   1.669   0.111 -0.3386 -0.1518  0.3966
15407SOL    HW150137   6.094   1.649   0.155 -1.5466 -0.0953 -1.6852
15407SOL    HW250138   6.184   1.602   0.043  1.1298  0.1104  0.2642
15408SOL     OW50139   8.537   9.133   9.525  0.2056 -0.4192  0.5643
15408SOL    HW150140   8.550   9.110   9.433 -0.3733 -0.7598  0.5601
15408SOL    HW250141   8.449   9.171   9.527 -0.8993 -2.8272  1.3892
15409SOL     OW50142   2.773   0.838   3.759  0.4058  1.3611  0.1685
15409SOL    HW150143   2.830   0.761   3.763 -1.1216  0.2163  0.8823
15409SOL    HW250144   2.829   0.911   3.784  1.6253  0.3245  0.5612
15410SOL     OW50145   8.018   4.102   5.674 -0.3166 -0.0319  0.2474
15410SOL    HW150146   8.062   4.081   5.757  0.7845  1.2681  0.0251
15410SOL    HW250147   7.955   4.170   5.697 -0.4695 -0.1254  0.1109
15411SOL     OW50148   7.746   7.018   2.141 -0.8056  0.3107 -0.2066
15411SOL    HW150149   7.800   7.075   2.087  0.0659  0.1080  0.4163
15411SOL    HW250150   7.680   7.075   2.179 -0.4516  0.7550 -0.2481
15412SOL     OW50151   5.118   6.712   8.964 -0.1334  0.0646  0.2321
15412SOL    HW150152   5.156   6.752   9.043  0.8351 -0.0275 -0.1794
15412SOL    HW250153   5.171   6.634   8.948  0.0723  0.4125 -0.8604
15413SOL     OW50154   6.763   7.897   7.231  0.9507  0.2244  0.4895
15413SOL    HW150155   6.795   7.833   7.295 -1.3697 -1.6867 -0.1510
15413SOL    HW250156   6.675   7.919   7.261  0.2292  0.1053 -1.4405
15414SOL     OW50157   1.660   5.450   7.246  0.0198  0.0927 -0.1497
15414SOL    HW150158   1.755   5.466   7.241  0.1788  0.5865  2.6776
15414SOL    HW250159   1.647   5.411   7.332 -2.5908  2.1918  0.5415
15415SOL     OW50160   1.117   1.603   3.016 -0.2142  0.3598  0.3490
15415SOL    HW150161   1.075   1.636   2.937  2.1682  1.8489 -0.3802
15415SOL    HW250162   1.189   1.549   2.985 -1.0153 -1.4851  1.5585
15416SOL     OW50163   5.467   5.082   2.775  1.0147  0.2860 -0.1475
15416SOL    HW150164   5.475   5.167   2.819 -0.8731  0.6631 -0.4485
15416SOL    HW250165   5.373   5.066   2.773  1.2846 -1.2683 -1.1556
15417SOL     OW50166   9.984   8.386   8.319  0.6954 -0.5532  0.3538
15417SOL    HW150167   9.910   8.400   8.260  0.5337 -2.2223  0.0919
15417SOL    HW250168  10.036   8.466   8.313 -0.1469 -0.0667 -0.8396
15418SOL     OW50169   9.771   6.120   5.518  0.1348  0.4075 -0.1181
15418SOL    HW150170   9.741   6.211   5.519 -0.2451  0.2868  1.1610
15418SOL    HW250171   9.808   6.108   5.430 -1.6459  1.1838 -1.0206
15419SOL     OW50172   6.184   0.410   2.622  0.1029 -0.2507 -0.2244
15419SOL    HW150173   6.159   0.319   2.607  0.4451 -0.2415 -0.8787
15419SOL    HW250174   6.266   0.404   2.672 -0.6110 -0.2847  0.9801
15420SOL     OW50175   5.062   9.283   3.837 -0.2787  0.2608 -0.1702
15420SOL    HW150176   5.077   9.234   3.756  0.1109 -0.0416  0.0800
15420SOL    HW250177   5.147   9.285   3.880 -0.4256  0.6540  0.1025
15421SOL     OW50178   4.740   5.149   8.805 -0.0031  0.0905  0.4704
15421SOL    HW150179   4.773   5.225   8.853  0.3744 -0.4627  1.1137
15421SOL    HW250180   4.744   5.078   8.869 -2.8606  0.0643  0.7388
15422SOL     OW50181   1.514   4.826   8.758  0.1449  0.5486 -0.2814
15422SOL    HW150182   1.494   4.918   8.742  0.0590  0.4641 -0.6782
15422SOL    HW250183   1.430   4.787   8.784 -0.0087  0.3967 -0.9935
15423SOL     OW50184   0.931   3.378   6.984 -0.3470 -0.6702  0.1761
15423SOL    HW150185   0.993   3.410   6.920 -0.5583 -1.6179 -0.5318
15423SOL    HW250186   0.968   3.295   7.015  0.0394  0.0447  1.7248
15424SOL     OW50187   6.583   2.315   5.998 -0.3013 -0.4206 -0.1293
15424SOL    HW150188   6.592   2.292   6.090  0.0078 -1.4606 -0.4049
15424SOL    HW250189   6.499   2.360   5.992  0.3319  0.9431  0.8950
15425SOL     OW50190   0.424   1.646   6.420 -0.4003 -0.1945 -0.5769
15425SOL    HW150191   0.339   1.669   6.458 -0.4062 -0.1728 -0.6037
15425SOL    HW250192   0.488   1.680   6.483 -0.4014  0.1782 -0.7715
15426SOL     OW50193   7.562   3.752   9.959  0.4741 -0.4484 -0.1530
15426SOL    HW150194   7.528   3.801  10.034  0.3364 -0.3111 -0.3063
15426SOL    HW250195   7.614   3.681   9.999  1.6702  0.5048  0.0624
15427SOL     OW50196   0.490   9.970   5.000  0.5552 -0.7247 -0.3404
15427SOL    HW150197   0.571  10.001   5.041  1.6748 -0.9140 -2.2961
15427SOL    HW250198   0.499   9.993   4.908 -2.0724  0.1083 -0.4641
15428SOL     OW50199   1.460   7.340   5.394 -0.4811  0.3801 -0.4974
15428SOL    HW150200   1.475   7.343   5.488 -1.4894  0.2268 -0.3231
15428SOL    HW250201   1.548   7.333   5.356 -0.0697  0.3892  0.4258
15429SOL     OW50202   5.799   9.769   6.401  0.3250  0.4742 -0.1086
15429SOL    HW150203   5.825   9.835   6.465  0.2394  0.3742  0.0308
15429SOL    HW250204   5.782   9.819   6.321  0.5830  0.5813 -0.0969
15430SOL     OW50205   6.496   3.470   6.196  0.1929 -0.3419  0.0111
15430SOL    HW150206   6.498   3.376   6.177 -0.5657 -0.5494  0.9154
15430SOL    HW250207   6.439   3.478   6.272 -1.1672  1.0281 -1.0818
15431SOL     OW50208   5.394   2.764   2.261  0.7532 -0.5332 -0.4514
15431SOL    HW150209   5.350   2.679   2.269 -2.0358  0.7214 -1.0896
15431SOL    HW250210   5.322   2.827   2.255  2.7101  1.9291  0.3038
15432SOL     OW50211   1.379   7.845   3.730  0.2782  0.2243  0.0584
15432SOL    HW150212   1.311   7.911   3.747 -0.4673 -0.2616 -0.9320
15432SOL    HW250213   1.461   7.892   3.743 -0.2446  1.0560  0.4524
15433SOL     OW50214   1.226   0.027   5.041 -0.3733  0.2261 -0.0109
15433SOL    HW150215   1.318   0.017   5.017 -0.4191 -2.4423  0.6143
15433SOL    HW250216   1.225   0.024   5.137 -1.0279  1.3705  0.0331
15434SOL     OW50217   6.613   4.165   5.048  0.3151  0.2275 -0.1673
15434SOL    HW150218   6.686   4.177   4.987  1.9159  1.6302  1.8762
15434SOL    HW250219   6.649   4.190   5.133 -2.4913  0.6821  0.9855
15435SOL     OW50220   4.941   6.290   5.455  0.1267  0.1425  0.1898
15435SOL    HW150221   4.954   6.362   5.394  3.1679 -1.6265 -1.5096
15435SOL    HW250222   4.934   6.212   5.399  0.1954 -1.2522  2.0247
15436SOL     OW50223   7.651   4.992   9.044  0.3882 -0.0700  0.1732
15436SOL    HW150224   7.601   4.971   8.965 -0.1579 -0.8035  0.6955
15436SOL    HW250225   7.585   5.015   9.109  0.8267  0.4457  0.4374
15437SOL     OW50226   0.348   1.858   1.478 -0.0733 -0.2294  0.1726
15437SOL    HW150227   0.326   1.913   1.554 -0.0436 -0.2669  0.2080
15437SOL    HW250228   0.442   1.869   1.467 -0.1669  0.2272 -0.2094
15438SOL     OW50229   6.300   6.055   1.632 -0.2536 -0.2901  0.2896
15438SOL    HW150230   6.268   6.036   1.720 -3.2171 -2.7915 -1.0881
15438SOL    HW250231   6.370   5.992   1.618 -0.8387 -0.9690  0.3607
15439SOL     OW50232   5.933   3.980   9.572 -0.3186  1.1383  0.4735
15439SOL    HW150233   5.923   4.069   9.607 -1.4143  1.2122 -0.0106
15439SOL    HW250234   5.995   3.938   9.632 -0.8869  1.7808  1.5438
15440SOL     OW50235   0.331   5.312   4.429  0.4150 -0.2215 -0.2632
15440SOL    HW150236   0.333   5.343   4.519  1.1992  1.4049 -0.8039
15440SOL    HW250237   0.258   5.250   4.426 -0.1903  0.3894  1.2577
15441SOL     OW50238   8.997   2.166   8.878 -0.1959 -0.3167  0.2007
15441SOL    HW150239   9.076   2.142   8.828 -1.4842 -1.0482 -1.5831
15441SOL    HW250240   9.019   2.250   8.917  1.3942 -0.3789 -0.4520
15442SOL     OW50241   8.134   6.440   7.720  0.2391  0.1585 -0.0430
15442SOL    HW150242   8.074   6.512   7.697 -0.3126 -0.6384 -1.1622
15442SOL    HW250243   8.124   6.430   7.815 -1.7723 -0.2528 -0.2617
15443SOL     OW50244  10.086   1.043   2.927 -0.0303 -0.3518  0.1677
15443SOL    HW150245  10.029   0.967   2.925 -1.2484  0.5077  0.6327
15443SOL    HW250246  10.105   1.056   3.020  0.7936 -0.5285  0.0289
15444SOL     OW50247   5.840   9.343   3.819 -0.2538  0.1728 -0.1822
15444SOL    HW150248   5.836   9.308   3.908  0.8758 -0.4311 -0.3410
15444SOL    HW250249   5.910   9.408   3.822 -2.1848  2.3490  0.0483
15445SOL     OW50250   7.520   4.503   8.346  0.0970 -0.7359  0.0453
15445SOL    HW150251   7.466   4.511   8.267  1.8846  0.6794 -1.1141
15445SOL    HW250252   7.598   4.555   8.328  1.6278 -2.2145  1.8768
15446SOL     OW50253   4.272   7.635   5.021 -0.4073 -0.2031  0.7239
15446SOL    HW150254   4.281   7.641   5.116 -2.8616  1.1474  0.9507
15446SOL    HW250255   4.238   7.721   4.995 -0.1083 -0.6537 -1.3551
15447SOL     OW50256   8.313   9.702   5.790 -0.0890 -0.8404 -0.0993
15447SOL    HW150257   8.376   9.649   5.742  1.2400 -0.9220  1.6300
15447SOL    HW250258   8.366   9.766   5.838 -1.6200  2.2249 -2.1534
15448SOL     OW50259   4.904   4.183   4.260  0.1986  0.5109  0.3742
15448SOL    HW150260   4.840   4.162   4.328  0.7009  1.2827  1.0997
15448SOL    HW250261   4.938   4.269   4.284  1.7243 -0.0042  0.1803
15449SOL     OW50262   5.748   3.886   7.654 -0.5866 -0.9770 -0.0642
15449SOL    HW150263   5.701   3.951   7.707  1.5679  0.0423  0.6976
15449SOL    HW250264   5.837   3.886   7.688 -0.0277 -2.9909 -1.3145
15450SOL     OW50265   8.682   3.222   1.051  0.4755  0.4028 -0.5224
15450SOL    HW150266   8.766   3.185   1.078 -0.3356 -1.3687 -0.2944
15450SOL    HW250267   8.626   3.146   1.034 -1.3190  1.5317  0.0319
15451SOL     OW50268   2.331   0.590   5.230  0.3159  0.2912  0.6028
15451SOL    HW150269   2.313   0.529   5.158  0.7126  1.4245 -0.5010
15451SOL    HW250270   2.427   0.593   5.235  0.4466  2.8521 -1.2549
15452SOL     OW50271   6.909   8.886   2.980 -0.4025  0.2937  0.2896
15452SOL    HW150272   6.989   8.919   2.940 -0.6334 -0.5825 -0.9676
15452SOL    HW250273   6.838   8.928   2.932 -0.6919 -0.1856  0.2863
15453SOL     OW50274   2.423   5.739   3.125  0.1030  0.9529  0.0850
15453SOL    HW150275   2.507   5.717   3.085 -0.0927  0.1482  0.0926
15453SOL    HW250276   2.446   5.779   3.209  0.4768 -0.6821  0.7914
15454SOL     OW50277   3.059   9.594   5.519 -0.3165 -0.1961 -0.4035
15454SOL    HW150278   3.150   9.578   5.492  0.0305  1.2061 -0.1766
15454SOL    HW250279   3.059   9.575   5.613 -0.0739  0.4300 -0.2679
15455SOL     OW50280   1.927   1.928   5.771 -0.3545 -0.4860  0.4555
15455SOL    HW150281   1.898   1.938   5.862  0.2643 -1.2517  0.7464
15455SOL    HW250282   2.018   1.960   5.771 -1.7882  4.4878 -0.9956
15456SOL     OW50283   7.103   4.578   7.869  0.1241  0.0915  0.1183
15456SOL    HW150284   7.162   4.594   7.795 -0.0844 -0.6909 -0.2346
15456SOL    HW250285   7.045   4.654   7.870 -0.5566 -0.3595 -1.2168
15457SOL     OW50286   6.262   9.789   6.036  0.4616  0.1804 -0.0920
15457SOL    HW150287   6.214   9.822   6.111 -1.8023 -0.3073 -1.2498
15457SOL    HW250288   6.276   9.696   6.054 -0.3334 -0.0012 -0.3631
15458SOL     OW50289   9.068   7.836   5.723 -0.4968  0.3862  0.0028
15458SOL    HW150290   9.042   7.859   5.634  1.3223  2.2375 -0.1296
15458SOL    HW250291   9.116   7.913   5.755  0.0643 -0.7465  2.1011
15459SOL     OW50292   5.607   6.033   5.043 -0.4592 -0.6846 -0.1896
15459SOL    HW150293   5.588   6.125   5.021 -0.0971 -0.2929  1.0490
15459SOL    HW250294   5.702   6.030   5.053 -0.5869 -0.8728  1.0790
15460SOL     OW50295   7.596   3.519   5.428  0.2046 -0.1916 -0.3459
15460SOL    HW150296   7.510   3.476   5.423  0.3863 -0.4244 -2.0184
15460SOL    HW250297   7.612   3.529   5.522 -1.0316 -1.3897  0.0350
15461SOL     OW50298   8.145   6.465   6.458 -0.2493  0.6196 -0.4067
15461SOL    HW150299   8.107   6.549   6.483 -0.6126  0.6416 -1.0145
15461SOL    HW250300   8.235   6.486   6.433  0.2394  0.5477  1.1695
15462SOL     OW50301   4.403   6.276   8.308  0.5695 -0.1109 -0.0979
15462SOL    HW150302   4.436   6.288   8.397  1.3306 -0.4017 -0.3328
15462SOL    HW250303   4.481   6.258   8.256  0.0204 -0.9742 -0.6416
15463SOL     OW50304   8.434   2.972   2.470 -0.3258 -0.6462 -0.5010
15463SOL    HW150305   8.486   3.001   2.394  0.9071 -0.8656  0.2347
15463SOL    HW250306   8.499   2.944   2.534 -1.2947  0.7576  1.1590
15464SOL     OW50307   5.412   2.994   2.679 -0.4728 -0.4848  0.3932
15464SOL    HW150308   5.361   2.947   2.745  3.0218 -2.2202  2.1431
15464SOL    HW250309   5.471   2.929   2.643  3.2405  2.0021  1.4400
15465SOL     OW50310   0.370   6.283   0.800  0.2499  0.2606 -0.0991
15465SOL    HW150311   0.410   6.196   0.798 -1.1057 -0.4551  1.4418
15465SOL    HW250312   0.281   6.267   0.832  0.2440  2.3131  1.0397
15466SOL     OW50313   2.614   8.187   1.287  0.1118  0.3497 -0.4098
15466SOL    HW150314   2.651   8.121   1.344 -0.9600  0.0818  0.0046
15466SOL    HW250315   2.661   8.177   1.204  1.9568  0.9984  0.5054
15467SOL     OW50316   1.321   8.208   5.518  0.2035 -0.5925 -0.5961
15467SOL    HW150317   1.350   8.137   5.575  0.3014 -1.6312 -1.8933
15467SOL    HW250318   1.281   8.272   5.577  1.1517 -1.1773  0.7333
15468SOL     OW50319   1.097   2.679   2.113 -0.1211  1.1226 -0.2078
15468SOL    HW150320   1.092   2.625   2.034  1.0041 -0.0279  0.4719
15468SOL    HW250321   1.105   2.768   2.080  1.8852  0.5409 -1.4499
15469SOL     OW50322   5.816   7.934   5.791  0.0045  0.1857  0.5626
15469SOL    HW150323   5.782   7.917   5.703  0.9627  1.5533 -0.1053
15469SOL    HW250324   5.774   8.015   5.819 -0.4767 -0.3633  1.4876
15470SOL     OW50325   3.747   4.036   0.018 -0.1865  0.5705  0.2137
15470SOL    HW150326   3.717   3.964  -0.039  1.8330  0.5127 -0.8723
15470SOL    HW250327   3.842   4.027   0.018  0.1362  3.3060 -0.0178
15471SOL     OW50328   0.989   9.016   0.704 -0.1703  0.6958 -0.4664
15471SOL    HW150329   0.957   8.957   0.636 -2.8800  1.8362 -0.3383
15471SOL    HW250330   0.924   9.087   0.707 -0.5649  0.4425  3.6045
15472SOL     OW50331   8.296   1.191   2.836 -0.2915 -0.4684  0.2567
15472SOL    HW150332   8.303   1.273   2.886  0.6215  0.6011 -1.5231
15472SOL    HW250333   8.386   1.161   2.826 -0.6196 -1.6897  0.8519
15473SOL     OW50334   5.843   0.302   5.973 -0.7565 -0.0689  0.0726
15473SOL    HW150335   5.923   0.347   5.946 -0.7148 -1.5911 -2.5972
15473SOL    HW250336   5.872   0.238   6.037 -0.4728  1.8241  1.9835
15474SOL     OW50337   6.060   0.927   1.265  0.2552  0.4908  0.3216
15474SOL    HW150338   6.043   0.982   1.188 -0.1711 -1.6231 -1.1803
15474SOL    HW250339   5.981   0.874   1.275 -0.4210  1.8722  3.3312
15475SOL     OW50340   8.542   5.397   9.507  0.0791  0.2234 -0.2184
15475SOL    HW150341   8.548   5.386   9.602 -3.5845 -1.0882  0.0325
15475SOL    HW250342   8.473   5.463   9.495 -1.8319 -1.9007 -1.8545
15476SOL     OW50343   6.678   2.792   7.935  0.1108  0.1073 -0.1667
15476SOL    HW150344   6.707   2.883   7.935 -2.6422  1.1208 -1.5290
15476SOL    HW250345   6.594   2.794   7.888 -1.3388 -2.7152  1.9908
15477SOL     OW50346   3.733   8.566   3.513  0.6765  0.0215 -0.1875
15477SOL    HW150347   3.714   8.618   3.435 -0.2394  0.0836  0.0766
15477SOL    HW250348   3.654   8.514   3.528  0.7423  0.2048  0.8517
15478SOL     OW50349   7.640   2.598   0.023  0.3836 -0.5044  0.2575
15478SOL    HW150350   7.710   2.639  -0.028  1.7214 -0.4470  2.0802
15478SOL    HW250351   7.679   2.518   0.057  0.3862  0.6061  3.1559
15479SOL     OW50352   6.783   8.728   7.820  0.2949  0.7082  0.2785
15479SOL    HW150353   6.720   8.713   7.750  0.4230  0.8097  0.1395
15479SOL    HW250354   6.776   8.821   7.839  2.0389  1.2249 -1.3459
15480SOL     OW50355   2.715   0.736   8.578 -0.2332  0.7673 -0.1267
15480SOL    HW150356   2.643   0.679   8.605  0.1465  0.2686 -0.1523
15480SOL    HW250357   2.793   0.680   8.584  0.3942  1.7527  1.5086
15481SOL     OW50358   3.455   0.920   0.691  0.4641  0.0777 -1.0713
15481SOL    HW150359   3.547   0.895   0.697  0.1965 -0.6479  0.6062
15481SOL    HW250360   3.424   0.879   0.610  1.4363 -0.2841 -1.2692
15482SOL     OW50361   4.306   5.771   8.372  0.2501 -0.3632 -0.2048
15482SOL    HW150362   4.328   5.814   8.290 -0.2548  1.8171  0.7446
15482SOL    HW250363   4.384   5.782   8.426  0.9272 -2.5669 -0.6043
15483SOL     OW50364  10.063   7.417   1.348  0.6241  0.0462 -0.1570
15483SOL    HW150365   9.970   7.412   1.371  1.1046 -2.4002  1.6930
15483SOL    HW250366  10.108   7.430   1.431  2.0425 -0.5313 -0.7958
15484SOL     OW50367   2.451   4.239   7.292  0.5178  0.9599  0.1847
15484SOL    HW150368   2.376   4.287   7.256  0.9519  1.4174 -0.1417
15484SOL    HW250369   2.414   4.183   7.360 -0.6619 -1.4368 -2.2526
15485SOL     OW50370   2.068   0.089   8.639  0.0570 -0.0554  0.2881
15485SOL    HW150371   2.015   0.164   8.615 -0.2192  0.0257  1.1497
15485SOL    HW250372   2.158   0.118   8.626 -0.0618 -0.7426 -2.8752
15486SOL     OW50373   7.854   2.748   4.962  0.3690  0.4407  0.3497
15486SOL    HW150374   7.869   2.819   5.024  0.4079  0.0202  0.8219
15486SOL    HW250375   7.905   2.773   4.884 -1.7282  2.2632 -0.5288
15487SOL     OW50376   0.329   7.574   5.308  1.1291  0.5908  0.2716
15487SOL    HW150377   0.238   7.575   5.278  1.1895 -0.1279  0.0503
15487SOL    HW250378   0.336   7.494   5.360  1.2324  1.4200  1.5862
15488SOL     OW50379   2.672   6.023   4.080 -0.2363  0.5454  0.6052
15488SOL    HW150380   2.601   6.077   4.116 -1.5758 -0.7328  0.0223
15488SOL    HW250381   2.626   5.950   4.037  1.4759 -0.8063  0.9842
15489SOL     OW50382   1.604   1.762   3.680 -0.4241  0.1140  0.0124
15489SOL    HW150383   1.617   1.797   3.592 -0.3659 -1.0790 -0.4819
15489SOL    HW250384   1.624   1.835   3.738  3.8292 -0.1546 -0.7763
15490SOL     OW50385   1.108   7.607   0.238 -0.6285  0.5099 -0.4982
15490SOL    HW150386   1.088   7.655   0.319 -1.5470  0.1728 -0.5164
15490SOL    HW250387   1.066   7.659   0.169 -2.5280 -0.8061 -0.4164
15491SOL     OW50388   8.263   1.293   9.999 -0.0049  0.2116  0.6688
15491SOL    HW150389   8.299   1.332   9.919 -0.8834 -0.5146 -0.1105
15491SOL    HW250390   8.337   1.290  10.060  0.5187  1.3919  0.1222
15492SOL     OW50391   5.393   9.634   2.126  0.4611  0.3345  0.2629
15492SOL    HW150392   5.431   9.555   2.163  1.8740 -0.1505 -2.0001
15492SOL    HW250393   5.309   9.606   2.089  1.3292 -0.3703 -1.2721
15493SOL     OW50394   5.250   1.030   8.375 -0.8426 -0.1972 -0.6494
15493SOL    HW150395   5.255   1.126   8.376 -1.7286 -0.1251  1.1414
15493SOL    HW250396   5.296   1.003   8.455  0.5481 -1.3801 -1.7903
15494SOL     OW50397   8.305   6.556   9.766  0.1813  0.3425  0.8341
15494SOL    HW150398   8.222   6.522   9.733  0.7273 -0.2590  0.0371
15494SOL    HW250399   8.333   6.493   9.832 -0.2461  0.8221  1.4778
15495SOL     OW50400   2.392   2.673  10.181 -0.1220 -0.0679 -0.0526
15495SOL    HW150401   2.382   2.588  10.223  1.0188 -0.0952  0.2077
15495SOL    HW250402   2.314   2.682  10.126  0.4670 -2.0004 -1.3122
15496SOL     OW50403   8.536   9.854   2.858  0.2328 -1.6098  0.0497
15496SOL    HW150404   8.479   9.779   2.879 -1.8565 -0.1925 -0.2161
15496SOL    HW250405   8.481   9.931   2.872  1.2066 -0.2283 -2.8014
15497SOL     OW50406   2.114   1.813   4.222 -0.2268 -0.4608 -0.3239
15497SOL    HW150407   2.126   1.908   4.220 -1.3987 -0.2415  1.2830
15497SOL    HW250408   2.063   1.794   4.143 -1.5697  0.5253  0.2678
15498SOL     OW50409   1.470   3.878   3.341  0.5200 -0.2893 -0.4063
15498SOL    HW150410   1.520   3.828   3.406 -0.0793 -0.6349 -0.1993
15498SOL    HW250411   1.399   3.818   3.315  1.0791 -0.3820 -1.8128
15499SOL     OW50412   0.614   4.975   0.970  0.2239  0.0836  0.1059
15499SOL    HW150413   0.597   4.909   0.902  2.5509  0.0645 -0.5329
15499SOL    HW250414   0.555   4.951   1.042  0.1837 -1.9957 -0.5581
15500SOL     OW50415   8.781   0.433   7.975  0.4819 -0.3312  0.3726
15500SOL    HW150416   8.841   0.498   7.936 -1.2164  0.1294 -1.6532
15500SOL    HW250417   8.725   0.406   7.902 -1.5417 -1.0181  2.1039
15501SOL     OW50418   4.438   5.111   6.354 -0.3976  0.3217  0.1634
15501SOL    HW150419   4.396   5.189   6.391 -2.9812 -1.2880  0.8611
15501SOL    HW250420   4.388   5.093   6.274 -0.8557 -1.4405  0.7990
15502SOL     OW50421   0.825   6.528   0.757  0.2853 -0.1468  0.5985
15502SOL    HW150422   0.772   6.491   0.828 -0.3411 -0.4172 -0.0045
15502SOL    HW250423   0.763   6.545   0.687  1.0614 -0.9191 -0.3074
15503SOL     OW50424   2.339   2.289  10.145 -0.1694  0.5454  0.4991
15503SOL    HW150425   2.315   2.196  10.136  1.8852 -0.0178  0.2221
15503SOL    HW250426   2.402   2.290  10.218 -0.0848  1.7110  0.4308
15504SOL     OW50427   8.959   8.003   8.809  0.5917 -0.7320  0.2777
15504SOL    HW150428   8.910   8.049   8.740  1.1421 -0.3417  0.1338
15504SOL    HW250429   8.893   7.975   8.872  0.2718  0.7615  0.6559
15505SOL     OW50430   5.838   7.549   2.402  0.0654  0.2458 -0.1308
15505SOL    HW150431   5.749   7.525   2.378 -0.1507 -0.0649  0.9088
15505SOL    HW250432   5.894   7.485   2.357 -0.3831 -0.9999  1.0003
15506SOL     OW50433   4.703   0.426   3.878 -0.1950  0.0634  0.4336
15506SOL    HW150434   4.696   0.426   3.974  0.4066  3.4205  0.5891
15506SOL    HW250435   4.797   0.431   3.861 -0.3465  0.9928 -0.2376
15507SOL     OW50436   5.724   6.287   6.685 -0.0333  0.0677  0.0956
15507SOL    HW150437   5.684   6.362   6.642  1.1246  0.1801 -0.8258
15507SOL    HW250438   5.809   6.319   6.715  1.0653 -1.2139 -1.5092
15508SOL     OW50439   5.480   8.513   1.349 -0.1138 -0.2495  0.0581
15508SOL    HW150440   5.509   8.600   1.377  0.3278 -0.9584  1.9816
15508SOL    HW250441   5.561   8.462   1.340 -0.4744 -1.2017  1.7488
15509SOL     OW50442   5.518   9.339   1.528 -0.3659  0.1623  0.0792
15509SOL    HW150443   5.429   9.364   1.554  0.2625  2.4500  0.2374
15509SOL    HW250444   5.561   9.318   1.611 -0.6480 -0.6600  0.0296
15510SOL     OW50445   1.902   1.687   7.855  0.0944 -0.2804  0.1346
15510SOL    HW150446   1.997   1.672   7.846  0.0113 -0.2975 -0.8792
15510SOL    HW250447   1.872   1.697   7.765 -0.7425  0.5478  0.4984
15511SOL     OW50448   4.387   6.444   5.245 -0.4566 -0.5436  0.8427
15511SOL    HW150449   4.387   6.450   5.341 -1.0298  3.6192  0.7655
15511SOL    HW250450   4.297   6.425   5.222 -0.3612 -1.3407  1.1119
15512SOL     OW50451   8.404   3.546   9.586 -0.0204 -0.0291 -0.2578
15512SOL    HW150452   8.499   3.557   9.581 -0.0647  0.0049 -1.6581
15512SOL    HW250453   8.379   3.589   9.667  1.1295  0.2232 -0.0124
15513SOL     OW50454   8.991   0.081   1.231  0.2468 -0.1785 -0.4428
15513SOL    HW150455   9.058   0.017   1.203 -1.5305 -1.2560 -2.5442
15513SOL    HW250456   8.909   0.044   1.200 -1.3155  1.3748  1.5944
15514SOL     OW50457   8.208   7.400   4.237 -0.6572 -0.3411  0.2627
15514SOL    HW150458   8.215   7.486   4.280  1.3842  0.5882 -1.7132
15514SOL    HW250459   8.245   7.339   4.301 -0.6352  0.4937  1.0792
15515SOL     OW50460   7.709   2.194   8.647 -0.1782 -0.0489  0.0339
15515SOL    HW150461   7.683   2.124   8.588 -0.6510  0.7024 -0.6822
15515SOL    HW250462   7.647   2.265   8.627  0.1548  0.4919  0.8834
15516SOL     OW50463   4.645   3.011   7.669  0.2829 -0.0761  0.3600
15516SOL    HW150464   4.697   3.085   7.637  0.1570 -0.5776 -1.0738
15516SOL    HW250465   4.701   2.970   7.736  0.6074  0.9277  0.7262
15517SOL     OW50466   3.972   2.217   2.530  0.7253  0.1052 -0.2081
15517SOL    HW150467   3.961   2.131   2.571 -1.5036 -0.2515 -1.3811
15517SOL    HW250468   3.944   2.279   2.597  1.1263 -0.1680  0.2171
15518SOL     OW50469   5.402   0.531   0.354 -0.3026  0.3424  0.7371
15518SOL    HW150470   5.384   0.543   0.448 -0.4532  2.9610  0.4701
15518SOL    HW250471   5.349   0.456   0.329  0.7327 -1.2374  2.9797
15519SOL     OW50472   9.618   5.877   6.635  0.4768  0.6100 -0.1734
15519SOL    HW150473   9.555   5.930   6.587 -1.2435 -1.7614 -0.7343
15519SOL    HW250474   9.665   5.828   6.566  1.3007  0.6328  0.3589
15520SOL     OW50475   8.356   1.852   3.651 -0.3853 -0.5883  0.1224
15520SOL    HW150476   8.314   1.876   3.568  1.0076 -0.8293 -0.6784
15520SOL    HW250477   8.368   1.757   3.645  1.8463 -0.3241 -0.4713
15521SOL     OW50478   5.017   5.169   0.224  0.2807  0.3373 -0.0849
15521SOL    HW150479   5.017   5.136   0.314  0.3182 -3.6279 -1.3259
15521SOL    HW250480   4.925   5.175   0.200  0.2883 -0.7401 -0.4175
15522SOL     OW50481   6.687   2.376   4.041 -0.3505  0.3048 -0.7852
15522SOL    HW150482   6.649   2.463   4.046  1.5700  1.1257  0.5744
15522SOL    HW250483   6.751   2.373   4.112  1.5200 -1.2767 -2.4062
15523SOL     OW50484  10.195   6.546   4.668  0.2983  0.4030 -0.1307
15523SOL    HW150485  10.137   6.559   4.593 -1.4991  0.2146  1.1687
15523SOL    HW250486  10.228   6.457   4.656 -0.8647 -0.0477 -0.1457
15524SOL     OW50487   5.396   3.380   2.842  0.0897 -0.2633  0.1809
15524SOL    HW150488   5.318   3.384   2.787  0.2373 -0.5542 -0.0528
15524SOL    HW250489   5.369   3.418   2.925  0.5846  2.6639 -0.8864
15525SOL     OW50490   0.214   4.373   5.660  0.8559  0.5739  0.4314
15525SOL    HW150491   0.255   4.318   5.593 -0.3503  0.3488 -0.1436
15525SOL    HW250492   0.135   4.325   5.687 -1.3777  2.8360 -1.5466
15526SOL     OW50493   3.095   6.026   7.737 -0.4860  0.0251  0.0963
15526SOL    HW150494   3.121   6.030   7.646 -2.5124  0.6595 -0.5206
15526SOL    HW250495   3.048   5.943   7.746  1.3802 -0.9833  1.1054
15527SOL     OW50496   0.436   1.572   5.741  0.2136 -0.2610  0.1606
15527SOL    HW150497   0.526   1.573   5.709 -0.1543 -0.3001 -0.9353
15527SOL    HW250498   0.393   1.503   5.691 -0.6557  0.3913 -0.0300
15528SOL     OW50499   6.710   8.152   8.160  0.5034 -0.3015 -0.2641
15528SOL    HW150500   6.769   8.191   8.224  1.4824 -0.7743 -0.8472
15528SOL    HW250501   6.711   8.214   8.087 -0.3558  0.0794  0.0394
15529SOL     OW50502   6.593   0.933   5.787 -0.3074 -0.2684 -0.5145
15529SOL    HW150503   6.639   0.916   5.704 -0.7513 -0.9467 -0.6255
15529SOL    HW250504   6.545   0.852   5.805  0.6550 -0.5320  0.9900
15530SOL     OW50505   1.485   2.529   5.310 -0.0654 -0.5197  0.0322
15530SOL    HW150506   1.524   2.555   5.227 -0.5252  2.7911  0.7126
15530SOL    HW250507   1.558   2.492   5.360  1.0643  0.7952 -0.5827
15531SOL     OW50508   8.786   9.277   3.151  0.3675 -0.2970  0.0109
15531SOL    HW150509   8.736   9.251   3.074 -1.2037 -1.4273  1.3363
15531SOL    HW250510   8.848   9.205   3.165 -1.6780 -1.8569  1.7068
15532SOL     OW50511   2.299   7.836   8.701 -0.2029  0.1187 -0.2010
15532SOL    HW150512   2.357   7.763   8.721  1.1997  0.9713 -1.0052
15532SOL    HW250513   2.288   7.881   8.785 -0.7436 -0.7475  0.2110
15533SOL     OW50514   9.241   5.891   3.004  0.1405 -0.0957  0.0067
15533SOL    HW150515   9.181   5.820   2.982  0.9923 -1.6261  2.2016
15533SOL    HW250516   9.224   5.959   2.939 -2.8857 -1.0529 -0.3559
15534SOL     OW50517   0.630   4.485   4.711 -1.0534  0.0343  0.5056
15534SOL    HW150518   0.623   4.483   4.806  1.7696 -0.2629  0.7873
15534SOL    HW250519   0.625   4.578   4.688  0.7115  0.3600  1.2647
15535SOL     OW50520   0.178   6.129   9.046 -0.3651  0.2951  0.7128
15535SOL    HW150521   0.122   6.159   8.974 -1.2862 -2.1363  0.3310
15535SOL    HW250522   0.264   6.167   9.025 -0.5833 -0.3548 -1.7223
15536SOL     OW50523   0.363   4.561   4.463 -0.2599  0.1680 -0.2327
15536SOL    HW150524   0.350   4.493   4.529  1.3616  0.8462  0.8301
15536SOL    HW250525   0.310   4.635   4.494 -0.8304 -0.0841 -0.5948
15537SOL     OW50526   7.896   7.608   7.439 -0.2086 -0.3221 -0.2568
15537SOL    HW150527   7.858   7.538   7.387 -0.0622 -0.5349 -0.0824
15537SOL    HW250528   7.821   7.660   7.468 -0.1793  0.9375 -2.2457
15538SOL     OW50529   7.688   9.644   8.436 -0.2546 -0.2413 -0.3129
15538SOL    HW150530   7.766   9.648   8.491 -0.2254 -1.5756 -0.2261
15538SOL    HW250531   7.630   9.712   8.472  1.2755  1.5451 -1.0926
15539SOL     OW50532   4.890   8.070   0.305 -0.5603 -0.1166 -0.0610
15539SOL    HW150533   4.938   8.022   0.237  1.6455  2.2274 -0.3546
15539SOL    HW250534   4.838   8.134   0.256  1.3737  1.8768  0.3351
15540SOL     OW50535   3.830   7.627   8.270 -0.3106 -0.0349  0.2287
15540SOL    HW150536   3.815   7.542   8.227  0.3319  0.0668 -0.2184
15540SOL    HW250537   3.873   7.680   8.203 -2.2504  1.2534 -0.1013
15541SOL     OW50538   9.097   8.650   7.127 -0.5439 -0.6110  0.1449
15541SOL    HW150539   9.032   8.584   7.151  0.4640 -1.8562 -0.4011
15541SOL    HW250540   9.150   8.661   7.206 -0.3081 -0.9796  0.0457
15542SOL     OW50541   2.228   5.222   1.989 -0.1446 -0.3573  0.0506
15542SOL    HW150542   2.309   5.186   1.952  0.1298 -0.1641  0.4516
15542SOL    HW250543   2.243   5.224   2.083  0.0447  1.2157  0.0229
15543SOL     OW50544   4.739   5.109   3.742  0.0337 -0.4478 -0.8221
15543SOL    HW150545   4.784   5.162   3.675  1.7516 -0.9028 -0.0944
15543SOL    HW250546   4.763   5.019   3.721  2.6113 -0.4973  1.6656
15544SOL     OW50547   4.542   5.103   1.215 -0.3649 -0.1939 -0.1253
15544SOL    HW150548   4.612   5.081   1.276 -0.1060  1.2177  0.1086
15544SOL    HW250549   4.461   5.073   1.258 -0.1178  0.1683  0.5940
15545SOL     OW50550   0.972   8.173   0.101 -0.2752  0.1027 -0.0299
15545SOL    HW150551   1.041   8.199   0.041  2.0094 -1.3539  1.7748
15545SOL    HW250552   0.989   8.080   0.119 -2.4356 -0.1830  0.8633
15546SOL     OW50553   1.733   7.601   5.474  0.0243  0.6713 -0.1810
15546SOL    HW150554   1.698   7.637   5.393  0.4419  0.0830 -0.6325
15546SOL    HW250555   1.820   7.569   5.450 -0.1984 -0.3096  0.2839
15547SOL     OW50556   0.100   7.963   5.573  0.2889 -0.3039 -0.2860
15547SOL    HW150557   0.030   7.935   5.514  0.1475  1.7073 -1.1647
15547SOL    HW250558   0.086   7.914   5.653 -0.9733 -1.3370 -1.1058
15548SOL     OW50559   4.877   2.770   2.660  0.4736 -0.5206  0.6656
15548SOL    HW150560   4.829   2.689   2.642 -1.4194  0.5058  0.8078
15548SOL    HW250561   4.814   2.840   2.642  1.9584  0.9227  0.8325
15549SOL     OW50562   6.976   9.566   9.286 -0.3274 -0.2360 -0.2382
15549SOL    HW150563   6.932   9.555   9.202 -1.1333 -0.5132  0.2165
15549SOL    HW250564   7.029   9.487   9.297 -0.3173 -0.2552 -0.4273
15550SOL     OW50565   9.616   4.109   1.139 -0.5935 -0.1421 -0.2094
15550SOL    HW150566   9.621   4.134   1.047 -0.5599 -3.7606 -1.3753
15550SOL    HW250567   9.701   4.071   1.159 -1.3157 -1.4825  0.5452
15551SOL     OW50568   8.504   5.609   8.818  0.2334 -0.0935  0.4699
15551SOL    HW150569   8.526   5.523   8.782 -0.9031 -0.7438  1.2673
15551SOL    HW250570   8.573   5.667   8.785  1.7238 -1.5467  0.8934
15552SOL     OW50571   1.319   7.664   2.324  0.0874 -0.7935 -0.8780
15552SOL    HW150572   1.405   7.632   2.300  0.7047 -0.0762  0.2638
15552SOL    HW250573   1.297   7.614   2.403  0.2779  0.3033 -0.1151
15553SOL     OW50574   9.517   5.918  10.148  0.4177 -0.1516 -0.0890
15553SOL    HW150575   9.467   5.846  10.187  1.8314 -0.8996  0.3993
15553SOL    HW250576   9.551   5.967  10.223  1.9676 -0.7614 -0.3582
15554SOL     OW50577   7.889   9.830   0.663  0.2204 -0.3511 -0.1882
15554SOL    HW150578   7.887   9.792   0.751  0.8153 -0.4001 -0.1908
15554SOL    HW250579   7.884   9.924   0.678 -1.0178 -0.3982 -0.1713
15555SOL     OW50580   3.742   2.925   1.329 -0.1585 -0.1540 -0.2841
15555SOL    HW150581   3.788   2.990   1.381  0.9215 -1.2324  0.1330
15555SOL    HW250582   3.803   2.901   1.260 -0.0341 -1.6466  0.3088
15556SOL     OW50583   0.053   1.280   8.269 -0.1065  0.1192 -0.1911
15556SOL    HW150584   0.102   1.204   8.237  1.7752  0.9708  0.4936
15556SOL    HW250585   0.013   1.317   8.190  0.4068 -0.5880 -0.8046
15557SOL     OW50586   2.884   7.673   8.585 -0.3385  0.2086 -0.4239
15557SOL    HW150587   2.878   7.676   8.489  2.0540 -1.3744 -0.7173
15557SOL    HW250588   2.959   7.728   8.606 -0.8508  0.5471  0.5579
15558SOL     OW50589   7.286   5.619   6.151  0.2116 -0.8763 -0.2079
15558SOL    HW150590   7.297   5.530   6.116 -0.2047 -1.3468  0.8214
15558SOL    HW250591   7.193   5.624   6.174  0.5480 -0.7357  1.2078
15559SOL     OW50592   5.185   9.570   9.590  0.0611  0.2971 -0.6639
15559SOL    HW150593   5.274   9.586   9.621 -0.1821  1.1055 -0.3567
15559SOL    HW250594   5.165   9.646   9.535 -1.0783  1.0379  0.7123
15560SOL     OW50595   3.165   9.495   8.490  1.1169  0.8984 -0.3372
15560SOL    HW150596   3.187   9.583   8.461  1.9205  0.5527 -0.7905
15560SOL    HW250597   3.167   9.442   8.410  0.9505  0.4022 -0.0162
15561SOL     OW50598   2.672   3.914   5.308 -0.2615 -0.0837  0.3460
15561SOL    HW150599   2.631   3.846   5.255  0.1915 -0.4706  0.4875
15561SOL    HW250600   2.741   3.950   5.253 -0.6400  0.4128  0.1909
15562SOL     OW50601   6.688   6.776   0.584 -0.1856 -0.1089  0.2020
15562SOL    HW150602   6.728   6.762   0.670  1.0469 -0.1627 -0.3669
15562SOL    HW250603   6.595   6.792   0.603 -0.5679 -3.1032  1.3273
15563SOL     OW50604   4.203   5.088   8.100  0.0410 -0.0308  0.5094
15563SOL    HW150605   4.110   5.077   8.077 -0.2463  0.0836  1.5531
15563SOL    HW250606   4.224   5.177   8.073  0.3007 -0.5702 -1.1713
15564SOL     OW50607   5.845   4.542   2.299  0.4112 -0.4351 -0.2590
15564SOL    HW150608   5.866   4.611   2.361  0.2989 -0.6090 -0.0261
15564SOL    HW250609   5.808   4.587   2.223 -2.6781 -0.4135  1.1097
15565SOL     OW50610   9.492   6.974   9.252  0.0077  0.2364 -0.0602
15565SOL    HW150611   9.515   7.027   9.176  0.8270 -0.0122 -0.0002
15565SOL    HW250612   9.398   6.958   9.244  0.2922 -0.8335 -1.7047
15566SOL     OW50613   4.530   9.571   0.524  0.2475  0.4101  0.3817
15566SOL    HW150614   4.499   9.524   0.446  0.7807 -1.3630  1.1796
15566SOL    HW250615   4.480   9.532   0.596  0.5134  1.2830  1.0512
15567SOL     OW50616   5.430   4.798   3.593 -0.3318 -0.2167  0.0828
15567SOL    HW150617   5.383   4.850   3.527  1.2445 -0.3059 -1.1852
15567SOL    HW250618   5.515   4.842   3.602  0.0358 -1.0656  0.9555
15568SOL     OW50619   4.383   7.598   8.037  0.4932 -0.3904 -0.2546
15568SOL    HW150620   4.439   7.670   8.065 -1.5218  0.9074  0.6566
15568SOL    HW250621   4.370   7.545   8.115  0.8526 -1.0085 -0.5970
15569SOL     OW50622   9.249   0.711   4.112 -0.3520 -0.2390  0.2257
15569SOL    HW150623   9.269   0.620   4.088  0.5374  0.2548 -0.9932
15569SOL    HW250624   9.325   0.740   4.162 -0.8896 -0.3261  1.1184
15570SOL     OW50625   9.378   4.340   9.009  0.6857 -0.3174 -0.4001
15570SOL    HW150626   9.453   4.379   9.054 -0.4095  1.0218  0.3801
15570SOL    HW250627   9.407   4.325   8.920  1.7697  0.5308 -0.2046
15571SOL     OW50628   3.292   1.818   4.728 -0.2386  0.3271 -0.3198
15571SOL    HW150629   3.267   1.733   4.766 -0.9527  1.5358  2.1466
15571SOL    HW250630   3.323   1.869   4.803 -2.7135  3.2824 -1.0956
15572SOL     OW50631   2.889   4.600   7.908 -0.3747 -0.1352  0.5928
15572SOL    HW150632   2.794   4.611   7.920 -0.3143  0.2175  0.7754
15572SOL    HW250633   2.900   4.508   7.885 -0.8322 -0.0145 -0.1420
15573SOL     OW50634   8.381   1.752  10.136  0.3081 -0.0610  0.0905
15573SOL    HW150635   8.297   1.782  10.171  0.0719  0.6112 -1.0036
15573SOL    HW250636   8.370   1.753  10.041  1.5801  0.1012 -0.0800
15574SOL     OW50637   3.505   0.722   7.516  0.9417 -0.0924 -0.2834
15574SOL    HW150638   3.439   0.704   7.448  1.4310  0.7510 -0.9982
15574SOL    HW250639   3.527   0.635   7.550  0.3902 -0.5033 -0.9157
15575SOL     OW50640   8.162   3.756   7.855  0.0411 -0.6460  0.2339
15575SOL    HW150641   8.107   3.763   7.933  0.9228  0.9039  0.7580
15575SOL    HW250642   8.167   3.845   7.821 -0.2532 -1.2681 -1.5864
15576SOL     OW50643   2.148   6.871   3.654 -0.3961 -1.0704  0.4846
15576SOL    HW150644   2.176   6.962   3.641 -0.0129 -1.3801 -1.0969
15576SOL    HW250645   2.152   6.858   3.749  3.6890 -0.6659  0.5480
15577SOL     OW50646   5.294   0.646   7.357  0.3604 -0.0049  0.3792
15577SOL    HW150647   5.371   0.589   7.368  0.3513 -0.4790 -1.5872
15577SOL    HW250648   5.327   0.722   7.309 -0.0288  0.7476  1.2690
15578SOL     OW50649   1.479   3.948   6.365  0.3388  0.2585 -0.5994
15578SOL    HW150650   1.480   3.981   6.454 -1.3470 -1.5905  0.1822
15578SOL    HW250651   1.386   3.942   6.342  0.3378 -4.3816 -0.3345
15579SOL     OW50652   0.690   8.653   9.436 -0.6469 -0.0621  0.1981
15579SOL    HW150653   0.598   8.677   9.442 -0.5857  0.5360 -0.9299
15579SOL    HW250654   0.706   8.640   9.342  0.5464  0.4397  0.3072
15580SOL     OW50655   9.772   1.173   8.446  0.3435 -0.3375 -0.5722
15580SOL    HW150656   9.790   1.198   8.356 -1.1441  2.2981 -0.2685
15580SOL    HW250657   9.858   1.164   8.487  1.0191  0.1156 -1.8429
15581SOL     OW50658   2.248   2.812   5.634 -0.0732 -0.2958  0.6091
15581SOL    HW150659   2.275   2.829   5.544  0.8191  0.3912  0.9899
15581SOL    HW250660   2.307   2.742   5.664  0.7493  0.6145  1.1709
15582SOL     OW50661   5.716   6.902   4.010  0.4539 -0.3957 -0.3366
15582SOL    HW150662   5.811   6.916   4.012  0.6149 -1.2203 -1.3504
15582SOL    HW250663   5.686   6.950   3.933  0.4767 -2.2786 -1.6041
15583SOL     OW50664   1.352   5.136   7.727 -0.0018 -0.4140 -0.4621
15583SOL    HW150665   1.300   5.216   7.730  0.0351 -0.4096  0.7899
15583SOL    HW250666   1.307   5.080   7.664 -0.5807  0.2155 -0.6200
15584SOL     OW50667   5.525  10.189   7.561 -0.1884 -0.0103  0.5117
15584SOL    HW150668   5.495  10.115   7.509  1.1095 -0.8762  0.9677
15584SOL    HW250669   5.544  10.152   7.647  1.0849  0.7269  0.5614
15585SOL     OW50670   3.486   9.550   4.997 -0.3524  0.3209  0.3485
15585SOL    HW150671   3.553   9.596   4.946 -1.3080  1.6481  0.2346
15585SOL    HW250672   3.439   9.498   4.933 -1.2528  1.6251 -0.0975
15586SOL     OW50673   2.778   2.882   8.075 -0.1011  0.4313  0.2115
15586SOL    HW150674   2.793   2.977   8.067 -0.6804  0.5504  0.4648
15586SOL    HW250675   2.707   2.875   8.139 -0.8374 -0.1187 -0.6486
15587SOL     OW50676   5.360   9.997   6.047  0.8102 -0.1342  0.4266
15587SOL    HW150677   5.413   9.972   6.122  0.4328 -1.7882  0.1745
15587SOL    HW250678   5.294   9.929   6.040 -2.1370  2.3873  1.3878
15588SOL     OW50679   7.859   4.328   5.730 -0.4666  0.9093 -0.7731
15588SOL    HW150680   7.764   4.313   5.736 -0.3940  0.4524 -0.7541
15588SOL    HW250681   7.867   4.412   5.686 -0.8531 -0.3100 -3.3640
15589SOL     OW50682   0.495   4.086  10.075 -0.0382  0.7355 -0.0247
15589SOL    HW150683   0.493   4.109  10.168  0.0203 -1.6802  0.6224
15589SOL    HW250684   0.424   4.023  10.064  0.4371  0.4212 -1.4643
15590SOL     OW50685   6.212   7.659   2.865 -0.2810  0.2582 -0.0648
15590SOL    HW150686   6.214   7.619   2.952 -2.7976  0.4431  0.1574
15590SOL    HW250687   6.125   7.639   2.831  0.1667  1.3131 -2.0190
15591SOL     OW50688   1.236   7.194   5.083 -0.4335 -0.0046 -0.2337
15591SOL    HW150689   1.326   7.169   5.064 -0.4670 -0.2444 -0.0795
15591SOL    HW250690   1.187   7.112   5.082 -0.6273  0.1088 -0.1878
15592SOL     OW50691   8.578   4.751   5.420 -0.3931 -0.6886 -0.3629
15592SOL    HW150692   8.637   4.804   5.474 -0.7496  0.5279 -1.1326
15592SOL    HW250693   8.492   4.791   5.431 -0.5148 -0.5497 -1.6621
15593SOL     OW50694   7.226   3.323   3.155  0.2043 -0.0205 -0.2326
15593SOL    HW150695   7.321   3.316   3.150  0.3778  0.6106  1.5568
15593SOL    HW250696   7.195   3.235   3.133  1.3660 -1.0640  2.0144
15594SOL     OW50697   7.195   8.026   4.133  0.4659  0.6235  0.1057
15594SOL    HW150698   7.288   8.003   4.144  0.5467  0.7521 -0.3048
15594SOL    HW250699   7.185   8.040   4.039  0.0138  0.5552  0.1439
15595SOL     OW50700   5.996   0.451   0.787  0.0700 -0.4630  0.2351
15595SOL    HW150701   6.055   0.433   0.714 -1.2242  0.2077 -1.0206
15595SOL    HW250702   5.930   0.381   0.783 -0.1969 -0.2348  0.5476
15596SOL     OW50703   2.312   5.578   4.132  0.2808  0.4501  0.5803
15596SOL    HW150704   2.354   5.494   4.153  0.7783  0.8938  1.3909
15596SOL    HW250705   2.254   5.595   4.206 -1.7796 -0.3908 -0.7244
15597SOL     OW50706   1.679   6.215   9.199 -0.0619  0.3464 -0.3593
15597SOL    HW150707   1.637   6.141   9.156 -0.2676  0.7456 -0.8586
15597SOL    HW250708   1.765   6.222   9.157  0.9721 -1.1297  1.3935
15598SOL     OW50709   6.639   0.782   2.112  0.6058  0.2919  0.1491
15598SOL    HW150710   6.549   0.747   2.110  0.1884  1.2683  1.1024
15598SOL    HW250711   6.646   0.833   2.031 -0.0511  1.0357  0.5491
15599SOL     OW50712   3.576   3.965   6.391  0.3060  0.2305  0.6202
15599SOL    HW150713   3.623   3.968   6.474  0.6784  0.4573  0.4057
15599SOL    HW250714   3.488   3.998   6.411  0.6420  1.0667  0.7650
15600SOL     OW50715   2.405   4.216   5.136 -0.0281  0.1710 -0.2377
15600SOL    HW150716   2.376   4.124   5.139  0.9342 -0.1332  2.1864
15600SOL    HW250717   2.342   4.259   5.078 -1.4622 -1.7083 -0.1914
15601SOL     OW50718   9.245   3.525   4.991  0.2466 -0.3247 -0.4732
15601SOL    HW150719   9.330   3.557   4.963  1.1095 -1.4175  0.7537
15601SOL    HW250720   9.237   3.553   5.082 -0.3096 -0.9670 -0.3086
15602SOL     OW50721   6.136   3.561   2.225 -0.0177 -0.0083 -0.1849
15602SOL    HW150722   6.147   3.652   2.197 -1.0064  0.0039 -0.5987
15602SOL    HW250723   6.160   3.509   2.148 -2.1487  0.0096 -0.9507
15603SOL     OW50724   5.053   2.750   3.196  0.4676  0.5545  0.0269
15603SOL    HW150725   5.061   2.804   3.118  1.9597 -1.4018 -1.2691
15603SOL    HW250726   5.092   2.666   3.172  0.6806 -0.2552  2.7780
15604SOL     OW50727  10.179   5.802   5.730 -0.4599 -0.1287  0.0510
15604SOL    HW150728  10.128   5.874   5.691 -1.6644  0.1458  1.9977
15604SOL    HW250729  10.124   5.724   5.717  0.1174 -0.4312 -0.6520
15605SOL     OW50730   6.881   5.469   1.292 -0.3105 -0.0668  0.2201
15605SOL    HW150731   6.873   5.561   1.268  1.8623  0.7162  2.0664
15605SOL    HW250732   6.795   5.431   1.274 -1.9002  2.7694  1.2301
15606SOL     OW50733   4.891   9.813   4.725  0.2808 -0.5335  0.3085
15606SOL    HW150734   4.924   9.800   4.636  0.7897 -0.7941  0.5321
15606SOL    HW250735   4.887   9.725   4.762  0.4215 -0.3940  0.6627
15607SOL     OW50736   7.068   1.904   6.801  0.0413  0.4361 -0.3173
15607SOL    HW150737   7.006   1.877   6.868  0.4502  0.7832  0.2172
15607SOL    HW250738   7.053   1.845   6.728  1.0116 -1.3653  0.8671
15608SOL     OW50739   4.497   4.978   5.358  0.2015  0.5050 -0.3827
15608SOL    HW150740   4.422   4.929   5.324 -1.0077  1.8035  0.2751
15608SOL    HW250741   4.536   5.019   5.281  0.8502 -0.9275 -0.8532
15609SOL     OW50742   9.457   1.523   4.340  0.1897  0.1272 -0.0229
15609SOL    HW150743   9.545   1.506   4.306  0.2401 -1.0497  0.6638
15609SOL    HW250744   9.424   1.593   4.284  0.7730 -0.8229 -1.6380
15610SOL     OW50745   5.688   0.230   5.400  0.4545 -0.1731 -0.1411
15610SOL    HW150746   5.714   0.306   5.451  0.6304  0.3775 -1.0289
15610SOL    HW250747   5.765   0.210   5.345 -0.2991  0.3001 -1.4129
15611SOL     OW50748   6.552   0.919   8.651  0.0921  0.1949 -0.1960
15611SOL    HW150749   6.524   0.829   8.639  0.4626  0.3638 -2.9557
15611SOL    HW250750   6.472   0.967   8.673 -0.6211 -0.3951 -1.4188
15612SOL     OW50751   7.995   3.443   6.626 -0.3857 -0.5041 -0.1115
15612SOL    HW150752   7.978   3.418   6.716 -0.1599  1.3886  0.5147
15612SOL    HW250753   7.937   3.517   6.610 -0.5837 -0.9492 -1.6058
15613SOL     OW50754   4.909   3.374   4.992  0.2269  0.3819 -0.4101
15613SOL    HW150755   4.889   3.438   5.061 -0.4190 -0.2740  0.0208
15613SOL    HW250756   4.994   3.338   5.016  0.0120  0.1683  0.0411
15614SOL     OW50757   4.204   3.894   3.191  0.4832  0.3514 -0.3732
15614SOL    HW150758   4.138   3.880   3.258  0.6066  0.8135 -0.1467
15614SOL    HW250759   4.268   3.824   3.204 -1.5802 -2.1546 -2.6852
15615SOL     OW50760   5.906   7.983   0.511 -0.6283 -0.4938  0.1870
15615SOL    HW150761   5.930   7.890   0.507  1.0627 -0.0646 -1.2729
15615SOL    HW250762   5.869   8.001   0.424 -1.3738  0.1089  0.6215
15616SOL     OW50763   8.463   4.163   5.578 -0.2501  0.3296  0.0091
15616SOL    HW150764   8.500   4.249   5.596 -1.7477  1.3595 -1.5205
15616SOL    HW250765   8.425   4.135   5.661 -1.1875  1.9027  0.1498
15617SOL     OW50766   7.071   6.836   5.054  0.0032  0.0271 -0.6068
15617SOL    HW150767   7.001   6.770   5.050  0.2038 -0.2041 -0.3705
15617SOL    HW250768   7.048   6.891   5.129 -0.2549  0.3323 -0.9072
15618SOL     OW50769   1.183   9.347   0.124  0.0877 -0.6604 -0.2376
15618SOL    HW150770   1.260   9.399   0.149  0.4320  0.7045 -3.5659
15618SOL    HW250771   1.217   9.258   0.112  0.9285 -0.3007 -0.6012
15619SOL     OW50772   3.911   1.135   9.386  0.4410 -0.5066 -0.3023
15619SOL    HW150773   4.000   1.148   9.355  0.2148 -0.6199 -1.0224
15619SOL    HW250774   3.904   1.189   9.465  1.0186 -0.1879 -0.4678
15620SOL     OW50775   5.343   8.286   7.329 -0.0865  0.6038 -0.3116
15620SOL    HW150776   5.421   8.244   7.366  0.5673  0.9580 -1.2419
15620SOL    HW250777   5.272   8.225   7.347  0.9353 -1.2908 -2.1971
15621SOL     OW50778   5.060   7.831   6.312 -0.0799  0.0090 -0.2248
15621SOL    HW150779   4.986   7.826   6.372  0.3929  0.9101  0.4547
15621SOL    HW250780   5.027   7.794   6.230 -1.1509  0.0264  0.1815
15622SOL     OW50781   6.168   8.762   4.480  0.4152 -0.3494 -0.2090
15622SOL    HW150782   6.239   8.813   4.520  1.0966 -1.2436 -0.2368
15622SOL    HW250783   6.212   8.709   4.413 -0.2909 -0.8841 -0.2558
15623SOL     OW50784   9.728   6.735   1.914 -0.2087  0.1646  0.3494
15623SOL    HW150785   9.699   6.745   2.004  0.4007  0.1869  0.5517
15623SOL    HW250786   9.652   6.758   1.861 -0.7355 -0.3716  0.8575
15624SOL     OW50787   5.664   2.238   5.801  0.1690 -0.5495 -0.4475
15624SOL    HW150788   5.672   2.223   5.895 -1.7590 -1.1474 -0.3396
15624SOL    HW250789   5.618   2.321   5.792  3.9928  1.7516 -0.9994
15625SOL     OW50790   6.508   9.984   3.694 -0.8256  0.4019 -0.6757
15625SOL    HW150791   6.588   9.959   3.741 -1.8979  0.0511  1.0728
15625SOL    HW250792   6.482   9.904   3.648 -0.7893  0.1818 -0.3183
15626SOL     OW50793   3.545   9.035   8.294  0.0050  0.1021 -0.3341
15626SOL    HW150794   3.484   9.057   8.224  1.4212 -2.2184 -2.4562
15626SOL    HW250795   3.525   8.944   8.316  2.1840 -0.5045 -0.6389
15627SOL     OW50796   4.453   9.036   0.015 -0.3981  0.4514 -0.0548
15627SOL    HW150797   4.459   9.025   0.110 -0.2042  0.4681 -0.0657
15627SOL    HW250798   4.384   8.975  -0.011 -0.6426  0.6473  0.1312
15628SOL     OW50799   0.356   6.230   3.176 -0.0394  0.0917 -0.4564
15628SOL    HW150800   0.418   6.180   3.229 -0.0748 -0.1564 -0.6519
15628SOL    HW250801   0.382   6.322   3.190 -1.6441  0.2605  2.0636
15629SOL     OW50802   9.106   4.899   2.090  0.1888  0.1390  1.0392
15629SOL    HW150803   9.094   4.804   2.078  0.2998  0.1156  1.1086
15629SOL    HW250804   9.063   4.938   2.015  0.2934  0.0236  0.9177
15630SOL     OW50805   0.764   3.511   4.433 -0.6772  0.4988  0.0276
15630SOL    HW150806   0.849   3.532   4.395 -0.4205 -0.1009  0.2459
15630SOL    HW250807   0.705   3.578   4.399 -0.3378  0.3186 -0.9625
15631SOL     OW50808   3.026   3.595   3.683 -0.1770  0.0317  0.5889
15631SOL    HW150809   2.990   3.557   3.603 -3.5750  0.4606  1.7511
15631SOL    HW250810   3.041   3.687   3.661 -0.3277 -0.0327  0.2035
15632SOL     OW50811   9.866   8.951   1.527  0.3708  0.1864  0.1421
15632SOL    HW150812   9.906   8.952   1.614 -1.0297  1.5042  0.8215
15632SOL    HW250813   9.940   8.953   1.466  1.4720 -2.7824  1.1813
15633SOL     OW50814   8.999   8.068   9.997 -0.3553 -0.0545  0.0067
15633SOL    HW150815   8.986   8.115   9.915  0.4495 -0.1045 -0.1496
15633SOL    HW250816   8.939   7.993   9.991  1.0889 -1.1456 -1.3894
15634SOL     OW50817   8.623   1.771   5.077  0.3634 -0.3390 -0.3335
15634SOL    HW150818   8.594   1.765   4.986  1.0866  2.1925 -0.7843
15634SOL    HW250819   8.707   1.815   5.074  0.6923 -0.7165  1.5514
15635SOL     OW50820   4.843   9.541   7.620 -0.2710 -0.0552  0.2060
15635SOL    HW150821   4.877   9.630   7.622 -0.6678  0.0906  0.5747
15635SOL    HW250822   4.783   9.536   7.694 -0.4656 -0.5436  0.0235
15636SOL     OW50823   9.671   3.292   4.212 -0.0233 -0.2157 -0.0863
15636SOL    HW150824   9.593   3.266   4.163 -0.6529  0.7301  0.3761
15636SOL    HW250825   9.652   3.266   4.302  1.2884 -2.2967 -0.3492
15637SOL     OW50826   8.361   9.143   9.193 -0.2083 -0.4312  0.1721
15637SOL    HW150827   8.306   9.200   9.246 -1.2261 -0.4982 -0.7797
15637SOL    HW250828   8.448   9.184   9.196 -0.3786 -0.1299  1.3939
15638SOL     OW50829   0.050   2.230   5.957 -0.6463 -0.0915  0.2545
15638SOL    HW150830   0.036   2.255   6.048 -0.4176  1.2932 -0.0596
15638SOL    HW250831   0.017   2.141   5.950  2.9377 -1.8405  2.6653
15639SOL     OW50832   5.056   1.880   4.640 -0.1538 -0.4933  0.4761
15639SOL    HW150833   5.142   1.841   4.622 -0.6448 -1.2855 -0.1927
15639SOL    HW250834   5.021   1.827   4.711  0.8199  1.2210  2.3521
15640SOL     OW50835   7.554   2.078   7.169 -0.1952  0.3606 -0.0305
15640SOL    HW150836   7.608   2.157   7.181  0.8160 -0.4979  1.3267
15640SOL    HW250837   7.584   2.018   7.237 -0.7027 -1.3450 -1.2599
15641SOL     OW50838   6.079   7.245   1.380 -0.3899 -0.2310  0.2487
15641SOL    HW150839   6.045   7.215   1.464 -0.2478 -2.4214 -0.4338
15641SOL    HW250840   6.072   7.170   1.322  2.2252  0.3231 -0.9345
15642SOL     OW50841   1.407   2.476   8.440 -0.2372  0.3342  0.2320
15642SOL    HW150842   1.322   2.437   8.422 -0.7548  1.8804 -0.9585
15642SOL    HW250843   1.460   2.404   8.473 -2.0083 -0.6632  1.0632
15643SOL     OW50844   6.119   5.148   5.216  0.2564  1.0666 -0.7502
15643SOL    HW150845   6.166   5.137   5.134  0.0884 -3.7883 -0.5242
15643SOL    HW250846   6.185   5.134   5.284 -0.2890  1.0844 -0.2060
15644SOL     OW50847   2.903   1.038   7.801 -0.0892 -0.7744  0.2174
15644SOL    HW150848   2.893   0.980   7.725  1.4615 -2.1229  0.9864
15644SOL    HW250849   2.816   1.038   7.842 -1.0379  0.2273 -1.6855
15645SOL     OW50850   7.564   9.805   3.725 -0.1520 -0.4917 -0.2208
15645SOL    HW150851   7.590   9.892   3.695 -1.5232 -0.1401 -0.4674
15645SOL    HW250852   7.504   9.774   3.657 -1.5706 -0.6108  1.0361
15646SOL     OW50853   2.120   5.996   8.544 -0.0507  0.0324 -0.7093
15646SOL    HW150854   2.196   5.940   8.525 -0.2840 -0.2847 -0.7101
15646SOL    HW250855   2.135   6.075   8.493  0.8706  0.4719  0.2023
15647SOL     OW50856   7.681   3.440   9.069  0.4464 -0.3186 -0.5859
15647SOL    HW150857   7.729   3.495   9.131  0.7238  2.1600 -2.7783
15647SOL    HW250858   7.745   3.420   9.000 -0.3218 -1.3828 -1.0193
15648SOL     OW50859   6.559   5.162   2.605 -0.5824 -0.0539  0.3816
15648SOL    HW150860   6.524   5.135   2.690 -2.0795 -1.7226 -0.6811
15648SOL    HW250861   6.483   5.157   2.546  0.7852 -0.6835 -1.4067
15649SOL     OW50862   5.711   4.024   7.061 -0.1699 -0.0154 -0.4138
15649SOL    HW150863   5.731   3.940   7.102  1.5877  0.6400  0.1723
15649SOL    HW250864   5.678   4.079   7.132  0.2883  0.2854 -0.4236
15650SOL     OW50865  10.125   3.118   4.721 -0.0507 -0.7180  0.4881
15650SOL    HW150866  10.179   3.043   4.747 -0.4772 -1.0937  0.3069
15650SOL    HW250867  10.035   3.084   4.722 -0.0829 -0.8409 -1.7024
15651SOL     OW50868   4.220  10.003   8.188  0.6326  0.7616 -0.3656
15651SOL    HW150869   4.303  10.035   8.150  0.4519 -1.1696 -2.6304
15651SOL    HW250870   4.154  10.065   8.157  0.7779  0.3470 -1.5364
15652SOL     OW50871   3.700   6.890   1.682 -0.0256  0.1237  0.1068
15652SOL    HW150872   3.751   6.838   1.743  0.3225 -1.1541 -1.2222
15652SOL    HW250873   3.759   6.907   1.609 -1.1987 -0.5999 -1.0555
15653SOL     OW50874   7.900   7.440   8.309 -1.0542  0.1867  0.2939
15653SOL    HW150875   7.879   7.478   8.394 -1.7065  1.6899 -0.5124
15653SOL    HW250876   7.928   7.513   8.255  0.6451 -0.9299 -0.4432
15654SOL     OW50877   2.545   2.306   5.735 -0.0619 -0.2911 -0.2065
15654SOL    HW150878   2.539   2.369   5.663 -0.3091 -0.6227 -0.4810
15654SOL    HW250879   2.633   2.269   5.728  0.1797  0.2111  0.1185
15655SOL     OW50880   9.879   7.013   8.393 -0.5645  0.6430 -0.5746
15655SOL    HW150881   9.957   6.983   8.347  0.7207  0.7586  1.4261
15655SOL    HW250882   9.895   7.106   8.410  0.2627  0.0673  2.3376
15656SOL     OW50883   0.993   6.464   1.255 -0.5625 -0.9091  0.1579
15656SOL    HW150884   0.904   6.467   1.221 -0.6239  0.5693  0.3863
15656SOL    HW250885   1.046   6.436   1.180 -0.9320  0.5429 -0.6874
15657SOL     OW50886   3.997   3.557   4.530 -0.0565  0.0478  0.2282
15657SOL    HW150887   3.988   3.558   4.625 -0.6050 -2.3542  0.2677
15657SOL    HW250888   3.950   3.634   4.500  1.0686  1.4719  1.9376
15658SOL     OW50889   2.498   6.761   7.257 -0.2908  0.5449 -0.5073
15658SOL    HW150890   2.502   6.745   7.163 -0.5227  0.2919 -0.4743
15658SOL    HW250891   2.563   6.831   7.272 -0.7681  1.0983 -0.9596
15659SOL     OW50892   9.657   5.656   2.604  0.0241 -0.3086 -0.0539
15659SOL    HW150893   9.599   5.630   2.532  0.8141 -2.3491 -0.0269
15659SOL    HW250894   9.731   5.699   2.560  0.4907 -1.5206 -0.5236
15660SOL     OW50895   9.587   6.324   3.891  0.1249  0.4588  0.6640
15660SOL    HW150896   9.525   6.395   3.906  0.4139  0.5830  1.2880
15660SOL    HW250897   9.664   6.348   3.942  0.0363 -0.5692  1.2978
15661SOL     OW50898   2.556   6.833   2.575  0.1125  0.0437 -0.4153
15661SOL    HW150899   2.501   6.826   2.653 -0.4453 -1.7461 -0.9225
15661SOL    HW250900   2.601   6.917   2.585 -1.1036  0.5703  1.0569
15662SOL     OW50901   2.617   3.723   5.773 -0.2963  0.1932  0.4296
15662SOL    HW150902   2.702   3.685   5.751  0.9887  2.5737  0.9538
15662SOL    HW250903   2.602   3.697   5.864 -0.5486 -0.8985  0.0919
15663SOL     OW50904   7.623   9.486  10.200 -0.3463  0.0484 -0.3852
15663SOL    HW150905   7.596   9.435  10.124 -0.5551  0.6924 -0.7451
15663SOL    HW250906   7.543   9.498  10.251 -0.4567  0.6929 -0.7049
15664SOL     OW50907   7.223   9.029   3.609  0.0835  0.4098 -0.0919
15664SOL    HW150908   7.261   9.070   3.687 -0.6744  3.3051 -1.1122
15664SOL    HW250909   7.152   9.088   3.583 -0.2973 -0.9466 -2.4700
15665SOL     OW50910   7.551   1.308   1.642  0.2691  0.1524  0.3554
15665SOL    HW150911   7.619   1.352   1.693  0.7173  1.1882 -1.0638
15665SOL    HW250912   7.520   1.375   1.581 -0.2919 -1.0071 -0.6795
15666SOL     OW50913   0.004   8.164   7.237  0.1198  0.0605  0.3246
15666SOL    HW150914   0.003   8.079   7.281  0.0274  0.5686  1.3172
15666SOL    HW250915   0.043   8.145   7.151 -2.6673 -1.5799 -0.7405
15667SOL     OW50916   8.043   8.640   5.999  0.1708 -0.4226 -0.4808
15667SOL    HW150917   8.103   8.568   6.016  1.0457  0.5510  0.6960
15667SOL    HW250918   8.090   8.697   5.938  0.9439  0.8870  1.2609
15668SOL     OW50919   8.073   1.098   0.497 -0.6754  0.0902  0.1904
15668SOL    HW150920   7.994   1.152   0.491 -0.6524 -0.0174 -2.2930
15668SOL    HW250921   8.123   1.120   0.418 -0.3813 -3.0528 -0.6400
15669SOL     OW50922   2.732   1.950   2.183  0.0274 -0.0387 -0.3278
15669SOL    HW150923   2.733   1.863   2.143 -0.6141 -0.2526  0.1051
15669SOL    HW250924   2.640   1.966   2.204  0.1737  0.6354 -0.1584
15670SOL     OW50925   6.980   7.826   4.672 -0.0209 -0.0621  0.7051
15670SOL    HW150926   6.889   7.833   4.701 -0.0028  0.4271  0.6508
15670SOL    HW250927   6.997   7.908   4.627 -0.1300 -0.9133 -0.9450
15671SOL     OW50928   1.901   0.218   7.315  0.3912 -0.2493 -0.2257
15671SOL    HW150929   1.909   0.125   7.335 -0.2795 -0.2646 -0.0144
15671SOL    HW250930   1.849   0.255   7.387 -0.3839  0.0563 -0.9155
15672SOL     OW50931   9.412   2.265   3.957 -0.2463  0.4781  0.3101
15672SOL    HW150932   9.431   2.277   3.863  1.3207 -1.9591  0.2022
15672SOL    HW250933   9.495   2.287   4.000  0.0835 -1.4122  0.7569
15673SOL     OW50934   0.532   9.988   7.028  0.8286 -0.3176 -0.0553
15673SOL    HW150935   0.516  10.011   7.119 -2.0558 -1.5896 -0.1237
15673SOL    HW250936   0.572   9.901   7.032  0.4522 -0.4912  0.0221
15674SOL     OW50937   8.063   0.777   4.242 -0.1897 -0.4137 -0.1037
15674SOL    HW150938   8.114   0.849   4.206  0.8803 -0.3164  1.4817
15674SOL    HW250939   8.108   0.698   4.211 -0.0479 -0.3572 -0.0423
15675SOL     OW50940   0.034   9.458   8.153  0.5069  0.4004  0.1567
15675SOL    HW150941  -0.026   9.418   8.215  1.2018  0.1841  0.7084
15675SOL    HW250942   0.116   9.409   8.164  0.7501  0.6122 -0.6584
15676SOL     OW50943   8.681   7.105   4.908 -0.2101 -0.1585 -0.0059
15676SOL    HW150944   8.677   7.012   4.930 -0.2430  0.0750  1.0480
15676SOL    HW250945   8.591   7.128   4.883  0.0503 -0.6752 -1.5310
15677SOL     OW50946   2.089   6.879   8.598  0.2038  0.5788 -0.3629
15677SOL    HW150947   2.022   6.926   8.648 -0.2416  0.7481 -1.0988
15677SOL    HW250948   2.111   6.803   8.652  1.7431  2.1679  1.3823
15678SOL     OW50949   9.350   1.134   8.828  0.2855 -0.0603  0.0337
15678SOL    HW150950   9.314   1.102   8.745  0.7402 -0.0591 -0.1712
15678SOL    HW250951   9.307   1.219   8.841 -1.6725 -1.1598  1.0938
15679SOL     OW50952   7.616   8.423   5.702 -0.0527 -0.2216 -0.0875
15679SOL    HW150953   7.666   8.367   5.761 -1.4807 -0.1330  1.2525
15679SOL    HW250954   7.677   8.493   5.677  1.1761 -1.3551 -0.3384
15680SOL     OW50955   5.816   6.846   3.540  0.1997 -0.2953 -0.2630
15680SOL    HW150956   5.811   6.882   3.451  1.4751  1.8575  0.4649
15680SOL    HW250957   5.905   6.814   3.548 -0.2522 -1.5515 -0.1144
15681SOL     OW50958   9.110   7.254   5.014  0.2526  0.6157 -0.0372
15681SOL    HW150959   9.094   7.348   5.023 -0.1568  0.6004 -0.5282
15681SOL    HW250960   9.204   7.246   5.001  0.4954  0.8378  1.4661
15682SOL     OW50961   6.471   6.208   4.329 -0.7064 -1.1238 -1.6122
15682SOL    HW150962   6.451   6.272   4.261  0.8784  1.7586  0.4233
15682SOL    HW250963   6.564   6.219   4.346 -1.1365 -1.2792  1.3576
15683SOL     OW50964   3.085   8.434   9.927 -0.1428  0.1906  0.2861
15683SOL    HW150965   2.990   8.433   9.912 -0.3922  2.1244  1.4325
15683SOL    HW250966   3.095   8.412  10.019  0.4399  1.0433  0.4297
15684SOL     OW50967   5.082   4.909   3.628  0.3152  0.4028  0.6974
15684SOL    HW150968   5.114   4.819   3.628  1.2902  0.7305  1.2896
15684SOL    HW250969   5.138   4.954   3.564 -0.6750  0.4383 -0.1808
15685SOL     OW50970   8.750   6.143   6.628  0.0340  0.1957  0.0349
15685SOL    HW150971   8.830   6.196   6.637 -0.2755  0.3712  2.4393
15685SOL    HW250972   8.777   6.056   6.657 -0.0896 -0.3548 -1.4550
15686SOL     OW50973   2.682   6.645   4.874  0.5339  0.2894  0.0368
15686SOL    HW150974   2.687   6.618   4.966  0.1262  0.1359  0.0143
15686SOL    HW250975   2.772   6.637   4.842  0.5758 -0.2117  0.2661
15687SOL     OW50976   3.251   7.623  10.154  0.8669 -0.2534 -0.8323
15687SOL    HW150977   3.275   7.693  10.215 -0.4714 -0.5808  0.0902
15687SOL    HW250978   3.186   7.663  10.096  0.9341 -0.4165 -1.0222
15688SOL     OW50979   2.877   6.070   2.705  0.3365  0.1850  0.0809
15688SOL    HW150980   2.938   6.093   2.776 -0.1815 -3.2105  1.8206
15688SOL    HW250981   2.796   6.115   2.729 -0.1871 -1.8230  2.4467
15689SOL     OW50982   7.406   2.371   2.438  0.5032  0.0895  0.8303
15689SOL    HW150983   7.374   2.313   2.507  1.6407  1.2036  2.3788
15689SOL    HW250984   7.363   2.455   2.456  0.3089  0.2271 -0.2252
15690SOL     OW50985   4.126   5.444   9.355  0.9729  0.2760 -0.0520
15690SOL    HW150986   4.144   5.427   9.447  0.0111 -0.9863 -0.0861
15690SOL    HW250987   4.174   5.525   9.337  1.3001  0.4656  1.5041
15691SOL     OW50988   8.152   6.144   9.313 -0.4282  0.0155  0.3907
15691SOL    HW150989   8.191   6.092   9.242 -0.0593 -0.2365  0.7741
15691SOL    HW250990   8.100   6.210   9.268  1.2871  1.0516 -0.1918
15692SOL     OW50991   3.294   7.565   6.264 -0.0797 -0.2297 -0.2586
15692SOL    HW150992   3.389   7.564   6.252 -0.0662  0.2856 -0.2005
15692SOL    HW250993   3.281   7.590   6.355 -0.2720 -0.2752 -0.2720
15693SOL     OW50994   9.795   3.235   1.295 -0.3369 -0.0331  0.3833
15693SOL    HW150995   9.734   3.233   1.368 -2.0111  0.4199 -0.9335
15693SOL    HW250996   9.758   3.300   1.234  2.1262  1.2123  0.0610
15694SOL     OW50997   0.902   5.555   6.137  0.5076 -0.3954 -0.0809
15694SOL    HW150998   0.970   5.622   6.140  1.2076 -1.0975 -0.0533
15694SOL    HW250999   0.876   5.551   6.045  0.8705 -0.4910 -0.1794
15695SOL     OW51000   4.766   2.630   0.995  0.2002  0.6826 -0.2708
15695SOL    HW151001   4.809   2.621   0.909 -0.3940 -1.9224 -0.3617
15695SOL    HW251002   4.672   2.635   0.974  0.1841  3.7601  0.0867
15696SOL     OW51003   9.697   9.236   3.015  0.0497  0.8158 -0.2895
15696SOL    HW151004   9.693   9.328   3.043 -0.0959  0.6347  0.2940
15696SOL    HW251005   9.606   9.208   3.011  0.1364  0.2973  0.9051
15697SOL     OW51006   4.290   3.398   5.197  0.0132 -0.5379 -0.1954
15697SOL    HW151007   4.250   3.453   5.130 -3.2700 -2.7879 -0.2914
15697SOL    HW251008   4.366   3.359   5.153 -0.6311 -0.0651 -1.7867
15698SOL     OW51009   5.416   5.033   5.672  0.3024 -0.5616 -0.6396
15698SOL    HW151010   5.377   5.082   5.745  0.5308  1.1502 -1.6222
15698SOL    HW251011   5.457   4.958   5.714  0.1918  0.2280  0.9796
15699SOL     OW51012   2.039   9.016   8.790  0.0362  0.1981  0.4219
15699SOL    HW151013   2.088   9.059   8.860  0.5833  0.3727 -0.0668
15699SOL    HW251014   1.978   8.959   8.837 -2.1860  2.9683  1.1775
15700SOL     OW51015   5.041  10.041  10.200 -0.1325 -0.2047 -0.2398
15700SOL    HW151016   5.015   9.966  10.147 -0.3699 -0.4064  0.1581
15700SOL    HW251017   4.962  10.095  10.205 -0.1716 -0.2902  0.0811
15701SOL     OW51018   7.604   3.706   1.282  0.4229  0.2358 -0.5297
15701SOL    HW151019   7.577   3.614   1.280  0.1683  0.2791  0.3478
15701SOL    HW251020   7.691   3.707   1.244  2.3509 -1.0716  3.2855
15702SOL     OW51021   4.493   9.828   7.984  0.0108  0.3349 -0.1273
15702SOL    HW151022   4.455   9.908   8.020  0.9594  0.0587  1.6379
15702SOL    HW251023   4.559   9.859   7.921 -0.4985  0.8923 -0.3960
15703SOL     OW51024   0.881   9.390   6.787  0.4029  0.0964  0.0913
15703SOL    HW151025   0.855   9.473   6.827 -0.0721 -0.9789  2.1678
15703SOL    HW251026   0.887   9.409   6.694 -0.7913  2.1784  0.3772
15704SOL     OW51027   6.793   6.712   7.864  0.2310 -0.0159  0.3415
15704SOL    HW151028   6.863   6.744   7.807  1.0498 -1.1215  0.6752
15704SOL    HW251029   6.730   6.671   7.805  1.3415 -1.6384  0.2279
15705SOL     OW51030   5.967   9.554   7.550 -0.4157  0.1506  0.4823
15705SOL    HW151031   5.992   9.525   7.462  0.3804 -0.7789  0.9994
15705SOL    HW251032   6.016   9.635   7.563  0.0897 -0.1341  0.3714
15706SOL     OW51033   2.021  10.162   1.880 -0.7161  0.0784 -0.4417
15706SOL    HW151034   1.995  10.142   1.970  1.1942 -0.2827  0.0621
15706SOL    HW251035   2.011  10.257   1.873  0.9195  0.3764  0.7844
15707SOL     OW51036   7.071   6.372   8.986 -0.4126 -0.2283  0.3554
15707SOL    HW151037   7.017   6.446   8.958  0.0186  0.1007  0.3831
15707SOL    HW251038   7.010   6.311   9.028 -0.8750 -0.1915 -0.2568
15708SOL     OW51039   3.028   4.296   2.561  0.1949 -0.0704 -0.1321
15708SOL    HW151040   3.014   4.208   2.596  0.7670 -0.1226 -0.0254
15708SOL    HW251041   3.013   4.287   2.467 -1.5786  0.1183  0.0843
15709SOL     OW51042   3.601   9.813   9.629 -0.4931  0.0701 -0.0331
15709SOL    HW151043   3.629   9.833   9.540 -0.0159 -1.1272 -0.1596
15709SOL    HW251044   3.505   9.813   9.625 -0.4784  0.3448 -0.4586
15710SOL     OW51045   3.310   1.091   6.757 -0.2035  0.2132 -0.6917
15710SOL    HW151046   3.363   1.169   6.738 -0.6775  0.4746 -0.9724
15710SOL    HW251047   3.362   1.018   6.723  1.6591  0.0354  2.1877
15711SOL     OW51048   1.959   0.840   6.950  0.5906 -0.1396  0.1067
15711SOL    HW151049   2.025   0.773   6.968  1.9702  1.0396 -0.3793
15711SOL    HW251050   2.002   0.923   6.972 -1.2928  0.5687  1.3045
15712SOL     OW51051   9.621   7.547   1.540 -0.1991  0.2536 -0.0818
15712SOL    HW151052   9.689   7.592   1.489  1.0965 -1.2334  0.2390
15712SOL    HW251053   9.565   7.505   1.475 -0.7348  1.3537 -0.3460
15713SOL     OW51054   4.693   7.626   4.601 -0.3716  0.0764 -0.3089
15713SOL    HW151055   4.730   7.560   4.543 -1.1348 -0.0808 -0.6208
15713SOL    HW251056   4.689   7.584   4.687 -1.8440 -0.6751 -0.7173
15714SOL     OW51057   2.724   3.918   2.987 -0.0687  0.0184  1.2055
15714SOL    HW151058   2.751   3.833   3.022  0.9039 -1.0363 -1.7610
15714SOL    HW251059   2.630   3.908   2.969  0.0969 -0.5548  0.6183
15715SOL     OW51060   1.979   7.704   2.330 -0.6605  0.0440 -0.5585
15715SOL    HW151061   2.031   7.779   2.358  0.2578  0.5532 -3.3345
15715SOL    HW251062   1.912   7.741   2.273 -2.2890 -0.9362  0.6338
15716SOL     OW51063   7.983   1.296   2.004 -0.3229 -0.4292  0.2547
15716SOL    HW151064   8.073   1.265   2.013 -0.5535 -0.7688  1.6257
15716SOL    HW251065   7.932   1.216   1.990 -0.3756 -0.1895 -1.1253
15717SOL     OW51066   4.075   1.001   7.222  0.4312 -0.1838  0.6476
15717SOL    HW151067   4.045   1.062   7.154 -1.6205 -1.9944 -0.1674
15717SOL    HW251068   4.163   0.977   7.194 -0.2727 -0.6933 -1.2898
15718SOL     OW51069   0.799   9.281   0.839  0.2872  0.6167  0.1101
15718SOL    HW151070   0.757   9.347   0.895 -1.2466  0.4851 -0.8182
15718SOL    HW251071   0.849   9.331   0.775 -0.8824  0.9065 -0.6004
15719SOL     OW51072   5.170   5.822   5.275  0.3912  0.4566 -0.1020
15719SOL    HW151073   5.239   5.755   5.274  0.0771  0.1068 -1.5855
15719SOL    HW251074   5.208   5.897   5.230  0.2281  0.7393  0.2229
15720SOL     OW51075   5.808   7.774   6.787 -0.4384  0.0537  0.0440
15720SOL    HW151076   5.715   7.771   6.766 -0.4603  0.6276  0.0573
15720SOL    HW251077   5.812   7.798   6.879 -0.2828 -0.3248  0.1395
15721SOL     OW51078   4.114   8.034   8.488 -0.5780  0.1762 -0.3390
15721SOL    HW151079   4.110   7.962   8.425 -1.3769 -0.2572  0.1748
15721SOL    HW251080   4.022   8.056   8.504 -0.3482  1.0830 -0.2333
15722SOL     OW51081   6.530   7.568   1.343 -0.2332 -0.2961 -0.4081
15722SOL    HW151082   6.462   7.605   1.286 -0.8611  0.0614  0.5539
15722SOL    HW251083   6.611   7.605   1.310 -0.8012  1.7095  0.2981
15723SOL     OW51084   7.813   0.855   9.038  0.3059 -0.0460 -0.5994
15723SOL    HW151085   7.819   0.763   9.014  1.7572 -0.4542  1.1106
15723SOL    HW251086   7.732   0.863   9.087  0.7420 -0.6992  0.2577
15724SOL     OW51087   9.193   8.190   8.193  0.1193 -0.0229 -0.0248
15724SOL    HW151088   9.227   8.216   8.279  0.5831  0.6885 -0.4135
15724SOL    HW251089   9.225   8.257   8.133  0.1066 -0.7084 -0.8189
15725SOL     OW51090   5.122   7.269   2.462  0.4980  0.5031  0.0627
15725SOL    HW151091   5.061   7.331   2.423  0.0151  0.1320  0.2180
15725SOL    HW251092   5.122   7.290   2.555  1.6948  1.4276 -0.1222
15726SOL     OW51093   3.051   6.465   1.173 -0.3074 -0.1116 -0.0905
15726SOL    HW151094   3.025   6.557   1.180  1.0203  0.1860  1.5578
15726SOL    HW251095   3.032   6.442   1.082 -0.8727  1.7121 -0.4823
15727SOL     OW51096   5.812   9.312   4.111  0.0892 -0.1489  0.5633
15727SOL    HW151097   5.781   9.269   4.190  0.3997  1.1464  1.4095
15727SOL    HW251098   5.907   9.304   4.115  0.0505 -2.2457 -0.9614
15728SOL     OW51099   1.419   9.317   4.840 -0.2489 -0.1095 -0.1331
15728SOL    HW151100   1.354   9.249   4.822  0.4458 -0.6577 -0.6129
15728SOL    HW251101   1.498   9.269   4.862  0.5724  0.5224 -1.5818
15729SOL     OW51102   0.885   7.213   1.731 -0.0545  0.2645 -0.0169
15729SOL    HW151103   0.826   7.185   1.661 -0.9596 -0.7169  1.0971
15729SOL    HW251104   0.838   7.284   1.774 -0.4739 -0.5507  0.9031
15730SOL     OW51105   1.135   4.616   3.685 -0.0376  0.1273  0.2022
15730SOL    HW151106   1.185   4.567   3.619  0.1256 -0.7407  0.9500
15730SOL    HW251107   1.198   4.677   3.722 -0.0015  0.2765 -0.1013
15731SOL     OW51108   8.566   5.834   9.099 -0.2228 -0.3272  0.1215
15731SOL    HW151109   8.516   5.909   9.068 -0.7850  0.3371  2.4745
15731SOL    HW251110   8.504   5.761   9.100 -0.6716  0.0604  1.2889
15732SOL     OW51111   0.852   4.849   7.085 -0.1305  0.1046  0.0272
15732SOL    HW151112   0.816   4.784   7.025  1.1534 -0.7757  0.1766
15732SOL    HW251113   0.881   4.920   7.028 -0.9762  0.2793 -0.1921
15733SOL     OW51114   3.891   2.509   1.698 -0.1077  0.3803 -0.1600
15733SOL    HW151115   3.946   2.493   1.621 -0.0862 -0.4111  0.0074
15733SOL    HW251116   3.830   2.435   1.700 -0.0079  0.3050  0.6672
15734SOL     OW51117   4.882   6.300   0.741 -0.1854 -0.5923  0.2067
15734SOL    HW151118   4.936   6.378   0.727 -1.4840  0.2399 -0.3271
15734SOL    HW251119   4.941   6.238   0.786  0.7584  0.8165  0.9965
15735SOL     OW51120   3.253   3.748   6.398  0.1080  0.6737  0.1038
15735SOL    HW151121   3.288   3.798   6.324 -1.5537 -0.4880 -1.5474
15735SOL    HW251122   3.326   3.743   6.460  1.8121  1.0375 -1.7694
15736SOL     OW51123   8.832   6.937   6.865 -0.0126  0.5222  0.4895
15736SOL    HW151124   8.847   6.991   6.942  0.0397  2.4959 -0.8402
15736SOL    HW251125   8.919   6.927   6.825  0.1250 -1.3067  1.1531
15737SOL     OW51126   8.394   8.950   4.737  0.0215  0.2797 -0.1825
15737SOL    HW151127   8.425   8.962   4.647  1.6454 -0.7736  0.1758
15737SOL    HW251128   8.424   8.862   4.761 -2.0825 -0.2443  0.7569
15738SOL     OW51129   1.376   0.811   3.947  0.0197 -0.6411 -0.3251
15738SOL    HW151130   1.352   0.854   4.029  1.0871 -2.2230  0.8764
15738SOL    HW251131   1.295   0.773   3.916 -0.4801  0.3158 -0.2483
15739SOL     OW51132   2.196   5.410   8.596 -0.0125 -0.5085 -0.3869
15739SOL    HW151133   2.198   5.378   8.506  0.8815 -2.4402  0.2492
15739SOL    HW251134   2.183   5.504   8.588 -3.3381 -0.9889 -2.4008
15740SOL     OW51135   3.481   2.019   3.877 -0.1250  0.3273  0.1258
15740SOL    HW151136   3.437   1.943   3.838  0.7209  0.4235 -1.0482
15740SOL    HW251137   3.544   1.981   3.937 -0.6152  0.1456  0.5351
15741SOL     OW51138   3.501   8.908   8.633 -0.5896  0.0205  0.1364
15741SOL    HW151139   3.584   8.917   8.586 -1.0330  0.5092 -0.5602
15741SOL    HW251140   3.485   8.995   8.670 -0.1301 -0.4143  1.4008
15742SOL     OW51141   3.492   2.202   1.969 -0.2036  0.1843  0.3349
15742SOL    HW151142   3.465   2.219   1.878  0.2053 -0.9626 -0.0262
15742SOL    HW251143   3.581   2.238   1.974 -0.3670  0.5820  0.3928
15743SOL     OW51144   3.278   4.561   9.142  0.4596  0.2292  0.3751
15743SOL    HW151145   3.271   4.575   9.236  0.3652  0.0478  0.3929
15743SOL    HW251146   3.302   4.469   9.132 -0.4406  0.0097  0.1869
15744SOL     OW51147   9.540   1.843   5.539  0.1808  0.2292  0.3703
15744SOL    HW151148   9.595   1.789   5.595 -1.5944 -1.6790  0.3856
15744SOL    HW251149   9.459   1.854   5.587  0.1751  2.2429 -0.0200
15745SOL     OW51150   6.699   5.844   8.745 -0.5391 -0.2110  0.1089
15745SOL    HW151151   6.717   5.864   8.837  1.4733  0.1473 -0.3236
15745SOL    HW251152   6.670   5.928   8.708  1.5108  0.4139 -0.2051
15746SOL     OW51153   1.811   7.231   9.069  0.0186  0.0659  0.1855
15746SOL    HW151154   1.800   7.305   9.130  0.7569  0.4623 -0.1413
15746SOL    HW251155   1.834   7.272   8.986 -1.0517 -0.4703 -0.3974
15747SOL     OW51156   9.903   5.071   4.265  0.3680  0.2117  0.0496
15747SOL    HW151157   9.970   5.116   4.213 -1.0930  1.5933 -0.7220
15747SOL    HW251158   9.863   5.140   4.318  0.2495 -0.7741  1.3024
15748SOL     OW51159   7.505  10.102   3.590 -0.1061 -0.2327  0.1505
15748SOL    HW151160   7.442  10.104   3.518  0.2159 -1.1541 -0.1659
15748SOL    HW251161   7.576  10.160   3.561 -0.8473  0.9280  0.5720
15749SOL     OW51162   4.278   1.449   9.473 -0.6397 -0.2894  0.2509
15749SOL    HW151163   4.196   1.460   9.427 -1.5738  2.5222  2.3278
15749SOL    HW251164   4.255   1.457   9.566  1.8836 -0.0417  0.9367
15750SOL     OW51165   4.978   8.261   3.214 -0.5902 -0.1959 -0.1810
15750SOL    HW151166   4.971   8.353   3.186 -1.0907  0.3030  1.4829
15750SOL    HW251167   4.888   8.227   3.207 -0.4644 -0.4752 -0.4765
15751SOL     OW51168   3.820   0.453   7.320  0.7271 -0.0297 -0.0845
15751SOL    HW151169   3.756   0.417   7.258  2.0182 -0.2667 -1.3165
15751SOL    HW251170   3.768   0.473   7.398 -0.6640 -1.2240 -0.6489
15752SOL     OW51171   0.933   5.608   1.074  0.6730 -0.4439 -0.2160
15752SOL    HW151172   0.967   5.696   1.088  0.2604 -0.0475 -1.5400
15752SOL    HW251173   1.011   5.553   1.062  0.9154  0.0013 -0.7280
15753SOL     OW51174   9.693   9.693   8.145 -0.5203 -0.6352  0.1970
15753SOL    HW151175   9.681   9.710   8.052 -3.5222  0.1849  0.6195
15753SOL    HW251176   9.625   9.629   8.167 -0.0901 -0.5605  1.8690
15754SOL     OW51177   5.995   6.201   0.065 -0.1883  0.5816  0.1515
15754SOL    HW151178   6.018   6.268   0.000 -1.4486  1.7783  0.8874
15754SOL    HW251179   5.944   6.248   0.131  0.2067 -0.8140  1.5011
15755SOL     OW51180   6.328   2.822   1.304 -0.1197 -0.5458 -0.5928
15755SOL    HW151181   6.356   2.876   1.230  1.2635  2.7439  2.0642
15755SOL    HW251182   6.397   2.756   1.313  1.0608  0.6327 -0.7474
15756SOL     OW51183   5.778   5.469   0.932  0.5075 -0.1343 -0.2836
15756SOL    HW151184   5.872   5.463   0.920  0.3568 -2.1884 -0.8971
15756SOL    HW251185   5.750   5.538   0.871  1.6332  0.7957  0.2262
15757SOL     OW51186   9.568   8.421   1.902 -0.0162  0.0737  0.0010
15757SOL    HW151187   9.623   8.464   1.968 -2.8086  1.2527  1.7616
15757SOL    HW251188   9.603   8.332   1.896  2.0800  0.7617  0.9706
15758SOL     OW51189   4.911   7.843   0.483 -0.3314  0.2690  0.0582
15758SOL    HW151190   4.904   7.933   0.450  2.5302  0.5676 -0.0160
15758SOL    HW251191   5.000   7.838   0.519 -1.1084 -1.9571  1.9171
15759SOL     OW51192   1.688   4.639   2.122 -0.2556 -0.2098 -0.0056
15759SOL    HW151193   1.696   4.702   2.050  0.9849 -0.8368 -0.4393
15759SOL    HW251194   1.599   4.603   2.112 -0.3737  0.2715 -0.7555
15760SOL     OW51195   6.232   6.336   7.284 -0.3757 -0.3569  0.1248
15760SOL    HW151196   6.237   6.255   7.233  1.2420  0.4041 -1.0469
15760SOL    HW251197   6.213   6.403   7.219  1.8869  0.6676  0.4401
15761SOL     OW51198   0.796   7.928   1.761  0.1387 -0.0062  0.2659
15761SOL    HW151199   0.753   7.842   1.766 -0.1276  0.1129  0.0477
15761SOL    HW251200   0.772   7.972   1.842 -0.6038  0.2686 -0.0974
15762SOL     OW51201   4.117   1.442   2.946  0.2669 -0.0576 -0.5380
15762SOL    HW151202   4.143   1.515   2.889  1.6715 -1.6383 -2.0402
15762SOL    HW251203   4.192   1.383   2.946 -1.1925 -2.0259 -0.2415
15763SOL     OW51204   6.569   0.327   4.637 -0.4078  0.4634 -0.8113
15763SOL    HW151205   6.647   0.276   4.657 -2.4201 -2.3432  0.6010
15763SOL    HW251206   6.565   0.332   4.542  0.2682 -1.4341 -0.9586
15764SOL     OW51207  10.048   1.760   1.694 -0.0057  0.2986  0.5181
15764SOL    HW151208  10.140   1.735   1.690  0.2171  1.1726 -0.7102
15764SOL    HW251209  10.002   1.688   1.651  0.4413  1.0861 -1.4196
15765SOL     OW51210   5.242   6.693   4.264  0.0569 -0.4499  0.0933
15765SOL    HW151211   5.268   6.701   4.356  0.7201  1.5661 -0.2318
15765SOL    HW251212   5.324   6.692   4.216 -0.2983 -1.2201 -0.5174
15766SOL     OW51213   9.223   5.760   1.722 -0.0427  0.2575 -0.6586
15766SOL    HW151214   9.234   5.827   1.654 -0.1627  1.6758  0.6789
15766SOL    HW251215   9.277   5.790   1.795  0.3377 -1.4124 -0.2180
15767SOL     OW51216   8.927   3.866   1.879 -0.2474 -0.3069  0.8844
15767SOL    HW151217   8.925   3.811   1.957 -1.9710  0.4418  1.4205
15767SOL    HW251218   8.846   3.917   1.884 -0.3352 -0.1362 -1.3238
15768SOL     OW51219   4.545   8.971   2.488 -0.4321  0.1320  0.1657
15768SOL    HW151220   4.555   9.014   2.403 -1.9607  0.6818  0.2475
15768SOL    HW251221   4.538   9.043   2.551 -0.6342 -0.2574  0.5939
15769SOL     OW51222   7.680   1.110   3.468 -0.1206  0.2555  0.0265
15769SOL    HW151223   7.656   1.116   3.561  1.8636 -1.7197  0.7580
15769SOL    HW251224   7.616   1.051   3.430 -0.4860  0.4603  0.3210
15770SOL     OW51225   3.091   7.365   7.571 -0.1141 -0.1369 -0.3960
15770SOL    HW151226   3.152   7.331   7.506  0.5825 -1.2213  0.7577
15770SOL    HW251227   3.134   7.445   7.604 -1.0231  1.0889 -2.0267
15771SOL     OW51228   1.632   5.682   1.690  0.1904  0.0243 -0.3245
15771SOL    HW151229   1.640   5.605   1.633  0.8396 -0.3768  0.2944
15771SOL    HW251230   1.716   5.726   1.685  0.0037  0.3977 -0.2493
15772SOL     OW51231   4.807   2.589   3.785 -0.0143  0.2307  0.5162
15772SOL    HW151232   4.811   2.560   3.876  1.2662  1.1975  0.7802
15772SOL    HW251233   4.841   2.678   3.785 -1.2885  0.7730 -0.7152
15773SOL     OW51234   8.489   2.289   7.106  0.1797 -0.4172  0.0353
15773SOL    HW151235   8.560   2.271   7.169 -0.6254 -1.1371  0.7799
15773SOL    HW251236   8.532   2.292   7.021  0.7325 -4.6812 -0.0810
15774SOL     OW51237   6.019   7.200   4.603 -0.1439  0.5313 -0.0483
15774SOL    HW151238   5.955   7.264   4.636 -0.3926  0.2276  0.0620
15774SOL    HW251239   6.038   7.145   4.679 -0.9276 -0.3469 -0.4725
15775SOL     OW51240   9.416   6.884   3.898  0.5368  0.3764  0.2315
15775SOL    HW151241   9.392   6.952   3.835 -0.3057 -0.8297 -0.7874
15775SOL    HW251242   9.493   6.919   3.942  1.4402  1.0819 -1.7906
15776SOL     OW51243   3.985   9.608   9.589 -0.1273  0.2781 -0.0685
15776SOL    HW151244   3.997   9.694   9.547 -0.3922 -0.2192 -1.2238
15776SOL    HW251245   3.895   9.584   9.567  0.0583 -0.4443 -0.0595
15777SOL     OW51246   3.891   1.738   1.610  0.1225  0.8692 -0.3395
15777SOL    HW151247   3.871   1.830   1.621  3.8553  1.9692 -1.1683
15777SOL    HW251248   3.966   1.722   1.668  2.2403 -0.3907 -3.1411
15778SOL     OW51249   6.264   7.641   1.976  0.3359 -0.2953 -0.0556
15778SOL    HW151250   6.311   7.611   2.054  0.4882 -0.7462 -0.3174
15778SOL    HW251251   6.188   7.582   1.970 -0.9384  1.1518  1.0318
15779SOL     OW51252   2.833   2.789   0.514 -0.0687  0.4327  0.3638
15779SOL    HW151253   2.826   2.694   0.521  1.4014  0.3462  0.8706
15779SOL    HW251254   2.923   2.806   0.486 -0.3936  1.6740 -0.0450
15780SOL     OW51255   8.248   2.266   4.206 -0.0826  0.0295 -0.0275
15780SOL    HW151256   8.175   2.257   4.145  0.9937  3.3931 -2.0993
15780SOL    HW251257   8.313   2.201   4.176 -2.1408 -3.3436  2.1389
15781SOL     OW51258   4.090   9.957   0.640  0.5632  0.0415  0.6139
15781SOL    HW151259   4.152  10.017   0.598  1.2684 -0.2909  1.1645
15781SOL    HW251260   4.041   9.919   0.567  2.4200 -1.2546 -0.0295
15782SOL     OW51261   0.537   7.688   5.008 -0.2287  0.3701 -0.0134
15782SOL    HW151262   0.547   7.739   5.088  0.3998 -0.6259  0.5556
15782SOL    HW251263   0.446   7.699   4.983 -0.1727  1.5545  0.2362
15783SOL     OW51264   4.240   9.364   8.305  0.5528 -0.3646 -0.4926
15783SOL    HW151265   4.244   9.271   8.326  0.9910  0.1038  1.7685
15783SOL    HW251266   4.331   9.394   8.309  0.1915  0.6499  1.5576
15784SOL     OW51267   7.124   4.175   9.974  0.0838 -0.1876 -0.3228
15784SOL    HW151268   7.203   4.126   9.950  1.7754  1.8140  0.8675
15784SOL    HW251269   7.087   4.202   9.890  2.2254  1.1327 -0.9336
15785SOL     OW51270   3.285   8.506   4.909  0.6843 -0.0213 -0.0395
15785SOL    HW151271   3.367   8.462   4.885 -0.5890 -2.6761  0.1368
15785SOL    HW251272   3.266   8.564   4.835  2.1984 -0.1198 -0.5297
15786SOL     OW51273   6.336   4.173   2.209 -0.5925 -0.1276 -0.5272
15786SOL    HW151274   6.315   4.139   2.296 -0.2409 -1.1133 -0.8204
15786SOL    HW251275   6.255   4.161   2.159 -0.1780 -1.4156 -0.8958
15787SOL     OW51276   0.106   1.669   5.682 -0.0506 -0.3864 -0.0350
15787SOL    HW151277   0.131   1.762   5.687 -1.8717  0.0957  0.8690
15787SOL    HW251278   0.159   1.627   5.750 -2.4879  0.8717  2.8994
15788SOL     OW51279   4.413   5.807   0.790 -0.2857 -0.0863 -0.3404
15788SOL    HW151280   4.477   5.764   0.734  0.6403 -0.3120  0.8465
15788SOL    HW251281   4.400   5.746   0.863  0.5748  1.2884  1.0458
15789SOL     OW51282   4.184   6.024   2.875  0.3367  0.4018 -0.2551
15789SOL    HW151283   4.139   6.065   2.949 -1.2533  0.8711 -1.4337
15789SOL    HW251284   4.148   6.067   2.798  0.6690 -1.2735 -1.4082
15790SOL     OW51285   9.878  10.205   7.342  0.4852  0.1131  0.6905
15790SOL    HW151286   9.868  10.210   7.437 -1.7524 -2.5974  0.7245
15790SOL    HW251287   9.958  10.154   7.328 -1.1231 -2.7903  1.3366
15791SOL     OW51288   7.591   0.361   0.991 -0.1880 -0.5636  0.9178
15791SOL    HW151289   7.667   0.331   0.940 -1.2471 -1.5722 -0.1266
15791SOL    HW251290   7.520   0.366   0.927 -0.8974  0.8910  1.7692
15792SOL     OW51291   6.165   1.331   0.741  0.5375  0.1033  0.0101
15792SOL    HW151292   6.258   1.353   0.743  1.3255 -2.6968 -1.1387
15792SOL    HW251293   6.157   1.255   0.799 -0.8743 -0.2581 -0.6049
15793SOL     OW51294   8.553  10.003   5.423  0.1960 -0.0326 -0.2267
15793SOL    HW151295   8.607   9.930   5.454 -0.8218 -0.6005  0.2614
15793SOL    HW251296   8.578  10.077   5.479  0.5635 -0.2483 -0.0986
15794SOL     OW51297   4.216   0.302   5.926  0.8042  0.0395  0.1852
15794SOL    HW151298   4.240   0.223   5.974  1.1280 -0.8028 -1.3198
15794SOL    HW251299   4.300   0.337   5.894  0.6186  0.7389  0.4303
15795SOL     OW51300   2.620   8.072   9.863  0.5033  0.3583 -0.0738
15795SOL    HW151301   2.641   8.070   9.770  1.8907  0.4568  0.2057
15795SOL    HW251302   2.647   7.986   9.896 -1.1653 -0.1536  0.0222
15796SOL     OW51303   6.704   0.870   1.800  0.2016 -0.2455 -0.9885
15796SOL    HW151304   6.780   0.812   1.794 -0.3899 -1.4128  1.5819
15796SOL    HW251305   6.733   0.942   1.856 -0.3654 -0.3242 -0.5884
15797SOL     OW51306   8.300   7.969   2.912 -0.4206  0.3959 -0.0923
15797SOL    HW151307   8.359   8.033   2.871  0.2216  0.0744  0.3169
15797SOL    HW251308   8.357   7.914   2.965 -1.1540  0.3679  0.6907
15798SOL     OW51309   3.129   6.499   1.766  0.2049 -0.3235  0.2176
15798SOL    HW151310   3.112   6.564   1.835 -0.2168 -0.2014  0.0030
15798SOL    HW251311   3.193   6.542   1.709  0.7548 -0.5265  0.6688
15799SOL     OW51312   6.034   3.635   2.632  0.1497  0.2389  0.4062
15799SOL    HW151313   5.981   3.558   2.652  0.2677  0.3801  1.2911
15799SOL    HW251314   6.004   3.663   2.545 -1.8368  0.8201  1.2264
15800SOL     OW51315   7.555   4.838   3.156 -0.1654 -0.3078  0.4295
15800SOL    HW151316   7.645   4.818   3.179  0.0249  0.3657  0.2875
15800SOL    HW251317   7.560   4.877   3.069 -0.5765 -0.1140  0.4885
15801SOL     OW51318   5.363   9.837  10.043  0.1267  0.4768 -0.6381
15801SOL    HW151319   5.396   9.767   9.988 -1.1383 -1.8360  1.3566
15801SOL    HW251320   5.268   9.830  10.038 -0.0803  2.6834 -1.0597
15802SOL     OW51321   1.945   2.650   5.134  0.4030  0.0154 -0.0404
15802SOL    HW151322   1.853   2.642   5.108  0.2871  2.0355 -0.4907
15802SOL    HW251323   1.992   2.664   5.052  0.9057  0.3318  0.2903
15803SOL     OW51324   2.232   5.916   1.547  0.5790 -0.4641  0.3272
15803SOL    HW151325   2.172   5.915   1.622  0.2043 -0.8075  0.0273
15803SOL    HW251326   2.174   5.916   1.471  0.9577  0.1872  0.0360
15804SOL     OW51327   6.786   0.961   6.267 -0.3246  0.3676 -0.0998
15804SOL    HW151328   6.791   1.056   6.251  1.7184  0.7545  2.2018
15804SOL    HW251329   6.729   0.928   6.197 -2.9382  3.5555  0.2500
15805SOL     OW51330   8.533   7.308   7.517 -0.3285 -0.2600 -0.3390
15805SOL    HW151331   8.477   7.357   7.578  1.7514  0.8169  0.8691
15805SOL    HW251332   8.581   7.247   7.573  0.5109 -0.3467 -1.1272
15806SOL     OW51333   9.608   9.948   9.425  0.0902  0.1604 -0.5936
15806SOL    HW151334   9.520   9.932   9.459  0.8993 -0.1429  1.5926
15806SOL    HW251335   9.663   9.885   9.472  1.6349  1.1515 -0.9974
15807SOL     OW51336   4.546   3.969   0.640 -0.0941 -0.1104  0.0363
15807SOL    HW151337   4.541   3.980   0.545  1.0839 -1.5130 -0.2252
15807SOL    HW251338   4.474   4.022   0.673 -0.2552  0.7822 -1.5980
15808SOL     OW51339   7.437   3.744   5.113 -0.2718  0.1565 -0.1546
15808SOL    HW151340   7.431   3.838   5.098 -0.9698  0.0873 -0.3337
15808SOL    HW251341   7.360   3.707   5.069  0.2253 -0.5447 -0.4583
15809SOL     OW51342   9.020   1.489   8.251 -0.4494 -0.4348 -0.1796
15809SOL    HW151343   9.114   1.476   8.234  0.0804  1.6882  0.7695
15809SOL    HW251344   8.977   1.459   8.171  1.0319 -1.3594 -0.6824
15810SOL     OW51345   2.332   5.110   4.851 -0.2091  0.1898 -0.7733
15810SOL    HW151346   2.251   5.103   4.801 -0.7653  0.4658  0.0782
15810SOL    HW251347   2.384   5.034   4.823 -1.0655 -0.4071 -0.7763
15811SOL     OW51348   8.306   5.214   6.982  0.2946 -0.1408  0.0355
15811SOL    HW151349   8.263   5.205   6.896 -0.4062 -0.9667  0.4520
15811SOL    HW251350   8.351   5.298   6.978  0.1447 -0.1001 -1.0918
15812SOL     OW51351   9.821   2.552  10.086  0.3102 -0.3416 -0.1543
15812SOL    HW151352   9.734   2.564  10.045  0.3185  2.0694  0.4121
15812SOL    HW251353   9.851   2.641  10.106  2.3079 -1.2072  0.9856
15813SOL     OW51354   7.005   9.657   4.897  0.1648 -0.1939  0.3083
15813SOL    HW151355   7.050   9.575   4.878 -0.4295 -0.7880  1.3889
15813SOL    HW251356   6.961   9.642   4.981 -0.7370  0.9034  0.0613
15814SOL     OW51357   6.695   6.188   1.479 -0.2773 -0.1780 -0.3486
15814SOL    HW151358   6.707   6.270   1.431 -0.6294  0.7947  1.1514
15814SOL    HW251359   6.603   6.166   1.465 -0.0162 -0.7093 -1.3152
15815SOL     OW51360   6.439   0.638   7.338  0.8866 -0.4053 -0.4513
15815SOL    HW151361   6.377   0.596   7.278  0.6179 -0.7122  0.0336
15815SOL    HW251362   6.404   0.726   7.351  1.5216  0.0335 -1.5721
15816SOL     OW51363   8.866   1.728   3.321  0.3806 -0.1899  0.4385
15816SOL    HW151364   8.830   1.773   3.244  1.2030 -0.5536 -0.1624
15816SOL    HW251365   8.862   1.635   3.299  0.4169 -0.3113  0.9330
15817SOL     OW51366   3.979   1.996   3.975 -0.1886  0.2268  0.2840
15817SOL    HW151367   3.961   2.003   4.069  0.0932  2.0681  0.2485
15817SOL    HW251368   4.067   1.959   3.970 -1.4890 -3.3111  0.5867
15818SOL     OW51369   9.035   3.803   0.927 -0.6593 -1.1146  0.9176
15818SOL    HW151370   9.011   3.825   1.017 -0.3145 -1.4923  1.1054
15818SOL    HW251371   9.130   3.813   0.925 -0.5728 -1.9005  0.8229
15819SOL     OW51372   4.447   7.585   2.541 -0.3589 -0.3309  0.4526
15819SOL    HW151373   4.460   7.528   2.466  0.1202 -1.5149  1.3946
15819SOL    HW251374   4.515   7.651   2.534  1.2306 -1.8224  1.0767
15820SOL     OW51375   7.068   8.450   1.270 -0.2227 -0.2631 -0.2873
15820SOL    HW151376   7.148   8.400   1.281 -0.1277 -0.2193 -0.7584
15820SOL    HW251377   7.088   8.512   1.200 -0.5134  0.0662 -0.0822
15821SOL     OW51378   1.806   0.739   1.977 -0.8263  0.0473 -0.3295
15821SOL    HW151379   1.827   0.660   2.028  0.7455  0.8602  0.3589
15821SOL    HW251380   1.804   0.809   2.043 -0.1425  0.8943 -1.1810
15822SOL     OW51381   8.974   9.533   7.620  0.0739 -0.5924  0.0059
15822SOL    HW151382   8.995   9.504   7.531  1.4306 -2.4290  0.8707
15822SOL    HW251383   8.960   9.452   7.669 -0.1758  0.3709  1.5883
15823SOL     OW51384   9.488   6.383   4.716 -0.3312 -0.2578 -0.0744
15823SOL    HW151385   9.427   6.433   4.771 -0.5066 -1.0605  0.4903
15823SOL    HW251386   9.441   6.370   4.634 -0.4397  0.1573 -0.0798
15824SOL     OW51387   2.423   0.502   2.204  0.3817  0.1106 -0.2601
15824SOL    HW151388   2.420   0.524   2.297 -0.8277 -1.1616  0.0302
15824SOL    HW251389   2.513   0.523   2.177  0.9922 -0.2668  1.3908
15825SOL     OW51390   1.932   0.325   7.060 -0.1632 -0.0959  0.4568
15825SOL    HW151391   2.004   0.279   7.017 -0.5716  0.5628 -0.9800
15825SOL    HW251392   1.929   0.287   7.148  2.0215 -0.0245  0.6214
15826SOL     OW51393   9.373   7.200   4.943 -0.2220  0.4840 -0.2091
15826SOL    HW151394   9.371   7.289   4.908  1.3756  0.5709 -0.1526
15826SOL    HW251395   9.405   7.210   5.033 -0.7468 -0.0946  0.0538
15827SOL     OW51396   2.480   6.222   6.667 -0.0852  0.1661  0.5817
15827SOL    HW151397   2.520   6.194   6.749  2.1802 -0.1269 -0.5322
15827SOL    HW251398   2.536   6.184   6.599 -0.1026  2.7994 -1.0727
15828SOL     OW51399   1.646   8.740   5.717  0.2510  0.4133 -0.0803
15828SOL    HW151400   1.715   8.732   5.652  0.9728 -1.0542  0.8220
15828SOL    HW251401   1.566   8.714   5.672  0.6940 -0.2870 -0.4646
15829SOL     OW51402   9.496   4.611   3.449 -0.2926  0.1778  0.3854
15829SOL    HW151403   9.481   4.646   3.536 -0.7538 -1.7236  1.1343
15829SOL    HW251404   9.461   4.522   3.453  0.2020 -0.1561 -1.5720
15830SOL     OW51405   0.091   6.215   1.742  0.5078  0.4436  0.1108
15830SOL    HW151406   0.049   6.251   1.821 -0.1333  2.6340 -1.1371
15830SOL    HW251407   0.075   6.121   1.747 -1.7640  0.8254  1.3089
15831SOL     OW51408   9.581   1.360   8.253  0.4806  0.3115 -0.2430
15831SOL    HW151409   9.655   1.305   8.225  0.8187  1.2532 -1.2884
15831SOL    HW251410   9.621   1.444   8.276  0.0107  0.0641  1.6608
15832SOL     OW51411   4.206   0.162   2.404  0.5787 -0.1438  0.3332
15832SOL    HW151412   4.274   0.228   2.389 -1.4757  2.2501  0.8324
15832SOL    HW251413   4.171   0.145   2.317  0.4099  0.2615  0.3179
15833SOL     OW51414   8.385   0.768   4.335  0.1698 -0.1796  0.3674
15833SOL    HW151415   8.328   0.745   4.408 -1.3114  0.9971 -0.3606
15833SOL    HW251416   8.473   0.773   4.374 -0.4002 -0.8018  1.7864
15834SOL     OW51417   4.468   6.409   9.772 -0.5147 -0.2920  0.0472
15834SOL    HW151418   4.557   6.379   9.755 -0.7979 -1.4890  0.5785
15834SOL    HW251419   4.414   6.363   9.708 -0.8943 -0.5452  0.5378
15835SOL     OW51420   2.413   4.923   1.135  0.0051 -0.2979  0.5476
15835SOL    HW151421   2.363   4.845   1.110  0.5841 -0.8897  1.1864
15835SOL    HW251422   2.347   4.990   1.152 -0.5074 -0.6978  0.1538
15836SOL     OW51423   6.930   6.370   5.628 -0.0586 -0.2964 -0.0946
15836SOL    HW151424   6.991   6.397   5.697  0.3908 -0.2129 -0.5167
15836SOL    HW251425   6.970   6.402   5.547  1.5587 -3.8508 -0.8978
15837SOL     OW51426   6.661   2.619   9.135  0.3568 -0.2772 -0.3216
15837SOL    HW151427   6.590   2.678   9.109 -0.0213  0.2316  1.6869
15837SOL    HW251428   6.687   2.650   9.222  0.1242 -3.0621  0.8280
15838SOL     OW51429   7.113   1.612   2.074 -0.2195 -0.0262  0.1723
15838SOL    HW151430   7.054   1.662   2.131  0.1112  0.4738  0.0817
15838SOL    HW251431   7.134   1.533   2.124 -0.8082 -0.1165  0.2847
15839SOL     OW51432   4.053   5.021   6.581  0.0921  0.4841 -0.0193
15839SOL    HW151433   4.061   4.928   6.562 -0.2203  0.4333  0.0855
15839SOL    HW251434   4.142   5.050   6.600  0.8756  1.0486 -3.7584
15840SOL     OW51435   9.891   9.074   5.163  0.1734  0.1119 -0.2559
15840SOL    HW151436   9.927   8.991   5.192 -1.2051 -0.1657  0.7773
15840SOL    HW251437   9.967   9.132   5.154  1.0596 -1.0074 -0.1594
15841SOL     OW51438   4.385   3.324   2.390 -0.8814  0.1322 -0.4963
15841SOL    HW151439   4.393   3.349   2.298  0.9807  0.8054 -0.1993
15841SOL    HW251440   4.475   3.317   2.421 -1.4583 -0.9708  1.0583
15842SOL     OW51441   3.588   6.872   4.079  0.6284 -0.2160  0.4354
15842SOL    HW151442   3.615   6.918   3.999  0.9951 -2.3857 -0.7825
15842SOL    HW251443   3.648   6.903   4.146  2.0134 -0.2187 -0.7467
15843SOL     OW51444   8.172   8.753   2.506  0.5924  0.0142  0.1022
15843SOL    HW151445   8.083   8.780   2.482  0.2828 -1.2753 -0.2526
15843SOL    HW251446   8.192   8.805   2.584 -1.0980 -0.8084  1.1356
15844SOL     OW51447   2.021   5.453   7.482  0.1018 -0.2181  0.1507
15844SOL    HW151448   2.012   5.541   7.521 -0.3614  0.0241 -0.4808
15844SOL    HW251449   2.016   5.468   7.388  0.9438 -0.8313 -0.0025
15845SOL     OW51450   6.082   6.885   5.459 -0.1598  0.2154 -0.4680
15845SOL    HW151451   6.143   6.822   5.421 -0.4537  0.4671 -1.3816
15845SOL    HW251452   6.001   6.835   5.472  0.2949 -0.1889  0.9918
15846SOL     OW51453   8.878   4.330   1.997 -0.2952  0.2899  0.0332
15846SOL    HW151454   8.957   4.277   2.008 -1.6046 -2.4848 -2.2594
15846SOL    HW251455   8.898   4.413   2.039  3.0574 -0.9834  1.3065
15847SOL     OW51456   4.488   0.416   5.125  0.2064  0.0661 -0.4011
15847SOL    HW151457   4.498   0.323   5.143  2.3152  0.4312  0.6461
15847SOL    HW251458   4.492   0.458   5.211 -1.8643  1.0913 -0.7420
15848SOL     OW51459   8.378   5.966   4.399 -0.2982  0.2637  0.6833
15848SOL    HW151460   8.296   5.989   4.355 -0.1522  0.8590  0.7121
15848SOL    HW251461   8.364   5.991   4.491  0.0017  0.5980  0.6414
15849SOL     OW51462   3.483   9.832   8.307 -0.6975  0.3994 -0.0628
15849SOL    HW151463   3.571   9.797   8.296 -1.0762 -0.5807 -0.0797
15849SOL    HW251464   3.485   9.917   8.263  0.1410  0.2421 -0.3443
15850SOL     OW51465   8.003   8.381   8.890  0.6822 -0.2726  0.3683
15850SOL    HW151466   7.964   8.295   8.877  0.1937 -0.4125  2.4972
15850SOL    HW251467   8.097   8.367   8.877  0.4766 -0.8018 -0.6575
15851SOL     OW51468   4.983   9.469   1.527  0.5447 -0.0519  0.4157
15851SOL    HW151469   4.925   9.535   1.488 -0.4399 -0.9853  0.2479
15851SOL    HW251470   4.973   9.392   1.470 -1.0507 -1.5061  2.5089
15852SOL     OW51471   5.465   3.507   4.064 -0.0917  0.1164  0.2972
15852SOL    HW151472   5.477   3.591   4.110 -1.4603  0.4272  0.1360
15852SOL    HW251473   5.467   3.441   4.134  0.1855  0.3629  0.5250
15853SOL     OW51474   1.259   0.854   1.285 -0.1313  0.2864 -0.3621
15853SOL    HW151475   1.318   0.813   1.221 -1.5863 -0.4516 -1.2756
15853SOL    HW251476   1.318   0.902   1.343  1.3301  0.1761 -1.6621
15854SOL     OW51477   7.639   5.091   3.745  0.0294 -0.0789  0.1525
15854SOL    HW151478   7.631   5.176   3.700 -2.3619  0.1242  0.8162
15854SOL    HW251479   7.669   5.031   3.676 -0.8753  0.7859 -1.0561
15855SOL     OW51480   9.402   4.358   3.641  0.0510 -0.0059 -0.2620
15855SOL    HW151481   9.437   4.351   3.729  0.0235  1.0782 -0.1452
15855SOL    HW251482   9.437   4.282   3.594  0.2749 -0.4429  0.6035
15856SOL     OW51483   1.576   1.675  10.112 -0.2053  0.9880 -0.6136
15856SOL    HW151484   1.484   1.695  10.123 -0.0478  1.0475  0.7733
15856SOL    HW251485   1.597   1.615  10.184  0.0716 -1.7444 -2.8101
15857SOL     OW51486   3.845  10.133   0.629  0.2431  0.0480  0.3194
15857SOL    HW151487   3.903  10.061   0.654 -0.6976 -0.6984  0.4088
15857SOL    HW251488   3.763  10.116   0.675  0.2862  1.7002  1.0892
15858SOL     OW51489   7.085  10.111   3.455 -0.2564 -0.2228  0.5707
15858SOL    HW151490   7.030  10.185   3.431 -0.7697 -0.8379 -0.2064
15858SOL    HW251491   7.166  10.124   3.405 -0.8918 -0.9104 -0.6973
15859SOL     OW51492   3.745   6.757   7.388  0.9347  0.1389  0.2058
15859SOL    HW151493   3.652   6.778   7.397  0.5677 -0.0945 -2.2587
15859SOL    HW251494   3.773   6.808   7.312  2.5385 -0.6299  0.2504
15860SOL     OW51495   0.252   6.748   5.819  0.5474  0.3293  0.0591
15860SOL    HW151496   0.298   6.665   5.804  0.8830  0.0794  2.1695
15860SOL    HW251497   0.187   6.752   5.749 -0.6982 -2.5924  0.9099
15861SOL     OW51498   5.988   4.556   3.636  0.3558 -0.3743 -0.1761
15861SOL    HW151499   5.909   4.505   3.653  1.1633 -2.1275 -1.4735
15861SOL    HW251500   5.957   4.647   3.631 -1.0508 -0.5807  2.6596
15862SOL     OW51501   9.553   6.843   1.720 -0.2100  0.0464 -0.4025
15862SOL    HW151502   9.591   6.883   1.642  0.7075  0.4389  0.2167
15862SOL    HW251503   9.499   6.771   1.687 -0.7493  0.9184 -1.4472
15863SOL     OW51504   7.197   9.971   8.673  0.1304  0.2174 -0.4925
15863SOL    HW151505   7.236   9.935   8.593 -0.4341 -1.1314 -0.1879
15863SOL    HW251506   7.249   9.934   8.744 -1.1376 -0.9227 -0.1234
15864SOL     OW51507   0.608   6.674   8.102  0.3014 -0.3268 -0.1283
15864SOL    HW151508   0.540   6.668   8.034  0.2165 -0.3723 -0.0394
15864SOL    HW251509   0.641   6.584   8.110  1.4837 -0.0257 -1.3036
15865SOL     OW51510   7.362   1.195   6.510 -0.1054 -0.0650  0.1321
15865SOL    HW151511   7.455   1.174   6.504  0.8653  2.7126  2.7381
15865SOL    HW251512   7.338   1.222   6.421  1.8549  0.0891 -0.4143
15866SOL     OW51513   8.744   8.815   9.935  0.1786 -0.2936 -0.5184
15866SOL    HW151514   8.782   8.751   9.995  0.2510 -0.6540 -0.9461
15866SOL    HW251515   8.820   8.854   9.891  0.2005  0.7363  0.3789
15867SOL     OW51516   7.439   3.369   8.991 -0.1817  0.1011 -0.1196
15867SOL    HW151517   7.529   3.390   9.014 -0.0999 -1.6993  1.5218
15867SOL    HW251518   7.446   3.308   8.917 -0.1562  1.0911 -0.9562
15868SOL     OW51519   0.610   9.608   6.668 -0.4167  0.2975 -0.0331
15868SOL    HW151520   0.563   9.536   6.625 -0.3786  0.6722 -0.7279
15868SOL    HW251521   0.544   9.654   6.718 -0.6656  0.4155 -0.4620
15869SOL     OW51522   5.493   6.198   6.047 -0.4053 -0.7211  0.2013
15869SOL    HW151523   5.446   6.114   6.046 -2.1532  0.1963  0.7971
15869SOL    HW251524   5.504   6.218   6.140  1.9800 -1.2892  0.1010
15870SOL     OW51525   4.402   3.960   3.942 -0.2279 -0.4156  0.5756
15870SOL    HW151526   4.325   4.011   3.921 -0.7934 -1.1387  0.8535
15870SOL    HW251527   4.443   4.006   4.016  0.5356  0.8830 -0.6166
15871SOL     OW51528   4.988   9.734   1.823  0.3676  0.2136 -0.1850
15871SOL    HW151529   5.021   9.708   1.909 -1.1091 -0.3027  0.2533
15871SOL    HW251530   4.893   9.737   1.833  0.1961  0.6748 -1.6590
15872SOL     OW51531   0.415   5.495   3.661 -0.1941 -0.2500  0.5910
15872SOL    HW151532   0.364   5.542   3.726 -0.4122  0.5788 -0.1604
15872SOL    HW251533   0.361   5.420   3.638 -1.9115  1.4729 -1.3963
15873SOL     OW51534   2.907   4.226   2.013  0.4136  0.3105 -0.1991
15873SOL    HW151535   2.820   4.204   1.981  1.1602  0.2322 -2.3024
15873SOL    HW251536   2.966   4.204   1.941  2.1831  0.4254  1.1335
15874SOL     OW51537   8.990   6.179   4.368  0.0147  0.2668 -0.1669
15874SOL    HW151538   8.935   6.178   4.289  0.5885 -0.4680 -0.5718
15874SOL    HW251539   9.031   6.265   4.367  1.6064 -0.4306 -1.8320
15875SOL     OW51540   0.411   8.522   8.768  0.2671 -0.6219 -0.1650
15875SOL    HW151541   0.468   8.584   8.723 -0.1660 -0.0823  0.0230
15875SOL    HW251542   0.431   8.533   8.861  0.3640 -0.9408 -0.1456
15876SOL     OW51543   4.220   1.994   1.517  0.4169 -0.2185  0.2385
15876SOL    HW151544   4.252   2.082   1.496  2.4160 -1.0201 -0.2504
15876SOL    HW251545   4.125   2.003   1.517  0.5742  2.0088  0.4939
15877SOL     OW51546   9.911   1.730   4.861  0.4037 -0.5431  0.3496
15877SOL    HW151547   9.847   1.734   4.932  1.0242  1.8408  0.8711
15877SOL    HW251548   9.866   1.770   4.786  0.9018  0.1127  0.3985
15878SOL     OW51549   2.506   1.041   6.420  0.3337  0.3464  0.8630
15878SOL    HW151550   2.469   0.963   6.378 -0.2485  0.7387  0.6344
15878SOL    HW251551   2.600   1.024   6.423  0.7629  1.2359 -2.6663
15879SOL     OW51552   5.250   2.493   0.106 -0.0473 -0.3330 -0.1440
15879SOL    HW151553   5.326   2.453   0.064  0.1528  0.3218 -0.4228
15879SOL    HW251554   5.235   2.573   0.056  0.8182  1.0011  1.6139
15880SOL     OW51555   6.727   0.350   4.130 -0.5241 -0.2467 -0.1339
15880SOL    HW151556   6.640   0.347   4.170 -0.2846  3.0209  0.9777
15880SOL    HW251557   6.762   0.436   4.155  1.7088 -0.0377 -3.2930
15881SOL     OW51558   1.260   4.611   6.380 -0.3581  0.1869  1.1324
15881SOL    HW151559   1.330   4.675   6.398  0.1850 -0.5810  1.8219
15881SOL    HW251560   1.304   4.541   6.333 -1.0186  0.4437  0.1010
15882SOL     OW51561  10.026   3.311   2.307 -0.4119  0.6626 -0.4001
15882SOL    HW151562   9.936   3.331   2.333 -0.1098  1.1041  0.3426
15882SOL    HW251563  10.077   3.385   2.340  0.0176  1.2084 -2.1960
15883SOL     OW51564   2.329   9.291   3.492 -0.1131  0.9657 -0.1094
15883SOL    HW151565   2.385   9.300   3.569 -1.0928 -1.2164  0.9399
15883SOL    HW251566   2.287   9.377   3.483 -1.2111  0.8493  2.8411
15884SOL     OW51567   5.622   4.047   1.835 -0.0522  0.2165  0.4093
15884SOL    HW151568   5.637   4.103   1.758  1.1899 -0.6075  0.0070
15884SOL    HW251569   5.563   4.097   1.891 -1.4409  0.6193 -1.3213
15885SOL     OW51570   4.335   4.126   0.709 -0.1310  0.3140  0.4632
15885SOL    HW151571   4.252   4.079   0.700 -0.2198  0.5082  0.2581
15885SOL    HW251572   4.322   4.208   0.661  0.9735 -0.6838 -1.7170
15886SOL     OW51573   1.250   1.251   4.923 -0.1051 -0.2069 -0.0506
15886SOL    HW151574   1.327   1.305   4.906  0.7238 -1.0491  0.9455
15886SOL    HW251575   1.181   1.292   4.871  1.1072  0.2841 -1.3246
15887SOL     OW51576   2.074   9.164   2.177 -0.2759 -0.2183  0.5101
15887SOL    HW151577   2.145   9.177   2.240 -1.0692 -1.7032  1.7811
15887SOL    HW251578   2.015   9.239   2.192 -0.6159 -0.7093  1.8053
15888SOL     OW51579   7.076   1.709   3.815  0.3164  0.0042  0.0082
15888SOL    HW151580   7.012   1.645   3.846  0.8490  0.0509  1.2481
15888SOL    HW251581   7.101   1.758   3.893  1.4406  0.3686 -0.5586
15889SOL     OW51582   2.147   1.586   9.200  0.2633  0.9200 -0.7265
15889SOL    HW151583   2.211   1.606   9.268  0.6112  1.0398 -1.0864
15889SOL    HW251584   2.065   1.621   9.234  0.5758  1.6340 -0.6949
15890SOL     OW51585   5.553   3.929   5.470  0.1041  0.5397 -0.3873
15890SOL    HW151586   5.643   3.916   5.503 -0.2429  1.0689  0.8460
15890SOL    HW251587   5.538   4.023   5.480 -0.1778  0.6502 -1.7262
15891SOL     OW51588   4.988   6.553   5.306 -0.6730 -0.0882  0.2933
15891SOL    HW151589   5.035   6.633   5.328 -3.2911  1.6650 -0.0016
15891SOL    HW251590   4.997   6.546   5.211  0.9754 -1.1615  0.4954
15892SOL     OW51591   2.356   8.977   3.341  0.2716 -0.1318 -0.1187
15892SOL    HW151592   2.332   8.986   3.433  1.4801  1.0969  0.1126
15892SOL    HW251593   2.448   9.002   3.338  0.1154  0.3382 -1.7524
15893SOL     OW51594   1.919   2.857   4.573 -0.4060  0.1754 -0.7043
15893SOL    HW151595   1.961   2.941   4.558  1.4831 -0.6269 -0.2111
15893SOL    HW251596   1.839   2.878   4.621  0.2870  1.6473 -0.1390
15894SOL     OW51597   1.021   1.795   4.165  0.9900 -0.2997  0.5453
15894SOL    HW151598   0.949   1.754   4.215 -1.2190  0.6169 -1.6653
15894SOL    HW251599   0.983   1.875   4.131  4.1641  1.9863  1.9366
15895SOL     OW51600   2.329   9.001   1.987 -0.6784 -0.2685 -0.0927
15895SOL    HW151601   2.386   9.026   1.914 -1.3056 -0.8744 -0.8077
15895SOL    HW251602   2.240   9.015   1.954 -0.9713  1.2087  1.1959
15896SOL     OW51603   2.729   4.225   1.320  0.0087  0.1167  0.2637
15896SOL    HW151604   2.695   4.308   1.287 -0.9548  0.1652  1.2862
15896SOL    HW251605   2.780   4.189   1.248  0.8774  1.8326 -0.0160
15897SOL     OW51606   5.727   7.217   9.666 -0.1002 -0.4865  0.1941
15897SOL    HW151607   5.683   7.230   9.583 -1.8020  0.3069  1.1705
15897SOL    HW251608   5.818   7.200   9.643 -0.4337  0.2246 -1.7818
15898SOL     OW51609   8.613   2.230   5.300  0.1118 -0.3073  0.6878
15898SOL    HW151610   8.697   2.191   5.326 -0.2357 -1.0875  0.6840
15898SOL    HW251611   8.556   2.218   5.376 -0.0001  0.2073  0.6880
15899SOL     OW51612   7.105   8.760   9.224  0.3345  0.0362  0.5223
15899SOL    HW151613   7.019   8.802   9.230 -0.0619 -0.8534  1.3843
15899SOL    HW251614   7.139   8.787   9.139 -1.4348 -0.7520 -0.4951
15900SOL     OW51615   9.821   5.595   9.440 -0.1784  0.6599 -0.4376
15900SOL    HW151616   9.754   5.663   9.435  0.0052  0.8245 -0.6771
15900SOL    HW251617   9.805   5.539   9.365  0.1061  0.8415 -0.6335
15901SOL     OW51618   5.376   8.918   4.178  0.0563  0.4637 -0.2791
15901SOL    HW151619   5.336   9.005   4.179 -0.4409  0.2372  0.2122
15901SOL    HW251620   5.306   8.859   4.207  0.4312 -0.0830 -0.4645
15902SOL     OW51621   2.480   7.825   5.727  0.0006  0.4326 -0.0612
15902SOL    HW151622   2.424   7.897   5.699 -0.8334 -0.3894 -0.5586
15902SOL    HW251623   2.425   7.747   5.720  0.5079 -0.1205  1.6409
15903SOL     OW51624   2.255  10.120   2.583  0.0012 -0.1238 -0.2202
15903SOL    HW151625   2.218  10.108   2.670 -0.1617  0.8848 -0.1323
15903SOL    HW251626   2.185  10.095   2.523 -0.0374 -0.3925 -0.0657
15904SOL     OW51627   9.374   5.694   8.768 -0.1804  0.1932  0.5811
15904SOL    HW151628   9.426   5.712   8.847 -0.4313  0.7807  0.6150
15904SOL    HW251629   9.283   5.705   8.797 -0.4307 -1.9403  0.8304
15905SOL     OW51630   4.642   8.395   2.677  0.5853 -0.2300  0.3890
15905SOL    HW151631   4.702   8.424   2.609 -0.9696  1.3558 -0.3908
15905SOL    HW251632   4.626   8.473   2.730 -0.9230 -0.5300  0.4345
15906SOL     OW51633   9.141   9.992   3.228  0.1904  0.3713  0.3557
15906SOL    HW151634   9.077   9.922   3.215 -0.3110  0.7423  0.7988
15906SOL    HW251635   9.175   9.978   3.317  1.1841 -0.1875 -0.0922
15907SOL     OW51636   4.741   6.148   9.346  0.1803 -0.4762 -0.3291
15907SOL    HW151637   4.816   6.198   9.312 -0.6952  0.5314 -0.8430
15907SOL    HW251638   4.755   6.059   9.314  0.7932 -0.1402 -1.0366
15908SOL     OW51639   4.482   0.559   4.085 -0.7187  0.2806  0.5683
15908SOL    HW151640   4.533   0.622   4.034  0.2229 -0.2325  0.8489
15908SOL    HW251641   4.521   0.563   4.173 -0.7532 -0.5842  0.6271
15909SOL     OW51642   0.704   0.543   8.170 -0.2529 -0.3483  0.0723
15909SOL    HW151643   0.780   0.597   8.149 -0.9049  0.4587 -0.2333
15909SOL    HW251644   0.713   0.466   8.113  2.9351 -2.7673  3.3665
15910SOL     OW51645   3.203   4.409   8.504 -0.3172  0.0223  1.0820
15910SOL    HW151646   3.272   4.370   8.557 -0.0980  0.5125  1.1644
15910SOL    HW251647   3.234   4.401   8.414  0.6707  1.7800  1.2213
15911SOL     OW51648   8.352   1.016   7.569 -0.3430 -0.1453  1.2378
15911SOL    HW151649   8.439   0.995   7.603 -0.5185  0.4382  2.0861
15911SOL    HW251650   8.369   1.072   7.493  0.0261  1.3316  2.3529
15912SOL     OW51651   8.702   7.774   7.721  0.1829  0.1190 -0.1065
15912SOL    HW151652   8.630   7.762   7.782  0.2166  0.6293  0.0388
15912SOL    HW251653   8.778   7.790   7.776  0.4166 -0.4343 -0.2577
15913SOL     OW51654   6.791   3.797   6.337 -0.0282  0.2322  0.5211
15913SOL    HW151655   6.803   3.891   6.320  0.9500 -0.1103 -0.8510
15913SOL    HW251656   6.746   3.765   6.259 -0.7555 -0.3841  1.1744
15914SOL     OW51657   5.328   6.368   8.768  0.5321  0.1581  0.4647
15914SOL    HW151658   5.303   6.276   8.775 -0.5122  0.4419  0.7496
15914SOL    HW251659   5.296   6.394   8.682  1.8127 -0.0131 -0.0859
15915SOL     OW51660   2.012   9.345   4.839  0.1874  0.0153 -0.3908
15915SOL    HW151661   2.106   9.355   4.825  0.2099  1.3352  0.4810
15915SOL    HW251662   1.972   9.404   4.774 -0.0473 -0.5012 -0.7228
15916SOL     OW51663   2.775   7.149   4.999  1.0716  0.1816 -0.0275
15916SOL    HW151664   2.811   7.206   4.931  1.7279  1.5581  1.3984
15916SOL    HW251665   2.812   7.183   5.081  0.7972 -1.7938  0.9741
15917SOL     OW51666   4.195   0.396   5.391 -0.0691  0.1858  0.2618
15917SOL    HW151667   4.281   0.396   5.434  0.7157 -0.9401 -1.2250
15917SOL    HW251668   4.156   0.312   5.416 -0.6943  0.6262  0.8059
15918SOL     OW51669   5.589   4.983   6.486 -0.6867  0.3772  0.3971
15918SOL    HW151670   5.578   5.076   6.506 -0.9484  0.5162 -0.3669
15918SOL    HW251671   5.500   4.949   6.482 -0.5892  0.0796  0.7231
15919SOL     OW51672   2.126   6.140   2.705  0.5676  0.2342  0.3348
15919SOL    HW151673   2.164   6.053   2.717  0.8654  0.4153  0.7309
15919SOL    HW251674   2.032   6.126   2.710  0.4647 -0.4558 -2.1562
15920SOL     OW51675   2.387   5.284   3.508 -0.9005  0.1012  0.4100
15920SOL    HW151676   2.341   5.201   3.515 -0.0628 -0.6778 -2.0374
15920SOL    HW251677   2.458   5.278   3.572 -0.6939 -1.2046  0.0802
15921SOL     OW51678   5.419   2.423   0.616 -0.3061 -0.0212 -0.3141
15921SOL    HW151679   5.394   2.515   0.609 -0.6570 -0.1316 -0.5201
15921SOL    HW251680   5.455   2.414   0.704  1.1443  0.6624 -0.7929
15922SOL     OW51681   3.859   9.427   0.428  0.8815 -0.4795 -0.4357
15922SOL    HW151682   3.858   9.469   0.342 -1.9233  0.0773 -0.2355
15922SOL    HW251683   3.836   9.498   0.489  2.3606 -0.9680  0.7545
15923SOL     OW51684   6.643   4.193   6.486  0.0182  0.1131  0.2449
15923SOL    HW151685   6.638   4.274   6.436 -0.5675  1.0546  1.7722
15923SOL    HW251686   6.704   4.213   6.557 -0.0291 -0.8378  0.5605
15924SOL     OW51687   7.721   2.435   6.256  0.0044  0.9675  0.0333
15924SOL    HW151688   7.809   2.438   6.217 -0.0679  0.6001 -0.1639
15924SOL    HW251689   7.674   2.507   6.215 -0.8000 -0.7991 -2.3675
15925SOL     OW51690   2.417   8.131   2.484  0.3167  0.2970  0.5836
15925SOL    HW151691   2.386   8.067   2.548  1.5603 -0.9440 -0.0092
15925SOL    HW251692   2.361   8.208   2.497 -1.5435 -1.0679  1.0021
15926SOL     OW51693   4.164   6.005   7.841 -0.0660 -0.4760 -0.1084
15926SOL    HW151694   4.123   6.062   7.907  2.4358 -0.1294  1.2601
15926SOL    HW251695   4.118   5.922   7.849 -2.2758  0.6139 -0.5759
15927SOL     OW51696   0.136   5.019   5.954  0.1809 -0.2128  0.1403
15927SOL    HW151697   0.209   4.961   5.975  0.0269  0.5081  3.1568
15927SOL    HW251698   0.178   5.095   5.912  0.8189 -0.8957 -0.4939
15928SOL     OW51699   6.510   7.634   3.392  0.1125 -0.1187  0.0401
15928SOL    HW151700   6.601   7.649   3.364  0.5594  0.0868  1.4951
15928SOL    HW251701   6.464   7.714   3.366 -0.2520 -1.1199 -2.7904
15929SOL     OW51702   8.570   1.973   3.537 -0.1896  0.2078 -0.1523
15929SOL    HW151703   8.526   1.956   3.620 -2.0319  0.4643 -1.0348
15929SOL    HW251704   8.604   2.062   3.546  1.9959 -0.6745  1.2687
15930SOL     OW51705   7.381   2.698   3.360 -0.0621 -0.1855 -0.4108
15930SOL    HW151706   7.423   2.750   3.428 -0.4545  1.8389 -1.6210
15930SOL    HW251707   7.452   2.645   3.323  1.3898  2.4891 -1.8115
15931SOL     OW51708   4.167   2.521   2.630 -0.5117 -0.5917 -0.4019
15931SOL    HW151709   4.080   2.483   2.640  0.1743 -1.7784  1.4293
15931SOL    HW251710   4.200   2.532   2.719  1.0679  0.2373 -1.0325
15932SOL     OW51711  10.074   2.605   2.923 -0.0477 -0.3908  0.1612
15932SOL    HW151712  10.067   2.589   2.829  0.4113 -0.2354  0.0999
15932SOL    HW251713  10.167   2.618   2.939 -0.2524  0.9911  0.4051
15933SOL     OW51714   5.780   5.580   3.752 -0.1043 -0.0967 -0.0994
15933SOL    HW151715   5.725   5.657   3.742 -0.3152 -0.2293  0.0350
15933SOL    HW251716   5.720   5.506   3.745  0.0621 -0.2433  0.0091
15934SOL     OW51717   5.282   8.474   4.649  0.8469 -0.2383  0.1543
15934SOL    HW151718   5.330   8.555   4.666 -0.0440  0.0015  1.7603
15934SOL    HW251719   5.340   8.423   4.592  2.4085  0.5971  0.9308
15935SOL     OW51720   7.491   4.853   4.525 -0.0467 -0.0730 -0.1909
15935SOL    HW151721   7.559   4.853   4.593  0.5817 -3.0058 -0.6698
15935SOL    HW251722   7.408   4.852   4.574  0.3365  0.0123  0.4724
15936SOL     OW51723   5.683   9.356   2.301 -0.3668 -0.4806  0.4037
15936SOL    HW151724   5.688   9.447   2.272  0.7679 -0.4873  0.5300
15936SOL    HW251725   5.769   9.319   2.279 -1.5523 -2.1804 -1.7816
15937SOL     OW51726   1.747   4.569   5.963 -0.3853 -0.4655 -0.4523
15937SOL    HW151727   1.751   4.476   5.941  0.8109 -0.2690 -1.1701
15937SOL    HW251728   1.827   4.606   5.926 -0.3058  0.6630  0.7535
15938SOL     OW51729   6.771   3.948   7.841  0.5667  0.4342  0.1568
15938SOL    HW151730   6.767   3.952   7.746 -3.6493 -0.7217  0.0765
15938SOL    HW251731   6.864   3.952   7.862  1.6052  1.6262 -3.9066
15939SOL     OW51732   3.859   7.917   2.070 -0.4205  0.1137  0.6888
15939SOL    HW151733   3.788   7.883   2.124 -0.1253  0.9292  1.6291
15939SOL    HW251734   3.815   7.969   2.002 -0.9419 -2.8514 -1.4146
15940SOL     OW51735   3.640   3.392   0.586 -0.0666  0.1754  0.4993
15940SOL    HW151736   3.735   3.376   0.585  0.0187  0.6541  0.6159
15940SOL    HW251737   3.613   3.382   0.495  0.4129  1.8389  0.1471
15941SOL     OW51738   5.950   8.719   3.252 -0.0943 -0.2676 -0.3151
15941SOL    HW151739   5.915   8.663   3.321  0.3028  0.0204  0.1202
15941SOL    HW251740   6.012   8.777   3.296  0.5252 -0.3982 -0.9878
15942SOL     OW51741   1.847   8.701   0.592 -0.3264  0.0538  0.0228
15942SOL    HW151742   1.759   8.722   0.561 -1.1564 -0.0063  2.1536
15942SOL    HW251743   1.879   8.783   0.630  1.5623  0.7461 -2.7850
15943SOL     OW51744   8.435   2.115   1.916  0.2794  0.2646 -0.7942
15943SOL    HW151745   8.384   2.053   1.969  0.2969 -0.3205 -1.4455
15943SOL    HW251746   8.504   2.061   1.877  0.6758  0.8228 -0.8738
15944SOL     OW51747   7.433   4.899   2.017  0.3093  0.3351  0.2045
15944SOL    HW151748   7.391   4.813   2.020  0.2845  0.3682  0.9086
15944SOL    HW251749   7.508   4.891   2.076 -0.7306  1.3488  1.7217
15945SOL     OW51750   5.320   4.851   8.795  0.4051  0.7331  0.0609
15945SOL    HW151751   5.331   4.855   8.700 -2.1395 -0.0005 -0.3191
15945SOL    HW251752   5.298   4.940   8.821 -1.6367  0.4213 -0.4762
15946SOL     OW51753   9.705   8.554   2.084  0.0457 -0.7148 -0.1633
15946SOL    HW151754   9.732   8.486   2.145  1.6150 -0.0813 -0.1168
15946SOL    HW251755   9.749   8.633   2.115 -2.4646  0.6090  0.3659
15947SOL     OW51756   9.407   5.468   2.909  0.0367 -0.5192 -0.2205
15947SOL    HW151757   9.416   5.505   2.997 -1.1886 -0.8670  0.0772
15947SOL    HW251758   9.313   5.449   2.901 -0.4862  2.3605 -2.7545
15948SOL     OW51759   9.738   8.500   4.959  0.5246  0.2987  0.2189
15948SOL    HW151760   9.709   8.541   4.878 -1.5648 -1.7078 -0.1604
15948SOL    HW251761   9.706   8.557   5.028  0.4656  0.9245 -0.3185
15949SOL     OW51762   1.127   2.398   6.329 -0.2648 -0.2735  0.0680
15949SOL    HW151763   1.080   2.397   6.245  2.8681  2.6636 -1.9684
15949SOL    HW251764   1.098   2.478   6.371  0.2141 -0.3442  0.5332
15950SOL     OW51765   0.163   0.825   2.997 -0.3497 -0.2999 -0.5062
15950SOL    HW151766   0.070   0.801   2.990 -0.3744 -0.4231  0.2221
15950SOL    HW251767   0.169   0.873   3.080  0.2777 -0.4784 -0.4450
15951SOL     OW51768   7.788   9.674   3.493  0.1453  0.5511  0.0912
15951SOL    HW151769   7.844   9.700   3.566 -0.1116  2.2175 -0.2737
15951SOL    HW251770   7.744   9.754   3.467  0.8290  0.2018 -2.4266
15952SOL     OW51771   7.938   0.433   1.730  0.1416  0.0339 -0.0351
15952SOL    HW151772   8.007   0.367   1.732 -0.2059 -0.4699 -2.2359
15952SOL    HW251773   7.857   0.384   1.743  0.0301  0.3768  0.6476
15953SOL     OW51774   0.934   6.483   8.767 -0.0687 -0.4866  0.0139
15953SOL    HW151775   0.910   6.543   8.837 -1.1204 -0.0994 -0.6697
15953SOL    HW251776   0.978   6.410   8.813 -0.4305 -0.0865  1.0321
15954SOL     OW51777   3.643   9.408   3.525  0.3927 -0.5455  0.4985
15954SOL    HW151778   3.654   9.393   3.618  4.3638  2.8640  0.8787
15954SOL    HW251779   3.594   9.491   3.520 -0.0568 -0.8517 -0.4837
15955SOL     OW51780   9.093   0.588   3.383  0.6850  0.1705 -1.0182
15955SOL    HW151781   9.163   0.529   3.412  1.7740  1.5021 -0.8097
15955SOL    HW251782   9.078   0.645   3.458 -2.2488 -1.4214 -0.2183
15956SOL     OW51783   0.617   7.834   8.183 -0.2713 -0.0869 -0.1547
15956SOL    HW151784   0.604   7.900   8.114 -0.9695  1.8439  1.7250
15956SOL    HW251785   0.531   7.795   8.195  0.1361 -1.4113 -1.2475
15957SOL     OW51786   5.465   3.542   9.171  0.2583 -0.5721  0.3542
15957SOL    HW151787   5.456   3.630   9.209 -1.5037 -0.3173 -0.5818
15957SOL    HW251788   5.547   3.546   9.122  0.0640  0.6524  0.0910
15958SOL     OW51789   8.988   0.527   8.312  0.3617 -0.4601 -0.4723
15958SOL    HW151790   9.059   0.502   8.371  0.5979  2.5354  0.6959
15958SOL    HW251791   9.017   0.496   8.226  0.7652 -3.5047  0.6280
15959SOL     OW51792   4.078   2.568   0.688  0.3383  0.1377 -0.1183
15959SOL    HW151793   4.060   2.660   0.706 -0.8181 -0.2042  0.5768
15959SOL    HW251794   4.024   2.520   0.750  0.2540 -1.0255 -1.0457
15960SOL     OW51795   5.444   5.882   5.505 -0.1368  0.2846 -0.3266
15960SOL    HW151796   5.377   5.834   5.554  0.3307  0.9591  1.0224
15960SOL    HW251797   5.500   5.814   5.467 -0.5056 -0.2570  0.0956
15961SOL     OW51798   1.359   2.044   1.279  0.0224 -0.4108  0.3161
15961SOL    HW151799   1.278   2.086   1.309 -1.2514 -2.9059  0.6711
15961SOL    HW251800   1.420   2.054   1.352 -0.6126 -0.1158  0.8155
15962SOL     OW51801   8.572   4.648   6.567 -0.6417  1.1573 -0.0397
15962SOL    HW151802   8.492   4.653   6.514  0.0552  1.0797 -1.1052
15962SOL    HW251803   8.615   4.568   6.539 -1.3485 -0.1456  2.2479
15963SOL     OW51804   1.500   5.270   1.171  0.5302  0.9944  0.2366
15963SOL    HW151805   1.435   5.204   1.149  0.4617  1.2479 -0.3447
15963SOL    HW251806   1.565   5.224   1.224  0.3718  0.5191  0.0214
15964SOL     OW51807   0.991   4.740   1.542 -0.2757 -0.3318  0.5301
15964SOL    HW151808   0.902   4.739   1.507 -0.1013 -0.5525  0.0818
15964SOL    HW251809   1.027   4.824   1.513 -0.2740 -0.3309  0.5346
15965SOL     OW51810   0.080   5.646   9.599  0.2884 -0.1379  0.0466
15965SOL    HW151811   0.117   5.629   9.513  2.0246 -1.0472  0.9316
15965SOL    HW251812   0.035   5.565   9.623 -0.5216  0.2453 -0.1481
15966SOL     OW51813   2.756   5.948   4.402  0.1295 -0.2860 -0.0276
15966SOL    HW151814   2.716   5.864   4.379  0.6786 -0.8028  0.8269
15966SOL    HW251815   2.683   6.009   4.406 -0.5945 -1.1940  1.4597
15967SOL     OW51816   1.101   7.527   8.447  0.0606  0.5574 -0.1497
15967SOL    HW151817   1.169   7.463   8.469  0.9601  1.2436 -0.8640
15967SOL    HW251818   1.077   7.506   8.357 -0.0549  0.8707 -0.1906
15968SOL     OW51819   8.911   1.105   0.206  0.0685  0.1458  0.1655
15968SOL    HW151820   8.869   1.133   0.287  0.5391  1.0434  0.1154
15968SOL    HW251821   8.936   1.014   0.222  0.0431  0.2736  0.9760
15969SOL     OW51822   4.634   0.736   3.927  0.0408 -0.6311  0.1188
15969SOL    HW151823   4.709   0.746   3.868  1.5043 -0.2734  1.9521
15969SOL    HW251824   4.633   0.817   3.979 -1.4428 -0.7595  0.3565
15970SOL     OW51825   0.616   5.874   0.919  0.4512 -0.3396 -0.0854
15970SOL    HW151826   0.552   5.911   0.981  0.9656  2.3176 -1.0353
15970SOL    HW251827   0.701   5.900   0.954  0.8596 -1.0083 -0.5712
15971SOL     OW51828   6.087   8.336   4.731 -0.1742  0.0294  0.1298
15971SOL    HW151829   6.099   8.349   4.637 -3.6178  0.5253 -0.3559
15971SOL    HW251830   6.041   8.253   4.738  1.0738 -0.5855  1.5223
15972SOL     OW51831   2.039   4.379   2.388  0.1998 -0.7595  0.3414
15972SOL    HW151832   2.028   4.470   2.415  0.4844 -1.3913  2.9052
15972SOL    HW251833   2.057   4.383   2.294 -1.2323  1.6904  0.0985
15973SOL     OW51834   0.843   3.177   3.280 -0.0696  0.2326 -0.4520
15973SOL    HW151835   0.864   3.205   3.191 -0.8460 -0.5405 -0.8913
15973SOL    HW251836   0.756   3.138   3.273  0.8445 -2.0733  0.1610
15974SOL     OW51837   7.982   5.770   2.771 -0.6394 -0.1721  0.7292
15974SOL    HW151838   8.005   5.719   2.694  0.1767  3.0764 -1.4026
15974SOL    HW251839   8.064   5.775   2.821 -0.3212  0.2035  0.1881
15975SOL     OW51840   3.463   6.655   4.588 -0.3733  0.2002  0.2527
15975SOL    HW151841   3.439   6.694   4.504  0.2469 -0.1413 -0.0863
15975SOL    HW251842   3.406   6.699   4.652 -0.9709  0.3352 -0.3645
15976SOL     OW51843   8.850   0.427   1.473 -0.3913 -0.5210 -0.9195
15976SOL    HW151844   8.888   0.513   1.488  0.9949 -1.1149 -0.8837
15976SOL    HW251845   8.893   0.395   1.394 -0.3250 -1.4852 -0.5063
15977SOL     OW51846   3.791   7.501   2.203  0.5648 -0.4326 -0.5504
15977SOL    HW151847   3.738   7.455   2.268  0.9671 -0.4801 -0.2476
15977SOL    HW251848   3.831   7.573   2.252 -2.2649  2.0573 -1.5867
15978SOL     OW51849   5.493   9.929   1.357 -0.0766  0.1304  0.1681
15978SOL    HW151850   5.453   9.843   1.367 -0.6857  0.5058  1.1613
15978SOL    HW251851   5.577   9.921   1.403 -0.3235  0.1863  0.6333
15979SOL     OW51852   3.878   3.589   8.061  0.2411 -0.3505  0.9054
15979SOL    HW151853   3.903   3.570   7.971 -0.1695  1.4740  0.3679
15979SOL    HW251854   3.864   3.503   8.101  0.9969 -1.2033 -0.5882
15980SOL     OW51855   0.010   6.112   1.298 -0.4696  0.7816 -0.2918
15980SOL    HW151856   0.040   6.170   1.368  0.2273 -0.4604  0.4795
15980SOL    HW251857   0.090   6.073   1.263 -0.9663 -0.5154 -0.0584
15981SOL     OW51858   0.174   9.834   4.427  0.4179  0.0561  0.4849
15981SOL    HW151859   0.083   9.815   4.405  0.0689 -2.9703  3.6458
15981SOL    HW251860   0.225   9.770   4.376  0.4280 -0.5640  1.2547
15982SOL     OW51861   8.017   8.944   6.519  0.3673  0.1155  0.4750
15982SOL    HW151862   8.036   8.932   6.612  1.4176  0.2971  0.3032
15982SOL    HW251863   8.103   8.963   6.480 -0.3920  2.8370 -0.0934
15983SOL     OW51864   1.276   2.334   7.119 -0.5928 -0.4299  0.5105
15983SOL    HW151865   1.348   2.286   7.079  0.5355  1.0943  0.6381
15983SOL    HW251866   1.199   2.310   7.067  0.3726 -0.5331 -0.9126
15984SOL     OW51867   6.620   2.906   4.879 -0.5239  0.2848 -0.2282
15984SOL    HW151868   6.705   2.879   4.913 -1.1186  0.7802  1.7977
15984SOL    HW251869   6.609   2.997   4.909 -1.8112  0.1924 -0.3346
15985SOL     OW51870   6.112   6.714   1.331  0.2015  0.0523 -0.6274
15985SOL    HW151871   6.157   6.726   1.414  0.3335 -1.3627 -0.4721
15985SOL    HW251872   6.130   6.623   1.306  0.0685  0.4135 -2.1444
15986SOL     OW51873   6.752   5.272   5.133  0.7523 -0.3285  0.0795
15986SOL    HW151874   6.826   5.291   5.191  0.0282 -0.3488  1.0233
15986SOL    HW251875   6.705   5.356   5.127  0.8942 -0.2933 -0.5865
15987SOL     OW51876   8.447   8.649   0.639 -0.1442 -0.0425  0.1037
15987SOL    HW151877   8.493   8.572   0.606  4.0794  1.5975  1.4301
15987SOL    HW251878   8.430   8.629   0.732 -0.4393  0.0392  0.0669
15988SOL     OW51879   2.349   5.614   8.412  0.1177  0.2093 -0.2452
15988SOL    HW151880   2.416   5.546   8.408  0.8426  0.8662  0.3960
15988SOL    HW251881   2.291   5.596   8.338  0.6396 -0.7435 -0.4323
15989SOL     OW51882   1.580   1.612   9.787 -0.2235  0.0086 -0.4056
15989SOL    HW151883   1.496   1.642   9.820 -1.6788 -3.1390 -0.8518
15989SOL    HW251884   1.626   1.577   9.864 -0.3603 -0.4512 -0.5306
15990SOL     OW51885   3.542   1.335   4.076 -0.2287 -0.0411  0.3473
15990SOL    HW151886   3.457   1.308   4.042 -1.4404  1.1001  2.2083
15990SOL    HW251887   3.535   1.320   4.171  0.9832  1.6495  0.7537
15991SOL     OW51888   2.452   9.653   3.031 -0.4460 -0.2935  0.4272
15991SOL    HW151889   2.536   9.684   3.065  0.0599 -0.8962 -0.2612
15991SOL    HW251890   2.421   9.590   3.096 -0.2266 -0.2889  0.5366
15992SOL     OW51891   7.138   2.520   3.996 -0.0124 -0.4497 -0.0483
15992SOL    HW151892   7.170   2.431   3.985 -0.8850 -0.7282 -0.4101
15992SOL    HW251893   7.064   2.511   4.056  0.0375  0.0664  0.0959
15993SOL     OW51894   9.859   7.013   1.048  0.4712 -0.0051 -0.0368
15993SOL    HW151895   9.913   7.077   1.000 -0.1546 -0.2683 -1.1233
15993SOL    HW251896   9.796   7.066   1.096  0.4969  0.2324 -0.2607
15994SOL     OW51897   0.133   7.957   8.767  0.1548 -0.3637 -0.1794
15994SOL    HW151898   0.047   7.958   8.809  0.0682 -0.0178 -0.3585
15994SOL    HW251899   0.115   7.983   8.676  0.5054  0.1878 -0.0984
15995SOL     OW51900   2.010   0.239   2.178  0.1434 -0.3676 -0.1987
15995SOL    HW151901   1.968   0.268   2.259 -0.1738 -2.5362  0.4798
15995SOL    HW251902   2.098   0.275   2.182 -0.6965  1.8310 -0.2429
15996SOL     OW51903   4.804   5.993   3.438 -0.5020  0.0941 -0.0505
15996SOL    HW151904   4.816   6.028   3.349  0.2237  0.4013  0.1632
15996SOL    HW251905   4.867   5.921   3.444 -0.1498  0.4288  0.3960
15997SOL     OW51906   8.932   2.278   4.361  0.0433 -0.3123  0.3434
15997SOL    HW151907   8.936   2.206   4.423 -0.6094  0.1324  0.9277
15997SOL    HW251908   8.849   2.266   4.315  1.2415 -1.5575 -1.6360
15998SOL     OW51909   1.514   3.053   7.898 -0.4014 -0.2107  0.3811
15998SOL    HW151910   1.582   3.119   7.906 -0.3933 -0.1980  0.2041
15998SOL    HW251911   1.516   3.006   7.982 -0.4459  0.0484  0.5266
15999SOL     OW51912   4.653   3.159   6.343 -0.2490  0.7360  0.3995
15999SOL    HW151913   4.573   3.138   6.390 -0.4372 -1.6239 -0.8096
15999SOL    HW251914   4.723   3.147   6.408 -0.3919 -3.5932  0.0689
16000SOL     OW51915   9.014   8.533   2.176 -0.0361 -0.5275 -0.1639
16000SOL    HW151916   9.038   8.526   2.084  0.6959 -0.8207  0.0377
16000SOL    HW251917   8.999   8.626   2.191 -0.2310 -0.4899 -0.5981
16001SOL     OW51918   5.074   6.949   0.581  0.5007  0.5027  0.0728
16001SOL    HW151919   5.146   6.910   0.630 -0.3566 -2.4681 -0.8190
16001SOL    HW251920   5.064   6.894   0.504 -2.5567  0.9188  0.0431
16002SOL     OW51921   0.152   2.735   3.796 -0.3727  0.1884 -0.0459
16002SOL    HW151922   0.205   2.659   3.773 -1.2394 -0.8236  1.1282
16002SOL    HW251923   0.178   2.803   3.734  1.8235 -0.4546  0.0917
16003SOL     OW51924   4.722   4.322   9.634  0.3430 -0.5230  0.3770
16003SOL    HW151925   4.645   4.367   9.670  0.1363  1.1059 -1.8864
16003SOL    HW251926   4.797   4.364   9.678  0.0155 -1.5240  1.9630
16004SOL     OW51927   5.282   8.517   8.087 -0.2258  0.1152 -0.0112
16004SOL    HW151928   5.305   8.480   8.002  1.8347 -1.5749  1.1779
16004SOL    HW251929   5.211   8.462   8.119  2.1932 -2.4815  1.3339
16005SOL     OW51930   9.412   8.615   3.819 -0.0972  0.3048  0.0737
16005SOL    HW151931   9.446   8.533   3.855  0.6782 -0.4929 -2.3154
16005SOL    HW251932   9.321   8.596   3.798  0.5492 -0.6343 -2.1881
16006SOL     OW51933   5.279   1.392   1.383 -0.0233 -0.0600  0.1015
16006SOL    HW151934   5.277   1.467   1.324  1.0534 -1.8416 -2.3842
16006SOL    HW251935   5.362   1.400   1.429 -0.6332  1.0604  1.0766
16007SOL     OW51936   3.187   9.547   8.081  0.2202  0.5781 -0.0131
16007SOL    HW151937   3.110   9.596   8.109 -0.7602  0.4517 -2.2254
16007SOL    HW251938   3.241   9.613   8.036  0.7818  0.3945  0.3839
16008SOL     OW51939   5.965   8.811   8.350  0.0052 -0.2616 -0.0437
16008SOL    HW151940   5.891   8.818   8.289  0.4754 -0.7951 -0.6914
16008SOL    HW251941   5.986   8.901   8.373 -1.3081 -0.1284  0.7220
16009SOL     OW51942   8.038   5.286   1.362  0.1588 -0.0890  0.2418
16009SOL    HW151943   7.960   5.232   1.376 -0.0536  0.1685  0.0669
16009SOL    HW251944   8.050   5.333   1.444  0.1246 -0.1247  0.2673
16010SOL     OW51945   7.407   1.786   0.372  0.0342 -0.2115 -0.0744
16010SOL    HW151946   7.502   1.799   0.361 -0.3862  2.7421 -1.3539
16010SOL    HW251947   7.396   1.764   0.464  1.9630 -0.4329  0.1510
16011SOL     OW51948   7.221   9.491   4.770  0.3592 -0.4103  0.8846
16011SOL    HW151949   7.281   9.506   4.843  0.9263 -0.9751  0.5498
16011SOL    HW251950   7.269   9.432   4.712  0.5376  1.2080 -0.7111
16012SOL     OW51951   9.733  10.073   5.179 -0.5224 -0.0313  0.5640
16012SOL    HW151952   9.700   9.988   5.150  2.4832 -0.9943 -0.4127
16012SOL    HW251953   9.772  10.111   5.100  0.0980  1.2698  1.4727
16013SOL     OW51954   9.130   5.903   7.187 -0.3859  0.3352  0.1569
16013SOL    HW151955   9.200   5.856   7.232  0.2608  1.1551  0.0534
16013SOL    HW251956   9.139   5.993   7.218 -1.3653  0.4624  0.0919
16014SOL     OW51957   6.869   9.333  10.176  0.3947 -0.1945  0.7734
16014SOL    HW151958   6.924   9.290  10.111  1.6467  0.9328  1.0415
16014SOL    HW251959   6.918   9.324  10.258  0.5163  1.3550  0.9055
16015SOL     OW51960   8.046   4.027   4.163 -0.0429  0.2622 -0.2357
16015SOL    HW151961   8.059   3.965   4.090  0.2399  0.6285 -0.5017
16015SOL    HW251962   7.952   4.027   4.178  0.1207 -2.1079  1.4201
16016SOL     OW51963   7.302   3.006   2.924  0.0862  0.3678  0.4249
16016SOL    HW151964   7.299   2.922   2.970  1.9692 -0.7573 -1.3554
16016SOL    HW251965   7.233   3.058   2.965 -2.9921 -2.9124 -0.0497
16017SOL     OW51966   7.385   8.751   6.808  0.1438 -0.8969 -0.4564
16017SOL    HW151967   7.394   8.846   6.810 -1.5832 -0.7044  0.8473
16017SOL    HW251968   7.420   8.725   6.723 -0.6184  1.0757 -1.4364
16018SOL     OW51969   9.180   4.502   8.829  0.4389  0.4560  0.1757
16018SOL    HW151970   9.239   4.575   8.810 -1.4759  2.2964  0.8326
16018SOL    HW251971   9.179   4.496   8.925 -0.8826  0.8981  0.2086
16019SOL     OW51972   7.131   8.852   4.289 -0.1881 -0.5838  0.0997
16019SOL    HW151973   7.112   8.781   4.228 -0.4881 -2.2764  2.0336
16019SOL    HW251974   7.047   8.869   4.333  0.2562 -0.2036  0.8266
16020SOL     OW51975   1.770   5.781   5.108  0.1360  0.3008 -0.3329
16020SOL    HW151976   1.714   5.805   5.182 -0.0971 -0.0214 -0.4014
16020SOL    HW251977   1.825   5.710   5.140 -0.3682 -0.2396 -0.6303
16021SOL     OW51978   7.989   3.214   0.922 -0.3513  0.4741 -0.3437
16021SOL    HW151979   8.080   3.214   0.950 -0.3984 -0.8724 -0.1555
16021SOL    HW251980   7.989   3.169   0.838 -0.9364 -0.1434 -0.0199
16022SOL     OW51981  10.141   7.100   7.964  0.1434 -0.4242 -0.0576
16022SOL    HW151982  10.136   7.118   7.871  1.8198 -2.3627 -0.6070
16022SOL    HW251983  10.219   7.147   7.994  0.5433 -1.1002 -0.0100
16023SOL     OW51984   3.093   3.719   6.633  0.1731  0.2665  0.1401
16023SOL    HW151985   3.163   3.719   6.568  0.6388  0.7067  0.6310
16023SOL    HW251986   3.034   3.789   6.604  0.4274  0.5235  0.2331
16024SOL     OW51987   1.176   4.242   4.439 -0.5084  0.1887 -0.4476
16024SOL    HW151988   1.175   4.253   4.344 -0.1335 -2.5118 -0.8295
16024SOL    HW251989   1.266   4.218   4.460 -1.0846 -1.5542  0.2285
16025SOL     OW51990   4.901   6.734   9.191  0.0363  0.2615 -0.4068
16025SOL    HW151991   4.946   6.699   9.268  1.6655 -0.2550 -1.5292
16025SOL    HW251992   4.856   6.812   9.222  0.3990 -0.1045  1.1150
16026SOL     OW51993   5.486   5.507   7.358  0.2838  0.0309  0.1397
16026SOL    HW151994   5.463   5.501   7.450  0.2736 -1.9825  0.0395
16026SOL    HW251995   5.546   5.581   7.353 -0.4202  0.7284  1.5915
16027SOL     OW51996   2.291   0.254   2.209  0.5314  0.2230 -0.1101
16027SOL    HW151997   2.319   0.345   2.204  1.4595 -0.0085  0.6399
16027SOL    HW251998   2.367   0.206   2.243 -0.7708 -0.3969  2.1255
16028SOL     OW51999   2.597   2.106   7.486 -0.2458 -0.2651 -0.3184
16028SOL    HW152000   2.596   2.010   7.482 -0.9342 -0.2269 -1.4824
16028SOL    HW252001   2.572   2.134   7.398  1.7635  0.9983 -0.5391
16029SOL     OW52002   8.552   5.120   1.154 -0.0984 -0.3970  0.3179
16029SOL    HW152003   8.580   5.186   1.091  1.3463 -2.3099 -1.1553
16029SOL    HW252004   8.629   5.104   1.208 -0.0574 -1.6462 -0.0768
16030SOL     OW52005   9.312   6.483   7.475 -0.8536 -0.1183  0.1673
16030SOL    HW152006   9.249   6.434   7.422 -1.6844 -0.6792  1.6030
16030SOL    HW252007   9.262   6.557   7.509 -0.3152  0.2734  0.1038
16031SOL     OW52008   7.477   6.752   6.285  0.1816  0.3580  0.9313
16031SOL    HW152009   7.495   6.780   6.375 -1.0500 -1.3117  1.7510
16031SOL    HW252010   7.382   6.738   6.283 -0.2551  2.8724 -1.4171
16032SOL     OW52011   6.176   2.487   9.430  0.1913  0.2871 -0.1492
16032SOL    HW152012   6.116   2.561   9.442 -0.9646 -0.3385 -1.7113
16032SOL    HW252013   6.161   2.458   9.340  1.5695 -1.0344 -0.0010
16033SOL     OW52014   7.913   0.150   5.671 -0.2814  0.4566  0.7063
16033SOL    HW152015   7.949   0.213   5.733  0.7005 -0.0020  0.6256
16033SOL    HW252016   7.968   0.072   5.681  1.1623  0.9916 -2.0647
16034SOL     OW52017   5.301   5.084   9.890  0.0318 -0.1026  0.4336
16034SOL    HW152018   5.284   5.004   9.939  0.0539 -0.9719 -0.8983
16034SOL    HW252019   5.376   5.124   9.934  0.3443 -1.0854  0.8314
16035SOL     OW52020   4.534   6.429   7.387 -0.1137  0.6497 -0.3332
16035SOL    HW152021   4.512   6.338   7.371  1.2556  0.3294 -0.5363
16035SOL    HW252022   4.501   6.447   7.476 -0.3199 -0.0613 -0.2619
16036SOL     OW52023   5.922   6.669   9.511  0.2575  0.2076 -0.4894
16036SOL    HW152024   5.970   6.626   9.583  0.4228 -1.6612 -1.6305
16036SOL    HW252025   5.987   6.679   9.442 -0.3059  0.3471 -1.0077
16037SOL     OW52026   5.186   1.610   2.680  0.2186  0.3527  0.3032
16037SOL    HW152027   5.105   1.560   2.693 -0.7001  1.5595 -0.6199
16037SOL    HW252028   5.207   1.599   2.587  0.4862  0.9638  0.2856
16038SOL     OW52029   4.500   5.083   1.993  0.1330 -0.3301 -0.5146
16038SOL    HW152030   4.425   5.134   2.024  0.5499  1.4348 -2.1829
16038SOL    HW252031   4.467   4.993   1.988 -1.7438  0.3113 -0.7314
16039SOL     OW52032   3.413   7.318   4.829 -0.2413 -0.6558 -0.1553
16039SOL    HW152033   3.389   7.265   4.754 -0.7049  0.0618 -0.5331
16039SOL    HW252034   3.398   7.408   4.800 -1.3168 -0.4014  1.0902
16040SOL     OW52035   0.124   5.334   4.874 -0.1441 -0.1613  0.1770
16040SOL    HW152036   0.038   5.294   4.886 -1.4208  1.6610 -2.1254
16040SOL    HW252037   0.171   5.273   4.817  0.0558 -1.0398  1.2439
16041SOL     OW52038   7.639   6.274   8.317  0.0349 -0.3244 -0.0397
16041SOL    HW152039   7.549   6.290   8.286  0.1685  0.2013 -0.1766
16041SOL    HW252040   7.638   6.304   8.408  0.3260  0.6526 -0.3415
16042SOL     OW52041   0.156   7.536   3.035  0.0426 -0.0147  0.6161
16042SOL    HW152042   0.225   7.596   3.063  0.4346  0.3357 -1.0254
16042SOL    HW252043   0.083   7.592   3.012  0.7633 -0.0217 -1.9355
16043SOL     OW52044   6.559   9.777   7.812 -0.1682  0.3445 -0.1021
16043SOL    HW152045   6.473   9.753   7.777 -1.1149  2.2639  0.7557
16043SOL    HW252046   6.549   9.869   7.839  2.0493  0.5008  0.3646
16044SOL     OW52047   6.804   3.010   2.361  0.0084 -0.5650  0.0210
16044SOL    HW152048   6.732   2.954   2.331 -0.5443 -0.7928  1.6758
16044SOL    HW252049   6.767   3.097   2.367  0.1330 -0.5085 -0.0194
16045SOL     OW52050   7.003   8.354   2.640 -0.1429 -0.1884  0.2725
16045SOL    HW152051   7.038   8.293   2.705  1.6897  0.6439  0.1312
16045SOL    HW252052   7.060   8.431   2.647 -0.8926  0.5383 -1.2322
16046SOL     OW52053   7.458   8.177   4.568  0.6869  0.0789  0.3166
16046SOL    HW152054   7.474   8.087   4.538 -0.3440  0.2544 -0.8378
16046SOL    HW252055   7.471   8.173   4.663  1.8055 -1.0201  0.1557
16047SOL     OW52056  10.113   8.340   3.126 -0.3449 -0.0462 -0.2464
16047SOL    HW152057  10.078   8.429   3.130 -0.1597  0.0168  0.0172
16047SOL    HW252058  10.117   8.312   3.217  1.1301  0.2869 -0.1863
16048SOL     OW52059   8.213   9.524   7.081  0.3343 -0.0705 -0.2177
16048SOL    HW152060   8.175   9.484   7.002 -0.9757 -1.6684  1.1508
16048SOL    HW252061   8.154   9.595   7.102  1.2673  1.0475 -1.2152
16049SOL     OW52062   2.755   6.852   0.547  0.9193  0.0774  0.2901
16049SOL    HW152063   2.717   6.923   0.599  1.3939  1.6895 -1.4346
16049SOL    HW252064   2.704   6.853   0.466  1.0301 -1.4904  0.1774
16050SOL     OW52065   7.065   9.980   6.389  0.3300  0.0338 -0.0031
16050SOL    HW152066   7.019  10.013   6.466  0.1422 -0.3098  0.0347
16050SOL    HW252067   7.038   9.888   6.383  3.4838 -1.2095  1.9657
16051SOL     OW52068   0.993   7.533   9.840  0.5991 -0.5043 -0.0700
16051SOL    HW152069   0.964   7.552   9.751 -0.0322  1.6731  0.5284
16051SOL    HW252070   1.085   7.562   9.841  0.4689 -0.0853  0.0899
16052SOL     OW52071   4.354   5.242   8.403  0.8078  0.3240 -0.2274
16052SOL    HW152072   4.343   5.246   8.498  2.8929  2.4389 -0.0086
16052SOL    HW252073   4.335   5.330   8.372  0.4792 -0.2478 -1.7829
16053SOL     OW52074   2.938   8.383   4.451  0.3050 -0.1354 -0.2454
16053SOL    HW152075   3.013   8.396   4.393  0.8817 -2.6870 -0.1572
16053SOL    HW252076   2.977   8.370   4.537 -0.2981 -0.4883 -0.0245
16054SOL     OW52077   4.633   7.213   5.874 -0.1217  0.0318  0.3319
16054SOL    HW152078   4.603   7.130   5.909  0.6619 -0.7211 -0.7077
16054SOL    HW252079   4.582   7.226   5.794 -1.9005  1.7333  1.6491
16055SOL     OW52080   8.805   4.086   3.225 -0.5110 -0.4856  0.3342
16055SOL    HW152081   8.865   4.033   3.278  1.2277 -0.5285 -1.5562
16055SOL    HW252082   8.845   4.172   3.222 -0.8084 -0.3695 -0.5496
16056SOL     OW52083   0.866   4.654   5.772  0.5062  0.5332 -0.2859
16056SOL    HW152084   0.797   4.711   5.805 -0.0205 -0.6668  0.7729
16056SOL    HW252085   0.919   4.633   5.850  1.8617  1.1465 -1.0149
16057SOL     OW52086   2.759   0.276   4.260 -0.0241 -0.4642  0.0061
16057SOL    HW152087   2.730   0.209   4.322 -0.5868 -0.8712 -0.6898
16057SOL    HW252088   2.682   0.295   4.206  0.5517 -0.3988 -0.8168
16058SOL     OW52089   3.975   5.495   5.643  0.1706 -0.2927 -0.7969
16058SOL    HW152090   3.912   5.431   5.609 -0.7226  0.3565 -0.3789
16058SOL    HW252091   3.981   5.476   5.736 -0.8185  0.8136 -0.4846
16059SOL     OW52092   4.765   2.696   1.280  0.1477  0.0829  0.3017
16059SOL    HW152093   4.696   2.753   1.246 -0.7249 -0.8747  0.4307
16059SOL    HW252094   4.807   2.660   1.202  1.5840  1.8529  0.1714
16060SOL     OW52095   6.650   4.577   0.681 -0.0183 -0.1287  0.0705
16060SOL    HW152096   6.564   4.546   0.709  0.3283 -0.4126  0.8695
16060SOL    HW252097   6.678   4.513   0.615  0.2937 -1.0178  1.0379
16061SOL     OW52098   8.038   9.459   1.757  0.1860 -0.3286 -0.0276
16061SOL    HW152099   8.111   9.449   1.695 -0.5904  0.8076 -1.1674
16061SOL    HW252100   7.973   9.396   1.727  0.4524 -0.9207  0.6284
16062SOL     OW52101   3.633   9.587   5.794 -0.0111  0.7673  0.0927
16062SOL    HW152102   3.548   9.627   5.813 -1.0055 -1.5395  0.8941
16062SOL    HW252103   3.612   9.496   5.774  2.1280  0.5680 -1.5430
16063SOL     OW52104   2.856   7.000   2.459  0.1777 -0.0851  0.0904
16063SOL    HW152105   2.787   7.019   2.396  0.0492 -0.4884  0.1048
16063SOL    HW252106   2.904   7.082   2.469  0.3050 -0.0668 -0.6635
16064SOL     OW52107   7.982   1.741   3.234 -0.0617  0.3595  0.1037
16064SOL    HW152108   7.976   1.707   3.145 -0.5482 -1.2943  0.7212
16064SOL    HW252109   8.024   1.827   3.225 -0.2037  0.2725 -1.7094
16065SOL     OW52110   3.623   1.021   0.973 -0.2955 -0.2998 -0.0805
16065SOL    HW152111   3.571   1.043   0.896  0.8746  0.1205 -0.7879
16065SOL    HW252112   3.561   0.982   1.035 -1.2167 -0.8661 -1.3235
16066SOL     OW52113   9.086   4.263   3.015 -0.0548 -0.5721 -0.6667
16066SOL    HW152114   9.102   4.357   3.011  1.0521 -0.6065  1.5496
16066SOL    HW252115   9.121   4.229   2.933  1.5242  0.6986 -0.5505
16067SOL     OW52116   8.170   1.414   8.324 -0.1547 -0.1943  0.0739
16067SOL    HW152117   8.230   1.376   8.261 -1.1413 -2.2759  0.3013
16067SOL    HW252118   8.143   1.497   8.285  0.4672 -0.6955 -1.4934
16068SOL     OW52119   0.649   8.294   4.712  1.2549  0.0702 -0.5926
16068SOL    HW152120   0.556   8.316   4.704  1.3221 -0.0153 -1.7240
16068SOL    HW252121   0.656   8.206   4.676  1.7628  0.0514 -0.4509
16069SOL     OW52122   8.434   1.744   8.491  0.1536 -0.2270 -0.0412
16069SOL    HW152123   8.343   1.748   8.461 -0.3704 -0.6787  1.4119
16069SOL    HW252124   8.457   1.651   8.486  1.0475  0.0501 -1.7697
16070SOL     OW52125   1.623   5.545   2.408 -0.3005  0.2572  0.3538
16070SOL    HW152126   1.574   5.607   2.462 -0.1315  0.0594  0.7365
16070SOL    HW252127   1.647   5.475   2.468  1.2913  0.8036  0.3809
16071SOL     OW52128   3.455   3.641   0.972  0.5338 -0.9215  0.2267
16071SOL    HW152129   3.541   3.678   0.992  0.1240  1.3305 -1.6816
16071SOL    HW252130   3.456   3.628   0.877 -2.0538  1.7924 -0.3254
16072SOL     OW52131   4.020   3.942   2.079 -0.3108 -0.4192 -0.1954
16072SOL    HW152132   4.003   4.035   2.093  2.8267  0.5698 -1.9649
16072SOL    HW252133   4.110   3.939   2.046  0.2817 -4.2380  1.2345
16073SOL     OW52134   5.967  10.183   9.841  0.3077 -0.0647  0.0167
16073SOL    HW152135   5.892  10.124   9.829  0.3584 -0.2291  0.4980
16073SOL    HW252136   5.928  10.268   9.858  0.2264 -0.1948  0.4910
16074SOL     OW52137   3.350   9.811   0.227 -0.3647  0.2903 -0.1377
16074SOL    HW152138   3.266   9.834   0.266 -0.5835 -0.4046 -0.1863
16074SOL    HW252139   3.331   9.804   0.133 -0.1402  0.6201 -0.2096
16075SOL     OW52140   5.168   6.215   0.658  0.2611 -0.0404  0.2677
16075SOL    HW152141   5.184   6.253   0.571  0.4918 -0.1351  0.2693
16075SOL    HW252142   5.235   6.254   0.714 -1.5892  2.2707  1.0849
16076SOL     OW52143   5.935   5.719   4.939  0.6719 -0.0048 -0.1275
16076SOL    HW152144   5.940   5.624   4.952 -1.0839 -0.2047 -0.6052
16076SOL    HW252145   5.948   5.730   4.845 -0.1699  0.1028 -0.2408
16077SOL     OW52146   8.230   9.276   9.404 -0.0009  0.0362  0.3035
16077SOL    HW152147   8.192   9.330   9.473  1.1589 -1.3096  2.1147
16077SOL    HW252148   8.312   9.320   9.381  0.4055 -0.3266  0.9957
16078SOL     OW52149   8.189   7.937   1.537  0.6724  0.5199 -0.0488
16078SOL    HW152150   8.162   7.845   1.529  0.8708  0.4483  0.0754
16078SOL    HW252151   8.135   7.971   1.608  0.5612  0.5122 -0.1301
16079SOL     OW52152   0.316   7.109   6.192  0.0617  0.0969 -0.3371
16079SOL    HW152153   0.244   7.161   6.227  0.2955  0.4948 -0.4360
16079SOL    HW252154   0.282   7.072   6.111  0.0449  0.4932 -0.5166
16080SOL     OW52155   1.936   9.224   7.027 -0.5683  0.5467 -0.1635
16080SOL    HW152156   1.841   9.223   7.041 -0.4340  0.7917  0.9097
16080SOL    HW252157   1.971   9.259   7.109  0.4612  0.3356 -0.5011
16081SOL     OW52158   4.497   8.003   6.932  0.3100  0.6876  0.0766
16081SOL    HW152159   4.527   7.933   6.875  0.0714 -0.4253  1.2606
16081SOL    HW252160   4.570   8.018   6.992  0.5141  1.7571 -0.4258
16082SOL     OW52161   6.431   5.340   5.998  0.1338 -0.1227  0.0804
16082SOL    HW152162   6.395   5.363   6.083  1.6016  0.1380  0.6690
16082SOL    HW252163   6.520   5.375   6.000  1.2120 -2.6064 -0.3943
16083SOL     OW52164   3.288   6.798   4.722 -0.1072 -0.0986 -0.3480
16083SOL    HW152165   3.356   6.848   4.767 -0.1159  1.7941 -2.2756
16083SOL    HW252166   3.206   6.834   4.756 -0.1089  0.6892 -1.1356
16084SOL     OW52167   6.542   3.199   6.815  0.0015  0.0884  0.2628
16084SOL    HW152168   6.599   3.275   6.818 -0.3399  0.4441 -1.1321
16084SOL    HW252169   6.456   3.232   6.842  0.2646 -0.2651  1.5812
16085SOL     OW52170   8.713   9.436   1.622  0.6532 -0.4803 -0.1345
16085SOL    HW152171   8.796   9.389   1.635  0.0476 -1.3378  0.7787
16085SOL    HW252172   8.720   9.474   1.535  1.1845 -2.2566 -0.9103
16086SOL     OW52173   7.027   8.498   3.881 -0.2863  0.0497  0.1058
16086SOL    HW152174   7.066   8.492   3.794  0.2732  1.3072  0.2508
16086SOL    HW252175   6.933   8.482   3.867  0.1749 -2.7522 -0.2752
16087SOL     OW52176   2.438   0.989   8.282  0.9731 -0.1659  0.1219
16087SOL    HW152177   2.384   0.932   8.337 -0.9532 -0.2397 -1.6897
16087SOL    HW252178   2.429   1.076   8.322 -1.5286  0.0542 -0.7148
16088SOL     OW52179   3.407   1.761   2.519 -0.1032 -0.2565  0.3429
16088SOL    HW152180   3.375   1.805   2.439 -1.9871 -0.0478  1.1464
16088SOL    HW252181   3.382   1.821   2.590 -1.1681 -1.7942  1.3227
16089SOL     OW52182   4.588   2.884   9.445 -0.0340 -0.1933 -0.1424
16089SOL    HW152183   4.508   2.937   9.436 -1.3118 -2.0861 -0.4224
16089SOL    HW252184   4.594   2.866   9.539  0.0553 -0.0675 -0.1241
16090SOL     OW52185   4.909   1.145   3.252  0.0903  0.2001 -0.3949
16090SOL    HW152186   4.815   1.139   3.238  0.0517  0.7219 -0.3869
16090SOL    HW252187   4.918   1.201   3.329  0.4347  0.9300 -0.9552
16091SOL     OW52188   1.965   5.620   8.613 -0.3290 -0.1276 -0.3266
16091SOL    HW152189   1.978   5.537   8.567  1.9669  0.3894 -0.7699
16091SOL    HW252190   1.886   5.608   8.665 -0.0706 -2.5701 -0.4134
16092SOL     OW52191   9.554   1.259   2.763  0.4757  0.1401  0.0765
16092SOL    HW152192   9.600   1.244   2.845 -0.8110 -2.1690  0.4895
16092SOL    HW252193   9.471   1.300   2.789  0.8466  1.1412 -0.2891
16093SOL     OW52194  10.070   4.593   7.098 -0.3357  0.2563 -0.1209
16093SOL    HW152195  10.106   4.641   7.023 -1.0840  0.0369 -0.6345
16093SOL    HW252196  10.112   4.633   7.174 -2.1260  2.8770 -0.3878
16094SOL     OW52197   1.691  10.036   7.491 -0.0580 -0.4194 -0.5020
16094SOL    HW152198   1.711  10.127   7.511 -4.6674  0.5962  0.6307
16094SOL    HW252199   1.768   9.987   7.521  1.1422  2.7933  2.2431
16095SOL     OW52200   6.477   4.956   7.237  0.3460  0.4740  0.0361
16095SOL    HW152201   6.540   4.894   7.274  1.6723  1.3037 -0.7216
16095SOL    HW252202   6.394   4.909   7.237  0.9784 -0.7099  0.9737
16096SOL     OW52203   3.819   1.010   1.283  0.2604  0.9909 -0.0929
16096SOL    HW152204   3.899   1.050   1.315 -0.4093  2.0690  0.3057
16096SOL    HW252205   3.781   1.076   1.225  0.3536 -0.0652 -1.4083
16097SOL     OW52206   6.775   5.087   2.464  0.2592  0.0828  0.6622
16097SOL    HW152207   6.832   5.073   2.540 -0.3599 -1.3015  0.9121
16097SOL    HW252208   6.693   5.120   2.502 -0.3401 -1.3763  0.7450
16098SOL     OW52209   7.299   8.252   8.351  0.1516 -0.2766  0.0011
16098SOL    HW152210   7.276   8.331   8.301  1.6842 -0.3128 -0.8262
16098SOL    HW252211   7.218   8.229   8.397 -0.2389  2.0039  0.6041
16099SOL     OW52212   6.404   7.523   6.248 -0.3948  0.1428  0.6055
16099SOL    HW152213   6.408   7.618   6.253  0.6460  0.0572  2.0983
16099SOL    HW252214   6.492   7.497   6.222 -0.4803 -0.4353  0.8725
16100SOL     OW52215   6.606   9.495   8.259 -0.9103 -0.0340  0.6268
16100SOL    HW152216   6.602   9.513   8.166  1.2081 -0.1485  0.4621
16100SOL    HW252217   6.541   9.553   8.298 -0.4915  1.4298 -0.7393
16101SOL     OW52218   3.117   9.841   1.797 -0.0110 -0.0067 -0.0362
16101SOL    HW152219   3.133   9.815   1.706 -0.6254  0.1628 -0.1972
16101SOL    HW252220   3.154   9.929   1.804 -1.4660  0.6767 -0.6048
16102SOL     OW52221   3.607   9.499   1.092  0.6922 -0.6080  0.1705
16102SOL    HW152222   3.591   9.500   0.998 -1.9448 -0.0976  0.5554
16102SOL    HW252223   3.667   9.425   1.105  0.2156 -1.3990 -1.7836
16103SOL     OW52224   6.286   3.693   1.192 -0.1444  0.4171 -0.1122
16103SOL    HW152225   6.334   3.737   1.122  0.7105 -1.1392 -0.5486
16103SOL    HW252226   6.318   3.603   1.190 -0.5623  0.1759  1.8764
16104SOL     OW52227   4.320   0.536   0.818 -0.5273  0.0270  0.5590
16104SOL    HW152228   4.402   0.502   0.783 -0.6995  0.6972 -0.5361
16104SOL    HW252229   4.258   0.464   0.808 -0.2367 -0.2543  0.7663
16105SOL     OW52230   0.518   3.068   6.783  0.1325 -0.3713 -0.2139
16105SOL    HW152231   0.505   2.974   6.784 -3.3168 -0.0424 -1.2311
16105SOL    HW252232   0.479   3.098   6.701  2.7847  1.8308 -0.8388
16106SOL     OW52233   4.000   0.121   9.955  0.1005  0.6476 -0.5867
16106SOL    HW152234   4.075   0.065   9.938  0.8496  1.1871  0.8217
16106SOL    HW252235   4.036   0.198   9.999 -1.3544  0.5507  0.8650
16107SOL     OW52236   6.458   9.728   6.951  0.5764  0.4054 -1.0890
16107SOL    HW152237   6.382   9.777   6.983  0.9864  0.5383 -0.3120
16107SOL    HW252238   6.430   9.637   6.949  1.0037  0.1869  1.0997
16108SOL     OW52239   3.953   5.357   4.216 -0.5658 -0.3128 -0.2562
16108SOL    HW152240   3.871   5.360   4.167 -0.4198  1.8840 -0.4705
16108SOL    HW252241   3.996   5.277   4.187 -2.4440 -1.3221 -0.4122
16109SOL     OW52242   1.864   8.084   4.999 -0.2365 -0.2351  0.0000
16109SOL    HW152243   1.818   8.168   5.004 -2.5137 -1.4207  0.0933
16109SOL    HW252244   1.890   8.066   5.090  0.7725  0.5836 -0.1001
16110SOL     OW52245   6.760   3.911   4.454 -0.0970  0.5668  0.3720
16110SOL    HW152246   6.809   3.959   4.521  0.5971  0.0061  0.2730
16110SOL    HW252247   6.733   3.830   4.497  2.0063 -0.6960 -0.5416
16111SOL     OW52248   0.612   8.851   2.053  0.2072  0.4611 -0.5231
16111SOL    HW152249   0.539   8.835   1.993  0.1695 -0.2542 -0.2921
16111SOL    HW252250   0.580   8.920   2.111 -0.0485  0.6021 -0.8311
16112SOL     OW52251   6.654   7.361   6.220  0.0332 -0.1503  0.0246
16112SOL    HW152252   6.674   7.413   6.143  0.3540 -0.0645  0.1642
16112SOL    HW252253   6.691   7.410   6.293 -1.1140  0.2571  0.3494
16113SOL     OW52254   1.516   6.863   2.911  0.1947  0.1438  0.6250
16113SOL    HW152255   1.515   6.951   2.948 -0.8330  0.0700  0.8178
16113SOL    HW252256   1.503   6.876   2.817  0.9775  0.2424  0.5294
16114SOL     OW52257   2.733   4.143   6.898  0.0124  0.0559 -0.0628
16114SOL    HW152258   2.687   4.226   6.889 -0.1926  0.0924  1.1385
16114SOL    HW252259   2.813   4.164   6.947  0.3691 -0.3217 -0.4725
16115SOL     OW52260   5.401   4.004   2.942 -0.1458 -0.2727  0.2344
16115SOL    HW152261   5.407   3.966   3.030 -1.2594 -1.3832 -0.1356
16115SOL    HW252262   5.448   3.942   2.886  0.0133  0.1043 -0.0522
16116SOL     OW52263   0.726   9.219   3.208 -0.2513  0.5469  0.4262
16116SOL    HW152264   0.688   9.140   3.170  0.7874 -0.4959  1.4792
16116SOL    HW252265   0.694   9.220   3.298  0.1172  1.0692  0.5553
16117SOL     OW52266   9.801   2.054   5.246  0.5466 -0.0193 -0.0015
16117SOL    HW152267   9.861   1.980   5.251  0.2038 -0.3734 -1.0110
16117SOL    HW252268   9.756   2.054   5.331 -0.2173 -1.6301 -0.3740
16118SOL     OW52269   2.000   9.073   4.979  0.3939  0.0697  0.9562
16118SOL    HW152270   2.043   9.158   4.986 -1.7162  1.1794  0.9489
16118SOL    HW252271   1.993   9.058   4.884  0.6805 -0.1061  0.9580
16119SOL     OW52272   2.410   2.802   3.846 -0.5556 -0.2123  0.1237
16119SOL    HW152273   2.350   2.728   3.834 -1.5741  0.3673  1.3345
16119SOL    HW252274   2.492   2.762   3.876 -1.3390 -0.8334  1.5487
16120SOL     OW52275   5.208   8.206   1.751 -0.4588 -0.4301 -0.4087
16120SOL    HW152276   5.243   8.234   1.667  0.1107  1.0969  0.2893
16120SOL    HW252277   5.267   8.136   1.779  0.6815  0.5262 -0.3217
16121SOL     OW52278   3.911   9.074   1.244  0.5890 -0.0005 -0.1000
16121SOL    HW152279   3.938   9.000   1.298 -0.5184 -0.1826  0.2400
16121SOL    HW252280   3.896   9.037   1.157 -0.2021 -0.2411  0.1290
16122SOL     OW52281   9.602   6.996   1.936  0.0847  0.0366 -0.8549
16122SOL    HW152282   9.559   6.960   1.858  0.9173 -0.6372 -1.0176
16122SOL    HW252283   9.603   7.090   1.921 -1.3764  0.0841 -0.8179
16123SOL     OW52284   3.710  10.044   8.300 -0.4650  0.1646 -0.2837
16123SOL    HW152285   3.755   9.963   8.323 -1.3044 -0.2271  0.0072
16123SOL    HW252286   3.768  10.113   8.332  2.0301 -0.1315 -3.6115
16124SOL     OW52287   2.972   1.802   6.408 -0.3626 -0.1848  0.5376
16124SOL    HW152288   3.048   1.821   6.463  1.0654  0.5409 -1.5420
16124SOL    HW252289   3.004   1.736   6.346 -1.1489  0.7294 -0.8876
16125SOL     OW52290   5.287   9.809   2.437  0.8079 -0.1865  0.4366
16125SOL    HW152291   5.311   9.843   2.524 -0.9279  0.9607  0.5419
16125SOL    HW252292   5.359   9.835   2.380  2.1931 -1.3491  1.5852
16126SOL     OW52293   4.638   4.166   7.332  0.4332 -0.2931 -0.1034
16126SOL    HW152294   4.563   4.174   7.390 -0.2478 -1.3730 -0.7967
16126SOL    HW252295   4.687   4.248   7.344 -1.0577  0.6010  0.0747
16127SOL     OW52296   9.884   5.850   3.342 -0.1647  0.8455 -0.0118
16127SOL    HW152297   9.806   5.894   3.308  0.4887  2.1611  0.1121
16127SOL    HW252298   9.947   5.854   3.270 -0.7425 -1.8707 -0.8065
16128SOL     OW52299   1.840   2.396   5.249  0.6728 -0.1658  0.1848
16128SOL    HW152300   1.837   2.469   5.186  0.0530 -0.8532 -0.6007
16128SOL    HW252301   1.906   2.337   5.213  1.7953  0.3784  1.2651
16129SOL     OW52302   8.707  10.017   5.128 -0.3271  0.2966  0.2311
16129SOL    HW152303   8.673  10.091   5.179  0.6877  0.7260  0.2987
16129SOL    HW252304   8.682   9.940   5.180  2.0413  0.7874  2.2752
16130SOL     OW52305   0.142   7.041   1.788 -0.3879 -0.0470 -0.1431
16130SOL    HW152306   0.105   7.029   1.875 -0.8058  1.0462 -0.1512
16130SOL    HW252307   0.147   7.136   1.777 -0.4386 -0.1650 -1.3417
16131SOL     OW52308  10.157   5.515   2.082 -0.1635  0.1842  0.5069
16131SOL    HW152309  10.148   5.427   2.121  0.6401 -0.6043 -0.9912
16131SOL    HW252310  10.188   5.498   1.993  0.4357  2.0203  0.3357
16132SOL     OW52311   5.451   9.373   3.085 -0.2767  0.1735 -0.1821
16132SOL    HW152312   5.454   9.321   3.005 -1.1323  2.0394 -1.4932
16132SOL    HW252313   5.375   9.430   3.074  0.4589  1.5234  1.2781
16133SOL     OW52314   4.389   5.330   6.544  0.5974 -0.3295  0.2402
16133SOL    HW152315   4.475   5.368   6.522 -0.4063  2.0354  0.0253
16133SOL    HW252316   4.331   5.406   6.550 -1.4893 -1.8570  0.4361
16134SOL     OW52317   7.129   0.890   6.960  0.1988  1.3014  0.1378
16134SOL    HW152318   7.167   0.975   6.984  0.8567  0.6439  1.5637
16134SOL    HW252319   7.044   0.889   7.004  0.6448  0.8200  1.0284
16135SOL     OW52320   7.355   0.583   6.790  0.0855  0.4304 -0.1100
16135SOL    HW152321   7.300   0.649   6.747 -0.8377 -0.7550 -0.8210
16135SOL    HW252322   7.388   0.529   6.718 -0.1135 -0.5821  0.5403
16136SOL     OW52323   6.544   1.189   0.048 -0.6333  0.1182  0.0653
16136SOL    HW152324   6.472   1.131   0.071 -0.9542  0.7718  0.7515
16136SOL    HW252325   6.511   1.240  -0.026 -1.5057  1.5140  1.3483
16137SOL     OW52326   6.284   4.363   2.796 -0.0660  0.6502 -0.5164
16137SOL    HW152327   6.325   4.276   2.794 -0.4558  0.4630 -0.2437
16137SOL    HW252328   6.215   4.359   2.730  0.2788  0.9351 -0.9024
16138SOL     OW52329   3.296   7.333   1.730 -0.1024 -0.1379 -0.0438
16138SOL    HW152330   3.350   7.289   1.664  0.3353 -0.3620  0.4658
16138SOL    HW252331   3.280   7.267   1.797  1.7922  0.8585  1.4617
16139SOL     OW52332   4.043   9.879   7.322  0.1446  0.0073 -0.2174
16139SOL    HW152333   3.960   9.878   7.369 -1.6813  1.0570 -3.1156
16139SOL    HW252334   4.055   9.970   7.295  2.0984 -0.1857 -0.1893
16140SOL     OW52335   9.751   3.031  10.167 -0.1864 -0.1569 -0.0375
16140SOL    HW152336   9.662   3.056  10.140 -0.9260 -1.9902  0.5100
16140SOL    HW252337   9.794   3.114  10.186 -1.8491  0.7826 -0.1054
16141SOL     OW52338   6.424   1.395   0.930  0.3750  0.0943 -0.1326
16141SOL    HW152339   6.455   1.433   1.012 -0.5830  1.4156 -0.3551
16141SOL    HW252340   6.496   1.339   0.902  1.2020  0.5295  1.0131
16142SOL     OW52341   3.989   2.385   7.118  0.1689 -0.4927  0.1139
16142SOL    HW152342   3.959   2.324   7.050  0.4573  0.4131 -0.8633
16142SOL    HW252343   3.934   2.463   7.104 -0.1556 -0.5014  1.2985
16143SOL     OW52344   2.093   4.338   4.696 -0.2282 -0.4474  0.4671
16143SOL    HW152345   2.135   4.394   4.630 -0.5713 -1.5324 -0.7177
16143SOL    HW252346   2.004   4.327   4.664 -1.2170  1.0995  2.5003
16144SOL     OW52347   4.359   3.441   4.818  0.2941 -0.0478 -1.0115
16144SOL    HW152348   4.282   3.391   4.792 -0.3440  0.0536  0.5373
16144SOL    HW252349   4.323   3.517   4.866  1.3327 -0.6835  0.9005
16145SOL     OW52350   8.323   3.634   4.425  0.1833 -0.6717  0.3506
16145SOL    HW152351   8.376   3.656   4.502  1.9365 -0.9133 -0.7418
16145SOL    HW252352   8.322   3.713   4.372 -0.2154 -0.7962  0.1641
16146SOL     OW52353   7.037   4.866   2.589  0.3675  0.7577  0.6123
16146SOL    HW152354   6.997   4.946   2.624  0.2179  1.2478 -0.6540
16146SOL    HW252355   7.126   4.867   2.623  0.1712  1.1082  1.1398
16147SOL     OW52356   3.637   9.239   4.086 -0.0964 -0.7449 -0.3440
16147SOL    HW152357   3.569   9.296   4.122  0.1494  0.8899 -2.3250
16147SOL    HW252358   3.598   9.151   4.088 -1.4362 -0.1640  0.5075
16148SOL     OW52359   7.188   1.814   3.141  0.1458 -0.1021  0.0900
16148SOL    HW152360   7.231   1.764   3.210  2.2522 -0.5083 -1.4083
16148SOL    HW252361   7.225   1.902   3.148 -0.6673  0.2362  0.3064
16149SOL     OW52362   1.346   7.121   9.390 -0.1062  0.2903  0.5774
16149SOL    HW152363   1.380   7.179   9.323  3.4510 -2.6339 -0.5063
16149SOL    HW252364   1.405   7.134   9.465 -1.6810  0.7711  1.7973
16150SOL     OW52365   1.440   2.344   2.097 -0.2573  0.7996 -0.3907
16150SOL    HW152366   1.420   2.436   2.076 -0.8928  0.7483 -0.0466
16150SOL    HW252367   1.406   2.295   2.023  1.1293  0.9231 -1.1266
16151SOL     OW52368   5.451   5.493   1.841  0.3130 -0.2071  0.5493
16151SOL    HW152369   5.441   5.585   1.816  1.0328 -0.5969 -1.4197
16151SOL    HW252370   5.413   5.486   1.928 -1.1405  1.6335  0.1019
16152SOL     OW52371   2.747   9.714   0.207  0.3231  0.2328  0.2179
16152SOL    HW152372   2.739   9.801   0.247 -0.1008 -0.3237  1.3923
16152SOL    HW252373   2.662   9.700   0.165 -0.2979 -0.3580  1.6212
16153SOL     OW52374   0.769  10.146   2.490  0.3041  0.1197 -0.2133
16153SOL    HW152375   0.790  10.062   2.450  2.0933  0.4324 -0.0243
16153SOL    HW252376   0.677  10.139   2.515  0.3278 -1.6405 -0.5287
16154SOL     OW52377   3.861   6.173   9.518  0.0866  0.0623 -0.6199
16154SOL    HW152378   3.906   6.242   9.567 -0.5261 -1.1619  1.7862
16154SOL    HW252379   3.775   6.165   9.560 -0.6141 -0.8357 -2.1248
16155SOL     OW52380   2.488   8.412   1.216  0.0971 -0.2657  0.4971
16155SOL    HW152381   2.525   8.348   1.276 -1.0691  0.2679  1.8389
16155SOL    HW252382   2.477   8.492   1.268 -2.9786 -0.4224  0.2724
16156SOL     OW52383   3.436   4.860   3.795 -0.5948 -0.3506  0.2820
16156SOL    HW152384   3.413   4.821   3.711 -1.4973 -0.4350  0.5484
16156SOL    HW252385   3.531   4.865   3.795 -0.5856 -0.3371 -0.7494
16157SOL     OW52386  10.098   6.167   3.212 -0.3979 -0.2789  0.0015
16157SOL    HW152387  10.040   6.214   3.272  1.1143  0.2134  1.1221
16157SOL    HW252388  10.161   6.232   3.182 -0.6320 -0.7024 -1.5504
16158SOL     OW52389   8.039   9.290   0.574 -0.2604 -0.2693 -0.3082
16158SOL    HW152390   7.983   9.366   0.591 -1.1616 -1.3554  1.9666
16158SOL    HW252391   7.984   9.230   0.523  0.1473  0.1872 -1.3164
16159SOL     OW52392   6.489   0.973   3.183 -0.8844  0.1662  0.3046
16159SOL    HW152393   6.479   0.920   3.262  3.0719 -0.3420  0.6545
16159SOL    HW252394   6.508   1.061   3.215  0.4572  0.0163 -0.0107
16160SOL     OW52395   5.827   1.670   5.094 -0.1378  0.2770 -0.0638
16160SOL    HW152396   5.832   1.733   5.022 -0.9837  0.6124  0.1624
16160SOL    HW252397   5.819   1.585   5.051  0.0212  0.4109 -0.3615
16161SOL     OW52398   6.367   0.879   7.841  0.1668 -0.5070  0.2798
16161SOL    HW152399   6.358   0.784   7.827  0.2357 -0.1785 -2.5848
16161SOL    HW252400   6.447   0.902   7.793 -0.8052  1.2520 -0.5741
16162SOL     OW52401   8.864   0.629   7.783 -0.6440  0.1498  0.2980
16162SOL    HW152402   8.842   0.712   7.825 -2.9414 -0.0352 -0.4021
16162SOL    HW252403   8.870   0.649   7.690  0.0020 -0.2624  0.2418
16163SOL     OW52404   1.149   1.177   7.434  0.0027  0.4181  0.6218
16163SOL    HW152405   1.203   1.235   7.488  3.0500 -2.1212  0.6100
16163SOL    HW252406   1.130   1.102   7.491  0.5045 -0.8237 -0.7786
16164SOL     OW52407   4.770   2.123   6.233  0.4942 -0.1591  0.5818
16164SOL    HW152408   4.677   2.103   6.245 -0.1317  0.7373 -1.9414
16164SOL    HW252409   4.816   2.048   6.269 -1.2476 -0.9487  1.2734
16165SOL     OW52410   3.713   1.528   7.093  0.5828 -0.4114  0.6516
16165SOL    HW152411   3.672   1.614   7.083  1.5189 -0.1938 -3.0374
16165SOL    HW252412   3.801   1.547   7.124  1.0751  0.1397 -0.9663
16166SOL     OW52413   0.395   1.147   7.131 -0.3661  0.3547 -0.6027
16166SOL    HW152414   0.324   1.123   7.071 -1.0491 -0.2069  0.4058
16166SOL    HW252415   0.359   1.220   7.182  0.2463  0.8874 -0.9206
16167SOL     OW52416   8.811   7.806   6.148 -0.5438 -0.4323  0.2943
16167SOL    HW152417   8.736   7.810   6.088  0.5043 -0.5374 -1.0817
16167SOL    HW252418   8.807   7.719   6.186 -0.8064 -0.6486 -0.2144
16168SOL     OW52419   5.362   5.400   5.741 -0.3937 -0.2228 -0.9198
16168SOL    HW152420   5.305   5.448   5.682  0.2487 -0.8159 -2.0673
16168SOL    HW252421   5.303   5.347   5.794 -1.0377  1.0258 -0.3662
16169SOL     OW52422   2.766   6.237   5.145  0.0822  0.4210 -0.1898
16169SOL    HW152423   2.681   6.280   5.139 -0.2778 -0.3890 -1.1899
16169SOL    HW252424   2.776   6.215   5.238 -0.3058  1.4840  0.1103
16170SOL     OW52425   7.965   4.333   7.077  0.5515 -0.2910 -0.4417
16170SOL    HW152426   7.893   4.347   7.015  0.2613 -0.9048 -0.2488
16170SOL    HW252427   7.932   4.267   7.138  1.7303 -1.5612 -1.1201
16171SOL     OW52428   6.296   1.855   4.504  0.1177  0.0724 -0.3363
16171SOL    HW152429   6.331   1.839   4.417 -1.3961 -0.0018 -0.9503
16171SOL    HW252430   6.279   1.950   4.506  0.8274  0.1969  0.1476
16172SOL     OW52431   1.352   7.199   5.956 -0.4397 -0.1620  0.2629
16172SOL    HW152432   1.324   7.277   6.004 -2.2232 -1.3501  1.2766
16172SOL    HW252433   1.371   7.231   5.868 -0.9234  1.4445  0.7008
16173SOL     OW52434   4.850   7.591   7.534  0.3516 -0.3363  0.5199
16173SOL    HW152435   4.761   7.604   7.503  0.4051 -0.8939  0.1140
16173SOL    HW252436   4.886   7.679   7.543  0.1323 -0.1415 -0.4323
16174SOL     OW52437   9.906   1.569   1.564 -0.4424  0.3275  0.0391
16174SOL    HW152438   9.832   1.597   1.510 -0.8404  0.3815  0.6116
16174SOL    HW252439   9.916   1.475   1.545 -1.2372  0.1162  0.6432
16175SOL     OW52440   8.535   0.229   5.604  0.1143 -0.2476  0.1775
16175SOL    HW152441   8.551   0.323   5.591 -2.6746  0.3609  0.5708
16175SOL    HW252442   8.541   0.216   5.698 -2.7340  0.3124  0.5173
16176SOL     OW52443   0.719   7.434   3.792  0.2686 -0.1121 -0.3476
16176SOL    HW152444   0.626   7.455   3.803  0.3736 -0.2529  1.0329
16176SOL    HW252445   0.755   7.441   3.880  1.5522 -0.1767 -0.8537
16177SOL     OW52446   1.287   5.370   7.834  0.4559  0.1968  0.5062
16177SOL    HW152447   1.310   5.398   7.745 -0.1962  0.1335  0.3123
16177SOL    HW252448   1.210   5.422   7.856 -1.0922 -1.7360 -0.0525
16178SOL     OW52449   4.942   8.736   1.307 -0.3691  0.0417 -0.2564
16178SOL    HW152450   4.960   8.667   1.244  1.7839  0.6261 -0.3477
16178SOL    HW252451   4.864   8.706   1.354  0.2610 -2.2471 -0.5627
16179SOL     OW52452   6.359   5.022   5.390 -0.1471 -0.7021  0.2148
16179SOL    HW152453   6.443   4.978   5.405 -0.3300 -1.1133  0.0484
16179SOL    HW252454   6.326   4.984   5.309 -0.0707  0.1195 -0.2129
16180SOL     OW52455   7.669   6.921   1.491  0.3066  0.0714  0.0247
16180SOL    HW152456   7.627   6.854   1.438 -1.7586  2.3314 -1.3908
16180SOL    HW252457   7.655   6.892   1.581 -0.1828 -1.5517 -0.5418
16181SOL     OW52458   2.920   2.665   9.259 -0.1871 -0.0511 -0.6136
16181SOL    HW152459   2.861   2.618   9.318 -2.4293  0.5783 -2.1906
16181SOL    HW252460   2.933   2.750   9.301 -0.2852 -0.2454 -0.1797
16182SOL     OW52461   0.811   6.547   2.995 -0.3268 -0.5249  0.2177
16182SOL    HW152462   0.821   6.575   3.085 -0.4293  1.2654 -0.2931
16182SOL    HW252463   0.872   6.474   2.985  0.9960  0.4010  1.2484
16183SOL     OW52464   7.636   1.279   9.822  0.7493  0.0680  0.0777
16183SOL    HW152465   7.613   1.282   9.729 -0.3840  0.4177  0.3511
16183SOL    HW252466   7.603   1.362   9.857 -0.3404 -0.7763  1.1172
16184SOL     OW52467   7.309   9.412   8.618 -0.4886 -0.3357 -0.0535
16184SOL    HW152468   7.240   9.355   8.585  0.2688 -0.8334 -0.8070
16184SOL    HW252469   7.388   9.384   8.573  0.5030 -0.7105  1.8078
16185SOL     OW52470   3.568   1.557   3.418  0.4220  0.4605  0.0788
16185SOL    HW152471   3.542   1.465   3.417  2.3880 -0.1418 -0.2856
16185SOL    HW252472   3.535   1.592   3.335 -2.3999  0.7724  1.2362
16186SOL     OW52473   4.372   9.402   0.715  0.0757 -0.5399  0.1393
16186SOL    HW152474   4.282   9.381   0.689 -0.1398  0.2538  0.2300
16186SOL    HW252475   4.364   9.450   0.797  0.6383 -1.2087  0.5958
16187SOL     OW52476   0.402   1.988   6.203 -0.5022 -0.0727  0.0870
16187SOL    HW152477   0.456   2.015   6.128  0.1894 -0.5888  0.3871
16187SOL    HW252478   0.419   2.055   6.269  0.6093 -0.7910  0.5550
16188SOL     OW52479   9.093   4.550   2.376  0.2345 -0.0482 -0.7111
16188SOL    HW152480   9.085   4.454   2.379 -1.3301  0.0384 -1.3747
16188SOL    HW252481   9.028   4.582   2.438  0.6225  0.5999 -0.6271
16189SOL     OW52482   7.326   6.310   3.974 -0.0360 -0.1479  0.3523
16189SOL    HW152483   7.365   6.277   4.055  1.8500  1.7945  0.3256
16189SOL    HW252484   7.248   6.256   3.961 -0.5203 -0.4088  3.5595
16190SOL     OW52485   0.000   7.582   6.402  0.2881  0.2051 -0.0619
16190SOL    HW152486  -0.011   7.669   6.440 -1.3267  0.8098 -1.7448
16190SOL    HW252487   0.077   7.590   6.345  1.3170 -0.0617  1.2461
16191SOL     OW52488   2.643   0.995   4.920  0.5094 -0.1760 -0.3694
16191SOL    HW152489   2.551   0.982   4.896  0.1389 -0.9898  1.3470
16191SOL    HW252490   2.692   0.950   4.851 -0.4998 -2.4455  0.2868
16192SOL     OW52491   6.746   4.006   3.340 -0.1151  0.0371  0.2059
16192SOL    HW152492   6.716   3.923   3.378  2.0378 -0.6948  0.4140
16192SOL    HW252493   6.743   3.991   3.245 -0.6190  0.0581  0.2167
16193SOL     OW52494   3.676   4.318   4.120  0.0939  0.2657 -0.3917
16193SOL    HW152495   3.695   4.313   4.214 -0.9255 -0.2738 -0.2027
16193SOL    HW252496   3.622   4.241   4.102 -0.2649  0.7162 -1.2874
16194SOL     OW52497  10.206   4.069   0.522  0.4094 -0.1567 -0.1249
16194SOL    HW152498  10.208   4.164   0.534 -0.3801 -0.2855  1.3190
16194SOL    HW252499  10.133   4.040   0.578  1.3196 -1.7142  0.3061
16195SOL     OW52500   9.514   8.866   5.477 -0.3885  0.0350 -0.5362
16195SOL    HW152501   9.429   8.832   5.504 -0.7507  0.4924 -1.0708
16195SOL    HW252502   9.504   8.961   5.482 -0.0156  0.0980 -0.9455
16196SOL     OW52503   4.537   6.702   8.071 -0.3161 -0.5456  0.3469
16196SOL    HW152504   4.447   6.730   8.056 -0.9187 -2.3368  0.4277
16196SOL    HW252505   4.580   6.715   7.987 -0.1274  1.9412  0.7348
16197SOL     OW52506   1.711   4.034   6.233 -0.2957  0.3047 -0.2262
16197SOL    HW152507   1.784   3.987   6.273 -1.2756 -2.4841 -1.4752
16197SOL    HW252508   1.637   4.017   6.291 -0.7442  0.0121 -0.8754
16198SOL     OW52509   7.523   4.315   1.091  0.3802  0.4929  0.2937
16198SOL    HW152510   7.563   4.229   1.075  1.1120  0.8817  0.0012
16198SOL    HW252511   7.434   4.306   1.058  1.4442  0.9014 -3.0797
16199SOL     OW52512   0.890   2.356   4.345  0.3432 -0.6490 -0.0692
16199SOL    HW152513   0.884   2.276   4.397  0.8404 -0.6470 -0.0060
16199SOL    HW252514   0.814   2.353   4.288 -1.8465  0.6753  2.5165
16200SOL     OW52515   5.760   6.496   4.413 -0.0481 -0.0782 -0.3676
16200SOL    HW152516   5.688   6.519   4.354 -0.1128 -0.2495 -0.3547
16200SOL    HW252517   5.827   6.562   4.396  0.2425 -0.5673 -1.1820
16201SOL     OW52518   7.356   1.187   5.874 -0.0202 -0.2216  0.1305
16201SOL    HW152519   7.303   1.249   5.924 -1.7819 -1.5303 -0.0265
16201SOL    HW252520   7.359   1.108   5.928  1.6857 -0.2596  0.0529
16202SOL     OW52521   6.925   1.144   7.105  0.9572 -0.0101  0.4416
16202SOL    HW152522   6.884   1.061   7.079 -0.6842 -0.2561  3.3058
16202SOL    HW252523   7.019   1.125   7.105  0.6448 -1.7233  0.5133
16203SOL     OW52524   6.568   9.769   4.439 -0.2280  0.1089 -0.1855
16203SOL    HW152525   6.505   9.838   4.457  1.3620  1.6284 -0.1499
16203SOL    HW252526   6.571   9.717   4.520 -1.6170 -0.1894 -0.3054
16204SOL     OW52527   6.726   9.844   2.780  0.0630 -0.1679 -0.8726
16204SOL    HW152528   6.680   9.912   2.829  0.3742 -0.4097 -0.2317
16204SOL    HW252529   6.807   9.830   2.829 -0.4496 -1.7174 -0.4342
16205SOL     OW52530   8.776   8.748   0.205 -0.0872 -0.8648  0.3360
16205SOL    HW152531   8.803   8.734   0.295 -1.2569 -0.4116  0.7863
16205SOL    HW252532   8.685   8.717   0.202 -1.5677  2.8565  0.4730
16206SOL     OW52533   1.004   0.573   7.670  0.1418 -0.7125 -0.1240
16206SOL    HW152534   1.092   0.581   7.635 -0.0499  0.7806 -0.3256
16206SOL    HW252535   1.016   0.548   7.762  0.7279 -1.6086 -0.4385
16207SOL     OW52536   7.798   9.317   1.742 -0.2530  0.1012 -0.2805
16207SOL    HW152537   7.757   9.360   1.668 -0.1944  0.3741 -0.1559
16207SOL    HW252538   7.760   9.359   1.819  0.6502  0.7451 -0.1665
16208SOL     OW52539   2.855   1.551  10.177 -0.4169  1.0334  0.2938
16208SOL    HW152540   2.881   1.471  10.130 -0.2710  1.2125  0.0687
16208SOL    HW252541   2.765   1.567  10.149 -0.2956  1.1989 -0.0109
16209SOL     OW52542   5.495   8.499   7.893 -0.2513  0.1262  0.3252
16209SOL    HW152543   5.519   8.589   7.917  1.9677  0.0850 -1.4531
16209SOL    HW252544   5.507   8.496   7.798 -2.1655 -1.5580  0.0727
16210SOL     OW52545   6.865   2.659   2.987 -0.1994 -0.7232  0.0137
16210SOL    HW152546   6.776   2.655   2.952 -0.3162  0.1382  0.2039
16210SOL    HW252547   6.855   2.699   3.074  0.2135 -1.8826  0.6192
16211SOL     OW52548   6.070   2.208   8.305  0.4477 -0.0383 -0.9757
16211SOL    HW152549   6.148   2.154   8.288 -0.0922 -1.4698  0.8455
16211SOL    HW252550   6.069   2.220   8.400 -1.2010  0.5283 -1.0359
16212SOL     OW52551   8.435   1.498   4.969  0.1190  0.1806 -0.4729
16212SOL    HW152552   8.500   1.552   5.014  1.3272 -0.0305 -1.8675
16212SOL    HW252553   8.426   1.539   4.883  0.1367 -1.1185 -1.1189
16213SOL     OW52554   6.544   9.620   3.131  0.1359  0.1023  0.2267
16213SOL    HW152555   6.546   9.716   3.130  0.4230  0.0938 -0.1835
16213SOL    HW252556   6.474   9.597   3.070  0.6504  0.0377 -0.3469
16214SOL     OW52557   2.568   7.233   3.543 -0.2133 -0.7753  0.3238
16214SOL    HW152558   2.579   7.179   3.465  0.3680  0.6686 -0.6205
16214SOL    HW252559   2.511   7.305   3.515 -0.1698 -0.3515  1.2792
16215SOL     OW52560   7.850   8.952   8.712  0.1618  0.0830 -0.2229
16215SOL    HW152561   7.772   9.005   8.733  0.8010  1.6269 -1.4966
16215SOL    HW252562   7.827   8.864   8.740 -2.1010  0.4613 -0.6631
16216SOL     OW52563   5.104   7.644   9.382  0.0701 -0.3916  0.1620
16216SOL    HW152564   5.030   7.704   9.390 -0.0397 -0.6553  1.3472
16216SOL    HW252565   5.079   7.568   9.435 -0.0930 -1.8095 -1.8280
16217SOL     OW52566   5.211   5.340   8.712 -0.4635 -0.3561 -0.1032
16217SOL    HW152567   5.227   5.372   8.623  0.8408 -0.9422 -0.0958
16217SOL    HW252568   5.121   5.306   8.709 -0.3591 -0.5676 -1.2595
16218SOL     OW52569   3.674   6.809   3.773  0.0240  0.1828  0.0261
16218SOL    HW152570   3.749   6.845   3.821  0.4206  0.6036 -0.8782
16218SOL    HW252571   3.661   6.722   3.812 -1.2527  1.4298  2.5451
16219SOL     OW52572   8.937   1.844   8.808 -0.3007  0.3658 -1.3272
16219SOL    HW152573   8.900   1.932   8.819  1.9456  1.1066  1.9546
16219SOL    HW252574   8.942   1.809   8.897  2.0064 -1.6917 -2.1509
16220SOL     OW52575   5.580   1.484   8.510 -0.2946  0.0985  0.5022
16220SOL    HW152576   5.575   1.502   8.416 -0.4789 -0.5405  0.3899
16220SOL    HW252577   5.605   1.392   8.516 -1.1166 -0.0916  1.0790
16221SOL     OW52578   4.233   4.555   3.270 -0.3442 -0.1326 -0.2057
16221SOL    HW152579   4.162   4.493   3.253 -0.4456 -0.5659  1.5852
16221SOL    HW252580   4.313   4.504   3.261 -0.2341  0.2432 -1.7419
16222SOL     OW52581   4.235   5.565   6.548  0.4779  0.0046 -0.4128
16222SOL    HW152582   4.263   5.656   6.557 -2.6910  0.9486  2.0768
16222SOL    HW252583   4.172   5.567   6.476  1.5253 -0.5978 -1.3717
16223SOL     OW52584   2.197   4.032   2.396 -0.1540 -0.2091 -0.7033
16223SOL    HW152585   2.174   4.058   2.307  0.0018 -1.2836 -1.0599
16223SOL    HW252586   2.118   4.051   2.448  0.1463  1.5499 -0.8078
16224SOL     OW52587   1.993   8.842   1.621  0.4484 -0.0420  0.0186
16224SOL    HW152588   2.010   8.804   1.707 -0.9526 -0.4668  0.1321
16224SOL    HW252589   1.984   8.767   1.562 -0.7069  0.1426 -0.0701
16225SOL     OW52590   5.960   2.896   1.397 -0.6251 -0.6426 -0.4551
16225SOL    HW152591   5.989   2.978   1.357 -0.2308 -0.9516 -0.8050
16225SOL    HW252592   5.945   2.837   1.324 -1.6349 -0.6599 -0.2475
16226SOL     OW52593   4.483   2.534   8.886 -0.1695 -0.0201 -0.1941
16226SOL    HW152594   4.564   2.489   8.864  0.7097 -0.5995  3.6044
16226SOL    HW252595   4.510   2.623   8.908 -0.3850 -0.3607  1.6103
16227SOL     OW52596   9.479   1.736   6.973  0.0944  0.1167  0.3603
16227SOL    HW152597   9.410   1.675   6.948 -0.1761  0.1914  0.9139
16227SOL    HW252598   9.494   1.718   7.066  1.5712 -0.6532 -0.0000
16228SOL     OW52599   9.529   1.318   7.591  0.3070  0.4551  0.3291
16228SOL    HW152600   9.499   1.391   7.646  0.3389  0.9236 -0.2626
16228SOL    HW252601   9.623   1.330   7.583  0.6625 -0.8468  1.9341
16229SOL     OW52602   8.524   3.545   0.436  0.3228  0.0717 -0.0583
16229SOL    HW152603   8.603   3.570   0.388  0.7865 -0.0935  0.5939
16229SOL    HW252604   8.528   3.449   0.441  1.0676  0.1501  1.5633
16230SOL     OW52605   4.144   6.988   2.318  0.3063 -0.9149 -0.5630
16230SOL    HW152606   4.139   7.024   2.230 -1.9242 -2.3497 -1.1090
16230SOL    HW252607   4.117   7.060   2.375 -0.7559 -0.7120 -1.3075
16231SOL     OW52608   5.331   2.779   4.404  0.2688  0.0900  0.3785
16231SOL    HW152609   5.382   2.703   4.376 -1.1108 -1.4445  1.7651
16231SOL    HW252610   5.275   2.800   4.329 -0.5961 -1.4461  0.5529
16232SOL     OW52611   2.975   9.974   1.546  0.3965  0.1437 -0.1112
16232SOL    HW152612   2.916   9.956   1.619  2.7549 -0.3950  1.8361
16232SOL    HW252613   3.006   9.888   1.519 -0.6005  0.3273 -1.9638
16233SOL     OW52614   8.611   6.813   6.989  0.1795  0.4466  0.2216
16233SOL    HW152615   8.675   6.850   6.928 -2.6321  2.4580 -1.7041
16233SOL    HW252616   8.603   6.879   7.058  0.6933 -0.1836  0.9117
16234SOL     OW52617   5.738   6.494   4.938  0.1386 -0.2972 -0.2375
16234SOL    HW152618   5.718   6.456   4.853 -1.2595 -1.4178  0.5499
16234SOL    HW252619   5.797   6.431   4.980  0.7296  0.1932 -0.3080
16235SOL     OW52620   8.984   0.673   3.104  0.0075  0.8821 -0.1687
16235SOL    HW152621   9.032   0.637   3.179 -0.9992  0.9594  0.5270
16235SOL    HW252622   8.913   0.723   3.143 -1.2846 -0.1174 -1.1761
16236SOL     OW52623   1.998   4.063   4.213 -0.4753  0.0271  0.3966
16236SOL    HW152624   2.080   4.016   4.227  0.3259  0.6773 -1.7458
16236SOL    HW252625   1.977   4.048   4.121 -2.2022  0.7897  0.6229
16237SOL     OW52626   0.992   3.746   0.199 -0.1930  0.1722 -0.0606
16237SOL    HW152627   1.040   3.671   0.164 -4.1604 -1.8916 -1.7278
16237SOL    HW252628   0.994   3.734   0.294  2.3723  0.2003 -0.0437
16238SOL     OW52629   8.651   6.473   2.172  0.3952  0.3701 -0.2080
16238SOL    HW152630   8.726   6.494   2.116  0.1062  3.0470  0.2599
16238SOL    HW252631   8.681   6.494   2.260  0.3829 -2.4779  0.5665
16239SOL     OW52632   0.023   8.063   8.530  0.2271 -0.1041 -0.2179
16239SOL    HW152633   0.042   8.156   8.529 -0.7886  0.1075 -1.0373
16239SOL    HW252634   0.071   8.027   8.455 -0.9658  0.1034 -1.0977
16240SOL     OW52635   5.007  10.140   4.542  0.0748 -0.4917  0.7345
16240SOL    HW152636   5.014  10.065   4.483 -0.6749 -1.3513  1.6877
16240SOL    HW252637   5.016  10.217   4.486  1.7004 -1.2795 -0.1658
16241SOL     OW52638   1.668   3.792   9.121  0.0071  0.2049 -0.2931
16241SOL    HW152639   1.654   3.825   9.210 -3.2051  0.3332 -0.7375
16241SOL    HW252640   1.710   3.707   9.133 -1.5614 -0.3869  1.4649
16242SOL     OW52641   6.870   8.172   3.184  0.3848  0.0468 -0.7246
16242SOL    HW152642   6.811   8.229   3.234  0.4996  0.2898 -0.8694
16242SOL    HW252643   6.847   8.187   3.093  0.9565  0.4556 -0.8054
16243SOL     OW52644   9.890   2.306   4.488 -0.4558 -0.1723 -0.2724
16243SOL    HW152645   9.977   2.283   4.520 -0.7232 -1.2108 -0.2650
16243SOL    HW252646   9.871   2.242   4.420 -1.1029  0.2193 -0.4738
16244SOL     OW52647   9.128   1.572   2.275 -0.1722 -0.0873 -0.3142
16244SOL    HW152648   9.206   1.517   2.279  0.6366  1.0567  2.6629
16244SOL    HW252649   9.062   1.525   2.327 -0.7585 -0.0573 -1.0240
16245SOL     OW52650   4.866   0.213   9.496 -0.4476 -0.4691  0.1681
16245SOL    HW152651   4.825   0.235   9.579 -0.1390 -0.5253  0.3377
16245SOL    HW252652   4.940   0.273   9.488 -0.8531 -0.0239 -0.3803
16246SOL     OW52653   7.664   0.363   0.096  0.0807 -0.2957 -0.2376
16246SOL    HW152654   7.589   0.306   0.113 -0.4360  0.2521 -0.6090
16246SOL    HW252655   7.741   0.309   0.115 -0.3926 -0.1785  2.4516
16247SOL     OW52656  10.185   7.248   4.090 -0.0080  0.1267  0.3106
16247SOL    HW152657  10.204   7.195   4.013 -0.5138 -1.1029  1.0163
16247SOL    HW252658  10.239   7.327   4.078  0.2678 -0.2454 -1.0589
16248SOL     OW52659   2.460   1.548   7.533  0.2501 -0.4050 -0.1010
16248SOL    HW152660   2.423   1.629   7.567 -1.3320 -1.2478  0.2465
16248SOL    HW252661   2.408   1.478   7.573  0.5974 -1.5498 -1.5369
16249SOL     OW52662   4.034   4.009   4.449 -0.5787  0.3494 -0.1950
16249SOL    HW152663   4.075   4.081   4.496 -1.0734 -0.1686  1.0620
16249SOL    HW252664   4.038   4.035   4.357  0.1903  1.4917  0.1450
16250SOL     OW52665   0.243   4.972   0.944  0.0958  0.1740  0.3723
16250SOL    HW152666   0.193   4.894   0.918 -0.3787 -0.6775  3.4757
16250SOL    HW252667   0.187   5.045   0.919 -0.0425 -0.5010 -1.4262
16251SOL     OW52668   1.905   2.979   3.675  0.0555  0.3284 -0.1890
16251SOL    HW152669   1.977   3.040   3.663  0.7960 -0.0584  1.8610
16251SOL    HW252670   1.946   2.901   3.712 -1.4779  0.3816  1.7580
16252SOL     OW52671   0.637   6.994   0.304  0.0582  0.1754  0.2167
16252SOL    HW152672   0.729   7.002   0.330  0.6751 -0.9876 -1.4944
16252SOL    HW252673   0.623   7.067   0.243  0.1358 -0.2425 -0.3024
16253SOL     OW52674   2.495   9.446   6.126 -0.2979  0.2896 -0.2147
16253SOL    HW152675   2.468   9.517   6.184  0.0325  0.9884 -0.8879
16253SOL    HW252676   2.579   9.475   6.091 -0.3355 -0.2671 -0.7859
16254SOL     OW52677   9.728   1.369   4.710  0.2037  0.1324 -0.2332
16254SOL    HW152678   9.778   1.295   4.675  0.3923 -0.7209  1.7530
16254SOL    HW252679   9.637   1.350   4.686  0.2312 -0.8476  0.4147
16255SOL     OW52680   6.796   8.841   7.292 -0.4765  0.3412 -0.4473
16255SOL    HW152681   6.840   8.925   7.280  0.3044  0.3296  1.8727
16255SOL    HW252682   6.746   8.828   7.212 -0.5031  2.9501 -0.9105
16256SOL     OW52683   8.709   9.592   7.811  0.4653  0.1458  0.4632
16256SOL    HW152684   8.736   9.525   7.873  0.0772 -0.1285  0.3435
16256SOL    HW252685   8.781   9.598   7.749 -0.0739 -1.2047 -0.3628
16257SOL     OW52686   4.702   0.866   1.030  0.0142  0.1643 -0.0321
16257SOL    HW152687   4.690   0.851   0.936 -1.1088 -2.7435  0.4777
16257SOL    HW252688   4.614   0.854   1.067  0.4273  1.3304  1.4011
16258SOL     OW52689   7.656   2.047   9.026  0.4169 -1.1621  0.3383
16258SOL    HW152690   7.723   2.114   9.019 -0.7914 -0.0040 -0.8569
16258SOL    HW252691   7.666   1.995   8.946 -0.0766 -1.0015  0.1684
16259SOL     OW52692   4.094   2.029   1.834 -0.0283 -0.0966  0.2698
16259SOL    HW152693   4.162   2.097   1.835 -0.4886  0.4469 -1.5840
16259SOL    HW252694   4.142   1.947   1.825  0.4151  0.2509 -0.6390
16260SOL     OW52695   2.324   6.190   8.789 -0.1691  0.0477 -0.0997
16260SOL    HW152696   2.348   6.199   8.881 -0.6109 -3.0764  0.4254
16260SOL    HW252697   2.284   6.275   8.766  0.1516  0.9818  2.4835
16261SOL     OW52698   1.340   1.339   4.149 -0.1779 -0.4815 -0.1168
16261SOL    HW152699   1.253   1.377   4.137 -0.2918 -0.8789 -0.6027
16261SOL    HW252700   1.358   1.295   4.066 -0.0093 -1.3984  0.3974
16262SOL     OW52701   2.642   2.949   4.127 -0.0505 -0.7044  0.3794
16262SOL    HW152702   2.586   2.988   4.060 -0.7754 -0.8620  0.8879
16262SOL    HW252703   2.621   2.855   4.124  0.7831 -0.8859  0.0131
16263SOL     OW52704   3.462   2.103   0.312 -0.3014 -0.0586 -0.0733
16263SOL    HW152705   3.444   2.122   0.220  1.7328  3.7608  0.1023
16263SOL    HW252706   3.380   2.121   0.357 -0.8975 -0.4831 -0.9701
16264SOL     OW52707   7.413   4.619   5.097 -0.5943  0.3071  0.4489
16264SOL    HW152708   7.399   4.666   5.179 -0.2842  0.3361  0.4875
16264SOL    HW252709   7.503   4.641   5.072 -0.5455 -0.0343  0.3175
16265SOL     OW52710   6.984   4.010   7.296  0.3265  0.0781 -0.6988
16265SOL    HW152711   7.053   4.076   7.305  0.5143 -0.3022  1.0798
16265SOL    HW252712   6.952   3.997   7.386  0.6545 -2.6188 -0.8980
16266SOL     OW52713   5.063   0.366   7.958  0.4795 -0.0200  0.0830
16266SOL    HW152714   5.140   0.314   7.933  1.6533  0.5891  2.1875
16266SOL    HW252715   5.080   0.391   8.049 -3.0210 -1.2220  1.2044
16267SOL     OW52716   3.348   9.734   2.249 -0.0554  0.1650  0.0307
16267SOL    HW152717   3.423   9.696   2.203  1.6943  0.9691  2.0483
16267SOL    HW252718   3.317   9.804   2.192 -0.2590 -1.1156 -1.4991
16268SOL     OW52719   4.820  10.065   2.284 -0.1130  0.1270  0.5994
16268SOL    HW152720   4.745  10.025   2.326 -1.3643 -0.7706 -2.2304
16268SOL    HW252721   4.877   9.992   2.260  0.5653  0.6000  0.7301
16269SOL     OW52722   7.646   2.059   9.318  0.3090 -0.4351  0.6505
16269SOL    HW152723   7.655   2.020   9.231 -0.0576 -1.0160  0.8625
16269SOL    HW252724   7.701   2.137   9.316 -0.0922 -0.1622 -0.2670
16270SOL     OW52725   1.679   7.378   4.612 -0.1418  0.1333  0.1148
16270SOL    HW152726   1.599   7.430   4.602  1.1611  1.8447 -2.5689
16270SOL    HW252727   1.676   7.314   4.542  0.6020 -0.0992  0.2795
16271SOL     OW52728   1.634   1.116   0.897 -0.1934  0.1175 -0.7762
16271SOL    HW152729   1.564   1.058   0.867  0.3509 -0.9699 -0.0173
16271SOL    HW252730   1.613   1.134   0.989  0.8747 -0.8103 -0.3289
16272SOL     OW52731   3.955   2.095   1.386 -0.1895 -0.6275  0.3449
16272SOL    HW152732   3.992   2.167   1.436  2.0086 -1.2327 -0.2983
16272SOL    HW252733   3.935   2.132   1.300 -1.5387 -0.2159  0.7989
16273SOL     OW52734   8.426   1.640   8.745 -0.2563  0.1692  0.2430
16273SOL    HW152735   8.422   1.690   8.663 -1.2026  2.6932  1.7303
16273SOL    HW252736   8.519   1.617   8.753  0.1146  1.1927 -0.7778
16274SOL     OW52737   9.622   4.369   8.232  0.6324  0.4194  0.0143
16274SOL    HW152738   9.681   4.398   8.302 -2.6517  3.2395  1.9663
16274SOL    HW252739   9.584   4.287   8.265 -0.3524  1.3571  1.3164
16275SOL     OW52740   0.326   5.894   9.521 -1.0739 -0.7351 -0.5182
16275SOL    HW152741   0.242   5.857   9.494 -1.9011  0.0316  0.8875
16275SOL    HW252742   0.306   5.984   9.547  0.2249 -0.4632 -0.3880
16276SOL     OW52743   5.654   9.322   3.570 -0.2752 -0.1694 -0.5959
16276SOL    HW152744   5.679   9.238   3.609  2.2495  1.0400  0.6647
16276SOL    HW252745   5.656   9.384   3.643  1.1762  1.5400 -1.9895
16277SOL     OW52746   4.906   4.414   0.536 -0.4599  0.1342  0.5639
16277SOL    HW152747   4.906   4.484   0.601 -0.2831 -1.0690  1.9025
16277SOL    HW252748   4.820   4.374   0.543  0.4662 -1.7872  2.1285
16278SOL     OW52749   8.826   0.145   9.008  0.5912  0.2668  0.3549
16278SOL    HW152750   8.876   0.064   9.005  0.7970  0.3996  0.1954
16278SOL    HW252751   8.804   0.163   8.917  2.2155  1.4242  0.1419
16279SOL     OW52752   7.125   8.669   9.631 -0.1645  0.0043  0.5796
16279SOL    HW152753   7.137   8.700   9.721  2.5534 -1.9499  1.0218
16279SOL    HW252754   7.126   8.574   9.638 -0.1139 -0.1944 -1.5142
16280SOL     OW52755   9.484   7.921   5.494  0.1730 -0.0815  0.0020
16280SOL    HW152756   9.538   8.000   5.493  0.9747 -0.6095  0.2424
16280SOL    HW252757   9.548   7.849   5.494 -0.5384 -0.7200  0.3158
16281SOL     OW52758   1.418   0.767   6.980  0.5667 -0.0480 -0.5625
16281SOL    HW152759   1.416   0.837   7.045  3.0763  0.0434 -0.5093
16281SOL    HW252760   1.483   0.795   6.916  0.5690 -1.6761 -1.3163
16282SOL     OW52761   7.172   6.721   4.268 -0.6046 -0.4337 -0.6770
16282SOL    HW152762   7.100   6.673   4.227 -3.2076  1.0073  1.8063
16282SOL    HW252763   7.155   6.813   4.248 -0.6184  0.0943  1.5016
16283SOL     OW52764   8.097   6.018   0.667  0.1761 -0.2610  0.3116
16283SOL    HW152765   8.007   6.044   0.651 -0.1126 -0.2235  1.8332
16283SOL    HW252766   8.150   6.090   0.633 -0.3333 -0.4269 -0.8801
16284SOL     OW52767   4.364   1.322   7.331 -0.4082  0.1407  0.0950
16284SOL    HW152768   4.369   1.417   7.318 -2.2998  0.1178 -1.2937
16284SOL    HW252769   4.452   1.297   7.360  0.3677  2.1948 -0.2848
16285SOL     OW52770   2.552   9.126   5.650  0.0656  0.5424 -0.5714
16285SOL    HW152771   2.578   9.160   5.735 -1.9862  0.5750  0.0959
16285SOL    HW252772   2.531   9.204   5.598 -0.5724  0.4665 -0.4373
16286SOL     OW52773   4.506   1.019   3.571 -0.0503 -0.0324 -0.0890
16286SOL    HW152774   4.522   1.109   3.598  1.6898 -0.6307  1.0696
16286SOL    HW252775   4.440   0.987   3.633 -0.1856  0.2472 -0.0889
16287SOL     OW52776   2.218   4.275   6.850  0.5613 -0.1594  0.9626
16287SOL    HW152777   2.248   4.323   6.773 -0.9394 -1.0791 -0.2402
16287SOL    HW252778   2.127   4.302   6.861  0.2459 -1.3547  1.3629
16288SOL     OW52779   8.160   9.604   4.444  0.4392  0.0298  0.6999
16288SOL    HW152780   8.159   9.616   4.538 -1.4923  1.2422  0.5690
16288SOL    HW252781   8.077   9.562   4.424  1.0086 -0.6110 -0.4352
16289SOL     OW52782   4.055   3.273   3.690 -0.1628 -0.1801  0.2300
16289SOL    HW152783   4.110   3.200   3.662  0.4540  0.3764 -0.0334
16289SOL    HW252784   4.078   3.287   3.781  0.2108  0.1273  0.0867
16290SOL     OW52785   2.615   7.558   7.047  0.2306 -0.8833  0.1674
16290SOL    HW152786   2.527   7.573   7.013 -0.9078 -0.5543  2.9742
16290SOL    HW252787   2.613   7.469   7.083 -0.0071  0.0983  2.8552
16291SOL     OW52788   5.462   6.717   3.062  0.3172 -0.2782 -0.5568
16291SOL    HW152789   5.528   6.719   2.992 -0.7216 -0.0427 -1.5720
16291SOL    HW252790   5.418   6.801   3.055 -1.7693 -1.3789 -1.6133
16292SOL     OW52791   6.689   5.320   8.625 -0.5412  0.0394  0.1828
16292SOL    HW152792   6.645   5.397   8.661 -1.8447 -0.7384  0.2930
16292SOL    HW252793   6.634   5.290   8.553  0.0535 -0.6791  0.0035
16293SOL     OW52794   6.077   6.295   5.386 -0.0955  0.3745 -0.1566
16293SOL    HW152795   6.023   6.300   5.464  1.7111  1.5763  1.0901
16293SOL    HW252796   6.077   6.202   5.363 -1.0639  0.0731  0.9723
16294SOL     OW52797   9.536   4.683   2.726  0.0030  0.0571 -0.3760
16294SOL    HW152798   9.545   4.592   2.753  0.9082  0.8350  2.2246
16294SOL    HW252799   9.534   4.680   2.630 -1.1903 -2.7583 -0.3419
16295SOL     OW52800   0.380   6.663   2.516  0.4224 -0.1121 -0.2743
16295SOL    HW152801   0.424   6.585   2.482 -0.1404 -0.9498  0.8281
16295SOL    HW252802   0.452   6.722   2.540  0.8353  0.1623 -2.0655
16296SOL     OW52803   9.492   0.444   3.854 -0.1915  0.1816 -0.6628
16296SOL    HW152804   9.521   0.484   3.773 -0.6725  0.7295 -0.5712
16296SOL    HW252805   9.572   0.426   3.903  0.0118  1.6606 -0.4046
16297SOL     OW52806   3.234   2.973   9.925  0.4652  0.0236 -0.6896
16297SOL    HW152807   3.268   2.906   9.984 -0.2690  0.2154 -0.0337
16297SOL    HW252808   3.251   2.939   9.837  0.0469 -1.0479 -0.3637
16298SOL     OW52809   5.029   0.641   2.836 -0.3891  0.1252  0.1011
16298SOL    HW152810   5.084   0.718   2.828 -2.0331  1.4801  1.1510
16298SOL    HW252811   5.088   0.572   2.868  0.6248  1.6457  1.6910
16299SOL     OW52812   1.949   8.909   3.853 -0.0971  0.0982  0.2029
16299SOL    HW152813   1.915   8.980   3.800  0.2919 -0.1644 -0.4095
16299SOL    HW252814   2.044   8.919   3.849 -0.0323 -0.5530 -0.0323
16300SOL     OW52815   2.725   8.688   6.108 -0.5350 -0.6015 -0.1578
16300SOL    HW152816   2.660   8.621   6.083 -0.8820 -0.1971 -0.3434
16300SOL    HW252817   2.789   8.640   6.160  0.2640 -1.4974 -1.8758
16301SOL     OW52818   5.655   5.530   4.483  0.4412 -0.2614 -0.1087
16301SOL    HW152819   5.564   5.529   4.454  0.0089 -1.8697  1.1529
16301SOL    HW252820   5.655   5.586   4.561  0.4430 -0.6272  0.1538
16302SOL     OW52821   3.638   6.525   6.644  0.3362  0.0334 -0.3996
16302SOL    HW152822   3.703   6.467   6.684 -1.1493 -1.1997  0.3559
16302SOL    HW252823   3.662   6.529   6.552  2.4307  0.9821  0.1165
16303SOL     OW52824   7.846   7.322   9.999 -0.5794 -0.4607 -0.1371
16303SOL    HW152825   7.933   7.353   9.976 -0.3560 -0.7814  0.2790
16303SOL    HW252826   7.842   7.327  10.094 -0.9928 -0.5018 -0.1503
16304SOL     OW52827   5.511   9.380   9.235 -0.5968  0.1238  0.6550
16304SOL    HW152828   5.458   9.434   9.176 -0.8006 -0.2061  0.5358
16304SOL    HW252829   5.586   9.353   9.183 -0.6469  0.0444  0.6246
16305SOL     OW52830   9.660   6.796   5.964 -0.3297  0.6651  0.4410
16305SOL    HW152831   9.746   6.766   5.995  0.2757  1.2698 -0.5867
16305SOL    HW252832   9.631   6.859   6.030 -0.2585  0.0301  1.0894
16306SOL     OW52833   1.819   9.815   2.197  0.1844 -0.7161  0.2062
16306SOL    HW152834   1.805   9.775   2.111 -1.1206  0.2772 -0.0728
16306SOL    HW252835   1.732   9.839   2.227  0.8650  1.5206  0.5457
16307SOL     OW52836   7.043   1.978   1.424 -0.0188  0.4783  0.3064
16307SOL    HW152837   7.083   2.061   1.449  1.7509  0.5040 -2.2172
16307SOL    HW252838   6.959   2.002   1.385 -0.5336  0.8415  1.5938
16308SOL     OW52839   9.702   0.441   1.656 -0.3976 -0.7093  0.2221
16308SOL    HW152840   9.725   0.521   1.703  1.4735 -1.5162  0.7718
16308SOL    HW252841   9.623   0.410   1.700  0.7382 -0.9100  2.2274
16309SOL     OW52842   3.004   0.495   4.940 -0.8094  0.4448  0.3536
16309SOL    HW152843   3.088   0.475   4.899 -0.2745 -1.2201  2.1129
16309SOL    HW252844   2.943   0.508   4.867  0.6421  0.2406 -0.9395
16310SOL     OW52845   1.123   3.021   2.980  0.9887 -0.3946 -0.2709
16310SOL    HW152846   1.073   2.950   2.940  0.3595 -1.1673  1.7791
16310SOL    HW252847   1.169   2.981   3.054  0.1590  1.3994  1.3154
16311SOL     OW52848   8.779   5.836   2.695 -0.1741  0.4554  0.1645
16311SOL    HW152849   8.832   5.915   2.696  0.0903  0.3141 -0.8451
16311SOL    HW252850   8.762   5.816   2.787 -0.8370  2.0728  0.4249
16312SOL     OW52851   3.412   3.504   3.565  0.3511  0.0140  0.1352
16312SOL    HW152852   3.499   3.514   3.526 -0.3435 -2.0825 -2.1590
16312SOL    HW252853   3.412   3.417   3.603 -0.0190  0.9009  2.3190
16313SOL     OW52854   9.926   3.039   6.122  0.2097  0.3331 -0.0492
16313SOL    HW152855   9.923   3.125   6.165 -1.5595  0.0724  0.4139
16313SOL    HW252856   9.912   2.976   6.192  2.2855 -0.4297 -0.2546
16314SOL     OW52857   6.303   9.653   2.727  0.4987  0.6024 -0.0588
16314SOL    HW152858   6.397   9.641   2.716  0.3614 -1.8475  0.8295
16314SOL    HW252859   6.267   9.636   2.640  0.8601  1.7638 -0.4523
16315SOL     OW52860   3.200   2.031  10.057  0.3680 -0.3017 -0.3206
16315SOL    HW152861   3.253   2.108  10.036  0.7920 -0.9066 -1.6147
16315SOL    HW252862   3.207   2.022  10.152  0.5731  1.0610 -0.1936
16316SOL     OW52863   9.046   9.496   0.005 -0.4946  0.3935  0.4052
16316SOL    HW152864   9.134   9.480  -0.030 -0.0252 -0.9245  2.0919
16316SOL    HW252865   9.061   9.542   0.088 -1.3091 -0.9775  1.3479
16317SOL     OW52866   0.437   9.210   1.263 -0.4024 -0.1473 -0.0012
16317SOL    HW152867   0.413   9.119   1.283  0.0562 -0.4238 -0.6450
16317SOL    HW252868   0.419   9.218   1.169 -1.1371  0.6601  0.2008
16318SOL     OW52869   7.493   5.723   6.285 -0.5175  0.1478  0.3829
16318SOL    HW152870   7.463   5.777   6.358  0.0938 -0.0212  0.7619
16318SOL    HW252871   7.413   5.685   6.249 -1.1000  2.1015 -0.5387
16319SOL     OW52872   8.043   1.092   3.166  0.0935  0.0197 -0.5330
16319SOL    HW152873   7.978   1.162   3.176 -0.6401 -0.9095  1.8486
16319SOL    HW252874   8.127   1.136   3.170 -0.3243  1.1073 -2.4552
16320SOL     OW52875   2.937   1.480   3.207 -0.3859  0.5433  0.2216
16320SOL    HW152876   2.957   1.450   3.119  0.4814  0.5991  0.3859
16320SOL    HW252877   2.994   1.556   3.220 -0.0391  0.1672  1.0401
16321SOL     OW52878   7.563   3.210   8.790  0.0027  0.1972  0.0739
16321SOL    HW152879   7.636   3.149   8.779 -1.3791 -1.5710  0.2151
16321SOL    HW252880   7.531   3.225   8.701  0.0392  0.3158  0.0811
16322SOL     OW52881   7.889   9.787   3.709 -0.3330 -0.2143 -0.1478
16322SOL    HW152882   7.946   9.746   3.774 -1.0685 -0.7453  0.1867
16322SOL    HW252883   7.855   9.865   3.753 -1.8070 -1.2332  0.6066
16323SOL     OW52884   8.375   3.041   9.054  0.0313  0.0437  0.1193
16323SOL    HW152885   8.429   3.025   9.132 -0.9579  1.2978  1.1001
16323SOL    HW252886   8.439   3.064   8.986  0.9997 -2.1342  0.2053
16324SOL     OW52887   2.503   6.457   8.302  0.0649  0.3589 -0.3502
16324SOL    HW152888   2.557   6.488   8.375 -0.2626 -0.5476  0.2963
16324SOL    HW252889   2.566   6.434   8.234  0.6508 -1.7703  0.8066
16325SOL     OW52890   3.340   8.270   7.227 -0.1693 -0.3753 -0.4811
16325SOL    HW152891   3.429   8.305   7.225 -0.6852  0.9840 -0.7218
16325SOL    HW252892   3.351   8.177   7.244  1.3434 -0.3736 -1.3014
16326SOL     OW52893   5.601   4.290   1.166 -0.2896 -0.0394 -0.3862
16326SOL    HW152894   5.514   4.311   1.199 -0.3598 -0.7211 -0.1114
16326SOL    HW252895   5.600   4.195   1.155  0.3635 -0.0348 -0.5427
16327SOL     OW52896   9.903  10.184   3.528  0.3798  0.2466 -0.0408
16327SOL    HW152897   9.950  10.260   3.494 -0.2377  0.9542  0.6439
16327SOL    HW252898   9.932  10.111   3.473  0.3903  1.1190 -1.2232
16328SOL     OW52899   2.775   7.880   0.656 -0.1257 -0.3357 -0.0496
16328SOL    HW152900   2.822   7.881   0.573  0.8657 -0.6647  0.4938
16328SOL    HW252901   2.684   7.901   0.632  0.0369 -0.9283 -1.2703
16329SOL     OW52902   5.242   7.022   9.435  0.2677  0.0888  0.1539
16329SOL    HW152903   5.218   6.958   9.503  0.8842  0.4856  0.7665
16329SOL    HW252904   5.329   6.994   9.407  0.4247  0.5003  0.2336
16330SOL     OW52905  10.109   9.860   3.802  0.0176 -0.3597  0.0188
16330SOL    HW152906  10.018   9.840   3.781  0.2229 -2.4046  0.7960
16330SOL    HW252907  10.145   9.777   3.834  1.9573  0.5728  0.4316
16331SOL     OW52908   8.991   9.740   1.255  0.1795 -0.2949  0.2252
16331SOL    HW152909   9.034   9.666   1.298  0.2785 -0.5413 -0.2919
16331SOL    HW252910   8.922   9.767   1.316  0.9265 -0.0255  0.9774
16332SOL     OW52911   6.751   2.257   7.474  0.3250  0.3011  0.0114
16332SOL    HW152912   6.667   2.280   7.436  0.1824 -0.1151  0.0710
16332SOL    HW252913   6.806   2.233   7.399 -0.1915 -1.2770  0.1132
16333SOL     OW52914   7.668   3.125   0.551  0.2959 -0.2489  0.4921
16333SOL    HW152915   7.581   3.113   0.514  0.2565  1.4705 -0.0528
16333SOL    HW252916   7.720   3.054   0.514 -0.9093 -1.4906  1.0703
16334SOL     OW52917   6.523   2.716   4.687 -1.0334 -0.0708  0.3814
16334SOL    HW152918   6.429   2.721   4.706 -0.6214 -0.3083  2.8502
16334SOL    HW252919   6.562   2.779   4.748  0.2651  2.0818 -2.4449
16335SOL     OW52920   6.432   6.887   5.523  0.1330 -0.4869  0.5191
16335SOL    HW152921   6.510   6.836   5.503 -0.1916 -1.2907  1.2263
16335SOL    HW252922   6.361   6.838   5.482  0.0433  0.5128 -0.5641
16336SOL     OW52923   1.777   7.949   2.663 -0.4269  0.2298  0.1727
16336SOL    HW152924   1.732   7.993   2.591  0.9962 -0.3545 -1.1154
16336SOL    HW252925   1.848   7.901   2.621 -1.0873 -2.2222  1.6669
16337SOL     OW52926   1.655   6.747   4.097  0.0931 -0.1988  0.0659
16337SOL    HW152927   1.576   6.695   4.080 -0.5055  1.0756 -1.2716
16337SOL    HW252928   1.707   6.737   4.018  2.1105 -2.3078  1.5251
16338SOL     OW52929   5.305   4.357   9.400  0.0614 -0.0844  0.0962
16338SOL    HW152930   5.350   4.352   9.485 -0.3741 -0.4817  0.3078
16338SOL    HW252931   5.218   4.321   9.417  0.6562 -2.1537 -1.0049
16339SOL     OW52932   3.479   0.389   4.385 -0.5275  0.2482 -0.1942
16339SOL    HW152933   3.530   0.368   4.463  1.1872 -0.4821 -1.4706
16339SOL    HW252934   3.445   0.477   4.402  0.4077  0.3899  1.0614
16340SOL     OW52935   8.864   3.388   3.992 -0.6600 -0.9264 -0.8915
16340SOL    HW152936   8.945   3.439   4.004 -0.5829 -1.4705  1.4575
16340SOL    HW252937   8.815   3.437   3.926 -0.4018  2.0512  0.9089
16341SOL     OW52938   2.609   3.595   1.375  0.1527 -0.2012 -0.1860
16341SOL    HW152939   2.646   3.550   1.300  0.5579 -2.1134  1.0746
16341SOL    HW252940   2.514   3.589   1.363  0.2203  0.3400 -0.9975
16342SOL     OW52941  10.200   4.327   0.493 -0.2321  0.0819 -0.0425
16342SOL    HW152942  10.293   4.332   0.516  0.0568 -0.3764 -1.0377
16342SOL    HW252943  10.158   4.396   0.544  0.4332 -0.5974  1.4535
16343SOL     OW52944   4.726   0.982   3.434 -0.2754  0.0607  0.6515
16343SOL    HW152945   4.713   1.061   3.383 -1.1805 -1.0891 -0.9871
16343SOL    HW252946   4.649   0.978   3.492 -0.7357 -0.0918  0.0448
16344SOL     OW52947   9.628   6.295   6.669  0.1013 -0.1190  0.6403
16344SOL    HW152948   9.689   6.368   6.677 -0.5986  0.3810  1.8546
16344SOL    HW252949   9.625   6.256   6.757 -0.9936 -0.3773  0.5141
16345SOL     OW52950   2.514   9.117   4.450  0.0183  0.5740 -0.3344
16345SOL    HW152951   2.511   9.209   4.426 -3.5557 -0.2220 -3.9762
16345SOL    HW252952   2.451   9.108   4.522  2.5682  1.2310  2.1711
16346SOL     OW52953   0.749   1.456   8.770  0.1856  0.0939  0.2020
16346SOL    HW152954   0.677   1.394   8.787 -1.8453  1.9659 -0.9835
16346SOL    HW252955   0.790   1.424   8.690  0.4239 -0.7684  0.6587
16347SOL     OW52956   5.030   1.263   0.355  0.3801 -0.3473  0.3789
16347SOL    HW152957   5.021   1.314   0.436 -1.1025 -1.8246  1.2200
16347SOL    HW252958   5.008   1.173   0.381  0.4838 -0.9689 -1.5450
16348SOL     OW52959   6.418   8.486   0.806 -0.4727  0.0160 -0.1395
16348SOL    HW152960   6.460   8.427   0.868  0.0915  0.6473  0.0930
16348SOL    HW252961   6.334   8.508   0.847  0.2481  1.0906  0.8244
16349SOL     OW52962   3.470   9.401   4.239  0.3045 -0.3632 -0.2468
16349SOL    HW152963   3.541   9.463   4.254 -1.6863  1.9705  0.3691
16349SOL    HW252964   3.448   9.369   4.326 -1.4836  1.5590  0.1014
16350SOL     OW52965   0.862   7.240   3.251 -0.0958  0.2389 -0.2912
16350SOL    HW152966   0.894   7.161   3.295 -0.2745  1.4002  2.1052
16350SOL    HW252967   0.780   7.213   3.209  1.1156 -1.4135 -1.6955
16351SOL     OW52968   4.464   2.518   3.226 -0.1500 -1.1619  0.5229
16351SOL    HW152969   4.518   2.441   3.209  1.2258 -0.1605  0.2703
16351SOL    HW252970   4.458   2.562   3.141 -1.5538 -1.3550  0.4978
16352SOL     OW52971   8.463   2.327   9.154  0.2416 -0.8839  0.0962
16352SOL    HW152972   8.428   2.243   9.184 -0.2403 -1.0524 -0.9079
16352SOL    HW252973   8.391   2.388   9.166  1.1376 -0.1791  2.5260
16353SOL     OW52974   1.882   5.465   6.544 -0.1144 -0.4698 -0.0258
16353SOL    HW152975   1.882   5.385   6.492 -0.7391  0.5437 -1.6514
16353SOL    HW252976   1.862   5.534   6.482  0.0943  0.9290  1.4009
16354SOL     OW52977   8.851   9.433   6.925  0.4252 -0.9071  0.3408
16354SOL    HW152978   8.926   9.412   6.870  0.3257 -2.0848  0.6247
16354SOL    HW252979   8.781   9.376   6.893 -0.5252  0.5597 -0.2744
16355SOL     OW52980   8.072   1.101   3.789  0.3512  0.0221 -0.0941
16355SOL    HW152981   8.119   1.031   3.835 -0.8906  0.6642  2.3449
16355SOL    HW252982   7.981   1.073   3.788  0.1376  0.6986 -0.9009
16356SOL     OW52983   8.374   2.110   4.603 -0.4013 -0.0704  0.0744
16356SOL    HW152984   8.397   2.074   4.689  3.3609  0.1337 -0.6787
16356SOL    HW252985   8.391   2.038   4.542 -1.5344  0.2744 -0.6776
16357SOL     OW52986   8.264   1.489   6.693  0.4571  0.1247  0.4288
16357SOL    HW152987   8.262   1.573   6.646  0.8273 -0.3658 -0.5031
16357SOL    HW252988   8.339   1.497   6.753  0.7583  0.3101  0.0337
16358SOL     OW52989   2.965   8.337   4.722 -0.5480 -0.2233 -0.1914
16358SOL    HW152990   2.903   8.409   4.717 -0.3991 -0.0687  0.2209
16358SOL    HW252991   3.008   8.347   4.806  0.6316  0.1504 -0.8172
16359SOL     OW52992   7.635   0.381   3.823 -0.1975 -0.1369 -0.2793
16359SOL    HW152993   7.633   0.434   3.744 -1.6216 -0.2583 -0.3375
16359SOL    HW252994   7.707   0.419   3.875 -0.9616  1.6418 -0.4502
16360SOL     OW52995   0.514   4.977   3.381 -0.4765 -0.5351 -0.0283
16360SOL    HW152996   0.493   4.914   3.449 -2.4491  0.1631  0.0663
16360SOL    HW252997   0.564   5.045   3.427 -1.3937 -0.2961  0.6588
16361SOL     OW52998   1.131  10.189   5.492  0.3547  0.5193  0.0217
16361SOL    HW152999   1.168  10.134   5.560 -0.5265 -1.0615 -0.7308
16361SOL    HW253000   1.198  10.192   5.424  1.2614  2.1518  0.9337
16362SOL     OW53001   4.189   0.274   0.724  0.5788  0.2310 -0.3375
16362SOL    HW153002   4.186   0.312   0.636 -0.6249 -0.7786 -0.7597
16362SOL    HW253003   4.100   0.246   0.741  1.1853 -1.3408  0.4299
16363SOL     OW53004   9.408   4.225   2.867 -0.1870 -0.6186 -0.1080
16363SOL    HW153005   9.333   4.229   2.808 -0.6399  1.4519  0.5409
16363SOL    HW253006   9.389   4.289   2.935  2.6803  0.8358 -0.5267
16364SOL     OW53007   7.937   2.237   6.784 -0.0648 -0.3799 -0.3915
16364SOL    HW153008   7.897   2.156   6.816 -0.8585  0.0543 -0.2575
16364SOL    HW253009   7.887   2.307   6.825  0.2572  0.1827 -0.9314
16365SOL     OW53010   4.066   9.575   1.516  0.0073 -0.3485  0.1923
16365SOL    HW153011   4.035   9.563   1.426  1.5978  0.4433 -0.5156
16365SOL    HW253012   4.100   9.664   1.517 -0.5463 -0.1390  1.7783
16366SOL     OW53013   8.781   3.373   8.229 -0.0518 -0.6226 -0.0952
16366SOL    HW153014   8.686   3.359   8.222 -0.4350  1.8549 -0.8731
16366SOL    HW253015   8.799   3.371   8.323 -0.9849 -0.5911  0.0971
16367SOL     OW53016   4.537   0.099   6.423  0.2434 -0.1198 -0.2240
16367SOL    HW153017   4.522   0.156   6.498  0.2748  0.3150 -0.5437
16367SOL    HW253018   4.516   0.153   6.347 -1.4515 -1.0921 -0.4815
16368SOL     OW53019   7.390   7.753   5.223  0.1183  0.2594 -0.5322
16368SOL    HW153020   7.387   7.838   5.179  3.3554  1.5323  1.3146
16368SOL    HW253021   7.391   7.774   5.316 -0.6042 -1.9312  0.0212
16369SOL     OW53022   7.867   2.399   7.668 -0.0190  0.0448  0.1203
16369SOL    HW153023   7.928   2.331   7.697  1.4719  2.3344  2.9031
16369SOL    HW253024   7.923   2.469   7.636 -1.2848  1.2772  0.5083
16370SOL     OW53025   5.227   2.048   0.211  0.0356  0.4528  0.5487
16370SOL    HW153026   5.310   2.089   0.187  0.0872 -0.9042 -1.9580
16370SOL    HW253027   5.249   1.956   0.223 -1.1683 -0.0913 -0.9936
16371SOL     OW53028   6.398   6.759   9.194  0.6469 -0.9049  0.1930
16371SOL    HW153029   6.326   6.769   9.256  1.0702  1.6954  0.3533
16371SOL    HW253030   6.357   6.766   9.108  0.7435  1.7080  0.2852
16372SOL     OW53031   9.804   9.389   0.114  0.1772 -0.2325  0.3759
16372SOL    HW153032   9.813   9.318   0.177  0.9369 -0.1795  0.3366
16372SOL    HW253033   9.829   9.467   0.163 -0.6007  0.0040  0.4028
16373SOL     OW53034  10.195   6.348   0.501  0.3977 -0.0910 -0.5844
16373SOL    HW153035  10.201   6.252   0.498  3.1225 -0.0711  0.9311
16373SOL    HW253036  10.107   6.365   0.533  0.3074 -2.1651  0.4580
16374SOL     OW53037   6.013   7.484   2.652 -0.2157 -0.0041  0.3613
16374SOL    HW153038   5.953   7.486   2.726 -0.2709 -0.1010  0.3199
16374SOL    HW253039   5.958   7.506   2.577 -0.2967 -0.5214  0.2606
16375SOL     OW53040   5.186   0.781   4.362  0.2568  0.0484 -0.3264
16375SOL    HW153041   5.126   0.748   4.295 -1.4020  1.7712  0.2339
16375SOL    HW253042   5.199   0.874   4.339  2.8325 -0.2574 -0.4681
16376SOL     OW53043   7.293   3.401   4.190  0.4563  0.0267 -0.2550
16376SOL    HW153044   7.255   3.405   4.102 -2.5738 -0.6001  0.8986
16376SOL    HW253045   7.325   3.490   4.207 -0.2258  0.5189 -1.4641
16377SOL     OW53046   8.665   7.781   4.888  0.3817 -0.2747  0.1108
16377SOL    HW153047   8.667   7.778   4.983 -0.9136 -0.5423  0.1491
16377SOL    HW253048   8.572   7.787   4.866  0.7291  2.7889 -1.0480
16378SOL     OW53049   3.974   5.984   8.910  0.0568  0.0087  0.3085
16378SOL    HW153050   3.890   5.954   8.874 -0.0514  0.1841  0.4174
16378SOL    HW253051   3.958   5.993   9.004  0.3838 -0.5997  0.4256
16379SOL     OW53052   9.560   0.341   4.764 -0.1464  0.2473 -0.1634
16379SOL    HW153053   9.525   0.266   4.812 -0.5672  0.2505 -0.4594
16379SOL    HW253054   9.573   0.309   4.675  0.6098  0.2475 -0.0585
16380SOL     OW53055   1.205   0.181   0.618  0.1434 -0.0813 -0.4517
16380SOL    HW153056   1.199   0.170   0.713 -2.2988  0.5599 -0.4617
16380SOL    HW253057   1.155   0.108   0.582  1.5270 -0.6442 -1.3093
16381SOL     OW53058   1.128   3.428   5.464  0.1030 -0.3385 -0.4957
16381SOL    HW153059   1.134   3.379   5.382 -1.0924 -0.8364 -0.3108
16381SOL    HW253060   1.068   3.377   5.518 -0.6773  0.9905 -0.0585
16382SOL     OW53061   7.586   4.539   0.879  0.0419 -0.2388 -0.4643
16382SOL    HW153062   7.558   4.627   0.902 -0.1649 -0.5252  0.4180
16382SOL    HW253063   7.530   4.481   0.930  1.9906 -0.8314  1.1611
16383SOL     OW53064   4.254  10.018   2.382 -0.6720 -0.2020  0.9436
16383SOL    HW153065   4.200   9.948   2.418  0.6275 -2.2610 -0.9072
16383SOL    HW253066   4.336  10.014   2.431 -0.1013 -0.9029 -0.0296
16384SOL     OW53067   5.023   7.439   9.541 -0.0434  0.2312  0.2097
16384SOL    HW153068   4.942   7.456   9.588 -0.8886  0.9049 -1.3883
16384SOL    HW253069   5.076   7.386   9.600 -1.8850 -0.7044  1.0716
16385SOL     OW53070   8.496   8.931   6.894  0.1940 -0.0576 -0.3111
16385SOL    HW153071   8.434   8.977   6.951 -1.6876  0.0385 -2.3249
16385SOL    HW253072   8.560   8.997   6.870  0.4975  0.1299  0.9550
16386SOL     OW53073   1.818   1.160   0.240 -0.8094  0.2001  0.3541
16386SOL    HW153074   1.834   1.147   0.334  1.0961  0.7691  0.1552
16386SOL    HW253075   1.873   1.094   0.197  0.6150  1.7729 -0.3830
16387SOL     OW53076   6.423   0.872   5.520  0.4159 -0.2592  0.2000
16387SOL    HW153077   6.495   0.810   5.531  0.6975 -0.0060 -0.1516
16387SOL    HW253078   6.467   0.957   5.511  0.2342 -0.3471 -2.2111
16388SOL     OW53079   9.587   9.560   9.764 -0.2618 -0.0044 -0.2675
16388SOL    HW153080   9.640   9.560   9.844 -0.4632 -0.9072 -0.1256
16388SOL    HW253081   9.536   9.641   9.770 -0.5458 -0.2349  0.7129
16389SOL     OW53082   3.113   9.282   4.677  0.3597  0.3113 -0.3543
16389SOL    HW153083   3.023   9.261   4.653  0.7091 -1.1984 -0.4845
16389SOL    HW253084   3.158   9.295   4.594  0.3864  0.4720 -0.3142
16390SOL     OW53085   8.941   8.193   0.044  0.1396  0.0597 -0.8544
16390SOL    HW153086   8.963   8.156  -0.042 -0.9692  0.5039 -1.3527
16390SOL    HW253087   8.872   8.136   0.077  1.0503 -0.5388  0.0942
16391SOL     OW53088   6.500   5.297   3.009 -0.0831 -0.1084  0.4658
16391SOL    HW153089   6.497   5.316   3.103 -1.2699 -1.8337  0.8221
16391SOL    HW253090   6.412   5.318   2.978  0.1672  0.0080 -0.1830
16392SOL     OW53091   1.622   4.223   8.822  0.1664  0.5734 -0.1618
16392SOL    HW153092   1.616   4.128   8.818  2.8926  0.3627 -1.4216
16392SOL    HW253093   1.561   4.254   8.755  1.3463 -0.4597 -1.7739
16393SOL     OW53094   5.908   2.961   3.811 -0.5481 -0.5433  0.1561
16393SOL    HW153095   5.945   2.950   3.899 -1.9323  1.1485  1.0093
16393SOL    HW253096   5.981   2.991   3.758 -0.1686  0.5991  1.2719
16394SOL     OW53097   5.058   7.259   7.056 -0.7438  0.2791  0.2054
16394SOL    HW153098   5.005   7.216   6.990 -2.8959  0.7539  1.5278
16394SOL    HW253099   5.102   7.188   7.102  0.5174 -0.0729 -1.4557
16395SOL     OW53100   5.727   7.195   6.723  0.1124  0.1397 -0.3922
16395SOL    HW153101   5.666   7.167   6.791 -1.5681  0.2316 -1.7874
16395SOL    HW253102   5.735   7.290   6.737  1.5975 -0.1646  1.0486
16396SOL     OW53103   5.964   3.972   8.862 -0.0422  0.0054  0.2985
16396SOL    HW153104   6.016   3.914   8.918 -0.3596 -0.8971 -0.3142
16396SOL    HW253105   6.028   4.022   8.812  0.2753 -1.6345 -1.0002
16397SOL     OW53106   5.877   6.339   1.444 -0.3165  0.1148  0.0546
16397SOL    HW153107   5.920   6.354   1.359  1.0431  0.0600  0.7001
16397SOL    HW253108   5.873   6.426   1.484 -0.6843  0.0952  0.0660
16398SOL     OW53109   5.764   3.145   0.021  0.0640 -0.1137  0.6207
16398SOL    HW153110   5.701   3.165   0.090  0.2661 -0.9497  1.0597
16398SOL    HW253111   5.848   3.139   0.066  0.0427 -1.7222  0.4866
16399SOL     OW53112   7.592   0.721   0.134  0.3129 -0.3076 -0.0505
16399SOL    HW153113   7.638   0.668   0.199  2.4514  0.9171 -0.4418
16399SOL    HW253114   7.587   0.808   0.174 -2.0635 -0.4554  0.1012
16400SOL     OW53115   7.042   2.399   4.545  0.0619  0.2082  0.1952
16400SOL    HW153116   7.097   2.321   4.556 -0.7898 -0.2633  1.2270
16400SOL    HW253117   7.102   2.466   4.511  1.3179 -0.2369  1.4699
16401SOL     OW53118   7.757  10.131   6.127 -0.1261  0.2770  0.4569
16401SOL    HW153119   7.832  10.174   6.085  0.3002 -0.9510 -0.0671
16401SOL    HW253120   7.796  10.085   6.202 -0.3263 -0.4993  0.0865
16402SOL     OW53121   6.634   4.267   1.734 -0.3446 -0.3391  0.0102
16402SOL    HW153122   6.566   4.278   1.801  0.1843 -0.4311  0.5731
16402SOL    HW253123   6.699   4.334   1.754  0.3236 -1.0348  0.2403
16403SOL     OW53124   2.798   9.746   5.051 -0.6335 -0.1570  0.7274
16403SOL    HW153125   2.738   9.766   5.123  1.7488 -0.4688  2.9567
16403SOL    HW253126   2.883   9.736   5.093  0.8386 -0.7467 -2.1361
16404SOL     OW53127   7.567   0.283   2.227  0.0370  0.3839  0.2924
16404SOL    HW153128   7.490   0.227   2.217  0.7967 -0.9467  1.5301
16404SOL    HW253129   7.543   0.365   2.184 -2.3281  0.2698  1.2613
16405SOL     OW53130   2.622   4.350   9.724 -0.1389 -0.1662 -1.1210
16405SOL    HW153131   2.539   4.313   9.697  0.8987 -0.7145 -3.9000
16405SOL    HW253132   2.664   4.280   9.775 -2.2968  1.0276  2.7064
16406SOL     OW53133   1.262   3.350   3.920  0.0468 -0.4644 -0.5084
16406SOL    HW153134   1.331   3.301   3.965 -1.3959 -1.2207  0.9625
16406SOL    HW253135   1.297   3.440   3.916  0.8176 -0.6585  0.9092
16407SOL     OW53136   8.957   9.507   3.197 -0.4730  0.5819 -0.2971
16407SOL    HW153137   8.891   9.439   3.186 -0.4106  0.5336 -0.3757
16407SOL    HW253138   8.956   9.527   3.291 -0.6507  0.6317 -0.3094
16408SOL     OW53139   1.399   7.625   8.654  0.0944  0.2052 -1.2497
16408SOL    HW153140   1.450   7.688   8.603  0.9593  0.1210 -0.5073
16408SOL    HW253141   1.328   7.676   8.692  1.5122  1.0376  0.3975
16409SOL     OW53142   4.757   3.486   0.059 -0.1681 -0.0234 -0.6179
16409SOL    HW153143   4.708   3.522  -0.015 -0.7965  0.2915 -0.0510
16409SOL    HW253144   4.690   3.455   0.120  0.2921 -3.0173 -1.4571
16410SOL     OW53145   6.626   7.230   4.138  0.3427  0.2462  0.5551
16410SOL    HW153146   6.635   7.210   4.231 -0.2364  2.7203  1.2222
16410SOL    HW253147   6.653   7.322   4.130 -0.2795  0.3103 -1.5956
16411SOL     OW53148   7.260   7.276   9.288  0.0273 -0.0666  0.0867
16411SOL    HW153149   7.345   7.244   9.319 -0.9079 -1.1450  1.6898
16411SOL    HW253150   7.204   7.199   9.286 -1.3970  0.9009  0.8222
16412SOL     OW53151   2.705   9.074   9.987 -0.1541  0.1471  0.4058
16412SOL    HW153152   2.755   9.068  10.068  0.2065 -1.7525  0.1032
16412SOL    HW253153   2.746   9.145   9.938 -0.1222  1.0381  1.6958
16413SOL     OW53154   2.551   3.096   4.797  0.5099  0.2661 -0.0650
16413SOL    HW153155   2.624   3.049   4.756  0.4530  0.6910 -0.6607
16413SOL    HW253156   2.495   3.122   4.724 -0.0709  0.2294  0.3626
16414SOL     OW53157   9.344   4.706   8.808  0.3926  0.2806  0.1207
16414SOL    HW153158   9.341   4.733   8.900 -0.7190 -0.8377  0.4441
16414SOL    HW253159   9.410   4.762   8.769 -0.8496  2.5080  1.0324
16415SOL     OW53160   9.704   6.988   5.401 -0.8456 -0.3442  0.1831
16415SOL    HW153161   9.670   6.913   5.450 -0.6330 -1.7547 -1.7295
16415SOL    HW253162   9.675   6.974   5.311  0.4572  1.0881 -0.5104
16416SOL     OW53163   5.430   7.058   3.872 -0.3850 -0.3668  0.3877
16416SOL    HW153164   5.476   7.045   3.789  1.1382  1.6077  0.8375
16416SOL    HW253165   5.337   7.052   3.849 -0.0023 -2.5683 -0.9113
16417SOL     OW53166   8.522   3.901   8.382 -0.1630 -0.0672  0.0839
16417SOL    HW153167   8.607   3.913   8.424 -0.1844  2.1137 -0.3689
16417SOL    HW253168   8.525   3.812   8.346  3.1556  0.8925 -2.5542
16418SOL     OW53169   6.132   3.925   5.642 -0.3014 -0.2048  0.5604
16418SOL    HW153170   6.051   3.928   5.694  0.0331  0.9502  1.0541
16418SOL    HW253171   6.103   3.944   5.553 -0.3760  2.6448  1.0695
16419SOL     OW53172   1.428   9.730   1.352 -0.1030 -0.3631 -0.1159
16419SOL    HW153173   1.391   9.646   1.379  0.7642 -0.1462  1.8737
16419SOL    HW253174   1.518   9.728   1.385 -0.2382  1.5590  0.4632
16420SOL     OW53175   7.570   3.275   0.873  0.0259  0.2737 -0.1177
16420SOL    HW153176   7.552   3.367   0.893  2.0530  0.0821  3.3566
16420SOL    HW253177   7.643   3.279   0.811  0.2140  1.0120  0.1380
16421SOL     OW53178   7.924   3.330   5.927 -0.0118  0.3995  0.2824
16421SOL    HW153179   7.856   3.395   5.942  1.0705  1.7957 -0.5983
16421SOL    HW253180   7.888   3.273   5.860 -0.6910  0.5136  0.5373
16422SOL     OW53181   2.415   2.986   7.708  0.0944  0.3225 -0.6637
16422SOL    HW153182   2.410   2.891   7.721  0.5090  0.4981  0.9924
16422SOL    HW253183   2.408   2.998   7.613 -0.3960 -1.3281 -0.8577
16423SOL     OW53184   2.885   8.595   3.986  0.0164 -0.0563  0.1520
16423SOL    HW153185   2.892   8.639   3.901 -0.8639  0.5529  0.3904
16423SOL    HW253186   2.849   8.509   3.966 -1.6720  0.6487  0.0573
16424SOL     OW53187   6.227   5.307   9.682  0.0692 -0.0741 -0.1208
16424SOL    HW153188   6.204   5.247   9.753 -0.5528 -1.0721 -1.1356
16424SOL    HW253189   6.154   5.370   9.679 -0.8715 -1.1492 -1.0510
16425SOL     OW53190   3.512   0.694   5.791  0.1747  0.5029  0.5930
16425SOL    HW153191   3.434   0.703   5.846  0.2790 -2.7310  1.5310
16425SOL    HW253192   3.582   0.674   5.853  1.2489  1.0365 -0.4260
16426SOL     OW53193   5.729   4.534   5.921  0.6745  0.3783 -0.4552
16426SOL    HW153194   5.805   4.589   5.936  0.4162  0.4977  0.4591
16426SOL    HW253195   5.654   4.591   5.937  0.3954  0.0491 -0.5651
16427SOL     OW53196   0.563   1.897   9.262  0.2780  0.2683 -0.3747
16427SOL    HW153197   0.530   1.906   9.173  0.6542 -1.0090 -0.6745
16427SOL    HW253198   0.491   1.928   9.318 -2.0505 -3.3722 -0.9591
16428SOL     OW53199   1.405   9.954   5.305 -0.1804 -0.9217  0.1821
16428SOL    HW153200   1.379   9.895   5.376 -0.7282 -1.4266 -0.4198
16428SOL    HW253201   1.356  10.035   5.323  2.5749  0.4170  2.5216
16429SOL     OW53202   1.664   6.027   8.068  0.3110 -0.4762  0.0538
16429SOL    HW153203   1.611   6.085   8.013 -1.2383 -0.6220  1.3266
16429SOL    HW253204   1.748   6.021   8.022 -0.6430  0.0311 -1.8600
16430SOL     OW53205   5.147   5.408   6.485  0.1740  0.2474  0.2475
16430SOL    HW153206   5.239   5.427   6.465 -0.0390  0.4416 -0.6198
16430SOL    HW253207   5.130   5.456   6.566  0.9972 -0.2854  0.7544
16431SOL     OW53208   3.308   5.229   0.899 -0.6180 -0.3433 -0.0597
16431SOL    HW153209   3.334   5.300   0.841  0.5662 -1.8103 -1.4116
16431SOL    HW253210   3.385   5.213   0.954 -0.5327 -1.1500 -0.3919
16432SOL     OW53211   5.377   0.076   6.087 -0.0932 -0.8141 -0.5390
16432SOL    HW153212   5.340  -0.007   6.058 -0.0155 -0.9216 -0.3314
16432SOL    HW253213   5.463   0.080   6.043 -0.6745 -0.1855 -1.6714
16433SOL     OW53214   4.737   0.359   5.335 -0.4297 -0.2909 -0.1920
16433SOL    HW153215   4.805   0.406   5.287  0.1701 -1.7482 -0.8299
16433SOL    HW253216   4.742   0.394   5.424 -0.3753  1.2078 -0.7653
16434SOL     OW53217   8.260   5.996   2.208 -0.2093 -0.5717  0.1605
16434SOL    HW153218   8.344   5.969   2.245  0.2884 -1.6475 -1.6015
16434SOL    HW253219   8.249   5.940   2.131 -0.8574  1.8998 -1.6792
16435SOL     OW53220   3.904   9.311   9.466 -0.5177  0.2570 -0.5141
16435SOL    HW153221   3.814   9.286   9.487  0.3876 -1.6798  1.4744
16435SOL    HW253222   3.936   9.353   9.546  1.4371 -2.4957  0.2955
16436SOL     OW53223   9.845   0.896   5.874  0.2639 -0.7446 -0.7920
16436SOL    HW153224   9.940   0.907   5.881 -0.0453  3.4364 -0.9400
16436SOL    HW253225   9.814   0.894   5.965  0.3777 -0.5920 -0.7498
16437SOL     OW53226   9.411   9.843   5.269 -0.3698  0.1085 -0.4271
16437SOL    HW153227   9.392   9.750   5.275 -0.9264  0.1608 -1.1814
16437SOL    HW253228   9.487   9.847   5.210  0.1084  0.0866  0.1873
16438SOL     OW53229   4.812   6.971   1.401 -0.7091 -0.0889 -0.2086
16438SOL    HW153230   4.863   7.052   1.400 -1.5731  0.4794 -1.9121
16438SOL    HW253231   4.750   6.983   1.473 -0.5214  0.5696 -0.1443
16439SOL     OW53232   9.275   9.688   2.119 -0.2407 -0.1623  0.2715
16439SOL    HW153233   9.302   9.772   2.157  1.9035  0.2336 -1.8827
16439SOL    HW253234   9.313   9.623   2.177  2.9269  0.4258 -0.9441
16440SOL     OW53235   7.540   5.176   2.758 -0.0063  0.1865  0.0751
16440SOL    HW153236   7.470   5.113   2.740  0.5380 -0.2164 -0.6867
16440SOL    HW253237   7.503   5.235   2.824 -1.0801  0.0146 -0.3540
16441SOL     OW53238   8.122   9.740   0.514 -0.3884 -0.3833  0.1816
16441SOL    HW153239   8.147   9.774   0.600  2.3611  1.2589 -1.1182
16441SOL    HW253240   8.032   9.768   0.502  0.0920  1.9251  1.3815
16442SOL     OW53241   9.469   3.692   1.594  0.1477  0.0589  0.0866
16442SOL    HW153242   9.525   3.659   1.663  0.5471 -0.4899 -0.4841
16442SOL    HW253243   9.527   3.744   1.538  0.1283 -0.5927 -0.5590
16443SOL     OW53244   1.368   5.418   0.028  0.6724  0.0620  0.2024
16443SOL    HW153245   1.422   5.433  -0.050  0.6394 -0.6470  0.0326
16443SOL    HW253246   1.430   5.401   0.098  0.7290  1.4972  0.5262
16444SOL     OW53247   2.227   9.715   5.435 -0.1995  0.8106 -1.1024
16444SOL    HW153248   2.240   9.699   5.528  1.3096  1.2092 -1.2142
16444SOL    HW253249   2.217   9.628   5.397 -1.7077  0.6820 -0.4794
16445SOL     OW53250   8.287   8.925   9.964 -0.0419  0.2055 -0.3874
16445SOL    HW153251   8.272   8.879   9.882  1.3031  1.2535 -1.2662
16445SOL    HW253252   8.199   8.942   9.999 -0.6003 -1.7791 -0.6941
16446SOL     OW53253   4.564   1.122   7.875 -0.4255  0.1202 -0.0737
16446SOL    HW153254   4.550   1.053   7.940 -1.0250 -0.4688 -0.8157
16446SOL    HW253255   4.545   1.204   7.922  0.8160 -0.1468  0.9699
16447SOL     OW53256   9.682   1.383   9.683 -0.1180  0.2508 -0.1736
16447SOL    HW153257   9.770   1.393   9.645 -0.0314  0.7772  0.1486
16447SOL    HW253258   9.687   1.302   9.735  0.2126  0.3376 -0.0672
16448SOL     OW53259   9.242   7.274   5.384  0.6778 -0.1105  0.2617
16448SOL    HW153260   9.305   7.281   5.456 -0.1720 -0.2081  1.0336
16448SOL    HW253261   9.165   7.321   5.416 -0.5004 -1.9669  0.3042
16449SOL     OW53262   1.099   3.367   1.115 -0.0586  0.1145 -0.6546
16449SOL    HW153263   1.010   3.379   1.149  0.7787  1.6300  1.1971
16449SOL    HW253264   1.136   3.455   1.114  2.0723 -0.6827  0.5620
16450SOL     OW53265   0.896   4.746   6.800  0.1311  0.0339  0.3516
16450SOL    HW153266   0.964   4.680   6.787 -0.7798 -0.9492  0.4231
16450SOL    HW253267   0.815   4.702   6.777 -0.3595  1.6605 -1.3006
16451SOL     OW53268   6.621   7.988   9.892  1.0207 -0.2415 -0.0169
16451SOL    HW153269   6.526   7.994   9.886  0.9919  0.2367  0.7711
16451SOL    HW253270   6.645   8.046   9.964  1.9078 -0.3861 -0.1739
16452SOL     OW53271   5.166   7.239   7.730  0.0702 -0.0209  0.5721
16452SOL    HW153272   5.158   7.324   7.688 -0.1103  0.0222  0.6911
16452SOL    HW253273   5.255   7.238   7.766  0.1338  0.0449  0.4189
16453SOL     OW53274   6.598   2.692   8.452 -0.0171  0.2421  0.2614
16453SOL    HW153275   6.557   2.625   8.397  0.0643  2.3380 -2.6217
16453SOL    HW253276   6.692   2.681   8.436  0.0602  0.3488  0.6338
16454SOL     OW53277  10.195  10.022   9.472  0.4409 -0.5257 -0.4017
16454SOL    HW153278  10.180  10.018   9.378  1.6623 -0.0846 -0.6428
16454SOL    HW253279  10.147  10.099   9.501  0.1630 -0.5893 -0.6930
16455SOL     OW53280   3.459   5.418   0.758 -0.0119  0.7451  0.0528
16455SOL    HW153281   3.541   5.466   0.769  0.9439 -0.9522  0.9317
16455SOL    HW253282   3.473   5.363   0.681 -0.0406 -0.0533  0.6050
16456SOL     OW53283   7.378   7.949   5.035  0.2892 -0.3705 -0.4580
16456SOL    HW153284   7.339   8.036   5.049 -0.1736 -0.8477  1.3691
16456SOL    HW253285   7.461   7.968   4.991  1.3424  1.2318  2.0099
16457SOL     OW53286   4.688   1.880   1.529 -0.4672 -0.4110  0.0385
16457SOL    HW153287   4.765   1.858   1.476 -0.8053  0.2569 -0.7335
16457SOL    HW253288   4.629   1.805   1.517 -1.2101  0.4133 -1.8235
16458SOL     OW53289   1.334   0.662   3.345  0.0404  0.4459  0.1914
16458SOL    HW153290   1.326   0.709   3.428  1.1713 -0.2943  0.7425
16458SOL    HW253291   1.408   0.603   3.358 -0.1607 -0.1294 -1.1371
16459SOL     OW53292   3.227   7.993   5.572  0.2400 -0.6081  0.5229
16459SOL    HW153293   3.238   7.898   5.578 -0.9297 -0.7414  0.8758
16459SOL    HW253294   3.249   8.014   5.482  2.1581 -0.9498  0.8571
16460SOL     OW53295   8.949   2.132   7.967 -0.9183  0.2997 -0.0494
16460SOL    HW153296   9.034   2.103   8.001 -1.5541 -1.0649  0.4629
16460SOL    HW253297   8.912   2.186   8.037 -0.2626  1.3542 -0.4935
16461SOL     OW53298   2.074   2.741   1.269  0.1674 -0.3605  0.0061
16461SOL    HW153299   2.115   2.676   1.326  0.1352 -1.3580 -1.0623
16461SOL    HW253300   2.145   2.801   1.247  0.1391  0.1380  1.2098
16462SOL     OW53301   7.515   0.567   4.592  0.0441  0.3050  0.3699
16462SOL    HW153302   7.534   0.473   4.600 -0.0093  0.3733  1.4917
16462SOL    HW253303   7.558   0.607   4.668  0.8459  1.3234 -0.5960
16463SOL     OW53304   2.224   9.138   6.874 -0.5735 -0.1481 -0.2942
16463SOL    HW153305   2.179   9.105   6.796 -1.2107  2.3224 -1.0648
16463SOL    HW253306   2.153   9.171   6.930  0.0504  0.4258  0.1657
16464SOL     OW53307   9.136   6.931   7.138  0.2554 -0.0096 -0.0265
16464SOL    HW153308   9.060   6.987   7.127  0.3896  0.1754 -0.0095
16464SOL    HW253309   9.125   6.863   7.071 -0.5828 -0.7185  0.7982
16465SOL     OW53310   7.796   8.547   6.383 -0.0614  0.0259 -0.0260
16465SOL    HW153311   7.821   8.463   6.344 -2.6890 -1.2328  0.7381
16465SOL    HW253312   7.857   8.559   6.456 -0.8758 -2.3785  1.1833
16466SOL     OW53313   4.823  10.192   6.110 -0.0223  0.4652 -0.0327
16466SOL    HW153314   4.743  10.227   6.072 -0.0085  0.1922 -0.3137
16466SOL    HW253315   4.862  10.139   6.041 -0.3844 -0.6645  0.6044
16467SOL     OW53316   9.997   0.877   9.189 -0.6681 -0.5384 -0.0878
16467SOL    HW153317  10.006   0.843   9.100  1.7413 -1.3818  0.4156
16467SOL    HW253318  10.066   0.833   9.239 -0.9075  1.1377  1.8403
16468SOL     OW53319   0.860   4.311   2.515 -0.1171 -0.0302  0.6343
16468SOL    HW153320   0.923   4.372   2.476 -0.8658  0.6604  0.4681
16468SOL    HW253321   0.776   4.357   2.509 -0.4198 -0.3438  2.1306
16469SOL     OW53322   9.185   7.729   4.877  1.0185  0.1860  0.0878
16469SOL    HW153323   9.188   7.785   4.954  0.6365  1.2722 -0.6572
16469SOL    HW253324   9.228   7.780   4.808  2.0226 -1.0548 -0.2621
16470SOL     OW53325   8.400   2.573   7.746 -0.3718 -0.1036 -0.0638
16470SOL    HW153326   8.438   2.618   7.671  0.2757 -0.9842 -0.2771
16470SOL    HW253327   8.330   2.518   7.709 -2.0873  1.6906  0.3534
16471SOL     OW53328   9.195   0.455   3.747 -0.2515 -0.0653  0.1991
16471SOL    HW153329   9.221   0.387   3.809 -1.2608  0.4445  1.1946
16471SOL    HW253330   9.124   0.502   3.790  0.7234  1.9341 -0.2690
16472SOL     OW53331   6.490   9.456   7.533 -0.3950  0.2546 -0.1587
16472SOL    HW153332   6.457   9.368   7.514  0.3165 -0.3355  1.1707
16472SOL    HW253333   6.456   9.476   7.621 -0.5687  1.3285 -0.4540
16473SOL     OW53334   7.954   9.015   3.226 -0.2481  0.3214  0.3590
16473SOL    HW153335   7.897   9.091   3.223  1.6382  1.9434  2.0974
16473SOL    HW253336   7.904   8.948   3.273 -2.0502  0.2954 -1.4651
16474SOL     OW53337   9.654   1.843   3.501 -0.7273  0.2028  0.3044
16474SOL    HW153338   9.666   1.932   3.468 -0.7564  0.0393 -0.1604
16474SOL    HW253339   9.664   1.850   3.596 -2.8614  1.0810  0.5015
16475SOL     OW53340   0.654   4.116   2.604 -0.2113  0.1603  0.3133
16475SOL    HW153341   0.623   4.144   2.518  0.7579 -0.5369 -0.2730
16475SOL    HW253342   0.596   4.161   2.665  0.1338  2.0236 -0.6357
16476SOL     OW53343   8.523   7.931   7.553 -0.3662  0.1385 -0.2653
16476SOL    HW153344   8.582   7.865   7.587  0.3751 -0.1736 -2.0404
16476SOL    HW253345   8.447   7.928   7.611  0.1479 -1.4529  0.3692
16477SOL     OW53346   4.305   9.149   5.516  0.3960 -0.0933  0.2071
16477SOL    HW153347   4.268   9.192   5.439 -2.5484 -1.4417  0.7492
16477SOL    HW253348   4.288   9.056   5.502  2.5452 -0.6884  1.1471
16478SOL     OW53349   0.058   3.540   4.457  0.5917  0.1698 -0.0131
16478SOL    HW153350   0.045   3.527   4.551  0.3133 -1.3911 -0.2433
16478SOL    HW253351   0.082   3.454   4.424  0.3307  0.6237 -1.4461
16479SOL     OW53352   6.040   8.054   7.754 -0.0281  0.0210 -0.6020
16479SOL    HW153353   6.004   8.140   7.774  1.0119  1.0631 -2.8565
16479SOL    HW253354   6.133   8.070   7.737  0.4401 -1.7481  0.0541
16480SOL     OW53355   3.783   5.586  10.068  0.0903 -0.3802  0.1539
16480SOL    HW153356   3.820   5.533   9.997 -0.2146 -0.0553 -0.2544
16480SOL    HW253357   3.691   5.560  10.072 -0.2094  0.5421 -0.4578
16481SOL     OW53358   0.407   7.220   5.777 -0.2854  0.0303 -0.3737
16481SOL    HW153359   0.375   7.176   5.698 -1.4816  0.8110 -0.3487
16481SOL    HW253360   0.428   7.150   5.838  0.7109 -0.5899 -1.3925
16482SOL     OW53361   1.959   5.180   7.083 -0.0268  0.0738  0.0839
16482SOL    HW153362   2.038   5.147   7.126  0.8828  1.7140 -0.2025
16482SOL    HW253363   1.970   5.275   7.083 -0.3547  0.2326 -2.9643
16483SOL     OW53364   9.796   3.066   3.201  0.0372  0.0181  0.0542
16483SOL    HW153365   9.862   3.123   3.163  0.6162  0.6251  1.8886
16483SOL    HW253366   9.769   3.010   3.129 -1.5019  3.3729 -2.2549
16484SOL     OW53367   5.176   8.860   7.361  0.3767 -0.3044 -0.0958
16484SOL    HW153368   5.156   8.769   7.340  1.1909 -1.0441  2.1017
16484SOL    HW253369   5.260   8.877   7.319  0.6917 -0.8887  0.2930
16485SOL     OW53370   0.679   4.952  10.021  0.1132 -0.6250 -0.0651
16485SOL    HW153371   0.672   5.011   9.945  0.0326 -2.0191 -1.1822
16485SOL    HW253372   0.664   4.865   9.985  0.1194 -1.3384  1.5683
16486SOL     OW53373   3.977   8.779   6.422  0.5348 -0.0172 -0.4302
16486SOL    HW153374   4.056   8.825   6.394  1.9070 -1.8865  0.1524
16486SOL    HW253375   4.008   8.694   6.453 -1.6823 -0.6951  0.1560
16487SOL     OW53376   0.033   5.197   2.752 -0.0462 -0.2090 -0.4139
16487SOL    HW153377   0.010   5.200   2.659 -0.7797 -0.1118 -0.2338
16487SOL    HW253378   0.029   5.104   2.775  0.7812 -0.3121 -0.6236
16488SOL     OW53379   1.842   9.206   6.207 -0.0116  0.3927  0.5173
16488SOL    HW153380   1.810   9.125   6.247 -0.8083 -0.1815 -1.1720
16488SOL    HW253381   1.771   9.233   6.149  0.0700  2.5540  1.3326
16489SOL     OW53382   2.496   9.833   8.179 -0.0949  0.1232 -0.0553
16489SOL    HW153383   2.453   9.776   8.115 -0.4360  0.3803 -0.0527
16489SOL    HW253384   2.584   9.847   8.143 -0.4971  0.7957 -0.7889
16490SOL     OW53385   1.599   4.415   6.930 -0.2167  0.2768  0.4131
16490SOL    HW153386   1.506   4.426   6.950 -1.7330 -2.9622 -3.4233
16490SOL    HW253387   1.614   4.472   6.855  1.5068  2.0640  2.0166
16491SOL     OW53388   2.355   7.531   0.191  0.5882 -0.1102 -0.4540
16491SOL    HW153389   2.416   7.586   0.144  1.1110  0.3057  0.6745
16491SOL    HW253390   2.404   7.451   0.210  1.3496  0.8157  1.7782
16492SOL     OW53391   4.754   9.277   1.644 -0.8879 -0.4225  1.0710
16492SOL    HW153392   4.732   9.248   1.733  1.4445 -2.2201  1.1736
16492SOL    HW253393   4.836   9.325   1.654  0.5053 -2.3648 -0.2572
16493SOL     OW53394   9.083   6.908   4.233  0.4472 -0.0418 -0.1221
16493SOL    HW153395   9.074   6.985   4.176 -1.9961 -0.8443 -0.9193
16493SOL    HW253396   9.129   6.844   4.178 -0.4147 -0.2419 -0.6258
16494SOL     OW53397   1.172   3.011   4.262  0.0687  0.1754  0.0418
16494SOL    HW153398   1.095   3.013   4.319  0.4544  0.0144  0.5773
16494SOL    HW253399   1.239   3.058   4.311  0.5040 -0.2530 -0.1330
16495SOL     OW53400   9.262   5.982   6.683 -0.0323 -0.3410 -0.5001
16495SOL    HW153401   9.289   6.018   6.599  0.2972 -0.6170 -0.5143
16495SOL    HW253402   9.343   5.973   6.733 -0.4427  1.8242  0.6488
16496SOL     OW53403   5.090  10.013   3.009  0.1502  0.0944  0.4681
16496SOL    HW153404   5.082   9.919   2.996 -0.6596  0.2951 -0.6656
16496SOL    HW253405   5.173  10.036   2.967 -0.2475  0.0532 -0.3589
16497SOL     OW53406   9.529   2.494   0.845 -0.2980  0.5864  0.3886
16497SOL    HW153407   9.555   2.422   0.902  1.2989  0.2656 -0.6595
16497SOL    HW253408   9.544   2.573   0.897 -1.4081  0.2141  1.3034
16498SOL     OW53409   9.679   3.943   3.678  0.5838  0.1719  0.1862
16498SOL    HW153410   9.600   3.988   3.708  1.4083  2.0590 -0.3511
16498SOL    HW253411   9.739   3.947   3.753  0.8126  0.3262 -0.0051
16499SOL     OW53412   8.915   3.987   2.223  0.4966  0.5118  0.1278
16499SOL    HW153413   8.887   3.905   2.181 -0.0645  0.2480  0.9878
16499SOL    HW253414   8.834   4.026   2.256  0.8602  0.9828  0.4842
16500SOL     OW53415   7.167   3.650   7.795  0.5633  0.9284  0.1472
16500SOL    HW153416   7.206   3.732   7.764 -0.0830  1.5349  0.8839
16500SOL    HW253417   7.142   3.669   7.885 -1.3387  0.5469 -0.2588
16501SOL     OW53418   1.483   6.584   7.282  0.4117 -0.0293  0.6337
16501SOL    HW153419   1.555   6.535   7.321  0.8259 -0.5362 -0.6947
16501SOL    HW253420   1.444   6.523   7.219  0.9884  1.2922 -1.1150
16502SOL     OW53421   2.670   8.952   9.334  0.3551  0.1730  0.3561
16502SOL    HW153422   2.612   8.907   9.273  0.2697 -1.5009  1.5734
16502SOL    HW253423   2.701   9.029   9.287 -1.3824  0.1005 -0.9833
16503SOL     OW53424   6.091   6.191   8.861  0.1848 -0.0873 -0.2604
16503SOL    HW153425   6.033   6.187   8.937  0.4139 -1.0773 -0.1259
16503SOL    HW253426   6.096   6.284   8.840 -1.3458  0.0335 -0.1988
16504SOL     OW53427   8.335   9.389   2.244  0.0859  0.2801 -0.6108
16504SOL    HW153428   8.398   9.439   2.297  0.9096  1.3273 -2.4971
16504SOL    HW253429   8.390   9.339   2.184 -0.8637 -0.1064 -1.1695
16505SOL     OW53430   4.532   1.530  10.095  0.1872 -0.4920  0.4912
16505SOL    HW153431   4.490   1.448  10.121  0.7835 -0.4968  1.4670
16505SOL    HW253432   4.525   1.586  10.172 -3.2433  1.6728 -1.1319
16506SOL     OW53433   9.814   0.418   7.135  0.0055  0.1997  0.4338
16506SOL    HW153434   9.719   0.428   7.123 -0.1578 -0.6946  0.8898
16506SOL    HW253435   9.826   0.324   7.147  1.2009  0.0408 -1.6649
16507SOL     OW53436   6.198   8.006   3.933 -0.1207  0.1098 -0.2020
16507SOL    HW153437   6.234   7.918   3.944  2.7975  1.1363 -0.6148
16507SOL    HW253438   6.146   8.001   3.853  0.1151 -1.2040 -0.2919
16508SOL     OW53439   2.443   5.249   9.999  0.1374 -0.2788  0.2700
16508SOL    HW153440   2.485   5.330  10.028 -1.2723 -0.1577  2.1443
16508SOL    HW253441   2.350   5.269  10.001 -0.1626 -0.9250 -2.6068
16509SOL     OW53442   3.845   9.987   1.318  0.7449 -0.1232  0.0229
16509SOL    HW153443   3.852  10.080   1.299  1.0150 -0.3861 -1.2569
16509SOL    HW253444   3.925   9.949   1.283  1.0142 -0.7353  1.2542
16510SOL     OW53445   5.190   6.616  10.151 -0.1100  0.0480 -0.3633
16510SOL    HW153446   5.123   6.642  10.087 -1.6201 -1.3749  0.5671
16510SOL    HW253447   5.238   6.545  10.109 -0.8204 -0.5921 -0.1232
16511SOL     OW53448   6.032   0.095   0.411 -0.0860  0.0688  0.0471
16511SOL    HW153449   6.046   0.005   0.437 -0.4007 -0.0876 -0.3119
16511SOL    HW253450   5.969   0.090   0.339 -0.1949  0.5800  0.0990
16512SOL     OW53451   3.012   5.245   7.140  0.1251  0.4451 -0.0147
16512SOL    HW153452   2.996   5.318   7.080  0.4250  0.1471 -0.4692
16512SOL    HW253453   2.926   5.219   7.170 -0.0940  0.1286 -0.8886
16513SOL     OW53454   3.582   6.896   9.237 -0.1199  0.7751 -0.0840
16513SOL    HW153455   3.653   6.842   9.202 -2.0697 -0.2621 -2.8291
16513SOL    HW253456   3.557   6.853   9.319  0.4288 -0.6761 -0.6435
16514SOL     OW53457   0.887   7.391   6.145  0.5962  0.0331 -0.7587
16514SOL    HW153458   0.845   7.435   6.219 -0.0841 -0.5756 -0.7790
16514SOL    HW253459   0.947   7.329   6.185  0.6196  0.0755 -0.7272
16515SOL     OW53460   3.884   9.779   1.895  0.2355  0.2542  0.6535
16515SOL    HW153461   3.883   9.717   1.823 -0.7488 -0.9955  1.7006
16515SOL    HW253462   3.888   9.725   1.974  1.1915  1.5792  1.5561
16516SOL     OW53463   7.084   0.681  10.079  0.2394  0.0220  0.8207
16516SOL    HW153464   7.178   0.682  10.061  0.3598 -1.5984  1.1850
16516SOL    HW253465   7.078   0.703  10.173  0.1649  1.0608  0.5855
16517SOL     OW53466   5.377  10.187   9.887 -0.5468  0.0081 -0.4432
16517SOL    HW153467   5.333  10.238   9.820 -0.5935  0.6144  0.0410
16517SOL    HW253468   5.319  10.190   9.963  0.0160  0.2653 -0.0128
16518SOL     OW53469   0.458   0.907   6.582  0.3745 -0.6256 -0.1760
16518SOL    HW153470   0.431   0.819   6.555 -0.8422 -0.2063 -0.3916
16518SOL    HW253471   0.486   0.897   6.673 -0.1748 -1.1592 -0.0591
16519SOL     OW53472   8.667   3.226   2.278 -0.0808  0.1195  0.5034
16519SOL    HW153473   8.584   3.273   2.284 -1.0601 -1.3316 -0.8296
16519SOL    HW253474   8.642   3.136   2.258  1.8468 -0.2245 -0.6598
16520SOL     OW53475   7.481   6.280   8.030 -0.0278  0.7801 -0.2107
16520SOL    HW153476   7.471   6.353   8.091  1.3830  0.7055  0.1539
16520SOL    HW253477   7.545   6.311   7.966 -0.9394  0.5804 -1.2332
16521SOL     OW53478   2.908   0.324   9.663 -0.1062 -0.0435 -0.1561
16521SOL    HW153479   2.850   0.248   9.671 -0.5439  0.0531 -1.9090
16521SOL    HW253480   2.868   0.377   9.594  0.3881  1.6213  0.7786
16522SOL     OW53481   5.037   6.827   4.096  0.4265 -0.3345  0.1960
16522SOL    HW153482   5.077   6.824   4.009  1.8649  0.3570  0.8003
16522SOL    HW253483   5.073   6.751   4.142  0.3733 -0.1907  0.4773
16523SOL     OW53484   4.753   1.665   2.372  0.3149  0.0316 -0.0320
16523SOL    HW153485   4.657   1.674   2.372  0.4061  1.6507  1.6670
16523SOL    HW253486   4.770   1.594   2.433  0.2111  0.1216  0.1034
16524SOL     OW53487   0.117   4.499   6.927 -0.1626  0.5751  0.9043
16524SOL    HW153488   0.139   4.458   6.843 -1.2069 -0.5916  1.1695
16524SOL    HW253489   0.138   4.433   6.993 -1.7382  0.4611  1.3495
16525SOL     OW53490   5.221   8.524   2.709 -0.1785  0.0833  0.0334
16525SOL    HW153491   5.229   8.569   2.625  0.8847  0.4862  0.3247
16525SOL    HW253492   5.253   8.436   2.693 -0.5902 -0.0337 -0.1351
16526SOL     OW53493   9.153   8.681   9.307  0.5663  0.8476  0.1482
16526SOL    HW153494   9.090   8.651   9.373  1.2903  0.6913  0.7837
16526SOL    HW253495   9.099   8.712   9.235 -0.2306 -0.7721  0.0024
16527SOL     OW53496   8.777   7.370   8.691  0.3995 -0.6558  0.0192
16527SOL    HW153497   8.754   7.452   8.647 -1.1410 -0.5683  0.8768
16527SOL    HW253498   8.692   7.332   8.715  1.1246 -0.8487  2.5666
16528SOL     OW53499   4.586   7.329   1.489  0.9913 -0.0388 -0.1290
16528SOL    HW153500   4.595   7.424   1.490 -0.9078  0.1689 -0.4671
16528SOL    HW253501   4.505   7.312   1.442  0.9768 -1.8124  0.4470
16529SOL     OW53502   3.644   7.173   0.451 -0.3334 -0.8355 -0.2213
16529SOL    HW153503   3.719   7.121   0.480 -0.7128 -1.8814 -1.0605
16529SOL    HW253504   3.683   7.256   0.422  0.1961 -0.3128  1.7993
16530SOL     OW53505   9.964   1.116   2.425  0.5196 -0.2409 -0.1375
16530SOL    HW153506   9.930   1.073   2.504 -1.1579  1.9745  0.4349
16530SOL    HW253507  10.053   1.142   2.449  0.4083 -0.5280  0.6293
16531SOL     OW53508   0.191   7.803   6.939  0.2443 -0.4120  0.2141
16531SOL    HW153509   0.286   7.801   6.954  0.1941 -1.7343  0.4270
16531SOL    HW253510   0.153   7.758   7.014 -0.3788 -2.1119 -1.0639
16532SOL     OW53511   5.844   8.778   7.219 -0.0709  0.6107  0.2970
16532SOL    HW153512   5.752   8.751   7.224  0.0722  0.0077 -0.2398
16532SOL    HW253513   5.848   8.835   7.142  0.1724 -0.0987 -0.2323
16533SOL     OW53514   5.803   9.938   2.513 -0.4327 -0.1051  0.4263
16533SOL    HW153515   5.863   9.880   2.467 -0.0639 -0.3493  1.2028
16533SOL    HW253516   5.734   9.880   2.544  0.7252 -0.4232  2.5498
16534SOL     OW53517   6.388   5.165   9.301 -0.5770 -1.1734  0.0044
16534SOL    HW153518   6.438   5.084   9.297  0.8884 -0.2818 -0.5039
16534SOL    HW253519   6.309   5.142   9.350 -0.6955 -3.1456 -1.0167
16535SOL     OW53520   5.793   4.967   1.980 -0.3165  0.2150  0.0577
16535SOL    HW153521   5.879   4.928   1.996 -1.3225 -1.6323  1.2762
16535SOL    HW253522   5.776   4.951   1.888 -0.5817 -2.1150  0.4584
16536SOL     OW53523   2.037   9.582   5.918  0.1367 -0.3924 -0.3823
16536SOL    HW153524   2.041   9.491   5.889 -0.7100 -1.3519  2.1761
16536SOL    HW253525   2.055   9.578   6.012  0.8249  2.2039 -0.3185
16537SOL     OW53526   5.410   8.687   2.546  0.2063  0.0671  0.5405
16537SOL    HW153527   5.499   8.716   2.565  0.1350  0.3795  0.4019
16537SOL    HW253528   5.357   8.767   2.548 -0.7376 -0.4963  4.2810
16538SOL     OW53529   2.076   7.591   5.786 -0.0289  0.6972  0.2319
16538SOL    HW153530   2.040   7.556   5.867 -0.8208 -0.3855 -0.5544
16538SOL    HW253531   2.004   7.641   5.747 -0.0794  0.1364 -0.4125
16539SOL     OW53532   7.118   5.768   6.434 -0.0982  0.3552  0.3074
16539SOL    HW153533   7.058   5.747   6.362 -0.8017  1.3325  0.5737
16539SOL    HW253534   7.085   5.717   6.508  2.5240 -3.2226 -0.7281
16540SOL     OW53535   3.048   5.668   8.277  0.1740 -0.4110  0.2479
16540SOL    HW153536   3.035   5.680   8.371  0.1014 -2.4281  0.5413
16540SOL    HW253537   2.968   5.626   8.247  0.0660  0.5130 -0.8050
16541SOL     OW53538   7.963   3.804   3.058  0.2913 -0.6873 -0.3055
16541SOL    HW153539   7.917   3.868   3.112  1.4955  0.8725 -1.0492
16541SOL    HW253540   7.987   3.734   3.119  0.1931  0.2318  0.8277
16542SOL     OW53541   2.637   4.008   5.861  0.1649  0.4564 -0.3350
16542SOL    HW153542   2.593   3.933   5.820 -0.2227 -1.2165  2.7485
16542SOL    HW253543   2.725   4.008   5.824  0.7957 -2.7805  0.7699
16543SOL     OW53544   5.630   3.660   3.286  0.5138 -0.7220 -0.4992
16543SOL    HW153545   5.660   3.696   3.369 -0.4033 -3.5728  1.2137
16543SOL    HW253546   5.709   3.650   3.233  1.3202 -0.1448  0.5662
16544SOL     OW53547   3.726   0.321   9.827  0.5383  0.2761  0.3439
16544SOL    HW153548   3.703   0.267   9.902 -0.0695 -0.5072 -0.3766
16544SOL    HW253549   3.786   0.387   9.861  1.4215 -0.9463  1.2310
16545SOL     OW53550   1.384   5.243   8.507  0.2553  0.3130  0.2587
16545SOL    HW153551   1.478   5.243   8.490  0.6177 -0.9369  1.9845
16545SOL    HW253552   1.344   5.224   8.422  1.6615 -0.9725 -0.1487
16546SOL     OW53553   4.771   8.083   2.203  0.0464 -0.0588 -0.1216
16546SOL    HW153554   4.722   8.163   2.223 -2.2365 -1.1053 -1.1208
16546SOL    HW253555   4.861   8.111   2.193 -0.4738  2.1587  0.8837
16547SOL     OW53556   7.593   0.519   9.243 -0.7945 -0.5455  0.0665
16547SOL    HW153557   7.597   0.491   9.151 -0.8818 -0.4907  0.0452
16547SOL    HW253558   7.513   0.573   9.247 -0.8137 -0.5842  0.1843
16548SOL     OW53559   6.447   9.536   8.791  0.2378  0.0909  0.0100
16548SOL    HW153560   6.434   9.613   8.736  0.1222  1.8038  2.3088
16548SOL    HW253561   6.528   9.553   8.839  0.0794 -1.1132  0.7529
16549SOL     OW53562   8.065   1.466   0.085 -0.0072  0.2580 -0.1042
16549SOL    HW153563   8.077   1.473  -0.010  0.7738  0.5200  0.0052
16549SOL    HW253564   8.059   1.557   0.115  1.3008  0.2468  0.2693
16550SOL     OW53565   8.826   4.239   9.896 -0.8317  0.3201  0.1366
16550SOL    HW153566   8.898   4.294   9.926 -0.4145  0.9409 -1.9047
16550SOL    HW253567   8.864   4.153   9.884 -0.7478  0.3356  0.2849
16551SOL     OW53568   0.889   3.853   1.678 -0.0652  0.5427 -0.0958
16551SOL    HW153569   0.855   3.820   1.595 -1.0768  0.4604  0.3233
16551SOL    HW253570   0.980   3.826   1.680  0.1107  0.9901 -1.3971
16552SOL     OW53571   0.394   9.678   9.514 -0.3291 -0.1954 -0.4497
16552SOL    HW153572   0.318   9.710   9.561  1.9169  1.5650  2.3378
16552SOL    HW253573   0.443   9.628   9.579  1.5036 -0.2040 -1.7467
16553SOL     OW53574   3.770   7.047   6.955 -0.2085 -0.5480 -0.5075
16553SOL    HW153575   3.695   7.037   6.896  0.0628 -0.3211 -0.8993
16553SOL    HW253576   3.838   7.087   6.900 -0.3764  0.8840  0.2872
16554SOL     OW53577   5.270   9.615   3.532  0.3387  0.3098 -0.2031
16554SOL    HW153578   5.305   9.538   3.577 -1.7423  0.5381  2.0089
16554SOL    HW253579   5.319   9.689   3.568  2.8182  0.1315 -2.8201
16555SOL     OW53580   5.561   7.599   6.507 -0.4126 -0.1094 -0.2419
16555SOL    HW153581   5.656   7.599   6.496 -0.3016 -1.5892  0.4220
16555SOL    HW253582   5.528   7.557   6.427 -0.5101  0.3772 -0.4593
16556SOL     OW53583   6.913   4.976   0.725 -0.1567  0.2743  0.3480
16556SOL    HW153584   6.846   4.927   0.677  0.9339 -0.9642  0.0323
16556SOL    HW253585   6.889   4.965   0.817 -0.3892 -0.1517  0.2419
16557SOL     OW53586   2.175   1.950   2.287 -0.1246  0.4639 -0.1480
16557SOL    HW153587   2.092   1.996   2.269  0.7010  2.2077  0.2533
16557SOL    HW253588   2.217   1.944   2.201 -0.2757  0.4043 -0.2179
16558SOL     OW53589   6.016   1.575   7.712 -0.5550  0.3894  0.9849
16558SOL    HW153590   5.988   1.580   7.804  3.7640 -0.7303  2.6404
16558SOL    HW253591   6.027   1.482   7.695 -1.1666  0.5948 -0.6822
16559SOL     OW53592   0.526   5.262   1.907  0.0482 -0.5255 -0.6216
16559SOL    HW153593   0.574   5.236   1.986 -0.6738 -0.0746 -0.0241
16559SOL    HW253594   0.582   5.233   1.835  0.4538 -1.4478  0.0416
16560SOL     OW53595   1.329   3.278   9.591  0.0406  0.3800  0.1262
16560SOL    HW153596   1.363   3.314   9.673  1.0604  0.6136 -0.3964
16560SOL    HW253597   1.265   3.343   9.561 -1.5575 -0.4411  1.5224
16561SOL     OW53598   3.388   0.916   4.645 -0.6603 -0.3874 -0.7005
16561SOL    HW153599   3.335   0.839   4.664 -1.0366  0.4674  2.1868
16561SOL    HW253600   3.350   0.953   4.566 -3.8640 -0.3295  0.7282
16562SOL     OW53601   2.206   2.631   0.845  0.1631  0.2522 -0.5928
16562SOL    HW153602   2.258   2.577   0.904  0.4969  1.4693  0.2714
16562SOL    HW253603   2.123   2.644   0.891 -0.2120 -0.1683 -1.1463
16563SOL     OW53604   0.198   9.831   1.902 -0.1452 -0.0749  0.9963
16563SOL    HW153605   0.290   9.832   1.927 -0.5707  1.9246  2.7206
16563SOL    HW253606   0.151   9.817   1.984 -1.4064 -1.3579  0.0988
16564SOL     OW53607   8.281   1.479   1.310 -0.1467  0.0977 -0.6462
16564SOL    HW153608   8.304   1.571   1.318  0.3230 -0.1494  1.6597
16564SOL    HW253609   8.186   1.479   1.302 -0.2593  0.7747  0.4500
16565SOL     OW53610   4.046   2.891   8.367  0.4595  0.2496  0.3117
16565SOL    HW153611   4.019   2.974   8.329 -0.5126  0.1870  0.8221
16565SOL    HW253612   4.039   2.828   8.294 -0.5356  0.2940  0.3540
16566SOL     OW53613   0.400   9.162   5.684 -1.3003 -0.2175 -0.1543
16566SOL    HW153614   0.492   9.135   5.678 -1.0334  1.0050 -2.1097
16566SOL    HW253615   0.392   9.196   5.773 -0.0665 -1.0305  0.3052
16567SOL     OW53616   4.346   9.204   7.856  0.2608  0.4334  0.1306
16567SOL    HW153617   4.343   9.275   7.920 -0.5002 -0.1177  0.7258
16567SOL    HW253618   4.413   9.231   7.794 -0.3644  1.9343  0.0516
16568SOL     OW53619   3.566   4.076   6.759  0.7678 -0.0916  0.3593
16568SOL    HW153620   3.543   3.986   6.780 -0.7900 -0.0527 -0.9901
16568SOL    HW253621   3.661   4.079   6.769  0.7344 -1.5678  1.4979
16569SOL     OW53622   5.497   0.452   1.205  0.2678 -0.5530 -0.6158
16569SOL    HW153623   5.480   0.465   1.298  0.9823 -1.2385 -0.3774
16569SOL    HW253624   5.508   0.357   1.195 -0.6405 -0.5850 -1.5541
16570SOL     OW53625   3.739   2.868   2.110  0.4198 -0.3431  0.7776
16570SOL    HW153626   3.689   2.790   2.135  0.9141 -0.9075  0.0277
16570SOL    HW253627   3.758   2.911   2.194 -0.5732 -0.5677  1.1396
16571SOL     OW53628   1.095   7.729   1.793 -0.1798  0.2622 -0.1597
16571SOL    HW153629   1.003   7.707   1.804  0.1522  0.0024  3.7335
16571SOL    HW253630   1.107   7.807   1.846  1.9278 -0.0586 -0.0814
16572SOL     OW53631   0.567   1.789   9.776  0.3911  0.1750  0.0217
16572SOL    HW153632   0.661   1.773   9.778  0.5273  0.8958 -0.4209
16572SOL    HW253633   0.532   1.730   9.842  0.8391 -2.0281 -1.5967
16573SOL     OW53634   3.057   7.914   8.027  0.3372  0.1277  0.8071
16573SOL    HW153635   3.018   7.882   8.109  2.9187 -2.2201  1.2674
16573SOL    HW253636   3.074   8.007   8.044 -0.6901  0.0919  2.2869
16574SOL     OW53637   1.116   4.879   6.321 -1.0274  0.0076 -0.0771
16574SOL    HW153638   1.038   4.933   6.333 -1.6737 -0.2768 -2.4289
16574SOL    HW253639   1.106   4.807   6.383 -0.2894  2.2913  2.9316
16575SOL     OW53640   4.796   6.936   6.810  0.4415  0.2955 -0.0559
16575SOL    HW153641   4.759   6.848   6.810  0.1778  0.4096  0.1927
16575SOL    HW253642   4.774   6.971   6.724  1.0878 -0.1080 -0.3994
16576SOL     OW53643   8.077   7.984   9.291 -0.2800 -0.1564 -0.0116
16576SOL    HW153644   8.061   7.970   9.198  0.3212 -0.0314 -0.1376
16576SOL    HW253645   8.172   7.978   9.300 -0.3136  0.1161  0.5470
16577SOL     OW53646   7.771   1.878   4.414  0.6262 -0.2291  0.1087
16577SOL    HW153647   7.700   1.821   4.443  2.5126 -2.9414 -0.2408
16577SOL    HW253648   7.773   1.869   4.319 -0.0618  1.7895 -0.1423
16578SOL     OW53649   1.864   7.276   5.015 -0.6551 -0.0654  0.1890
16578SOL    HW153650   1.940   7.332   5.008 -1.5595  1.2261  0.3839
16578SOL    HW253651   1.835   7.285   5.105  0.9435 -3.2796  1.1783
16579SOL     OW53652   6.964   4.498   0.265 -0.9411 -0.2315  0.6204
16579SOL    HW153653   6.966   4.496   0.360 -0.7025 -2.8583  0.6336
16579SOL    HW253654   6.978   4.590   0.242 -1.0206  0.4606  3.0910
16580SOL     OW53655   0.725   0.606   9.144  0.1670 -0.4699  0.1274
16580SOL    HW153656   0.771   0.631   9.224  0.0364 -1.3320  0.4802
16580SOL    HW253657   0.791   0.560   9.092  0.2920  0.2141 -0.3328
16581SOL     OW53658   4.453   5.533   9.397  0.3715 -0.6816 -0.0435
16581SOL    HW153659   4.477   5.535   9.490  0.3214 -0.7847 -0.0289
16581SOL    HW253660   4.477   5.446   9.367  0.7626 -0.5130 -0.2280
16582SOL     OW53661   9.298   9.614   8.286 -0.7269 -0.2896  0.2360
16582SOL    HW153662   9.298   9.699   8.241 -2.1639 -0.2155  0.3055
16582SOL    HW253663   9.222   9.619   8.344 -0.1222 -1.1863  1.1304
16583SOL     OW53664   9.359   2.491   1.774  0.0512  0.2546 -0.1894
16583SOL    HW153665   9.387   2.422   1.715  0.6262  0.0847  0.2686
16583SOL    HW253666   9.370   2.572   1.724  1.2512  0.1802 -0.0787
16584SOL     OW53667   7.737   7.131   5.451  0.0811 -0.2535  0.2410
16584SOL    HW153668   7.648   7.115   5.422  0.2642 -0.3456 -0.2903
16584SOL    HW253669   7.789   7.062   5.410  0.6769  0.8717 -1.0007
16585SOL     OW53670   4.056   0.499   7.186 -0.4023 -0.9659 -0.2799
16585SOL    HW153671   3.965   0.495   7.217 -0.4269 -0.9647 -0.3524
16585SOL    HW253672   4.074   0.410   7.154 -0.3985 -0.9484 -0.3256
16586SOL     OW53673   1.841   2.035   5.244  0.5043 -0.1354 -0.6262
16586SOL    HW153674   1.754   2.007   5.272 -0.1195  0.1582 -2.2000
16586SOL    HW253675   1.872   1.964   5.188  1.1158 -0.0387 -0.4210
16587SOL     OW53676   1.436   3.715   5.686 -0.0088 -0.0993 -0.4243
16587SOL    HW153677   1.440   3.626   5.720  0.2094 -0.1925 -0.6815
16587SOL    HW253678   1.528   3.744   5.686 -0.1488  0.3683  0.2838
16588SOL     OW53679   9.677   9.685   8.451 -0.0461 -0.3159  0.5447
16588SOL    HW153680   9.762   9.652   8.480 -0.4390 -1.3141  0.6088
16588SOL    HW253681   9.692   9.718   8.363  0.2038 -1.4799  0.1268
16589SOL     OW53682   5.311   4.534   3.931 -0.2606  0.2491  0.6633
16589SOL    HW153683   5.235   4.592   3.929  0.8131  1.7449  1.1304
16589SOL    HW253684   5.350   4.549   4.017  0.9297  0.0294  0.1811
16590SOL     OW53685   2.061   9.584   7.087  0.6855  0.2725 -0.1075
16590SOL    HW153686   2.039   9.491   7.087  0.9470  0.2068  0.2112
16590SOL    HW253687   2.105   9.598   7.171  2.6764  0.1939 -1.0812
16591SOL     OW53688   1.373   8.645   1.301  0.0226 -0.5582  0.4784
16591SOL    HW153689   1.302   8.691   1.345 -0.0135  0.2715 -0.4164
16591SOL    HW253690   1.343   8.553   1.298 -0.7174 -0.3324  0.6850
16592SOL     OW53691   5.771   5.511   0.476  0.0439  0.0858  0.1045
16592SOL    HW153692   5.739   5.441   0.418  1.0263 -0.0115 -0.3378
16592SOL    HW253693   5.865   5.495   0.483  0.4240  1.8133 -0.6409
16593SOL     OW53694   7.261   6.575   1.442  0.3897 -0.5447 -0.2667
16593SOL    HW153695   7.267   6.621   1.526  0.7612 -0.4612 -0.3371
16593SOL    HW253696   7.226   6.489   1.464 -0.3928 -0.1974 -0.1450
16594SOL     OW53697   1.807   4.361   7.084 -0.2410 -0.4030  0.1716
16594SOL    HW153698   1.712   4.371   7.069 -0.2275  0.6247  0.6788
16594SOL    HW253699   1.847   4.387   7.001 -0.3700 -0.0260  0.2278
16595SOL     OW53700   7.586   2.945   3.346 -0.1985 -0.1993  0.4754
16595SOL    HW153701   7.578   2.906   3.259 -0.1442 -1.7806  1.1483
16595SOL    HW253702   7.606   2.871   3.403  1.5560  1.0376  1.5688
16596SOL     OW53703   0.908   2.576   3.071  0.1381  0.2396  0.3416
16596SOL    HW153704   0.853   2.500   3.052 -0.3176  0.6679 -0.0680
16596SOL    HW253705   0.960   2.549   3.147 -0.7039 -0.1412  0.7973
16597SOL     OW53706   4.443   4.462   7.277  0.6104 -0.8010 -0.7965
16597SOL    HW153707   4.367   4.403   7.275 -0.3630  0.4522 -2.2316
16597SOL    HW253708   4.512   4.410   7.319 -0.7298 -2.3234 -0.3746
16598SOL     OW53709   8.123   3.678   6.900 -0.5760 -0.6920 -0.2715
16598SOL    HW153710   8.084   3.734   6.833  3.6076 -0.6062 -3.0483
16598SOL    HW253711   8.092   3.590   6.878  0.5118 -0.6254 -2.3034
16599SOL     OW53712   1.095   7.828   9.775 -0.7576  0.1740 -0.2419
16599SOL    HW153713   1.120   7.823   9.683 -0.2224 -0.4032 -0.0731
16599SOL    HW253714   1.133   7.911   9.806 -0.0930 -0.1112 -0.2948
16600SOL     OW53715   6.913   5.058   2.713 -0.2330  0.2551 -0.1766
16600SOL    HW153716   6.995   5.106   2.706  0.0706 -0.2455 -0.0876
16600SOL    HW253717   6.859   5.111   2.771  0.1226  0.4523 -0.0225
16601SOL     OW53718   0.095   4.683   0.436  0.0339 -0.2722  0.8061
16601SOL    HW153719   0.185   4.710   0.454  0.0489  1.3256 -1.2080
16601SOL    HW253720   0.047   4.701   0.516  0.7948  2.5512  0.7077
16602SOL     OW53721   5.874   8.421   1.621  0.0631  0.1009  0.2062
16602SOL    HW153722   5.905   8.512   1.624 -1.5460  0.7910 -1.8761
16602SOL    HW253723   5.830   8.408   1.704  1.0859  0.9036  0.9059
16603SOL     OW53724   0.162   5.098   4.410 -0.1487  0.6031  0.5768
16603SOL    HW153725   0.081   5.076   4.365 -0.0808 -0.9200  1.1478
16603SOL    HW253726   0.231   5.079   4.346 -0.1849  0.9288  0.4398
16604SOL     OW53727   2.808   2.455   7.622 -0.4589  0.4662  0.2384
16604SOL    HW153728   2.881   2.484   7.568  0.1621  0.0788  0.8490
16604SOL    HW253729   2.849   2.414   7.698 -1.3133 -0.2248  0.3475
16605SOL     OW53730   4.639   2.333   3.072 -0.2461 -0.4091  0.7061
16605SOL    HW153731   4.645   2.407   3.011 -0.5877  1.5472  2.9182
16605SOL    HW253732   4.684   2.261   3.026 -0.8363  0.8007 -1.9761
16606SOL     OW53733   2.481   0.720   4.944 -0.5320  0.1480 -0.1388
16606SOL    HW153734   2.386   0.704   4.943 -0.4559 -0.2931 -0.1931
16606SOL    HW253735   2.510   0.689   5.029 -0.5903  1.2163  0.2890
16607SOL     OW53736   7.556   5.689   4.747 -0.1240  0.3365  0.6912
16607SOL    HW153737   7.540   5.779   4.775  0.8520  0.4680  0.8440
16607SOL    HW253738   7.525   5.635   4.821  0.9721  0.6203  1.3748
16608SOL     OW53739   7.303   0.567   4.348  0.2808 -0.2984  0.4951
16608SOL    HW153740   7.338   0.478   4.344  0.4775 -0.2818  1.6594
16608SOL    HW253741   7.380   0.623   4.361  0.0117 -0.0864  1.1759
16609SOL     OW53742   1.852   4.248   4.627 -0.2743 -0.4917 -0.2604
16609SOL    HW153743   1.841   4.268   4.534  2.7659 -0.5627 -0.7257
16609SOL    HW253744   1.823   4.157   4.636 -1.4310 -0.2098 -0.9205
16610SOL     OW53745   5.659   2.965   6.765  0.2562 -0.0602 -0.1927
16610SOL    HW153746   5.711   2.952   6.685 -2.2242 -1.4787 -1.7185
16610SOL    HW253747   5.707   2.918   6.833  1.6392 -0.1823 -1.2183
16611SOL     OW53748   7.336   2.057   0.753 -0.5176 -0.0209  0.6341
16611SOL    HW153749   7.329   2.145   0.716 -1.0394  0.0310  0.8561
16611SOL    HW253750   7.274   2.056   0.826 -2.0306 -1.2107 -0.6008
16612SOL     OW53751   2.631   9.217   9.574 -0.1835  0.1372 -0.1877
16612SOL    HW153752   2.691   9.225   9.500  0.3874 -1.0725  0.1364
16612SOL    HW253753   2.548   9.188   9.535 -0.3418  0.9885 -0.5216
16613SOL     OW53754   3.769   2.850   0.918  0.1805 -0.6529  0.1513
16613SOL    HW153755   3.813   2.870   1.000 -1.2374  0.3090  0.7077
16613SOL    HW253756   3.708   2.780   0.940 -1.4325  0.7603  0.3665
16614SOL     OW53757   3.700   4.901   5.643  0.0649  0.0839 -0.2824
16614SOL    HW153758   3.664   4.855   5.567 -0.7382 -1.5715  1.0321
16614SOL    HW253759   3.626   4.948   5.680 -0.5556 -2.2498  1.6564
16615SOL     OW53760   8.076   9.016   9.308  0.5151  0.1277 -0.1310
16615SOL    HW153761   7.981   9.011   9.315  0.6419 -2.3164  0.8137
16615SOL    HW253762   8.102   9.082   9.372 -0.6051  2.6140 -2.0439
16616SOL     OW53763   6.722   3.962   5.590 -0.1312  0.2177 -0.2384
16616SOL    HW153764   6.812   3.983   5.615 -0.5078  1.1394  0.3895
16616SOL    HW253765   6.724   3.953   5.495  0.6338  0.1887 -0.2206
16617SOL     OW53766   6.423   4.018   9.553  0.0462 -0.6025 -0.4666
16617SOL    HW153767   6.430   4.029   9.458 -1.3024 -1.0200 -0.6281
16617SOL    HW253768   6.451   3.928   9.570  1.8588 -0.0560 -0.2398
16618SOL     OW53769   2.312   6.663   5.498 -0.0668  0.3064 -0.6060
16618SOL    HW153770   2.306   6.632   5.589  0.1104  1.7056 -0.0854
16618SOL    HW253771   2.249   6.610   5.450 -2.2896  1.4291  0.8993
16619SOL     OW53772   2.651   4.452   3.601  0.1918  0.2256 -0.3194
16619SOL    HW153773   2.627   4.374   3.649 -1.0313  0.4923 -0.4641
16619SOL    HW253774   2.665   4.519   3.668  2.6360 -0.4265 -0.0959
16620SOL     OW53775   6.236   5.528   3.970  0.3206  0.0211  0.1828
16620SOL    HW153776   6.145   5.500   3.981 -0.0000  0.4159 -1.1889
16620SOL    HW253777   6.230   5.623   3.958  0.7325 -0.1196 -1.3786
16621SOL     OW53778  10.024   6.118   6.213  0.4350 -0.6722  0.3030
16621SOL    HW153779  10.004   6.074   6.130 -1.2206 -1.2355  0.9522
16621SOL    HW253780  10.117   6.103   6.226  0.4346 -1.7982 -0.7599
16622SOL     OW53781   2.828   2.208   4.638 -0.0122 -0.6651  0.0752
16622SOL    HW153782   2.793   2.119   4.642 -1.3283 -0.1464  0.4539
16622SOL    HW253783   2.820   2.241   4.727  1.8225 -0.6355  0.2762
16623SOL     OW53784   9.241   5.406   1.946  0.3267  0.9542 -0.8510
16623SOL    HW153785   9.290   5.469   1.998  0.7190 -0.0695  0.0667
16623SOL    HW253786   9.172   5.457   1.905  0.8342  2.0321 -0.3975
16624SOL     OW53787   5.314   8.473   5.603  0.0825 -0.6395  0.0757
16624SOL    HW153788   5.250   8.520   5.656  0.2356 -0.1656 -0.1614
16624SOL    HW253789   5.283   8.382   5.604 -0.1084 -0.5755  0.6916
16625SOL     OW53790   2.484   5.329   1.281 -0.2545 -0.3374  0.3973
16625SOL    HW153791   2.504   5.354   1.191 -1.3125  0.9369  0.4885
16625SOL    HW253792   2.524   5.242   1.291  1.5182  0.3071 -0.6796
16626SOL     OW53793   8.169   7.139   9.263  0.7774 -0.0420 -0.0894
16626SOL    HW153794   8.176   7.202   9.335  0.8305 -1.3056  1.0515
16626SOL    HW253795   8.182   7.054   9.304 -0.9668 -0.9591 -1.3153
16627SOL     OW53796   3.650   9.250   3.241  0.1231 -0.4378 -0.0191
16627SOL    HW153797   3.589   9.214   3.305 -0.5772 -2.2102 -1.5722
16627SOL    HW253798   3.726   9.277   3.292  0.0950 -2.8375  1.4620
16628SOL     OW53799   1.308   4.945   5.417 -0.3464 -0.0499 -0.0109
16628SOL    HW153800   1.242   4.937   5.486 -1.9625  0.8525 -1.3822
16628SOL    HW253801   1.377   4.999   5.457  0.5494 -2.5019  2.0498
16629SOL     OW53802   0.392   7.601   3.598  0.5371  0.7442  0.1215
16629SOL    HW153803   0.321   7.651   3.639  0.6915  1.4055 -0.3884
16629SOL    HW253804   0.448   7.574   3.671 -0.8371 -0.8128  0.6743
16630SOL     OW53805   7.694   0.622   2.396  0.4466 -0.1007 -0.0581
16630SOL    HW153806   7.717   0.701   2.348  1.6353 -0.3640  0.0430
16630SOL    HW253807   7.618   0.647   2.448  1.5668  1.3936  0.9810
16631SOL     OW53808  10.005   4.935   2.562  0.6557 -0.1398  0.2722
16631SOL    HW153809   9.989   4.958   2.654 -1.0538  0.4147 -0.1302
16631SOL    HW253810  10.010   4.839   2.562  2.3759 -0.0897  1.1665
16632SOL     OW53811   1.923   5.699   8.166  0.1359  0.3138  0.2740
16632SOL    HW153812   2.008   5.663   8.193  1.2055  2.8400  0.5790
16632SOL    HW253813   1.938   5.793   8.162 -3.0234  0.9779  1.5603
16633SOL     OW53814   1.299   1.157   1.746 -0.1021 -0.6423 -0.0607
16633SOL    HW153815   1.205   1.177   1.748 -0.0228 -0.1724 -0.7163
16633SOL    HW253816   1.340   1.235   1.710  0.7121 -0.2981  1.5047
16634SOL     OW53817   9.743   6.403   0.284 -0.3526 -0.0074  0.2177
16634SOL    HW153818   9.805   6.430   0.352 -0.1775 -1.5322  0.7043
16634SOL    HW253819   9.705   6.321   0.317  2.2224 -2.7286 -2.8938
16635SOL     OW53820   5.699   4.982   5.985  1.0317 -0.0869 -0.0051
16635SOL    HW153821   5.632   5.024   6.038  0.2381 -2.2126  0.7837
16635SOL    HW253822   5.777   5.037   5.996 -0.1839  1.6835  0.1308
16636SOL     OW53823   4.647   3.551   3.613 -0.1379 -0.1974 -0.0363
16636SOL    HW153824   4.569   3.507   3.579 -0.5449 -0.1641  0.8235
16636SOL    HW253825   4.638   3.642   3.583  0.9233 -0.7484 -2.1822
16637SOL     OW53826   8.917   7.790  10.152  0.1532  0.1590  0.5794
16637SOL    HW153827   8.997   7.834  10.180 -0.0132  0.8981 -0.0940
16637SOL    HW253828   8.946   7.727  10.086  0.0529  1.1811 -0.4523
16638SOL     OW53829   9.857   1.897   2.145 -0.0404 -0.1570 -0.1309
16638SOL    HW153830   9.837   1.803   2.144  0.5465 -0.3387  1.6510
16638SOL    HW253831   9.772   1.939   2.151 -0.2507 -0.6542  0.5622
16639SOL     OW53832   1.696   7.044   0.564 -0.4799 -0.4690  0.3489
16639SOL    HW153833   1.792   7.051   0.559 -0.3619 -1.3151  1.2036
16639SOL    HW253834   1.676   6.958   0.527 -0.6314 -1.4974  2.6126
16640SOL     OW53835   7.648   9.687   5.441 -0.1769 -0.5347 -0.2850
16640SOL    HW153836   7.613   9.772   5.416  1.3752  0.1554 -0.2056
16640SOL    HW253837   7.701   9.660   5.366  3.0548  0.7149  1.3886
16641SOL     OW53838   8.142   5.623   4.015  0.5278 -0.1196 -0.2382
16641SOL    HW153839   8.138   5.556   3.947  0.9452 -0.6030  0.2069
16641SOL    HW253840   8.198   5.586   4.083 -0.0118  0.2878  0.4485
16642SOL     OW53841   3.475   8.905   0.376 -0.1980 -0.3847  0.8874
16642SOL    HW153842   3.492   8.878   0.286  0.2875 -0.3816  0.9714
16642SOL    HW253843   3.451   8.824   0.421  0.0775 -0.4793  0.8694
16643SOL     OW53844   5.566   3.066   1.383 -0.7319  0.0161  0.2725
16643SOL    HW153845   5.652   3.098   1.355 -0.3388 -0.8938  0.4218
16643SOL    HW253846   5.583   2.979   1.418 -1.2016  1.0054  3.2578
16644SOL     OW53847   2.267   3.981   5.111 -0.1303  0.5192 -0.2117
16644SOL    HW153848   2.346   3.932   5.088 -0.6182 -0.0297 -0.7689
16644SOL    HW253849   2.210   3.970   5.036 -1.3693 -0.4335  0.8299
16645SOL     OW53850   0.926   8.684   3.943 -0.0480 -0.1745  0.1759
16645SOL    HW153851   0.957   8.773   3.927  1.5235 -1.1832 -3.8766
16645SOL    HW253852   0.992   8.646   4.001 -1.4477  1.4861  3.0923
16646SOL     OW53853   6.326   1.657   9.977  0.2253 -0.5226 -0.5129
16646SOL    HW153854   6.236   1.683   9.996  0.7229  0.3103  0.7682
16646SOL    HW253855   6.370   1.739   9.953  0.6096 -0.9553 -1.3410
16647SOL     OW53856   1.291   5.117   6.193 -0.1044 -0.5589 -0.2227
16647SOL    HW153857   1.235   5.043   6.170  0.7056 -2.5012  3.2262
16647SOL    HW253858   1.233   5.179   6.236 -0.5152  0.0756 -1.6705
16648SOL     OW53859   6.928   3.334   1.441  0.1492  0.3535  0.3979
16648SOL    HW153860   6.941   3.410   1.384  0.5914  1.0000  1.3378
16648SOL    HW253861   6.954   3.364   1.528  2.4778 -1.5024  0.4642
16649SOL     OW53862   1.782   5.733   7.940 -0.3047  0.3199 -0.2454
16649SOL    HW153863   1.821   5.814   7.906  0.4762  0.4446  0.8903
16649SOL    HW253864   1.826   5.719   8.024 -0.1408 -1.4988 -0.5969
16650SOL     OW53865   9.442   5.511   5.812 -0.6563  0.0106 -0.9254
16650SOL    HW153866   9.424   5.531   5.721  1.0101  1.7084 -0.9448
16650SOL    HW253867   9.514   5.448   5.809  1.4993  2.2923 -0.8839
16651SOL     OW53868   1.863   0.838   0.772  0.3642 -0.3919  0.0031
16651SOL    HW153869   1.788   0.847   0.713 -0.7808 -1.2162  1.2548
16651SOL    HW253870   1.854   0.750   0.809  1.1593  0.0131  1.2341
16652SOL     OW53871   8.829   5.199   4.673 -0.0768 -0.1074 -0.5520
16652SOL    HW153872   8.889   5.222   4.744  1.0295 -0.3860 -1.3713
16652SOL    HW253873   8.789   5.117   4.700 -0.1439  0.1112  0.0259
16653SOL     OW53874   4.502   0.611   7.346  0.3909 -0.1537 -0.2908
16653SOL    HW153875   4.575   0.673   7.350 -1.1749  1.8155 -0.6132
16653SOL    HW253876   4.520   0.559   7.267  0.7690  1.2111 -1.1421
16654SOL     OW53877   7.285   6.881   0.676  0.9756  0.1832 -0.3657
16654SOL    HW153878   7.314   6.797   0.641 -0.6762 -0.2256 -0.8411
16654SOL    HW253879   7.263   6.933   0.599  0.5215  0.4891 -0.0376
16655SOL     OW53880   7.047   5.079   0.298 -0.5944  0.3284 -0.0709
16655SOL    HW153881   6.964   5.086   0.346  0.1386  2.0740  1.0373
16655SOL    HW253882   7.114   5.088   0.365  0.4754  1.7762 -1.2854
16656SOL     OW53883   6.539   6.669   2.256  0.0380 -0.1380 -0.0680
16656SOL    HW153884   6.608   6.622   2.302 -1.0416 -1.2321  0.4996
16656SOL    HW253885   6.534   6.754   2.300 -1.1270 -1.2320  2.0749
16657SOL     OW53886   0.990   2.114   5.528  0.1030 -0.3319  0.0352
16657SOL    HW153887   0.953   2.096   5.614 -0.8037  1.3032  0.0249
16657SOL    HW253888   1.081   2.083   5.533 -0.7229 -2.8743  0.6225
16658SOL     OW53889   1.174   4.970   3.147  0.2073  0.5800  0.1225
16658SOL    HW153890   1.136   4.891   3.185 -1.5612  1.5574  0.4605
16658SOL    HW253891   1.269   4.953   3.148 -0.1408 -1.7002 -0.2511
16659SOL     OW53892   5.666   1.497   8.971  0.2746 -0.3091  0.2272
16659SOL    HW153893   5.652   1.417   8.920  1.3865  0.8631 -2.0928
16659SOL    HW253894   5.671   1.567   8.905 -1.6122  1.8702  2.2165
16660SOL     OW53895   3.046   3.547   6.037 -0.0492  0.6118 -0.2727
16660SOL    HW153896   3.084   3.481   5.978 -1.1032  0.0577 -0.3506
16660SOL    HW253897   2.955   3.556   6.008 -0.2744  1.1503  0.5743
16661SOL     OW53898   5.373   9.121   0.467 -0.1440  0.0516 -0.1407
16661SOL    HW153899   5.320   9.054   0.423 -0.1031 -0.4584  0.5817
16661SOL    HW253900   5.318   9.152   0.539 -1.4846  3.0888 -2.2607
16662SOL     OW53901   4.328   6.379   2.738 -0.0233 -0.1614  0.4744
16662SOL    HW153902   4.250   6.432   2.722 -0.2532 -0.3768  0.8748
16662SOL    HW253903   4.306   6.327   2.815  0.7972  0.3292  1.0479
16663SOL     OW53904   3.311   9.813   4.886 -0.2913  0.2583 -0.6655
16663SOL    HW153905   3.405   9.802   4.869 -0.1043 -0.6720  0.7419
16663SOL    HW253906   3.298   9.908   4.885  0.4042  0.3709 -2.0545
16664SOL     OW53907   1.959   9.138   8.539  0.3242 -0.0295  1.0103
16664SOL    HW153908   1.870   9.117   8.568  0.2226  1.4971  1.8804
16664SOL    HW253909   2.014   9.113   8.613  0.6169 -0.8044  0.5413
16665SOL     OW53910   1.561   8.426   1.511  0.4296 -0.1661 -0.0300
16665SOL    HW153911   1.507   8.422   1.432  0.9249  1.7430 -0.5195
16665SOL    HW253912   1.590   8.336   1.525 -0.7861 -0.7775 -1.2237
16666SOL     OW53913   4.651   8.313   7.807 -0.1836 -0.3467 -0.0867
16666SOL    HW153914   4.609   8.380   7.861 -2.8066 -1.9402  0.0725
16666SOL    HW253915   4.686   8.360   7.732  0.4233  1.4934  1.2859
16667SOL     OW53916   7.134   7.751   0.426  0.0852  0.0724  0.7517
16667SOL    HW153917   7.221   7.781   0.452  0.2286  0.0733  0.2780
16667SOL    HW253918   7.124   7.781   0.336 -1.2746  1.9788  1.4761
16668SOL     OW53919   7.761   2.620   7.483 -0.7773 -0.2042 -0.2751
16668SOL    HW153920   7.699   2.598   7.413 -0.1981 -1.9696 -0.2703
16668SOL    HW253921   7.751   2.550   7.547  0.7419 -0.1667  0.0370
16669SOL     OW53922   5.951   7.784   8.690 -0.0845  0.1640  0.1587
16669SOL    HW153923   5.926   7.873   8.712 -1.1157 -0.2567  0.7771
16669SOL    HW253924   6.035   7.771   8.734  0.0671  0.8148  0.0715
16670SOL     OW53925   5.523   4.971   4.771  0.6173  0.2425  0.8116
16670SOL    HW153926   5.441   5.015   4.747 -0.2491 -0.8665  1.6204
16670SOL    HW253927   5.591   5.021   4.726 -0.7157 -0.7940 -2.7034
16671SOL     OW53928   0.712   3.930   0.021  0.5395  0.3924  0.0323
16671SOL    HW153929   0.802   3.955   0.003  0.7963  0.3014  1.1247
16671SOL    HW253930   0.697   3.957   0.112 -0.4093  0.0556 -0.0110
16672SOL     OW53931   4.513   2.739   5.014  0.3417 -0.3140 -0.7230
16672SOL    HW153932   4.430   2.757   5.057  0.9212 -0.2060  0.3748
16672SOL    HW253933   4.507   2.648   4.986  0.8413 -1.1695  1.7184
16673SOL     OW53934   4.369   2.262   0.775 -0.3213 -0.2383 -0.8824
16673SOL    HW153935   4.402   2.265   0.865 -0.8857  0.3589 -0.6815
16673SOL    HW253936   4.352   2.354   0.754 -0.9925 -0.4547 -1.2967
16674SOL     OW53937   4.967   2.580   5.655  0.0554 -0.5933 -0.0597
16674SOL    HW153938   5.044   2.622   5.694  0.6316  1.1764 -2.8562
16674SOL    HW253939   5.002   2.522   5.588 -0.9991 -1.7801  0.3644
16675SOL     OW53940   1.654   5.479   1.101 -0.1160  0.6285  0.0569
16675SOL    HW153941   1.596   5.411   1.134 -0.2786  0.5211 -0.4416
16675SOL    HW253942   1.622   5.560   1.141 -0.2861  0.4969  0.1859
16676SOL     OW53943   6.599   5.738   0.323  0.6427 -0.0918  0.2205
16676SOL    HW153944   6.638   5.794   0.255 -0.1092  1.9865  1.3967
16676SOL    HW253945   6.507   5.763   0.324  0.6041 -0.2313  1.8257
16677SOL     OW53946   6.147   1.166   9.225  0.4850 -0.2365 -0.3553
16677SOL    HW153947   6.157   1.202   9.313  0.2011 -2.1606  0.5221
16677SOL    HW253948   6.100   1.234   9.177  2.2667  1.6434  0.3900
16678SOL     OW53949   1.363   6.660   0.259 -0.1287 -0.5162  0.0308
16678SOL    HW153950   1.454   6.662   0.229 -0.0560  0.8743  0.3177
16678SOL    HW253951   1.347   6.567   0.279  1.0628 -0.8503 -0.4783
16679SOL     OW53952   3.615   6.577   7.241 -0.3382 -0.0738  0.1611
16679SOL    HW153953   3.676   6.633   7.289  2.8990  0.0171 -3.5055
16679SOL    HW253954   3.638   6.488   7.266  1.3625 -0.0315 -1.0644
16680SOL     OW53955   2.387   1.023   0.977 -0.6692  0.4145  0.1243
16680SOL    HW153956   2.376   1.118   0.978 -0.0033  0.5162 -0.5978
16680SOL    HW253957   2.413   1.003   0.887  0.4521 -0.3010  0.5796
16681SOL     OW53958   2.622   4.216   0.503  0.0372 -0.1994 -0.5083
16681SOL    HW153959   2.556   4.276   0.468  0.3714  0.1932 -0.4690
16681SOL    HW253960   2.682   4.201   0.430 -0.0931 -0.5613 -0.5452
16682SOL     OW53961   5.928   4.266   2.382  0.1203 -0.0520  0.4523
16682SOL    HW153962   5.864   4.194   2.380  0.7344 -0.6626 -2.9044
16682SOL    HW253963   5.875   4.345   2.378 -0.4918 -0.3330  2.0771
16683SOL     OW53964   5.887   5.043   6.506  0.1379  0.6955 -0.1290
16683SOL    HW153965   5.896   5.077   6.417  0.3952  0.7528 -0.0832
16683SOL    HW253966   5.793   5.026   6.516  0.1286  0.5303 -0.4687
16684SOL     OW53967   3.512   0.932   3.170 -0.2028  0.3945  0.9330
16684SOL    HW153968   3.433   0.959   3.122  1.2499  1.8665 -0.8003
16684SOL    HW253969   3.520   0.996   3.241 -0.5259  0.2811  1.0732
16685SOL     OW53970   1.638   5.217   1.946  0.3875 -0.2249  0.0103
16685SOL    HW153971   1.678   5.297   1.980  2.8774 -1.2942 -0.1957
16685SOL    HW253972   1.590   5.181   2.020  1.5001  0.0803  0.9023
16686SOL     OW53973   1.624   4.751   4.950  0.3975 -0.1395  0.0103
16686SOL    HW153974   1.696   4.750   5.013 -1.2577 -1.0709  2.0219
16686SOL    HW253975   1.618   4.661   4.918 -0.4331 -0.3111  0.5990
16687SOL     OW53976   3.390   4.945   9.824  0.5750  0.3484  0.6081
16687SOL    HW153977   3.361   4.856   9.803  0.5436  0.9193 -2.0838
16687SOL    HW253978   3.486   4.940   9.822  0.5687  0.4881 -0.0996
16688SOL     OW53979   4.982   8.983   6.396  0.2320 -0.4364  0.0313
16688SOL    HW153980   4.921   8.985   6.323  0.1379 -0.4353  0.1107
16688SOL    HW253981   4.929   9.001   6.473  0.6509  1.6044 -0.1099
16689SOL     OW53982   4.658   1.127   7.105  0.4924  0.1722  0.3184
16689SOL    HW153983   4.571   1.118   7.067  0.6726 -1.0580  0.1403
16689SOL    HW253984   4.673   1.221   7.111 -1.1984  0.4163  1.1894
16690SOL     OW53985   8.298   2.086   9.856  0.1999  0.1234  0.2304
16690SOL    HW153986   8.340   2.079   9.941  1.4772 -0.2404 -0.4031
16690SOL    HW253987   8.368   2.069   9.793 -0.8957 -0.4931 -0.8695
16691SOL     OW53988   2.859   6.893   1.717  0.1647 -0.0744  0.0922
16691SOL    HW153989   2.892   6.973   1.759  0.4696 -0.4857  0.6527
16691SOL    HW253990   2.768   6.913   1.697  0.6175  0.9329 -1.0995
16692SOL     OW53991   5.489   9.854   6.240 -0.1724  0.0956 -0.6678
16692SOL    HW153992   5.468   9.796   6.313 -0.5170 -0.3337 -1.0929
16692SOL    HW253993   5.516   9.795   6.170 -1.5544  0.3459 -1.4550
16693SOL     OW53994   7.978   7.918   6.814 -0.3522 -0.0184  0.3226
16693SOL    HW153995   8.071   7.912   6.792  0.0207  2.0432  1.0997
16693SOL    HW253996   7.973   7.991   6.876 -2.3557 -0.7763  1.1420
16694SOL     OW53997   1.141   3.009   3.759  0.7188  0.3420  0.6268
16694SOL    HW153998   1.222   2.962   3.740  2.3426  3.1035  0.0893
16694SOL    HW253999   1.100   3.021   3.673 -0.2433 -0.9538  0.8850
16695SOL     OW54000   3.714   1.641   9.313 -0.5254  0.2670  0.0046
16695SOL    HW154001   3.807   1.652   9.292 -0.2147 -1.0831  0.5358
16695SOL    HW254002   3.710   1.649   9.408 -1.1079  1.1840 -0.0841
16696SOL     OW54003   6.021   6.240   6.069 -0.0545  0.0505  0.3036
16696SOL    HW154004   5.958   6.172   6.093  0.1749 -0.5273 -0.6525
16696SOL    HW254005   6.025   6.235   5.973 -1.0497  2.3337  0.0875
16697SOL     OW54006   7.999   9.368   8.520  0.2466  0.3126 -0.1415
16697SOL    HW154007   8.070   9.320   8.561  0.7371  0.8321 -0.3621
16697SOL    HW254008   8.043   9.441   8.475 -0.5107  1.2343  0.5805
16698SOL     OW54009   1.248   8.743   2.522 -0.2489  0.8266  0.6232
16698SOL    HW154010   1.166   8.718   2.565  0.0430  0.5114  1.0082
16698SOL    HW254011   1.315   8.692   2.567  0.0511  0.3436 -0.3264
16699SOL     OW54012   1.816   6.889   6.558  0.8789  0.2812  0.2934
16699SOL    HW154013   1.828   6.805   6.514 -1.3878  0.4714 -0.8224
16699SOL    HW254014   1.776   6.867   6.642  2.2464  0.1514  0.9472
16700SOL     OW54015   5.929   8.280   2.524  0.2013 -0.5789  0.1932
16700SOL    HW154016   5.911   8.326   2.605 -1.4644  0.7579 -0.8541
16700SOL    HW254017   5.867   8.207   2.524 -0.4736 -0.0234 -0.2703
16701SOL     OW54018   8.341   8.025   7.369 -0.0057 -0.2460  0.1135
16701SOL    HW154019   8.412   8.047   7.310  0.2655  0.8908  0.8442
16701SOL    HW254020   8.385   7.988   7.446 -0.4206 -3.3803 -0.9931
16702SOL     OW54021   4.234   0.567   8.763  0.1514 -0.0005 -0.1892
16702SOL    HW154022   4.259   0.493   8.817 -1.2466 -1.0680 -0.9506
16702SOL    HW254023   4.255   0.644   8.817 -1.5511 -1.0012  2.0774
16703SOL     OW54024   4.864   9.676   0.005  0.2087 -0.3410 -0.4223
16703SOL    HW154025   4.800   9.646   0.069 -0.9315  1.5797 -0.5888
16703SOL    HW254026   4.940   9.701   0.057 -0.0216 -0.5172  0.0019
16704SOL     OW54027  10.206   0.306   8.345 -0.3231  0.2068  0.2222
16704SOL    HW154028  10.184   0.322   8.253 -1.9552 -0.2133  0.5211
16704SOL    HW254029  10.299   0.281   8.343  0.6886  3.5249 -0.9325
16705SOL     OW54030   7.139   0.562   4.106 -0.3079 -0.1344 -0.6844
16705SOL    HW154031   7.153   0.554   4.200  1.0869  1.7168 -0.6693
16705SOL    HW254032   7.194   0.493   4.068 -0.3848 -0.4862 -0.1659
16706SOL     OW54033   9.630   1.589   1.504 -0.3449 -0.1169  0.2186
16706SOL    HW154034   9.565   1.619   1.568  1.6019  1.6029  1.5233
16706SOL    HW254035   9.622   1.650   1.432 -1.0937 -0.7776 -0.2824
16707SOL     OW54036   0.528   1.518   8.441  1.1599  0.3965 -0.4108
16707SOL    HW154037   0.597   1.461   8.476  1.4338  0.9075 -0.1030
16707SOL    HW254038   0.453   1.460   8.428  1.5470 -0.1000 -0.4306
16708SOL     OW54039   2.994   4.186   8.778  0.4966  0.6432 -0.0361
16708SOL    HW154040   3.075   4.235   8.795  0.7733  1.1671 -2.4825
16708SOL    HW254041   2.994   4.171   8.683 -1.0302 -1.6168  0.2366
16709SOL     OW54042   2.156   6.468   9.137  0.0925  0.1778 -0.3423
16709SOL    HW154043   2.104   6.463   9.057 -0.4733  0.6934 -0.0111
16709SOL    HW254044   2.093   6.466   9.208  0.5798 -0.0585  0.0959
16710SOL     OW54045   9.376   0.141   5.087  0.2887 -0.5000  0.2619
16710SOL    HW154046   9.393   0.213   5.148 -0.1385 -0.6608  0.5796
16710SOL    HW254047   9.459   0.129   5.041 -0.1842  1.5148 -1.2525
16711SOL     OW54048   8.106   7.371   7.189 -0.5425  0.0159 -0.5669
16711SOL    HW154049   8.175   7.321   7.231  0.1543  0.0469 -1.6231
16711SOL    HW254050   8.050   7.400   7.260 -0.2375 -1.1691  0.1878
16712SOL     OW54051   0.546   7.887   3.541  0.4382  0.4335  0.0722
16712SOL    HW154052   0.617   7.823   3.539 -0.4218 -0.5510  0.3340
16712SOL    HW254053   0.518   7.888   3.633 -1.5736 -1.1376 -0.4372
16713SOL     OW54054   8.729   9.934   4.486 -0.1607  0.1784 -0.7409
16713SOL    HW154055   8.818   9.920   4.518 -0.4165  0.8033  0.2860
16713SOL    HW254056   8.739  10.001   4.418  0.3859 -1.1482 -2.0183
16714SOL     OW54057   9.162   1.709   5.461  0.1213 -0.1440  0.0555
16714SOL    HW154058   9.203   1.653   5.394 -0.4156  0.3662 -0.7140
16714SOL    HW254059   9.234   1.732   5.519  1.0274  0.9947 -1.4458
16715SOL     OW54060   1.868   9.789   7.827  0.0513 -0.0628  0.4409
16715SOL    HW154061   1.935   9.838   7.874  0.5446 -0.7328  0.4476
16715SOL    HW254062   1.793   9.848   7.824  1.0486  1.2016 -0.6857
16716SOL     OW54063   6.637   2.764   1.343  0.0390 -0.4477  0.4532
16716SOL    HW154064   6.733   2.758   1.340  0.1223  0.5193  0.7839
16716SOL    HW254065   6.618   2.796   1.432 -0.6369 -1.3044  0.6273
16717SOL     OW54066   1.249   1.456   2.655 -0.5868  0.6526  0.0959
16717SOL    HW154067   1.236   1.362   2.644  0.1986  0.4672  0.6441
16717SOL    HW254068   1.309   1.463   2.730 -1.4257  1.6243  0.6999
16718SOL     OW54069   1.469   8.324   9.713  0.6641  0.0453 -0.0342
16718SOL    HW154070   1.534   8.382   9.674  0.7382 -1.5028 -2.4022
16718SOL    HW254071   1.506   8.236   9.704 -1.2697 -0.7787 -0.4754
16719SOL     OW54072   8.199   4.789   3.339  0.2430 -0.0641 -0.5482
16719SOL    HW154073   8.202   4.884   3.350 -0.6210 -0.3096  2.7036
16719SOL    HW254074   8.136   4.775   3.268  0.5658  1.7540 -1.2480
16720SOL     OW54075   1.037   2.651   0.563  0.2402  0.2209 -0.3558
16720SOL    HW154076   1.068   2.740   0.573  0.5151  0.0658  0.2095
16720SOL    HW254077   1.116   2.599   0.552  0.0263  0.2662 -2.6956
16721SOL     OW54078   5.540   6.861   4.438 -0.5952 -0.3132  0.4582
16721SOL    HW154079   5.616   6.893   4.389 -0.6850 -1.4490 -0.4527
16721SOL    HW254080   5.536   6.768   4.418 -3.4600  0.0580 -1.1942
16722SOL     OW54081   6.693   3.123   7.535 -0.4249 -0.7532 -0.3728
16722SOL    HW154082   6.658   3.175   7.607 -0.6761  0.0518 -1.0608
16722SOL    HW254083   6.628   3.055   7.520  0.2206 -1.7026  0.9778
16723SOL     OW54084   9.871   0.858   2.932 -0.5339  0.0671 -0.6878
16723SOL    HW154085   9.787   0.838   2.891  0.0890  0.3071 -2.1507
16723SOL    HW254086   9.852   0.930   2.992 -1.5450 -0.5216 -0.2824
16724SOL     OW54087   4.331   2.252   4.901  0.0692  0.0096 -0.3820
16724SOL    HW154088   4.272   2.323   4.928 -0.8791 -0.7195 -0.4770
16724SOL    HW254089   4.272   2.178   4.883  1.1437 -1.6748  2.3552
16725SOL     OW54090   3.724   0.529   0.017 -0.1768  0.1979  0.0658
16725SOL    HW154091   3.709   0.452  -0.038  0.8745  0.3577 -0.4813
16725SOL    HW254092   3.703   0.603  -0.039 -1.0970  0.3257  0.5625
16726SOL     OW54093   3.738   8.615   1.800 -0.0736  0.0211  0.0250
16726SOL    HW154094   3.648   8.580   1.796 -0.0822 -0.5305  3.0301
16726SOL    HW254095   3.792   8.544   1.764 -0.5662 -1.1494  1.4671
16727SOL     OW54096   0.645   3.219   6.387 -0.6207  0.1661 -0.0819
16727SOL    HW154097   0.570   3.230   6.445 -1.4380  1.4769 -1.3057
16727SOL    HW254098   0.616   3.256   6.304  1.5638  1.1671 -0.4574
16728SOL     OW54099   4.932   3.698   8.260 -0.1055  0.0725 -0.0421
16728SOL    HW154100   5.005   3.642   8.234 -0.5772  0.3044 -1.9814
16728SOL    HW254101   4.860   3.637   8.275 -0.8206  0.1248 -2.8455
16729SOL     OW54102   6.195   7.759   0.462  0.2853 -0.0355 -0.3464
16729SOL    HW154103   6.240   7.681   0.428 -0.3637 -0.0483 -1.1982
16729SOL    HW254104   6.103   7.734   0.467  0.5566 -0.7612  3.5175
16730SOL     OW54105   0.222  10.024   2.845  0.3466 -0.1718  0.0411
16730SOL    HW154106   0.261  10.078   2.777  2.6834 -1.7558  0.0080
16730SOL    HW254107   0.223   9.935   2.809 -1.5875 -0.5892  0.8419
16731SOL     OW54108   2.578   8.930   5.450  0.6995 -0.0812 -0.5622
16731SOL    HW154109   2.574   8.985   5.528 -1.0144 -1.4371  0.3780
16731SOL    HW254110   2.502   8.955   5.398 -0.1824 -1.5959 -0.0529
16732SOL     OW54111   0.040   9.927   3.097  0.6729 -0.0480  0.1015
16732SOL    HW154112   0.094   9.974   3.033 -0.5735 -0.4541 -1.3210
16732SOL    HW254113   0.088   9.846   3.115  0.2023 -0.8334 -1.8455
16733SOL     OW54114   0.955   6.557   5.453  0.0369  0.3511 -0.2224
16733SOL    HW154115   0.945   6.465   5.477 -0.5283  1.3173  3.9811
16733SOL    HW254116   0.873   6.578   5.408 -0.3600 -0.8634 -0.1198
16734SOL     OW54117   1.446   7.971   4.735  0.0781  0.1905  0.4846
16734SOL    HW154118   1.363   8.007   4.705 -0.0877 -0.4371  0.1857
16734SOL    HW254119   1.451   7.997   4.827 -0.8496 -0.4924  0.7431
16735SOL     OW54120   6.926   0.312   4.983 -0.4308 -0.5063  0.8876
16735SOL    HW154121   6.875   0.379   5.027  0.4384 -0.1138  1.3317
16735SOL    HW254122   6.917   0.332   4.890 -1.9269 -1.0800  0.8818
16736SOL     OW54123   7.754   7.555   8.947 -0.8500  0.6319  0.2278
16736SOL    HW154124   7.732   7.495   8.876  1.6061 -0.7013  0.4528
16736SOL    HW254125   7.759   7.641   8.905 -1.8656  0.2695 -0.6746
16737SOL     OW54126   5.720   1.027   1.045 -0.4854  0.0346  0.1968
16737SOL    HW154127   5.794   1.038   0.985 -2.1062 -1.4925 -2.2581
16737SOL    HW254128   5.670   1.108   1.037 -0.5828 -0.0769 -0.4107
16738SOL     OW54129   5.714   2.789   2.260  0.5702  0.0040  0.0294
16738SOL    HW154130   5.715   2.867   2.315  2.1581 -0.1495  0.2675
16738SOL    HW254131   5.628   2.751   2.275 -0.8539  2.4963 -1.2819
16739SOL     OW54132   9.343   4.495   5.586 -0.0710  0.3120 -0.0894
16739SOL    HW154133   9.345   4.590   5.595  1.9230  0.5764 -2.2445
16739SOL    HW254134   9.435   4.470   5.575 -0.5231 -1.9076  0.6486
16740SOL     OW54135   9.768   2.562   5.062 -0.1915 -0.1418  0.5441
16740SOL    HW154136   9.791   2.470   5.077  1.4793  0.1061 -0.2509
16740SOL    HW254137   9.715   2.560   4.983  0.1797 -0.3961  0.2946
16741SOL     OW54138   8.876   4.752   1.458 -0.0118 -0.2428 -0.4822
16741SOL    HW154139   8.858   4.846   1.453  2.1715  0.1635 -2.5170
16741SOL    HW254140   8.843   4.717   1.375 -1.8489 -1.5727  0.7097
16742SOL     OW54141   0.379   3.562   9.878 -0.3899  0.1045  0.3469
16742SOL    HW154142   0.425   3.491   9.833 -0.7310 -1.2485  2.0263
16742SOL    HW254143   0.324   3.518   9.943 -0.6404  1.9044  1.4306
16743SOL     OW54144   8.926   7.400   7.063 -0.3679  0.9795  0.2802
16743SOL    HW154145   8.910   7.433   6.974  2.7631 -0.4563 -0.9740
16743SOL    HW254146   8.932   7.479   7.117 -1.9744  1.9060 -0.8156
16744SOL     OW54147  10.123   6.199   8.591  0.2268 -0.5841  0.6158
16744SOL    HW154148  10.102   6.242   8.508  2.0763 -0.2647  0.2700
16744SOL    HW254149  10.054   6.227   8.650 -0.6061 -0.0491 -0.5588
16745SOL     OW54150   0.080   5.199   0.866 -0.4202  0.9750 -0.1169
16745SOL    HW154151   0.047   5.279   0.907 -2.2489  0.1094  0.2226
16745SOL    HW254152   0.029   5.191   0.785 -1.0081 -0.3365  0.3460
16746SOL     OW54153   8.462   9.381   6.397  0.7197  0.0745 -0.4132
16746SOL    HW154154   8.404   9.337   6.336 -0.1658 -0.9137  1.0777
16746SOL    HW254155   8.408   9.451   6.435  0.5324 -0.7053  0.8138
16747SOL     OW54156   4.035   5.092   2.287 -0.7221 -0.2781  0.3400
16747SOL    HW154157   4.102   5.160   2.273  0.7770 -1.9369 -0.9978
16747SOL    HW254158   3.960   5.121   2.235 -0.2369  0.5251  0.0712
16748SOL     OW54159   1.001   7.575   7.377  0.6231  0.3593  0.1133
16748SOL    HW154160   1.086   7.603   7.411  0.8578  2.4212 -1.8345
16748SOL    HW254161   0.938   7.635   7.417  0.2475 -0.3387  0.5813
16749SOL     OW54162   5.627   8.197   7.262 -0.5940  0.0477 -0.2504
16749SOL    HW154163   5.637   8.111   7.302 -1.3929 -0.1674 -0.4822
16749SOL    HW254164   5.683   8.255   7.313 -0.1975 -0.5774  0.0252
16750SOL     OW54165   9.456   2.461   9.686  0.2283  0.4093 -0.7370
16750SOL    HW154166   9.389   2.401   9.717  0.7770  1.1882  2.3329
16750SOL    HW254167   9.412   2.546   9.681  0.8500  0.8652  0.9899
16751SOL     OW54168   9.308   8.806   5.027  0.1784  0.1596  0.5785
16751SOL    HW154169   9.340   8.792   5.117  0.2595  0.4951  0.6030
16751SOL    HW254170   9.244   8.876   5.035  0.1116  0.1207  0.3862
16752SOL     OW54171   1.704   7.186   3.976  0.0590 -0.3779 -0.0336
16752SOL    HW154172   1.663   7.273   3.981 -0.3463 -0.6373  1.4993
16752SOL    HW254173   1.797   7.203   3.990  0.0601 -0.1385 -0.3071
16753SOL     OW54174   9.392   2.130   1.814 -0.0998  0.1398 -0.1889
16753SOL    HW154175   9.356   2.159   1.730  0.5945  0.9526 -0.2171
16753SOL    HW254176   9.476   2.176   1.822 -0.6428  0.9530  1.4468
16754SOL     OW54177   7.220   2.249   7.292  0.2187  0.1234  0.0427
16754SOL    HW154178   7.187   2.233   7.380 -0.8383  2.3866  0.1238
16754SOL    HW254179   7.312   2.221   7.296 -0.0472 -0.6524  1.5819
16755SOL     OW54180   5.382   2.918   5.926  0.2142 -0.1581  0.7628
16755SOL    HW154181   5.361   2.961   5.843 -0.2520  1.1208  1.5133
16755SOL    HW254182   5.299   2.882   5.956  0.3537 -0.4962  0.7483
16756SOL     OW54183   2.085   8.333   5.343 -0.3005  0.0787  0.2602
16756SOL    HW154184   2.068   8.380   5.262  1.0023  1.4732  0.7594
16756SOL    HW254185   2.065   8.241   5.322 -1.3142  0.5958 -1.2015
16757SOL     OW54186   8.043   0.367   4.728 -0.2417  0.0013 -0.0866
16757SOL    HW154187   8.083   0.452   4.744  1.8437 -0.9692  0.1755
16757SOL    HW254188   8.032   0.328   4.815 -1.2880  0.0135 -0.1958
16758SOL     OW54189   8.693   7.049   0.848  0.4808  0.2479 -0.1349
16758SOL    HW154190   8.706   7.088   0.934 -1.5407 -0.9632  0.7934
16758SOL    HW254191   8.665   7.122   0.792  2.0558  1.0887  0.1078
16759SOL     OW54192   0.802   7.165   3.730  0.2044 -0.4735 -0.7011
16759SOL    HW154193   0.803   7.253   3.766  0.3908 -0.7480 -0.0271
16759SOL    HW254194   0.720   7.127   3.763  0.0794 -0.5277 -1.0652
16760SOL     OW54195   7.260   7.612   7.296  0.4677  0.1206  0.2891
16760SOL    HW154196   7.265   7.676   7.225 -0.2719  0.3647  0.4470
16760SOL    HW254197   7.277   7.663   7.376  2.1031 -0.2970  0.2431
16761SOL     OW54198   9.858   8.105   6.010 -1.3679  0.2250 -0.2558
16761SOL    HW154199   9.869   8.095   5.915 -0.4478  2.2753 -0.4219
16761SOL    HW254200   9.768   8.134   6.020 -1.0636  1.3566 -0.6600
16762SOL     OW54201   5.084   9.111   2.481  0.1024  0.0890 -0.1397
16762SOL    HW154202   5.005   9.107   2.534  1.0242  0.1948  1.2889
16762SOL    HW254203   5.072   9.187   2.425 -0.8660  0.0073 -0.0561
16763SOL     OW54204   3.778   8.665   1.359 -0.3887 -0.5971  0.2374
16763SOL    HW154205   3.764   8.704   1.446  0.3530 -1.6028  0.8347
16763SOL    HW254206   3.848   8.718   1.320 -1.5074  0.5761 -0.2367
16764SOL     OW54207   4.727   6.616   4.725 -0.4859 -0.0736 -0.4518
16764SOL    HW154208   4.760   6.533   4.759  0.0737  0.5875  0.6676
16764SOL    HW254209   4.795   6.680   4.746 -2.2931  1.3006  1.6826
16765SOL     OW54210   4.818   5.841   1.906 -0.0090  0.3400 -0.1687
16765SOL    HW154211   4.768   5.888   1.973 -0.6100 -0.3058 -0.1609
16765SOL    HW254212   4.843   5.759   1.947  2.2686  1.1928  0.3112
16766SOL     OW54213   4.803   7.175   5.205 -0.1322 -0.2349  0.2188
16766SOL    HW154214   4.726   7.144   5.158  0.1347 -0.2228 -0.2326
16766SOL    HW254215   4.812   7.115   5.279 -0.3246 -0.4977  0.0291
16767SOL     OW54216   8.304   2.118   5.085 -0.0474 -0.1217  1.0341
16767SOL    HW154217   8.299   2.091   5.177  0.0808  0.4420  1.2103
16767SOL    HW254218   8.355   2.199   5.087  0.1459 -0.2234  0.4405
16768SOL     OW54219   2.858   2.541   7.149 -0.0947  0.2176 -0.0682
16768SOL    HW154220   2.902   2.489   7.082  2.5832  0.2409  1.5300
16768SOL    HW254221   2.928   2.590   7.192 -1.5941  0.0003  2.9319
16769SOL     OW54222   5.941   8.789   6.949 -0.0659 -0.2687 -0.8184
16769SOL    HW154223   5.931   8.878   6.983  1.5756  0.2658 -1.6230
16769SOL    HW254224   5.913   8.796   6.857  4.1483  0.5844 -2.2505
16770SOL     OW54225   9.070   7.371   9.811 -1.0080 -0.3727 -0.4955
16770SOL    HW154226   9.061   7.332   9.724 -0.9791 -1.1417 -0.1662
16770SOL    HW254227   9.044   7.301   9.871 -0.3636 -0.0765  0.1412
16771SOL     OW54228   2.779   3.603  10.081 -0.3784 -0.2308  0.3127
16771SOL    HW154229   2.735   3.592  10.165 -0.3474  0.9783  0.5052
16771SOL    HW254230   2.867   3.636  10.104 -1.1745  2.5611 -0.2165
16772SOL     OW54231   2.771   0.066   9.174  0.2670 -0.4103  0.4868
16772SOL    HW154232   2.699   0.004   9.182  0.4612 -0.7322 -0.1954
16772SOL    HW254233   2.802   0.078   9.264  0.4117 -1.5307  0.6017
16773SOL     OW54234   8.318   7.236   4.446  0.7323 -0.4012 -0.4167
16773SOL    HW154235   8.394   7.290   4.429  1.1068 -0.4543  0.9336
16773SOL    HW254236   8.345   7.147   4.423  1.3597 -0.5344  0.7517
16774SOL     OW54237   9.330  10.198   0.354 -0.0855  0.3093  0.1500
16774SOL    HW154238   9.376  10.272   0.394 -1.1190  0.7965  0.4849
16774SOL    HW254239   9.326  10.133   0.424  0.5267  0.0643 -0.0381
16775SOL     OW54240   4.435   9.900   4.587 -0.4754 -0.7186  0.0222
16775SOL    HW154241   4.425   9.979   4.640  0.1024 -2.6299  3.3086
16775SOL    HW254242   4.346   9.868   4.573 -0.6161 -0.5420  0.5004
16776SOL     OW54243   7.694   6.938   6.975  0.0155 -0.0553 -0.3167
16776SOL    HW154244   7.696   6.917   7.069 -1.4527  0.3526 -0.1718
16776SOL    HW254245   7.652   7.024   6.971  1.8164  0.8462 -1.2268
16777SOL     OW54246   8.913   0.604   6.648 -0.3787 -0.4838  0.0785
16777SOL    HW154247   8.966   0.632   6.722  1.8624 -0.6582 -1.3418
16777SOL    HW254248   8.941   0.513   6.632 -0.9219 -0.4987 -0.8786
16778SOL     OW54249  10.062   7.906   8.837 -0.0238 -0.3338 -0.0055
16778SOL    HW154250  10.009   7.948   8.769 -0.1895  1.5649  1.2097
16778SOL    HW254251   9.998   7.868   8.897  0.1290 -2.8641 -1.3317
16779SOL     OW54252   6.758   4.662   4.980  0.1330 -0.1252 -0.6847
16779SOL    HW154253   6.691   4.695   5.041  0.4757 -0.3917 -0.1565
16779SOL    HW254254   6.710   4.648   4.898 -0.7212 -1.3854 -0.0028
16780SOL     OW54255   2.430   7.767   1.839 -0.5421 -0.4710  0.5561
16780SOL    HW154256   2.446   7.673   1.850  0.4780 -0.3359  0.3012
16780SOL    HW254257   2.513   7.809   1.863 -0.7339  0.3189 -0.1065
16781SOL     OW54258   7.140   3.504   0.609 -0.2985  0.0919 -0.2700
16781SOL    HW154259   7.072   3.443   0.579  1.1762 -1.9858  0.4317
16781SOL    HW254260   7.221   3.454   0.603  1.2327  2.5177 -1.1137
16782SOL     OW54261   1.143   5.548   4.193  0.0974  0.7271 -0.1140
16782SOL    HW154262   1.120   5.463   4.230  0.7792  1.3430  1.8603
16782SOL    HW254263   1.069   5.605   4.215 -0.8756  0.4504 -2.3963
16783SOL     OW54264   0.386   7.005   2.314  0.6608 -0.0035  0.1087
16783SOL    HW154265   0.475   7.027   2.286  0.8222 -0.5165  0.2186
16783SOL    HW254266   0.395   6.976   2.404  0.5467 -1.1689 -0.2451
16784SOL     OW54267   6.198   1.168   4.293  0.3410  0.4350  0.3778
16784SOL    HW154268   6.212   1.074   4.282  1.2919  0.5856  0.2091
16784SOL    HW254269   6.272   1.197   4.347  0.4049  1.1959 -0.1047
16785SOL     OW54270   4.025   9.785   3.978 -0.4078 -0.6325  0.3102
16785SOL    HW154271   4.024   9.760   3.886  1.0761 -0.6191  0.2587
16785SOL    HW254272   4.002   9.878   3.979  2.7131  0.2810 -0.4487
16786SOL     OW54273   6.173   4.562   4.930  0.1440 -0.3370  0.8561
16786SOL    HW154274   6.134   4.646   4.955  0.6672  0.2369 -0.2028
16786SOL    HW254275   6.098   4.505   4.912 -0.3155 -1.0534  4.3430
16787SOL     OW54276   4.275   8.263   6.816 -0.2021  0.7254 -0.3334
16787SOL    HW154277   4.262   8.231   6.905  0.3704  3.4719  0.8405
16787SOL    HW254278   4.368   8.286   6.811 -0.5181  2.0036 -1.0937
16788SOL     OW54279   1.843   2.077   9.872 -0.1987  0.1967  0.9557
16788SOL    HW154280   1.892   2.091   9.953 -0.5859  1.0132  1.0622
16788SOL    HW254281   1.821   2.165   9.842  1.8819  0.0535 -1.2745
16789SOL     OW54282   2.734   0.088   2.934  0.2212 -0.4308 -0.2630
16789SOL    HW154283   2.753   0.007   2.886 -1.0405  0.6559 -2.8066
16789SOL    HW254284   2.672   0.060   3.003  0.6039 -1.7709 -0.4253
16790SOL     OW54285   0.558  10.118   0.366 -0.3312 -0.2243 -0.0816
16790SOL    HW154286   0.601  10.202   0.354  0.9655 -0.9263 -0.6116
16790SOL    HW254287   0.495  10.112   0.295 -0.0097  0.0465 -0.3906
16791SOL     OW54288   8.181   9.393   4.215  0.3684 -0.1751 -0.1338
16791SOL    HW154289   8.108   9.414   4.274  0.9655  2.4371 -0.2078
16791SOL    HW254290   8.259   9.425   4.261  1.2598 -1.2137 -0.8839
16792SOL     OW54291   1.412   9.323   4.300  0.2056  0.2963 -0.5149
16792SOL    HW154292   1.319   9.330   4.281  0.6011  0.1819 -2.8409
16792SOL    HW254293   1.454   9.381   4.236  1.7206  0.8077  0.8553
16793SOL     OW54294   0.570   2.525   5.424  0.5912 -0.6193 -0.3185
16793SOL    HW154295   0.489   2.478   5.447 -1.1699  1.7731 -1.1628
16793SOL    HW254296   0.639   2.480   5.472 -1.0896 -3.3687 -0.2876
16794SOL     OW54297   5.215   0.296   3.267  0.3125  0.2416 -0.0483
16794SOL    HW154298   5.201   0.388   3.241  0.8738  0.9398  1.9591
16794SOL    HW254299   5.130   0.254   3.252 -0.6612  1.6685  1.1792
16795SOL     OW54300   2.909   8.674   0.912 -0.3961  0.0975  0.0640
16795SOL    HW154301   2.870   8.740   0.855 -2.1256 -0.0183  1.0389
16795SOL    HW254302   2.885   8.591   0.872 -3.2371 -0.0598  1.7817
16796SOL     OW54303   4.203   5.087   6.932 -0.2245  0.7404  0.0180
16796SOL    HW154304   4.235   4.998   6.950  1.4877  1.2032 -0.5413
16796SOL    HW254305   4.274   5.144   6.962 -0.4418  1.8333 -1.4356
16797SOL     OW54306   3.364   9.378   5.662 -0.2699  0.0940 -0.0346
16797SOL    HW154307   3.358   9.295   5.708 -1.4773  0.5059  0.6199
16797SOL    HW254308   3.381   9.442   5.731 -3.6631  0.9414  0.1998
16798SOL     OW54309   6.584   0.921   4.675 -0.4659  0.9164  0.8213
16798SOL    HW154310   6.588   1.016   4.663  0.7698  0.9098  1.0819
16798SOL    HW254311   6.662   0.888   4.629 -1.4428 -0.0756 -0.1798
16799SOL     OW54312   9.412   6.367   0.721  0.5215 -0.0648  0.1893
16799SOL    HW154313   9.413   6.340   0.813 -0.3666 -1.5225 -0.2011
16799SOL    HW254314   9.343   6.433   0.716  1.2142  0.7191  0.7346
16800SOL     OW54315   6.643   4.653   5.936 -0.0297 -0.6270  0.2975
16800SOL    HW154316   6.585   4.577   5.945 -0.2269 -0.5582 -0.3381
16800SOL    HW254317   6.688   4.659   6.020 -0.2645 -1.2443  0.4731
16801SOL     OW54318   3.133   1.327   1.152 -0.3258  0.4415  0.0560
16801SOL    HW154319   3.117   1.377   1.072 -0.8136  0.3804  0.1144
16801SOL    HW254320   3.157   1.240   1.121  2.3740  1.1620 -0.1144
16802SOL     OW54321   2.495   0.340   6.180  0.0588  0.2551  0.3112
16802SOL    HW154322   2.528   0.403   6.245  0.8362  1.7489 -1.4521
16802SOL    HW254323   2.547   0.261   6.195  2.1176  1.4365 -0.1541
16803SOL     OW54324   3.451  10.206   9.721 -0.0138 -0.3402  0.3578
16803SOL    HW154325   3.412  10.156   9.650 -2.9388  1.0762  0.8264
16803SOL    HW254326   3.481  10.287   9.681  0.7016 -0.6254  0.3152
16804SOL     OW54327   0.929   1.759   6.572  0.1714  0.1863  0.9402
16804SOL    HW154328   1.018   1.724   6.568 -0.4682 -1.4341  0.5041
16804SOL    HW254329   0.889   1.735   6.488 -1.3908 -1.1138  2.0041
16805SOL     OW54330   8.319   7.305   0.911 -0.5551 -0.1928 -0.0855
16805SOL    HW154331   8.337   7.234   0.973  0.9455  0.3240  0.0955
16805SOL    HW254332   8.356   7.275   0.828  1.9899  1.1858  0.4581
16806SOL     OW54333   0.534   5.327   6.937 -0.7082  0.3675  0.0841
16806SOL    HW154334   0.619   5.330   6.894  0.6443 -1.5989  2.3610
16806SOL    HW254335   0.509   5.235   6.934 -1.2368  0.3904  2.1314
16807SOL     OW54336   6.994   9.742   2.941 -0.7552  0.0961 -0.1822
16807SOL    HW154337   7.083   9.723   2.911 -0.9612  1.4190 -1.7523
16807SOL    HW254338   6.954   9.656   2.953  0.4156 -0.5051 -0.4486
16808SOL     OW54339   2.629   4.057   3.913  0.1456  0.1604 -0.0907
16808SOL    HW154340   2.580   4.000   3.972 -2.8505  0.9466 -1.6002
16808SOL    HW254341   2.713   4.013   3.900 -0.1223 -1.3308  2.6045
16809SOL     OW54342   2.660   7.027   6.065  0.2048 -0.0033  0.0648
16809SOL    HW154343   2.570   7.044   6.093  0.6160  1.1576  0.7554
16809SOL    HW254344   2.651   6.975   5.985 -1.1289  1.3982 -0.7485
16810SOL     OW54345   2.847   5.070   6.616 -0.3358 -0.1813 -0.1149
16810SOL    HW154346   2.842   5.010   6.690 -2.2113  0.1309  0.0590
16810SOL    HW254347   2.935   5.058   6.582 -0.0911 -1.7803  0.9537
16811SOL     OW54348   2.627   5.524   9.958 -0.0607  0.2908  0.5403
16811SOL    HW154349   2.587   5.535   9.871  1.4812 -0.1602 -0.2717
16811SOL    HW254350   2.584   5.590  10.012  0.5158  2.1550 -1.1425
16812SOL     OW54351   6.390   3.394   5.082 -0.4065 -0.1270 -0.3892
16812SOL    HW154352   6.443   3.471   5.061 -1.3742  0.3375 -1.2167
16812SOL    HW254353   6.406   3.379   5.175 -1.6324  2.2462  0.2940
16813SOL     OW54354   6.721   4.133   4.170 -0.1889 -0.2867 -0.1808
16813SOL    HW154355   6.651   4.082   4.130 -0.6935  0.1634  0.1113
16813SOL    HW254356   6.678   4.213   4.201  0.4880  0.0797 -0.1641
16814SOL     OW54357   8.780   4.259   2.897 -0.5211  0.2034 -0.0138
16814SOL    HW154358   8.821   4.342   2.873 -0.5846 -0.5157 -3.0351
16814SOL    HW254359   8.823   4.194   2.840 -0.2417 -1.9506  2.4491
16815SOL     OW54360   4.682   9.026   8.060  0.2840  0.2173 -0.0780
16815SOL    HW154361   4.619   9.097   8.072 -0.0847 -0.1924  0.4336
16815SOL    HW254362   4.675   8.974   8.139 -0.7856 -1.4572 -1.2226
16816SOL     OW54363   3.211   0.376   7.491  0.0661  0.4296  0.4365
16816SOL    HW154364   3.279   0.372   7.423 -0.7483  1.5724 -0.4985
16816SOL    HW254365   3.170   0.290   7.489  0.2703  0.3428 -0.2926
16817SOL     OW54366   5.612   5.705   5.411  0.0101  0.2006  1.2210
16817SOL    HW154367   5.682   5.725   5.473  1.4536  0.0300 -0.2851
16817SOL    HW254368   5.646   5.734   5.326 -1.7250  0.0301  0.4276
16818SOL     OW54369   4.400   1.260   5.744  0.2378  0.2400 -0.5001
16818SOL    HW154370   4.371   1.349   5.763  0.4986 -0.1489  2.0608
16818SOL    HW254371   4.319   1.210   5.733  0.0334  0.3480  0.4574
16819SOL     OW54372   4.210   7.938   3.362 -0.0469  0.9575  0.0623
16819SOL    HW154373   4.221   7.843   3.365  0.3757  0.9968 -0.0941
16819SOL    HW254374   4.194   7.964   3.453 -2.2859  0.5091 -0.1515
16820SOL     OW54375   8.789   9.164   3.637 -0.1054 -0.7069  0.0748
16820SOL    HW154376   8.748   9.149   3.552  0.3480 -1.1331 -0.0659
16820SOL    HW254377   8.735   9.233   3.677  0.7368  0.8044 -1.2969
16821SOL     OW54378   2.201   7.790   0.035 -0.3831 -0.3661 -0.3202
16821SOL    HW154379   2.157   7.751   0.110  0.6300  0.1950  0.6037
16821SOL    HW254380   2.193   7.725  -0.035  0.1179 -1.6512  0.7799
16822SOL     OW54381   5.288   1.646   9.641  0.7812 -0.0668  0.7318
16822SOL    HW154382   5.364   1.649   9.583  1.2216 -1.1461  1.2258
16822SOL    HW254383   5.298   1.724   9.696  0.8868  0.4281  0.0293
16823SOL     OW54384  10.042   6.642   2.756  0.3583  0.2037 -0.2608
16823SOL    HW154385  10.013   6.580   2.822 -1.1423  2.2618  1.1557
16823SOL    HW254386  10.123   6.679   2.790  1.0458 -0.6621 -0.9192
16824SOL     OW54387   8.426  10.163   5.249  0.0585  0.1270 -0.2109
16824SOL    HW154388   8.461  10.086   5.295  0.1209 -0.4765 -1.2237
16824SOL    HW254389   8.333  10.164   5.271 -0.3230 -1.3082 -1.5713
16825SOL     OW54390   4.562   3.096   8.999  0.0513  0.2177 -0.3207
16825SOL    HW154391   4.558   3.116   9.093  0.2176  0.0809 -0.2832
16825SOL    HW254392   4.655   3.085   8.980  0.0692  0.8908 -0.6466
16826SOL     OW54393   0.713   6.912   9.179  0.1115  0.0907 -0.3717
16826SOL    HW154394   0.768   6.853   9.128  1.5572  1.3216 -0.2892
16826SOL    HW254395   0.651   6.853   9.224  0.3226 -1.1931 -1.6654
16827SOL     OW54396   1.577   8.148   7.694 -0.0346  0.0588 -0.0985
16827SOL    HW154397   1.498   8.188   7.732 -0.0683 -0.5118  0.4457
16827SOL    HW254398   1.564   8.054   7.706 -0.4286 -0.2169 -2.2879
16828SOL     OW54399   6.790   7.181   3.420 -0.1459 -0.3514 -0.2095
16828SOL    HW154400   6.714   7.209   3.368  1.1439  1.3107 -1.3058
16828SOL    HW254401   6.760   7.184   3.510 -1.4621  0.0566 -0.6326
16829SOL     OW54402   5.323  10.085   7.888 -0.2064  0.5188  0.3429
16829SOL    HW154403   5.330  10.120   7.976 -1.1555 -0.3983  0.8037
16829SOL    HW254404   5.409  10.048   7.869  0.0882  0.9909  0.7581
16830SOL     OW54405   9.184   1.716   3.337 -0.1085  0.4610  0.5563
16830SOL    HW154406   9.264   1.729   3.389  1.0084 -1.4816 -0.5569
16830SOL    HW254407   9.115   1.708   3.403  0.9944 -0.1654  1.6969
16831SOL     OW54408   4.520  10.188   7.379  1.0403  0.3191  0.0497
16831SOL    HW154409   4.496  10.281   7.381  0.5413  0.1852  1.1197
16831SOL    HW254410   4.581  10.181   7.306  2.7899  1.9129  1.2611
16832SOL     OW54411   3.052   8.111   1.889 -0.0971  0.5678 -0.0136
16832SOL    HW154412   3.082   8.036   1.940 -0.6170  0.5831  0.3186
16832SOL    HW254413   3.049   8.183   1.952  0.4061  0.8769 -0.3323
16833SOL     OW54414   0.775   8.138   8.133 -0.1175  0.5315 -0.4983
16833SOL    HW154415   0.784   8.087   8.213  2.3719  1.1501 -0.2849
16833SOL    HW254416   0.727   8.081   8.073  0.0024 -0.8556  0.6682
16834SOL     OW54417   0.056   1.237   9.258 -0.3887 -0.1402  0.3215
16834SOL    HW154418   0.061   1.160   9.315 -2.2101  1.2563  2.5572
16834SOL    HW254419   0.037   1.201   9.171  0.1055 -2.2661  1.0315
16835SOL     OW54420   6.581   5.419   9.713 -0.0601  0.5060 -0.2273
16835SOL    HW154421   6.673   5.403   9.732 -0.0726  2.0170  1.3968
16835SOL    HW254422   6.542   5.332   9.705  1.3122 -0.1571  0.0699
16836SOL     OW54423   2.830   8.587   2.705  0.1032 -0.0082 -0.5127
16836SOL    HW154424   2.854   8.679   2.695  0.7807 -0.0182  0.7715
16836SOL    HW254425   2.791   8.563   2.621  0.1431  1.3747 -0.9554
16837SOL     OW54426   1.541   9.698   7.975 -0.5139 -0.0716  0.6058
16837SOL    HW154427   1.496   9.636   7.917  0.4299 -0.0132 -0.2118
16837SOL    HW254428   1.614   9.731   7.923 -0.0678  0.5380  1.5895
16838SOL     OW54429   7.478   9.276   6.033  0.0234 -0.2646  0.3349
16838SOL    HW154430   7.493   9.365   6.001  0.4206 -0.0871  1.0011
16838SOL    HW254431   7.383   9.272   6.046  0.0752  0.2828  0.9234
16839SOL     OW54432   1.178   7.131   4.729  0.3488  0.5401 -0.4720
16839SOL    HW154433   1.194   7.221   4.756  0.1162  0.4806 -0.1322
16839SOL    HW254434   1.157   7.085   4.810  2.7736 -0.3474 -0.2590
16840SOL     OW54435   2.141   1.236   3.676 -0.3685  0.4405 -0.4851
16840SOL    HW154436   2.104   1.223   3.588  0.1150  1.8715 -0.9156
16840SOL    HW254437   2.228   1.275   3.660  1.4585 -2.8298  0.4799
16841SOL     OW54438   5.090   3.351   6.361  0.0902  0.0588  0.0333
16841SOL    HW154439   5.163   3.349   6.299  0.0473  1.7876 -0.1128
16841SOL    HW254440   5.128   3.385   6.442 -0.0786 -1.2158  0.6734
16842SOL     OW54441   1.260   1.718   6.895 -0.3517 -0.3136  0.0591
16842SOL    HW154442   1.294   1.698   6.982 -1.1189 -0.6551  0.2813
16842SOL    HW254443   1.218   1.803   6.904 -1.5256 -0.9050  0.3351
16843SOL     OW54444   9.556   2.726   2.166  0.6602 -0.1001  0.0146
16843SOL    HW154445   9.486   2.664   2.188  0.9045 -0.5991 -0.5611
16843SOL    HW254446   9.517   2.812   2.178 -0.8131 -0.3392 -2.4293
16844SOL     OW54447   9.958   7.169   6.714 -0.5588  1.0757 -0.5740
16844SOL    HW154448   9.995   7.102   6.657 -0.1531  0.1844  0.6757
16844SOL    HW254449  10.023   7.239   6.715  1.9785 -0.9841  2.5807
16845SOL     OW54450   0.782   1.589   8.368  0.9246 -0.1576 -0.6752
16845SOL    HW154451   0.785   1.502   8.408  0.2673 -0.8852 -2.1492
16845SOL    HW254452   0.690   1.600   8.342  0.5204  1.8544  1.2947
16846SOL     OW54453   6.188   3.865   8.244  0.3061 -0.3175  0.3257
16846SOL    HW154454   6.157   3.880   8.333  0.4289 -1.0367  0.5017
16846SOL    HW254455   6.121   3.808   8.205  0.4556 -0.3380  0.0984
16847SOL     OW54456   5.220   6.001   0.367  0.0890  0.0501  0.3768
16847SOL    HW154457   5.133   6.011   0.328 -0.1342 -0.4163  0.7426
16847SOL    HW254458   5.228   6.075   0.427 -0.7891 -0.8510  1.6691
16848SOL     OW54459   5.693   9.604   7.523 -0.1959 -0.6950  0.4913
16848SOL    HW154460   5.653   9.543   7.461  0.2979  1.5885 -2.2932
16848SOL    HW254461   5.783   9.571   7.534 -0.3608 -1.2631  0.1884
16849SOL     OW54462   8.137   7.644   6.629  0.4408  0.2434  0.2501
16849SOL    HW154463   8.171   7.573   6.685  1.4789  0.1475 -0.4877
16849SOL    HW254464   8.109   7.711   6.691 -0.7242 -0.8536  0.9846
16850SOL     OW54465   6.057   0.851   3.200  0.7043 -0.0548  0.1095
16850SOL    HW154466   5.978   0.837   3.251  0.2672  1.7487 -0.0184
16850SOL    HW254467   6.107   0.770   3.211 -0.8422 -0.9709  0.7220
16851SOL     OW54468   8.322   8.661   5.561 -0.2159 -0.3030  0.2550
16851SOL    HW154469   8.371   8.582   5.583 -0.6449 -0.5421  0.3784
16851SOL    HW254470   8.387   8.731   5.560  0.4555 -0.8997 -1.3944
16852SOL     OW54471   9.997   7.258   0.951 -0.3391 -0.6426  0.0514
16852SOL    HW154472  10.060   7.232   0.885 -0.8024  0.0554 -0.6892
16852SOL    HW254473  10.049   7.301   1.019 -0.0005 -0.1435 -0.5172
16853SOL     OW54474   5.144   1.761  10.138  0.0356 -0.0715  0.3388
16853SOL    HW154475   5.148   1.692  10.205  0.4085 -0.6834 -0.2948
16853SOL    HW254476   5.234   1.793  10.132 -0.1244  0.4268  0.5788
16854SOL     OW54477   2.317   2.925   2.345  0.1938 -0.3703 -0.3477
16854SOL    HW154478   2.410   2.905   2.339  0.5001  1.2455 -1.7994
16854SOL    HW254479   2.276   2.870   2.278 -0.1990 -2.3662  1.4309
16855SOL     OW54480   5.831   5.968   3.093  0.0892 -0.5562 -0.2936
16855SOL    HW154481   5.812   6.062   3.083  0.4271 -0.2505  1.5477
16855SOL    HW254482   5.917   5.956   3.054 -0.4146 -0.3282 -1.5014
16856SOL     OW54483   4.750   9.157   0.828 -0.0165 -0.1928  0.4981
16856SOL    HW154484   4.814   9.123   0.765 -0.8127 -0.7218 -0.0277
16856SOL    HW254485   4.728   9.244   0.795 -1.1594 -0.8463 -0.5049
16857SOL     OW54486   6.088   9.487   2.250  0.4106 -0.0701 -0.0216
16857SOL    HW154487   6.044   9.565   2.215 -1.3693  0.2782  2.6906
16857SOL    HW254488   6.052   9.415   2.200 -2.9178  0.2866  1.6172
16858SOL     OW54489   2.301   3.556   0.881  0.0340  0.7362 -0.1281
16858SOL    HW154490   2.299   3.530   0.973  0.1333  0.9950 -0.0501
16858SOL    HW254491   2.282   3.476   0.833  2.0160  0.1402  0.0291
16859SOL     OW54492   0.507   1.871   3.669  0.0505  0.7298  0.3952
16859SOL    HW154493   0.502   1.785   3.627  0.4543  0.4536  0.9063
16859SOL    HW254494   0.581   1.914   3.627  0.6077  0.3602  0.9873
16860SOL     OW54495   1.259   0.555   9.076  0.2038 -0.1059 -0.0550
16860SOL    HW154496   1.277   0.605   9.156  0.5219 -0.7827  0.3054
16860SOL    HW254497   1.331   0.578   9.016 -0.5163  1.0851 -0.4865
16861SOL     OW54498   5.448   0.781   8.895 -0.1076  0.7331 -0.2426
16861SOL    HW154499   5.480   0.768   8.806  0.6604  1.2631 -0.0489
16861SOL    HW254500   5.360   0.743   8.894  0.2791 -0.2000 -0.9464
16862SOL     OW54501   9.227   0.317   3.088 -0.6879  0.7015  0.8557
16862SOL    HW154502   9.178   0.319   3.006 -2.2304 -0.5589  1.7002
16862SOL    HW254503   9.294   0.385   3.078 -0.0232 -0.2486 -1.9106
16863SOL     OW54504   0.497   1.674   5.254 -0.0455  0.1242 -0.6025
16863SOL    HW154505   0.559   1.737   5.217  0.0800  0.0860 -0.4540
16863SOL    HW254506   0.548   1.623   5.316 -0.3951  0.5816  0.0749
16864SOL     OW54507   4.190   7.366   5.505  0.3445  0.0137  0.1294
16864SOL    HW154508   4.129   7.343   5.575  0.5882 -0.9157  0.0423
16864SOL    HW254509   4.261   7.413   5.549  0.2772 -0.1705  0.4339
16865SOL     OW54510   3.254   8.163   9.896 -0.1228 -0.2354  0.0217
16865SOL    HW154511   3.162   8.184   9.883  0.2266  0.3007 -1.8791
16865SOL    HW254512   3.280   8.117   9.816  2.1060  2.7215 -1.1190
16866SOL     OW54513   2.289   9.428   5.867 -0.4434  0.4690  0.1301
16866SOL    HW154514   2.319   9.398   5.781 -2.1371  0.2002 -0.3955
16866SOL    HW254515   2.269   9.347   5.914 -1.2782  0.6564  0.1048
16867SOL     OW54516   0.297   0.035   3.104 -0.1444 -0.1968  0.1281
16867SOL    HW154517   0.308  -0.058   3.082 -1.7480 -0.7251  1.3390
16867SOL    HW254518   0.222   0.036   3.164  0.4885  1.7797  0.9418
16868SOL     OW54519   7.206   3.458   3.892  0.0989  0.2248  0.1368
16868SOL    HW154520   7.113   3.461   3.912  0.5998  0.5084  2.7035
16868SOL    HW254521   7.233   3.550   3.888  0.6990  0.1506  1.8440
16869SOL     OW54522   9.972   8.860   8.792 -0.4502  0.3342  0.2930
16869SOL    HW154523   9.927   8.922   8.849 -1.6496 -1.3460  1.2781
16869SOL    HW254524  10.022   8.914   8.731  0.3349  2.2422  2.4779
16870SOL     OW54525   8.343   7.471   7.648  0.1159 -0.1717 -0.0581
16870SOL    HW154526   8.363   7.512   7.564 -1.2616  0.8752  0.1020
16870SOL    HW254527   8.390   7.524   7.712  0.3352 -0.3453 -0.0756
16871SOL     OW54528   2.749   9.265   2.900 -0.2756  0.7347 -0.2465
16871SOL    HW154529   2.825   9.282   2.845 -0.7241 -0.5548 -1.3096
16871SOL    HW254530   2.683   9.327   2.871  0.2933  1.7719  0.5935
16872SOL     OW54531   5.047   3.218   6.727 -0.3255  0.4609 -0.2073
16872SOL    HW154532   5.041   3.283   6.797  1.1832  1.1010 -0.6412
16872SOL    HW254533   5.123   3.164   6.751 -0.7073 -0.2683 -0.5928
16873SOL     OW54534  10.176   5.045   7.154 -0.1333  0.2055 -0.0581
16873SOL    HW154535  10.201   5.003   7.236 -1.4298  1.5557  1.0767
16873SOL    HW254536  10.260   5.063   7.110  0.6106 -0.0687  1.1923
16874SOL     OW54537   5.650   2.563   8.905 -0.1987 -0.0965 -0.0208
16874SOL    HW154538   5.663   2.474   8.939 -0.4186  0.1264  0.6642
16874SOL    HW254539   5.557   2.581   8.920 -0.5903 -0.4352 -1.8455
16875SOL     OW54540   1.179   7.033   4.017 -0.3521 -0.3899 -0.4634
16875SOL    HW154541   1.130   7.093   4.073  2.3892  1.6348 -0.0261
16875SOL    HW254542   1.134   7.036   3.933 -0.9095  1.5080 -0.1341
16876SOL     OW54543   7.154   6.322   0.432  0.0614 -0.4866  0.0439
16876SOL    HW154544   7.155   6.418   0.430 -1.7671 -0.4183  0.5332
16876SOL    HW254545   7.155   6.296   0.340  0.5131 -0.0084 -0.0909
16877SOL     OW54546   3.016   7.489   5.383 -0.3139  0.3198  0.3361
16877SOL    HW154547   2.972   7.574   5.384  0.4665  0.7247  0.7320
16877SOL    HW254548   3.109   7.510   5.381 -0.1308 -0.5323 -0.8243
16878SOL     OW54549   5.674   4.857   6.752  0.3733 -0.5302  0.3239
16878SOL    HW154550   5.677   4.929   6.689  2.7399 -0.8219 -0.0109
16878SOL    HW254551   5.683   4.899   6.837 -0.8183 -0.2791  0.3413
16879SOL     OW54552   4.404   5.606   9.677 -0.1995 -0.3691 -0.2730
16879SOL    HW154553   4.415   5.687   9.627  0.4747  0.5249  1.2457
16879SOL    HW254554   4.313   5.609   9.709  0.1561  0.3987  0.7335
16880SOL     OW54555   4.056   2.716   9.643 -0.2241  0.7092  0.0155
16880SOL    HW154556   4.072   2.725   9.549 -0.8368 -0.5305 -0.2297
16880SOL    HW254557   3.996   2.788   9.664  0.6280  1.5464 -0.3410
16881SOL     OW54558   9.055   0.457   5.650  0.0825 -0.1115  0.8483
16881SOL    HW154559   8.979   0.455   5.709 -0.3814  0.8758  0.3017
16881SOL    HW254560   9.110   0.528   5.683 -0.3354  0.6615 -0.0766
16882SOL     OW54561   1.150   6.625   3.439  0.2926 -0.3920  0.0394
16882SOL    HW154562   1.143   6.703   3.496 -0.3312 -0.3326 -0.1176
16882SOL    HW254563   1.244   6.610   3.433  0.3929 -0.0990  0.6893
16883SOL     OW54564   0.096   7.791  10.183  0.2208 -0.2883 -0.1970
16883SOL    HW154565   0.066   7.882  10.191  0.4095 -0.0409 -1.8248
16883SOL    HW254566   0.094   7.774  10.089  0.9558 -1.7197  0.0175
16884SOL     OW54567   8.638   1.209   6.273 -0.5510 -0.1318  0.2530
16884SOL    HW154568   8.698   1.179   6.204 -0.6458  0.0358  0.0972
16884SOL    HW254569   8.689   1.200   6.354  0.5079  2.1704 -0.0904
16885SOL     OW54570   6.208   9.022   8.976 -0.6188 -0.7035  0.0556
16885SOL    HW154571   6.207   9.113   9.005  1.0112  0.2103 -2.3857
16885SOL    HW254572   6.294   9.010   8.936 -1.8861 -2.3543 -2.4802
16886SOL     OW54573   0.286   9.107   6.149 -0.0446  0.1179 -0.4170
16886SOL    HW154574   0.244   9.029   6.186  1.8038 -0.2901  0.9450
16886SOL    HW254575   0.218   9.146   6.094 -1.1727 -2.1878 -0.8006
16887SOL     OW54576   7.286   5.174   6.166  0.0622  0.1053 -0.2514
16887SOL    HW154577   7.376   5.140   6.162  0.0216 -0.2637  1.3983
16887SOL    HW254578   7.277   5.227   6.087  1.7907  0.2960 -0.3546
16888SOL     OW54579   2.886   5.603   9.302 -0.3474 -0.2036  0.2717
16888SOL    HW154580   2.811   5.661   9.304  0.1539  0.4995 -0.5918
16888SOL    HW254581   2.908   5.594   9.209  0.0418 -1.1786  0.4384
16889SOL     OW54582   0.422   1.320   2.827 -0.1408 -1.0724  0.1784
16889SOL    HW154583   0.433   1.414   2.815 -0.2813 -0.8522  1.5926
16889SOL    HW254584   0.420   1.284   2.738  1.9709  0.0044 -0.3615
16890SOL     OW54585   3.603   9.121   7.821 -0.4853  0.0843  0.5113
16890SOL    HW154586   3.533   9.182   7.799  0.2810  0.5882 -0.6444
16890SOL    HW254587   3.594   9.050   7.757 -1.5815 -1.2302  2.0573
16891SOL     OW54588   4.716   4.940   9.546  0.1238  0.6473  0.0022
16891SOL    HW154589   4.685   4.951   9.636 -0.7001  1.0119 -0.3160
16891SOL    HW254590   4.811   4.928   9.555  0.0942  0.9643  0.8961
16892SOL     OW54591   3.645   6.384   0.197  0.5692 -0.7839 -0.2121
16892SOL    HW154592   3.719   6.402   0.139  0.0075  0.6161 -0.5466
16892SOL    HW254593   3.627   6.468   0.239 -0.0497 -1.4030  0.8007
16893SOL     OW54594   4.526   6.232   6.272  0.0624  0.1156  0.0543
16893SOL    HW154595   4.500   6.145   6.305  3.8130 -0.3381  2.4881
16893SOL    HW254596   4.516   6.289   6.348 -0.3786  1.3907 -0.9397
16894SOL     OW54597   0.952   3.860   3.233 -0.3162  0.1735 -0.2512
16894SOL    HW154598   0.861   3.849   3.206 -0.0311  1.1597 -1.7225
16894SOL    HW254599   0.983   3.935   3.182  0.9341  0.7308  1.2350
16895SOL     OW54600   6.543   7.066   5.909  0.0725 -0.5875 -0.1829
16895SOL    HW154601   6.462   7.072   5.960  0.7576 -1.8957  1.1285
16895SOL    HW254602   6.571   7.156   5.897 -1.4667 -0.1136 -0.5248
16896SOL     OW54603   7.429   4.340   4.109  0.3335 -0.1765  0.1695
16896SOL    HW154604   7.471   4.275   4.053 -0.0220 -0.1353 -0.1396
16896SOL    HW254605   7.370   4.290   4.165  1.2268 -0.3108  1.0205
16897SOL     OW54606   2.604   3.887   6.523 -0.0893  0.0465 -0.2480
16897SOL    HW154607   2.686   3.935   6.518 -0.7463  1.4432  1.3092
16897SOL    HW254608   2.625   3.808   6.574  0.2617  0.4954  0.3185
16898SOL     OW54609   0.011   4.451   1.550 -0.2227  0.1670 -0.6757
16898SOL    HW154610   0.097   4.491   1.562 -1.1655  1.7961  1.4051
16898SOL    HW254611  -0.051   4.524   1.561 -1.9211 -1.2740 -0.0589
16899SOL     OW54612   9.659   3.358   8.184 -0.4152  0.3103 -0.0905
16899SOL    HW154613   9.708   3.439   8.192 -1.7461  1.0913  0.3642
16899SOL    HW254614   9.654   3.342   8.090  1.5109 -0.3144 -0.1249
16900SOL     OW54615   8.861   1.182   1.198  0.0241  0.4610  1.0928
16900SOL    HW154616   8.848   1.250   1.132 -0.2028  0.6756  1.3574
16900SOL    HW254617   8.773   1.150   1.218  0.0565  0.6682  1.5751
16901SOL     OW54618   2.555   2.705   4.090 -0.3804 -0.5522  0.1580
16901SOL    HW154619   2.479   2.648   4.084 -1.1780  0.5832 -0.9664
16901SOL    HW254620   2.599   2.695   4.006  0.6245 -1.0534  0.7290
16902SOL     OW54621   2.656   0.463   3.542 -0.1293 -0.1693  0.2767
16902SOL    HW154622   2.685   0.412   3.466  1.4104  1.5891 -0.3946
16902SOL    HW254623   2.698   0.420   3.616 -0.8723 -1.3356  0.0489
16903SOL     OW54624   3.918   0.214   2.358  0.0113  0.0013  0.2195
16903SOL    HW154625   3.950   0.296   2.395  1.2305 -0.4720  0.2442
16903SOL    HW254626   3.871   0.240   2.279  1.2210  0.6589 -0.3140
16904SOL     OW54627   5.686   5.271   0.399 -0.5068 -0.2320 -0.0100
16904SOL    HW154628   5.598   5.241   0.375 -0.9485  1.3196 -0.4458
16904SOL    HW254629   5.700   5.236   0.487 -1.2032 -1.2160 -0.2767
16905SOL     OW54630   2.844   0.896   6.578 -0.1727 -0.5035  0.6005
16905SOL    HW154631   2.791   0.915   6.656  0.0890  0.8552  0.4765
16905SOL    HW254632   2.900   0.974   6.568 -0.5874 -0.4146 -1.2610
16906SOL     OW54633   2.230   6.970   8.013  0.0754  0.2908  0.5565
16906SOL    HW154634   2.161   7.022   7.972  0.2777  0.9575  1.0343
16906SOL    HW254635   2.302   7.032   8.027  1.2217 -0.6263 -0.9284
16907SOL     OW54636   2.733   0.504   4.411 -0.0901  0.0865 -0.5253
16907SOL    HW154637   2.755   0.416   4.379  0.8890  0.7396 -1.6892
16907SOL    HW254638   2.642   0.517   4.384 -0.7966 -1.1685  1.0619
16908SOL     OW54639   0.409   8.410   4.637  0.0762  0.3459 -0.4487
16908SOL    HW154640   0.437   8.453   4.555  0.8590 -0.3430 -0.5585
16908SOL    HW254641   0.380   8.482   4.693 -0.5451  0.8230 -1.3567
16909SOL     OW54642   3.246   5.680   6.100  0.2178  0.1287  0.5766
16909SOL    HW154643   3.322   5.631   6.130  1.0151  1.3523  0.6177
16909SOL    HW254644   3.218   5.635   6.020  0.7751 -0.5205  0.7406
16910SOL     OW54645   7.686   1.031   9.775  0.4141  0.1474 -0.3912
16910SOL    HW154646   7.607   0.980   9.795 -0.4863  0.1448 -3.5227
16910SOL    HW254647   7.668   1.118   9.811 -1.4296  0.3794 -1.7272
16911SOL     OW54648   4.054  10.182   5.259 -0.0696 -0.1678  0.2052
16911SOL    HW154649   4.111  10.240   5.210 -1.1419 -0.0033 -0.8816
16911SOL    HW254650   4.020  10.120   5.195 -0.3480 -0.8857  1.0126
16912SOL     OW54651   5.336   9.861   7.574 -0.0665 -0.6024 -0.2194
16912SOL    HW154652   5.368   9.793   7.632  1.9645  0.6143  0.1772
16912SOL    HW254653   5.398   9.862   7.501  0.1085  0.9834 -0.0781
16913SOL     OW54654   5.240   9.794   0.954 -0.0825  0.2144  1.1257
16913SOL    HW154655   5.230   9.731   0.883 -2.2503  1.5992  0.0974
16913SOL    HW254656   5.285   9.868   0.913  0.9947  0.0114  1.9060
16914SOL     OW54657   4.559   6.447  10.192  0.2322  0.5618  0.0362
16914SOL    HW154658   4.604   6.429  10.274  1.2304 -0.2682 -0.6727
16914SOL    HW254659   4.495   6.516  10.214 -1.7795 -1.7987  2.2327
16915SOL     OW54660   4.378   3.401   9.865  0.2281  0.1396 -0.7781
16915SOL    HW154661   4.405   3.394   9.957  2.2610 -0.8663 -1.3868
16915SOL    HW254662   4.348   3.313   9.843 -0.7778  0.5166 -0.9512
16916SOL     OW54663   9.797   6.804   8.068 -0.0635 -0.3176 -0.6415
16916SOL    HW154664   9.890   6.826   8.071 -0.5498  2.2036 -1.2968
16916SOL    HW254665   9.753   6.883   8.101 -2.0095 -1.0331 -1.3902
16917SOL     OW54666   5.834   9.822   0.473 -0.7456 -0.4946  0.0881
16917SOL    HW154667   5.901   9.760   0.501  0.4571  1.0815  0.8768
16917SOL    HW254668   5.775   9.830   0.548 -0.9881 -0.8031 -0.0704
16918SOL     OW54669   6.504   2.922   1.131  0.0077 -0.1033 -0.3478
16918SOL    HW154670   6.580   2.891   1.181  0.2003  0.8318 -0.0364
16918SOL    HW254671   6.521   2.895   1.041  1.9415  2.1942 -0.7719
16919SOL     OW54672   0.141   8.494   0.847  0.6932  0.5174  0.2167
16919SOL    HW154673   0.175   8.563   0.791 -0.3853 -0.3589 -1.6036
16919SOL    HW254674   0.046   8.510   0.850  0.2798 -1.3670 -1.0331
16920SOL     OW54675   2.025   5.035   2.670  0.3438 -0.0826 -0.9333
16920SOL    HW154676   2.045   4.951   2.711  1.2217  0.5414 -0.0251
16920SOL    HW254677   1.976   5.083   2.737 -0.0079  0.2076 -1.3867
16921SOL     OW54678   4.554   4.569   3.790  0.0818  0.3440 -0.0326
16921SOL    HW154679   4.526   4.569   3.698  1.4199 -1.1139 -0.4822
16921SOL    HW254680   4.650   4.572   3.785  0.1447  2.0632  1.3750
16922SOL     OW54681   6.280   3.943   4.031 -0.2877 -0.0074  0.7260
16922SOL    HW154682   6.372   3.944   4.007 -0.7835  0.7287 -1.3709
16922SOL    HW254683   6.280   3.940   4.127  1.9007  0.8783  0.8115
16923SOL     OW54684   9.566   1.505   3.062  0.2464  0.0814 -0.8835
16923SOL    HW154685   9.598   1.557   2.989  0.5987 -0.4627 -1.1248
16923SOL    HW254686   9.521   1.431   3.021  0.5839 -0.3124 -0.5644
16924SOL     OW54687   1.416   8.276   8.058 -0.4200 -0.6752 -0.4164
16924SOL    HW154688   1.505   8.241   8.060  0.8931  2.4171 -0.2800
16924SOL    HW254689   1.387   8.273   8.150 -1.1475 -3.0333 -0.6374
16925SOL     OW54690   4.224   3.227   3.125 -0.1606 -0.1180 -0.3371
16925SOL    HW154691   4.178   3.149   3.095  0.7292  0.1242 -2.5169
16925SOL    HW254692   4.165   3.267   3.188 -1.1621 -1.8986 -0.0807
16926SOL     OW54693   0.491  10.105   1.332 -0.4620 -0.0543  0.6657
16926SOL    HW154694   0.544  10.113   1.253 -1.0599 -0.3331  0.2252
16926SOL    HW254695   0.506  10.016   1.362 -2.0142 -0.7394 -0.4600
16927SOL     OW54696   9.647   7.537   8.699  0.4787 -0.1013  0.0966
16927SOL    HW154697   9.699   7.530   8.619 -0.5690 -0.3795 -0.5902
16927SOL    HW254698   9.560   7.507   8.673 -0.0442  0.4112  1.1922
16928SOL     OW54699   6.843   9.797   4.667 -0.3899 -0.3981  0.2727
16928SOL    HW154700   6.762   9.766   4.706  0.1251  0.1585  1.8612
16928SOL    HW254701   6.912   9.766   4.726  0.9291 -3.4999 -2.5803
16929SOL     OW54702   1.465   2.388   3.062  0.4614  0.4134  0.4505
16929SOL    HW154703   1.378   2.365   3.029  1.3989 -1.5683 -0.8160
16929SOL    HW254704   1.450   2.414   3.153 -1.2599 -1.5845  0.8143
16930SOL     OW54705   0.262   5.413   0.248  0.3696 -0.2684  0.2114
16930SOL    HW154706   0.241   5.347   0.314 -2.2305 -0.0981 -0.3361
16930SOL    HW254707   0.278   5.362   0.168 -0.0840 -0.3288  0.1542
16931SOL     OW54708   7.913   0.872   8.333  0.3741 -0.7544 -0.2184
16931SOL    HW154709   7.845   0.812   8.362 -0.7394  0.9779  0.9570
16931SOL    HW254710   7.903   0.875   8.238  1.0765 -3.0802 -0.4101
16932SOL     OW54711   6.774   9.009   9.104  0.0362  0.3360 -0.1164
16932SOL    HW154712   6.855   9.021   9.056 -0.7605  2.2617 -1.1267
16932SOL    HW254713   6.770   9.084   9.164 -0.2000 -0.6539  1.1447
16933SOL     OW54714   9.544   3.802   1.311 -0.4014 -0.3829 -0.1817
16933SOL    HW154715   9.528   3.825   1.219 -0.3745 -0.2433 -0.1525
16933SOL    HW254716   9.493   3.866   1.360  0.8240  0.5406 -0.0715
16934SOL     OW54717   9.274   0.224   5.883  0.2247 -0.1859 -0.1235
16934SOL    HW154718   9.205   0.290   5.884 -0.4284 -0.8569  0.1930
16934SOL    HW254719   9.345   0.262   5.935 -1.1110 -0.7072  2.2729
16935SOL     OW54720   5.684   3.254   9.271 -0.6529 -0.3107 -0.1169
16935SOL    HW154721   5.641   3.256   9.186  1.1911  0.6809 -1.1076
16935SOL    HW254722   5.758   3.314   9.261  0.5046 -1.3470  1.6991
16936SOL     OW54723   4.513   6.472   2.194  0.1701 -0.4538  0.0792
16936SOL    HW154724   4.497   6.521   2.113 -0.5305 -1.8614 -0.6655
16936SOL    HW254725   4.565   6.532   2.248  0.9443  0.3970 -1.5287
16937SOL     OW54726   5.225   2.886   4.667  0.1420  0.0082  0.2402
16937SOL    HW154727   5.239   2.824   4.595 -2.5822  1.2385 -1.5510
16937SOL    HW254728   5.145   2.855   4.709 -0.4270  1.4431  0.2617
16938SOL     OW54729   4.105   1.921   1.221  0.2401  0.0449 -0.2861
16938SOL    HW154730   4.064   1.963   1.296  0.5135  1.7927 -1.0636
16938SOL    HW254731   4.037   1.864   1.185 -0.3457  0.2561  0.4557
16939SOL     OW54732   0.822   4.399   3.302  0.4863  0.3342  0.5989
16939SOL    HW154733   0.791   4.335   3.365 -0.0043  1.8761  1.9995
16939SOL    HW254734   0.915   4.380   3.293  0.3805 -0.4732  1.1011
16940SOL     OW54735   5.728   5.748   5.171  0.3363 -0.1564 -0.0701
16940SOL    HW154736   5.819   5.747   5.142 -0.1049 -1.0299 -1.5175
16940SOL    HW254737   5.696   5.834   5.145  0.3445 -0.3980 -0.8851
16941SOL     OW54738   3.963   3.916   5.988 -0.0931  0.1257  0.0486
16941SOL    HW154739   4.016   3.955   5.919 -0.6635  0.7307 -0.0551
16941SOL    HW254740   4.017   3.845   6.022 -0.3662 -1.0775 -1.9270
16942SOL     OW54741   6.155   0.248   9.828 -0.2670 -0.1525  0.1453
16942SOL    HW154742   6.205   0.315   9.782 -0.6770 -0.6569 -1.0755
16942SOL    HW254743   6.181   0.165   9.788 -0.6499 -0.6060  0.8074
16943SOL     OW54744   5.521   0.780   0.093 -0.0282 -0.4738  0.1738
16943SOL    HW154745   5.488   0.853   0.040 -0.5172 -0.0413  1.0588
16943SOL    HW254746   5.459   0.774   0.166 -0.0257 -1.8223  0.0788
16944SOL     OW54747   7.704   8.022   7.148 -0.1538 -0.1491 -0.1212
16944SOL    HW154748   7.666   7.935   7.137 -0.8746 -0.0282  1.2138
16944SOL    HW254749   7.644   8.067   7.208  0.2043  1.2676 -0.7800
16945SOL     OW54750   5.701   0.217   0.503 -0.0629 -0.7085  0.5799
16945SOL    HW154751   5.687   0.124   0.486 -0.2415 -0.7627  0.9923
16945SOL    HW254752   5.691   0.259   0.418  0.0865 -1.0738  0.3807
16946SOL     OW54753   1.434   6.439   8.032  0.3129 -0.4186 -0.2825
16946SOL    HW154754   1.345   6.471   8.019 -0.1299 -1.3514  0.2847
16946SOL    HW254755   1.483   6.514   8.066 -0.5318 -0.1880  0.4433
16947SOL     OW54756   5.372   1.792   7.363  0.3686 -0.1349 -0.0438
16947SOL    HW154757   5.405   1.711   7.325 -0.4018  0.2741 -1.6760
16947SOL    HW254758   5.433   1.859   7.332  0.1354  0.1140  0.0328
16948SOL     OW54759   9.061   4.150   2.056 -0.1521  0.3798 -0.1294
16948SOL    HW154760   9.050   4.085   2.126  0.9531 -0.0629 -0.3332
16948SOL    HW254761   9.115   4.105   1.990  0.6787  1.5129 -0.2546
16949SOL     OW54762   8.392   1.847   2.996 -0.0911 -0.1886  0.8020
16949SOL    HW154763   8.471   1.891   2.967  0.3083 -1.0093  0.6099
16949SOL    HW254764   8.328   1.865   2.928  0.6600 -1.5807 -0.3090
16950SOL     OW54765   6.004   2.972   3.036  0.0949 -0.2738  0.6504
16950SOL    HW154766   6.070   3.002   3.099  1.9371 -0.9056 -0.8736
16950SOL    HW254767   5.988   3.047   2.980 -0.6040 -0.0854  1.0913
16951SOL     OW54768   3.741   4.034   8.153 -0.6781  0.1633 -0.3673
16951SOL    HW154769   3.817   4.031   8.211 -1.2969  0.0406  0.4491
16951SOL    HW254770   3.772   3.993   8.072  0.7197  1.9186 -0.7819
16952SOL     OW54771   5.413   5.071   2.380 -0.5102  0.1486  0.8272
16952SOL    HW154772   5.451   4.986   2.403 -1.5578 -0.1519  1.5257
16952SOL    HW254773   5.448   5.131   2.446 -0.7382  0.0034  1.0838
16953SOL     OW54774   1.343   8.474   6.896 -0.3007  0.1150 -0.0921
16953SOL    HW154775   1.400   8.466   6.820 -0.8088 -0.1106 -0.4515
16953SOL    HW254776   1.256   8.489   6.860 -0.3503  1.2634  0.4616
16954SOL     OW54777   2.605   8.428   9.398  0.2431 -0.1472  0.7259
16954SOL    HW154778   2.610   8.521   9.374 -0.9241  0.0048  1.0601
16954SOL    HW254779   2.661   8.421   9.475  1.1074  0.0789  0.1372
16955SOL     OW54780   5.844   0.796   6.068  0.4853  0.3128  0.1536
16955SOL    HW154781   5.821   0.704   6.082 -1.1438  0.6919  0.0889
16955SOL    HW254782   5.913   0.813   6.133  0.5883 -0.8503  0.3805
16956SOL     OW54783   1.624   8.077   9.067 -0.0644  0.1230  0.0875
16956SOL    HW154784   1.664   8.128   8.996 -1.5053  0.7621 -0.2832
16956SOL    HW254785   1.584   8.002   9.023  1.3106 -0.9157  0.5412
16957SOL     OW54786   7.760   6.029   5.866 -0.3284  0.5769  0.1484
16957SOL    HW154787   7.746   5.953   5.923 -0.0516  0.1028 -0.3992
16957SOL    HW254788   7.791   6.098   5.924  0.0828  0.0588  0.5584
16958SOL     OW54789   4.645   8.871   3.691  0.0105 -0.2645  0.2523
16958SOL    HW154790   4.590   8.804   3.732 -1.4340  1.2576  0.9554
16958SOL    HW254791   4.660   8.935   3.761  1.0067  0.3425 -0.4965
16959SOL     OW54792   9.809   4.980   1.545  0.2575 -0.5813 -0.3296
16959SOL    HW154793   9.833   4.939   1.628  2.4694 -0.5177 -0.8607
16959SOL    HW254794   9.888   5.028   1.519 -2.2572  4.8963  0.6813
16960SOL     OW54795   7.852   3.471   3.976 -0.0086 -0.1908  0.2264
16960SOL    HW154796   7.911   3.404   4.011 -1.4144 -1.1929  0.7781
16960SOL    HW254797   7.771   3.461   4.026 -1.5900 -0.6484 -2.2227
16961SOL     OW54798   7.132   7.716   8.616  0.3422  0.1458 -0.2883
16961SOL    HW154799   7.056   7.662   8.595  1.1076 -0.7855 -0.8145
16961SOL    HW254800   7.181   7.720   8.534  0.7370  0.9208 -0.0176
16962SOL     OW54801   7.175   7.127   4.783 -0.0297 -0.0459  0.0752
16962SOL    HW154802   7.152   7.172   4.864 -0.6320  0.6483 -0.4693
16962SOL    HW254803   7.215   7.195   4.729  0.5424 -0.5519 -0.1409
16963SOL     OW54804   0.389   4.226   5.891  0.0127 -0.5074 -0.3517
16963SOL    HW154805   0.325   4.258   5.827 -1.2018 -1.5347  0.3090
16963SOL    HW254806   0.409   4.303   5.945 -1.4477 -0.3782  0.0596
16964SOL     OW54807   3.230   3.247   0.528 -0.2548  0.4442 -0.3735
16964SOL    HW154808   3.203   3.329   0.485  0.2034  0.2255 -1.1012
16964SOL    HW254809   3.272   3.276   0.609  1.3009  1.0511 -1.3409
16965SOL     OW54810   7.443   0.424   3.491  0.1316  0.0128  0.0372
16965SOL    HW154811   7.416   0.510   3.523 -1.3405 -0.5347  0.3290
16965SOL    HW254812   7.420   0.425   3.398  0.0002 -0.1242  0.0698
16966SOL     OW54813   8.899   8.568   3.237 -0.6057 -0.2206 -0.0757
16966SOL    HW154814   8.842   8.494   3.218  1.0959 -0.8046 -3.8487
16966SOL    HW254815   8.967   8.533   3.294 -0.5472 -1.2436 -0.7543
16967SOL     OW54816   2.859   6.822   8.318 -0.0295  0.2026  0.6112
16967SOL    HW154817   2.851   6.915   8.341  0.2428  0.5090 -0.4643
16967SOL    HW254818   2.826   6.817   8.228  2.6505 -0.2168 -0.4345
16968SOL     OW54819   9.073   3.538   4.789 -0.0126 -0.2417 -0.2248
16968SOL    HW154820   9.103   3.466   4.733  0.3090 -0.1421 -0.1765
16968SOL    HW254821   9.142   3.550   4.853 -0.0584  0.1249 -0.2412
16969SOL     OW54822   4.583   0.705   6.131 -0.4478 -0.7470 -0.2908
16969SOL    HW154823   4.626   0.740   6.209  0.1359  0.9770 -1.3342
16969SOL    HW254824   4.655   0.686   6.070 -0.9965  0.2387 -1.2902
16970SOL     OW54825   4.005  10.181   8.118 -0.0479 -0.8455  0.1734
16970SOL    HW154826   4.003  10.263   8.068 -0.3930 -0.9020  0.0905
16970SOL    HW254827   3.931  10.188   8.178 -0.7449 -1.5429 -0.5693
16971SOL     OW54828   8.833   4.187   4.432  0.2930 -0.1760 -0.2571
16971SOL    HW154829   8.877   4.155   4.511  0.4621 -0.1329 -0.3356
16971SOL    HW254830   8.899   4.180   4.363 -0.3766 -1.9431 -0.7934
16972SOL     OW54831   5.284   6.555   0.842  0.2588  0.2197  0.0747
16972SOL    HW154832   5.201   6.508   0.845 -1.2775  2.5147 -2.2314
16972SOL    HW254833   5.350   6.486   0.835 -1.4447 -1.6680  1.3417
16973SOL     OW54834   0.521   4.605   3.120  0.2295 -0.2343 -0.7696
16973SOL    HW154835   0.460   4.657   3.171  1.0956 -1.3318  1.4906
16973SOL    HW254836   0.496   4.621   3.029 -1.4441  1.7016 -0.0341
16974SOL     OW54837   1.886   9.236   7.919  1.2515 -0.0561  0.2450
16974SOL    HW154838   1.858   9.327   7.928  0.3163 -0.4728  1.8979
16974SOL    HW254839   1.926   9.232   7.832 -1.6755  1.1661 -1.2987
16975SOL     OW54840   0.925   5.814   1.744  0.1379  0.1081 -0.0912
16975SOL    HW154841   0.902   5.903   1.716 -1.0451  0.1277  0.8676
16975SOL    HW254842   0.963   5.826   1.831  0.5428 -0.2736 -0.2117
16976SOL     OW54843   8.003   3.712   0.024 -0.1618 -0.4269  0.0522
16976SOL    HW154844   8.073   3.673  -0.029 -0.0077 -0.9867  0.6462
16976SOL    HW254845   7.972   3.639   0.079 -0.3200  0.1354  0.7174
16977SOL     OW54846   5.608   3.247   9.012  0.4313  0.1372 -0.1838
16977SOL    HW154847   5.605   3.153   8.993 -0.6023  0.2266 -0.5121
16977SOL    HW254848   5.520   3.278   8.993  0.8022  1.2062 -0.1979
16978SOL     OW54849   9.998   7.145   3.675 -0.6193 -0.2731  0.1899
16978SOL    HW154850   9.993   7.089   3.753  0.2597 -0.8294 -0.1276
16978SOL    HW254851   9.978   7.086   3.602  1.1482 -0.4307 -0.2295
16979SOL     OW54852   6.785   3.087   0.903  0.0827 -0.5969  0.4479
16979SOL    HW154853   6.746   3.001   0.914  0.4892 -0.8446  0.0150
16979SOL    HW254854   6.746   3.121   0.822 -0.8981  0.0936  1.1890
16980SOL     OW54855   6.373   3.513   5.487  0.2143  0.1742  0.1663
16980SOL    HW154856   6.303   3.578   5.485 -2.1295 -2.1505  0.1375
16980SOL    HW254857   6.427   3.537   5.562 -0.0727  2.5370 -0.3199
16981SOL     OW54858   3.133   1.981   5.241 -0.3689  0.0768  0.0879
16981SOL    HW154859   3.111   1.892   5.215 -1.7157  0.3343  0.2909
16981SOL    HW254860   3.137   1.978   5.337 -2.4595  0.6317  0.2477
16982SOL     OW54861   4.785   1.571   4.231 -0.8230 -0.4710 -0.3244
16982SOL    HW154862   4.783   1.620   4.313  0.3344 -0.4026 -0.3178
16982SOL    HW254863   4.867   1.521   4.235 -1.2633 -1.2564 -0.9856
16983SOL     OW54864   7.914   7.704   8.181 -0.4054 -0.8830 -0.3340
16983SOL    HW154865   7.968   7.761   8.125 -2.0155 -1.1431 -2.2694
16983SOL    HW254866   7.840   7.680   8.125 -2.6497 -0.3903  2.2442
16984SOL     OW54867   4.918   6.396   5.885  0.1524 -0.0647 -0.5565
16984SOL    HW154868   4.825   6.401   5.907  0.2001  0.1340 -0.3949
16984SOL    HW254869   4.931   6.462   5.817  0.3244  0.4441 -0.0407
16985SOL     OW54870   9.365   2.937   9.624  0.5648  0.7912  0.2149
16985SOL    HW154871   9.419   2.950   9.546  1.0970  0.3223  0.4990
16985SOL    HW254872   9.318   3.020   9.635 -1.5578 -0.0001 -2.1165
16986SOL     OW54873   0.972   9.291   3.128 -0.4221 -0.1182  0.4419
16986SOL    HW154874   0.948   9.289   3.036  0.5482  0.6999  0.1465
16986SOL    HW254875   0.897   9.253   3.174 -0.0610 -2.5553 -0.8245
16987SOL     OW54876   4.830   5.127   6.479  0.0909  0.4870 -0.0819
16987SOL    HW154877   4.804   5.201   6.424  1.4772  2.0051  1.2163
16987SOL    HW254878   4.812   5.050   6.425 -1.5308  1.7280 -1.4331
16988SOL     OW54879   0.309   6.003   9.805  0.2005 -0.0422  0.4448
16988SOL    HW154880   0.356   6.004   9.888  0.1807  0.0300  0.4548
16988SOL    HW254881   0.303   5.910   9.782  2.5900  0.0145 -0.8328
16989SOL     OW54882   2.731   7.496   6.520  0.1049 -0.4267  0.2899
16989SOL    HW154883   2.746   7.447   6.439  0.6423  0.5612 -0.2336
16989SOL    HW254884   2.643   7.471   6.547 -0.1407 -0.6596 -0.6836
16990SOL     OW54885   2.670   1.956   5.553  0.1684  0.2754  0.0961
16990SOL    HW154886   2.746   1.929   5.502 -0.2607  2.4712 -1.8779
16990SOL    HW254887   2.640   1.876   5.595  0.6084 -1.7375 -3.0848
16991SOL     OW54888   2.352   0.235   7.580 -0.4017 -0.2117  0.5048
16991SOL    HW154889   2.282   0.278   7.630  0.9634  2.7335  0.0968
16991SOL    HW254890   2.367   0.293   7.506  2.0150 -1.1085  0.2126
16992SOL     OW54891   5.516   1.399   5.254  0.3101  0.3941 -0.4615
16992SOL    HW154892   5.455   1.360   5.192  1.1602  0.3216 -1.2711
16992SOL    HW254893   5.472   1.478   5.285 -0.1840  0.3567 -1.0567
16993SOL     OW54894   1.580   8.539   7.567  0.2765  0.2916  0.4578
16993SOL    HW154895   1.530   8.619   7.584  0.4505  0.7919 -1.2336
16993SOL    HW254896   1.519   8.482   7.521  0.4416 -0.1997  0.8344
16994SOL     OW54897   1.178   0.765   5.653  0.4497 -0.0960  0.3663
16994SOL    HW154898   1.197   0.805   5.568  0.5970  0.3244  0.5946
16994SOL    HW254899   1.087   0.735   5.645  0.7270 -0.8110 -0.2234
16995SOL     OW54900   4.125   1.565   3.219 -0.6651  0.5778  0.4063
16995SOL    HW154901   4.098   1.562   3.128  1.1001 -0.2989 -0.1144
16995SOL    HW254902   4.097   1.652   3.249 -2.2050  0.4835 -0.6306
16996SOL     OW54903   7.827   8.220   7.439  0.2982 -0.2215  0.4533
16996SOL    HW154904   7.764   8.211   7.367 -1.4029  2.3646  1.4474
16996SOL    HW254905   7.913   8.216   7.397 -0.5590 -1.6283 -1.2751
16997SOL     OW54906   1.037   1.050   0.433  0.2724 -0.2388 -0.0385
16997SOL    HW154907   0.992   1.124   0.390 -2.0564 -0.6585  1.4986
16997SOL    HW254908   1.009   0.973   0.383 -0.8357 -0.5056  0.9445
16998SOL     OW54909   4.333   2.991   7.112  0.2361  0.1814 -0.3511
16998SOL    HW154910   4.277   3.003   7.035 -0.2835 -0.1924 -0.0368
16998SOL    HW254911   4.378   3.075   7.121 -1.2265  0.9654  0.1271
16999SOL     OW54912   2.446   9.143   6.185  0.2227 -0.2509  0.6232
16999SOL    HW154913   2.503   9.088   6.131 -1.3711 -1.6365  0.2657
16999SOL    HW254914   2.446   9.228   6.141  0.0067 -0.9731 -0.8192
17000SOL     OW54915   2.627  10.158   0.802 -0.3909  0.3259  0.5057
17000SOL    HW154916   2.551  10.215   0.789  0.7885  1.7027 -0.8052
17000SOL    HW254917   2.604  10.076   0.759 -1.1894  0.6715  0.2557
17001SOL     OW54918   6.720   7.255   5.719 -0.1600 -0.6484 -0.1853
17001SOL    HW154919   6.674   7.183   5.676  1.1327 -1.4410 -0.2856
17001SOL    HW254920   6.651   7.304   5.764 -1.4153 -0.4298 -2.2218
17002SOL     OW54921   9.093   4.126   9.792 -0.0569  0.3595  0.4907
17002SOL    HW154922   9.077   4.219   9.804 -0.3932  0.3943 -0.1998
17002SOL    HW254923   9.118   4.094   9.879 -0.5032  0.9788  0.8511
17003SOL     OW54924   5.389   0.892   7.275 -0.1987  0.6140 -0.0522
17003SOL    HW154925   5.429   0.913   7.359  0.8990  1.4180 -0.7604
17003SOL    HW254926   5.447   0.931   7.210 -0.2756 -1.1569 -1.2609
17004SOL     OW54927   8.607   0.212   6.353 -0.2122  0.0587  0.3535
17004SOL    HW154928   8.662   0.139   6.326  0.2459 -0.0053  1.4010
17004SOL    HW254929   8.563   0.182   6.433  2.0882  1.8092  2.4488
17005SOL     OW54930   2.361   4.059   0.399 -0.2836 -0.0660 -0.1929
17005SOL    HW154931   2.422   3.989   0.376 -0.3992  0.2133 -1.4139
17005SOL    HW254932   2.275   4.016   0.404 -0.2018 -0.1971  0.0575
17006SOL     OW54933   1.881   2.552   1.470  0.6723  0.2871 -0.9586
17006SOL    HW154934   1.880   2.536   1.375 -0.3079  0.4523 -0.9823
17006SOL    HW254935   1.856   2.644   1.478 -1.8212 -0.3722 -0.4307
17007SOL     OW54936   2.520   5.437   1.555  0.3110  0.5073  0.1811
17007SOL    HW154937   2.440   5.459   1.602  0.7410  0.7428  0.8074
17007SOL    HW254938   2.490   5.408   1.469 -0.3826  1.7963 -0.0382
17008SOL     OW54939   6.662   8.546   2.963 -0.1368 -0.4212  0.1210
17008SOL    HW154940   6.744   8.548   2.912 -0.4243 -1.6122 -0.4286
17008SOL    HW254941   6.632   8.456   2.955 -0.6408 -0.4185  1.7204
17009SOL     OW54942   6.797   2.968   3.447 -0.0461  0.4079  0.2892
17009SOL    HW154943   6.801   2.905   3.519 -0.8624 -1.3256 -1.0934
17009SOL    HW254944   6.716   3.016   3.462 -1.5649 -1.6736 -0.7302
17010SOL     OW54945   6.391   7.320   8.527  0.2431  0.1959 -0.1565
17010SOL    HW154946   6.366   7.307   8.618  0.3031  0.2452 -0.1326
17010SOL    HW254947   6.345   7.399   8.500  1.1932  0.8988  0.2085
17011SOL     OW54948   9.314   4.926   6.277 -0.4366 -0.5395 -0.2326
17011SOL    HW154949   9.377   4.983   6.234  0.4227 -0.4729  1.0710
17011SOL    HW254950   9.345   4.838   6.258  0.4773 -0.5036  0.9594
17012SOL     OW54951   7.365   9.735   2.580 -0.1039 -0.3430  0.2696
17012SOL    HW154952   7.324   9.768   2.501  3.0303  2.4951 -0.3692
17012SOL    HW254953   7.456   9.720   2.556  0.3864 -1.9420  2.7261
17013SOL     OW54954   2.501   9.840   9.760 -0.1824  0.0089 -0.2818
17013SOL    HW154955   2.544   9.868   9.679  1.0150 -0.8939  0.0067
17013SOL    HW254956   2.572   9.802   9.812 -0.8126  1.0571  1.4296
17014SOL     OW54957   9.953   5.963   1.714  0.5923  0.0429  0.0511
17014SOL    HW154958   9.949   6.044   1.765  0.2226 -1.3755  2.4047
17014SOL    HW254959  10.011   5.906   1.764  0.2498 -1.4209 -1.1664
17015SOL     OW54960   6.312   2.133   6.143  0.1263 -0.6127 -0.5572
17015SOL    HW154961   6.403   2.122   6.171  0.7603 -0.4992 -2.4399
17015SOL    HW254962   6.261   2.083   6.207  1.4191 -0.0574  0.9616
17016SOL     OW54963   4.027   1.978   3.270 -0.3457  0.3017 -0.5007
17016SOL    HW154964   3.980   1.937   3.197  0.1597 -0.9978 -0.1111
17016SOL    HW254965   3.988   1.941   3.349 -0.2978  1.0545 -0.1058
17017SOL     OW54966   1.140   0.751   6.425 -0.0668 -0.2517  0.3097
17017SOL    HW154967   1.119   0.816   6.357  2.4096 -0.6382 -0.9395
17017SOL    HW254968   1.061   0.746   6.478 -1.1780  2.0275 -0.9702
17018SOL     OW54969   7.427   8.820   2.545 -0.2205 -0.8968  0.4390
17018SOL    HW154970   7.368   8.751   2.518  0.0901 -0.8066 -0.4977
17018SOL    HW254971   7.497   8.775   2.592  0.3853 -1.3341 -0.8293
17019SOL     OW54972   2.560   3.591   4.468 -0.2938  0.4860 -0.7104
17019SOL    HW154973   2.489   3.646   4.500  0.6548  1.5415 -0.3209
17019SOL    HW254974   2.634   3.651   4.460  1.3009 -1.0101  1.3965
17020SOL     OW54975  10.176   8.325   3.647 -0.5533 -0.3592 -0.7046
17020SOL    HW154976  10.135   8.245   3.682  0.1900 -0.9791 -1.2245
17020SOL    HW254977  10.257   8.334   3.696 -0.0574 -0.5997 -1.4633
17021SOL     OW54978  10.192   1.149   6.737  0.6139 -0.3986  0.6740
17021SOL    HW154979  10.115   1.200   6.709  2.2314  1.5577 -0.5160
17021SOL    HW254980  10.193   1.158   6.833  0.8569  1.9683  0.5084
17022SOL     OW54981   3.539   0.149   6.187 -0.0838 -0.5611  0.2444
17022SOL    HW154982   3.522   0.055   6.192  1.1080 -0.8621 -0.9251
17022SOL    HW254983   3.634   0.156   6.179  0.1753  0.8993  3.1795
17023SOL     OW54984  10.119   7.195   6.399 -0.1200  0.6550  0.2257
17023SOL    HW154985  10.035   7.222   6.435 -0.4526 -0.1789  0.1008
17023SOL    HW254986  10.153   7.131   6.463 -0.4864 -0.4689 -0.6676
17024SOL     OW54987   0.706   8.190   5.721 -0.5281  0.0178 -0.2996
17024SOL    HW154988   0.712   8.140   5.803 -0.9026  0.1068 -0.2184
17024SOL    HW254989   0.771   8.150   5.664 -1.4416 -1.1283 -0.5469
17025SOL     OW54990   9.806   1.346   7.594  0.3986 -0.0131  0.1041
17025SOL    HW154991   9.838   1.305   7.514 -1.5624  1.1159 -1.3314
17025SOL    HW254992   9.857   1.426   7.603  0.3212  0.0774 -0.2706
17026SOL     OW54993   5.016   7.904   4.736  0.4703  0.4926 -0.1306
17026SOL    HW154994   5.104   7.872   4.757  0.3295 -0.3762 -0.7903
17026SOL    HW254995   5.012   7.991   4.775  0.8600 -0.2880  1.8141
17027SOL     OW54996   8.972   6.620   0.681  0.0867 -0.0255  0.7975
17027SOL    HW154997   8.909   6.614   0.609  0.0607 -2.3868  0.9505
17027SOL    HW254998   8.928   6.673   0.747 -0.0594  1.8227 -0.6970
17028SOL     OW54999   2.750   2.977   1.369  0.5719  0.0582 -0.1145
17028SOL    HW155000   2.683   2.948   1.307  1.6867 -2.2885 -0.3392
17028SOL    HW255001   2.815   3.021   1.315 -0.1878  1.2784 -0.0610
17029SOL     OW55002   3.076   8.040   4.687 -0.5806 -0.4585 -0.2375
17029SOL    HW155003   3.047   7.974   4.750 -0.9820  0.9878  1.1577
17029SOL    HW255004   3.016   8.114   4.700  0.6162  0.6647 -0.8705
17030SOL     OW55005   8.042  10.153   4.796  0.0395  0.7710  0.2966
17030SOL    HW155006   8.052  10.209   4.719  0.2918 -0.3550 -0.5137
17030SOL    HW255007   7.964  10.100   4.778 -1.0171  1.7969  1.6701
17031SOL     OW55008   7.828   4.324   8.978  0.1092 -0.2275 -0.0353
17031SOL    HW155009   7.853   4.389   9.044 -0.3507  0.3489 -0.4201
17031SOL    HW255010   7.903   4.264   8.974 -0.2336 -0.8272  1.6769
17032SOL     OW55011   8.063   5.209   4.389  0.2796  0.4266 -0.3810
17032SOL    HW155012   8.047   5.282   4.449 -0.4150 -0.3223  0.3663
17032SOL    HW255013   8.020   5.134   4.430  0.3146 -0.2379 -1.5220
17033SOL     OW55014   3.136   3.813   8.240  0.3476  0.6518  0.3018
17033SOL    HW155015   3.147   3.893   8.189 -1.4179  0.4693 -0.4531
17033SOL    HW255016   3.169   3.836   8.327  0.9894  1.8007 -0.2115
17034SOL     OW55017   7.812   7.186   2.644 -0.1841  0.0841  0.0390
17034SOL    HW155018   7.754   7.197   2.720  1.0515  0.8778  0.9080
17034SOL    HW255019   7.900   7.191   2.681  0.5172 -2.5903 -0.9984
17035SOL     OW55020   6.522   9.134   8.986  0.1882  0.8021 -0.4127
17035SOL    HW155021   6.490   9.079   8.914 -0.6582 -1.0355  1.2550
17035SOL    HW255022   6.604   9.093   9.012 -0.1924  0.6133  0.5200
17036SOL     OW55023   5.501   0.463   7.385  0.1098 -0.4065 -0.1743
17036SOL    HW155024   5.568   0.500   7.328 -0.8742  0.7026 -0.6311
17036SOL    HW255025   5.507   0.368   7.371  1.0416 -0.2652 -0.7917
17037SOL     OW55026   8.129   7.041   8.815  0.1235  0.2522 -0.7638
17037SOL    HW155027   8.130   7.116   8.875  0.7903  0.5794 -1.1771
17037SOL    HW255028   8.074   7.069   8.742  0.8041  0.5509 -1.1728
17038SOL     OW55029   2.804   7.678   5.610  0.3526 -0.6307  0.1675
17038SOL    HW155030   2.792   7.770   5.590 -1.1523 -1.0984 -1.2868
17038SOL    HW255031   2.721   7.637   5.587  0.5686 -2.1902  1.9289
17039SOL     OW55032   7.383   9.464   8.227  0.4859  0.5525  0.3775
17039SOL    HW155033   7.349   9.375   8.230  0.5667  0.5106  0.0388
17039SOL    HW255034   7.373   9.496   8.317  1.8692 -0.3307  0.8742
17040SOL     OW55035   3.691   9.525   8.532  0.0254  0.3380  0.0029
17040SOL    HW155036   3.641   9.546   8.611  1.5015  0.6167  0.9206
17040SOL    HW255037   3.643   9.454   8.490 -0.4763 -0.2504  1.5081
17041SOL     OW55038   9.607   7.791   0.298 -0.1209 -0.9576 -0.6146
17041SOL    HW155039   9.691   7.784   0.342 -0.2739 -0.0299 -0.1561
17041SOL    HW255040   9.546   7.818   0.366 -0.5101 -0.2553 -1.2315
17042SOL     OW55041   7.460   6.585   5.917  0.1305 -0.1462 -0.2514
17042SOL    HW155042   7.437   6.492   5.919 -2.1254  0.3608  0.0058
17042SOL    HW255043   7.518   6.593   5.841 -0.1479 -1.6627 -0.6644
17043SOL     OW55044   3.530   4.397   3.139 -0.1902  0.5509  0.4127
17043SOL    HW155045   3.502   4.341   3.066  0.9392 -1.3157  1.3482
17043SOL    HW255046   3.461   4.464   3.145 -1.4878 -0.5945 -0.8928
17044SOL     OW55047   9.161   6.141   7.340 -0.4323 -0.2745  0.6211
17044SOL    HW155048   9.148   6.235   7.355 -1.5801 -0.5846  1.7544
17044SOL    HW255049   9.188   6.107   7.425  0.5882 -0.8894  0.0654
17045SOL     OW55050   7.718   3.471   2.775 -0.6487  0.3123 -0.5769
17045SOL    HW155051   7.653   3.523   2.822 -0.6456 -0.6399  0.5428
17045SOL    HW255052   7.793   3.466   2.835 -0.8512 -1.3728 -0.4041
17046SOL     OW55053   8.576   5.730   3.311  0.9690 -0.1167  0.2186
17046SOL    HW155054   8.635   5.660   3.284  1.7262  0.0417  1.4016
17046SOL    HW255055   8.630   5.788   3.364  0.2454  1.1312 -0.3581
17047SOL     OW55056   1.610   2.187   7.172  0.6994  0.4128 -0.2889
17047SOL    HW155057   1.531   2.135   7.186 -0.2303  1.9521  0.4653
17047SOL    HW255058   1.668   2.164   7.244  1.6963 -1.9423 -1.7182
17048SOL     OW55059   7.120   4.052   0.343  0.2940  0.0184 -0.6712
17048SOL    HW155060   7.078   4.126   0.300  1.7163  1.4438  0.2650
17048SOL    HW255061   7.080   4.048   0.429  0.7608  0.2133 -0.4401
17049SOL     OW55062   9.316   2.019   5.979 -0.2109 -0.5253 -0.0497
17049SOL    HW155063   9.267   2.042   5.900 -0.8094 -1.6003 -0.0069
17049SOL    HW255064   9.257   1.960   6.027  0.7428 -1.0702  0.4669
17050SOL     OW55065   1.205   0.534   2.895 -0.5550  0.5366  0.2425
17050SOL    HW155066   1.296   0.559   2.883  0.6353 -2.7148  1.3333
17050SOL    HW255067   1.179   0.574   2.978 -0.5139  2.2716 -0.5400
17051SOL     OW55068   1.420  10.071   3.963  0.1559 -0.2568 -0.0452
17051SOL    HW155069   1.490  10.094   4.023  0.1425 -1.4514  0.4446
17051SOL    HW255070   1.380   9.992   4.000  0.5491 -1.4125 -1.9231
17052SOL     OW55071  10.178   8.602   3.576  0.2028  0.6921 -0.6628
17052SOL    HW155072  10.222   8.621   3.659  0.4915 -0.6900 -0.4740
17052SOL    HW255073  10.152   8.510   3.583  0.0898  0.5975 -2.0423
17053SOL     OW55074   3.064   1.094   6.544  0.1923 -0.3095 -0.0546
17053SOL    HW155075   3.131   1.043   6.590  0.3569 -1.2845 -1.3133
17053SOL    HW255076   3.110   1.132   6.469  0.1880  2.1459  1.1091
17054SOL     OW55077   7.872   1.740   6.492  0.7983  0.3121 -0.9539
17054SOL    HW155078   7.845   1.669   6.434  0.0462 -2.0189  2.0036
17054SOL    HW255079   7.790   1.772   6.529  1.3796  0.0654  0.6054
17055SOL     OW55080   5.583   1.742   0.722 -0.1534  0.3929 -0.4141
17055SOL    HW155081   5.639   1.820   0.723  1.7539 -0.8825  1.6710
17055SOL    HW255082   5.561   1.727   0.814 -2.2910 -0.3672 -0.9744
17056SOL     OW55083   3.579   9.024   6.440  0.4222  0.6184  0.1684
17056SOL    HW155084   3.542   9.112   6.449  1.0301  0.9045 -0.0286
17056SOL    HW255085   3.661   9.028   6.489  1.1125  0.5771 -0.9484
17057SOL     OW55086   5.279   1.583   2.007 -0.3455  0.3957 -0.8751
17057SOL    HW155087   5.346   1.550   1.947 -1.9234 -1.4859 -1.6884
17057SOL    HW255088   5.304   1.674   2.023  3.1053 -0.5605 -0.1134
17058SOL     OW55089   1.308   0.648   0.549  0.0761  0.4907 -0.3241
17058SOL    HW155090   1.273   0.725   0.593  0.7497  0.5454  0.1259
17058SOL    HW255091   1.232   0.590   0.537 -0.1422  0.5284  0.7831
17059SOL     OW55092   3.501   8.721   9.538 -0.5274  0.0048  0.0373
17059SOL    HW155093   3.580   8.771   9.556 -0.1970  0.5135 -2.4909
17059SOL    HW255094   3.526   8.659   9.469 -1.7176 -1.5830  0.9416
17060SOL     OW55095   1.004   1.011   4.963  0.7642 -0.1840  0.0632
17060SOL    HW155096   0.957   1.021   4.880  0.4230 -1.6581  0.0598
17060SOL    HW255097   0.946   1.051   5.028  0.4205 -0.2122 -0.2236
17061SOL     OW55098   1.915   5.961   9.903 -0.9545  0.3655 -0.8424
17061SOL    HW155099   1.889   6.046   9.868  0.3615  1.7070  1.2166
17061SOL    HW255100   1.964   5.982   9.983  0.2716 -2.2970 -0.7974
17062SOL     OW55101   0.938   5.392   7.811 -0.0812 -0.4384  1.1338
17062SOL    HW155102   0.845   5.371   7.820 -1.0219  2.3810 -0.5526
17062SOL    HW255103   0.950   5.405   7.717  2.2435 -1.4464  1.2325
17063SOL     OW55104   0.637   6.443   9.696  0.2174  0.4220 -0.3198
17063SOL    HW155105   0.723   6.413   9.665  1.1128  0.5768  1.8766
17063SOL    HW255106   0.576   6.376   9.665  1.5344 -1.2235  0.5147
17064SOL     OW55107   9.598   4.769   4.109  0.4492  0.4940  0.6297
17064SOL    HW155108   9.564   4.679   4.104 -1.2980  1.1566 -0.2589
17064SOL    HW255109   9.544   4.810   4.176  1.1043  0.9497  0.8819
17065SOL     OW55110   0.376   6.269   6.017 -0.0258 -0.3779  0.1273
17065SOL    HW155111   0.341   6.182   6.003 -0.8312  0.0189 -0.3722
17065SOL    HW255112   0.466   6.254   6.048 -0.4491 -1.3860  0.9074
17066SOL     OW55113   4.996   9.096   0.636 -0.0269  0.3095 -0.0978
17066SOL    HW155114   4.965   9.006   0.625 -1.0133  0.8595 -2.2970
17066SOL    HW255115   5.079   9.087   0.682 -1.3235 -1.5215  2.1281
17067SOL     OW55116   3.670  10.071   1.617  0.9158  0.2635 -0.1771
17067SOL    HW155117   3.765  10.070   1.610  1.1719  3.4247  1.3589
17067SOL    HW255118   3.652  10.118   1.698 -1.9700  0.5166 -0.8591
17068SOL     OW55119   7.439   2.553   8.412 -0.3607  0.0252 -0.1015
17068SOL    HW155120   7.374   2.543   8.342 -0.1832  1.0248 -0.4268
17068SOL    HW255121   7.456   2.647   8.415  0.1681 -0.0955  0.8114
17069SOL     OW55122   3.328   2.946   1.345  0.0119 -0.0749 -0.8263
17069SOL    HW155123   3.382   2.940   1.423 -0.5699  0.1019 -0.3999
17069SOL    HW255124   3.242   2.975   1.377 -0.6179 -1.2741 -1.3482
17070SOL     OW55125   4.939   6.870   0.829  0.0907  0.2932  0.0141
17070SOL    HW155126   4.975   6.908   0.748 -1.2581  0.9608 -0.2920
17070SOL    HW255127   4.923   6.779   0.807  0.3503  0.3126 -0.2644
17071SOL     OW55128   8.765   3.570   0.278 -0.7387 -0.3167 -0.5646
17071SOL    HW155129   8.774   3.610   0.191 -0.8871  1.8258  0.3377
17071SOL    HW255130   8.841   3.513   0.286 -0.2751  0.0981 -1.7811
17072SOL     OW55131   3.317   7.246   6.961  0.1096 -0.1814  0.0766
17072SOL    HW155132   3.339   7.304   6.888  0.1179 -0.9310 -0.5374
17072SOL    HW255133   3.224   7.227   6.949  0.2743 -0.8872 -0.1873
17073SOL     OW55134   5.174   3.076   0.793 -0.0011  0.1364  0.3001
17073SOL    HW155135   5.178   3.066   0.698 -1.0996 -0.6602  0.3045
17073SOL    HW255136   5.209   2.994   0.827 -2.5616 -0.9773  0.4867
17074SOL     OW55137   4.416   7.767   2.087 -0.2247 -0.1813  0.2382
17074SOL    HW155138   4.464   7.691   2.121  1.6196  0.9132  0.2094
17074SOL    HW255139   4.372   7.805   2.163 -1.1460 -1.2285  0.2565
17075SOL     OW55140   2.966   4.254   6.976 -0.1184  0.1993 -0.5494
17075SOL    HW155141   3.057   4.257   6.948 -0.5205 -0.2900 -1.9589
17075SOL    HW255142   2.970   4.263   7.072  1.4455 -0.5095 -0.5254
17076SOL     OW55143   9.777   2.960   7.399 -0.0242  0.2218  0.2018
17076SOL    HW155144   9.750   2.939   7.310  0.7726 -1.9655  0.4199
17076SOL    HW255145   9.698   2.995   7.441 -0.2804  1.8039 -1.4544
17077SOL     OW55146   7.025   0.532   0.456  0.5113 -0.6453 -0.2893
17077SOL    HW155147   7.103   0.584   0.437 -0.3659  0.2919 -1.4926
17077SOL    HW255148   6.992   0.506   0.369  0.0781 -1.9397  0.2362
17078SOL     OW55149   7.884   7.525   5.090  0.4190  0.0136  0.2674
17078SOL    HW155150   7.879   7.559   5.179  0.0697 -1.2301  0.7546
17078SOL    HW255151   7.889   7.602   5.034 -0.8993  0.8610  1.2757
17079SOL     OW55152   9.294  10.148   1.861  0.8051  0.2915  0.1674
17079SOL    HW155153   9.254  10.159   1.775  0.7388 -0.6256  0.0702
17079SOL    HW255154   9.341  10.065   1.855  1.1580  0.4343  0.8804
17080SOL     OW55155   5.712   8.369   1.350  0.6119  0.5405 -0.3893
17080SOL    HW155156   5.738   8.323   1.430  1.2008 -1.7156 -1.7853
17080SOL    HW255157   5.785   8.427   1.330  0.8511  0.4668  0.2521
17081SOL     OW55158   4.246   6.883   9.252 -0.4980  0.0683  0.1320
17081SOL    HW155159   4.308   6.811   9.265  0.0489 -0.0971 -2.6254
17081SOL    HW255160   4.286   6.958   9.296  0.5701 -0.5700  0.2805
17082SOL     OW55161   6.879   2.516   7.616  0.5725  0.2452  0.4163
17082SOL    HW155162   6.839   2.458   7.551  2.1210 -0.4912  0.0804
17082SOL    HW255163   6.805   2.551   7.666 -0.4223 -1.7253  0.3983
17083SOL     OW55164   4.987   3.303   1.619  0.3132  0.1747  0.0860
17083SOL    HW155165   5.075   3.266   1.620  0.8269  1.2629 -1.6068
17083SOL    HW255166   4.944   3.262   1.544 -0.1616  0.6395  0.0952
17084SOL     OW55167   2.183   8.888   8.252 -0.3420 -0.1038 -0.1545
17084SOL    HW155168   2.257   8.828   8.243 -0.4433 -0.2100 -0.2734
17084SOL    HW255169   2.147   8.868   8.339 -0.4509 -0.3004 -0.2441
17085SOL     OW55170   2.839   8.583   4.739  0.2002  0.0931 -0.2118
17085SOL    HW155171   2.869   8.654   4.796  1.3572  0.0739 -0.7555
17085SOL    HW255172   2.748   8.567   4.765  0.6709  0.1153  1.5954
17086SOL     OW55173   2.639   4.866   0.902 -0.3356  0.3098  0.7874
17086SOL    HW155174   2.569   4.911   0.949  2.4121  1.9531  3.6942
17086SOL    HW255175   2.693   4.826   0.970  0.9098 -2.0504 -1.3726
17087SOL     OW55176   6.828   1.106   3.840 -0.2462 -0.3742 -1.0419
17087SOL    HW155177   6.844   1.121   3.933  2.5753  3.2332 -1.8359
17087SOL    HW255178   6.778   1.182   3.812 -1.4588 -1.6392 -2.4447
17088SOL     OW55179   6.385   7.149   3.632 -0.4138 -0.2983  0.2008
17088SOL    HW155180   6.336   7.162   3.551 -2.0518 -1.8636  0.8516
17088SOL    HW255181   6.317   7.142   3.700  0.8787  0.3913  1.6268
17089SOL     OW55182   9.242   6.916   3.371  0.6206  0.0192 -0.5263
17089SOL    HW155183   9.160   6.927   3.418  0.4455 -0.0749 -0.8050
17089SOL    HW255184   9.216   6.888   3.283  0.9996 -3.0544  0.2157
17090SOL     OW55185   8.790   1.190   4.835  0.2758  0.1424 -0.4532
17090SOL    HW155186   8.707   1.169   4.879  1.8645 -2.1140  1.7659
17090SOL    HW255187   8.803   1.283   4.852 -1.6962  0.5273 -0.7610
17091SOL     OW55188   0.816   9.643   6.855  0.8992  0.6775 -0.2265
17091SOL    HW155189   0.869   9.721   6.842  1.6231  0.5309  1.6083
17091SOL    HW255190   0.747   9.650   6.789  1.6838  2.1935 -0.9432
17092SOL     OW55191   4.294   1.932   5.681 -0.2718 -0.8587 -0.0351
17092SOL    HW155192   4.298   2.020   5.719  0.5776 -1.4937  1.4411
17092SOL    HW255193   4.281   1.947   5.588  2.1726  0.8983 -0.1990
17093SOL     OW55194   6.560  10.120   2.613 -0.4507  0.1846  0.2657
17093SOL    HW155195   6.628  10.060   2.581  2.7825  2.3701  2.4388
17093SOL    HW255196   6.531  10.167   2.535  1.5780  0.1194 -0.5993
17094SOL     OW55197   8.661   7.259   0.678 -0.2500 -0.2296  0.0478
17094SOL    HW155198   8.662   7.231   0.586 -1.1952 -1.8596  0.4919
17094SOL    HW255199   8.654   7.354   0.674  2.9008  0.0573 -1.5543
17095SOL     OW55200   2.989   3.582   9.670  0.3011  0.2230  0.0195
17095SOL    HW155201   3.026   3.638   9.738 -0.8984  2.3889 -1.0124
17095SOL    HW255202   2.912   3.543   9.711 -0.1020  1.0792  0.0959
17096SOL     OW55203   1.449   1.902   7.616 -0.4721  0.2859 -0.0693
17096SOL    HW155204   1.445   1.807   7.602  0.4001  0.0895  0.9017
17096SOL    HW255205   1.525   1.930   7.565 -0.3451  0.3612  0.1624
17097SOL     OW55206   3.673  10.198   1.873 -0.1788 -0.7355 -0.2184
17097SOL    HW155207   3.749  10.255   1.863 -1.2125  0.7501  0.0525
17097SOL    HW255208   3.638  10.221   1.959  0.0003 -2.6011  0.4015
17098SOL     OW55209   7.756   9.118   6.544  0.5415 -0.2019  0.1398
17098SOL    HW155210   7.845   9.148   6.562  0.7619  0.6920 -2.0802
17098SOL    HW255211   7.762   9.023   6.541  1.5938 -0.1274 -0.6439
17099SOL     OW55212   5.425   3.919   7.228 -0.1833  0.1224  0.6419
17099SOL    HW155213   5.444   3.831   7.198  0.6261  0.1682  1.0095
17099SOL    HW255214   5.374   3.958   7.157  0.5959 -0.1981 -0.1096
17100SOL     OW55215   8.501   5.884   6.560  0.7172 -0.0013  0.6926
17100SOL    HW155216   8.445   5.818   6.521 -1.4461  3.4069 -2.7199
17100SOL    HW255217   8.585   5.874   6.516  0.5041 -0.6322  0.4210
17101SOL     OW55218   9.449   8.804   1.916  0.3299  0.0343  0.1190
17101SOL    HW155219   9.385   8.867   1.884  0.0165  0.4437  1.4937
17101SOL    HW255220   9.516   8.857   1.959  0.6924 -0.4957  0.2215
17102SOL     OW55221   5.523   6.530   5.128  0.0574 -0.3115 -0.2786
17102SOL    HW155222   5.529   6.620   5.160 -0.8272 -0.4535  0.3344
17102SOL    HW255223   5.565   6.532   5.042  1.2483  0.3889  0.2934
17103SOL     OW55224   8.249   4.740   9.234  0.2086 -0.0854  0.0969
17103SOL    HW155225   8.159   4.765   9.254  0.0403 -1.6711  1.4897
17103SOL    HW255226   8.241   4.672   9.167  0.3108 -0.6152  0.6094
17104SOL     OW55227   4.038   4.448   3.647 -0.3936  0.0216 -0.6723
17104SOL    HW155228   4.094   4.372   3.634 -0.5149 -0.2139  0.1617
17104SOL    HW255229   4.093   4.523   3.622  0.5344 -0.1502  0.7376
17105SOL     OW55230   3.302   0.791   4.383  0.1978 -0.3721  0.1712
17105SOL    HW155231   3.276   0.722   4.321 -0.1126 -1.3412  1.3293
17105SOL    HW255232   3.221   0.813   4.429  0.0909  1.5017 -0.8444
17106SOL     OW55233   2.613   8.036   8.516  0.0235  0.0579  0.3494
17106SOL    HW155234   2.669   8.027   8.440 -1.2773 -1.0660 -0.5103
17106SOL    HW255235   2.660   7.992   8.587  0.0836 -1.2124 -0.4519
17107SOL     OW55236   2.184   7.103   5.286  0.1575 -0.6354 -0.2372
17107SOL    HW155237   2.104   7.052   5.284 -0.9137  0.9543 -1.4930
17107SOL    HW255238   2.253   7.042   5.260 -0.2967 -2.4436  2.4242
17108SOL     OW55239   6.229   9.657   2.426  0.4904  0.2838  0.2762
17108SOL    HW155240   6.200   9.592   2.363  1.6397  0.9760 -1.0430
17108SOL    HW255241   6.325   9.657   2.418  0.5145  3.6483 -1.4990
17109SOL     OW55242   8.618   9.779   7.581 -0.0881  0.2012 -0.3860
17109SOL    HW155243   8.632   9.722   7.657  2.7143  0.1013 -0.8660
17109SOL    HW255244   8.631   9.723   7.505 -0.3096  0.8409 -0.9131
17110SOL     OW55245   3.469   8.347   7.883  0.1836  0.2363  0.0457
17110SOL    HW155246   3.547   8.338   7.828  0.5032  0.0651  0.5172
17110SOL    HW255247   3.442   8.257   7.902 -0.6924  0.2876 -0.8878
17111SOL     OW55248   2.939   5.004   5.722 -0.6818 -0.6800 -0.4472
17111SOL    HW155249   2.900   5.072   5.778 -1.3138 -1.5763  0.2474
17111SOL    HW255250   2.924   5.035   5.633 -0.7149  0.2152 -0.1432
17112SOL     OW55251   9.361   8.809   3.277 -0.8911 -0.2863  0.0005
17112SOL    HW155252   9.316   8.724   3.274 -1.1837 -0.1355  0.1013
17112SOL    HW255253   9.291   8.872   3.294 -1.2793  0.4283 -3.4896
17113SOL     OW55254   8.574   4.309   7.949 -0.1607  0.3520  0.6219
17113SOL    HW155255   8.509   4.370   7.914  0.1449  1.0535  1.2227
17113SOL    HW255256   8.560   4.227   7.902  0.6061  1.3872 -1.5493
17114SOL     OW55257   9.049   9.162   8.143  0.0085  0.2036 -0.2340
17114SOL    HW155258   9.084   9.078   8.175 -0.9178  0.8650  2.7130
17114SOL    HW255259   9.127   9.215   8.126  0.5663 -0.1290  1.1687
17115SOL     OW55260   2.550   7.052   8.455 -0.2076  0.3058  0.2437
17115SOL    HW155261   2.494   6.975   8.461 -0.4793  0.5213  0.4655
17115SOL    HW255262   2.541   7.096   8.539 -0.4354  0.8405 -0.0493
17116SOL     OW55263   3.340   6.036   4.751 -1.1148 -0.1452 -0.2189
17116SOL    HW155264   3.276   6.002   4.813 -0.3330 -0.6674  0.3302
17116SOL    HW255265   3.402   6.086   4.804 -0.0109 -1.2219 -0.4396
17117SOL     OW55266   7.933   9.476   7.326 -0.5976  0.2330 -0.2185
17117SOL    HW155267   7.991   9.543   7.363 -0.8525  1.2437 -1.5687
17117SOL    HW255268   7.888   9.439   7.401 -0.3236  1.4781  0.5895
17118SOL     OW55269   8.597   9.903   1.573 -0.1837  0.2212  0.1217
17118SOL    HW155270   8.605   9.989   1.615 -2.2848  1.0476 -1.0527
17118SOL    HW255271   8.557   9.847   1.640  2.6614 -0.4225  1.4804
17119SOL     OW55272   5.663   4.850   2.541 -0.3954  0.0368 -0.2394
17119SOL    HW155273   5.716   4.814   2.471 -0.3017  0.2086 -0.2580
17119SOL    HW255274   5.676   4.945   2.535 -0.0916  0.0279  0.2440
17120SOL     OW55275   8.609   1.557   1.608 -0.4671 -0.0598  0.6950
17120SOL    HW155276   8.632   1.512   1.526  2.3626  2.0710  0.1577
17120SOL    HW255277   8.688   1.550   1.661 -0.4860  2.8048  1.2184
17121SOL     OW55278   7.208   5.655   2.433  0.1329  0.1333 -0.2006
17121SOL    HW155279   7.171   5.740   2.456 -1.5136 -0.6672  0.2420
17121SOL    HW255280   7.278   5.641   2.497 -0.8614  0.3084  0.9607
17122SOL     OW55281   5.546   9.091   9.197 -0.3458 -0.0088 -0.9412
17122SOL    HW155282   5.541   9.155   9.268  0.5315 -1.2150  0.2571
17122SOL    HW255283   5.488   9.020   9.224 -0.7008 -0.0898 -1.8762
17123SOL     OW55284   0.894   9.000   2.213 -0.1794  0.1844  0.1161
17123SOL    HW155285   0.904   8.934   2.144 -0.9977  0.0427  0.1195
17123SOL    HW255286   0.815   9.048   2.188 -0.8446 -0.2770  1.2802
17124SOL     OW55287   0.304   1.145   4.539  0.6394 -0.1912  0.1349
17124SOL    HW155288   0.212   1.149   4.565 -0.1149 -1.8118 -1.9702
17124SOL    HW255289   0.309   1.200   4.461  1.1761 -0.9962 -0.4171
17125SOL     OW55290  10.001   6.699   4.857 -0.1137  0.4907  0.3510
17125SOL    HW155291   9.915   6.658   4.851 -0.3590  0.6822  1.9595
17125SOL    HW255292  10.063   6.630   4.833 -0.6144 -0.3311  1.3245
17126SOL     OW55293   0.156   6.997   4.840 -0.5382 -0.0236 -0.2336
17126SOL    HW155294   0.158   6.944   4.919 -2.3829  0.9193  0.4969
17126SOL    HW255295   0.131   6.936   4.771  1.9477 -1.0485 -0.3404
17127SOL     OW55296   3.985   0.345   5.682 -0.4002  0.3533 -0.0842
17127SOL    HW155297   4.000   0.316   5.592  0.2795 -2.5324  0.8710
17127SOL    HW255298   4.061   0.314   5.731 -2.0232 -0.6301  1.9801
17128SOL     OW55299   9.532   8.867   6.229 -0.2734 -0.6594  0.4369
17128SOL    HW155300   9.497   8.795   6.176 -0.3313 -1.3554  1.3866
17128SOL    HW255301   9.521   8.945   6.175 -1.6035 -1.1404 -0.0236
17129SOL     OW55302   7.101   8.392   9.696 -0.5679 -0.0617  0.2635
17129SOL    HW155303   7.097   8.396   9.792  0.7678 -0.7035  0.3731
17129SOL    HW255304   7.166   8.324   9.678 -2.5423 -1.6873 -1.1393
17130SOL     OW55305   5.325   4.484   2.263  0.1981 -0.1028  0.0950
17130SOL    HW155306   5.390   4.532   2.315  1.6067 -1.7185 -0.0893
17130SOL    HW255307   5.285   4.551   2.207  0.7195  1.1623  1.1753
17131SOL     OW55308   4.292   3.606   3.115 -0.7663 -0.6069 -0.5717
17131SOL    HW155309   4.381   3.618   3.081 -0.2621 -2.7726 -0.1695
17131SOL    HW255310   4.237   3.601   3.037 -0.0650 -2.3794 -1.0006
17132SOL     OW55311   7.559   4.477   1.693 -0.4994 -0.3754 -0.5674
17132SOL    HW155312   7.612   4.409   1.735 -0.8159  0.6455  1.6671
17132SOL    HW255313   7.622   4.544   1.665 -0.3914 -0.3127 -0.1869
17133SOL     OW55314   6.887   5.756   8.214  0.3837 -0.0500  1.0245
17133SOL    HW155315   6.976   5.749   8.249 -0.3222 -0.3074  2.8518
17133SOL    HW255316   6.837   5.797   8.284 -1.1530 -0.7365  0.3698
17134SOL     OW55317   6.799   8.958   2.498 -0.1963  0.1816  0.2904
17134SOL    HW155318   6.752   8.923   2.574  2.9532 -0.7957  1.9438
17134SOL    HW255319   6.834   8.881   2.454 -1.5174  0.7784 -1.9740
17135SOL     OW55320   8.864   3.291   1.951  0.4984 -0.2501 -0.4179
17135SOL    HW155321   8.799   3.271   1.885 -0.8844  0.8933  0.5355
17135SOL    HW255322   8.839   3.240   2.028  2.5616 -2.2114 -0.9441
17136SOL     OW55323   2.981   9.956   3.078 -0.2553 -0.3058  0.1762
17136SOL    HW155324   2.903   9.902   3.066  0.0376 -0.5884 -0.4915
17136SOL    HW255325   3.039   9.904   3.134  0.0642 -0.7357 -0.5393
17137SOL     OW55326   2.740   8.976   5.880  0.2725 -0.1792  0.1636
17137SOL    HW155327   2.829   8.989   5.910  0.1974 -0.6622  0.5926
17137SOL    HW255328   2.743   8.997   5.786  0.7075  0.3649  0.2917
17138SOL     OW55329   0.111   5.401   6.565  0.0384  0.4104 -0.5469
17138SOL    HW155330   0.115   5.367   6.654  0.0775  1.6171 -0.0602
17138SOL    HW255331   0.058   5.337   6.516 -0.5654  0.0821  0.5097
17139SOL     OW55332   3.429   5.902  10.034  0.0506 -0.4924 -0.0105
17139SOL    HW155333   3.505   5.855   9.998 -0.9079 -1.4638 -0.8252
17139SOL    HW255334   3.369   5.911   9.960 -0.0178  1.6107  0.2512
17140SOL     OW55335   3.462   9.299   8.425  0.4563  0.3144 -0.2236
17140SOL    HW155336   3.467   9.208   8.394 -0.9598  0.3318 -0.5764
17140SOL    HW255337   3.388   9.337   8.376  0.5728  1.4419  0.4481
17141SOL     OW55338   6.919   8.124   8.359 -0.4552  0.3243 -0.3178
17141SOL    HW155339   6.866   8.199   8.385 -0.1078  0.1228  1.0645
17141SOL    HW255340   6.999   8.131   8.412 -0.8986 -1.6020  0.6911
17142SOL     OW55341   9.251   4.349   6.065  0.1175  0.3931 -0.1497
17142SOL    HW155342   9.180   4.412   6.071  0.3464  0.4864  2.2576
17142SOL    HW255343   9.277   4.351   5.972 -2.3242  1.0614 -0.8861
17143SOL     OW55344   8.146   1.188   7.642  0.1552  0.0790 -0.4749
17143SOL    HW155345   8.205   1.122   7.607 -0.3975 -0.5169 -0.3120
17143SOL    HW255346   8.087   1.140   7.700 -0.9984  0.5094 -1.2375
17144SOL     OW55347   9.545   4.077   2.446 -0.0254 -0.5475 -0.0169
17144SOL    HW155348   9.542   4.123   2.530 -0.0698 -0.4322 -0.0822
17144SOL    HW255349   9.461   4.031   2.442 -0.1896 -0.2348 -0.1796
17145SOL     OW55350   5.399   8.785   5.730  0.2379  0.6761  0.0601
17145SOL    HW155351   5.385   8.877   5.709  0.0697  0.5749 -0.2948
17145SOL    HW255352   5.316   8.756   5.768  0.0898  0.5294 -0.3643
17146SOL     OW55353   9.775   9.845   7.875 -0.0470 -0.1844  0.5401
17146SOL    HW155354   9.734   9.931   7.864  1.8481  0.5117 -2.0500
17146SOL    HW255355   9.868   9.865   7.891  0.4348 -1.7251 -0.1779
17147SOL     OW55356   8.562   8.697   8.288 -0.0037  0.0305 -0.0610
17147SOL    HW155357   8.541   8.772   8.232  1.6420 -0.4680 -1.4524
17147SOL    HW255358   8.653   8.676   8.266  0.5638 -0.5201  2.4917
17148SOL     OW55359   9.610   3.049   4.603 -0.1636 -0.5653  0.6919
17148SOL    HW155360   9.533   3.104   4.591  1.4676  1.5715 -0.5766
17148SOL    HW255361   9.582   2.962   4.576 -1.3502  0.7507 -2.8086
17149SOL     OW55362   9.841   8.669   8.152  0.6275  0.2996  0.1756
17149SOL    HW155363   9.816   8.736   8.216  1.7670 -0.8240  1.8837
17149SOL    HW255364   9.767   8.664   8.092 -0.7169  1.0671  1.7002
17150SOL     OW55365   6.802  10.130   7.099 -0.0974  0.0106  0.6103
17150SOL    HW155366   6.714  10.094   7.092 -0.7119  1.5441  0.1284
17150SOL    HW255367   6.858  10.054   7.113 -1.1768 -1.2820 -1.6166
17151SOL     OW55368   4.391   7.567   8.561  0.0583  0.5611  0.6102
17151SOL    HW155369   4.430   7.603   8.641  0.9170 -0.4257  0.6604
17151SOL    HW255370   4.419   7.475   8.560  0.3746  0.6404 -1.0096
17152SOL     OW55371   0.969   1.721   3.894 -0.3067 -0.0958 -0.2139
17152SOL    HW155372   1.024   1.666   3.839  0.4473  2.1224 -1.8023
17152SOL    HW255373   1.018   1.728   3.976  0.2004 -0.7171 -0.4497
17153SOL     OW55374   7.470   4.499   8.015  0.5812 -0.0117 -0.2768
17153SOL    HW155375   7.381   4.470   8.038  0.9011 -0.7285  0.1004
17153SOL    HW255376   7.482   4.470   7.924  0.0170  1.1195 -0.7303
17154SOL     OW55377   5.342   3.860   8.351 -0.1043 -0.0548 -0.3523
17154SOL    HW155378   5.380   3.821   8.429  0.2964 -1.2147 -1.1103
17154SOL    HW255379   5.248   3.864   8.370  0.0117 -0.1375  0.2630
17155SOL     OW55380   9.004   1.875   3.712  0.3905 -0.0168 -0.1613
17155SOL    HW155381   8.993   1.911   3.623  2.7427 -0.4931 -0.7176
17155SOL    HW255382   8.933   1.915   3.763  0.2688  1.9844 -1.7466
17156SOL     OW55383   4.709   4.003   5.113  0.2556  0.2432  0.0850
17156SOL    HW155384   4.786   4.058   5.098  0.1577  0.7838  1.4637
17156SOL    HW255385   4.702   3.950   5.034  0.9673  1.4771 -0.8450
17157SOL     OW55386   5.832   9.649   4.368  0.3547 -0.1471 -0.3354
17157SOL    HW155387   5.808   9.731   4.412  2.0140  0.7107 -0.9480
17157SOL    HW255388   5.863   9.592   4.439  1.0468  0.4826 -0.1182
17158SOL     OW55389   6.579   0.543   0.102  0.4806  0.0120  0.0741
17158SOL    HW155390   6.617   0.607   0.042 -0.5167  0.1718 -0.4102
17158SOL    HW255391   6.612   0.568   0.188  1.1913  0.3410 -0.2865
17159SOL     OW55392   6.310   9.505   9.035 -0.5402 -0.0001  0.0666
17159SOL    HW155393   6.339   9.594   9.054  0.0297 -0.1673 -0.0064
17159SOL    HW255394   6.345   9.487   8.948 -0.2968 -0.4523  0.2614
17160SOL     OW55395   7.139   3.704   1.768 -0.1517 -0.4845 -0.5769
17160SOL    HW155396   7.180   3.702   1.854 -1.7278  2.0551  0.3302
17160SOL    HW255397   7.205   3.744   1.711  0.3493 -0.7928 -0.2177
17161SOL     OW55398   0.563   7.145   6.289  0.1158 -0.5051 -0.6791
17161SOL    HW155399   0.581   7.066   6.340 -1.9401  0.1402  1.2550
17161SOL    HW255400   0.473   7.134   6.258  0.7497 -0.1207 -2.8631
17162SOL     OW55401   0.886   9.071   0.426  0.1745 -0.4240 -0.9542
17162SOL    HW155402   0.943   9.146   0.408  0.2031 -0.3785 -0.6832
17162SOL    HW255403   0.941   8.995   0.410  0.2844 -0.3805 -0.7891
17163SOL     OW55404   3.038   5.494   0.077  0.1114  0.5810  0.0094
17163SOL    HW155405   3.025   5.486   0.172 -0.3429 -0.9883 -0.1550
17163SOL    HW255406   2.993   5.576   0.054  0.4619  1.1339  1.1719
17164SOL     OW55407   7.683   4.033   3.774 -0.0757 -0.1371 -0.3063
17164SOL    HW155408   7.766   3.986   3.762 -0.9419 -1.8465  0.1584
17164SOL    HW255409   7.633   4.013   3.695 -1.0517 -1.3269  0.5841
17165SOL     OW55410   9.921   7.166   4.341  0.5676 -0.1635  0.3109
17165SOL    HW155411  10.003   7.144   4.386  1.8064  4.7011  1.0601
17165SOL    HW255412   9.947   7.228   4.273 -2.3047 -0.4070 -1.1690
17166SOL     OW55413   5.805   9.337   6.558 -0.2374  0.0649  0.1306
17166SOL    HW155414   5.728   9.320   6.505  1.2980 -3.7142 -1.2650
17166SOL    HW255415   5.879   9.313   6.502  2.0867  3.2681  1.4489
17167SOL     OW55416   7.698   6.456   6.639 -0.2134  0.2850  0.1101
17167SOL    HW155417   7.718   6.365   6.616 -1.1416  0.4117 -1.3335
17167SOL    HW255418   7.775   6.505   6.612 -0.3435  0.1156 -0.5965
17168SOL     OW55419   6.745   6.408   1.318 -0.8316 -0.3463  0.5079
17168SOL    HW155420   6.832   6.449   1.314 -1.2718  0.5496 -0.4345
17168SOL    HW255421   6.686   6.480   1.344 -1.4058 -0.7481  0.3359
17169SOL     OW55422   6.430   6.703   7.159  0.1991 -0.3058 -0.6042
17169SOL    HW155423   6.515   6.675   7.193 -0.1953  1.2723  1.8957
17169SOL    HW255424   6.450   6.782   7.109  0.2029  0.1327  0.0824
17170SOL     OW55425   8.742   4.723   3.078  0.6665 -0.0749  0.2066
17170SOL    HW155426   8.737   4.761   3.166  0.1138 -0.4720  0.3529
17170SOL    HW255427   8.677   4.771   3.027  2.1228  1.3027 -0.4509
17171SOL     OW55428   7.367   6.729   6.623 -0.0320 -0.0447 -0.1912
17171SOL    HW155429   7.293   6.681   6.585  0.7236 -0.3427 -1.3569
17171SOL    HW255430   7.394   6.675   6.697 -0.9409  0.0384  0.2108
17172SOL     OW55431   6.551   0.018   5.118  0.3188 -0.0069 -0.4387
17172SOL    HW155432   6.600   0.046   5.195  2.7077  0.0599 -1.8832
17172SOL    HW255433   6.526   0.099   5.075 -1.1219 -0.0426  0.2740
17173SOL     OW55434   5.875   3.561   9.819 -0.4549 -0.0676  0.3991
17173SOL    HW155435   5.949   3.621   9.827  0.5824 -1.0732 -1.1188
17173SOL    HW255436   5.799   3.618   9.804  0.2190  0.9173  0.6512
17174SOL     OW55437   2.121   6.020   8.805  0.6301 -0.3001  0.3766
17174SOL    HW155438   2.109   6.006   8.711 -0.8382 -0.4330  0.5492
17174SOL    HW255439   2.191   6.085   8.811  1.5420 -1.1284 -0.7549
17175SOL     OW55440   2.084   5.114   3.749 -0.9225 -0.2246 -0.5713
17175SOL    HW155441   2.052   5.201   3.770 -0.6278 -0.5511  1.4163
17175SOL    HW255442   2.006   5.059   3.746 -1.0982  0.0638 -1.7312
17176SOL     OW55443   8.677   1.210   8.023 -0.4576  0.3205 -0.1388
17176SOL    HW155444   8.635   1.287   7.985 -1.4576 -0.7924 -1.3940
17176SOL    HW255445   8.627   1.136   7.988  0.8859 -0.9351  0.4961
17177SOL     OW55446   6.623   4.034   5.832 -0.0719 -0.1455 -0.6817
17177SOL    HW155447   6.534   4.068   5.829 -0.6175 -1.4888 -0.0590
17177SOL    HW255448   6.644   4.012   5.741  0.2138  1.5660 -1.0720
17178SOL     OW55449   8.565   6.517   6.954 -0.2639  0.0361 -0.0122
17178SOL    HW155450   8.563   6.612   6.943  1.0145  0.1211  0.3604
17178SOL    HW255451   8.490   6.485   6.902 -0.1709  1.1655 -0.8712
17179SOL     OW55452   9.642   3.381   7.915  0.1181  0.8422 -0.3138
17179SOL    HW155453   9.596   3.395   7.832 -0.5052 -1.7391 -0.5098
17179SOL    HW255454   9.677   3.292   7.908  0.5321  0.7559  1.9714
17180SOL     OW55455   7.233   4.630   0.514  0.1881 -0.1328 -0.3631
17180SOL    HW155456   7.152   4.581   0.520 -0.0203  0.3275  1.0247
17180SOL    HW255457   7.210   4.719   0.542  0.8474  0.4047 -1.4604
17181SOL     OW55458   1.363   1.151   1.252 -0.2577  0.2580 -0.4125
17181SOL    HW155459   1.449   1.170   1.216 -0.5343  0.3103 -1.0470
17181SOL    HW255460   1.370   1.175   1.344  1.1752 -1.9982  0.1693
17182SOL     OW55461  10.122  10.090   7.273 -0.4678  0.2759  0.3038
17182SOL    HW155462  10.089  10.036   7.201  1.1784 -1.2747  0.6434
17182SOL    HW255463  10.194  10.139   7.235 -0.1887  0.1573  0.6777
17183SOL     OW55464   2.116   8.230   6.751  0.0776 -0.4758 -0.2772
17183SOL    HW155465   2.075   8.290   6.813 -0.4278  0.1937 -1.2396
17183SOL    HW255466   2.209   8.250   6.757  0.0223 -0.3354  0.1783
17184SOL     OW55467   5.037   3.128   4.230 -0.6339 -0.5500  0.3584
17184SOL    HW155468   5.079   3.072   4.165  1.0531  0.0329  0.8875
17184SOL    HW255469   4.967   3.074   4.266  0.9102 -2.3565  0.8352
17185SOL     OW55470   9.074   8.812   1.735 -0.8012 -0.0776 -0.0048
17185SOL    HW155471   9.074   8.892   1.788 -1.0802  0.1099 -0.2856
17185SOL    HW255472   9.120   8.747   1.789 -0.1672  0.3984  0.0340
17186SOL     OW55473   3.438   4.873   1.676 -0.2166  0.0017  0.4851
17186SOL    HW155474   3.349   4.839   1.671 -1.1086  2.2941 -1.8265
17186SOL    HW255475   3.479   4.846   1.594  0.5275  0.6334  0.6352
17187SOL     OW55476   4.794   5.197   6.838 -0.4894 -0.2144 -0.0969
17187SOL    HW155477   4.741   5.139   6.784  0.9496 -0.3399 -1.4244
17187SOL    HW255478   4.859   5.139   6.878 -0.2022  0.2025  0.0412
17188SOL     OW55479   9.847   1.643   8.543  0.2179 -0.1921 -0.1579
17188SOL    HW155480   9.797   1.596   8.609 -0.7005  0.6679 -0.2175
17188SOL    HW255481   9.917   1.582   8.518  0.3545 -0.6768  1.3109
17189SOL     OW55482   4.907   7.073   2.580 -0.0276  0.0078  0.1841
17189SOL    HW155483   4.826   7.104   2.621 -0.0649  0.3672 -0.1574
17189SOL    HW255484   4.973   7.136   2.609  0.7922 -1.9841  2.9979
17190SOL     OW55485   9.070   9.390   5.520  0.0349 -0.5925 -0.7924
17190SOL    HW155486   9.059   9.344   5.437 -0.7529 -1.9255 -0.0024
17190SOL    HW255487   9.018   9.338   5.583  0.7738  0.2455  0.5668
17191SOL     OW55488   7.126   4.025   3.982 -0.2430 -0.1823  0.2671
17191SOL    HW155489   7.210   4.050   4.021  0.3770 -1.6337 -0.0789
17191SOL    HW255490   7.125   4.070   3.897 -0.7522  1.4560  1.0908
17192SOL     OW55491   6.818   5.035   6.718 -0.0512 -0.3012  0.4879
17192SOL    HW155492   6.841   5.060   6.807  0.5255 -0.0937  0.2913
17192SOL    HW255493   6.896   5.057   6.667 -0.3165 -0.5637 -0.0386
17193SOL     OW55494   1.572   0.214   5.293  0.0063  0.1266 -0.7193
17193SOL    HW155495   1.652   0.180   5.333 -0.3539 -1.1891 -1.0419
17193SOL    HW255496   1.582   0.309   5.293  1.5674 -0.0204 -0.7580
17194SOL     OW55497   8.778   2.546   7.196 -0.4964  0.3403  0.4661
17194SOL    HW155498   8.837   2.553   7.121 -1.4181  0.5973 -0.2485
17194SOL    HW255499   8.765   2.452   7.208 -1.0491  0.3121 -0.2715
17195SOL     OW55500   5.874   1.836   7.339 -0.2488 -0.4025 -0.2042
17195SOL    HW155501   5.905   1.836   7.430  0.2868  0.0765 -0.3745
17195SOL    HW255502   5.946   1.877   7.290 -1.6043  1.8348 -0.4587
17196SOL     OW55503   6.422   4.861   7.798 -0.1261  0.0387 -0.7423
17196SOL    HW155504   6.330   4.876   7.776 -0.7836 -0.4499  1.3719
17196SOL    HW255505   6.432   4.765   7.795  0.0125  0.0207  0.0184
17197SOL     OW55506   3.206   2.241   3.935 -0.0812  0.0421 -0.6341
17197SOL    HW155507   3.286   2.204   3.896  0.3469 -0.6140  0.8059
17197SOL    HW255508   3.233   2.325   3.971  0.4945 -1.0399  1.6045
17198SOL     OW55509   5.886   4.165   0.993  0.0993  0.0818 -0.6035
17198SOL    HW155510   5.906   4.090   1.049  2.3929  0.6576 -0.5226
17198SOL    HW255511   5.799   4.194   1.021  0.9276  0.0531  2.3562
17199SOL     OW55512   3.793   6.455   9.001 -0.8360  0.2927  0.0562
17199SOL    HW155513   3.846   6.503   9.064  2.2766 -0.3141 -1.8927
17199SOL    HW255514   3.780   6.516   8.928  0.1755 -0.6365 -0.9405
17200SOL     OW55515   0.958   6.362   6.386  0.1327 -0.7414  0.2321
17200SOL    HW155516   0.875   6.349   6.340  0.9109 -1.4544 -1.0468
17200SOL    HW255517   1.025   6.337   6.321  1.3775  0.6321  0.9332
17201SOL     OW55518   6.176   7.899   7.077 -0.3612  0.0883 -0.2006
17201SOL    HW155519   6.182   7.926   7.168  0.3013 -1.0970  0.1174
17201SOL    HW255520   6.082   7.897   7.059 -0.6693 -2.1913  1.2646
17202SOL     OW55521   3.931   4.346   8.954 -0.5024 -0.3967  0.5363
17202SOL    HW155522   4.026   4.351   8.942 -0.4577 -2.1437 -0.2130
17202SOL    HW255523   3.895   4.357   8.866 -0.9854 -0.0600  0.7692
17203SOL     OW55524   4.656   5.387   8.565 -0.9006 -0.1664 -0.0773
17203SOL    HW155525   4.692   5.303   8.538 -0.5950  0.2449 -0.9917
17203SOL    HW255526   4.566   5.367   8.591 -0.2428 -1.0906  1.6250
17204SOL     OW55527   6.305   3.831   3.588  0.3755  0.1964  0.1782
17204SOL    HW155528   6.372   3.764   3.576  0.9283  0.7390  0.1410
17204SOL    HW255529   6.222   3.784   3.584  0.7474 -0.4523 -0.0366
17205SOL     OW55530   6.360   8.268   1.569  0.0640 -0.2318 -0.4121
17205SOL    HW155531   6.432   8.328   1.554 -1.9630  2.7695  0.8671
17205SOL    HW255532   6.380   8.228   1.654  1.5683 -1.7533 -1.4060
17206SOL     OW55533   6.078   9.017  10.152  0.3383 -0.9580 -0.1769
17206SOL    HW155534   6.167   8.982  10.149  0.7732 -0.0328  1.2529
17206SOL    HW255535   6.061   9.035  10.244 -0.1002  1.9057 -0.7086
17207SOL     OW55536   0.191   2.147   7.938 -0.3858  0.4092  0.2641
17207SOL    HW155537   0.265   2.091   7.914  1.5912  1.4543  3.3124
17207SOL    HW255538   0.214   2.234   7.904 -0.6733  0.5361  0.3881
17208SOL     OW55539   0.456   3.723   7.326 -0.0918  0.2357 -0.7049
17208SOL    HW155540   0.512   3.673   7.267  0.5719 -0.6088  0.6105
17208SOL    HW255541   0.439   3.805   7.279  1.0438 -0.0896 -1.7247
17209SOL     OW55542   5.414   9.138   5.844 -0.2732 -0.3501  0.2491
17209SOL    HW155543   5.324   9.167   5.861 -0.2688 -0.5829  0.6792
17209SOL    HW255544   5.416   9.118   5.750 -0.4361  0.4769  0.0638
17210SOL     OW55545   6.850   5.431   3.351 -0.1358  0.1061 -0.2383
17210SOL    HW155546   6.836   5.337   3.355  1.7020 -0.2411 -0.7678
17210SOL    HW255547   6.819   5.456   3.264  1.6248 -0.5014 -1.0931
17211SOL     OW55548   5.728   8.416   4.484  0.5599 -1.1943  0.2030
17211SOL    HW155549   5.805   8.364   4.463  1.5188 -0.0750  0.8620
17211SOL    HW255550   5.740   8.498   4.435 -1.1978 -1.7460 -1.2716
17212SOL     OW55551   0.648   0.693   3.014 -0.0509  0.2624  0.5163
17212SOL    HW155552   0.722   0.661   2.963 -1.6946 -0.2121 -1.7408
17212SOL    HW255553   0.666   0.787   3.026  1.1146  0.0662  0.4481
17213SOL     OW55554   3.604   1.350   6.079  0.5488  0.1130 -0.0293
17213SOL    HW155555   3.513   1.322   6.070  0.4004  0.9076 -1.2444
17213SOL    HW255556   3.625   1.334   6.171 -0.5051 -0.9846  0.0483
17214SOL     OW55557   0.442   3.836   4.750  0.0924  0.2986  0.6408
17214SOL    HW155558   0.420   3.772   4.682 -2.3876  1.0275  0.6373
17214SOL    HW255559   0.380   3.908   4.736 -0.4319  0.5523  3.5631
17215SOL     OW55560   4.852   9.219   9.454 -0.1112 -0.2845 -0.2638
17215SOL    HW155561   4.835   9.130   9.424  0.7916  0.0642 -1.9525
17215SOL    HW255562   4.922   9.251   9.397 -1.3655  1.9809 -0.6813
17216SOL     OW55563   1.884   7.917   3.500  0.1833  0.4131  0.2345
17216SOL    HW155564   1.942   7.991   3.514  1.2034 -0.5112  1.0310
17216SOL    HW255565   1.806   7.955   3.458  0.8726  1.8399  0.1992
17217SOL     OW55566   9.388   3.242   0.527 -0.3942  0.4446  0.1988
17217SOL    HW155567   9.331   3.175   0.565 -1.3609  0.5401 -1.0066
17217SOL    HW255568   9.333   3.320   0.521 -0.1025  0.5934 -0.8075
17218SOL     OW55569   2.708   7.926   5.629  0.0172 -0.3659 -0.0580
17218SOL    HW155570   2.737   7.999   5.683  1.8342 -0.7965 -0.3840
17218SOL    HW255571   2.630   7.892   5.674 -0.3512  1.1995  0.5585
17219SOL     OW55572   3.900   2.510   7.705  0.4429 -0.1758 -0.0882
17219SOL    HW155573   3.899   2.415   7.689  0.7269 -0.0360 -0.9600
17219SOL    HW255574   3.870   2.549   7.623 -1.4920  0.4367  0.8629
17220SOL     OW55575   2.728   8.445   5.774  0.0106 -0.2515  0.4556
17220SOL    HW155576   2.695   8.412   5.690  1.2190  0.0267 -0.1400
17220SOL    HW255577   2.650   8.446   5.830 -0.8542 -0.3063 -0.6906
17221SOL     OW55578   3.984   5.718   2.772  0.2176  0.0920 -0.3622
17221SOL    HW155579   4.073   5.710   2.738 -0.1856 -1.7432 -1.1315
17221SOL    HW255580   3.935   5.758   2.700  0.2845  0.4954 -0.1849
17222SOL     OW55581   6.920   2.899   1.580 -0.3365  0.4115  0.2620
17222SOL    HW155582   7.014   2.910   1.589  0.0850  0.9032 -3.2778
17222SOL    HW255583   6.882   2.957   1.646  1.8041  0.5651  1.4375
17223SOL     OW55584   6.299   2.723   3.153  0.7654 -0.1745  0.2365
17223SOL    HW155585   6.284   2.666   3.078  1.7991 -0.3635  0.1496
17223SOL    HW255586   6.212   2.740   3.188  0.3916 -1.4747  0.0152
17224SOL     OW55587   5.721   0.381   8.525 -0.1107  0.8186 -0.1550
17224SOL    HW155588   5.682   0.366   8.439 -0.5609  0.0683  0.1649
17224SOL    HW255589   5.814   0.358   8.513 -0.5582 -1.3727  0.0339
17225SOL     OW55590   8.490   7.583   1.058 -0.0708  0.3833  0.2082
17225SOL    HW155591   8.489   7.677   1.040 -0.4772  0.8863  2.5408
17225SOL    HW255592   8.399   7.555   1.049 -0.0527  0.3392  0.1568
17226SOL     OW55593   3.085   1.312   5.274 -0.4745 -0.8871 -0.4178
17226SOL    HW155594   3.177   1.336   5.274 -0.0069 -2.5800 -0.7070
17226SOL    HW255595   3.039   1.396   5.284  1.1238 -0.2206  4.2725
17227SOL     OW55596   1.608   7.193   2.723 -0.3653 -0.2643 -0.3941
17227SOL    HW155597   1.527   7.214   2.679 -0.9679  1.2631  1.3283
17227SOL    HW255598   1.581   7.158   2.808  0.7624  0.6914  0.3849
17228SOL     OW55599   8.468   7.937   9.679  0.0220 -0.1872 -0.1483
17228SOL    HW155600   8.490   7.947   9.587  0.6011 -1.0771 -0.1169
17228SOL    HW255601   8.505   7.853   9.704  1.9396  1.0678  1.5104
17229SOL     OW55602   5.101   6.738   1.712 -0.5469  0.2216  0.1224
17229SOL    HW155603   5.091   6.646   1.737  1.5310  0.4514  2.2232
17229SOL    HW255604   5.030   6.754   1.651 -0.9109 -2.7991 -0.4208
17230SOL     OW55605   8.186   1.666   0.860  0.3186 -0.3005  0.1294
17230SOL    HW155606   8.155   1.738   0.915  1.2345  0.7749 -0.7081
17230SOL    HW255607   8.111   1.644   0.805  0.2611  0.5569 -0.1477
17231SOL     OW55608   1.607   8.349   1.925  0.5564  0.3425 -0.2285
17231SOL    HW155609   1.534   8.320   1.871 -1.2497  1.2577  1.5654
17231SOL    HW255610   1.673   8.281   1.916 -0.9835 -1.1192 -1.0459
17232SOL     OW55611   5.995   8.188   3.093 -0.0204  0.4342  0.2113
17232SOL    HW155612   5.995   8.095   3.070  0.2572  0.2856  0.7939
17232SOL    HW255613   5.903   8.210   3.106 -0.2287  0.6441 -1.4951
17233SOL     OW55614   9.995   2.967   8.421 -0.2991  0.1960  0.2044
17233SOL    HW155615  10.029   2.973   8.511  0.3889 -1.7205  0.1068
17233SOL    HW255616   9.922   2.906   8.427  0.3156 -0.6437 -0.6828
17234SOL     OW55617   6.158   2.482   8.927 -0.0839 -0.4709 -0.4957
17234SOL    HW155618   6.185   2.572   8.911  0.9214 -0.1393  2.4638
17234SOL    HW255619   6.229   2.429   8.891  0.1531 -0.0075 -0.7194
17235SOL     OW55620   9.729   0.763   8.944  0.2477  0.0489 -0.1051
17235SOL    HW155621   9.648   0.802   8.977  0.9525  0.2146  1.5007
17235SOL    HW255622   9.793   0.779   9.012  1.1779 -1.7884 -0.4868
17236SOL     OW55623   1.057   1.404   3.438 -0.3286  0.1383 -0.1111
17236SOL    HW155624   1.037   1.443   3.353  2.6094 -0.4186 -1.1978
17236SOL    HW255625   1.139   1.447   3.465 -0.4550 -0.7017  1.7760
17237SOL     OW55626   8.032   1.514   1.212 -0.4095  0.1721 -0.1063
17237SOL    HW155627   7.944   1.530   1.176 -1.1491  0.7586  1.8588
17237SOL    HW255628   8.062   1.601   1.239  1.8048  0.3965 -2.7867
17238SOL     OW55629   2.046   1.858   1.464  0.4076  0.2711  0.2161
17238SOL    HW155630   2.100   1.937   1.465  1.4428 -0.1169 -4.1631
17238SOL    HW255631   2.089   1.800   1.401 -3.2884 -1.4522 -1.0043
17239SOL     OW55632   1.241   8.940   6.584 -0.4061  0.7359 -0.0399
17239SOL    HW155633   1.266   8.917   6.673 -0.3126  0.3919 -0.1524
17239SOL    HW255634   1.146   8.925   6.580 -0.4927  1.2139  0.1388
17240SOL     OW55635   0.041   7.224   0.818  0.1026  0.7626 -0.4265
17240SOL    HW155636   0.121   7.275   0.831  1.2078 -0.5032 -1.9703
17240SOL    HW255637   0.028   7.222   0.723 -1.9458  1.1554 -0.2115
17241SOL     OW55638   6.565   3.075   4.184 -0.2975 -0.5317  0.4971
17241SOL    HW155639   6.487   3.118   4.148  0.2400  1.5384  1.6631
17241SOL    HW255640   6.546   3.065   4.277  0.8739  0.1091  0.8178
17242SOL     OW55641   6.816   7.558   2.053 -0.5582  0.4838 -0.0678
17242SOL    HW155642   6.849   7.497   1.988  2.2355  0.9079  0.8044
17242SOL    HW255643   6.890   7.571   2.113 -1.8454  2.8260  1.1536
17243SOL     OW55644   0.356   7.402   1.206 -1.1912  0.5364  0.1654
17243SOL    HW155645   0.418   7.464   1.243 -1.0496  0.7360 -0.4020
17243SOL    HW255646   0.288   7.393   1.274 -0.8218  0.7194  0.5651
17244SOL     OW55647   6.913   5.253   6.065 -0.1037  0.6232  0.7227
17244SOL    HW155648   6.937   5.295   5.983  1.4588 -2.7348 -0.7266
17244SOL    HW255649   6.821   5.228   6.053 -0.0909  0.7810  0.2814
17245SOL     OW55650   0.684   4.535   0.720 -0.8008 -0.8102  0.4740
17245SOL    HW155651   0.614   4.507   0.662 -0.6777  0.0033 -0.0857
17245SOL    HW255652   0.764   4.498   0.682 -0.7170 -0.2568  0.0907
17246SOL     OW55653   2.050   3.027   0.511  0.2673 -0.2551 -0.3596
17246SOL    HW155654   2.126   2.972   0.494 -0.8776 -2.1507  0.2951
17246SOL    HW255655   2.009   2.989   0.589 -1.8306  0.1208 -1.1914
17247SOL     OW55656   4.645   9.374   0.689  0.7030 -0.0741 -0.1659
17247SOL    HW155657   4.638   9.327   0.606  1.2033  2.2369 -1.6275
17247SOL    HW255658   4.554   9.384   0.718  0.2362  1.4494 -1.9376
17248SOL     OW55659   3.324   3.853   9.041 -0.2554  0.1739 -0.5690
17248SOL    HW155660   3.372   3.923   8.997 -1.0018  0.6827 -0.6071
17248SOL    HW255661   3.342   3.774   8.990 -0.8624  0.6985 -1.6158
17249SOL     OW55662   3.301   1.364   4.812 -0.1632  0.0983 -0.3266
17249SOL    HW155663   3.360   1.292   4.790  0.6452  0.7300 -0.3019
17249SOL    HW255664   3.232   1.324   4.865 -0.9010 -1.0364 -2.0439
17250SOL     OW55665   6.112   3.766   8.961 -0.3768 -0.2605  0.0127
17250SOL    HW155666   6.090   3.675   8.941 -1.5789  0.1035 -0.4300
17250SOL    HW255667   6.114   3.770   9.057 -0.7066 -0.6632  0.0374
17251SOL     OW55668   3.864   6.644   7.602  0.1074  0.4993  0.8604
17251SOL    HW155669   3.952   6.613   7.581 -0.6102 -0.3000 -1.2529
17251SOL    HW255670   3.838   6.695   7.526 -1.1724  0.9349  1.5596
17252SOL     OW55671  10.066  10.008   6.167 -0.4388  0.0217 -0.0551
17252SOL    HW155672  10.000   9.984   6.103 -0.4029 -0.1102 -0.0431
17252SOL    HW255673  10.137   9.945   6.154  0.3452  1.0782 -1.0774
17253SOL     OW55674   2.244   8.239   8.690  0.0203  0.1663 -0.3660
17253SOL    HW155675   2.191   8.269   8.616  1.2235  0.9958 -0.9181
17253SOL    HW255676   2.241   8.143   8.683 -1.4791  0.1798 -0.3002
17254SOL     OW55677   2.561   6.974   6.435 -0.0348  0.2607 -0.2572
17254SOL    HW155678   2.592   6.976   6.526 -0.9057  1.7035  0.0319
17254SOL    HW255679   2.560   6.881   6.413  0.7397 -0.0799  1.0108
17255SOL     OW55680   9.850   1.810   6.201 -0.2039 -0.9241  0.1532
17255SOL    HW155681   9.822   1.719   6.216 -0.2904 -0.9359 -0.0856
17255SOL    HW255682   9.904   1.806   6.122  0.5891 -0.9233  0.6890
17256SOL     OW55683   1.225   9.869   1.257  0.3789 -0.1091 -0.0487
17256SOL    HW155684   1.143   9.822   1.274  1.5757 -2.4929 -0.5092
17256SOL    HW255685   1.293   9.813   1.293  1.9868  0.8082 -1.4899
17257SOL     OW55686   7.113   6.114   2.409 -0.1334 -0.0967  0.1877
17257SOL    HW155687   7.111   6.192   2.464 -0.3079 -1.6545  2.5126
17257SOL    HW255688   7.051   6.054   2.450 -2.2909 -0.4798 -3.2344
17258SOL     OW55689   3.452   0.275   1.364  0.2938  0.2102  0.4315
17258SOL    HW155690   3.452   0.357   1.314 -0.8720  0.0414  0.1229
17258SOL    HW255691   3.373   0.230   1.336 -0.6892  0.3232  2.7721
17259SOL     OW55692   7.947   5.484   6.117  0.1601 -0.0555  0.0736
17259SOL    HW155693   7.878   5.528   6.167  1.5150  0.4334  1.6393
17259SOL    HW255694   7.962   5.541   6.042 -0.9995 -0.0746 -0.1872
17260SOL     OW55695   4.028   6.139   8.018 -0.2435  0.1870 -0.1599
17260SOL    HW155696   3.949   6.110   8.064  0.5048 -1.7035  0.0055
17260SOL    HW255697   4.054   6.219   8.064 -0.9145 -0.3001  1.1189
17261SOL     OW55698   7.904   8.023   7.686 -0.0335 -0.2013 -0.2112
17261SOL    HW155699   7.888   8.033   7.592  1.2417 -2.1763 -0.7082
17261SOL    HW255700   7.820   8.044   7.727 -0.4419  1.3383 -1.7114
17262SOL     OW55701   4.498   3.748   7.161 -0.5515  0.3747 -0.6920
17262SOL    HW155702   4.562   3.724   7.094  0.7775  1.8601 -0.0193
17262SOL    HW255703   4.426   3.788   7.111 -0.9852 -1.2637 -1.4486
17263SOL     OW55704   0.460  10.011   8.530  0.2244  0.4172 -0.3156
17263SOL    HW155705   0.441   9.953   8.456 -2.9462 -0.3341  0.9293
17263SOL    HW255706   0.488   9.953   8.600  0.4962  0.7998 -0.1019
17264SOL     OW55707   5.536   1.389   1.494 -0.2920 -0.2168  0.0690
17264SOL    HW155708   5.629   1.409   1.480 -0.1907  1.1171  2.1810
17264SOL    HW255709   5.518   1.317   1.434  1.3534  1.3218 -2.4450
17265SOL     OW55710   0.188  10.022   4.109 -0.3697 -0.4826  0.0786
17265SOL    HW155711   0.164  10.057   4.194 -2.3873 -0.8975 -0.2717
17265SOL    HW255712   0.137  10.072   4.046  0.9467 -0.3070 -0.9055
17266SOL     OW55713   3.940   6.500   4.456  0.6737  0.1198 -0.3010
17266SOL    HW155714   3.999   6.570   4.425 -1.5074  2.0740 -0.2889
17266SOL    HW255715   3.872   6.546   4.505  0.1389 -2.2465  1.3312
17267SOL     OW55716   1.481   8.085   3.094  0.1599 -0.0755  0.1404
17267SOL    HW155717   1.518   8.173   3.102 -0.6925  0.2669  0.5272
17267SOL    HW255718   1.455   8.079   3.002 -0.1712  0.2580  0.2054
17268SOL     OW55719   2.218   4.898   6.247  0.4493 -0.0309  0.1791
17268SOL    HW155720   2.230   4.879   6.154  1.6963 -2.3638  0.7248
17268SOL    HW255721   2.135   4.857   6.269  1.3470 -1.7393  0.5631
17269SOL     OW55722   3.624   4.342   7.129  0.3831 -0.1402  0.1953
17269SOL    HW155723   3.594   4.395   7.056 -2.8913 -1.1114  0.6799
17269SOL    HW255724   3.605   4.394   7.207  0.6735 -0.4913  0.5066
17270SOL     OW55725   0.228   8.319   3.012 -0.3127 -0.3893  0.2596
17270SOL    HW155726   0.254   8.339   2.922 -0.3133 -0.0196  0.3396
17270SOL    HW255727   0.294   8.258   3.044 -0.9606 -1.4690 -0.3807
17271SOL     OW55728   3.245   2.521   6.289 -0.5821  0.1070 -0.2166
17271SOL    HW155729   3.206   2.600   6.328  0.2522 -0.0346  0.9585
17271SOL    HW255730   3.175   2.456   6.292 -0.9066  0.4549 -0.0892
17272SOL     OW55731   0.553  10.161   0.778 -0.5137 -0.2148 -0.3257
17272SOL    HW155732   0.634  10.207   0.756 -1.6950  2.8417  1.0843
17272SOL    HW255733   0.545  10.093   0.712  1.3171  1.7661 -2.7815
17273SOL     OW55734   3.981   6.854   4.174 -0.1583 -0.6177  0.1414
17273SOL    HW155735   3.911   6.878   4.235 -1.4377 -1.3047 -0.9986
17273SOL    HW255736   4.045   6.925   4.181 -0.9392  0.0066  1.2512
17274SOL     OW55737   8.737   9.908   9.567 -0.5119 -0.5038  0.1161
17274SOL    HW155738   8.676   9.879   9.635  0.0828  0.5666  1.1401
17274SOL    HW255739   8.751  10.001   9.585 -0.5551 -0.1070 -1.6599
17275SOL     OW55740   0.466   7.489   3.911 -0.4521 -0.1088  0.0002
17275SOL    HW155741   0.508   7.555   3.967  0.5622 -1.9197  1.4809
17275SOL    HW255742   0.441   7.419   3.971 -1.6036 -1.0365 -1.5065
17276SOL     OW55743   0.072   4.827   5.582 -0.2449 -0.2984  0.3162
17276SOL    HW155744  -0.021   4.838   5.562 -0.7706 -4.9126 -0.8502
17276SOL    HW255745   0.117   4.855   5.503 -0.4789  2.3966  1.0446
17277SOL     OW55746   5.445   5.001   5.036  0.3163 -0.0555 -0.2034
17277SOL    HW155747   5.505   4.976   4.965 -0.4878  2.3218 -1.8363
17277SOL    HW255748   5.476   5.087   5.064  0.2904 -0.7150  2.0452
17278SOL     OW55749   5.931   0.653   4.668  0.1594  0.6918 -0.5265
17278SOL    HW155750   5.953   0.713   4.597  1.1555  0.3747 -0.4954
17278SOL    HW255751   5.945   0.565   4.631 -1.6391  0.4361 -0.6947
17279SOL     OW55752   6.637   1.684  10.075  0.1309 -0.1765  0.7699
17279SOL    HW155753   6.575   1.756  10.061 -0.3336 -0.3659  1.7739
17279SOL    HW255754   6.627   1.629   9.997  0.5913  0.9037 -0.0716
17280SOL     OW55755   8.867   8.319   1.122  0.1477  0.2708 -0.1248
17280SOL    HW155756   8.788   8.324   1.068  1.0732 -1.4768 -1.7469
17280SOL    HW255757   8.855   8.240   1.175  0.3198  0.6383  0.4712
17281SOL     OW55758   7.449   7.821   8.281  0.0627  0.3353 -0.2411
17281SOL    HW155759   7.395   7.883   8.231 -1.3264  1.1947  2.1376
17281SOL    HW255760   7.499   7.876   8.341  0.4674 -0.7334  0.4291
17282SOL     OW55761   7.228   1.167   3.243  0.0383 -0.1911  0.0277
17282SOL    HW155762   7.251   1.208   3.159  0.3131  3.0565  1.5385
17282SOL    HW255763   7.305   1.115   3.266  0.6867  0.3276 -0.8907
17283SOL     OW55764   8.743   6.620   2.599 -0.3090  0.0740  0.0683
17283SOL    HW155765   8.656   6.652   2.576  0.0894  0.4518 -0.9832
17283SOL    HW255766   8.780   6.689   2.654  0.1375  0.9435 -1.2937
17284SOL     OW55767   8.164   7.282   9.021 -0.0263 -0.4573 -0.5208
17284SOL    HW155768   8.093   7.347   9.025 -1.5756 -2.1234  0.6335
17284SOL    HW255769   8.147   7.224   9.095  0.8147 -2.6742 -1.9886
17285SOL     OW55770   5.940   7.657   7.106  0.6175  0.0119 -0.9094
17285SOL    HW155771   5.972   7.707   7.032  1.3842  0.5617 -0.2268
17285SOL    HW255772   6.010   7.663   7.171  0.1306 -0.7841 -0.2876
17286SOL     OW55773   8.653   6.143   7.679 -0.2693 -0.2384  0.5648
17286SOL    HW155774   8.685   6.180   7.597 -1.2889  0.6419  0.5443
17286SOL    HW255775   8.690   6.200   7.747 -2.4571  1.3660  0.4960
17287SOL     OW55776   2.873   0.720   7.863  0.1629  0.2081 -0.7364
17287SOL    HW155777   2.858   0.747   7.953  0.0313  0.0428 -0.7068
17287SOL    HW255778   2.812   0.772   7.811  1.1946  1.2957 -0.8812
17288SOL     OW55779   3.106   4.455   6.330 -0.2307  0.2953 -0.5895
17288SOL    HW155780   3.056   4.374   6.339 -0.8935  0.8239  0.6693
17288SOL    HW255781   3.092   4.481   6.238 -1.4671 -0.0926 -0.5300
17289SOL     OW55782   2.252   7.462   6.898 -0.3928 -0.6670 -0.2002
17289SOL    HW155783   2.317   7.392   6.889 -1.2114 -1.6573  1.2922
17289SOL    HW255784   2.264   7.494   6.987 -2.4255 -1.3586  0.3589
17290SOL     OW55785   9.694   0.512   0.157  0.1447  0.1704  0.8377
17290SOL    HW155786   9.616   0.543   0.202  0.1168  2.9054 -0.8530
17290SOL    HW255787   9.741   0.592   0.132  1.1237 -1.1872 -2.2045
17291SOL     OW55788   4.782   4.968   4.591 -0.2613  0.2185 -0.0081
17291SOL    HW155789   4.745   4.909   4.657 -2.2640  0.5194 -0.8082
17291SOL    HW255790   4.853   4.918   4.551  0.1826 -0.4274  1.5069
17292SOL     OW55791   8.400   0.074   9.233  0.1763  0.1838  0.3521
17292SOL    HW155792   8.494   0.063   9.250  0.1904  0.5899  0.5411
17292SOL    HW255793   8.361   0.084   9.319  0.0430  0.6567  0.2381
17293SOL     OW55794   0.261   9.817   8.930 -0.2655  0.2290  0.1063
17293SOL    HW155795   0.248   9.765   8.851  2.2781 -0.2210 -0.1010
17293SOL    HW255796   0.308   9.895   8.901 -0.3636  0.6296  0.9906
17294SOL     OW55797   8.468   0.273   3.704  0.1589  0.0427  0.1770
17294SOL    HW155798   8.399   0.222   3.746  0.2502 -1.3569 -1.2970
17294SOL    HW255799   8.534   0.208   3.679  1.3181  1.1687  0.2071
17295SOL     OW55800   4.915   1.495   7.549 -0.1898  0.5530 -0.1890
17295SOL    HW155801   4.857   1.531   7.483  0.3410  2.9460  0.5713
17295SOL    HW255802   4.952   1.571   7.594  2.7943 -0.8586  0.0138
17296SOL     OW55803   7.858   8.164   8.214 -0.4391 -0.2851 -0.4747
17296SOL    HW155804   7.904   8.208   8.143 -0.7282 -0.7015 -0.9210
17296SOL    HW255805   7.772   8.142   8.178 -1.5347  1.6537  0.7374
17297SOL     OW55806   3.599   7.571   3.535  0.6059  0.2751  0.2012
17297SOL    HW155807   3.646   7.540   3.457 -0.2491  0.2151 -0.3056
17297SOL    HW255808   3.597   7.495   3.593  1.9289  0.5432  0.6303
17298SOL     OW55809   6.043   0.257   1.981 -0.0906 -0.6564 -0.2050
17298SOL    HW155810   6.118   0.294   1.935 -0.5343  0.0684 -0.3599
17298SOL    HW255811   6.021   0.323   2.047 -2.1948  0.4207 -1.8299
17299SOL     OW55812   6.794   6.585   4.634  0.3420  0.5988  0.3817
17299SOL    HW155813   6.856   6.640   4.586 -0.9044  1.4334 -0.3344
17299SOL    HW255814   6.818   6.495   4.610  0.3194  0.9686 -1.0848
17300SOL     OW55815   6.569   8.939   9.602 -0.0395  0.3592  0.1590
17300SOL    HW155816   6.621   9.010   9.564  1.9066 -2.3774 -2.7229
17300SOL    HW255817   6.500   8.923   9.538 -1.6743  0.7842  1.7149
17301SOL     OW55818   1.479   0.523   6.262 -0.4409 -0.1950 -0.8584
17301SOL    HW155819   1.428   0.488   6.189 -0.3895  1.4256 -1.7146
17301SOL    HW255820   1.569   0.497   6.243 -0.4158  0.2956 -1.4324
17302SOL     OW55821   1.237   5.005   7.528  0.0569 -0.2234 -0.8117
17302SOL    HW155822   1.222   5.062   7.453  0.3749  0.0699 -0.6540
17302SOL    HW255823   1.324   4.968   7.515  0.0911 -0.2152 -0.6187
17303SOL     OW55824   9.309   9.228   6.346  0.0053 -0.2578 -0.2248
17303SOL    HW155825   9.361   9.269   6.276  0.2615  0.8234  0.5730
17303SOL    HW255826   9.234   9.286   6.357  0.9544  0.6958  1.7149
17304SOL     OW55827  10.100   1.509   7.958  0.1150 -0.2173 -0.2714
17304SOL    HW155828  10.080   1.543   8.045  1.6341 -0.1037  0.0691
17304SOL    HW255829  10.147   1.579   7.914  0.2113 -0.6230 -0.8355
17305SOL     OW55830   5.278   7.289   2.126  0.0253  0.6339 -0.5234
17305SOL    HW155831   5.251   7.304   2.035 -0.8579 -0.2636 -0.4402
17305SOL    HW255832   5.219   7.219   2.156 -0.2847  1.5108  1.0099
17306SOL     OW55833   6.308   7.095   6.036  0.6387  0.0912 -0.0134
17306SOL    HW155834   6.304   7.098   6.132  0.6980 -1.3302  0.0530
17306SOL    HW255835   6.253   7.168   6.008 -0.5659 -0.3514  1.1032
17307SOL     OW55836   8.130   8.067   5.847  0.4707  0.1912  0.3452
17307SOL    HW155837   8.143   8.032   5.936  0.5568 -0.5514  0.0476
17307SOL    HW255838   8.218   8.076   5.811  0.4124 -0.0121  0.1480
17308SOL     OW55839   1.368   3.863   8.774 -0.0494 -0.3893  0.0040
17308SOL    HW155840   1.314   3.789   8.802 -1.3160  0.0340 -1.2172
17308SOL    HW255841   1.305   3.932   8.753  1.0508  0.6243 -0.0709
17309SOL     OW55842   4.156   1.908   7.988  0.0541 -0.0878 -0.0076
17309SOL    HW155843   4.213   1.886   7.915 -0.3663 -1.2109 -0.0075
17309SOL    HW255844   4.067   1.906   7.951 -0.0034  2.5850 -0.2499
17310SOL     OW55845   4.687  10.127   2.567  0.3750  0.7980  0.0634
17310SOL    HW155846   4.653  10.043   2.538  0.0619  1.3472 -1.2381
17310SOL    HW255847   4.609  10.178   2.590  0.5449  0.8295  0.5848
17311SOL     OW55848   9.710   2.385   2.582  0.1223 -0.1070  0.5162
17311SOL    HW155849   9.643   2.438   2.627  0.5163 -0.2197  1.2425
17311SOL    HW255850   9.764   2.350   2.652 -0.1704 -1.5496  0.0616
17312SOL     OW55851   3.309   8.687  10.138  0.4441  0.3939 -0.4438
17312SOL    HW155852   3.400   8.701  10.109  1.0841  0.6630  1.5621
17312SOL    HW255853   3.292   8.594  10.121  0.2660  0.8045 -2.9045
17313SOL     OW55854   0.475   8.892   8.377 -0.0535  0.2530 -0.3529
17313SOL    HW155855   0.530   8.857   8.306 -1.2131 -0.8561 -0.7529
17313SOL    HW255856   0.385   8.870   8.350 -0.7678  2.4355  0.0439
17314SOL     OW55857   0.949   5.538   4.767 -0.3732 -0.3596  0.4909
17314SOL    HW155858   1.043   5.554   4.778 -0.1749 -0.0689 -1.4048
17314SOL    HW255859   0.929   5.569   4.679 -2.1855 -0.7570  0.7267
17315SOL     OW55860   6.715   3.579   2.454 -0.1701 -0.8024  0.4962
17315SOL    HW155861   6.719   3.667   2.493  0.6141 -0.8258  0.4911
17315SOL    HW255862   6.650   3.533   2.506 -0.4895 -0.2540  0.5851
17316SOL     OW55863   5.230   0.646   0.033 -0.3252  0.9478 -1.3248
17316SOL    HW155864   5.242   0.612   0.122  0.6686  0.8543 -1.4844
17316SOL    HW255865   5.265   0.577  -0.024 -1.0143  0.9807 -1.7934
17317SOL     OW55866   9.232   3.546   0.760 -0.1369 -0.4475  0.1738
17317SOL    HW155867   9.252   3.620   0.818 -0.3959  0.1471 -0.4788
17317SOL    HW255868   9.145   3.565   0.726 -0.4670 -1.3778  0.4768
17318SOL     OW55869  10.028   1.506   4.764 -0.4202 -0.1894 -0.0825
17318SOL    HW155870  10.069   1.487   4.848  1.1198 -0.7174 -0.9070
17318SOL    HW255871   9.961   1.572   4.783 -0.2905 -0.5199  1.5804
17319SOL     OW55872   4.297   3.192   5.451  0.5693  0.4025  0.0559
17319SOL    HW155873   4.316   3.100   5.432 -1.7469  0.0690 -0.9078
17319SOL    HW255874   4.363   3.240   5.401  1.4801 -0.7037  0.1412
17320SOL     OW55875   5.951   6.484   8.422  0.0586 -0.1845  0.5661
17320SOL    HW155876   5.908   6.522   8.498  1.6574 -1.1507  2.0268
17320SOL    HW255877   5.969   6.558   8.365  2.2576  1.2646  2.9105
17321SOL     OW55878   6.492   7.324   5.851 -0.3742  0.2186 -0.0064
17321SOL    HW155879   6.492   7.419   5.849  0.0868  0.2450  0.9206
17321SOL    HW255880   6.422   7.299   5.791  1.1787  1.0770 -2.3433
17322SOL     OW55881   3.584   8.387   2.883 -0.0086  0.1224  0.6912
17322SOL    HW155882   3.621   8.464   2.839  1.2552 -0.1279  1.2518
17322SOL    HW255883   3.622   8.390   2.971  2.1587 -2.4757 -0.0272
17323SOL     OW55884   1.903   5.309   6.081 -0.1816  0.0684  0.1407
17323SOL    HW155885   1.988   5.305   6.126  1.1488  0.9060 -2.1559
17323SOL    HW255886   1.881   5.218   6.063  0.8426 -0.0970 -0.3119
17324SOL     OW55887   9.629   0.820  10.049  0.4252  0.3017  0.0651
17324SOL    HW155888   9.600   0.737  10.010  1.3641 -0.7181  1.4176
17324SOL    HW255889   9.553   0.852  10.098 -0.7666  1.6032 -2.4894
17325SOL     OW55890   4.876   5.198   7.455 -0.0096 -0.0634  0.2591
17325SOL    HW155891   4.793   5.246   7.445  0.4371  0.4306 -1.3676
17325SOL    HW255892   4.915   5.201   7.368  0.7787 -2.0588  0.5111
17326SOL     OW55893   3.969   8.468   0.350 -0.2704  0.2214 -0.1991
17326SOL    HW155894   3.892   8.461   0.405  1.5659  1.4545  2.7555
17326SOL    HW255895   3.944   8.530   0.281 -2.4136 -0.7636 -0.3667
17327SOL     OW55896   9.043   7.762   7.665 -0.1700 -0.3241 -0.0658
17327SOL    HW155897   8.996   7.766   7.582 -0.4529 -0.4364  0.0859
17327SOL    HW255898   9.129   7.727   7.643 -0.5968 -1.3261 -0.1680
17328SOL     OW55899   8.462   5.689   9.693 -0.6465 -0.1886  0.1862
17328SOL    HW155900   8.416   5.689   9.609 -0.5199 -0.0202  0.1162
17328SOL    HW255901   8.555   5.679   9.670 -0.7476 -1.8108  0.3853
17329SOL     OW55902   7.627   9.414   1.942 -0.1135  0.0735  0.0914
17329SOL    HW155903   7.572   9.482   1.905  0.3010 -0.3268 -1.3405
17329SOL    HW255904   7.623   9.428   2.037 -0.7951  1.4716 -0.1200
17330SOL     OW55905   7.649   3.669   8.593  0.5851  0.1619 -0.2566
17330SOL    HW155906   7.653   3.665   8.689  0.9107 -0.3520 -0.2914
17330SOL    HW255907   7.739   3.690   8.567  0.6952 -0.6074 -0.4966
17331SOL     OW55908  10.085   8.872   5.284  0.2790  0.1659  0.5843
17331SOL    HW155909  10.154   8.843   5.224  0.1301 -0.7641  0.8474
17331SOL    HW255910  10.071   8.797   5.342 -0.2707  0.6983  1.1512
17332SOL     OW55911   4.366   6.917   1.456  0.5873 -0.6370 -0.5960
17332SOL    HW155912   4.333   6.855   1.391  1.5060 -0.6257 -1.0968
17332SOL    HW255913   4.427   6.973   1.407 -0.3868  0.8170 -0.2018
17333SOL     OW55914   9.360   3.342   8.212 -0.0298 -0.3173  0.1482
17333SOL    HW155915   9.350   3.267   8.272  0.1271 -1.7882 -1.5783
17333SOL    HW255916   9.449   3.373   8.228 -0.8252  1.0053  2.4696
17334SOL     OW55917   2.868   2.179   0.002  0.6511  0.0753 -0.4449
17334SOL    HW155918   2.917   2.104   0.036  3.0545  1.3006 -1.0162
17334SOL    HW255919   2.857   2.161  -0.091 -2.2219 -1.2846  0.0259
17335SOL     OW55920   9.931   9.155   9.188  0.4624  0.2813  0.0474
17335SOL    HW155921   9.846   9.200   9.187  0.0384 -0.4808  0.7266
17335SOL    HW255922   9.959   9.156   9.279  0.6066 -0.5160  0.0251
17336SOL     OW55923   4.352   8.076   0.254 -0.0617 -0.2649  0.0296
17336SOL    HW155924   4.279   8.135   0.274  0.1203 -0.9503  3.3271
17336SOL    HW255925   4.319   8.019   0.184 -2.1409  0.4016  0.3992
17337SOL     OW55926   5.777   9.003   3.404 -0.2444 -0.0481  0.1926
17337SOL    HW155927   5.866   8.971   3.415 -0.8963 -1.9766  0.2756
17337SOL    HW255928   5.767   9.014   3.310  0.2696  0.8165  0.2296
17338SOL     OW55929   4.794   4.777   4.354  0.4545 -0.1327 -0.2003
17338SOL    HW155930   4.707   4.810   4.329  0.2723  0.6506  1.3333
17338SOL    HW255931   4.782   4.744   4.443  1.4154 -1.3615 -0.5052
17339SOL     OW55932   4.459   6.770   2.925 -0.4899 -0.0815  0.5471
17339SOL    HW155933   4.498   6.826   2.993 -1.2215  0.1738  0.7664
17339SOL    HW255934   4.366   6.793   2.926 -1.0903 -2.2779  1.6049
17340SOL     OW55935   4.568   6.925   1.820  0.0665  0.0010  0.2983
17340SOL    HW155936   4.507   6.858   1.787  0.7662 -0.4000 -0.2121
17340SOL    HW255937   4.648   6.876   1.841  0.6454  0.7014 -0.2306
17341SOL     OW55938   8.902   6.827   2.717 -0.4065 -0.2226  0.1559
17341SOL    HW155939   8.868   6.862   2.799  1.0328 -0.2827  0.7959
17341SOL    HW255940   8.959   6.896   2.683 -0.1270 -0.6356 -0.2333
17342SOL     OW55941   6.686   6.810   5.171  0.2387 -0.3331  0.0713
17342SOL    HW155942   6.619   6.766   5.120 -0.3347 -0.5024  0.9548
17342SOL    HW255943   6.724   6.874   5.111 -0.8436 -0.0982 -0.3825
17343SOL     OW55944   7.174   3.656  10.177 -0.2028  0.2117 -0.2736
17343SOL    HW155945   7.134   3.741  10.197  1.5960  1.3107 -1.1254
17343SOL    HW255946   7.196   3.620  10.263 -0.3956  0.9064  0.0778
17344SOL     OW55947   0.665   9.650   8.842 -0.3234 -0.0622  0.4403
17344SOL    HW155948   0.730   9.695   8.788 -0.7094 -1.3298 -1.1624
17344SOL    HW255949   0.688   9.673   8.932  1.8853  0.1214 -0.1145
17345SOL     OW55950   4.139   8.017  10.094  0.1031 -0.3974  0.1757
17345SOL    HW155951   4.089   8.034  10.014 -0.2502  0.5766  0.5943
17345SOL    HW255952   4.072   8.001  10.161  0.3448  0.4583  0.6399
17346SOL     OW55953   7.343   1.162   1.481  0.1379 -0.8022 -0.2041
17346SOL    HW155954   7.418   1.211   1.516  0.6151 -0.1045 -2.0889
17346SOL    HW255955   7.379   1.076   1.459 -0.3041 -1.4646  1.4776
17347SOL     OW55956   4.256   1.801   3.694  0.4049 -0.9899 -0.0483
17347SOL    HW155957   4.329   1.750   3.729  0.8245 -0.3544  0.0160
17347SOL    HW255958   4.282   1.892   3.706 -0.9123 -0.7218  1.1249
17348SOL     OW55959   9.653   7.747   3.641 -0.5458  0.2884  0.5449
17348SOL    HW155960   9.745   7.723   3.627 -0.4918  0.9369 -0.2881
17348SOL    HW255961   9.619   7.762   3.553 -1.2753  0.6742  0.8893
17349SOL     OW55962   2.976   1.340   8.324  0.2615  0.1747 -0.2304
17349SOL    HW155963   2.909   1.363   8.259 -1.5066  0.4111  1.5646
17349SOL    HW255964   2.978   1.415   8.383  1.2385 -0.3679  0.4418
17350SOL     OW55965   6.286   5.362   8.619  0.0205 -0.0352 -0.3331
17350SOL    HW155966   6.214   5.330   8.673 -0.1682  0.6308 -0.1831
17350SOL    HW255967   6.267   5.455   8.606  0.8809  0.1605 -0.2444
17351SOL     OW55968   9.996   1.360   3.541  0.1609 -1.1534  0.6063
17351SOL    HW155969  10.015   1.441   3.493  0.4043  0.0476  2.6313
17351SOL    HW255970  10.082   1.328   3.568  0.0861 -2.2774 -0.4162
17352SOL     OW55971   6.466   2.548   6.880 -0.1926  0.2693  0.2063
17352SOL    HW155972   6.518   2.615   6.924  0.1394 -1.1417  2.0956
17352SOL    HW255973   6.408   2.514   6.949 -0.3031 -1.4110 -0.6647
17353SOL     OW55974   6.513   5.117   8.146  0.7245  0.1434  0.3382
17353SOL    HW155975   6.553   5.101   8.061  0.7732  1.9294 -0.0117
17353SOL    HW255976   6.447   5.183   8.129  0.3347  0.0991  1.5988
17354SOL     OW55977   8.577   6.763   2.253 -0.6133  0.4232 -0.0521
17354SOL    HW155978   8.672   6.770   2.263 -0.2354 -1.7319 -1.4076
17354SOL    HW255979   8.556   6.822   2.181 -0.5145  1.8046  1.0204
17355SOL     OW55980   5.073   3.399   3.946 -0.6177  0.6733 -0.0504
17355SOL    HW155981   5.079   3.331   3.879 -0.7734 -0.1150  0.7092
17355SOL    HW255982   5.151   3.453   3.933 -0.6236  0.5007 -0.8255
17356SOL     OW55983   7.514   9.573   7.391 -0.1675  0.0408 -0.2825
17356SOL    HW155984   7.538   9.646   7.448  2.5324 -1.8854  1.2887
17356SOL    HW255985   7.521   9.608   7.302  0.3092  1.8781  0.4471
17357SOL     OW55986   7.131   6.850   2.317  0.4906  0.0172 -0.1123
17357SOL    HW155987   7.169   6.938   2.327 -0.8311  0.6213 -0.1692
17357SOL    HW255988   7.177   6.796   2.381  2.7419  0.2372 -1.4146
17358SOL     OW55989   7.740   0.749   3.385 -0.2034 -0.3916  0.1083
17358SOL    HW155990   7.669   0.803   3.352  0.4124 -0.5092 -1.4751
17358SOL    HW255991   7.820   0.792   3.355  0.3285 -1.6154 -0.3282
17359SOL     OW55992   0.634   8.161   6.866  0.1498 -0.5017 -0.5914
17359SOL    HW155993   0.571   8.133   6.933 -0.6801  0.5179 -0.9271
17359SOL    HW255994   0.682   8.081   6.843 -1.6604 -1.5001 -1.0196
17360SOL     OW55995   2.187   7.375   7.871  0.2510  0.0103  0.1907
17360SOL    HW155996   2.278   7.378   7.843 -0.0247  1.5806 -0.6254
17360SOL    HW255997   2.147   7.452   7.831 -1.8253 -1.4936 -0.8352
17361SOL     OW55998   9.526  10.145   2.172 -0.0220 -0.0289 -0.1716
17361SOL    HW155999   9.584  10.103   2.235  1.2820  0.0395 -1.2696
17361SOL    HW256000   9.508  10.077   2.106 -2.2340 -0.4351  0.7571
17362SOL     OW56001   8.090   1.231   0.228 -0.0986 -0.2365 -0.2103
17362SOL    HW156002   8.024   1.182   0.180 -1.0798  1.1514 -0.3355
17362SOL    HW256003   8.078   1.322   0.201  1.0052  0.2291  0.7472
17363SOL     OW56004   0.851   1.332   4.388 -0.2995  0.1888  0.4892
17363SOL    HW156005   0.814   1.319   4.475  1.8642 -2.1468  1.2044
17363SOL    HW256006   0.901   1.413   4.394 -4.3532  3.0595 -0.3226
17364SOL     OW56007   9.500   7.060   7.576 -0.7163  0.5328  0.1191
17364SOL    HW156008   9.524   7.137   7.525  1.8167  0.2842  0.8176
17364SOL    HW256009   9.511   7.087   7.667  0.3185 -0.6432  0.3721
17365SOL     OW56010   4.724   0.769   3.143  0.3155  0.1308 -0.5996
17365SOL    HW156011   4.756   0.709   3.076  3.2843  1.3232 -0.3897
17365SOL    HW256012   4.746   0.856   3.110 -0.2196  0.8696  0.9036
17366SOL     OW56013   9.255   9.011   6.755 -0.2214 -0.3179 -0.0897
17366SOL    HW156014   9.187   9.059   6.708 -1.1584 -1.6227 -0.1315
17366SOL    HW256015   9.211   8.974   6.831  0.6475 -0.4928  0.3503
17367SOL     OW56016   7.402   8.985   4.566  0.0899  0.0308  0.4517
17367SOL    HW156017   7.456   8.914   4.532  0.4187  0.1034  0.8066
17367SOL    HW256018   7.370   8.952   4.650  1.9159  1.0577  1.6125
17368SOL     OW56019   7.622   0.803   7.309 -0.1199 -0.3925  0.1947
17368SOL    HW156020   7.698   0.831   7.259 -0.2898 -0.0241  0.1362
17368SOL    HW256021   7.636   0.709   7.325 -0.3037 -0.6335 -0.9634
17369SOL     OW56022   2.999   0.527   2.650  0.3797 -0.6816 -0.2449
17369SOL    HW156023   3.040   0.446   2.681  1.0129 -0.1729  0.2976
17369SOL    HW256024   3.036   0.595   2.707 -1.0506 -0.1617  0.1110
17370SOL     OW56025   9.481   9.422   7.033 -0.1132  0.3151 -1.0360
17370SOL    HW156026   9.480   9.387   7.123  2.1090 -1.2597 -1.5334
17370SOL    HW256027   9.391   9.412   7.002 -0.5984 -0.4720  0.5286
17371SOL     OW56028   9.179   8.617   4.055 -0.0798  0.6066 -0.1947
17371SOL    HW156029   9.255   8.564   4.079 -0.5463 -0.5940 -1.2749
17371SOL    HW256030   9.168   8.602   3.961 -2.2784 -0.0949  0.1333
17372SOL     OW56031   8.065   0.571   7.991  0.7070  0.3560 -0.5234
17372SOL    HW156032   8.038   0.481   7.972 -1.3245  1.0147 -1.0284
17372SOL    HW256033   8.135   0.562   8.057 -0.7748 -1.5293  0.9078
17373SOL     OW56034   5.309   0.606   5.411 -0.0583 -0.7343 -0.0548
17373SOL    HW156035   5.280   0.515   5.415 -1.2303 -0.4883 -1.7815
17373SOL    HW256036   5.279   0.644   5.494  0.3697 -1.8778  0.6461
17374SOL     OW56037   8.327   1.667   5.313 -0.3390  0.4389 -0.6713
17374SOL    HW156038   8.379   1.724   5.371 -1.5167  0.2292  0.6429
17374SOL    HW256039   8.281   1.727   5.255 -0.4522  0.7547 -0.2603
17375SOL     OW56040   3.255   5.616   1.479  0.0940 -0.4688 -0.4947
17375SOL    HW156041   3.309   5.695   1.482 -2.7286  1.6447 -1.2252
17375SOL    HW256042   3.318   5.544   1.478  2.8177  1.7430 -0.0621
17376SOL     OW56043   3.362   8.138   1.414 -0.1731  0.1377  0.2696
17376SOL    HW156044   3.343   8.225   1.378 -1.0550  0.5485  1.6755
17376SOL    HW256045   3.381   8.153   1.506  2.4025 -0.8574 -0.0163
17377SOL     OW56046   4.129   6.775   7.267 -0.3655 -0.0617 -0.8227
17377SOL    HW156047   4.217   6.814   7.270 -0.2199 -0.4215  0.3864
17377SOL    HW256048   4.136   6.698   7.323 -1.9316  0.9512  0.8775
17378SOL     OW56049   6.565   6.775   3.928 -0.1002  0.0841  0.6530
17378SOL    HW156050   6.528   6.828   3.857  0.3821 -1.7937 -1.0829
17378SOL    HW256051   6.660   6.780   3.914 -0.0510 -1.3013  0.3628
17379SOL     OW56052   1.788   3.716   2.636 -0.0315  0.0829 -0.2925
17379SOL    HW156053   1.762   3.763   2.715  1.0843 -1.0244  0.7718
17379SOL    HW256054   1.720   3.738   2.572 -0.7057  1.3757  0.8104
17380SOL     OW56055   5.982   5.502   6.731  0.3786  0.2899 -0.3529
17380SOL    HW156056   5.961   5.437   6.797 -1.1920  1.5440  0.4517
17380SOL    HW256057   5.980   5.586   6.778  2.0181  0.9770 -1.4166
17381SOL     OW56058   8.075   7.062  10.080 -0.4423 -0.7455 -0.3301
17381SOL    HW156059   8.087   7.145  10.127 -0.5668 -1.2649  0.6604
17381SOL    HW256060   7.997   7.023  10.121  1.0429 -2.5079  1.0187
17382SOL     OW56061   0.784  10.001   0.119 -0.1879 -0.0142  0.0750
17382SOL    HW156062   0.693  10.026   0.101 -0.0100  0.1237 -0.6441
17382SOL    HW256063   0.793   9.915   0.079 -0.1980 -0.3447  0.7624
17383SOL     OW56064   1.190   1.251   5.415 -0.0068 -0.2779  0.0602
17383SOL    HW156065   1.140   1.214   5.343 -0.3545 -1.2229  0.7676
17383SOL    HW256066   1.178   1.345   5.407  0.8344 -0.2758 -1.7351
17384SOL     OW56067   0.847   0.324   2.673  0.1889  0.1973  0.0442
17384SOL    HW156068   0.937   0.341   2.647  0.3657  0.3482  0.7344
17384SOL    HW256069   0.854   0.290   2.762 -0.3961 -0.3897 -0.1245
17385SOL     OW56070   0.674   0.888   3.376 -0.3138  0.4988 -0.3489
17385SOL    HW156071   0.650   0.826   3.444 -1.8942 -0.7591 -1.9515
17385SOL    HW256072   0.603   0.952   3.374  0.1324  1.0041 -0.2705
17386SOL     OW56073   3.446   8.430   3.830 -0.4849 -0.1045  0.0752
17386SOL    HW156074   3.509   8.489   3.872 -0.5698  1.0567 -1.3534
17386SOL    HW256075   3.498   8.354   3.803 -0.2150 -0.3319  1.1995
17387SOL     OW56076   4.428   9.029   6.161 -0.8341  0.3004 -0.0261
17387SOL    HW156077   4.398   9.030   6.071  0.5706 -1.7608 -0.5839
17387SOL    HW256078   4.515   9.069   6.158 -0.8459  0.3782  0.4721
17388SOL     OW56079  10.080   0.612   9.288 -0.2996 -0.0752  0.5819
17388SOL    HW156080  10.003   0.604   9.232 -0.3979  0.6603  0.6044
17388SOL    HW256081  10.132   0.534   9.269 -0.5968 -0.1056 -0.1263
17389SOL     OW56082   1.403   8.455   6.567 -0.0128  0.2638 -0.5102
17389SOL    HW156083   1.459   8.532   6.557 -1.8410  1.6319 -0.8193
17389SOL    HW256084   1.441   8.390   6.508  0.6739  1.4896 -1.4696
17390SOL     OW56085   7.508   7.138   6.947 -0.1185  0.1246  0.7042
17390SOL    HW156086   7.543   7.225   6.927  1.0690 -0.2868  0.9424
17390SOL    HW256087   7.420   7.139   6.910 -0.0805  1.3943  0.6085
17391SOL     OW56088   4.324   7.546   8.317  0.5288 -0.2867  0.0617
17391SOL    HW156089   4.323   7.594   8.400  3.2399  0.6891 -0.3767
17391SOL    HW256090   4.322   7.454   8.342 -2.1747 -0.0647  1.0121
17392SOL     OW56091   8.209   9.357   7.604 -0.2420  0.0774  0.4506
17392SOL    HW156092   8.226   9.345   7.511 -1.5747 -2.3141  0.4438
17392SOL    HW256093   8.169   9.275   7.632 -1.5113  1.3896  2.7603
17393SOL     OW56094   3.659   3.180   8.516 -0.2962  0.4159 -1.2644
17393SOL    HW156095   3.701   3.110   8.566 -0.1648 -0.8629 -3.0315
17393SOL    HW256096   3.648   3.142   8.428 -0.0289  2.7141 -2.3531
17394SOL     OW56097   0.195   6.470   8.846  0.0818 -0.6332  0.3001
17394SOL    HW156098   0.258   6.440   8.782 -2.3639 -0.4457 -2.4177
17394SOL    HW256099   0.248   6.509   8.916  2.9936 -3.5700 -0.0595
17395SOL     OW56100   1.535   4.195  10.013 -0.1539 -0.5335 -0.7155
17395SOL    HW156101   1.510   4.187  10.105  0.1938 -0.9481 -0.6546
17395SOL    HW256102   1.510   4.284   9.989 -1.3056 -0.8037 -0.5465
17396SOL     OW56103   2.486  10.204   6.700 -0.0685 -0.8639  0.1631
17396SOL    HW156104   2.554  10.255   6.745 -0.0222 -0.6769 -0.1154
17396SOL    HW256105   2.524  10.184   6.615 -0.0522 -1.4467  0.3069
17397SOL     OW56106   0.738   8.860   5.953  0.5555  0.3876  0.0955
17397SOL    HW156107   0.782   8.796   5.896 -1.4899  1.2043 -2.5990
17397SOL    HW256108   0.771   8.945   5.923 -0.9358  0.8649 -0.2432
17398SOL     OW56109   1.716   5.068   6.428  0.0329 -0.7146  0.5218
17398SOL    HW156110   1.657   5.037   6.361 -0.0006  0.1862  0.1138
17398SOL    HW256111   1.659   5.109   6.494  0.2174  1.0267 -0.3401
17399SOL     OW56112   0.992   0.919   9.266 -0.4412 -0.0463 -0.2332
17399SOL    HW156113   1.025   0.962   9.345  2.1626 -1.3891 -0.5046
17399SOL    HW256114   0.916   0.972   9.240 -0.2583  1.4974  2.1095
17400SOL     OW56115   5.384   7.898   5.701  0.2862  0.0780  0.0379
17400SOL    HW156116   5.392   7.993   5.696 -0.3770  0.1428  0.1691
17400SOL    HW256117   5.317   7.883   5.767  0.8866 -0.5031  0.5389
17401SOL     OW56118   4.207   4.607   0.910  0.6111  0.0818 -0.2406
17401SOL    HW156119   4.143   4.542   0.881  0.4076  1.1114 -2.2852
17401SOL    HW256120   4.230   4.579   0.999  0.5906 -2.8202 -1.0175
17402SOL     OW56121   2.260  10.055   3.548  0.2330 -0.3002 -0.1101
17402SOL    HW156122   2.272   9.965   3.580  1.2957  0.3130  1.3494
17402SOL    HW256123   2.245  10.106   3.628 -2.3645  0.5603 -1.0577
17403SOL     OW56124   9.597   9.352   8.517  0.1808  0.3938  0.2198
17403SOL    HW156125   9.597   9.257   8.506  1.2659  0.6444 -3.4983
17403SOL    HW256126   9.509   9.374   8.546 -0.1477 -1.7004  0.9148
17404SOL     OW56127   0.859   7.894   9.489  0.1833 -0.4566 -0.0122
17404SOL    HW156128   0.898   7.821   9.441 -0.9367 -0.1477 -1.4901
17404SOL    HW256129   0.769   7.865   9.507 -0.4483  0.7307 -1.1030
17405SOL     OW56130   6.167   0.827   5.846  0.1712 -0.2347 -0.4065
17405SOL    HW156131   6.082   0.786   5.827 -0.7529  1.5823 -0.4101
17405SOL    HW256132   6.144   0.913   5.881  1.9874 -0.5101  1.6448
17406SOL     OW56133   4.157   6.941   3.944 -0.1506 -0.5350 -0.1033
17406SOL    HW156134   4.114   6.973   3.864 -0.3685 -1.6375 -0.4369
17406SOL    HW256135   4.171   7.020   3.996 -1.1289  0.0520 -0.6923
17407SOL     OW56136   4.952   1.215   5.335  0.0132  0.1263  0.0095
17407SOL    HW156137   4.966   1.131   5.291 -0.9464  0.5756 -1.2328
17407SOL    HW256138   4.859   1.234   5.321  0.3915  1.8013 -0.5133
17408SOL     OW56139   0.576   3.859   6.657  0.0242  0.5611 -0.5672
17408SOL    HW156140   0.627   3.778   6.663  1.4944  1.5413  2.1670
17408SOL    HW256141   0.634   3.921   6.612  0.5570  1.1255  0.8207
17409SOL     OW56142   2.115   6.210   0.546  0.3922 -0.2145 -0.6114
17409SOL    HW156143   2.191   6.265   0.568 -0.5754  1.1531 -0.6189
17409SOL    HW256144   2.095   6.165   0.627  0.0440  0.8837 -0.0650
17410SOL     OW56145   1.396   9.818   4.058  0.6624  0.5378  0.1909
17410SOL    HW156146   1.372   9.736   4.015  2.8114  0.3972 -0.8461
17410SOL    HW256147   1.481   9.840   4.022  0.9548  2.2950  1.8136
17411SOL     OW56148   8.400   7.038   6.061  0.4956 -0.9967 -0.4460
17411SOL    HW156149   8.316   7.045   6.105  0.1437  0.9949 -1.3138
17411SOL    HW256150   8.395   6.957   6.011 -0.3803 -1.5596  0.5102
17412SOL     OW56151   1.397   8.484   2.587  0.1477  0.2116  0.0884
17412SOL    HW156152   1.354   8.455   2.506  0.8094 -0.8200  0.0916
17412SOL    HW256153   1.367   8.423   2.654  0.0662  0.7083  0.5151
17413SOL     OW56154   3.465   7.229   7.198  0.0437  0.2509 -0.1263
17413SOL    HW156155   3.419   7.252   7.117  1.2355 -0.5277 -1.0683
17413SOL    HW256156   3.557   7.246   7.178  0.2578  1.2706  1.5309
17414SOL     OW56157   7.300   6.167   2.746 -0.5820 -0.1628 -0.4796
17414SOL    HW156158   7.355   6.227   2.796 -0.6654  0.6449 -1.3168
17414SOL    HW256159   7.353   6.144   2.670 -0.9355 -0.3369 -0.6791
17415SOL     OW56160   2.505   9.255   0.970 -0.2016 -0.2922 -0.0255
17415SOL    HW156161   2.497   9.324   0.904  0.4394 -2.1136 -2.1044
17415SOL    HW256162   2.440   9.278   1.036 -0.8312  1.6381 -1.2274
17416SOL     OW56163   0.242   6.989   5.941 -0.2413  0.1423  0.5150
17416SOL    HW156164   0.148   6.992   5.925 -0.4558 -1.7403  1.1113
17416SOL    HW256165   0.270   6.905   5.903  1.6402  1.6253 -1.6606
17417SOL     OW56166   5.284   3.038   0.138  0.5879  0.3530 -0.4646
17417SOL    HW156167   5.372   3.073   0.129  2.1429 -2.9705  0.0788
17417SOL    HW256168   5.255   3.069   0.224  0.7697  2.2369 -1.0363
17418SOL     OW56169   8.437   6.338   7.545 -0.3827  0.3919  0.3027
17418SOL    HW156170   8.355   6.351   7.497  0.4665 -2.3538 -2.2336
17418SOL    HW256171   8.413   6.283   7.620 -0.8332 -0.8473 -0.7235
17419SOL     OW56172   9.199   0.368   0.378  0.2991  0.4763  0.4629
17419SOL    HW156173   9.250   0.300   0.333 -0.3575  0.3456 -0.0863
17419SOL    HW256174   9.222   0.357   0.470 -0.8207 -1.4075  0.5687
17420SOL     OW56175   7.140   5.166   0.939  0.2855  0.7277 -0.3250
17420SOL    HW156176   7.097   5.185   0.856  0.3116  0.0270 -0.5056
17420SOL    HW256177   7.189   5.246   0.960 -1.2456  1.6157 -0.0011
17421SOL     OW56178   2.201   7.334   3.872 -0.3690 -0.0704  0.3240
17421SOL    HW156179   2.263   7.395   3.912  0.8547 -1.1261  0.1245
17421SOL    HW256180   2.182   7.271   3.941  0.4953 -0.9749 -0.2249
17422SOL     OW56181   1.104   3.659   3.878 -0.5409 -0.2417 -0.0605
17422SOL    HW156182   1.009   3.650   3.870 -0.6136  1.5831 -1.8184
17422SOL    HW256183   1.135   3.666   3.788  1.2055 -0.1406  0.5191
17423SOL     OW56184   0.699   0.657   8.688  0.4603  0.4585  0.1935
17423SOL    HW156185   0.685   0.722   8.619  1.1784 -0.0145 -0.4085
17423SOL    HW256186   0.661   0.576   8.653  1.4793  0.0357  0.0302
17424SOL     OW56187   1.359   4.423   3.271  0.0758  0.5667  0.7710
17424SOL    HW156188   1.398   4.511   3.268 -0.2799  0.7159 -1.8100
17424SOL    HW256189   1.428   4.366   3.237 -0.1777  0.0460  1.1247
17425SOL     OW56190   0.967   0.877   3.754  0.6574 -0.0812  0.3860
17425SOL    HW156191   0.961   0.972   3.762  4.2265  0.5688 -2.2564
17425SOL    HW256192   0.973   0.861   3.660 -0.2419 -3.0098  0.7288
17426SOL     OW56193   1.020   5.620   7.472 -0.1881  0.0764  0.7219
17426SOL    HW156194   0.957   5.632   7.543 -0.5493 -0.1247  0.4401
17426SOL    HW256195   1.066   5.539   7.493 -1.6938 -1.0839 -0.3018
17427SOL     OW56196   8.050   1.838   9.048  0.2887  0.0334  0.1371
17427SOL    HW156197   8.092   1.857   8.964 -2.3786  0.6411 -1.1745
17427SOL    HW256198   8.014   1.750   9.037 -0.8589  0.4713  0.2594
17428SOL     OW56199   4.028   5.083   3.402 -0.3985 -0.4050 -0.2964
17428SOL    HW156200   4.031   5.162   3.347 -0.1610  0.2932  0.6986
17428SOL    HW256201   4.093   5.025   3.363 -2.5168 -1.3212 -2.7743
17429SOL     OW56202   8.744   7.503   5.603  0.2538  0.0856 -0.9733
17429SOL    HW156203   8.714   7.594   5.612  2.0938  0.6582 -0.2302
17429SOL    HW256204   8.786   7.500   5.517 -1.3323 -0.5776 -1.7781
17430SOL     OW56205   6.026   9.133   7.661  0.3095 -0.5443  0.3816
17430SOL    HW156206   6.052   9.041   7.669  0.0373 -0.5558  1.3357
17430SOL    HW256207   6.095   9.174   7.609 -0.3029 -1.5809 -1.3065
17431SOL     OW56208   0.645   3.268   0.819  0.4540 -0.6203 -0.1900
17431SOL    HW156209   0.715   3.225   0.868 -0.4464 -1.5147  0.3604
17431SOL    HW256210   0.581   3.294   0.886  0.8770  1.4550 -0.5211
17432SOL     OW56211   9.788   2.081   6.137 -0.0472  0.4171 -0.1045
17432SOL    HW156212   9.699   2.051   6.122 -0.0320  0.8813 -1.3136
17432SOL    HW256213   9.841   2.001   6.139 -0.4601  0.1539  0.4078
17433SOL     OW56214   6.647   7.488   3.882 -0.7200 -0.0846 -0.6754
17433SOL    HW156215   6.739   7.496   3.859 -0.5674 -0.4483 -0.2044
17433SOL    HW256216   6.628   7.395   3.875 -1.6723  0.2073 -3.0708
17434SOL     OW56217   0.016   2.452   0.219 -0.0361 -0.0509  0.3758
17434SOL    HW156218   0.042   2.541   0.193 -3.0313  1.0623  0.8531
17434SOL    HW256219  -0.072   2.441   0.182 -0.0475 -2.5448  1.0052
17435SOL     OW56220   2.591   0.181   0.418  0.1653  0.0488 -0.0924
17435SOL    HW156221   2.515   0.228   0.451  0.5151  1.5990 -1.3628
17435SOL    HW256222   2.657   0.189   0.486 -0.1254  0.4762  0.1398
17436SOL     OW56223  10.083   3.219   1.376 -0.6023 -0.6643  0.1448
17436SOL    HW156224  10.081   3.253   1.465 -0.1568 -1.0927  0.3251
17436SOL    HW256225   9.997   3.241   1.339 -0.4967  0.2126  0.4088
17437SOL     OW56226   8.864   7.974   3.828 -0.1866  0.3241 -0.5966
17437SOL    HW156227   8.946   7.972   3.877 -0.4884 -0.4735 -0.0893
17437SOL    HW256228   8.812   7.903   3.867 -2.1998  2.5269  0.9884
17438SOL     OW56229   8.081   4.565   8.252  0.3519  0.3512 -0.4564
17438SOL    HW156230   7.990   4.593   8.254 -0.0515 -0.9544  0.3079
17438SOL    HW256231   8.124   4.629   8.195  0.1239  4.4007  3.4036
17439SOL     OW56232   3.590   4.616   1.924  0.2507 -0.2237  0.4810
17439SOL    HW156233   3.627   4.697   1.888  4.1585 -2.2783 -0.6282
17439SOL    HW256234   3.517   4.596   1.866  0.3100  1.5939 -0.2852
17440SOL     OW56235   6.565   6.469   8.546 -0.3100  0.2632 -0.1243
17440SOL    HW156236   6.581   6.525   8.470  1.4105  0.8571  0.6429
17440SOL    HW256237   6.511   6.398   8.511  1.9156 -0.4683 -2.3700
17441SOL     OW56238   3.804   4.825   0.226  0.0381  0.5387 -0.4113
17441SOL    HW156239   3.803   4.865   0.139  0.5768 -0.9585 -1.1324
17441SOL    HW256240   3.769   4.737   0.213 -0.2649  0.4323  0.9702
17442SOL     OW56241   7.468   0.279   9.383  0.9708  0.0554 -0.4024
17442SOL    HW156242   7.484   0.299   9.291 -3.6047 -1.6400 -1.8355
17442SOL    HW256243   7.430   0.191   9.383  0.1718  0.2354  3.0381
17443SOL     OW56244   9.765   0.591   1.120  0.3492 -0.3073  0.4577
17443SOL    HW156245   9.762   0.591   1.216  2.0858  0.0932  0.5525
17443SOL    HW256246   9.855   0.618   1.100 -0.3314  0.8078 -1.2982
17444SOL     OW56247   1.237   0.800   3.579 -0.2386 -0.8256 -0.2183
17444SOL    HW156248   1.145   0.798   3.606  0.3723 -2.6051  2.0156
17444SOL    HW256249   1.272   0.879   3.621 -1.1714  1.2040 -2.9944
17445SOL     OW56250   7.738   1.091   3.016  0.2103 -0.1549  0.0139
17445SOL    HW156251   7.749   1.150   3.090 -0.1054 -0.7922  0.5795
17445SOL    HW256252   7.744   1.148   2.939 -0.2909  0.6441  0.5510
17446SOL     OW56253   9.111   4.621   3.986  0.3724  0.0406 -0.1441
17446SOL    HW156254   9.152   4.588   3.906  2.0256  0.2488  0.5741
17446SOL    HW256255   9.131   4.715   3.987 -0.4062  0.2159  0.0835
17447SOL     OW56256   9.042   3.749  10.018  0.2805  0.2589 -0.0382
17447SOL    HW156257   8.998   3.711  10.094  1.2531 -1.5326 -0.3032
17447SOL    HW256258   8.971   3.786   9.965 -0.7805 -1.1743  0.2905
17448SOL     OW56259   3.052   7.427   6.249  0.3781 -0.2642 -0.3008
17448SOL    HW156260   3.082   7.508   6.291 -0.2286 -0.4226  0.4601
17448SOL    HW256261   3.049   7.448   6.155  0.6915  0.4410 -0.1584
17449SOL     OW56262   8.355   4.608   4.148  0.3446 -0.3982 -0.2257
17449SOL    HW156263   8.346   4.624   4.242 -0.2634  0.0416 -0.3519
17449SOL    HW256264   8.265   4.603   4.116  0.5490  0.1393 -0.9005
17450SOL     OW56265   0.054  10.177   7.589 -0.2196  0.4060 -0.2218
17450SOL    HW156266   0.101  10.170   7.672  0.0907  2.3972 -0.1735
17450SOL    HW256267   0.105  10.122   7.528  0.2602 -0.0903  0.6066
17451SOL     OW56268   3.559   6.065   3.340 -0.5699  0.3116 -0.1799
17451SOL    HW156269   3.584   5.976   3.365  0.5436  0.5327 -0.4242
17451SOL    HW256270   3.515   6.100   3.417 -0.7740 -0.3513  0.0140
17452SOL     OW56271   6.493   8.794   0.234  0.0372  0.3179 -0.4128
17452SOL    HW156272   6.469   8.874   0.280 -0.7977  0.2169 -0.6466
17452SOL    HW256273   6.410   8.749   0.219  0.5088 -0.6748 -0.1393
17453SOL     OW56274   4.390   3.184   6.667 -0.9536 -0.0185 -0.4217
17453SOL    HW156275   4.408   3.182   6.573 -0.0577 -3.3471 -0.2815
17453SOL    HW256276   4.454   3.125   6.706 -3.1684 -1.0684  1.9085
17454SOL     OW56277   7.979   6.642   0.039 -0.0488 -0.2632  0.4164
17454SOL    HW156278   7.965   6.682  -0.046  1.6853 -0.3567  0.0544
17454SOL    HW256279   8.024   6.560   0.021  1.0743  0.0954  1.4561
17455SOL     OW56280  10.020   3.896   5.044 -0.3843 -0.6720 -0.2310
17455SOL    HW156281  10.093   3.857   5.092  0.0995 -2.1047 -2.0151
17455SOL    HW256282  10.061   3.942   4.971 -1.2480 -1.7238 -1.4137
17456SOL     OW56283   1.211   4.223   2.620 -0.3739 -0.1067 -1.1105
17456SOL    HW156284   1.280   4.269   2.667 -1.2808  1.2302 -1.0579
17456SOL    HW256285   1.138   4.218   2.682 -1.2198  0.7717 -1.9878
17457SOL     OW56286   0.342   9.288   1.010 -0.1766  0.7477 -0.1251
17457SOL    HW156287   0.253   9.254   1.013 -0.0166  0.3308  0.0456
17457SOL    HW256288   0.339   9.369   1.060 -0.0394 -0.2986  1.6916
17458SOL     OW56289   7.609   0.091   3.831 -0.4536  0.3617 -0.1334
17458SOL    HW156290   7.523   0.056   3.809 -1.3010  1.7991  0.7481
17458SOL    HW256291   7.617   0.170   3.777  0.1157  0.4767  0.1165
17459SOL     OW56292   8.594   7.270   5.393  0.1494  0.1043 -0.0871
17459SOL    HW156293   8.669   7.317   5.357 -1.2244  0.8575 -2.1371
17459SOL    HW256294   8.563   7.215   5.321 -2.3190  1.1591  0.0724
17460SOL     OW56295   0.332   9.862   6.648  0.1278  0.5478 -0.0763
17460SOL    HW156296   0.364   9.794   6.706 -1.5836  0.7187  1.1410
17460SOL    HW256297   0.242   9.877   6.676  0.1877  2.7187 -0.8678
17461SOL     OW56298   6.620   1.019   0.827  0.0850  0.4745 -0.2785
17461SOL    HW156299   6.633   0.955   0.758 -0.8410  0.2104 -0.2285
17461SOL    HW256300   6.539   1.065   0.803  1.2477  2.3481 -0.8511
17462SOL     OW56301   0.452   6.051   9.257 -0.0090 -0.0058 -0.1775
17462SOL    HW156302   0.392   5.987   9.295 -0.3791  0.8853  0.7728
17462SOL    HW256303   0.480   6.011   9.174  0.7065 -1.9407  0.9423
17463SOL     OW56304   4.922   6.421   2.198  0.2120  0.3112  0.2498
17463SOL    HW156305   4.884   6.458   2.118  0.1338 -0.7049 -0.1993
17463SOL    HW256306   4.954   6.497   2.247 -0.5584  1.0195 -0.3191
17464SOL     OW56307   1.135   8.392   2.478 -0.3131  0.7657 -0.4103
17464SOL    HW156308   1.090   8.464   2.521  0.9896  1.8670 -0.8345
17464SOL    HW256309   1.065   8.341   2.437 -1.4660  0.5273  1.6920
17465SOL     OW56310   6.908   4.287   8.585  0.3411  0.1514  0.3003
17465SOL    HW156311   6.950   4.218   8.533  0.3619  0.9282 -0.7676
17465SOL    HW256312   6.971   4.360   8.582 -1.1666  1.4768 -1.6468
17466SOL     OW56313   3.244   2.892   2.856  0.0137 -0.0879  0.3976
17466SOL    HW156314   3.152   2.867   2.863 -0.3225  0.4724 -1.4019
17466SOL    HW256315   3.242   2.983   2.825  1.2041  0.9662  3.1412
17467SOL     OW56316   5.794   9.009   7.053 -0.4821  0.4035 -0.4244
17467SOL    HW156317   5.789   9.046   6.965  0.3610  0.8213 -0.3018
17467SOL    HW256318   5.704   8.983   7.073 -0.9518  1.6329 -0.8398
17468SOL     OW56319   1.185   7.129   7.373  0.4431 -0.0447 -0.0722
17468SOL    HW156320   1.280   7.138   7.365  0.3680 -0.6430 -2.0666
17468SOL    HW256321   1.156   7.213   7.409  1.5780  0.6983 -0.8291
17469SOL     OW56322   3.115   9.874   5.991  0.2424  0.6953  0.1543
17469SOL    HW156323   3.156   9.960   5.981  0.6488  0.7045  1.6161
17469SOL    HW256324   3.181   9.812   5.960  0.0092  0.9010 -0.7573
17470SOL     OW56325   2.581   4.793   5.373 -0.4930 -0.8934  0.5344
17470SOL    HW156326   2.580   4.783   5.469  0.8609 -1.7124  0.4843
17470SOL    HW256327   2.673   4.797   5.351 -0.7795  1.7940 -0.5346
17471SOL     OW56328   5.737   6.943   1.916  0.0452  0.0076 -0.7073
17471SOL    HW156329   5.792   7.021   1.911 -0.5049  0.6400  1.8280
17471SOL    HW256330   5.678   6.950   1.841 -0.0499  2.0902 -0.4724
17472SOL     OW56331   7.659   8.215   6.417 -0.2552 -0.4294 -0.2409
17472SOL    HW156332   7.609   8.292   6.391  0.6580  0.0460 -0.6620
17472SOL    HW256333   7.746   8.250   6.440 -0.2570 -1.1639  0.9588
17473SOL     OW56334   1.801   9.069   7.549 -0.3691 -0.4967  0.0573
17473SOL    HW156335   1.844   9.009   7.610 -0.7997  0.8449  1.7405
17473SOL    HW256336   1.721   9.097   7.594 -1.2731 -0.2796 -1.5828
17474SOL     OW56337   1.801   0.921   3.605  0.2809  0.0068 -0.0769
17474SOL    HW156338   1.888   0.940   3.570 -0.1233 -0.5414 -1.4660
17474SOL    HW256339   1.779   0.998   3.658  1.4215  0.3439 -0.0738
17475SOL     OW56340   8.172   7.099   4.120 -0.2850 -0.3079  0.5796
17475SOL    HW156341   8.136   7.040   4.053  1.6610 -0.6555 -0.2344
17475SOL    HW256342   8.109   7.095   4.192 -1.1001 -2.0209 -0.1701
17476SOL     OW56343   3.351   4.730   3.558 -0.7799  0.0706  0.1322
17476SOL    HW156344   3.307   4.806   3.519 -0.1056 -0.1266 -1.0667
17476SOL    HW256345   3.309   4.654   3.519 -1.9710 -0.2425  1.9001
17477SOL     OW56346   5.971   7.040   0.694 -0.4312 -0.0574  0.7621
17477SOL    HW156347   6.048   7.096   0.688 -1.1906  0.8920 -0.6844
17477SOL    HW256348   5.914   7.070   0.623 -0.4897 -3.2721 -0.7123
17478SOL     OW56349   9.774   8.653   6.344 -0.8058  0.3885  0.0818
17478SOL    HW156350   9.860   8.635   6.383  0.2051 -2.0614 -2.9142
17478SOL    HW256351   9.726   8.572   6.355 -2.7396  1.6245  1.4131
17479SOL     OW56352   2.394   9.698   7.973  0.2870  0.3530  0.1497
17479SOL    HW156353   2.364   9.771   7.919 -0.6200  0.5924  0.9384
17479SOL    HW256354   2.320   9.638   7.975  0.7387 -0.2102  0.1630
17480SOL     OW56355   4.286  10.110   6.947 -0.2765  0.1891  0.4365
17480SOL    HW156356   4.354  10.066   6.998 -0.1540  0.7715  0.7881
17480SOL    HW256357   4.206  10.099   6.999 -0.4235 -0.3510  0.1045
17481SOL     OW56358   6.491   3.248   1.079  0.2071 -0.5236 -0.1511
17481SOL    HW156359   6.474   3.207   0.995  0.1881 -2.5511  0.7775
17481SOL    HW256360   6.587   3.253   1.085  0.1989  0.5562 -0.6853
17482SOL     OW56361   3.924   0.613   2.669  0.6062  0.6909 -0.2580
17482SOL    HW156362   3.903   0.700   2.704 -0.0175  0.3963  0.1108
17482SOL    HW256363   3.996   0.581   2.724  0.0652  0.4988  0.3400
17483SOL     OW56364   3.500   5.869   6.674 -0.0416  0.3516  0.1833
17483SOL    HW156365   3.530   5.952   6.712 -1.0154  2.4010 -3.0690
17483SOL    HW256366   3.488   5.889   6.581  1.0439 -3.8817 -1.0777
17484SOL     OW56367   9.840   0.310   8.395  0.3792 -0.5343 -0.6160
17484SOL    HW156368   9.755   0.285   8.432  1.0375 -0.3813  1.0699
17484SOL    HW256369   9.895   0.233   8.407  0.8505 -0.1782 -0.4726
17485SOL     OW56370   8.117   1.852   5.121  0.3525  0.1502 -0.2671
17485SOL    HW156371   8.051   1.805   5.071 -0.7284  1.9629 -0.6195
17485SOL    HW256372   8.183   1.877   5.057 -0.7826  2.0292 -0.7926
17486SOL     OW56373   6.979   4.766   6.997 -0.2347 -0.1655 -0.2784
17486SOL    HW156374   6.885   4.759   7.014  0.0771 -2.5875  0.8991
17486SOL    HW256375   6.998   4.693   6.937  1.2053 -1.0530  1.1727
17487SOL     OW56376   3.048   5.502   1.944  0.7418 -0.1374  0.4604
17487SOL    HW156377   2.996   5.424   1.925  1.1903 -0.8800  2.1280
17487SOL    HW256378   3.040   5.555   1.865  0.6609 -1.9789 -0.8359
17488SOL     OW56379   8.930   4.048   3.891  0.2319  0.4984  0.2075
17488SOL    HW156380   8.865   4.117   3.900 -1.1802 -0.8101  0.3614
17488SOL    HW256381   8.888   3.983   3.835  1.5898 -0.1796 -0.0611
17489SOL     OW56382   5.695   7.384   0.958  0.3918  0.2519 -0.2118
17489SOL    HW156383   5.639   7.368   1.034  0.5303 -1.3236 -0.4271
17489SOL    HW256384   5.779   7.344   0.981  0.5852  0.2000 -0.9915
17490SOL     OW56385   7.784   1.372   6.116  0.4707 -0.1028 -0.0285
17490SOL    HW156386   7.802   1.460   6.083 -1.3140 -0.3257 -1.8506
17490SOL    HW256387   7.852   1.317   6.078  0.2211  0.1455 -0.8487
17491SOL     OW56388   5.514   9.885   5.677  0.3992  0.0703 -0.3250
17491SOL    HW156389   5.574   9.847   5.613  1.9713  0.3443  0.9369
17491SOL    HW256390   5.468   9.954   5.629  2.2167  0.9013 -0.9425
17492SOL     OW56391   9.420   5.411   5.331 -0.4137  0.3574 -0.2643
17492SOL    HW156392   9.396   5.415   5.239  0.1932 -0.2400 -0.4589
17492SOL    HW256393   9.496   5.469   5.338  0.3829 -0.6442 -0.4299
17493SOL     OW56394   2.239   0.811   6.425 -0.3550 -0.5238  1.1171
17493SOL    HW156395   2.189   0.816   6.507 -0.2575  0.2121  1.1330
17493SOL    HW256396   2.196   0.874   6.367  0.1855 -0.3217  0.9328
17494SOL     OW56397   9.827   1.857   3.731  0.3759 -0.1600  0.0087
17494SOL    HW156398   9.844   1.911   3.808  1.8891  0.8305 -0.9725
17494SOL    HW256399   9.902   1.798   3.725  0.2818 -0.2189 -0.7132
17495SOL     OW56400   6.161   8.091   9.012  0.2485 -0.4853 -0.2816
17495SOL    HW156401   6.159   8.086   9.108 -1.0199  0.9369 -0.1959
17495SOL    HW256402   6.251   8.070   8.989  0.5770 -0.8563  1.2291
17496SOL     OW56403   5.804   3.997   7.406 -0.2899  0.5669  0.0219
17496SOL    HW156404   5.801   3.957   7.493 -0.4630  1.5690  0.4793
17496SOL    HW256405   5.783   3.925   7.347  0.2266 -0.2241  0.7666
17497SOL     OW56406   6.417   1.174   3.890  0.2093  0.0190  0.5925
17497SOL    HW156407   6.500   1.188   3.843 -0.3500 -1.4762 -0.9650
17497SOL    HW256408   6.423   1.231   3.966  2.3590  0.5136  0.1385
17498SOL     OW56409   5.277   8.279   0.959 -0.5222  0.2455  0.2398
17498SOL    HW156410   5.251   8.334   0.885  0.6946 -0.5080 -0.7999
17498SOL    HW256411   5.222   8.200   0.951  0.5949 -0.4684 -0.7635
17499SOL     OW56412   8.025   3.314   4.172 -0.5405 -0.2718  0.5881
17499SOL    HW156413   8.099   3.374   4.177 -0.3735 -0.3255 -0.8217
17499SOL    HW256414   8.061   3.229   4.199 -0.4430 -0.0246  1.2530
17500SOL     OW56415   2.461   1.323   6.429  0.0214  0.4245  0.3099
17500SOL    HW156416   2.510   1.357   6.504  2.1610  2.5553 -1.8668
17500SOL    HW256417   2.492   1.233   6.419  1.9094  1.0405  0.3071
17501SOL     OW56418   3.585   3.514   2.954  0.1076  0.4019 -0.5281
17501SOL    HW156419   3.528   3.559   3.016  0.9836  0.8676 -0.0370
17501SOL    HW256420   3.526   3.479   2.888 -0.8295  0.1343  0.4162
17502SOL     OW56421   7.150   0.781   6.730 -0.3977 -0.5382  1.0337
17502SOL    HW156422   7.133   0.804   6.821  2.4910  0.1517  1.5017
17502SOL    HW256423   7.181   0.862   6.690 -3.1686 -0.3898 -1.1255
17503SOL     OW56424   0.189   9.104   5.258  0.8107 -0.0396  0.1899
17503SOL    HW156425   0.206   9.172   5.324 -0.9672  0.4720  0.1703
17503SOL    HW256426   0.189   9.022   5.307  0.2676  0.2600  0.6960
17504SOL     OW56427   5.978   1.353   9.039 -0.0306 -0.5082  0.2407
17504SOL    HW156428   5.953   1.377   8.949  1.1367 -0.4707 -0.0978
17504SOL    HW256429   5.938   1.267   9.053  1.2332 -1.3520 -1.0053
17505SOL     OW56430   1.261   8.445   7.645 -0.0783  0.1364  0.2169
17505SOL    HW156431   1.245   8.389   7.721  0.4531  0.6296  0.7047
17505SOL    HW256432   1.329   8.399   7.595 -0.5731 -0.2896 -0.0822
17506SOL     OW56433   5.947   7.180   9.521  1.0643  0.0611 -0.1098
17506SOL    HW156434   5.903   7.144   9.444  0.1188  0.6320  0.1519
17506SOL    HW256435   6.017   7.235   9.486  0.2856  0.7668 -0.5806
17507SOL     OW56436   2.867   8.039   2.151  0.2613  0.1297 -0.5196
17507SOL    HW156437   2.886   7.946   2.141  2.2281  0.0040  2.7580
17507SOL    HW256438   2.790   8.042   2.206  1.2007  0.3463  0.8301
17508SOL     OW56439   8.058   4.093   7.991  0.7358 -0.6690  0.4067
17508SOL    HW156440   7.979   4.144   7.973  1.2025 -0.5528 -1.5160
17508SOL    HW256441   8.118   4.117   7.921  2.7045 -0.3697  2.0967
17509SOL     OW56442   0.839   8.921   6.959 -0.1575  0.4433 -0.1023
17509SOL    HW156443   0.916   8.937   6.905  0.3593  1.8738  1.0073
17509SOL    HW256444   0.801   8.841   6.923  3.2020 -1.7979  0.8794
17510SOL     OW56445   9.076   8.670   6.256  0.1553  0.7157 -0.0492
17510SOL    HW156446   9.031   8.754   6.266 -1.0635 -0.0923  1.7349
17510SOL    HW256447   9.139   8.668   6.328  2.4215  1.3689 -1.8922
17511SOL     OW56448   4.306   9.699   5.856 -0.4526  0.8292 -0.6905
17511SOL    HW156449   4.234   9.667   5.802 -0.5236 -1.6815  0.7274
17511SOL    HW256450   4.384   9.660   5.818  0.0219  2.3066 -1.3073
17512SOL     OW56451   6.327   5.276   2.250  0.2259  0.2928  0.5593
17512SOL    HW156452   6.314   5.223   2.329 -0.8448  0.0862  0.2569
17512SOL    HW256453   6.240   5.283   2.212  0.9060 -0.6575 -1.2855
17513SOL     OW56454   2.399   3.762   4.036  0.4904  0.5458  0.0207
17513SOL    HW156455   2.464   3.808   4.088 -0.4159  0.8520  0.9161
17513SOL    HW256456   2.442   3.681   4.010  1.0514  0.4824  1.0833
17514SOL     OW56457   2.974   0.251   8.383 -0.4544  0.0371 -0.4944
17514SOL    HW156458   3.026   0.309   8.328  1.0853 -1.2237 -0.4135
17514SOL    HW256459   2.954   0.303   8.461  1.3371  0.3195 -0.1953
17515SOL     OW56460   5.814   1.567   7.916  0.2303 -0.3071  0.0265
17515SOL    HW156461   5.734   1.595   7.960  0.6209 -1.2921  1.4327
17515SOL    HW256462   5.884   1.586   7.978  1.1416  0.6707 -1.2381
17516SOL     OW56463   6.602   9.625   5.235 -0.4874 -0.1449 -0.4569
17516SOL    HW156464   6.594   9.543   5.285 -2.3500  1.0582  1.3399
17516SOL    HW256465   6.540   9.685   5.276 -0.4702  1.6573 -2.8535
17517SOL     OW56466   5.495   3.952   1.546  0.2369 -0.5861 -0.2388
17517SOL    HW156467   5.508   3.916   1.459  0.9231  0.8202 -0.7581
17517SOL    HW256468   5.441   4.030   1.533 -1.2951 -1.4046  0.8555
17518SOL     OW56469   4.339   9.527   8.565 -0.7332  0.1950 -0.3016
17518SOL    HW156470   4.324   9.451   8.510 -1.5469  0.7065 -0.8107
17518SOL    HW256471   4.347   9.492   8.654  1.1414 -0.6940 -0.7636
17519SOL     OW56472   2.080   2.186   0.176  0.3685  0.0356 -0.9463
17519SOL    HW156473   2.078   2.267   0.125 -0.7382  1.1078  0.7030
17519SOL    HW256474   2.158   2.195   0.231 -0.8625  1.0234  0.7389
17520SOL     OW56475   9.300   3.445   3.712 -0.8203  0.2972 -0.7911
17520SOL    HW156476   9.285   3.356   3.679  0.0870 -0.4855  0.8228
17520SOL    HW256477   9.376   3.476   3.663  0.1667 -0.6409  0.0955
17521SOL     OW56478   5.294   0.408  10.110 -0.1390 -0.6355 -0.2670
17521SOL    HW156479   5.199   0.413  10.116 -0.1069 -0.1077 -0.2012
17521SOL    HW256480   5.313   0.421  10.017  0.0414  2.4041  0.0994
17522SOL     OW56481   5.266   0.291   8.858 -0.2657 -0.1288  0.4045
17522SOL    HW156482   5.198   0.251   8.913 -0.1819  0.2251  0.7732
17522SOL    HW256483   5.347   0.279   8.908 -0.0777 -0.4245  0.0323
17523SOL     OW56484   7.533   7.719   0.809  0.2793  0.2562 -0.5521
17523SOL    HW156485   7.459   7.770   0.777 -0.8351 -1.7357 -1.3852
17523SOL    HW256486   7.591   7.710   0.733  0.6690  0.5856 -0.3006
17524SOL     OW56487   1.700   4.773   8.406 -0.0645 -0.7671  0.2630
17524SOL    HW156488   1.746   4.853   8.430 -3.9983  1.3953  1.4722
17524SOL    HW256489   1.683   4.729   8.489 -2.0955 -0.2864  0.1412
17525SOL     OW56490   1.872   5.385   0.589  0.5422 -0.6338  0.0028
17525SOL    HW156491   1.784   5.405   0.619 -0.2096 -1.8582 -1.2413
17525SOL    HW256492   1.917   5.470   0.585 -2.2423  1.0037 -4.4582
17526SOL     OW56493   8.023   7.029   8.343 -0.2430  0.6701  0.1365
17526SOL    HW156494   8.080   6.952   8.332 -0.9500  0.1083  0.3535
17526SOL    HW256495   7.999   7.054   8.254  0.2749  0.8605  0.0470
17527SOL     OW56496   0.726   7.669   1.624 -0.1784  0.5778  0.7539
17527SOL    HW156497   0.665   7.728   1.581 -0.5629 -0.6353 -0.4170
17527SOL    HW256498   0.673   7.593   1.648  0.8137 -0.4436 -0.1802
17528SOL     OW56499   1.558   6.897   5.822 -0.6212 -0.6959  0.0636
17528SOL    HW156500   1.480   6.912   5.876  0.0297 -0.9691  1.1214
17528SOL    HW256501   1.586   6.808   5.845 -0.4807 -0.9256 -0.9485
17529SOL     OW56502   6.612   0.671   9.458  0.0108 -0.2244  0.1166
17529SOL    HW156503   6.571   0.655   9.543 -0.4624 -1.5328 -0.3437
17529SOL    HW256504   6.606   0.587   9.412 -1.2010  0.8687 -1.8411
17530SOL     OW56505   4.899   0.088   2.467 -0.2874  0.7059  0.8712
17530SOL    HW156506   4.841   0.152   2.508 -0.7114 -1.0084  3.1328
17530SOL    HW256507   4.842   0.016   2.442  0.5405  0.0187  0.9182
17531SOL     OW56508   4.340   3.975   6.064  0.0863  0.0831  0.4261
17531SOL    HW156509   4.334   3.988   5.969 -1.5463 -0.7364  0.3719
17531SOL    HW256510   4.338   3.880   6.075 -1.1656  0.1932  1.3272
17532SOL     OW56511   2.119   7.337   0.154  0.1288  0.5810  0.6288
17532SOL    HW156512   2.054   7.405   0.137 -1.9666 -0.9254  2.0477
17532SOL    HW256513   2.157   7.317   0.069 -0.8854  1.8777 -0.1599
17533SOL     OW56514   9.969   0.813   3.994 -0.7203  0.3991 -0.4365
17533SOL    HW156515   9.983   0.898   3.953  0.9231  0.2070 -0.3540
17533SOL    HW256516  10.050   0.797   4.043 -1.3268 -0.8499  0.1877
17534SOL     OW56517   0.887   1.241   9.413  0.1206  0.0255  0.2962
17534SOL    HW156518   0.871   1.187   9.335 -1.0807 -1.4814  1.5064
17534SOL    HW256519   0.941   1.186   9.470  2.4238  1.7404 -0.0819
17535SOL     OW56520   6.285   8.399   8.267  0.5326 -0.4066  0.0251
17535SOL    HW156521   6.345   8.359   8.329  2.1248 -0.1060 -1.2544
17535SOL    HW256522   6.221   8.445   8.322 -0.0022 -2.7018  1.4706
17536SOL     OW56523   0.852   5.105   9.220 -0.4088  0.5107  0.3837
17536SOL    HW156524   0.804   5.027   9.194 -1.1943  0.9897  0.3741
17536SOL    HW256525   0.933   5.102   9.167 -1.2538  0.6395 -0.9744
17537SOL     OW56526   2.307   8.533   4.944 -0.2346  0.3977 -0.0091
17537SOL    HW156527   2.227   8.585   4.937 -1.0187 -0.6698  0.7637
17537SOL    HW256528   2.327   8.533   5.038  1.0254  1.1351 -0.2477
17538SOL     OW56529   3.279   4.671   9.808 -0.6638 -0.3316 -0.1019
17538SOL    HW156530   3.193   4.702   9.780 -0.8507  0.3932  1.1687
17538SOL    HW256531   3.261   4.621   9.888  0.1469  0.3853  0.5488
17539SOL     OW56532   0.484   1.597   3.594  0.1902 -0.4036 -0.2832
17539SOL    HW156533   0.563   1.585   3.648  0.2759 -0.4281 -0.4127
17539SOL    HW256534   0.447   1.509   3.585 -0.1673 -0.3107  0.2512
17540SOL     OW56535   7.970   4.423   3.358  0.4927 -0.1662  0.0824
17540SOL    HW156536   8.048   4.443   3.307  0.6546  0.0839  0.4297
17540SOL    HW256537   7.897   4.454   3.304  0.5674 -1.1360 -0.6218
17541SOL     OW56538   7.008   3.457   8.124  0.8524 -0.2410 -0.1554
17541SOL    HW156539   7.076   3.399   8.159  2.0545  0.8261 -0.6359
17541SOL    HW256540   7.049   3.544   8.126  1.1843 -0.1192 -4.5437
17542SOL     OW56541   2.297   3.198   7.845  0.3754  0.2081  0.1462
17542SOL    HW156542   2.292   3.184   7.939  0.5686 -0.1235  0.1091
17542SOL    HW256543   2.343   3.121   7.811 -2.3426 -1.2337 -0.5813
17543SOL     OW56544   3.628   3.831   8.484  0.1096 -0.1572  0.3202
17543SOL    HW156545   3.579   3.895   8.432  0.1496 -0.5372 -0.1934
17543SOL    HW256546   3.700   3.881   8.522  1.6183 -0.3414 -2.0658
17544SOL     OW56547   2.548   0.967   1.971  0.5686 -0.0534 -0.1161
17544SOL    HW156548   2.494   1.017   2.031 -1.4647 -0.5516 -1.4039
17544SOL    HW256549   2.616   0.927   2.026 -0.2065  0.8186  1.5402
17545SOL     OW56550   6.988   4.243   0.190  0.2653  0.4917 -0.3029
17545SOL    HW156551   6.996   4.335   0.214 -0.5416  0.2870  0.8343
17545SOL    HW256552   6.894   4.227   0.186  0.3850 -0.4649  0.3438
17546SOL     OW56553   0.051   2.912   7.006 -0.4446 -0.7883 -0.0247
17546SOL    HW156554   0.099   2.926   7.087 -0.3955  0.5602 -0.2639
17546SOL    HW256555  -0.040   2.900   7.034 -0.3474 -0.8671  0.2608
17547SOL     OW56556   8.736  10.180   5.988  0.2408  0.4537 -0.2111
17547SOL    HW156557   8.743  10.127   6.067  0.2304 -1.7250 -1.6080
17547SOL    HW256558   8.788  10.258   6.006  2.1471 -1.0566  1.0821
17548SOL     OW56559   3.772   3.008   9.391  0.2549 -0.2126 -0.3099
17548SOL    HW156560   3.727   2.988   9.473  0.4285  0.9681  0.0997
17548SOL    HW256561   3.831   2.934   9.377  0.7563 -0.0971  1.0296
17549SOL     OW56562   6.428   6.642   1.062  0.2172 -0.6349  0.4814
17549SOL    HW156563   6.365   6.596   1.117  0.0860 -1.4164 -0.2879
17549SOL    HW256564   6.437   6.586   0.985  1.6659 -0.4047  0.4612
17550SOL     OW56565   0.332   1.232   6.187 -0.4977  0.1555 -0.4454
17550SOL    HW156566   0.333   1.266   6.097  1.4064 -2.1196 -1.3809
17550SOL    HW256567   0.386   1.293   6.236 -1.1051  1.1241 -0.9456
17551SOL     OW56568   9.197   6.904   9.747 -0.4432  0.2104 -0.2104
17551SOL    HW156569   9.201   6.823   9.697  0.9534  0.9110 -1.3170
17551SOL    HW256570   9.103   6.925   9.751 -0.9767 -2.0980  1.2907
17552SOL     OW56571   2.520   0.566   8.733  0.0038  0.3999 -0.7383
17552SOL    HW156572   2.454   0.541   8.798 -0.8693  1.5616 -1.1418
17552SOL    HW256573   2.579   0.491   8.729  0.3562  0.4669  1.7159
17553SOL     OW56574   8.636   1.723   9.124  0.3798 -0.4584  0.2957
17553SOL    HW156575   8.575   1.770   9.067  0.8154 -0.0670  0.1508
17553SOL    HW256576   8.607   1.632   9.120 -0.0122 -0.3221 -0.0089
17554SOL     OW56577   4.041   1.503   7.852  0.3885  0.0355 -0.3785
17554SOL    HW156578   4.072   1.462   7.932  0.2185 -0.5894 -0.6286
17554SOL    HW256579   3.951   1.529   7.872  0.3060 -0.2282 -0.4050
17555SOL     OW56580   5.499   3.421   7.328 -0.1813 -0.7043  0.5089
17555SOL    HW156581   5.447   3.497   7.304 -0.8737 -1.3527 -0.1213
17555SOL    HW256582   5.478   3.405   7.420  0.0919 -0.0514  0.6877
17556SOL     OW56583   6.451   5.732   1.767 -0.0228  0.0847 -0.6359
17556SOL    HW156584   6.506   5.661   1.734 -0.2110 -0.3179 -0.1057
17556SOL    HW256585   6.371   5.688   1.796  0.1043  0.4253  0.2745
17557SOL     OW56586   2.986   7.243   2.398 -0.0075  0.2911 -0.1540
17557SOL    HW156587   2.924   7.281   2.335 -0.7148  0.3976  0.5926
17557SOL    HW256588   3.037   7.318   2.429 -0.9569  0.5693  0.8197
17558SOL     OW56589   1.848   9.307   4.497  0.0915 -0.3750 -0.0399
17558SOL    HW156590   1.925   9.322   4.442 -1.9120 -0.2603 -3.1121
17558SOL    HW256591   1.821   9.395   4.524  1.1189 -0.4327  1.2325
17559SOL     OW56592   3.708   5.194   3.365  0.1739 -0.0180  0.3074
17559SOL    HW156593   3.656   5.123   3.327  1.2988 -1.5251  1.4623
17559SOL    HW256594   3.769   5.218   3.296  0.9138 -1.3808  0.4535
17560SOL     OW56595   5.448   0.541   0.847 -0.3445  0.4262 -0.1186
17560SOL    HW156596   5.539   0.514   0.837 -0.6541 -0.2837 -1.2973
17560SOL    HW256597   5.433   0.603   0.776 -0.9550  0.0191 -0.3615
17561SOL     OW56598   4.757   5.966   6.109  0.1184 -0.4897  0.0399
17561SOL    HW156599   4.837   5.957   6.057  1.7621  0.3051  2.2361
17561SOL    HW256600   4.789   5.971   6.199 -2.5275 -1.1569  1.0866
17562SOL     OW56601   8.628   9.581   8.810 -0.1663  0.4215 -0.5525
17562SOL    HW156602   8.620   9.561   8.717  0.0690  1.6034 -0.8437
17562SOL    HW256603   8.543   9.617   8.835 -0.3149 -0.1355 -0.2398
17563SOL     OW56604   8.928   0.796   2.743 -0.7970 -0.4744 -0.2725
17563SOL    HW156605   8.888   0.862   2.686  1.5539  1.9572  0.6798
17563SOL    HW256606   8.914   0.830   2.831  2.2324 -0.0575  0.1386
17564SOL     OW56607   4.319   9.432   5.393  0.1336 -0.3974  0.0675
17564SOL    HW156608   4.337   9.429   5.299  3.4427 -0.5862  0.5844
17564SOL    HW256609   4.382   9.495   5.427 -0.3344 -1.0485  2.2851
17565SOL     OW56610   6.880   8.342   7.698  0.0184  0.4397 -0.4300
17565SOL    HW156611   6.931   8.406   7.747 -0.6120  0.0323  0.7954
17565SOL    HW256612   6.900   8.258   7.740  0.7894 -0.1921 -1.9735
17566SOL     OW56613   5.304   3.466   4.450  0.4392  0.4321 -0.0035
17566SOL    HW156614   5.229   3.407   4.443  0.0791  0.8632  0.1615
17566SOL    HW256615   5.342   3.466   4.362  1.3317 -1.1819  0.3462
17567SOL     OW56616   0.381   8.285   8.637 -0.4452 -0.2750  0.3705
17567SOL    HW156617   0.409   8.361   8.688 -0.6436  1.5738 -2.0771
17567SOL    HW256618   0.294   8.308   8.605 -0.2544 -1.2274 -0.9405
17568SOL     OW56619   7.120   0.424   5.343 -0.1788 -0.0179 -0.2072
17568SOL    HW156620   7.159   0.343   5.376  0.2137  0.4437  0.4742
17568SOL    HW256621   7.038   0.432   5.392 -0.6508 -0.4516 -0.9053
17569SOL     OW56622   9.631   9.018   3.684  0.1949 -0.1210 -0.0619
17569SOL    HW156623   9.570   9.058   3.746 -0.4104  0.3614 -0.9410
17569SOL    HW256624   9.583   9.018   3.601  0.5218 -1.8446 -0.2895
17570SOL     OW56625   3.260   1.533   1.334 -0.0438 -0.2528  0.4836
17570SOL    HW156626   3.207   1.526   1.413 -0.2497 -0.6676  0.3155
17570SOL    HW256627   3.231   1.460   1.280 -0.0508  0.1476 -0.0626
17571SOL     OW56628   4.766   7.674   9.557 -0.1415 -0.6603 -0.4526
17571SOL    HW156629   4.714   7.596   9.575  0.0891 -0.5089  0.9523
17571SOL    HW256630   4.837   7.672   9.622 -0.7612  1.2783  0.3616
17572SOL     OW56631   0.743   1.908   8.451 -0.1081  0.3544  0.1351
17572SOL    HW156632   0.767   1.999   8.470 -2.1427  1.0423 -0.2721
17572SOL    HW256633   0.741   1.903   8.356  1.1055 -0.4624  0.1432
17573SOL     OW56634   3.190   6.253   2.087 -0.0210  0.0385 -0.2322
17573SOL    HW156635   3.166   6.190   2.155  1.3688  0.5640  0.7910
17573SOL    HW256636   3.220   6.199   2.014 -0.6708 -0.5186 -0.0937
17574SOL     OW56637   9.910   7.772   6.331 -0.1058 -0.4002 -0.6312
17574SOL    HW156638   9.954   7.811   6.255  0.7010 -1.4259 -0.7179
17574SOL    HW256639   9.981   7.755   6.393 -0.8118  0.8061  0.5514
17575SOL     OW56640   1.115   5.783   6.366  0.3971 -0.0544 -0.0509
17575SOL    HW156641   1.196   5.767   6.318  0.6677  0.2992  0.2836
17575SOL    HW256642   1.143   5.801   6.456  0.1025  2.1468 -0.3600
17576SOL     OW56643   4.047   5.532   2.497 -0.1525 -0.3908  0.2661
17576SOL    HW156644   4.032   5.471   2.569 -1.5808 -0.6250 -0.2094
17576SOL    HW256645   3.977   5.514   2.435 -1.8761  3.0692  0.9861
17577SOL     OW56646   6.311   4.029   2.432 -0.1117 -0.3349 -0.0739
17577SOL    HW156647   6.335   3.937   2.441 -0.4771 -0.3145  1.2299
17577SOL    HW256648   6.380   4.077   2.478 -1.2256 -0.1207  1.4262
17578SOL     OW56649   2.784   1.359   8.110  0.0817 -0.3296 -1.1037
17578SOL    HW156650   2.722   1.424   8.078  1.1858  1.0469 -0.5621
17578SOL    HW256651   2.848   1.349   8.039  0.3979 -0.1662 -0.8442
17579SOL     OW56652   7.363   5.025   9.825 -0.1762 -0.2641 -0.5831
17579SOL    HW156653   7.339   4.943   9.782  0.2967 -1.1549  0.8040
17579SOL    HW256654   7.459   5.025   9.822 -0.1742  0.1926 -0.4935
17580SOL     OW56655   8.936   5.370   7.672  0.0177 -0.2610 -0.0615
17580SOL    HW156656   8.943   5.448   7.616 -1.1419  0.0261  0.1649
17580SOL    HW256657   8.917   5.298   7.612 -0.9954  0.0060 -0.0732
17581SOL     OW56658   6.499   3.652   4.211 -0.0058 -0.4202 -0.0213
17581SOL    HW156659   6.503   3.660   4.116 -2.3139  2.0113 -0.0394
17581SOL    HW256660   6.437   3.581   4.227 -1.7151  0.9175 -0.4413
17582SOL     OW56661   5.227   6.650   1.436 -0.6473  0.3852 -0.5634
17582SOL    HW156662   5.241   6.679   1.526  0.0235  1.2720 -0.9410
17582SOL    HW256663   5.148   6.596   1.440 -0.1091 -0.3231  0.7016
17583SOL     OW56664   5.710   4.514   4.253 -0.0283  0.7499  0.2769
17583SOL    HW156665   5.778   4.525   4.187  0.5372 -0.7129  0.5703
17583SOL    HW256666   5.747   4.451   4.315 -2.0297 -0.9385 -0.1159
17584SOL     OW56667  10.191   0.002   5.386 -0.4445 -0.7162 -0.1856
17584SOL    HW156668  10.238   0.054   5.321 -0.1489  0.4593  0.9346
17584SOL    HW256669  10.107  -0.019   5.344  0.8783 -2.6052 -2.0953
17585SOL     OW56670   1.010   7.105   5.327 -0.0339  0.0234 -0.7845
17585SOL    HW156671   1.056   7.171   5.379 -3.2053  2.1313 -0.3817
17585SOL    HW256672   1.009   7.027   5.382 -0.0970  1.0671  0.7553
17586SOL     OW56673   9.673   6.467   1.660  0.5175  0.2516  0.0332
17586SOL    HW156674   9.765   6.452   1.683  0.1135  0.9773  2.2662
17586SOL    HW256675   9.654   6.398   1.596  1.8970 -1.5556  1.4580
17587SOL     OW56676   3.034   5.388   3.961 -0.5511  0.1032  0.0569
17587SOL    HW156677   3.105   5.326   3.978 -0.6859 -0.0156  0.1965
17587SOL    HW256678   2.958   5.332   3.943 -0.2411  0.2126 -1.7309
17588SOL     OW56679   9.832   7.490   6.269 -0.1547  0.1060  0.0657
17588SOL    HW156680   9.896   7.454   6.330 -2.0762  0.7796  2.6359
17588SOL    HW256681   9.848   7.585   6.269 -0.1853  0.1183 -0.4880
17589SOL     OW56682   4.491   4.597   0.787 -0.2552  0.0197 -0.6069
17589SOL    HW156683   4.515   4.673   0.840 -0.1781 -0.0284 -0.5729
17589SOL    HW256684   4.397   4.585   0.803 -0.1501 -0.2285 -0.1844
17590SOL     OW56685   4.096   6.967   8.272 -0.0417  0.2764  0.3002
17590SOL    HW156686   4.102   6.881   8.231  0.9829  1.8008 -3.1728
17590SOL    HW256687   4.164   6.966   8.339 -0.8281 -1.9455  1.1593
17591SOL     OW56688   1.422   0.105   6.234  0.3587 -0.1991  0.0137
17591SOL    HW156689   1.492   0.081   6.173  0.3677 -1.5900  0.5568
17591SOL    HW256690   1.342   0.095   6.183  0.3997 -0.8467  0.0795
17592SOL     OW56691   7.896   8.596   9.322  0.3785 -0.2447 -0.3261
17592SOL    HW156692   7.805   8.587   9.294  0.2364 -1.0957  0.3732
17592SOL    HW256693   7.907   8.690   9.337 -0.7836 -0.2646  0.8380
17593SOL     OW56694   9.471   1.415   6.743  0.2404 -0.3413  0.0338
17593SOL    HW156695   9.400   1.476   6.763  1.3360  1.9246 -2.4116
17593SOL    HW256696   9.495   1.378   6.828 -1.5991  1.3573  1.4040
17594SOL     OW56697   2.673   9.507   8.383 -0.6419 -0.0097 -0.3012
17594SOL    HW156698   2.675   9.492   8.288  0.4798 -0.3427 -0.2370
17594SOL    HW256699   2.748   9.458   8.416 -1.2094 -0.1462  0.8019
17595SOL     OW56700   0.002  10.106   3.915  0.0427 -0.0768  0.1202
17595SOL    HW156701  -0.017  10.016   3.890 -1.6677  0.1584  0.4820
17595SOL    HW256702  -0.084  10.148   3.924  0.7029  0.9736  2.2638
17596SOL     OW56703   6.103   7.085   0.124 -0.0581 -0.2030  0.2818
17596SOL    HW156704   6.083   6.997   0.094 -1.5546 -0.1182  0.9300
17596SOL    HW256705   6.027   7.138   0.099  0.1805  0.5881  1.1364
17597SOL     OW56706   5.715   2.742   4.176 -0.0395 -0.6967 -0.7499
17597SOL    HW156707   5.716   2.795   4.255 -1.1865 -0.7813 -0.6704
17597SOL    HW256708   5.782   2.674   4.192  0.2302 -0.2998 -0.1568
17598SOL     OW56709   3.260   1.108   0.730  0.3376  0.0074 -0.6535
17598SOL    HW156710   3.333   1.058   0.692 -1.0323 -2.3643 -0.3472
17598SOL    HW256711   3.291   1.133   0.818  1.3964  0.5927 -1.1681
17599SOL     OW56712   1.811   0.498   9.743 -0.3347  0.3455  0.4958
17599SOL    HW156713   1.787   0.488   9.836  0.9631 -1.6126  0.6818
17599SOL    HW256714   1.860   0.419   9.723  0.4237  1.2810 -1.5723
17600SOL     OW56715   3.959   2.836   2.479  0.1764  0.1024 -0.2640
17600SOL    HW156716   3.976   2.926   2.510 -0.5595  0.8666 -1.9390
17600SOL    HW256717   3.865   2.835   2.460  0.2627 -0.8829 -0.6995
17601SOL     OW56718   4.843   3.896   1.536  0.0554 -0.4775 -0.6119
17601SOL    HW156719   4.863   3.965   1.472 -1.5828 -0.9592 -1.6851
17601SOL    HW256720   4.865   3.815   1.492 -0.9523 -0.8043 -0.5464
17602SOL     OW56721   3.850   9.475   2.771  0.4451 -0.4348 -0.0746
17602SOL    HW156722   3.798   9.538   2.821 -1.1209 -1.3785 -0.4581
17602SOL    HW256723   3.816   9.389   2.798  2.9075 -1.2069  0.8688
17603SOL     OW56724   4.383   9.936   3.921 -0.1815  0.3699  0.1482
17603SOL    HW156725   4.412  10.014   3.968  2.6528  0.0655 -0.8831
17603SOL    HW256726   4.354   9.969   3.836 -1.0091  0.4882  0.4721
17604SOL     OW56727   3.719   6.692   5.622 -0.6512  0.3061  0.6838
17604SOL    HW156728   3.808   6.662   5.607 -1.4115 -2.1021  0.5838
17604SOL    HW256729   3.717   6.718   5.714 -0.1791 -1.0128  1.0880
17605SOL     OW56730   3.400   7.967   0.948 -0.0907  0.4036  0.0687
17605SOL    HW156731   3.358   7.994   0.866  0.8404  1.7762  0.0250
17605SOL    HW256732   3.450   7.889   0.924 -0.5316  0.2779 -0.4663
17606SOL     OW56733   4.972   5.184   0.515  0.6240 -0.2235 -0.0489
17606SOL    HW156734   4.911   5.257   0.509  0.2773 -0.1912  2.6186
17606SOL    HW256735   5.058   5.223   0.503  0.2650 -0.2260 -3.5443
17607SOL     OW56736   1.131   0.118   1.737 -0.2639  0.1769  0.0435
17607SOL    HW156737   1.224   0.126   1.716 -0.2571 -0.5000 -0.2047
17607SOL    HW256738   1.130   0.080   1.825 -0.3021 -0.4175 -0.2090
17608SOL     OW56739   0.456   4.621   3.483 -0.6073  0.2355  0.1286
17608SOL    HW156740   0.466   4.691   3.547  0.0965  0.9131 -0.6945
17608SOL    HW256741   0.524   4.638   3.418 -1.6441 -0.1141 -1.0853
17609SOL     OW56742   6.968   5.347   8.526  0.0092  0.1797  0.2128
17609SOL    HW156743   6.874   5.361   8.526 -0.2798 -1.5742 -0.5497
17609SOL    HW256744   6.990   5.332   8.618 -0.7932 -1.3336  0.1878
17610SOL     OW56745   6.708   3.276   5.693 -0.2962 -0.1298  0.4565
17610SOL    HW156746   6.754   3.325   5.625  1.0690 -0.8237  0.8401
17610SOL    HW256747   6.655   3.212   5.646  1.1131 -1.0161  0.0330
17611SOL     OW56748   0.452   1.895   3.166  0.3199 -0.1158 -0.2406
17611SOL    HW156749   0.369   1.939   3.187  1.6153  1.6283  1.6644
17611SOL    HW256750   0.439   1.805   3.195 -1.4284 -0.3182 -1.4990
17612SOL     OW56751   8.713   8.785   4.505 -0.3266 -0.4296  0.1634
17612SOL    HW156752   8.745   8.784   4.595  0.8948  0.1608 -0.2521
17612SOL    HW256753   8.652   8.859   4.503 -0.4006 -0.4779  0.5065
17613SOL     OW56754   6.148   9.226   0.313 -0.3177 -0.5780 -0.2387
17613SOL    HW156755   6.183   9.138   0.303 -0.8795 -0.8452  0.1063
17613SOL    HW256756   6.174   9.253   0.401  0.0111 -0.3213 -0.4091
17614SOL     OW56757   5.536   5.545   3.350 -0.4035  0.1348  0.8966
17614SOL    HW156758   5.540   5.452   3.332 -1.4748 -0.1195  1.8427
17614SOL    HW256759   5.529   5.586   3.264 -1.3313 -0.7594  0.5249
17615SOL     OW56760   1.778   8.768   3.484  0.6091 -0.0321 -0.0413
17615SOL    HW156761   1.827   8.742   3.407 -0.1172  1.1436 -0.9348
17615SOL    HW256762   1.810   8.856   3.505 -0.4015  0.3608 -0.0626
17616SOL     OW56763   8.330   6.141   1.865  0.0045  0.5551 -0.4012
17616SOL    HW156764   8.395   6.158   1.933  1.1823  0.3789 -1.4368
17616SOL    HW256765   8.363   6.062   1.820 -0.9000  0.4883 -0.9723
17617SOL     OW56766   6.081   8.338   0.789  0.0957  0.0056  0.5837
17617SOL    HW156767   6.016   8.272   0.762 -2.3935  2.0727  1.0898
17617SOL    HW256768   6.095   8.321   0.882  0.3670 -0.5005  0.4555
17618SOL     OW56769   5.488   3.768   0.126  0.0337 -0.2954 -0.1708
17618SOL    HW156770   5.512   3.729   0.042  1.2802 -0.2330  0.1300
17618SOL    HW256771   5.530   3.711   0.191 -1.1563 -0.5135  0.4300
17619SOL     OW56772   4.510   2.482   7.725  0.2761 -0.3263 -0.0757
17619SOL    HW156773   4.488   2.527   7.643  1.7687 -1.7662 -1.3383
17619SOL    HW256774   4.572   2.541   7.768  1.0790 -0.4598 -1.0030
17620SOL     OW56775   0.718   6.033   9.320 -0.6180 -0.6021 -0.6591
17620SOL    HW156776   0.647   6.096   9.310 -0.9289 -0.7993  0.2125
17620SOL    HW256777   0.682   5.950   9.288 -0.5277 -0.5443 -0.9125
17621SOL     OW56778   7.195   5.253   9.046  0.5523  0.5603  0.2894
17621SOL    HW156779   7.216   5.345   9.032  1.0238  0.3346 -0.5744
17621SOL    HW256780   7.271   5.206   9.012 -0.6764 -0.2356 -1.5237
17622SOL     OW56781   8.037   6.165   8.952 -0.3746 -0.0289 -0.3491
17622SOL    HW156782   8.110   6.208   8.995  1.1771 -1.2850 -1.6230
17622SOL    HW256783   8.023   6.085   9.003  2.2016 -2.1021 -2.5641
17623SOL     OW56784   2.860   7.263   5.762  0.5887  0.3537 -0.1372
17623SOL    HW156785   2.789   7.202   5.745 -0.2181  1.4041 -0.6515
17623SOL    HW256786   2.816   7.344   5.788  1.6094  0.9069 -0.0856
17624SOL     OW56787   4.377   0.849   3.758 -0.6850 -0.2730 -0.2960
17624SOL    HW156788   4.444   0.781   3.751  1.7029  1.7482  1.3244
17624SOL    HW256789   4.336   0.835   3.843  0.8713  1.0937  0.7437
17625SOL     OW56790   2.961   7.555   7.883  0.1412  0.6780  0.3930
17625SOL    HW156791   2.985   7.530   7.972 -1.5532  0.3222  0.7915
17625SOL    HW256792   2.955   7.651   7.886  0.0807  0.6657  0.6706
17626SOL     OW56793   6.482   2.687   0.257 -0.9305 -0.5225 -0.5204
17626SOL    HW156794   6.468   2.659   0.167 -0.6341 -2.9036  0.1030
17626SOL    HW256795   6.564   2.643   0.283 -0.1504  1.3912  0.4246
17627SOL     OW56796   8.996   6.241   6.622  0.8343 -0.0674  0.3596
17627SOL    HW156797   9.023   6.254   6.531 -1.7663 -0.3728 -0.5585
17627SOL    HW256798   9.068   6.192   6.662  1.5733 -0.9074 -1.8454
17628SOL     OW56799   1.539   5.032   2.179  0.2116  0.4513  0.2504
17628SOL    HW156800   1.528   5.108   2.235 -1.1334 -1.7455  3.2411
17628SOL    HW256801   1.626   4.998   2.200  0.3748  0.5290 -0.2731
17629SOL     OW56802   5.612   0.105   3.274  0.4966  0.3054  0.1108
17629SOL    HW156803   5.526   0.113   3.317  0.2938  1.6273 -0.4942
17629SOL    HW256804   5.594   0.119   3.181  1.1479 -1.0521 -0.2306
17630SOL     OW56805   8.408   0.423   6.684 -0.4467  0.0763  0.1618
17630SOL    HW156806   8.415   0.348   6.625 -0.1496  1.2220 -1.3346
17630SOL    HW256807   8.314   0.430   6.703 -0.4273 -0.8970  0.6424
17631SOL     OW56808   8.491   8.928   8.160  0.2795  0.4916  0.2469
17631SOL    HW156809   8.428   8.905   8.092  0.9472 -1.0212  0.0994
17631SOL    HW256810   8.445   8.990   8.216 -0.1087  2.2279 -1.8774
17632SOL     OW56811   0.106   8.017   9.332  0.4160  0.3012  0.6509
17632SOL    HW156812   0.053   8.012   9.253  0.9374 -0.1483  0.3170
17632SOL    HW256813   0.123   7.925   9.356 -0.4563  0.4161  1.7854
17633SOL     OW56814   6.018   8.959   5.439  0.0637 -0.0098  0.3358
17633SOL    HW156815   5.976   8.939   5.523  1.6015  0.5976  1.3118
17633SOL    HW256816   5.953   9.009   5.390 -1.6274 -2.1378  0.2884
17634SOL     OW56817   7.525   8.418   2.429  0.3442  0.2524  0.5251
17634SOL    HW156818   7.453   8.462   2.382  1.2056  0.7339 -0.3861
17634SOL    HW256819   7.482   8.352   2.482 -0.7693  0.4436 -0.1073
17635SOL     OW56820   7.513   0.346   9.007 -0.6298 -0.5589  0.2937
17635SOL    HW156821   7.457   0.420   8.983 -0.0424 -0.7994 -2.0552
17635SOL    HW256822   7.509   0.287   8.931 -0.0030 -2.3006  1.5414
17636SOL     OW56823   3.424   9.199   6.095  0.2890  0.1942 -0.5761
17636SOL    HW156824   3.467   9.219   6.179  0.5401  2.1264 -1.1050
17636SOL    HW256825   3.349   9.145   6.119 -0.6214  2.0594  1.1336
17637SOL     OW56826   1.895   2.604   3.060  0.2776 -0.6940  0.0736
17637SOL    HW156827   1.933   2.586   3.146 -0.3331 -1.2318  0.2427
17637SOL    HW256828   1.908   2.698   3.048 -0.9511 -0.2965  1.4358
17638SOL     OW56829   6.788   1.333  10.203  0.2012  0.4933  0.0342
17638SOL    HW156830   6.736   1.253  10.213 -0.0402  0.4242 -1.5507
17638SOL    HW256831   6.874   1.303  10.174  0.4617  0.7441  0.5402
17639SOL     OW56832   2.112   0.426   0.772  0.8465 -0.5185 -0.3989
17639SOL    HW156833   2.047   0.493   0.752  0.5981 -0.6517 -0.0508
17639SOL    HW256834   2.183   0.441   0.709  0.9233  0.2570 -0.1402
17640SOL     OW56835   6.875   6.520   2.625 -0.8363 -0.0158  0.0380
17640SOL    HW156836   6.833   6.596   2.666  0.2538  0.8752 -0.4366
17640SOL    HW256837   6.905   6.467   2.698 -1.8578 -0.1451  0.3772
17641SOL     OW56838   7.843   3.338   1.137 -0.0781 -1.1333  0.0746
17641SOL    HW156839   7.896   3.265   1.105  0.0462 -0.8726 -0.3211
17641SOL    HW256840   7.759   3.299   1.159  0.0503 -1.4294  0.0461
17642SOL     OW56841   9.595   9.959   7.073 -0.2240 -0.3823  0.5903
17642SOL    HW156842   9.559  10.013   7.144 -2.5826  1.5595 -1.8700
17642SOL    HW256843   9.530   9.890   7.061 -0.9870  0.5686 -1.0161
17643SOL     OW56844   6.945   7.068   8.665  0.7005  0.1714  0.4882
17643SOL    HW156845   6.899   7.103   8.741  0.9875 -0.4112  0.9351
17643SOL    HW256846   6.955   6.975   8.684 -1.2316 -0.4720 -1.2647
17644SOL     OW56847   6.552   0.031   7.460  0.1032  0.3873  0.5218
17644SOL    HW156848   6.508   0.018   7.376  0.1950  0.6027  0.4373
17644SOL    HW256849   6.524   0.119   7.488 -1.2080 -0.3131  1.4991
17645SOL     OW56850   8.219   9.927   7.305  0.2674  0.0553 -0.5827
17645SOL    HW156851   8.258   9.941   7.391  0.3162 -1.0560 -0.4140
17645SOL    HW256852   8.294   9.912   7.247  0.1632 -1.1999 -0.4236
17646SOL     OW56853   1.240   8.953   7.666  0.4373 -0.3037  0.3439
17646SOL    HW156854   1.161   8.973   7.716  1.3610 -0.7310  2.0314
17646SOL    HW256855   1.212   8.958   7.574 -0.7072  3.1548  0.7366
17647SOL     OW56856   3.955   5.012   4.308  0.6260 -0.3547  0.1171
17647SOL    HW156857   3.936   5.078   4.376 -0.1811 -1.3418  0.8772
17647SOL    HW256858   4.034   5.045   4.265 -0.7374  2.0324 -0.7281
17648SOL     OW56859   4.802   4.075   6.960 -0.1499 -0.3400 -0.4165
17648SOL    HW156860   4.852   4.060   7.040 -2.0000 -2.0696  0.4912
17648SOL    HW256861   4.838   4.012   6.897  0.5258  0.2184 -0.5974
17649SOL     OW56862   2.569   9.851   1.455  0.0676  0.0757  0.1931
17649SOL    HW156863   2.497   9.787   1.455  0.8930 -0.9824  2.9244
17649SOL    HW256864   2.629   9.818   1.388 -0.4634 -0.8941  0.1688
17650SOL     OW56865   6.866   7.725   6.385 -0.0894  0.6209 -0.4078
17650SOL    HW156866   6.961   7.718   6.380 -0.1293 -0.2136 -0.2482
17650SOL    HW256867   6.842   7.783   6.313  0.3834 -0.8416 -1.8208
17651SOL     OW56868   4.669   7.408   8.848  0.4159  0.2382  0.0238
17651SOL    HW156869   4.629   7.490   8.879 -1.2199 -0.2928 -0.5704
17651SOL    HW256870   4.693   7.362   8.929  1.5110  1.3483  0.3633
17652SOL     OW56871   6.677   5.858   5.761  0.1180  0.1689  0.9059
17652SOL    HW156872   6.699   5.912   5.837 -1.0861  0.5304  1.0145
17652SOL    HW256873   6.684   5.918   5.687 -0.7674  0.3696  0.9761
17653SOL     OW56874   1.329   0.882   9.487  0.2448 -0.1679  0.0873
17653SOL    HW156875   1.240   0.917   9.497  0.5137  0.3823  0.5871
17653SOL    HW256876   1.386   0.952   9.518  0.7837 -1.1226  1.3342
17654SOL     OW56877   8.727   1.775   4.019 -0.5584  0.1129 -0.0922
17654SOL    HW156878   8.734   1.721   3.940 -3.0661 -1.3795  0.5997
17654SOL    HW256879   8.781   1.730   4.084  0.5723  0.7000 -0.6072
17655SOL     OW56880   4.967   8.301   7.292  0.0083 -0.0844  0.3633
17655SOL    HW156881   5.040   8.332   7.238  0.7676  0.1090  1.4564
17655SOL    HW256882   4.897   8.365   7.278 -0.0397 -0.3902 -0.8642
17656SOL     OW56883   6.399   6.008   5.462 -0.7887  0.3982  0.0359
17656SOL    HW156884   6.309   6.012   5.429 -0.7676  1.7084  0.1054
17656SOL    HW256885   6.425   6.099   5.475  1.4413  0.2543 -2.4452
17657SOL     OW56886   1.134  10.034   0.188  0.5194  0.6413  0.0064
17657SOL    HW156887   1.096  10.006   0.105 -0.2912  0.3524  0.4637
17657SOL    HW256888   1.136   9.955   0.242 -1.6642  1.3405  1.2637
17658SOL     OW56889   2.222   2.635   3.754  0.6149  0.6794  0.5637
17658SOL    HW156890   2.234   2.579   3.677  0.3959  1.6999 -0.2374
17658SOL    HW256891   2.182   2.578   3.819  0.4488 -0.1087 -0.2098
17659SOL     OW56892   7.584   1.408   0.937 -0.0574  0.3272  0.2254
17659SOL    HW156893   7.496   1.374   0.951  0.3269 -0.7215  0.1464
17659SOL    HW256894   7.599   1.468   1.011  0.3600 -1.9371  2.0811
17660SOL     OW56895   0.457   9.490   5.678  0.4267 -0.0790  0.4227
17660SOL    HW156896   0.457   9.441   5.761 -1.7627 -0.7868  0.0674
17660SOL    HW256897   0.462   9.423   5.610 -0.9824  0.2747 -0.0502
17661SOL     OW56898   2.688   3.084   5.517  0.4871 -0.5988  0.2751
17661SOL    HW156899   2.639   3.085   5.599  1.0554 -0.8511  0.6260
17661SOL    HW256900   2.671   2.997   5.480 -0.0896 -0.3395 -0.0750
17662SOL     OW56901  10.201   6.411   1.959  0.0755  0.3033  0.2202
17662SOL    HW156902  10.124   6.448   2.003 -0.7002 -0.3533 -0.5580
17662SOL    HW256903  10.258   6.382   2.031  0.1866  1.9151  0.8282
17663SOL     OW56904   9.304   5.725  10.169  0.4467 -0.4446  0.0545
17663SOL    HW156905   9.213   5.747  10.147  0.9150  1.7327  0.0647
17663SOL    HW256906   9.304   5.630  10.180 -1.3729 -0.7862 -2.1034
17664SOL     OW56907   6.331   2.680   6.179  0.2635  0.0524  0.2621
17664SOL    HW156908   6.311   2.587   6.189  0.2763  0.0987  0.7563
17664SOL    HW256909   6.336   2.713   6.269  4.0657 -0.2528  0.2996
17665SOL     OW56910   6.484   1.880   5.433  0.2944 -0.6957  0.2769
17665SOL    HW156911   6.557   1.940   5.414 -1.1813  0.8261 -0.9718
17665SOL    HW256912   6.466   1.893   5.526 -1.9211  3.3115 -0.4722
17666SOL     OW56913   6.185   7.880  10.091 -0.0728 -0.3704  0.1753
17666SOL    HW156914   6.172   7.859  10.184  0.2606 -0.7317  0.1434
17666SOL    HW256915   6.233   7.805  10.057  1.4393  0.5752  0.1171
17667SOL     OW56916   2.260  10.138   7.419 -0.2873  0.3174 -0.2542
17667SOL    HW156917   2.251  10.225   7.458  0.7836  1.0920 -1.6152
17667SOL    HW256918   2.354  10.121   7.422 -0.4905 -0.7916 -0.0233
17668SOL     OW56919   4.832   5.625   5.761  0.3235  0.4449 -0.0561
17668SOL    HW156920   4.880   5.605   5.840 -0.2638 -0.5960  0.0484
17668SOL    HW256921   4.772   5.696   5.786  0.3066  0.2794  0.3608
17669SOL     OW56922   2.898   4.570   5.530  0.4045  0.1150  0.1424
17669SOL    HW156923   2.836   4.515   5.577  0.8286 -0.8118 -0.3624
17669SOL    HW256924   2.971   4.583   5.591 -0.6753  2.0228  1.1085
17670SOL     OW56925   3.688   9.988   2.693  0.2707  0.3553 -0.4675
17670SOL    HW156926   3.647  10.029   2.617 -1.1486 -0.3448 -0.1093
17670SOL    HW256927   3.646  10.030   2.768  0.6250  0.0376 -0.0888
17671SOL     OW56928   3.639   0.417   3.965 -0.1308  0.2702 -0.1683
17671SOL    HW156929   3.729   0.387   3.977 -0.1013 -0.6836 -2.3196
17671SOL    HW256930   3.646   0.512   3.957  0.2493  0.5840  2.8260
17672SOL     OW56931   2.726   0.389   5.142 -0.6559 -0.0246  0.1750
17672SOL    HW156932   2.699   0.307   5.184 -0.0011  0.3554  1.3961
17672SOL    HW256933   2.762   0.362   5.058  0.6584 -1.1635  1.0383
17673SOL     OW56934   1.272   1.213   8.239 -0.7026  0.1443  0.5358
17673SOL    HW156935   1.278   1.181   8.329  0.4123  2.8538  1.5391
17673SOL    HW256936   1.359   1.196   8.201 -1.0803 -0.7342  0.0311
17674SOL     OW56937   0.300   6.437   5.464  0.1342 -0.2459  0.3806
17674SOL    HW156938   0.370   6.399   5.517 -0.6690 -0.7097  1.1497
17674SOL    HW256939   0.344   6.478   5.390  1.1109 -2.1169 -0.1382
17675SOL     OW56940   9.785   0.162   3.709  0.7445  0.1080 -0.5098
17675SOL    HW156941   9.704   0.114   3.725  0.3705  0.6721 -0.7161
17675SOL    HW256942   9.852   0.093   3.704  0.3274 -0.3392 -0.0768
17676SOL     OW56943   9.848   7.247   7.409  0.0571  0.1479  0.2342
17676SOL    HW156944   9.906   7.173   7.427  2.0549  1.7924  0.9840
17676SOL    HW256945   9.905   7.313   7.370 -1.3797  1.7698  0.7448
17677SOL     OW56946   0.659   0.345   9.323  0.0081  0.2442  0.0357
17677SOL    HW156947   0.598   0.417   9.334  0.0330  0.3876 -0.7480
17677SOL    HW256948   0.745   0.385   9.330  0.0216  0.1748  0.2928
17678SOL     OW56949   6.320   2.284   8.710  0.2452 -0.5780 -0.1230
17678SOL    HW156950   6.346   2.376   8.716  0.4405 -0.6214 -0.2905
17678SOL    HW256951   6.400   2.235   8.731  0.3357 -0.7140 -0.7853
17679SOL     OW56952   6.883   8.661   1.049  0.1753  0.1489 -0.3596
17679SOL    HW156953   6.953   8.597   1.062  0.8490  0.6519 -1.3865
17679SOL    HW256954   6.877   8.708   1.131  1.3796  0.4289 -0.4207
17680SOL     OW56955   4.074   7.741   0.188 -0.0343  0.4877 -0.1673
17680SOL    HW156956   4.162   7.710   0.209 -0.4375 -0.0665  0.8154
17680SOL    HW256957   4.033   7.753   0.274 -0.9689  0.5542 -0.6162
17681SOL     OW56958   3.060   7.630   7.514 -0.2431 -0.0447 -0.4736
17681SOL    HW156959   3.143   7.664   7.546 -1.2375  2.2195 -0.0961
17681SOL    HW256960   2.995   7.692   7.546 -2.0570 -1.5795 -1.0244
17682SOL     OW56961   0.713   0.342   0.811 -0.2261  0.1555 -0.6240
17682SOL    HW156962   0.807   0.332   0.826 -0.1975 -0.4105 -1.1550
17682SOL    HW256963   0.704   0.340   0.716 -0.6538  1.3840 -0.6330
17683SOL     OW56964   2.119   0.290   9.412  0.5597 -0.1155 -0.0778
17683SOL    HW156965   2.130   0.384   9.397  0.9757 -0.1924 -0.2710
17683SOL    HW256966   2.041   0.267   9.361 -0.9849  0.5713  1.8865
17684SOL     OW56967   2.674   6.055   0.263 -0.0182  0.0535  0.0434
17684SOL    HW156968   2.621   6.128   0.233 -0.8216 -0.3278  0.5205
17684SOL    HW256969   2.645   6.038   0.352  1.9505  0.7935  0.8776
17685SOL     OW56970   1.541   8.918   0.752 -0.3856  0.3236 -0.1230
17685SOL    HW156971   1.586   8.856   0.808  0.2235  0.8717  0.0158
17685SOL    HW256972   1.607   8.985   0.732 -0.9522  0.8034 -0.4512
17686SOL     OW56973  10.089   3.592   1.154 -0.1978 -0.4817 -0.5129
17686SOL    HW156974  10.023   3.577   1.087 -0.2365  0.6143 -0.7350
17686SOL    HW256975  10.168   3.550   1.120 -0.1033  0.4205 -1.4558
17687SOL     OW56976   5.646   7.882   4.451  0.0918 -0.1955 -0.0872
17687SOL    HW156977   5.720   7.892   4.511  0.8984  0.4628 -1.1664
17687SOL    HW256978   5.686   7.863   4.366 -0.9719  0.2946 -0.7201
17688SOL     OW56979   6.472   4.883   1.564  0.0636  0.3815 -0.6248
17688SOL    HW156980   6.395   4.833   1.590 -0.3390  0.3701 -1.7863
17688SOL    HW256981   6.482   4.949   1.633  0.4207 -1.0530  0.7682
17689SOL     OW56982   1.858   0.469   8.419  0.4960 -0.2036 -0.2221
17689SOL    HW156983   1.930   0.433   8.368  0.9210  1.1123 -0.6112
17689SOL    HW256984   1.884   0.560   8.435 -1.1427  0.3441 -0.5013
17690SOL     OW56985   8.501   6.621   9.400  0.2021 -0.2217  0.2861
17690SOL    HW156986   8.431   6.556   9.392  1.1429 -1.3412  0.8411
17690SOL    HW256987   8.581   6.569   9.405  0.9740  0.9916  0.8972
17691SOL     OW56988   3.997   5.203   1.768 -0.5236  0.2381  0.7282
17691SOL    HW156989   3.942   5.224   1.693  1.9171  1.1346 -0.9443
17691SOL    HW256990   3.953   5.243   1.843 -3.5289 -1.4783  0.0539
17692SOL     OW56991   0.469   5.670   1.676  0.2819  0.1318 -0.1251
17692SOL    HW156992   0.503   5.631   1.756 -0.3592  1.4813  0.8426
17692SOL    HW256993   0.546   5.680   1.620  0.3410 -3.3477 -0.8548
17693SOL     OW56994   8.769   5.631   0.163  0.0496  0.0356 -0.3322
17693SOL    HW156995   8.749   5.539   0.147 -0.8372 -0.1035  1.3407
17693SOL    HW256996   8.687   5.669   0.193  0.7955  0.9786  0.6062
17694SOL     OW56997   9.934   7.162   1.657 -0.8927 -0.8345  0.3487
17694SOL    HW156998   9.942   7.163   1.753 -1.0920  1.1400  0.3873
17694SOL    HW256999   9.895   7.247   1.636  1.5672 -0.0838 -1.6831
17695SOL     OW57000   0.938   8.413   0.648 -0.3325 -0.2144  0.0512
17695SOL    HW157001   0.920   8.496   0.605  1.2729 -0.8615 -2.0490
17695SOL    HW257002   0.872   8.406   0.717 -0.0291  3.1208  0.8328
17696SOL     OW57003   0.164   5.549   9.346  0.2848 -0.3271 -0.2694
17696SOL    HW157004   0.248   5.508   9.324  0.2192  0.0565 -1.3401
17696SOL    HW257005   0.103   5.513   9.281 -0.4666 -0.8644  0.7191
17697SOL     OW57006   7.066   6.775   8.029  0.3151  0.2764 -0.6088
17697SOL    HW157007   6.988   6.738   7.987 -0.2717 -0.6858  1.2180
17697SOL    HW257008   7.139   6.741   7.978 -0.3259 -1.6147 -0.3484
17698SOL     OW57009   6.165   3.876   8.573  0.2435  0.5155 -0.1823
17698SOL    HW157010   6.259   3.879   8.560  0.2614  0.1357 -0.1433
17698SOL    HW257011   6.145   3.955   8.623  0.6445  0.2230  0.4531
17699SOL     OW57012   4.783   3.520   7.649 -0.4454 -0.3280  0.3991
17699SOL    HW157013   4.761   3.543   7.739  1.5254  0.4694  0.7310
17699SOL    HW257014   4.861   3.572   7.630 -1.0364 -0.1903 -1.9105
17700SOL     OW57015   5.934   3.252   1.797  0.0805 -0.1926  0.1464
17700SOL    HW157016   5.852   3.290   1.765 -0.3091 -0.6665  0.5691
17700SOL    HW257017   6.002   3.301   1.752 -0.4255  0.6749  0.3024
17701SOL     OW57018   7.803   3.414   4.358 -0.5466  0.2780  0.1685
17701SOL    HW157019   7.874   3.359   4.325  1.0772  1.1496  2.0390
17701SOL    HW257020   7.753   3.357   4.416 -0.6577 -0.0141 -0.2106
17702SOL     OW57021   3.699   5.773   1.959  0.2590  0.0865 -0.0772
17702SOL    HW157022   3.623   5.732   1.917 -0.0222 -0.1941  0.6912
17702SOL    HW257023   3.684   5.762   2.053  0.9241  0.6231  0.1032
17703SOL     OW57024   2.982   8.164   0.514 -0.0852  0.1982  0.4850
17703SOL    HW157025   3.012   8.243   0.558  1.9516  0.2590 -0.8966
17703SOL    HW257026   2.900   8.190   0.472  0.0516  1.2888  0.8691
17704SOL     OW57027   8.047   5.991   5.041 -0.5053  0.6991  0.3522
17704SOL    HW157028   7.968   5.961   4.997  0.5375 -0.9583 -0.5019
17704SOL    HW257029   8.091   6.047   4.977 -0.2245  0.3342  0.2218
17705SOL     OW57030   2.052   0.195   0.011  0.2095 -0.2931 -0.1420
17705SOL    HW157031   2.085   0.229   0.094  0.7408 -1.9881  0.3862
17705SOL    HW257032   2.125   0.203  -0.050  0.5942 -1.1441  0.1887
17706SOL     OW57033   7.960   5.405   2.027  0.0232  0.4206 -0.0643
17706SOL    HW157034   7.971   5.470   1.958  0.2122  1.2377  0.7097
17706SOL    HW257035   8.049   5.381   2.053 -0.0368 -0.7687 -0.8934
17707SOL     OW57036   3.906   8.170   6.287 -0.2442 -0.1655  0.2767
17707SOL    HW157037   3.876   8.136   6.371 -1.2493  0.9300  0.3995
17707SOL    HW257038   3.998   8.193   6.301 -0.4017  0.0044  1.0827
17708SOL     OW57039  10.163   5.637   6.797  0.2353 -0.0405 -0.2898
17708SOL    HW157040  10.244   5.657   6.749 -0.7328 -0.9685 -2.4458
17708SOL    HW257041  10.190   5.570   6.861  1.3898  0.5524 -0.1200
17709SOL     OW57042   3.790   9.550   3.768 -0.1038  0.1555  0.2681
17709SOL    HW157043   3.815   9.590   3.852 -0.7811 -2.1160  1.6635
17709SOL    HW257044   3.750   9.466   3.793 -1.5401 -0.0248 -2.2817
17710SOL     OW57045   6.052   1.238   4.820  0.3452  0.3319 -0.0082
17710SOL    HW157046   6.027   1.153   4.784  0.4990 -0.9302  2.6449
17710SOL    HW257047   6.148   1.234   4.825  0.5708  1.6701 -2.0338
17711SOL     OW57048   2.058   5.782   3.983  0.4479 -0.0045  0.2708
17711SOL    HW157049   2.004   5.808   3.908 -0.8024  1.0250  1.4915
17711SOL    HW257050   2.143   5.762   3.944  0.0036  1.0437 -1.3686
17712SOL     OW57051   1.847   0.176   2.689 -1.2460 -0.0056  0.1732
17712SOL    HW157052   1.794   0.097   2.699 -0.2052 -0.7014  0.3779
17712SOL    HW257053   1.907   0.156   2.617 -1.1924  0.7318  0.0032
17713SOL     OW57054   3.696   1.974   0.648  0.7467 -0.5971 -0.0923
17713SOL    HW157055   3.715   2.047   0.588  0.1739  1.0209  1.5864
17713SOL    HW257056   3.604   1.986   0.672  1.2578 -0.4665  1.9850
17714SOL     OW57057   4.713   6.287   2.309 -0.3710  0.5338  0.2952
17714SOL    HW157058   4.629   6.329   2.294 -0.5029  0.4844  0.8772
17714SOL    HW257059   4.778   6.349   2.275 -0.5381  1.3978  1.4821
17715SOL     OW57060   0.538   5.402   1.249  0.1780 -0.3539 -0.0828
17715SOL    HW157061   0.584   5.484   1.229 -0.2918  0.2571  1.2609
17715SOL    HW257062   0.596   5.355   1.309  0.5920 -1.1770 -1.0981
17716SOL     OW57063   7.386   5.148   7.297  0.4767 -0.1544 -0.8640
17716SOL    HW157064   7.307   5.144   7.352  0.4745  0.2018 -0.8389
17716SOL    HW257065   7.374   5.078   7.233  1.4122 -1.9321  0.8207
17717SOL     OW57066   9.963   2.888   0.991 -0.7550  0.3205 -0.2216
17717SOL    HW157067   9.890   2.887   1.053  0.4098 -1.4216  1.2335
17717SOL    HW257068  10.038   2.918   1.043 -0.2775  1.5303 -1.5422
17718SOL     OW57069   2.764   7.610   4.834 -0.2481  0.3556 -0.0911
17718SOL    HW157070   2.749   7.618   4.740 -0.8462 -0.7114 -0.1016
17718SOL    HW257071   2.695   7.551   4.865  0.2601  0.2645  0.9262
17719SOL     OW57072   4.786   3.985   0.180  0.3565  0.3742 -0.5244
17719SOL    HW157073   4.876   3.977   0.150  1.0399  3.1499  0.5092
17719SOL    HW257074   4.749   4.056   0.129 -1.1497 -0.4324 -0.6269
17720SOL     OW57075   9.305   8.024   1.568 -0.0168 -0.3350  0.1488
17720SOL    HW157076   9.265   8.016   1.655  1.5917  1.7912  1.1709
17720SOL    HW257077   9.258   8.097   1.527  0.0109 -0.5737 -0.3111
17721SOL     OW57078   5.142   5.995   9.613 -0.2050 -0.3781 -0.0352
17721SOL    HW157079   5.150   5.985   9.518  2.1467 -0.1555  0.0634
17721SOL    HW257080   5.053   5.966   9.634 -0.4631 -1.3025 -2.1822
17722SOL     OW57081   8.492   6.547   4.257  0.1862 -0.2521  0.3620
17722SOL    HW157082   8.541   6.481   4.207 -1.2010 -2.2608  1.5096
17722SOL    HW257083   8.404   6.544   4.219 -0.1601  0.1683  1.1217
17723SOL     OW57084   6.753   3.317   5.207 -0.7337  0.1131 -0.3226
17723SOL    HW157085   6.736   3.225   5.185 -2.7223  0.1175  0.9605
17723SOL    HW257086   6.692   3.366   5.152 -1.2667  0.5072  0.6110
17724SOL     OW57087   1.934   5.688   9.926 -0.2433 -0.2987 -0.3262
17724SOL    HW157088   1.949   5.781   9.910  0.7585 -0.5199 -0.7795
17724SOL    HW257089   1.907   5.653   9.841 -0.2912 -0.4787 -0.2377
17725SOL     OW57090   1.105   5.170   2.302 -0.1594 -0.7402 -0.1906
17725SOL    HW157091   1.092   5.084   2.341  2.9209 -1.2241 -0.0192
17725SOL    HW257092   1.087   5.232   2.373  1.8051 -1.4646  0.9922
17726SOL     OW57093   1.811   9.500   1.835 -0.0440  0.3691  0.7744
17726SOL    HW157094   1.795   9.585   1.794  2.0149 -0.5163 -2.2073
17726SOL    HW257095   1.733   9.484   1.888 -1.4420  3.1446 -0.2427
17727SOL     OW57096   4.046   2.900   5.043  0.0411  0.3045 -0.3685
17727SOL    HW157097   3.956   2.892   5.010  0.0911 -1.4684 -0.1543
17727SOL    HW257098   4.038   2.888   5.137  0.4773  0.3744 -0.3207
17728SOL     OW57099   1.246   0.878   9.795  0.5828  0.1398 -0.5299
17728SOL    HW157100   1.169   0.865   9.850  0.8127 -0.7706 -0.4200
17728SOL    HW257101   1.212   0.921   9.716 -0.1664 -0.9437 -0.8187
17729SOL     OW57102   1.641   1.477   1.749 -0.7106  0.3354 -0.7502
17729SOL    HW157103   1.734   1.496   1.763 -0.9014  0.8144 -0.0392
17729SOL    HW257104   1.614   1.436   1.831 -1.4933  1.6790 -0.3054
17730SOL     OW57105   9.108   9.831   2.541  0.7233  0.0861  0.3345
17730SOL    HW157106   9.068   9.902   2.491 -1.1248 -1.3801 -0.3952
17730SOL    HW257107   9.199   9.830   2.512  0.5541  1.5251 -0.3356
17731SOL     OW57108   1.979   2.702   7.340  0.3289 -0.3489 -0.0671
17731SOL    HW157109   2.007   2.619   7.300 -1.8414 -0.5664 -1.2828
17731SOL    HW257110   1.920   2.675   7.410  1.2270  0.1522  0.9029
17732SOL     OW57111   5.512   7.061   2.778  0.1879  0.0741 -0.0856
17732SOL    HW157112   5.522   7.030   2.688  0.1431  0.8033 -0.3518
17732SOL    HW257113   5.444   7.128   2.772  0.2303  0.1676  0.4854
17733SOL     OW57114   8.867   3.663   2.957  0.1129  0.2985 -0.1793
17733SOL    HW157115   8.936   3.704   2.907  1.3216 -0.5234  0.7419
17733SOL    HW257116   8.831   3.733   3.012 -0.1238  0.8301 -1.0007
17734SOL     OW57117   0.322   3.042   2.116 -0.5831 -0.1292 -0.1355
17734SOL    HW157118   0.279   3.123   2.089 -1.9367 -0.8772 -0.3147
17734SOL    HW257119   0.408   3.045   2.074  0.0099  1.9110  1.0957
17735SOL     OW57120   1.365   3.479   2.806  0.0914  0.0206  0.0134
17735SOL    HW157121   1.369   3.404   2.866 -1.9235  0.9478  1.4265
17735SOL    HW257122   1.456   3.503   2.791  0.8265 -2.7811 -0.6424
17736SOL     OW57123   8.310   7.615   5.259  0.3054  0.7429  0.0199
17736SOL    HW157124   8.379   7.581   5.315 -0.6231  0.6752  1.1553
17736SOL    HW257125   8.236   7.556   5.273  0.2636  0.2986 -1.8351
17737SOL     OW57126   1.835   2.598   4.457  0.9191  0.1454 -0.3256
17737SOL    HW157127   1.878   2.682   4.471  0.3713  0.1867  1.3235
17737SOL    HW257128   1.745   2.621   4.434  0.4092  0.0176  1.4662
17738SOL     OW57129   6.523   0.217   9.589 -0.2136 -0.1164  0.1965
17738SOL    HW157130   6.586   0.146   9.597  0.0420 -0.2006 -2.0934
17738SOL    HW257131   6.437   0.174   9.588 -0.1811 -0.2049  0.7066
17739SOL     OW57132   9.868   1.125   9.188 -0.5812  0.1406  0.5933
17739SOL    HW157133   9.790   1.106   9.135 -1.2995 -0.2150  1.7434
17739SOL    HW257134   9.918   1.043   9.186  0.3591  0.6993 -1.0525
17740SOL     OW57135   2.182   0.685   3.441  0.5273  0.3380  0.0631
17740SOL    HW157136   2.192   0.592   3.460 -2.3336  0.0075  0.2564
17740SOL    HW257137   2.177   0.690   3.346 -0.2838  0.1804  0.0978
17741SOL     OW57138   0.718   8.729   3.495 -0.0181 -0.1856 -0.1658
17741SOL    HW157139   0.766   8.795   3.445 -0.2494  0.4045  0.3695
17741SOL    HW257140   0.774   8.652   3.494  0.5894  0.2508 -0.2030
17742SOL     OW57141   2.440   1.947   3.739  0.3558 -0.4910  0.1815
17742SOL    HW157142   2.510   1.977   3.681  0.0213 -1.2498 -0.6392
17742SOL    HW257143   2.367   2.006   3.720  1.3304  1.6214  2.4955
17743SOL     OW57144   3.066   6.546   7.906 -0.3347  0.1250  0.0699
17743SOL    HW157145   3.101   6.476   7.852 -1.9167  1.0354 -2.3199
17743SOL    HW257146   3.135   6.613   7.907  0.2716 -0.5002  0.4125
17744SOL     OW57147   1.805   7.183   3.097 -0.5086  0.4604 -1.0223
17744SOL    HW157148   1.812   7.259   3.155 -1.0528 -0.2871  0.0436
17744SOL    HW257149   1.893   7.172   3.061 -0.8990  2.9988 -3.0722
17745SOL     OW57150   9.062   3.278   0.870  0.3722 -0.1848  0.0026
17745SOL    HW157151   9.000   3.333   0.823 -1.2024 -2.7907 -1.2177
17745SOL    HW257152   9.062   3.313   0.959 -0.8264  1.5198 -0.6154
17746SOL     OW57153   6.460   3.368   4.244 -0.2307  0.1399  0.3017
17746SOL    HW157154   6.434   3.350   4.335 -1.0073 -0.8487 -0.1028
17746SOL    HW257155   6.555   3.372   4.246 -0.2300  3.9953  1.8728
17747SOL     OW57156   1.510   0.753   1.195  0.2720 -0.0203 -0.2049
17747SOL    HW157157   1.601   0.770   1.170  0.1899 -2.0345 -2.1303
17747SOL    HW257158   1.515   0.681   1.258  0.0097 -0.2810 -0.4790
17748SOL     OW57159   6.786   5.662   9.053 -0.7291 -0.2269  0.7719
17748SOL    HW157160   6.803   5.618   9.136 -0.6980  1.3663  1.6558
17748SOL    HW257161   6.706   5.712   9.068 -1.2830 -0.6728 -0.4972
17749SOL     OW57162   6.296   0.002   7.802  0.4413 -0.5007 -0.1268
17749SOL    HW157163   6.321  -0.063   7.735  2.0452 -0.9786  0.8833
17749SOL    HW257164   6.217   0.043   7.767  1.5759 -0.2711 -2.6299
17750SOL     OW57165  10.080   1.942   1.011 -0.8211 -0.3525 -0.5458
17750SOL    HW157166  10.071   1.854   0.975 -0.6326 -0.6148  0.0421
17750SOL    HW257167  10.136   1.932   1.088  0.7655  0.5577 -1.5189
17751SOL     OW57168   3.100   3.246   7.780  0.3941  0.3967  0.3463
17751SOL    HW157169   3.132   3.179   7.841 -1.0542 -2.8592 -2.1934
17751SOL    HW257170   3.024   3.206   7.737 -0.3937  3.5984 -1.6128
17752SOL     OW57171   5.282   6.645   4.983  0.7999  0.6280  0.9378
17752SOL    HW157172   5.191   6.671   4.996  0.5715  1.2315 -1.3904
17752SOL    HW257173   5.292   6.566   5.037 -0.6209  1.4004  2.4183
17753SOL     OW57174   1.106   9.610   8.372 -0.4698  0.3825 -0.2035
17753SOL    HW157175   1.062   9.680   8.323  0.1190  0.2808 -0.8939
17753SOL    HW257176   1.044   9.537   8.372 -0.4742  0.3829 -0.8010
17754SOL     OW57177   6.398   5.254   6.998  0.0811 -0.3500 -0.6422
17754SOL    HW157178   6.321   5.203   7.024  1.0696 -0.8849  1.3907
17754SOL    HW257179   6.440   5.200   6.931 -0.2886 -0.9713 -0.3856
17755SOL     OW57180   5.697   9.896   9.257 -1.1180  0.1305  0.4059
17755SOL    HW157181   5.787   9.919   9.235 -0.7532 -0.7497  0.9274
17755SOL    HW257182   5.703   9.854   9.342 -2.1860  1.1706  1.0362
17756SOL     OW57183   9.456   9.371   3.835  0.0069 -0.1562 -0.5201
17756SOL    HW157184   9.439   9.305   3.903 -1.0706  0.6735  0.0480
17756SOL    HW257185   9.552   9.379   3.834  0.3511 -3.1823 -2.0569
17757SOL     OW57186   7.422   4.038   5.822 -0.4400 -0.1457 -0.3201
17757SOL    HW157187   7.343   4.083   5.850 -0.0110 -0.1948  1.0309
17757SOL    HW257188   7.453   4.089   5.746 -2.0433 -0.4742 -1.2274
17758SOL     OW57189   5.325   5.117   9.243  0.1353  0.3343 -0.5594
17758SOL    HW157190   5.232   5.120   9.266  0.5764 -0.9616  1.7153
17758SOL    HW257191   5.356   5.207   9.259 -0.2825  0.2387  0.9431
17759SOL     OW57192   3.931   0.451   3.934  0.2190  0.1143 -0.5173
17759SOL    HW157193   3.949   0.518   3.999  0.5414  0.6308 -1.1251
17759SOL    HW257194   3.998   0.383   3.950  0.7186  0.5476 -0.7237
17760SOL     OW57195   1.007   0.648   4.376  0.1126 -0.4488  0.4585
17760SOL    HW157196   0.966   0.725   4.416 -0.2274  0.3418 -1.3207
17760SOL    HW257197   1.057   0.682   4.303 -1.5917 -2.0363 -1.5947
17761SOL     OW57198   7.233   7.358   3.184 -0.1937  0.0578  0.8498
17761SOL    HW157199   7.180   7.403   3.118 -1.0763 -2.5518 -0.3487
17761SOL    HW257200   7.322   7.359   3.148 -0.6127 -1.0621 -0.2554
17762SOL     OW57201   5.617   0.600   5.715  0.0768 -0.2976 -0.1855
17762SOL    HW157202   5.606   0.598   5.810  1.8042 -0.0882  0.0651
17762SOL    HW257203   5.598   0.690   5.690  1.5207  0.1710  0.2803
17763SOL     OW57204   3.496   6.815   3.353 -0.4110  0.4138 -0.3420
17763SOL    HW157205   3.443   6.736   3.347 -0.1869  0.3096 -0.9634
17763SOL    HW257206   3.580   6.786   3.388 -1.0009  0.6951  1.3837
17764SOL     OW57207   4.069   8.599  10.104 -0.0433  0.6905 -0.2006
17764SOL    HW157208   4.011   8.573  10.033  0.2330  0.5937 -0.3961
17764SOL    HW257209   4.156   8.572  10.074 -0.0165 -0.0520  0.5031
17765SOL     OW57210   2.974   5.562   3.760  0.5292  0.2709  0.2425
17765SOL    HW157211   2.981   5.524   3.672 -0.6162  1.5492 -0.4297
17765SOL    HW257212   2.996   5.489   3.819  0.5921 -0.8083 -1.0624
17766SOL     OW57213   8.527   3.174   5.270 -0.5064 -0.1711  0.1379
17766SOL    HW157214   8.479   3.191   5.351 -0.3614 -0.6411  0.3269
17766SOL    HW257215   8.530   3.078   5.263 -1.6941 -0.1556 -1.1293
17767SOL     OW57216   5.874   9.747   7.164  0.2046 -0.3977 -0.2143
17767SOL    HW157217   5.786   9.739   7.201 -1.8995  0.6607 -4.3831
17767SOL    HW257218   5.887   9.665   7.117  1.7488 -0.7283  0.7226
17768SOL     OW57219   1.968   6.786   0.484 -0.4400 -0.3884 -0.0073
17768SOL    HW157220   2.049   6.787   0.432 -0.3358 -0.2617  0.1542
17768SOL    HW257221   1.974   6.865   0.538  0.4249 -1.5406  1.6924
17769SOL     OW57222   2.722   7.420   0.072 -0.2997 -0.0560 -0.1353
17769SOL    HW157223   2.756   7.509   0.060  0.4463 -0.3075  0.0239
17769SOL    HW257224   2.783   7.365   0.021  1.1296 -0.8254  2.2451
17770SOL     OW57225   2.361   1.694   8.669 -0.5942  0.6847  0.2172
17770SOL    HW157226   2.455   1.687   8.686 -0.7197 -0.6760  0.5151
17770SOL    HW257227   2.321   1.631   8.730 -1.5111 -0.3544 -1.3801
17771SOL     OW57228   4.737   9.861   1.126  0.3803 -0.1388 -0.1699
17771SOL    HW157229   4.663   9.917   1.105 -0.9554 -1.6914  0.1849
17771SOL    HW257230   4.814   9.913   1.104 -0.8054  1.4728 -0.6744
17772SOL     OW57231   4.567   8.701   2.831 -0.6884 -0.5799 -0.1617
17772SOL    HW157232   4.515   8.770   2.873 -0.8388 -0.2247 -0.9133
17772SOL    HW257233   4.623   8.667   2.901 -0.9479 -0.0169  0.3289
17773SOL     OW57234   7.714   0.845   2.919 -0.8954  0.3039 -0.0166
17773SOL    HW157235   7.724   0.923   2.974  0.0851 -0.2818  0.6744
17773SOL    HW257236   7.734   0.875   2.831 -1.1078  0.9632  0.1526
17774SOL     OW57237   1.803   2.694   7.057  0.2651  0.0212  0.7971
17774SOL    HW157238   1.835   2.629   7.121 -2.3013 -1.5889  0.6009
17774SOL    HW257239   1.751   2.754   7.110  1.0641  0.8112  0.6963
17775SOL     OW57240   5.161   7.343   5.348 -0.1145 -0.0261  1.0261
17775SOL    HW157241   5.241   7.308   5.309 -1.6311 -2.2324 -0.3624
17775SOL    HW257242   5.115   7.386   5.276 -1.4270 -1.2499  1.0760
17776SOL     OW57243   9.938   4.694  10.166  0.1333  0.5635 -0.0449
17776SOL    HW157244   9.946   4.604  10.132 -3.3855  0.8475 -2.0842
17776SOL    HW257245   9.992   4.746  10.107 -0.4385  0.1732 -0.9329
17777SOL     OW57246  10.085   7.823   4.853  0.3966  0.7075 -0.5939
17777SOL    HW157247  10.038   7.834   4.935 -0.3952 -1.4032 -0.6769
17777SOL    HW257248  10.111   7.730   4.853  1.2395  0.9004 -2.2712
17778SOL     OW57249   2.513   5.596   4.830 -0.0844  0.1528  0.8750
17778SOL    HW157250   2.537   5.509   4.862  0.6548  0.6141  1.6318
17778SOL    HW257251   2.418   5.594   4.824 -0.0534 -0.8197  0.5434
17779SOL     OW57252   6.399   3.702   3.247 -0.0645  0.0420 -0.1542
17779SOL    HW157253   6.429   3.763   3.179  0.3707 -1.0394 -0.9600
17779SOL    HW257254   6.320   3.743   3.282 -0.0009  0.8811 -0.9472
17780SOL     OW57255   6.293   7.104   9.501 -0.6225  0.2477 -0.3993
17780SOL    HW157256   6.228   7.174   9.495 -0.4850  0.4380  0.1775
17780SOL    HW257257   6.247   7.032   9.543 -0.2221  0.7293  0.9527
17781SOL     OW57258   3.177   1.612   4.848 -0.6200 -0.2459 -0.2654
17781SOL    HW157259   3.233   1.534   4.847  0.2471  0.3645 -0.2936
17781SOL    HW257260   3.089   1.578   4.836 -0.3104 -1.2762  0.2936
17782SOL     OW57261   5.106   3.353   1.303 -0.0148 -0.2859 -0.4542
17782SOL    HW157262   5.131   3.295   1.231  0.7239  0.5694 -0.9184
17782SOL    HW257263   5.013   3.370   1.290 -0.4060 -1.8507  0.0652
17783SOL     OW57264   8.695   8.523   0.826  0.0362 -0.6260  0.1426
17783SOL    HW157265   8.655   8.608   0.844  0.5770 -0.2342 -0.4797
17783SOL    HW257266   8.710   8.485   0.913 -0.3530 -0.1578  0.4192
17784SOL     OW57267   5.801   1.561   3.930 -0.1455  0.1573 -0.6528
17784SOL    HW157268   5.775   1.505   4.004 -0.2531  0.0828 -0.7469
17784SOL    HW257269   5.779   1.650   3.958 -1.4764  0.0137 -1.1337
17785SOL     OW57270   5.901   7.708   0.718 -0.0784 -0.3985 -0.2419
17785SOL    HW157271   5.975   7.716   0.779 -1.1792  0.6928  1.0055
17785SOL    HW257272   5.866   7.797   0.711 -1.1137 -0.8500 -1.0250
17786SOL     OW57273   4.234   1.379   3.384  0.3752 -0.0020 -0.1468
17786SOL    HW157274   4.217   1.436   3.309  1.1416 -1.3435 -1.3716
17786SOL    HW257275   4.170   1.407   3.450 -2.9869 -1.2546 -2.6131
17787SOL     OW57276   6.732   0.400   3.530  0.4610 -0.1529  0.2855
17787SOL    HW157277   6.788   0.366   3.460  0.1534 -0.2929  0.1085
17787SOL    HW257278   6.789   0.460   3.578  0.8654 -0.5353  0.3006
17788SOL     OW57279   3.274   7.176  10.099 -0.0756 -0.6219  0.1250
17788SOL    HW157280   3.347   7.116  10.112 -0.0933 -0.6844 -0.0708
17788SOL    HW257281   3.250   7.166  10.007  0.8513  0.7180 -0.2983
17789SOL     OW57282   7.263   6.389   4.989 -0.3842 -0.5736  0.0125
17789SOL    HW157283   7.296   6.303   4.967 -0.2454 -0.2029 -1.2678
17789SOL    HW257284   7.227   6.424   4.908 -1.0147  0.3271  0.6465
17790SOL     OW57285   5.260   1.877   8.566 -0.2499  0.0702  0.2767
17790SOL    HW157286   5.337   1.926   8.596 -0.1046 -0.4700  0.8071
17790SOL    HW257287   5.284   1.785   8.579  0.6213 -0.3896 -3.2837
17791SOL     OW57288   3.145   5.128   1.644  0.5274 -1.0890  0.6479
17791SOL    HW157289   3.148   5.126   1.548 -0.5870 -0.1611  0.5663
17791SOL    HW257290   3.119   5.218   1.665  1.1467 -1.1799  1.8386
17792SOL     OW57291   4.465   5.217   0.311  0.0918 -0.0293  0.0380
17792SOL    HW157292   4.375   5.205   0.340 -0.0242  3.1865  1.5099
17792SOL    HW257293   4.511   5.138   0.340 -1.9577 -1.1271  0.4835
17793SOL     OW57294   1.216   9.556   7.394  0.6210  0.1940 -0.0734
17793SOL    HW157295   1.183   9.629   7.341  2.7023  0.0195 -1.7156
17793SOL    HW257296   1.152   9.485   7.380 -1.7860  1.7535  2.0568
17794SOL     OW57297   9.884   1.375   9.498  0.0763  0.4903 -0.1971
17794SOL    HW157298   9.861   1.282   9.498  0.5904  0.3536  0.3184
17794SOL    HW257299   9.954   1.382   9.433  0.0735  0.5024 -0.1988
17795SOL     OW57300   8.304   0.513   5.511  0.5683  0.4929  0.5043
17795SOL    HW157301   8.236   0.515   5.444  0.8171 -0.6238  0.1878
17795SOL    HW257302   8.262   0.473   5.587  0.0637  2.4633  1.3167
17796SOL     OW57303   4.246   7.099  10.009  0.0870 -0.2889  0.4556
17796SOL    HW157304   4.247   7.016  10.057  0.1984 -0.0821  0.8147
17796SOL    HW257305   4.157   7.104   9.974  0.3853 -1.0523 -0.4444
17797SOL     OW57306   6.549   9.627   4.678 -0.1844  0.3085 -0.4732
17797SOL    HW157307   6.504   9.660   4.756 -1.4555 -0.9417 -0.6334
17797SOL    HW257308   6.480   9.585   4.627  0.6482  0.9282 -2.2048
17798SOL     OW57309   9.601   5.766   9.389 -0.3576 -0.2953  0.0596
17798SOL    HW157310   9.637   5.846   9.350 -0.0628 -1.0273 -1.2286
17798SOL    HW257311   9.538   5.798   9.454 -0.3493  0.9870 -0.5219
17799SOL     OW57312   8.259   6.751   6.498 -0.0933 -0.5071 -0.2083
17799SOL    HW157313   8.348   6.728   6.526 -0.0459 -0.6808 -0.5010
17799SOL    HW257314   8.263   6.753   6.403 -0.4211 -0.5885 -0.2254
17800SOL     OW57315   0.213   0.205   8.647  0.0686  0.0459  0.8104
17800SOL    HW157316   0.302   0.228   8.675  0.8679  0.1748 -1.6417
17800SOL    HW257317   0.198   0.118   8.684  1.3122 -0.0886  1.0489
17801SOL     OW57318   5.009   0.801  10.143 -0.3853  0.1586 -0.1174
17801SOL    HW157319   4.991   0.839  10.229  0.4264 -0.4046  0.3059
17801SOL    HW257320   5.065   0.725  10.160  0.2066  0.3273 -1.1826
17802SOL     OW57321   9.575   1.522   9.391  0.1957  0.3161  0.2135
17802SOL    HW157322   9.645   1.587   9.381 -0.7200  1.2208 -0.4897
17802SOL    HW257323   9.606   1.465   9.462 -0.0809  3.0135  2.6889
17803SOL     OW57324   2.415   3.625   7.716 -0.3211 -0.0425 -0.1812
17803SOL    HW157325   2.328   3.661   7.698 -0.4123  1.1581  2.3369
17803SOL    HW257326   2.458   3.625   7.631 -2.6895 -0.5202 -1.4811
17804SOL     OW57327   7.221   1.306   5.181 -0.0870 -0.1024 -0.9858
17804SOL    HW157328   7.199   1.382   5.233 -0.4057 -0.1936 -0.9887
17804SOL    HW257329   7.154   1.303   5.112 -2.2847 -2.4145  1.0542
17805SOL     OW57330   0.907   4.398   0.615 -0.1842  0.6343 -0.7617
17805SOL    HW157331   0.905   4.305   0.639 -2.0064  0.5914 -0.8801
17805SOL    HW257332   0.989   4.431   0.651  0.3466 -0.9512 -0.4482
17806SOL     OW57333   0.930   4.409   7.047  0.7666 -0.1804 -0.1661
17806SOL    HW157334   0.982   4.423   6.967  2.6418  1.1332  1.1946
17806SOL    HW257335   0.972   4.334   7.090  1.5905  0.8804  0.9355
17807SOL     OW57336   0.612   9.402   5.022  0.3802  0.2864 -0.1171
17807SOL    HW157337   0.596   9.489   5.058  0.6172 -0.3644  1.6355
17807SOL    HW257338   0.704   9.384   5.042  0.5449 -0.0692 -1.1448
17808SOL     OW57339   0.428   6.657   4.849 -0.1957 -0.2716  0.5825
17808SOL    HW157340   0.345   6.610   4.844  0.2075 -1.0358  0.7751
17808SOL    HW257341   0.474   6.615   4.923  0.5699 -0.2194  0.1472
17809SOL     OW57342   3.751   2.313   2.018  0.3438  0.4668  0.2278
17809SOL    HW157343   3.787   2.387   2.067  0.1597  0.3049  0.6094
17809SOL    HW257344   3.824   2.283   1.964  0.5590  0.6244  0.4261
17810SOL     OW57345   6.318   1.071   1.708 -0.0629  0.9747 -0.1590
17810SOL    HW157346   6.259   1.072   1.784  0.6426  0.3392  0.4075
17810SOL    HW257347   6.324   1.163   1.682 -1.1426  1.0782 -0.1063
17811SOL     OW57348   4.284   9.276   7.057  0.3955 -0.1820 -0.4272
17811SOL    HW157349   4.275   9.370   7.068  0.2722 -0.2729  0.2979
17811SOL    HW257350   4.371   9.255   7.089 -0.3815 -0.6044  1.5640
17812SOL     OW57351   1.591   2.302   5.883  0.4978 -0.2300 -0.6811
17812SOL    HW157352   1.660   2.365   5.860  1.0882  0.1615  1.8329
17812SOL    HW257353   1.618   2.221   5.841  1.5665  0.3503 -1.1658
17813SOL     OW57354   2.716   2.248   1.952  0.5229 -0.3545 -0.4059
17813SOL    HW157355   2.726   2.251   1.857  1.9735  1.4706 -0.2751
17813SOL    HW257356   2.767   2.172   1.979  2.5338  0.7290 -0.9353
17814SOL     OW57357   6.143   0.084   7.059  0.2762 -0.1222 -0.4888
17814SOL    HW157358   6.100   0.066   7.143 -1.3009 -0.8758 -1.4112
17814SOL    HW257359   6.236   0.084   7.080 -0.0687 -0.2819  1.2617
17815SOL     OW57360   1.803   6.679   6.404  0.7819 -0.0713  0.1679
17815SOL    HW157361   1.822   6.585   6.411 -0.0210 -0.2425  0.1941
17815SOL    HW257362   1.850   6.707   6.325 -0.1684 -0.8338 -0.7050
17816SOL     OW57363   1.069   2.355   2.442  0.2446 -0.3346 -0.4776
17816SOL    HW157364   0.979   2.385   2.428 -0.3466 -0.8539  1.7929
17816SOL    HW257365   1.123   2.421   2.399 -1.1782  0.9009 -0.4524
17817SOL     OW57366   9.990   5.664   4.052  0.4272 -0.4626  0.0938
17817SOL    HW157367  10.066   5.706   4.094  0.4673 -0.6331  0.1896
17817SOL    HW257368  10.019   5.647   3.962  0.7559 -1.2011  0.3390
17818SOL     OW57369   4.495   3.838   0.101 -0.2733  0.4927 -0.4135
17818SOL    HW157370   4.438   3.895   0.050 -0.5183  0.0791 -0.6073
17818SOL    HW257371   4.582   3.848   0.061 -0.0481  1.6558  0.3177
17819SOL     OW57372   6.952   9.170   9.284  0.0602 -0.6487  0.1362
17819SOL    HW157373   7.007   9.212   9.350  0.7617 -2.5454  0.8359
17819SOL    HW257374   7.012   9.113   9.237 -0.6244 -0.0210 -1.5666
17820SOL     OW57375   3.253   1.566   3.190  0.1344 -0.0444 -0.1241
17820SOL    HW157376   3.293   1.620   3.122  1.1710  0.6697  0.9992
17820SOL    HW257377   3.302   1.484   3.188  1.8578  0.8565  1.3057
17821SOL     OW57378   5.343   5.406   7.160 -0.5607  0.0901  0.5667
17821SOL    HW157379   5.396   5.451   7.226 -0.9719 -1.0047  1.6965
17821SOL    HW257380   5.380   5.433   7.076  0.6848  0.6824  1.2829
17822SOL     OW57381   8.428   2.391   3.436  0.3552  0.7750  0.2639
17822SOL    HW157382   8.521   2.414   3.437  0.8224 -0.9473  0.1939
17822SOL    HW257383   8.383   2.474   3.424  1.8297  1.7924  1.3564
17823SOL     OW57384   2.127   7.621   1.454 -0.2148  0.7727  0.5897
17823SOL    HW157385   2.058   7.613   1.518 -0.8291  2.1059  0.1357
17823SOL    HW257386   2.187   7.687   1.490  0.4969  0.0863  0.6952
17824SOL     OW57387   9.938   0.907   6.644 -0.2253  0.3411  0.5043
17824SOL    HW157388   9.979   0.884   6.561 -3.6931  0.3028 -1.4204
17824SOL    HW257389   9.997   0.873   6.711  1.8021 -1.3372 -1.9603
17825SOL     OW57390   2.830   9.034   0.016 -0.7561 -0.7424  0.5827
17825SOL    HW157391   2.925   9.035   0.025 -0.8718  0.5439  1.9329
17825SOL    HW257392   2.800   8.968   0.079 -0.8204 -0.2851  1.0379
17826SOL     OW57393   1.848   8.777   4.201  0.0706  0.2521 -0.0047
17826SOL    HW157394   1.779   8.837   4.172  0.3260  0.6437  0.1947
17826SOL    HW257395   1.806   8.690   4.199 -0.9133  0.6437  1.5968
17827SOL     OW57396   5.758   2.753   3.260  0.0279  0.3052  0.3911
17827SOL    HW157397   5.681   2.700   3.281 -0.1265  1.0109  1.7824
17827SOL    HW257398   5.745   2.781   3.169 -1.0147 -0.1505  0.3901
17828SOL     OW57399   2.628   4.718   2.895  0.0424  0.0919  0.2412
17828SOL    HW157400   2.655   4.807   2.917  0.6789 -0.2009  0.6840
17828SOL    HW257401   2.631   4.715   2.799  1.9698 -0.0147  0.2582
17829SOL     OW57402   2.841   9.508   0.386  0.4518 -0.1279 -0.4339
17829SOL    HW157403   2.873   9.586   0.431  0.6536 -0.2720 -0.3227
17829SOL    HW257404   2.785   9.541   0.316  2.2240  0.2236 -1.7428
17830SOL     OW57405   5.036   7.758   0.897  0.2303  0.1829  0.3439
17830SOL    HW157406   5.045   7.680   0.842  4.0223 -0.0786  1.0795
17830SOL    HW257407   5.043   7.725   0.987 -0.1325  1.1915  0.7610
17831SOL     OW57408   4.998   1.271   8.908 -0.1590  0.1953 -0.2888
17831SOL    HW157409   4.980   1.333   8.979  1.4645  1.2797 -0.7713
17831SOL    HW257410   4.912   1.254   8.868 -1.1002 -0.3710  1.8350
17832SOL     OW57411   7.788   5.165   1.705  0.3208  0.5272 -0.3532
17832SOL    HW157412   7.743   5.081   1.715  0.4285  0.7111  2.4911
17832SOL    HW257413   7.720   5.230   1.722  0.9137  0.9016  0.6309
17833SOL     OW57414   5.130   1.660   0.274 -0.0377  0.1551  0.0374
17833SOL    HW157415   5.119   1.590   0.210 -3.3303  2.2987 -2.0765
17833SOL    HW257416   5.085   1.629   0.353  0.8051 -1.0577  0.0675
17834SOL     OW57417   0.391   5.217   0.102  0.5995  0.3892 -0.5757
17834SOL    HW157418   0.358   5.134   0.070 -0.5304  0.7911 -0.4875
17834SOL    HW257419   0.459   5.193   0.166 -1.7759 -0.5878  1.7677
17835SOL     OW57420   7.652   4.347   4.862  0.0711 -0.0438  0.4727
17835SOL    HW157421   7.710   4.420   4.839  0.2708 -0.0031  1.0783
17835SOL    HW257422   7.658   4.342   4.957 -1.1285  0.1224  0.5643
17836SOL     OW57423   1.487   9.435   8.945  0.7103 -0.1093  0.1504
17836SOL    HW157424   1.509   9.463   9.034  2.5889  1.0727 -0.6281
17836SOL    HW257425   1.538   9.493   8.888 -1.5680  0.1472 -1.7700
17837SOL     OW57426   0.374   7.786   8.211  0.8691  0.2946 -0.1541
17837SOL    HW157427   0.311   7.727   8.170 -0.6532  1.7633 -0.0498
17837SOL    HW257428   0.361   7.774   8.305  1.0649  0.2708 -0.1297
17838SOL     OW57429   4.633   0.143   4.396  0.2141 -0.1596  0.0785
17838SOL    HW157430   4.621   0.195   4.476  0.7963 -0.3771  0.3143
17838SOL    HW257431   4.557   0.084   4.395 -0.9342  1.2703 -0.6606
17839SOL     OW57432   0.401   7.663   3.105  0.9714 -0.3436  0.5549
17839SOL    HW157433   0.473   7.624   3.055  2.4693 -0.3726  2.6003
17839SOL    HW257434   0.429   7.656   3.196 -0.7641  1.4505  1.2945
17840SOL     OW57435   5.325   3.664   7.422 -0.4585 -0.4237 -0.3674
17840SOL    HW157436   5.291   3.723   7.489 -0.2665 -0.4772 -0.2200
17840SOL    HW257437   5.420   3.680   7.422 -0.6437  1.0235 -2.0111
17841SOL     OW57438   6.614   8.073   7.024  0.4694 -0.4490 -0.8045
17841SOL    HW157439   6.687   8.042   7.078  0.6723 -0.4566 -1.0810
17841SOL    HW257440   6.544   8.009   7.038  0.1736  0.0641  0.2074
17842SOL     OW57441   0.614   8.162   1.090  0.8704  0.3582 -0.0970
17842SOL    HW157442   0.659   8.132   1.169  0.3011  0.5176  0.2921
17842SOL    HW257443   0.681   8.158   1.022  1.6294  1.0845  0.5794
17843SOL     OW57444   3.931   0.190   9.368  0.1521 -0.1718  0.0767
17843SOL    HW157445   3.840   0.166   9.352  1.0178 -2.8017 -1.5705
17843SOL    HW257446   3.940   0.186   9.463 -1.1998 -0.9505  0.1992
17844SOL     OW57447   4.523   8.692   4.468  0.5633 -0.1849 -0.8651
17844SOL    HW157448   4.617   8.689   4.481  0.4894  0.0928 -0.2358
17844SOL    HW257449   4.492   8.757   4.531 -0.0758 -0.4480 -0.9019
17845SOL     OW57450   4.428   5.549   3.032  0.0859 -0.7012  0.1845
17845SOL    HW157451   4.353   5.598   2.996 -0.5582 -0.7976  1.3622
17845SOL    HW257452   4.459   5.603   3.104  1.1533 -0.6831 -0.2771
17846SOL     OW57453   5.810   0.575   1.914  0.3147  0.2824  0.6248
17846SOL    HW157454   5.775   0.535   1.835  2.6692 -0.4875 -0.1116
17846SOL    HW257455   5.748   0.550   1.983 -1.1498 -0.0144 -0.7325
17847SOL     OW57456   6.139   4.214   4.186  0.1195  0.3276 -0.4805
17847SOL    HW157457   6.131   4.258   4.101 -0.6556  1.8361  0.3310
17847SOL    HW257458   6.233   4.202   4.197  0.2593  0.5359 -1.3539
17848SOL     OW57459   6.803   8.547  10.010 -0.2895 -0.0075  0.2219
17848SOL    HW157460   6.804   8.515   9.920 -0.6446 -0.9907  0.5467
17848SOL    HW257461   6.797   8.467  10.063 -0.5696  0.5777  1.0953
17849SOL     OW57462   8.696   9.420   4.211  0.2855 -0.0468 -0.1906
17849SOL    HW157463   8.731   9.504   4.242 -0.1773  0.9216 -2.1406
17849SOL    HW257464   8.610   9.443   4.174 -0.3450 -1.5850  0.2435
17850SOL     OW57465   4.238   8.623   4.764  0.0182  0.1195  0.5732
17850SOL    HW157466   4.172   8.593   4.703 -1.8237  2.6558  1.1458
17850SOL    HW257467   4.305   8.555   4.763 -1.0875 -1.0810 -2.3807
17851SOL     OW57468   2.815   1.315   2.378 -0.0734 -0.1680  0.1530
17851SOL    HW157469   2.760   1.289   2.304 -1.5268 -2.8930  2.0719
17851SOL    HW257470   2.874   1.241   2.391  1.0864  0.8601  0.9218
17852SOL     OW57471   3.939   3.288   9.369 -0.0561 -0.1117  0.3068
17852SOL    HW157472   3.907   3.349   9.303  0.2640 -0.8424 -0.5324
17852SOL    HW257473   3.866   3.280   9.431 -0.9822 -0.6820 -0.8368
17853SOL     OW57474   7.364   0.724   9.203  0.0019  0.0607 -0.1339
17853SOL    HW157475   7.281   0.771   9.211 -0.0529  0.3030 -1.8163
17853SOL    HW257476   7.339   0.631   9.203 -0.2087  0.1177 -0.0018
17854SOL     OW57477   2.431   2.121   8.224  0.7194 -0.1559 -0.5021
17854SOL    HW157478   2.438   2.052   8.290  1.6753 -0.0597 -0.4941
17854SOL    HW257479   2.421   2.201   8.276 -1.2941 -0.3355 -0.5113
17855SOL     OW57480   5.319   8.562   4.319  0.2839  0.4513  0.0715
17855SOL    HW157481   5.389   8.507   4.355  1.0084 -0.3299 -2.3452
17855SOL    HW257482   5.294   8.519   4.237 -1.7477  1.7427 -0.0723
17856SOL     OW57483   5.785   3.315   4.230  0.4164 -0.5744  0.3005
17856SOL    HW157484   5.810   3.351   4.145  0.0985  1.3975  1.0011
17856SOL    HW257485   5.853   3.345   4.290 -1.0473  0.8415  1.3316
17857SOL     OW57486   3.112   7.487   1.925  0.3613 -0.1023  0.3350
17857SOL    HW157487   3.173   7.467   1.996 -0.0147 -0.6936  0.4931
17857SOL    HW257488   3.154   7.452   1.846 -0.7005 -2.4208  0.7232
17858SOL     OW57489   1.600   5.425   3.634 -0.0815 -0.1005  0.1826
17858SOL    HW157490   1.546   5.388   3.565  2.3578 -2.9945 -0.3930
17858SOL    HW257491   1.633   5.507   3.598 -0.7799 -0.3553 -1.0844
17859SOL     OW57492   8.389   6.834   5.378 -0.2613  0.4306 -0.5401
17859SOL    HW157493   8.299   6.802   5.370  0.5445 -2.0396 -0.6525
17859SOL    HW257494   8.405   6.839   5.472 -0.5026  0.9271 -0.5189
17860SOL     OW57495   0.961   4.076   2.438  0.1966  0.0897 -0.0298
17860SOL    HW157496   0.918   4.154   2.474  0.5378  0.2149  0.1080
17860SOL    HW257497   0.906   4.004   2.466 -0.5606  0.3392 -0.8155
17861SOL     OW57498   1.865   0.765   7.304 -0.2034 -0.3880  0.0707
17861SOL    HW157499   1.931   0.835   7.309  0.3512 -0.9437  0.9438
17861SOL    HW257500   1.915   0.687   7.279 -0.4204 -0.9298  1.2542
17862SOL     OW57501   6.076   9.405   1.534  0.1340 -0.7392  0.1421
17862SOL    HW157502   6.035   9.365   1.458  0.0467  0.8424 -0.6868
17862SOL    HW257503   6.006   9.454   1.576  0.6448  0.1666 -0.0203
17863SOL     OW57504   4.733   2.362   8.797  0.5134 -0.0811 -0.2300
17863SOL    HW157505   4.785   2.376   8.876 -1.7666  0.6929  1.2362
17863SOL    HW257506   4.771   2.284   8.757  2.1502 -0.1251  1.2830
17864SOL     OW57507   8.880   8.150   8.169  0.3093 -0.3256  0.1120
17864SOL    HW157508   8.970   8.176   8.150 -0.0715  0.5798 -0.5292
17864SOL    HW257509   8.887   8.094   8.247  1.3860 -0.0156  0.2524
17865SOL     OW57510   0.817   9.533   7.299  0.4600  0.6358  0.0522
17865SOL    HW157511   0.877   9.458   7.299 -0.4101 -0.0824 -0.2697
17865SOL    HW257512   0.761   9.519   7.222 -0.4561  0.9982  0.6302
17866SOL     OW57513   1.676   9.632   4.817  0.3628  0.2760  0.7027
17866SOL    HW157514   1.677   9.623   4.912 -1.7125 -1.3362  0.6369
17866SOL    HW257515   1.598   9.683   4.798  0.7875  0.6259 -0.1506
17867SOL     OW57516   1.215   2.911   6.202  0.1163 -0.3071  0.2919
17867SOL    HW157517   1.132   2.955   6.220  0.7303  0.8266  0.4270
17867SOL    HW257518   1.224   2.846   6.272 -1.9327 -2.3940 -1.2178
17868SOL     OW57519   1.318   3.725   3.141 -0.5008 -0.1793  0.2301
17868SOL    HW157520   1.408   3.691   3.145 -0.0331  1.0403  0.6917
17868SOL    HW257521   1.263   3.649   3.159  0.4112 -1.0502 -0.5124
17869SOL     OW57522   7.179   0.221  10.154 -0.0049  0.0099  0.2476
17869SOL    HW157523   7.248   0.199  10.092  0.4230 -1.1071  1.0779
17869SOL    HW257524   7.118   0.276  10.104 -0.2065 -1.6719 -1.4721
17870SOL     OW57525   5.632   9.602   5.807 -0.4778 -0.2010 -0.1226
17870SOL    HW157526   5.677   9.624   5.889 -1.4693 -0.4967  0.5151
17870SOL    HW257527   5.630   9.685   5.758 -1.5657  0.4452  0.9839
17871SOL     OW57528   7.156   5.203   6.802 -0.0088 -0.2461  0.2049
17871SOL    HW157529   7.146   5.118   6.845  2.3645 -1.8523 -2.0774
17871SOL    HW257530   7.232   5.242   6.845 -1.0675  0.7693  1.2169
17872SOL     OW57531   7.411   4.431   0.536 -0.0174  0.0100 -0.3528
17872SOL    HW157532   7.379   4.518   0.514  0.6252  0.6215  1.0191
17872SOL    HW257533   7.343   4.394   0.593  0.8741  0.6577  1.1918
17873SOL     OW57534   6.331   1.296   6.060  0.7450  0.8990  0.9629
17873SOL    HW157535   6.346   1.279   5.967  0.6078  0.8302  0.9534
17873SOL    HW257536   6.344   1.212   6.103 -1.1851  0.4545  0.7682
17874SOL     OW57537   9.880   6.910   0.699 -0.3202  0.3821 -0.2159
17874SOL    HW157538   9.890   6.823   0.737  1.9055  0.3132 -0.8383
17874SOL    HW257539   9.847   6.964   0.771 -1.9918 -0.9695  0.1128
17875SOL     OW57540   6.899   6.486   6.704  0.3463 -0.2690  0.4539
17875SOL    HW157541   6.825   6.519   6.652 -0.1885 -1.9525  0.0874
17875SOL    HW257542   6.860   6.420   6.760  1.6098 -1.3363  0.1083
17876SOL     OW57543   8.405   2.402   0.580  0.3074  0.2200 -0.3186
17876SOL    HW157544   8.377   2.475   0.525 -2.1700  1.2770  2.1590
17876SOL    HW257545   8.347   2.330   0.556 -0.3655  0.4960  0.4669
17877SOL     OW57546   6.630   6.745   6.497  0.0298 -0.0748 -0.2563
17877SOL    HW157547   6.675   6.661   6.492 -1.0061 -0.6763  0.3290
17877SOL    HW257548   6.623   6.774   6.406  0.7275 -0.4344 -0.4289
17878SOL     OW57549   8.541   9.255   8.741  0.0824  0.5427  0.3886
17878SOL    HW157550   8.479   9.185   8.762  1.4299 -1.3819 -1.4962
17878SOL    HW257551   8.584   9.276   8.824  0.7888 -2.1271  0.7972
17879SOL     OW57552   8.173   3.366   6.388 -0.2579 -0.5568  0.0745
17879SOL    HW157553   8.132   3.407   6.312  0.8028 -1.5144 -1.0545
17879SOL    HW257554   8.117   3.391   6.462 -0.9075  0.9950 -0.8960
17880SOL     OW57555   1.736   9.907   0.228  0.1050 -0.4136  0.6861
17880SOL    HW157556   1.720   9.849   0.303  0.4502 -0.9753  0.3313
17880SOL    HW257557   1.690   9.866   0.155 -2.4667  1.4937  1.1123
17881SOL     OW57558   7.822   6.685   7.412  0.4367 -0.0164  0.3345
17881SOL    HW157559   7.790   6.595   7.406 -0.3561  0.1866  1.2722
17881SOL    HW257560   7.753   6.737   7.369  0.9648  0.1369 -0.3430
17882SOL     OW57561   6.150   2.568   3.729  0.1069 -0.4925  0.6785
17882SOL    HW157562   6.242   2.542   3.725 -0.1478 -1.2993 -0.4504
17882SOL    HW257563   6.140   2.608   3.815  1.3612 -0.9816  1.0702
17883SOL     OW57564   5.974   8.344   7.564 -0.4656  0.1621 -0.4114
17883SOL    HW157565   6.031   8.274   7.533  0.1216  0.6681 -0.4972
17883SOL    HW257566   5.922   8.368   7.487 -0.0614  0.4018 -0.6142
17884SOL     OW57567   8.544   9.634   2.365 -0.4517  0.1746 -0.0833
17884SOL    HW157568   8.584   9.571   2.305 -1.5563 -1.3064  0.6513
17884SOL    HW257569   8.561   9.598   2.453 -1.6054  0.5688  0.3233
17885SOL     OW57570   3.219   0.957   9.138  0.0232  0.0897  0.1105
17885SOL    HW157571   3.153   0.923   9.199 -0.2252  0.4422  0.0442
17885SOL    HW257572   3.237   0.884   9.079 -1.3301  0.3927 -0.7322
17886SOL     OW57573   7.258   2.241  10.203  0.4320  0.6221  0.8565
17886SOL    HW157574   7.223   2.212  10.119 -2.4023  1.0085  1.8055
17886SOL    HW257575   7.315   2.169  10.232 -0.5890 -0.6650 -0.2196
17887SOL     OW57576   7.226   7.178   7.152 -0.1492 -0.1727 -0.5332
17887SOL    HW157577   7.163   7.117   7.113  0.6611 -0.7549 -0.9844
17887SOL    HW257578   7.197   7.189   7.242 -0.0711 -1.5904 -0.3100
17888SOL     OW57579   7.127   8.831   2.384  0.0360  0.3479 -0.0245
17888SOL    HW157580   7.158   8.883   2.458  2.4761 -1.4689  0.3664
17888SOL    HW257581   7.134   8.890   2.309 -1.4641  1.8868  0.9705
17889SOL     OW57582   4.251   6.136   5.302 -0.0330  0.2288 -0.1230
17889SOL    HW157583   4.167   6.169   5.272  0.0380 -0.3607 -0.9807
17889SOL    HW257584   4.304   6.129   5.223 -0.1345 -2.1771 -0.0341
17890SOL     OW57585   9.694   5.205   7.634  0.1185 -0.5835  0.2900
17890SOL    HW157586   9.710   5.271   7.567 -0.5753 -1.1372 -0.4278
17890SOL    HW257587   9.641   5.250   7.700 -0.6549 -0.5107 -0.3686
17891SOL     OW57588   4.717   9.930   0.731  0.2880  0.2521 -0.0424
17891SOL    HW157589   4.725  10.010   0.680 -1.1359 -0.3864 -1.3743
17891SOL    HW257590   4.807   9.901   0.745  0.7634  1.0901 -1.1746
17892SOL     OW57591   1.833   3.223   3.027 -0.3465  0.5356  0.4118
17892SOL    HW157592   1.925   3.250   3.036 -0.6615  1.6893  0.2381
17892SOL    HW257593   1.809   3.190   3.114 -0.2908  1.8992  0.9578
17893SOL     OW57594   2.269   8.760   1.285  0.6145  0.2094 -0.0352
17893SOL    HW157595   2.276   8.681   1.232  0.9338 -0.3079  0.7640
17893SOL    HW257596   2.190   8.803   1.253  0.3774 -0.4856 -0.4070
17894SOL     OW57597   1.180   9.077   7.989 -0.0442 -0.2908 -0.0919
17894SOL    HW157598   1.237   9.152   7.969  0.7217 -0.7935  0.1257
17894SOL    HW257599   1.140   9.099   8.073 -1.2161  0.6571 -0.8819
17895SOL     OW57600   5.320   1.358   5.794 -0.6745 -0.2898 -0.2423
17895SOL    HW157601   5.308   1.294   5.724 -1.8490 -0.2241 -0.1228
17895SOL    HW257602   5.310   1.443   5.751  2.0439 -0.0681 -0.6356
17896SOL     OW57603   4.668   8.348   7.079 -0.4094  0.0819 -0.0350
17896SOL    HW157604   4.742   8.289   7.063  0.7194  1.8459 -1.7626
17896SOL    HW257605   4.613   8.339   7.002 -1.2546 -0.1273  0.5814
17897SOL     OW57606   5.243   2.806   6.678 -0.2288  0.4921 -0.2482
17897SOL    HW157607   5.256   2.783   6.586  0.8439  0.2500 -0.0494
17897SOL    HW257608   5.187   2.737   6.713  2.4044 -1.5625  0.1759
17898SOL     OW57609   6.787   7.390   8.187 -0.2460  0.2565 -0.1582
17898SOL    HW157610   6.881   7.399   8.174 -0.3730  2.9262  0.2034
17898SOL    HW257611   6.774   7.297   8.206  2.5702  0.1302  1.7690
17899SOL     OW57612   5.003   5.826   1.381  0.1717 -0.3882  0.0313
17899SOL    HW157613   4.955   5.753   1.340  2.1714 -1.7192 -0.1083
17899SOL    HW257614   5.079   5.784   1.421  1.7596  1.7209 -0.6167
17900SOL     OW57615   7.469   9.977   2.226  0.3972 -0.1239  0.0009
17900SOL    HW157616   7.545   9.933   2.187  0.5030 -0.5895  0.6959
17900SOL    HW257617   7.505  10.023   2.302  0.3818  1.6544 -1.0124
17901SOL     OW57618   6.328   5.933   8.127 -0.2687  0.4078  0.5338
17901SOL    HW157619   6.312   5.885   8.208  0.6409  0.4103  0.7269
17901SOL    HW257620   6.423   5.931   8.116 -0.3713  0.4923 -0.4881
17902SOL     OW57621   4.206   1.800  10.001  0.1115 -0.0091 -0.0031
17902SOL    HW157622   4.143   1.870  10.016  0.4236 -0.0102  1.5001
17902SOL    HW257623   4.291   1.844  10.001  0.1194  0.1165 -2.8471
17903SOL     OW57624   6.264   1.121   9.640 -0.2112 -0.5922  0.0535
17903SOL    HW157625   6.170   1.140   9.639  0.2124  1.7998  0.8000
17903SOL    HW257626   6.296   1.158   9.558  0.3720  0.4707  0.7426
17904SOL     OW57627   4.947   5.035   3.354  0.6472  0.6472  0.5101
17904SOL    HW157628   5.042   5.024   3.343  0.3579 -0.6823 -0.9668
17904SOL    HW257629   4.917   5.068   3.269 -0.7639 -3.2016 -0.6824
17905SOL     OW57630   7.996  10.153   1.820  0.1142 -0.0336 -0.1162
17905SOL    HW157631   8.004  10.224   1.883  0.7485 -0.6372  0.4874
17905SOL    HW257632   7.958  10.080   1.870  0.4177 -0.4462 -0.4826
17906SOL     OW57633   7.538   4.290   6.790  0.4342 -0.2923  0.0899
17906SOL    HW157634   7.594   4.286   6.712  0.2275  0.4887 -0.1150
17906SOL    HW257635   7.583   4.352   6.848  0.0692 -0.0889  0.1578
17907SOL     OW57636   1.741   6.484   1.256 -0.2994  0.0666  0.3074
17907SOL    HW157637   1.766   6.479   1.348 -0.0696 -0.2671  0.2278
17907SOL    HW257638   1.781   6.565   1.225  1.2581 -0.7930  0.0129
17908SOL     OW57639   9.103   0.178   8.294  0.2900  0.4842  0.1184
17908SOL    HW157640   9.175   0.228   8.331  0.2731  0.4446  0.2057
17908SOL    HW257641   9.145   0.109   8.243  0.3273 -0.2263  1.0896
17909SOL     OW57642   1.015   9.343   8.982 -0.1057 -0.3609  0.1675
17909SOL    HW157643   0.975   9.260   8.958  1.3580 -0.9385 -0.3665
17909SOL    HW257644   1.018   9.392   8.900 -2.0138  0.7336  0.6823
17910SOL     OW57645   9.303   7.707   1.889 -0.1254 -1.0122  0.0137
17910SOL    HW157646   9.376   7.702   1.828  0.7937  0.7862  0.8803
17910SOL    HW257647   9.340   7.747   1.968 -2.0491  0.1396  0.4214
17911SOL     OW57648   8.837   5.674   9.143  0.1180 -0.1794 -0.0033
17911SOL    HW157649   8.747   5.704   9.133  0.1636 -0.1483 -0.3333
17911SOL    HW257650   8.869   5.721   9.220  0.4991  1.4525 -1.0766
17912SOL     OW57651   2.817   6.089   1.344  0.2745 -0.1594 -0.0630
17912SOL    HW157652   2.845   6.180   1.349  0.2462 -0.1372 -0.2687
17912SOL    HW257653   2.725   6.090   1.369 -0.4023  0.2244 -2.2812
17913SOL     OW57654   6.428   0.853   4.112  0.1105 -0.3637 -0.7248
17913SOL    HW157655   6.435   0.775   4.057 -0.5126 -1.1128  0.2259
17913SOL    HW257656   6.359   0.832   4.174 -0.1057  0.9836 -0.4860
17914SOL     OW57657   6.421   9.072   4.707  0.4414 -0.2862 -0.0325
17914SOL    HW157658   6.363   9.147   4.704 -1.4998 -1.6286  1.5920
17914SOL    HW257659   6.364   8.998   4.726  2.2816 -2.1919 -1.4166
17915SOL     OW57660   9.819   0.172   5.811 -0.4177 -0.2236  0.5258
17915SOL    HW157661   9.793   0.114   5.883  0.0464 -1.5696 -0.3602
17915SOL    HW257662   9.895   0.129   5.772  1.5930  2.2892  1.4068
17916SOL     OW57663   0.433   4.422   6.121  0.2109 -0.0752 -0.2184
17916SOL    HW157664   0.363   4.466   6.073  1.7789  1.9151 -0.7987
17916SOL    HW257665   0.391   4.344   6.157 -2.1943  0.8256 -0.8558
17917SOL     OW57666   9.246   7.670   3.686 -0.4661 -0.3092  0.0026
17917SOL    HW157667   9.286   7.639   3.605 -0.6997 -1.0730  0.1707
17917SOL    HW257668   9.157   7.694   3.662 -0.1532  0.6889 -0.2190
17918SOL     OW57669   3.977   9.335   8.403 -0.1896  0.3183  0.0543
17918SOL    HW157670   4.058   9.372   8.367 -0.0387 -0.0364  0.0215
17918SOL    HW257671   3.946   9.401   8.464  1.0684 -0.2682  1.3887
17919SOL     OW57672   2.815   2.116   7.741 -0.1172 -0.0016  0.6339
17919SOL    HW157673   2.777   2.029   7.751  0.9521 -0.3563  1.7631
17919SOL    HW257674   2.741   2.172   7.717 -0.5436 -1.5096 -1.9626
17920SOL     OW57675   2.086   1.029   8.934  0.5904 -0.5025  0.0785
17920SOL    HW157676   2.117   1.024   9.024 -0.2623 -1.2023  0.3513
17920SOL    HW257677   2.164   1.052   8.883  0.9730  0.3816  1.0411
17921SOL     OW57678   6.787   4.700   1.652 -0.3852  0.3817 -0.2632
17921SOL    HW157679   6.732   4.684   1.576 -1.7400 -2.6747  1.1707
17921SOL    HW257680   6.731   4.748   1.713 -0.5050 -0.2356  0.1176
17922SOL     OW57681   3.693   5.715   2.879  1.0179 -0.1348  0.4807
17922SOL    HW157682   3.776   5.688   2.840 -1.2247 -3.2037 -2.8393
17922SOL    HW257683   3.660   5.636   2.922 -0.4235  0.8429  1.2439
17923SOL     OW57684   3.213   5.797   9.503 -0.1155  0.1508  0.6595
17923SOL    HW157685   3.129   5.820   9.462  0.5823  1.1853 -0.2294
17923SOL    HW257686   3.209   5.838   9.590 -1.0353 -0.8906  1.1371
17924SOL     OW57687   5.226   0.672   1.985 -0.4731  0.3176  0.2833
17924SOL    HW157688   5.320   0.673   2.005 -0.6914 -0.8141  1.5158
17924SOL    HW257689   5.195   0.590   2.024 -2.2653  1.4225  1.2755
17925SOL     OW57690   3.634   7.083   8.706  0.3008  0.4063  0.1462
17925SOL    HW157691   3.551   7.103   8.663  0.4787  0.4185 -0.1971
17925SOL    HW257692   3.650   6.991   8.686  1.0872  0.7756 -1.0330
17926SOL     OW57693   0.695   1.248   7.466 -0.1382 -0.3192  0.0804
17926SOL    HW157694   0.708   1.200   7.548 -1.1604 -1.0683 -0.1845
17926SOL    HW257695   0.673   1.337   7.494  1.1346 -0.1410  0.5836
17927SOL     OW57696   0.731   5.486   9.102  0.3270 -0.3400  0.2512
17927SOL    HW157697   0.719   5.554   9.168 -0.4870 -0.2421  0.0088
17927SOL    HW257698   0.689   5.409   9.139 -0.9537 -0.0416 -0.5298
17928SOL     OW57699   6.246   2.036   5.436 -0.2204  0.2047 -0.0744
17928SOL    HW157700   6.318   1.977   5.415  0.8128  1.4339 -0.0629
17928SOL    HW257701   6.168   1.980   5.430  0.6385 -0.9853 -0.7820
17929SOL     OW57702   1.378   8.372   1.750  0.1406 -0.2746  0.3639
17929SOL    HW157703   1.433   8.369   1.671  0.5986 -1.9615  0.7056
17929SOL    HW257704   1.338   8.285   1.755 -1.0494  0.2845  1.2079
17930SOL     OW57705   7.813   1.619   6.870 -0.3315 -0.6579 -0.0765
17930SOL    HW157706   7.864   1.541   6.848 -0.4642 -0.8929  0.4187
17930SOL    HW257707   7.856   1.690   6.823 -0.6385 -1.1439 -1.1029
17931SOL     OW57708   3.530   2.507   0.212 -0.7451  0.4536  0.3738
17931SOL    HW157709   3.505   2.584   0.264 -1.4017 -0.0284  0.8030
17931SOL    HW257710   3.450   2.454   0.209  0.4147 -1.6798  2.7043
17932SOL     OW57711   4.215   4.201   3.608  0.2858 -0.3406 -0.2391
17932SOL    HW157712   4.294   4.193   3.663 -0.0690 -2.3280  0.0551
17932SOL    HW257713   4.198   4.112   3.578 -2.1363 -0.0581  0.1103
17933SOL     OW57714   2.482   6.395   2.661  0.0972  0.0866  0.4972
17933SOL    HW157715   2.520   6.445   2.590 -0.3049 -1.1787 -0.6541
17933SOL    HW257716   2.388   6.394   2.643 -0.2029  0.9428  1.8414
17934SOL     OW57717   1.429   4.150   7.783  0.2889  0.0245  0.2709
17934SOL    HW157718   1.461   4.224   7.732  0.4418 -0.8096 -0.8841
17934SOL    HW257719   1.361   4.110   7.728  0.9572 -1.3239  0.3741
17935SOL     OW57720   1.344   2.292   5.743 -0.3519 -0.5958 -0.3156
17935SOL    HW157721   1.278   2.261   5.804  0.0101 -1.5152 -0.3734
17935SOL    HW257722   1.424   2.299   5.795 -0.0738 -1.2571 -0.6375
17936SOL     OW57723   1.691   7.988   1.611  0.1483 -0.1518 -0.3167
17936SOL    HW157724   1.698   7.898   1.644 -1.2729 -0.0061  0.4386
17936SOL    HW257725   1.742   7.987   1.530 -2.0761 -2.3734 -1.8330
17937SOL     OW57726   7.284   9.935   9.515  0.0493  0.1737  0.0474
17937SOL    HW157727   7.361   9.920   9.570 -0.1825 -1.5568 -0.0547
17937SOL    HW257728   7.210   9.923   9.574 -0.2254  2.9694  0.4342
17938SOL     OW57729   5.085   0.413   7.695 -0.0691 -0.4120 -0.4375
17938SOL    HW157730   5.146   0.345   7.666  0.9626  0.9500 -1.5911
17938SOL    HW257731   5.073   0.396   7.789  1.2636 -1.3421 -0.4093
17939SOL     OW57732   2.488   6.524   1.378 -0.0001  0.0131  0.1642
17939SOL    HW157733   2.497   6.432   1.402 -0.3205 -0.1798 -0.4469
17939SOL    HW257734   2.511   6.572   1.458 -1.0153 -0.6119  0.8479
17940SOL     OW57735   8.322   2.402   2.747  0.6155 -0.9736  0.2047
17940SOL    HW157736   8.296   2.318   2.784  0.1890 -1.1491 -0.4740
17940SOL    HW257737   8.313   2.464   2.819 -3.1570 -0.7382 -0.2674
17941SOL     OW57738   6.883   3.693   2.113  0.0416  0.0627  0.1062
17941SOL    HW157739   6.871   3.693   2.208 -0.6352 -2.7145  0.0957
17941SOL    HW257740   6.950   3.627   2.097  0.6430  0.9638 -1.3546
17942SOL     OW57741   8.296   6.510   4.052  0.2699  0.6163 -0.3383
17942SOL    HW157742   8.384   6.519   4.014 -0.2166 -1.8798 -2.3580
17942SOL    HW257743   8.237   6.535   3.981 -0.6512  0.6564  0.4296
17943SOL     OW57744   3.214   8.343   0.417  0.0863 -0.5556  0.7364
17943SOL    HW157745   3.288   8.393   0.382 -0.4780  1.7017  2.4761
17943SOL    HW257746   3.139   8.372   0.365 -0.2901  0.7464  1.9266
17944SOL     OW57747   6.870   3.557   9.924 -0.3794  0.6599  0.1568
17944SOL    HW157748   6.798   3.516   9.876 -0.9712  1.7804  0.0638
17944SOL    HW257749   6.945   3.500   9.908 -0.9631  0.1201 -0.7203
17945SOL     OW57750   7.483   3.953   4.365  0.0616  0.3096  0.7204
17945SOL    HW157751   7.510   4.045   4.368  0.5629  0.1729  0.5563
17945SOL    HW257752   7.562   3.905   4.389  0.3919 -0.1599 -1.1645
17946SOL     OW57753   5.607   8.245   2.043  0.1851 -0.3385  0.1821
17946SOL    HW157754   5.632   8.208   2.128 -0.8152  0.0277  0.6519
17946SOL    HW257755   5.547   8.181   2.005 -1.1295  0.5107  0.7621
17947SOL     OW57756   0.910   0.598   7.287 -0.1295  0.3554 -0.0608
17947SOL    HW157757   0.999   0.570   7.306 -1.4534 -3.2129  1.8789
17947SOL    HW257758   0.864   0.589   7.370 -2.6474  0.5664 -1.3388
17948SOL     OW57759   1.870   9.210   3.393  0.2968  0.1589  0.2705
17948SOL    HW157760   1.960   9.225   3.364 -0.4607  1.9311 -1.3706
17948SOL    HW257761   1.822   9.288   3.365 -1.8138 -0.8383  0.8887
17949SOL     OW57762   5.448   1.686   6.032  0.4977 -0.1540 -0.1794
17949SOL    HW157763   5.416   1.604   6.070  1.5401 -0.5249 -0.0557
17949SOL    HW257764   5.515   1.658   5.970  0.4129  0.5770 -0.6003
17950SOL     OW57765   2.955   5.270   7.541 -0.1953 -0.1475 -0.1332
17950SOL    HW157766   2.874   5.320   7.546 -0.2368 -0.2574  0.4315
17950SOL    HW257767   3.000   5.303   7.463 -0.3796  0.5266  0.0403
17951SOL     OW57768   8.164   0.030   2.832 -0.6359  0.0184  0.0580
17951SOL    HW157769   8.122   0.019   2.747 -0.9686 -1.5021  0.3892
17951SOL    HW257770   8.187   0.123   2.836 -1.2749  0.2588 -1.3757
17952SOL     OW57771   0.414   4.158   0.122 -0.1873  0.5724  0.4095
17952SOL    HW157772   0.392   4.109   0.202 -0.7746  1.5875  0.8836
17952SOL    HW257773   0.393   4.249   0.143 -1.5303  0.7036 -1.3137
17953SOL     OW57774   1.436   0.102   0.174 -0.1828 -0.2329  0.7840
17953SOL    HW157775   1.342   0.085   0.181 -0.2142 -0.4647 -0.0507
17953SOL    HW257776   1.443   0.166   0.103  0.3552 -0.9768  0.1482
17954SOL     OW57777   1.292   1.347   7.590 -0.6399 -0.5554 -0.0818
17954SOL    HW157778   1.321   1.282   7.653  0.3678  0.9613  1.0896
17954SOL    HW257779   1.362   1.412   7.587 -2.5009  1.6184  0.4573
17955SOL     OW57780   9.263   7.531   9.316  0.2669  0.1071 -0.1825
17955SOL    HW157781   9.332   7.528   9.383  0.4811 -0.2625 -0.4169
17955SOL    HW257782   9.182   7.521   9.366  0.4446 -0.5083 -0.0034
17956SOL     OW57783   0.798   4.431   1.013  0.2602 -0.1463 -0.0695
17956SOL    HW157784   0.746   4.351   1.023 -0.5339  0.4568  0.8958
17956SOL    HW257785   0.753   4.482   0.946  0.6516 -0.4091 -0.5390
17957SOL     OW57786   1.104   1.590   3.694  0.0970 -0.5085  0.3869
17957SOL    HW157787   1.199   1.598   3.705  0.0920 -0.6995  0.5805
17957SOL    HW257788   1.086   1.496   3.706  0.1472 -0.8346 -1.7590
17958SOL     OW57789   9.970   7.462   2.038  0.3341 -0.4492 -0.2678
17958SOL    HW157790   9.970   7.430   2.128  0.3579 -1.6446 -0.6768
17958SOL    HW257791   9.932   7.391   1.987  0.6953  0.0515 -1.2643
17959SOL     OW57792   3.047   3.940   8.929 -0.4529  0.6586  0.4821
17959SOL    HW157793   3.067   3.939   9.022 -1.5423 -1.9202  0.7857
17959SOL    HW257794   3.025   4.031   8.909 -1.4207  1.0585  3.0305
17960SOL     OW57795   8.844   0.753   1.111  0.3259 -0.2772  0.1096
17960SOL    HW157796   8.782   0.680   1.105 -1.3893  1.0752  0.3683
17960SOL    HW257797   8.891   0.751   1.028 -1.1249 -0.4961 -0.7559
17961SOL     OW57798   6.754   9.904   6.113 -0.2014  0.6492 -0.2901
17961SOL    HW157799   6.699   9.928   6.187  0.8441  0.4479  0.5765
17961SOL    HW257800   6.825   9.968   6.113  1.3072 -0.9212  0.5896
17962SOL     OW57801   0.273   8.015   3.781  0.4208  0.2026 -0.2293
17962SOL    HW157802   0.344   7.952   3.779  1.3838  1.1965  0.9906
17962SOL    HW257803   0.306   8.090   3.732 -0.7036 -0.1727 -1.6486
17963SOL     OW57804   6.151   8.620   6.981 -0.0562 -0.5805  0.2662
17963SOL    HW157805   6.096   8.693   6.952 -0.0299 -1.2059 -1.4780
17963SOL    HW257806   6.116   8.544   6.935 -0.1083 -1.7074  2.0728
17964SOL     OW57807   6.074   1.668   5.405  0.5403 -0.4361  0.5649
17964SOL    HW157808   6.167   1.668   5.378 -0.0406  0.5386 -1.7465
17964SOL    HW257809   6.035   1.598   5.353 -0.3752  0.5155 -0.0672
17965SOL     OW57810   5.283   3.936   1.755 -0.0250  0.0749 -0.0805
17965SOL    HW157811   5.275   3.958   1.662 -2.3793 -0.7418 -0.1399
17965SOL    HW257812   5.198   3.958   1.792  0.5717 -0.4652  1.7115
17966SOL     OW57813   0.350   4.702   3.841 -0.1411  0.0873  0.3934
17966SOL    HW157814   0.302   4.619   3.848  1.6372 -0.9968  0.1660
17966SOL    HW257815   0.353   4.735   3.931  2.9324 -2.3948  1.3902
17967SOL     OW57816   9.727   5.076   0.243  0.0710  0.5276 -0.5516
17967SOL    HW157817   9.641   5.082   0.201 -0.1645  1.1017 -0.0016
17967SOL    HW257818   9.725   5.143   0.311  0.5032 -0.2980  0.2898
17968SOL     OW57819   8.661   1.581   4.649 -0.0282 -0.2153 -0.3693
17968SOL    HW157820   8.643   1.667   4.688 -0.4796  0.5749 -2.2452
17968SOL    HW257821   8.718   1.538   4.713 -1.1551  0.7890  1.4265
17969SOL     OW57822   2.906   2.957   3.866 -0.3497  0.0837  0.3679
17969SOL    HW157823   2.815   2.936   3.891 -0.5167  1.4585  0.9820
17969SOL    HW257824   2.905   3.050   3.845  0.9978  0.2009  0.7213
17970SOL     OW57825   2.525   2.904   5.975  0.0811 -0.0263 -0.0967
17970SOL    HW157826   2.568   2.824   5.947 -0.5325 -0.2971 -0.2913
17970SOL    HW257827   2.596   2.967   5.988  0.5037 -0.3765 -0.6734
17971SOL     OW57828   4.258   0.010   3.486 -0.0877 -0.2150 -0.4977
17971SOL    HW157829   4.245   0.102   3.461  0.5949 -0.3852 -1.5302
17971SOL    HW257830   4.350   0.005   3.511 -0.4669 -0.3140  1.0039
17972SOL     OW57831   6.278   6.257   9.515 -0.7366 -0.1282  0.3904
17972SOL    HW157832   6.213   6.229   9.579 -1.5483  0.0297 -0.3599
17972SOL    HW257833   6.253   6.347   9.493 -2.2517 -1.1107 -2.3250
17973SOL     OW57834   3.257   9.678  10.161 -0.5351  0.3573 -0.1778
17973SOL    HW157835   3.214   9.632  10.232 -0.0791  0.6529  0.2933
17973SOL    HW257836   3.192   9.680  10.091 -1.4516  1.1921  0.6752
17974SOL     OW57837   2.267   3.926   1.928  0.1363  0.8341 -0.3234
17974SOL    HW157838   2.350   3.951   1.888  0.5686 -1.2430 -0.8281
17974SOL    HW257839   2.201   3.947   1.862  0.8951 -3.2860 -2.7539
17975SOL     OW57840   7.634   1.967   9.833  0.6125  0.5710  0.2173
17975SOL    HW157841   7.601   1.912   9.761 -1.7640  2.3609 -0.1683
17975SOL    HW257842   7.698   1.911   9.878 -1.3821 -2.3910 -0.3452
17976SOL     OW57843   0.201   1.789   7.509  0.3878 -0.1160 -0.0594
17976SOL    HW157844   0.120   1.740   7.497  0.3113  0.3543 -1.6411
17976SOL    HW257845   0.182   1.877   7.476  1.0450  0.5012  1.1232
17977SOL     OW57846   1.706   0.838   3.333 -0.1608 -0.4207  0.1508
17977SOL    HW157847   1.734   0.910   3.277 -3.7727  0.2343 -1.1046
17977SOL    HW257848   1.691   0.878   3.419 -2.7132  0.6324 -0.6808
17978SOL     OW57849   6.129   2.338   9.817  0.2212  0.3702  0.1593
17978SOL    HW157850   6.170   2.348   9.903  1.4199  0.7180 -0.4348
17978SOL    HW257851   6.198   2.302   9.761 -0.4262  0.5106 -0.7570
17979SOL     OW57852   5.268   5.686   2.721 -0.5062  0.1424 -0.3855
17979SOL    HW157853   5.317   5.759   2.684  0.5067  0.6361  1.7542
17979SOL    HW257854   5.208   5.727   2.784 -0.8263 -0.7587 -0.0865
17980SOL     OW57855   8.022   7.122   5.258  0.3675  0.3578 -0.6485
17980SOL    HW157856   8.032   7.097   5.166 -0.0293 -0.3438 -0.5107
17980SOL    HW257857   8.077   7.200   5.268  0.0183  0.7390 -1.5975
17981SOL     OW57858   5.092   0.720   7.536  0.4463  0.0565 -0.4639
17981SOL    HW157859   5.135   0.645   7.494  0.8162  0.4657 -0.8262
17981SOL    HW257860   5.140   0.796   7.503  0.9584  0.3725  0.9551
17982SOL     OW57861   2.242   6.339   2.567  0.2629 -0.1187 -0.4590
17982SOL    HW157862   2.197   6.274   2.621  0.4230 -0.4940 -0.7765
17982SOL    HW257863   2.177   6.407   2.551 -0.1958 -0.6600 -0.9225
17983SOL     OW57864   5.770  10.202   6.992  0.0757 -0.1977  0.0040
17983SOL    HW157865   5.707  10.135   7.018 -0.3402 -0.5882 -1.8410
17983SOL    HW257866   5.744  10.280   7.041 -1.8734 -0.3554 -0.7159
17984SOL     OW57867   4.678   5.308   8.239  0.2538  0.1490  0.4171
17984SOL    HW157868   4.712   5.390   8.202 -1.0645  1.0997  1.1956
17984SOL    HW257869   4.583   5.322   8.244 -0.1375 -1.8418 -0.3748
17985SOL     OW57870   7.936   9.958  10.026  0.1613 -0.1582 -0.3721
17985SOL    HW157871   7.903   9.896   9.962 -0.5412 -1.1409  0.8998
17985SOL    HW257872   7.864   9.971  10.087  1.1185 -0.0113  0.7766
17986SOL     OW57873   6.265   9.778   1.988  0.1651  0.0492 -0.4171
17986SOL    HW157874   6.277   9.683   1.992 -0.7348 -0.0420  1.2847
17986SOL    HW257875   6.326   9.807   1.921  0.9143 -1.6637 -0.5396
17987SOL     OW57876  10.128   9.064   2.568 -0.1804  0.1805 -0.2068
17987SOL    HW157877  10.138   9.098   2.657 -0.5487  0.1633 -0.1602
17987SOL    HW257878  10.070   9.127   2.525  0.8351  0.7840 -0.7539
17988SOL     OW57879   3.035   6.337   4.061  0.3802  0.1742 -0.1300
17988SOL    HW157880   3.113   6.368   4.108  1.0504 -0.7464 -0.5852
17988SOL    HW257881   2.975   6.309   4.129  0.0523  1.7568  0.2617
17989SOL     OW57882   8.158   7.161   2.975 -0.0422 -0.4413 -0.0975
17989SOL    HW157883   8.173   7.091   3.039 -0.1339 -0.8631 -0.5323
17989SOL    HW257884   8.111   7.118   2.904 -1.0862  0.3028  0.1244
17990SOL     OW57885   7.635   0.192   5.367  0.3846 -0.8450 -0.6254
17990SOL    HW157886   7.675   0.136   5.433 -0.4116  0.3620  0.9305
17990SOL    HW257887   7.550   0.216   5.403  0.4935  0.9527 -1.4726
17991SOL     OW57888   8.063   3.847   0.310 -0.0385 -0.1543  0.3179
17991SOL    HW157889   8.047   3.810   0.223  0.0920  0.1245  0.1745
17991SOL    HW257890   8.136   3.797   0.345  0.7348  0.5675 -0.2430
17992SOL     OW57891   1.117   7.025   2.307 -0.1561  0.1179 -0.1764
17992SOL    HW157892   1.035   7.074   2.320  0.0454  0.2753  0.5353
17992SOL    HW257893   1.121   7.010   2.213 -0.8547  0.3783 -0.2528
17993SOL     OW57894   5.823   6.923   9.508 -0.3860  0.1188 -0.0101
17993SOL    HW157895   5.859   6.835   9.520 -1.9631 -0.5843 -0.2121
17993SOL    HW257896   5.889   6.981   9.545  0.2343 -1.2147  1.0412
17994SOL     OW57897   8.380   8.217   4.183 -0.1704 -0.3304 -0.5216
17994SOL    HW157898   8.464   8.259   4.205  0.6838 -2.3282  0.3323
17994SOL    HW257899   8.404   8.146   4.122 -1.0448 -1.6109  0.5536
17995SOL     OW57900   4.256   7.275   7.209  0.2642  0.2664 -0.0086
17995SOL    HW157901   4.256   7.229   7.293 -0.3297 -1.9729 -1.1545
17995SOL    HW257902   4.334   7.330   7.212  0.8924 -0.6429  1.5473
17996SOL     OW57903   8.606   2.206   2.551  0.0899  0.4667 -0.0974
17996SOL    HW157904   8.553   2.277   2.514  0.7924  0.2243 -1.6235
17996SOL    HW257905   8.679   2.250   2.594 -0.8735  0.7616  1.3205
17997SOL     OW57906   5.175   9.738   9.388 -0.2007 -0.1227 -0.1725
17997SOL    HW157907   5.269   9.749   9.375 -0.3798 -0.1388 -1.6496
17997SOL    HW257908   5.136   9.771   9.307 -1.4331 -0.7382  0.1497
17998SOL     OW57909   5.683   1.959   4.092  0.6348  0.0771  0.3635
17998SOL    HW157910   5.609   1.900   4.076 -0.4554  0.8232  2.3060
17998SOL    HW257911   5.755   1.902   4.118  0.2230 -0.5477  0.1625
17999SOL     OW57912   6.467   3.394   1.789 -0.0851  0.2311 -0.2078
17999SOL    HW157913   6.507   3.430   1.710  0.4997  0.6936  0.2902
17999SOL    HW257914   6.489   3.457   1.857 -0.9826  0.0775  0.2359
18000SOL     OW57915   5.986   8.266   5.139  0.2737  0.4560  0.0029
18000SOL    HW157916   5.898   8.229   5.134 -0.3337  1.9460 -1.8776
18000SOL    HW257917   6.026   8.245   5.054  1.0966  1.2737  0.1664
18001SOL     OW57918   6.819   4.284   2.761  0.1916  0.2404  0.7591
18001SOL    HW157919   6.822   4.189   2.765  2.8492  0.0804 -1.5999
18001SOL    HW257920   6.895   4.313   2.812  2.1473  0.6998 -2.1303
18002SOL     OW57921   4.812   6.775   1.890  0.1383  0.1705  0.4148
18002SOL    HW157922   4.887   6.798   1.835  0.4138  0.6889  0.9843
18002SOL    HW257923   4.831   6.818   1.974 -0.9161  0.5143  0.4868
18003SOL     OW57924   5.446   0.961   2.251  0.1866 -0.3321  0.0440
18003SOL    HW157925   5.510   0.998   2.311 -0.9981 -1.1707  1.9513
18003SOL    HW257926   5.497   0.911   2.188  1.4677 -0.0190  0.8030
18004SOL     OW57927   2.837   5.702   7.279  0.0025  0.3142  0.3386
18004SOL    HW157928   2.876   5.770   7.333  0.5298 -1.6662  2.6461
18004SOL    HW257929   2.747   5.732   7.262 -0.7576  0.3778  3.7638
18005SOL     OW57930   2.193   1.376   0.570  0.7733  0.6436 -0.1121
18005SOL    HW157931   2.181   1.322   0.648 -0.3224  1.8275  0.5776
18005SOL    HW257932   2.265   1.436   0.592  0.1898  1.2542  0.1640
18006SOL     OW57933   1.062   5.237   5.567 -0.2801 -0.6057  0.1343
18006SOL    HW157934   1.109   5.179   5.627  1.6851 -0.5328 -1.2350
18006SOL    HW257935   1.081   5.202   5.480 -0.0645  1.3552 -0.6561
18007SOL     OW57936   0.987   3.612  10.054  0.3664 -0.5434 -0.4290
18007SOL    HW157937   0.961   3.699  10.026 -0.6912 -0.7176 -0.0541
18007SOL    HW257938   1.081   3.609  10.041  0.4714  0.7775 -0.1039
18008SOL     OW57939   9.792   9.877   0.810 -0.1803 -0.3448 -0.0996
18008SOL    HW157940   9.737   9.828   0.750  0.8820 -0.7619 -0.7485
18008SOL    HW257941   9.851   9.927   0.754 -0.1240  0.3822  0.5802
18009SOL     OW57942   1.333   7.923   2.309 -0.3761 -0.4191  0.0359
18009SOL    HW157943   1.330   7.897   2.217 -2.4211  0.1732 -0.1202
18009SOL    HW257944   1.337   7.841   2.357 -0.9780 -0.8130 -0.5675
18010SOL     OW57945   6.978   2.557   1.843 -0.0315 -0.0291  0.6005
18010SOL    HW157946   6.984   2.504   1.763  0.4414  0.0719  0.5661
18010SOL    HW257947   6.884   2.569   1.857 -0.1123  0.7855 -0.4948
18011SOL     OW57948   4.252   1.603   1.057  0.4778 -0.3272  0.1059
18011SOL    HW157949   4.309   1.675   1.031 -0.6357  0.5869  0.0918
18011SOL    HW257950   4.305   1.549   1.115  1.7237 -0.1784 -0.8617
18012SOL     OW57951   2.215   4.690   0.668  0.3246 -0.2669 -0.5510
18012SOL    HW157952   2.297   4.669   0.712  1.1289  1.1779 -1.3065
18012SOL    HW257953   2.238   4.698   0.576 -0.8522 -0.7042 -0.9075
18013SOL     OW57954   9.815   3.098   5.897 -0.5856 -0.0040 -0.0996
18013SOL    HW157955   9.849   3.085   5.986 -1.7827 -0.9445  0.2437
18013SOL    HW257956   9.882   3.060   5.840  0.0541  0.3425  0.4092
18014SOL     OW57957   0.036   1.772   2.339 -0.0688 -0.4545  0.0562
18014SOL    HW157958  -0.013   1.758   2.258  2.1713  0.7047 -1.6331
18014SOL    HW257959   0.006   1.857   2.371  0.4153  0.0330 -0.7189
18015SOL     OW57960   9.403   5.584   6.097 -0.3993  0.1704 -0.6465
18015SOL    HW157961   9.314   5.551   6.090 -0.9375  1.4924 -0.2237
18015SOL    HW257962   9.423   5.617   6.009 -1.1151  1.7874 -0.2232
18016SOL     OW57963   3.299   9.495   0.704  0.2640  0.2295  0.1432
18016SOL    HW157964   3.331   9.544   0.628  2.9818  0.5552  1.3756
18016SOL    HW257965   3.209   9.525   0.716  0.3819  1.5427 -1.8170
18017SOL     OW57966   6.223   9.420   0.141 -0.1682 -0.0550 -0.3652
18017SOL    HW157967   6.230   9.361   0.216  0.8077  1.0956  0.4784
18017SOL    HW257968   6.129   9.433   0.130 -0.3261 -0.2916  0.6126
18018SOL     OW57969   7.023  10.194   1.764  0.1203  0.4890 -0.5528
18018SOL    HW157970   7.006  10.271   1.711 -0.2945 -0.7804 -2.3456
18018SOL    HW257971   7.063  10.131   1.704  0.2306 -0.7821  0.7888
18019SOL     OW57972   2.768   3.696   1.581 -0.6440  0.8601 -0.4145
18019SOL    HW157973   2.691   3.687   1.524  0.0980  2.8656 -1.8630
18019SOL    HW257974   2.792   3.607   1.603 -1.7676  0.0459 -2.1914
18020SOL     OW57975   9.016   0.039   6.466 -0.4137  0.3205 -0.2917
18020SOL    HW157976   9.031  -0.026   6.397 -1.4534 -0.2737  0.0207
18020SOL    HW257977   9.040   0.123   6.425  0.8001 -0.2184 -0.7460
18021SOL     OW57978   7.049   9.894   9.659  0.2867  0.2462  0.2650
18021SOL    HW157979   7.024   9.958   9.725 -0.1004  0.6118 -0.2278
18021SOL    HW257980   6.975   9.891   9.598  1.2359  1.0420 -0.9981
18022SOL     OW57981   1.539   6.805   6.472  0.4981  0.1207 -0.0977
18022SOL    HW157982   1.489   6.725   6.488 -0.0550  0.3881 -0.4710
18022SOL    HW257983   1.621   6.775   6.432  1.0508 -0.3956  1.3290
18023SOL     OW57984   1.373   6.855   3.192 -0.1177  0.0672  0.1479
18023SOL    HW157985   1.280   6.856   3.169  0.0887  0.0134 -0.7609
18023SOL    HW257986   1.418   6.843   3.108  0.6887 -0.6496  0.6623
18024SOL     OW57987   5.699   9.085   1.556  0.0728 -0.1788 -0.0298
18024SOL    HW157988   5.666   9.119   1.639 -0.5877 -0.4453 -0.1829
18024SOL    HW257989   5.792   9.108   1.557  0.0964 -0.2768  0.8335
18025SOL     OW57990   1.133   5.273   1.256  0.1657 -0.3912  0.2464
18025SOL    HW157991   1.202   5.209   1.272  0.3851 -0.6064 -1.4538
18025SOL    HW257992   1.059   5.221   1.225 -0.3152 -0.0174  0.7499
18026SOL     OW57993   7.054  10.191   9.282  0.0051 -0.3193 -0.8690
18026SOL    HW157994   7.094  10.264   9.330 -1.4266  0.0414 -0.1816
18026SOL    HW257995   6.962  10.215   9.275 -0.8030 -2.6558  0.5977
18027SOL     OW57996   7.827   2.108   2.200  0.2973 -0.1941  0.1938
18027SOL    HW157997   7.753   2.162   2.225 -1.3458 -2.0145 -0.5333
18027SOL    HW257998   7.899   2.171   2.188 -1.2562  1.6975  0.2646
18028SOL     OW57999   9.956   2.821   3.861 -0.7583  0.0594 -0.4476
18028SOL    HW158000   9.909   2.851   3.939  1.3816 -0.6353  1.1831
18028SOL    HW258001   9.972   2.901   3.810  0.9722  1.1416  1.6447
18029SOL     OW58002   2.589   2.623   4.918 -0.3344  0.1861  0.1979
18029SOL    HW158003   2.579   2.548   4.977  1.0248  0.1274  0.3814
18029SOL    HW258004   2.643   2.685   4.967  1.1456 -0.0172 -1.1029
18030SOL     OW58005   6.721   5.162   7.627 -0.0603 -0.2163 -0.3477
18030SOL    HW158006   6.705   5.153   7.533 -1.7896  0.0412 -0.1004
18030SOL    HW258007   6.736   5.256   7.640  1.8158 -0.4432 -0.5662
18031SOL     OW58008   0.816   7.107   7.946  0.0829 -0.2889  0.1950
18031SOL    HW158009   0.851   7.090   7.859 -0.5804  0.2191 -0.1835
18031SOL    HW258010   0.809   7.020   7.986 -0.3672 -0.6213 -0.5682
18032SOL     OW58011   7.459   6.773   3.485  0.7545  0.3126  0.4595
18032SOL    HW158012   7.521   6.842   3.459  1.6447  0.1982  2.1196
18032SOL    HW258013   7.442   6.791   3.577 -1.5871  0.2169  0.1039
18033SOL     OW58014   0.803   5.916   2.184 -0.3718 -0.3206 -0.4635
18033SOL    HW158015   0.866   5.988   2.184 -0.6787 -0.0292 -2.0455
18033SOL    HW258016   0.725   5.953   2.226  0.1069 -0.3486  0.4902
18034SOL     OW58017   6.917   4.114   9.462  0.2463  0.0108 -0.0589
18034SOL    HW158018   6.853   4.185   9.457  1.3156  1.0791  0.6511
18034SOL    HW258019   6.867   4.034   9.446 -1.1868  0.8318  0.1859
18035SOL     OW58020   4.243   8.354   3.456  0.4438  0.5379 -0.2171
18035SOL    HW158021   4.225   8.335   3.548  0.6877  0.9361 -0.0830
18035SOL    HW258022   4.188   8.430   3.436 -1.2922 -0.8427 -1.0291
18036SOL     OW58023   0.423   6.875   3.516 -0.1318  0.3126  0.4241
18036SOL    HW158024   0.450   6.921   3.595  1.7764 -0.6020  0.3610
18036SOL    HW258025   0.429   6.782   3.539 -0.2815  0.0543 -0.5508
18037SOL     OW58026   3.636   6.483   0.957 -0.1480 -0.7625  0.0014
18037SOL    HW158027   3.587   6.481   0.875 -1.6799  0.0522  0.8346
18037SOL    HW258028   3.727   6.473   0.932 -0.7228 -2.2579 -1.6403
18038SOL     OW58029   8.948   1.023   4.311  0.2271 -0.2049  0.0732
18038SOL    HW158030   8.975   1.044   4.400 -1.1942  1.0856  0.2506
18038SOL    HW258031   8.912   0.934   4.318 -1.7272  0.6090  1.2753
18039SOL     OW58032   9.922   5.777   6.133 -0.0565 -0.4190  0.0458
18039SOL    HW158033  10.003   5.728   6.144 -0.1897 -0.1346  3.1708
18039SOL    HW258034   9.950   5.862   6.099  0.6462 -1.0489 -1.0390
18040SOL     OW58035  10.174   5.995   6.799 -0.0956 -0.1919  0.5655
18040SOL    HW158036  10.081   5.981   6.783  0.1611 -0.2016 -1.1040
18040SOL    HW258037  10.178   6.083   6.837 -0.7421  0.0249  0.1534
18041SOL     OW58038   6.570   8.244   0.608 -0.2873  0.1603  0.0649
18041SOL    HW158039   6.619   8.207   0.534 -0.4819 -3.6186  1.5764
18041SOL    HW258040   6.490   8.279   0.568  0.7041  0.4972 -1.7396
18042SOL     OW58041   7.902   5.386   9.469  0.0040  0.7726 -0.2034
18042SOL    HW158042   7.826   5.330   9.484  0.7317 -1.3526 -3.4885
18042SOL    HW258043   7.866   5.467   9.434 -0.8371 -0.1086 -1.4695
18043SOL     OW58044   3.997   3.333   4.381 -1.2960  0.4377 -0.7054
18043SOL    HW158045   3.995   3.418   4.425  2.0514 -0.1256  0.9023
18043SOL    HW258046   3.975   3.270   4.449  2.3782 -0.3194  0.0094
18044SOL     OW58047   8.808   2.477   6.584 -0.3485  0.3394  0.1058
18044SOL    HW158048   8.860   2.476   6.504  0.2129  2.4832  0.3937
18044SOL    HW258049   8.767   2.390   6.587 -1.4285  0.5816 -3.1601
18045SOL     OW58050   0.006   0.690   2.296 -0.4441  0.2241  0.3681
18045SOL    HW158051  -0.027   0.627   2.360  1.9971 -0.5751  0.9721
18045SOL    HW258052  -0.070   0.743   2.273 -1.6324 -0.0389  3.2290
18046SOL     OW58053   2.825   9.048   1.662 -0.2956  0.1625  0.6756
18046SOL    HW158054   2.874   8.972   1.696  2.4357  1.1859 -0.6848
18046SOL    HW258055   2.820   9.108   1.737  1.8160  0.5931  0.5270
18047SOL     OW58056  10.195   7.303   1.143 -0.5617 -0.1998 -0.1940
18047SOL    HW158057  10.270   7.361   1.128 -0.8195 -0.1450 -1.3759
18047SOL    HW258058  10.159   7.331   1.227  1.4417 -1.0078  1.0205
18048SOL     OW58059   6.260   7.549   2.504 -1.1104  0.2155  0.6253
18048SOL    HW158060   6.310   7.470   2.526 -2.0074 -0.5799 -0.0887
18048SOL    HW258061   6.227   7.581   2.588  2.4283  2.1392  1.5123
18049SOL     OW58062   1.309   6.492   4.756  0.1148 -0.1697 -0.6322
18049SOL    HW158063   1.331   6.447   4.675 -0.3355 -0.2207 -0.7326
18049SOL    HW258064   1.218   6.467   4.773 -0.2492  0.9404 -0.8579
18050SOL     OW58065   4.909   4.416   8.848 -0.0220  0.0352  0.2551
18050SOL    HW158066   4.973   4.487   8.840 -0.7171  1.1087  3.1902
18050SOL    HW258067   4.890   4.411   8.941 -0.5828 -3.5601  0.0932
18051SOL     OW58068   7.630   4.804   6.461 -0.1324  0.5250  0.0429
18051SOL    HW158069   7.563   4.740   6.437 -1.3252  2.1752 -1.1909
18051SOL    HW258070   7.583   4.872   6.509  1.0731  0.6405  1.1186
18052SOL     OW58071   1.803   4.637   2.356  0.1743  0.2420 -0.2524
18052SOL    HW158072   1.877   4.697   2.364  1.1349 -0.8862 -0.4300
18052SOL    HW258073   1.770   4.652   2.267  0.3020  0.6218 -0.2372
18053SOL     OW58074   4.044   2.753   7.797  0.0510  0.0101  0.4885
18053SOL    HW158075   3.993   2.671   7.794  0.4013 -0.2452  1.2694
18053SOL    HW258076   4.036   2.789   7.709 -2.2266  0.4331  0.8174
18054SOL     OW58077   8.058   0.202   8.486 -0.0830  0.5256  0.5338
18054SOL    HW158078   8.146   0.219   8.455  0.9762  1.3404  3.6779
18054SOL    HW258079   8.014   0.287   8.485 -0.3043  0.4137  0.5236
18055SOL     OW58080   4.443   1.661   5.666 -0.4114  0.1133  0.3589
18055SOL    HW158081   4.444   1.757   5.666  0.8546  0.1322  1.7077
18055SOL    HW258082   4.360   1.639   5.709 -0.3483  0.6136  0.7482
18056SOL     OW58083   2.845   7.001   4.655 -0.6630 -0.0744 -0.4417
18056SOL    HW158084   2.931   7.017   4.616 -1.1476  2.1700 -0.7404
18056SOL    HW258085   2.783   7.031   4.589 -1.6216  0.1502  0.5375
18057SOL     OW58086   9.287   8.362   6.048 -0.0861 -0.6200 -0.0526
18057SOL    HW158087   9.260   8.308   5.974  1.2799  1.0683 -1.8736
18057SOL    HW258088   9.224   8.434   6.049  1.0642  0.4277 -0.8790
18058SOL     OW58089   2.363   9.121   4.680 -0.1146  0.1785 -0.0696
18058SOL    HW158090   2.275   9.127   4.716 -0.2162  1.9724 -0.4893
18058SOL    HW258091   2.420   9.148   4.753  0.0133 -0.0811 -0.0718
18059SOL     OW58092   1.749   9.268   5.441 -0.8386 -0.0628 -0.3301
18059SOL    HW158093   1.710   9.205   5.381  0.9032 -0.0755 -1.5102
18059SOL    HW258094   1.704   9.252   5.525 -0.3244 -3.0185 -0.5148
18060SOL     OW58095   2.047   0.999   0.135 -0.0292 -0.2742 -0.1387
18060SOL    HW158096   2.044   1.084   0.092 -1.2329 -0.4421 -0.4204
18060SOL    HW258097   2.128   0.959   0.104  1.0066  1.0902  0.6678
18061SOL     OW58098   6.312   9.213   7.711  0.3937 -0.4137  0.5269
18061SOL    HW158099   6.315   9.126   7.672  1.7883  0.4320 -1.4346
18061SOL    HW258100   6.402   9.232   7.736  0.6130  1.3188 -1.2761
18062SOL     OW58101   7.740   5.247   5.358  0.3849  0.3269 -0.7050
18062SOL    HW158102   7.769   5.330   5.321 -1.0146  1.6929  1.0833
18062SOL    HW258103   7.798   5.182   5.319  1.8359  2.1789 -1.8053
18063SOL     OW58104   9.374   8.529   8.188  0.2079 -0.3534 -0.2081
18063SOL    HW158105   9.346   8.490   8.271 -3.6728  2.7258  0.2507
18063SOL    HW258106   9.324   8.482   8.122  2.7614 -2.3144 -0.9090
18064SOL     OW58107   4.662   9.935   8.918 -0.5586  0.3857  0.8717
18064SOL    HW158108   4.606  10.012   8.910 -1.9149 -0.4108  2.2471
18064SOL    HW258109   4.603   9.865   8.947  0.6877 -1.1117 -0.0376
18065SOL     OW58110   4.278   1.942   6.559 -0.3135  0.3608 -0.3009
18065SOL    HW158111   4.265   1.858   6.515  1.0930  0.4004 -0.8454
18065SOL    HW258112   4.214   2.001   6.518  0.1172  0.0745 -1.4322
18066SOL     OW58113   3.399   9.975   6.809  0.4334 -0.6056 -0.5454
18066SOL    HW158114   3.480   9.939   6.772  0.1110  0.3283 -2.3061
18066SOL    HW258115   3.329   9.921   6.772  0.1280 -0.0170 -0.8397
18067SOL     OW58116   5.522   7.130  10.106 -0.2833 -0.0589 -0.3745
18067SOL    HW158117   5.529   7.150  10.013 -1.4687  1.4542 -0.1752
18067SOL    HW258118   5.483   7.042  10.109 -1.0078  0.2185 -1.3134
18068SOL     OW58119   2.435   5.541  10.204 -0.1926 -0.5929  0.0659
18068SOL    HW158120   2.530   5.537  10.214 -0.3345 -1.6062  1.1435
18068SOL    HW258121   2.401   5.494  10.280 -1.5430 -0.9270 -0.7289
18069SOL     OW58122   5.206   4.007   3.505 -0.0423 -0.2275 -0.3221
18069SOL    HW158123   5.129   3.952   3.492  0.4058 -0.5530 -1.9031
18069SOL    HW258124   5.237   3.985   3.593 -1.6264 -0.2119  0.2709
18070SOL     OW58125   5.445   6.117   2.969  0.6737  0.2193  0.0231
18070SOL    HW158126   5.515   6.073   3.017  0.7485  0.5091  0.1783
18070SOL    HW258127   5.365   6.078   3.002  0.7021  0.7164  0.6915
18071SOL     OW58128   3.322   6.596   2.386  0.0248 -0.3557 -0.0759
18071SOL    HW158129   3.310   6.591   2.480  1.0038  0.5725  0.1242
18071SOL    HW258130   3.333   6.505   2.358  2.2917 -0.4994  1.0887
18072SOL     OW58131   6.261   9.308   4.692  0.0429 -0.4933  0.4768
18072SOL    HW158132   6.192   9.250   4.659  2.6225 -2.3461 -2.0232
18072SOL    HW258133   6.233   9.328   4.782 -3.1004 -2.0848  0.0063
18073SOL     OW58134   0.381   8.419   9.933 -0.4217 -0.5131  0.0410
18073SOL    HW158135   0.291   8.432   9.904 -1.2551  0.1412  2.6074
18073SOL    HW258136   0.433   8.481   9.882 -1.9455  1.4551  0.7585
18074SOL     OW58137   7.303   2.475   1.791  0.5640  0.0098 -0.0811
18074SOL    HW158138   7.378   2.501   1.843  0.6224 -2.1562  1.0432
18074SOL    HW258139   7.227   2.489   1.848  0.4027 -0.3003 -0.2094
18075SOL     OW58140  10.011   0.049   9.507  1.1389  0.0404  0.3793
18075SOL    HW158141   9.987   0.130   9.463 -0.1212  0.4929  1.8265
18075SOL    HW258142   9.933   0.024   9.557  1.1145 -2.6229 -0.7873
18076SOL     OW58143   8.918   8.955   6.428  0.3084  0.8592 -0.2688
18076SOL    HW158144   8.845   8.983   6.373  0.9937  0.5781 -1.3533
18076SOL    HW258145   8.898   8.863   6.447  0.4360  0.7426 -0.6776
18077SOL     OW58146   2.650   7.619   2.469  0.6744  0.4887  0.4144
18077SOL    HW158147   2.563   7.584   2.486  0.4986  0.7309  0.0260
18077SOL    HW258148   2.678   7.657   2.552  0.0884  1.1090  0.3355
18078SOL     OW58149   2.653   4.152   4.403  0.2969 -0.1002  0.3896
18078SOL    HW158150   2.612   4.067   4.420  1.5507 -0.7259  0.3640
18078SOL    HW258151   2.707   4.169   4.480  1.4778 -0.1967 -0.3961
18079SOL     OW58152   8.962   7.606   2.579 -0.0971 -0.0747 -0.0086
18079SOL    HW158153   9.048   7.569   2.563 -0.6778 -1.3184 -0.3695
18079SOL    HW258154   8.979   7.695   2.610  1.3709 -0.8177  1.4362
18080SOL     OW58155   7.241   4.601   3.023 -0.1934 -0.1830  0.3313
18080SOL    HW158156   7.168   4.611   2.962  0.4955 -0.4864 -0.5673
18080SOL    HW258157   7.286   4.686   3.021  1.1833 -0.8755 -1.4185
18081SOL     OW58158   7.951   7.094   8.000  0.0599  0.0629 -0.5452
18081SOL    HW158159   8.004   7.173   7.988  1.8845 -0.8993  0.5883
18081SOL    HW258160   8.002   7.025   7.958 -1.4461 -0.5592 -1.4070
18082SOL     OW58161   1.049   5.253   0.528 -0.3113 -0.0506 -0.3126
18082SOL    HW158162   1.142   5.238   0.509 -0.7192 -2.5557 -0.6066
18082SOL    HW258163   1.019   5.306   0.455  0.8866  0.9603 -0.1259
18083SOL     OW58164   0.855   3.256   5.761  0.2622  0.2814  0.3553
18083SOL    HW158165   0.785   3.222   5.705  0.1800  0.7210  0.1883
18083SOL    HW258166   0.934   3.243   5.709  0.0605  1.7742 -0.3893
18084SOL     OW58167   8.209   4.017   5.227  0.9174  0.2360  0.5342
18084SOL    HW158168   8.136   4.049   5.280  1.6553  1.3269  0.9340
18084SOL    HW258169   8.180   3.931   5.196 -1.0309  1.1048 -0.2892
18085SOL     OW58170  10.003   3.535   5.214  0.5513  0.0642 -0.6798
18085SOL    HW158171  10.050   3.543   5.131  0.9933 -1.5404 -0.6357
18085SOL    HW258172  10.026   3.447   5.245 -0.7096  0.1114  0.4655
18086SOL     OW58173   5.123   8.066   6.200  0.0562 -0.1665 -0.8402
18086SOL    HW158174   5.127   7.975   6.229  1.0376 -0.2513 -1.1875
18086SOL    HW258175   5.070   8.111   6.266 -0.4656 -0.9899 -0.6847
18087SOL     OW58176   1.402   2.387   9.473  0.1483 -0.0160  0.9143
18087SOL    HW158177   1.314   2.353   9.461 -0.4786  1.8127 -0.0735
18087SOL    HW258178   1.459   2.321   9.435 -0.9781 -0.2166 -0.4935
18088SOL     OW58179   3.136   0.243   5.114  0.5220 -0.1156 -0.1267
18088SOL    HW158180   3.166   0.332   5.129 -0.2058  0.1969 -0.4761
18088SOL    HW258181   3.204   0.204   5.058  2.0544 -0.5645  1.9526
18089SOL     OW58182   5.445   7.452   5.954  0.2743  0.2669 -0.1020
18089SOL    HW158183   5.360   7.446   5.911  1.3910 -0.9528 -2.3636
18089SOL    HW258184   5.434   7.406   6.037 -1.1866 -0.1683 -0.5140
18090SOL     OW58185   3.717   3.916   3.950 -0.2113 -0.4692  0.2496
18090SOL    HW158186   3.768   3.968   4.012 -0.9621 -0.3809  0.8164
18090SOL    HW258187   3.700   3.834   3.997 -0.2558 -0.6486 -0.0795
18091SOL     OW58188   7.039   7.030   5.283  0.2328 -0.5800  0.3498
18091SOL    HW158189   7.131   7.026   5.309  0.8355  1.3774 -1.2299
18091SOL    HW258190   6.994   7.064   5.361  1.1789  0.2913  0.5356
18092SOL     OW58191   9.338   6.406   9.106  0.1429 -0.4042  0.1716
18092SOL    HW158192   9.420   6.363   9.080  0.4235  1.1804 -1.8068
18092SOL    HW258193   9.362   6.498   9.117 -1.7078  0.5551 -2.7517
18093SOL     OW58194   8.977   8.529   6.677 -0.1701  0.8269 -0.0281
18093SOL    HW158195   8.945   8.582   6.750  0.4306  1.4862 -0.2402
18093SOL    HW258196   8.939   8.442   6.693  0.9330  0.6024  1.7484
18094SOL     OW58197   6.179   6.412   4.787 -0.1715  1.2533  0.2492
18094SOL    HW158198   6.155   6.505   4.792 -1.3582  0.9077  1.2810
18094SOL    HW258199   6.271   6.414   4.760  0.1432  2.7619  1.2774
18095SOL     OW58200   8.513   6.685   6.520 -0.1946  0.2369  0.1047
18095SOL    HW158201   8.534   6.614   6.459 -0.2375  0.5950 -0.3251
18095SOL    HW258202   8.598   6.710   6.558 -0.1641  0.0450  0.1655
18096SOL     OW58203   8.037   0.813   9.486  0.2544  0.1695 -0.0025
18096SOL    HW158204   8.104   0.817   9.418  0.8979  0.9698  0.6548
18096SOL    HW258205   8.055   0.732   9.533  0.6706  0.3034  0.0720
18097SOL     OW58206   4.635   2.301   1.997  0.7030 -0.0050 -0.6766
18097SOL    HW158207   4.660   2.314   2.088  2.4827 -0.1391 -1.1103
18097SOL    HW258208   4.633   2.206   1.986 -0.2798 -0.0064 -0.6056
18098SOL     OW58209   4.984   7.422   7.389  0.0805  0.0625  0.0578
18098SOL    HW158210   5.046   7.495   7.379 -0.3843  0.4397 -0.1128
18098SOL    HW258211   4.923   7.452   7.456 -0.2244 -0.0921 -0.1485
18099SOL     OW58212   3.787   5.400   9.562  0.2558  0.2854  0.0441
18099SOL    HW158213   3.850   5.423   9.492 -1.8752  1.7084 -1.5415
18099SOL    HW258214   3.714   5.461   9.549 -1.6762 -1.5728  1.5206
18100SOL     OW58215   7.644   2.229   4.127 -0.2171 -0.3052 -0.6558
18100SOL    HW158216   7.591   2.243   4.206  0.3554  0.0479 -0.3306
18100SOL    HW258217   7.685   2.313   4.110 -2.6027  0.5288 -3.0592
18101SOL     OW58218   6.307   4.651   9.561 -0.4301 -0.2559  0.9757
18101SOL    HW158219   6.335   4.700   9.638 -0.5342 -0.5684  1.2141
18101SOL    HW258220   6.231   4.601   9.590 -0.2445 -0.6609  0.7705
18102SOL     OW58221   2.262   7.647   9.153 -0.3332 -0.0738 -0.4261
18102SOL    HW158222   2.188   7.663   9.212  1.0694 -0.9888  1.6975
18102SOL    HW258223   2.264   7.723   9.096 -2.4605  0.3147 -0.0668
18103SOL     OW58224   2.231   5.885   2.013 -0.1993  0.7979 -0.1329
18103SOL    HW158225   2.267   5.801   2.040  0.8075  0.2181 -2.9336
18103SOL    HW258226   2.304   5.946   2.020  0.1411  0.5937 -1.5653
18104SOL     OW58227   3.231   8.676   5.112 -0.5822 -0.1011 -0.2755
18104SOL    HW158228   3.299   8.740   5.133 -0.7588 -0.4797  1.6274
18104SOL    HW258229   3.267   8.626   5.038  0.5712  0.6267 -0.2299
18105SOL     OW58230   9.851   7.395   9.285 -0.0452  0.0995  0.1598
18105SOL    HW158231   9.800   7.471   9.258  1.1998  1.4600  1.4619
18105SOL    HW258232   9.794   7.348   9.346 -1.4108 -0.9247 -1.8024
18106SOL     OW58233   0.340   0.139   0.629  0.8609 -0.5403 -0.3796
18106SOL    HW158234   0.337   0.234   0.641  2.3866 -0.7443  2.2547
18106SOL    HW258235   0.429   0.121   0.599  0.6913 -1.1643 -0.5214
18107SOL     OW58236   4.430   0.791   9.285  0.1189  0.0556  0.1280
18107SOL    HW158237   4.463   0.829   9.204  1.7448 -1.1580  0.1625
18107SOL    HW258238   4.399   0.704   9.260  0.2802 -0.1866  0.7524
18108SOL     OW58239   9.074   2.012   2.463 -0.1993 -0.0415  0.5599
18108SOL    HW158240   9.044   2.096   2.426 -1.0025  0.0068  1.3016
18108SOL    HW258241   8.994   1.961   2.474  0.2526 -0.7804  0.4511
18109SOL     OW58242   9.650   1.844   1.885 -0.4085  0.1383  0.0261
18109SOL    HW158243   9.566   1.797   1.887 -0.2637 -0.1071  1.3126
18109SOL    HW258244   9.649   1.897   1.965  1.7127 -1.8087  1.4959
18110SOL     OW58245   1.425   7.295   8.855 -0.2650 -0.3764  0.8619
18110SOL    HW158246   1.495   7.247   8.899 -0.2445 -1.0611  0.1025
18110SOL    HW258247   1.406   7.243   8.777 -0.7260  0.4893  0.3865
18111SOL     OW58248   5.910   8.843   4.420 -0.2749 -0.1881 -0.1726
18111SOL    HW158249   5.873   8.765   4.377  0.4572 -0.4147 -0.3991
18111SOL    HW258250   5.989   8.811   4.464 -0.3077  0.3102  0.2526
18112SOL     OW58251   7.666   8.820   9.522 -0.2478  0.1176 -0.2196
18112SOL    HW158252   7.697   8.821   9.613 -0.3005  0.3881 -0.2019
18112SOL    HW258253   7.641   8.729   9.506  3.0063 -0.7511 -1.0904
18113SOL     OW58254   0.607   7.240   0.133  0.1863  0.7853  0.2851
18113SOL    HW158255   0.540   7.244   0.201  1.3065 -1.2637  1.6361
18113SOL    HW258256   0.644   7.328   0.130 -1.2522  1.4242  0.8820
18114SOL     OW58257   1.958   3.364   6.166  0.4629  0.4945 -0.0735
18114SOL    HW158258   2.034   3.307   6.180 -0.3140 -1.2539 -2.3772
18114SOL    HW258259   1.892   3.330   6.227  0.1594 -0.8840 -1.1013
18115SOL     OW58260   7.637   6.420   5.083 -0.1345  0.0099 -0.1173
18115SOL    HW158261   7.579   6.483   5.127 -1.0239 -1.0706  0.2827
18115SOL    HW258262   7.591   6.337   5.088  1.0725 -0.7082 -0.5687
18116SOL     OW58263   1.128   5.912   4.124  0.1033  0.4437  0.0881
18116SOL    HW158264   1.222   5.897   4.116  0.4486  1.2617  1.9484
18116SOL    HW258265   1.116   6.004   4.103 -0.1136  0.5961  0.8342
18117SOL     OW58266   5.931  10.168   9.521 -0.4274 -0.4797 -0.2053
18117SOL    HW158267   5.859  10.114   9.555 -1.4075 -1.0401 -2.8801
18117SOL    HW258268   5.994  10.104   9.486  0.3393  0.0488  0.2118
18118SOL     OW58269   5.932   0.883   0.009  0.2186  0.4272 -0.2169
18118SOL    HW158270   5.939   0.788   0.003  1.7846  0.5096 -0.1571
18118SOL    HW258271   5.981   0.906   0.088 -2.2371  1.1215  1.2030
18119SOL     OW58272   0.270   8.641   7.437 -0.7658  0.1397 -0.4512
18119SOL    HW158273   0.317   8.702   7.380 -2.1761  0.5766 -1.2048
18119SOL    HW258274   0.331   8.569   7.452  0.7486  1.4572  0.0068
18120SOL     OW58275   3.775   2.941   6.689 -0.2534 -0.0633  0.0405
18120SOL    HW158276   3.802   2.953   6.780  0.7626 -1.7240 -0.0065
18120SOL    HW258277   3.685   2.910   6.696 -0.9298  1.8414  0.3570
18121SOL     OW58278   1.621   7.539   0.418  0.0728  0.1369 -0.3776
18121SOL    HW158279   1.644   7.450   0.392 -2.3233 -1.1729  1.5434
18121SOL    HW258280   1.547   7.562   0.362 -1.9025 -0.7835  1.6383
18122SOL     OW58281   3.191   3.866   9.432 -0.3637  0.0895  0.5604
18122SOL    HW158282   3.181   3.950   9.478 -2.5571 -1.0725  2.4524
18122SOL    HW258283   3.283   3.843   9.445 -0.4012  0.8449  2.6595
18123SOL     OW58284   0.336   6.341   8.075  0.2029 -0.4996 -0.1088
18123SOL    HW158285   0.420   6.316   8.037  0.6266 -0.0235  0.4916
18123SOL    HW258286   0.273   6.283   8.034  0.8711 -1.0885 -0.3243
18124SOL     OW58287   5.683   7.979   7.429  0.4816  0.2899  0.6556
18124SOL    HW158288   5.773   7.951   7.419  0.3984  0.3707 -0.5086
18124SOL    HW258289   5.642   7.912   7.483  1.4409  0.7222  1.9715
18125SOL     OW58290   9.819   1.377   6.978 -0.3570  0.0036 -0.3355
18125SOL    HW158291   9.847   1.467   6.997 -0.4861 -0.0563  0.1376
18125SOL    HW258292   9.860   1.324   7.045 -0.2279 -0.3062 -0.6569
18126SOL     OW58293   1.334   5.328   3.768 -0.1058  0.2002  0.0464
18126SOL    HW158294   1.405   5.372   3.720 -0.9183  1.6517  0.1232
18126SOL    HW258295   1.347   5.354   3.859  1.0315 -2.0055  0.5959
18127SOL     OW58296   4.742   9.249   8.328 -0.1196  0.5158  0.2996
18127SOL    HW158297   4.831   9.270   8.300 -0.4280  1.3730 -0.0925
18127SOL    HW258298   4.749   9.232   8.422  0.8038 -1.5641 -0.0758
18128SOL     OW58299   1.689   0.016   8.539  0.2251 -0.0125  0.4306
18128SOL    HW158300   1.669   0.101   8.578  0.8719 -0.5469  2.0237
18128SOL    HW258301   1.606  -0.032   8.543 -0.0882  0.4539 -0.2776
18129SOL     OW58302   4.044   8.808   8.631 -0.2577 -0.5235 -0.2740
18129SOL    HW158303   4.043   8.760   8.713  0.3386  0.2953  0.2302
18129SOL    HW258304   3.954   8.805   8.600 -0.3288 -1.5155  0.0020
18130SOL     OW58305   7.510   5.789   8.777  0.0205 -0.4241  0.2473
18130SOL    HW158306   7.522   5.880   8.802  0.9928 -0.8653  1.4568
18130SOL    HW258307   7.471   5.793   8.689 -0.8676  1.1448  0.6728
18131SOL     OW58308   9.837   6.229   7.705  0.2822  0.5541  0.6522
18131SOL    HW158309   9.758   6.185   7.674  0.3235  1.2728 -0.5743
18131SOL    HW258310   9.868   6.278   7.629 -0.1599  3.2499  2.0659
18132SOL     OW58311   3.982   2.009   2.710 -0.5725  0.3893  0.1527
18132SOL    HW158312   3.925   1.935   2.730  0.7301 -0.4970  0.6653
18132SOL    HW258313   4.069   1.972   2.701 -0.0096  1.7573 -0.3482
18133SOL     OW58314   1.636   7.526   0.020  0.3491  0.4081  0.2123
18133SOL    HW158315   1.631   7.440  -0.023 -0.4493  0.8683 -0.6472
18133SOL    HW258316   1.550   7.539   0.058  0.2104  1.1702 -0.3422
18134SOL     OW58317   9.996   5.627   2.458 -0.0437 -0.5651 -1.5095
18134SOL    HW158318  10.074   5.597   2.505 -0.7502 -1.0596 -0.5941
18134SOL    HW258319  10.025   5.703   2.408  0.2446  1.7970  1.8445
18135SOL     OW58320   2.012   0.893   1.889  0.1826 -0.1711 -0.1356
18135SOL    HW158321   1.989   0.805   1.920  1.1571 -0.2918  0.3008
18135SOL    HW258322   2.102   0.883   1.857  1.3035  1.2441  2.3788
18136SOL     OW58323   5.852   3.189   7.677  0.0002  0.1102  0.6148
18136SOL    HW158324   5.843   3.232   7.762  2.2926  0.9601  0.5140
18136SOL    HW258325   5.939   3.149   7.680 -0.8733 -2.0112 -0.4334
18137SOL     OW58326   4.842   6.903   7.559  0.2513 -0.1934  0.2801
18137SOL    HW158327   4.877   6.828   7.511  1.9707 -0.6380  2.0838
18137SOL    HW258328   4.912   6.968   7.556 -0.3602  0.4937  0.5642
18138SOL     OW58329   4.746   4.550   3.491  0.0038 -0.3111  0.6106
18138SOL    HW158330   4.802   4.613   3.445  0.1371 -1.2436 -0.5588
18138SOL    HW258331   4.792   4.466   3.483 -1.6982 -1.1895 -0.7177
18139SOL     OW58332   9.030   3.116   1.698 -0.1101  0.3739 -0.3507
18139SOL    HW158333   9.118   3.109   1.734  0.5915 -0.4369 -2.0949
18139SOL    HW258334   9.020   3.209   1.675  0.1924  0.5100  0.0658
18140SOL     OW58335   3.130   1.584  10.123  0.1263 -0.3288 -0.2090
18140SOL    HW158336   3.120   1.600  10.029 -0.8104 -1.2102 -0.2708
18140SOL    HW258337   3.040   1.573  10.155  0.4996 -1.2171  0.5709
18141SOL     OW58338   9.371   7.051   7.109 -0.0911  0.1401 -0.5400
18141SOL    HW158339   9.370   7.033   7.015  1.2634 -0.6343 -0.4355
18141SOL    HW258340   9.281   7.039   7.137 -0.6878  1.2529 -1.8836
18142SOL     OW58341   1.701   8.507   6.836  0.5046 -0.1909  0.2053
18142SOL    HW158342   1.720   8.517   6.743  1.4054  0.4317  0.4482
18142SOL    HW258343   1.770   8.450   6.869  0.7928  0.4198  0.6861
18143SOL     OW58344   2.631   6.378   9.668  0.1301 -0.5127  0.3157
18143SOL    HW158345   2.602   6.433   9.741 -0.8353 -1.3447  0.5935
18143SOL    HW258346   2.550   6.343   9.631  0.6765 -1.0486 -0.3956
18144SOL     OW58347   1.436   8.489   3.761  0.1422  0.2955 -0.1542
18144SOL    HW158348   1.366   8.432   3.792 -0.0356 -0.2546 -1.4786
18144SOL    HW258349   1.424   8.491   3.665  1.0699  1.3370 -0.2676
18145SOL     OW58350   3.320   1.179   0.200  0.0418  0.4013 -0.7734
18145SOL    HW158351   3.387   1.235   0.162 -0.0426 -0.5697 -2.4313
18145SOL    HW258352   3.323   1.198   0.294  0.4742  2.6644 -1.1870
18146SOL     OW58353   4.170   6.011   9.627 -0.0922 -0.2502 -0.3921
18146SOL    HW158354   4.132   6.025   9.541 -0.6484  0.8222  0.0066
18146SOL    HW258355   4.098   5.979   9.681 -0.1431  0.5806  0.0549
18147SOL     OW58356   9.210   6.697   8.303  0.3667  0.0225  0.1057
18147SOL    HW158357   9.165   6.634   8.248 -0.6837  1.2419 -0.4920
18147SOL    HW258358   9.292   6.654   8.328  1.1640 -0.3675 -2.8589
18148SOL     OW58359   2.002   2.946  10.032 -0.0352  0.0690  0.2781
18148SOL    HW158360   2.084   2.943  10.081 -0.3525  1.0239  0.8879
18148SOL    HW258361   1.952   2.871  10.063  0.2581 -0.0210  0.5371
18149SOL     OW58362   8.539   6.440   1.222  0.4461  0.7195 -0.2364
18149SOL    HW158363   8.490   6.502   1.275  1.0260  1.0860 -0.1223
18149SOL    HW258364   8.629   6.471   1.225  0.4930  0.7375 -1.4203
18150SOL     OW58365   7.400   7.666   4.274  0.2767 -0.4110  0.0687
18150SOL    HW158366   7.352   7.690   4.195 -0.4253  0.6374  0.7875
18150SOL    HW258367   7.485   7.635   4.243  0.1316  0.2920 -1.0690
18151SOL     OW58368   3.771   0.494   6.059 -0.9765  0.0965  0.0263
18151SOL    HW158369   3.744   0.498   5.967 -1.9580  0.5295  0.3179
18151SOL    HW258370   3.866   0.481   6.055 -1.0329 -0.1365 -1.0459
18152SOL     OW58371   0.842   3.538   7.180 -0.4609  0.0077  0.2781
18152SOL    HW158372   0.863   3.491   7.099  2.0187  0.2944  0.6882
18152SOL    HW258373   0.783   3.609   7.153  0.5919  0.3029 -1.3259
18153SOL     OW58374   0.568   0.049   8.940  0.2507  0.6101  0.1399
18153SOL    HW158375   0.663   0.047   8.934  0.2477 -0.5944  0.2397
18153SOL    HW258376   0.550   0.048   9.034  0.1316  2.4474  0.1744
18154SOL     OW58377   9.405   8.583   9.239 -0.0806  0.2046  0.4854
18154SOL    HW158378   9.318   8.620   9.250 -0.1627  0.2563 -0.3146
18154SOL    HW258379   9.393   8.488   9.247 -0.1580  0.2326  0.6925
18155SOL     OW58380   7.573   2.945   0.846  0.2181  0.2743 -0.0095
18155SOL    HW158381   7.487   2.988   0.841 -0.3155 -0.6905  0.5152
18155SOL    HW258382   7.564   2.869   0.788  0.9731  0.5756 -0.5286
18156SOL     OW58383   8.340   7.723   9.845 -0.3627 -0.1170  0.1250
18156SOL    HW158384   8.279   7.770   9.902 -1.6269 -1.9953  0.4330
18156SOL    HW258385   8.388   7.665   9.903  0.2079 -0.1792 -0.4005
18157SOL     OW58386   5.905   8.707   8.731 -0.0176 -0.2171 -0.2689
18157SOL    HW158387   5.900   8.732   8.823 -2.6805 -2.1090  0.2091
18157SOL    HW258388   5.999   8.700   8.713  0.5708  0.0022  2.3323
18158SOL     OW58389   6.953   7.727   3.959 -0.2844 -0.2987  0.2656
18158SOL    HW158390   7.012   7.765   3.895 -1.0241 -1.7118 -1.3408
18158SOL    HW258391   6.951   7.634   3.938 -2.7629 -0.3780  0.4634
18159SOL     OW58392   8.185   9.500   9.571  0.5256  0.0205  0.0030
18159SOL    HW158393   8.181   9.564   9.500 -0.9186 -0.4767 -0.3852
18159SOL    HW258394   8.094   9.484   9.595  0.9382 -0.6788  1.2057
18160SOL     OW58395   9.480   5.758   3.069 -0.2574 -0.1963  0.5266
18160SOL    HW158396   9.398   5.800   3.093 -0.9107 -1.3078  0.2686
18160SOL    HW258397   9.490   5.686   3.131  0.9224  0.3930  1.0550
18161SOL     OW58398   2.288   0.891   5.578  0.0528 -0.1225 -0.2160
18161SOL    HW158399   2.312   0.810   5.533  1.4883  0.6380 -0.8665
18161SOL    HW258400   2.319   0.879   5.668 -2.2744 -1.3949  0.5075
18162SOL     OW58401   0.923   0.539   8.797  0.2457 -0.0561  0.5298
18162SOL    HW158402   0.970   0.539   8.713 -1.6904  0.3301 -0.6351
18162SOL    HW258403   0.845   0.592   8.780 -0.0823  0.2419  2.6822
18163SOL     OW58404   0.989   0.904   9.943  0.2409 -0.0976 -0.0360
18163SOL    HW158405   0.938   0.984   9.955 -0.5426 -0.4549 -0.8196
18163SOL    HW258406   0.947   0.840  10.000  1.0513  0.1089  0.8182
18164SOL     OW58407   0.542   0.022   4.126  0.3917 -0.1803  0.0866
18164SOL    HW158408   0.550  -0.032   4.204  1.3995  0.1233  0.2039
18164SOL    HW258409   0.539  -0.041   4.054  1.8915 -0.4025  0.1987
18165SOL     OW58410   9.947   6.491   5.454 -0.1525  0.2923  0.5324
18165SOL    HW158411   9.952   6.529   5.366  0.0177  0.4710  0.6185
18165SOL    HW258412  10.021   6.431   5.459  1.4406  2.1988  1.4545
18166SOL     OW58413   3.972   3.886   7.522 -0.0370 -0.2233 -0.1331
18166SOL    HW158414   4.025   3.901   7.601 -0.6802 -0.2586  0.3162
18166SOL    HW258415   3.965   3.790   7.516 -0.4800 -0.2059  0.1030
18167SOL     OW58416   8.252   0.112   7.388  0.4380 -0.1736 -0.2802
18167SOL    HW158417   8.346   0.104   7.403  0.1417  0.7784  2.6481
18167SOL    HW258418   8.238   0.205   7.368  0.1640 -0.4455 -1.4465
18168SOL     OW58419   9.719   3.972   3.402  0.1833 -0.1944 -0.2387
18168SOL    HW158420   9.703   3.881   3.376  0.5818 -0.3971  0.2104
18168SOL    HW258421   9.706   3.972   3.497 -0.9819  0.4734 -0.3733
18169SOL     OW58422   6.071   5.585   3.527 -0.2793 -0.1409 -0.0647
18169SOL    HW158423   6.101   5.618   3.443 -1.1082 -0.5158 -0.5248
18169SOL    HW258424   6.078   5.490   3.520 -2.2361 -0.3052 -0.5017
18170SOL     OW58425   7.888   8.925   2.498 -0.1281 -0.0911 -0.2949
18170SOL    HW158426   7.861   8.972   2.577  0.7392 -0.3604  0.1755
18170SOL    HW258427   7.866   8.833   2.516  1.4219 -0.3775  0.2648
18171SOL     OW58428  10.045   0.642   5.627 -0.3515  0.4317 -0.0254
18171SOL    HW158429  10.104   0.625   5.554 -0.3666 -0.2152  0.1050
18171SOL    HW258430   9.972   0.580   5.614  0.2022 -0.5124  1.1554
18172SOL     OW58431   4.826   8.529   3.452 -0.5490  0.3540  0.2928
18172SOL    HW158432   4.915   8.529   3.487 -0.7871  0.9576  0.9220
18172SOL    HW258433   4.817   8.614   3.409  0.0091 -0.6850 -1.9761
18173SOL     OW58434   6.403   8.812   6.334 -0.4147 -0.2544 -0.5109
18173SOL    HW158435   6.481   8.819   6.280 -0.4214 -0.0686 -0.4947
18173SOL    HW258436   6.431   8.758   6.409 -0.1307  0.3421 -0.1852
18174SOL     OW58437   0.272   6.878   4.510  0.6380 -0.6209 -0.9845
18174SOL    HW158438   0.192   6.847   4.552 -0.6886  1.6287 -1.6877
18174SOL    HW258439   0.315   6.931   4.577 -1.1824  2.4804 -2.0942
18175SOL     OW58440   9.548   5.141   9.515 -0.3744  0.2783 -0.1369
18175SOL    HW158441   9.501   5.066   9.553 -1.2615  0.8128 -0.1624
18175SOL    HW258442   9.619   5.101   9.464  1.1448 -0.4807  2.3637
18176SOL     OW58443   9.465   7.313   5.186  0.4358  0.3524  0.5963
18176SOL    HW158444   9.405   7.285   5.256  0.1664  1.9221  1.0210
18176SOL    HW258445   9.448   7.407   5.176  2.0679  0.6012 -0.0333
18177SOL     OW58446   8.844   5.851   6.937 -0.0921 -0.4254 -0.3548
18177SOL    HW158447   8.887   5.777   6.979  1.0052  0.5756  0.3388
18177SOL    HW258448   8.773   5.875   6.996 -1.8360 -2.1943 -1.5874
18178SOL     OW58449   6.944   1.223   8.964  0.5598  0.2567 -0.3502
18178SOL    HW158450   6.872   1.163   8.944 -2.6034  3.0457  1.7592
18178SOL    HW258451   6.970   1.257   8.878  0.7520 -2.1105 -1.3342
18179SOL     OW58452   2.718   8.370   2.837  0.5355 -0.1280 -0.0945
18179SOL    HW158453   2.775   8.443   2.814 -0.7282  0.2577 -2.3317
18179SOL    HW258454   2.633   8.411   2.854 -0.0164 -1.0119 -0.6518
18180SOL     OW58455   8.045   2.362   2.594 -0.2238  0.0122  0.3182
18180SOL    HW158456   7.980   2.432   2.601 -2.7672 -2.3915  3.5441
18180SOL    HW258457   8.113   2.386   2.657 -0.5140  0.1088  0.5935
18181SOL     OW58458   7.054   1.678   5.055 -0.1043 -0.6960  0.4202
18181SOL    HW158459   6.987   1.632   5.005  1.1496 -2.7027  0.4740
18181SOL    HW258460   7.136   1.660   5.009  0.7532 -0.4838  1.7926
18182SOL     OW58461   8.013   2.996  10.173  0.2153  0.1835  0.1445
18182SOL    HW158462   8.084   2.988  10.108 -0.5192 -0.4727 -0.6064
18182SOL    HW258463   8.051   3.047  10.244  1.3676  0.0547 -0.3557
18183SOL     OW58464   9.092   5.867   4.835 -0.4351 -0.3652 -0.7301
18183SOL    HW158465   8.998   5.883   4.846 -0.3032  0.5826 -0.8836
18183SOL    HW258466   9.121   5.937   4.776  0.1325 -1.3975 -1.7076
18184SOL     OW58467   7.866   2.814   6.900 -0.2981 -0.5994  0.1204
18184SOL    HW158468   7.801   2.778   6.960 -2.2003 -1.6864 -2.4128
18184SOL    HW258469   7.852   2.767   6.818  2.1222  0.8409 -1.2490
18185SOL     OW58470   1.499   2.637   3.625 -1.0052  0.2778  0.1201
18185SOL    HW158471   1.555   2.662   3.551 -1.1817  2.8281  0.7375
18185SOL    HW258472   1.540   2.557   3.660  0.1563  0.0670 -1.5789
18186SOL     OW58473   4.378   0.695   2.957  0.1207  0.0037 -0.5069
18186SOL    HW158474   4.365   0.667   2.866  0.8185 -0.2861 -0.5191
18186SOL    HW258475   4.350   0.786   2.957  1.7700  0.5661 -1.4410
18187SOL     OW58476   0.271   5.733   2.362 -0.3777  0.0546 -0.1017
18187SOL    HW158477   0.314   5.678   2.296 -0.0323 -0.0961  0.2375
18187SOL    HW258478   0.341   5.753   2.425 -0.7973 -0.1708  0.4471
18188SOL     OW58479   3.049   3.096   8.069 -0.3245  0.3445 -0.0717
18188SOL    HW158480   3.040   3.001   8.075  0.5887  0.2719  0.4204
18188SOL    HW258481   3.142   3.110   8.052 -0.3123  1.1773  0.5896
18189SOL     OW58482   1.955   9.891   9.718 -0.4402  0.1159 -0.1048
18189SOL    HW158483   1.975   9.833   9.791 -0.4520  1.0131  0.6339
18189SOL    HW258484   2.041   9.923   9.688 -0.4457 -0.1181 -0.3731
18190SOL     OW58485   9.170   4.261   1.172 -0.0247  0.3235  0.6643
18190SOL    HW158486   9.144   4.169   1.174  0.9278 -0.0655 -1.7299
18190SOL    HW258487   9.242   4.266   1.235  0.6630 -0.8525  0.0081
18191SOL     OW58488   6.124   1.842   7.685  0.0984  0.7736  0.3884
18191SOL    HW158489   6.180   1.840   7.763 -0.6324  1.5722  0.9646
18191SOL    HW258490   6.100   1.751   7.669 -0.7585  0.7049  1.8788
18192SOL     OW58491   4.009   5.069   3.837  0.3748  0.1865  0.4316
18192SOL    HW158492   4.102   5.064   3.863  0.0100 -0.1446  1.7544
18192SOL    HW258493   3.962   5.033   3.912 -0.8276  0.2304 -0.2848
18193SOL     OW58494   8.654   0.365   2.708  0.6585  0.2662  0.1083
18193SOL    HW158495   8.643   0.459   2.715 -0.9160 -0.0178  2.5305
18193SOL    HW258496   8.675   0.336   2.797  2.8149 -1.5421 -0.8618
18194SOL     OW58497   5.982   5.463   8.201  0.4766  0.1083 -0.2679
18194SOL    HW158498   5.939   5.379   8.184 -1.6429  1.2028 -0.7824
18194SOL    HW258499   5.938   5.497   8.279  0.9878  0.9380 -0.3271
18195SOL     OW58500   2.769   9.360   6.074  0.3515  0.5125  0.1696
18195SOL    HW158501   2.816   9.278   6.094 -0.1147  0.2309  0.1256
18195SOL    HW258502   2.737   9.390   6.159  2.2604  1.7480  0.4987
18196SOL     OW58503   4.384   7.314   1.341 -0.3132 -0.1515 -0.4247
18196SOL    HW158504   4.296   7.280   1.356 -0.5225  0.6259  0.2014
18196SOL    HW258505   4.384   7.342   1.249 -0.6044 -0.4729 -0.5225
18197SOL     OW58506   0.747   4.581   8.064 -0.0286  0.2062 -0.3031
18197SOL    HW158507   0.774   4.624   8.145  0.8924  0.9554 -0.9780
18197SOL    HW258508   0.677   4.636   8.030  0.8132  0.9334 -0.9137
18198SOL     OW58509   0.993   5.858   6.963 -0.0099  0.1753 -0.0720
18198SOL    HW158510   1.074   5.840   7.011  0.2083  1.2380 -0.0115
18198SOL    HW258511   0.988   5.954   6.961 -0.4332  0.1411 -1.4598
18199SOL     OW58512   2.509   4.754   1.513 -0.2581  0.9475 -0.2508
18199SOL    HW158513   2.590   4.730   1.467 -0.8816  0.7330 -1.2567
18199SOL    HW258514   2.513   4.704   1.595  0.6255  0.9321 -0.2905
18200SOL     OW58515   3.765   7.689   9.200  0.4024 -0.7147  0.0130
18200SOL    HW158516   3.811   7.737   9.269 -3.3647  0.9281  1.6214
18200SOL    HW258517   3.752   7.753   9.130  0.8902 -1.3029 -0.6380
18201SOL     OW58518   7.698   4.364   3.084  1.2909  0.2724  0.3018
18201SOL    HW158519   7.662   4.279   3.107  0.4910  1.4182  3.8120
18201SOL    HW258520   7.630   4.405   3.030  1.4106 -1.0074 -0.8698
18202SOL     OW58521   9.309   2.238   1.556  0.2567 -0.2155 -0.1172
18202SOL    HW158522   9.238   2.206   1.501  1.1558 -0.2572 -1.2900
18202SOL    HW258523   9.388   2.226   1.503  1.1845 -0.4484  1.2590
18203SOL     OW58524   6.424   4.583   2.685  0.0533 -0.1754  0.3396
18203SOL    HW158525   6.382   4.512   2.734 -2.1467 -0.4462 -1.7446
18203SOL    HW258526   6.376   4.662   2.712 -0.1923 -0.1082 -0.2829
18204SOL     OW58527   7.579   2.687   1.002  0.1393 -0.0888  0.6855
18204SOL    HW158528   7.625   2.761   0.963  0.8767  0.2176  2.1039
18204SOL    HW258529   7.508   2.725   1.052 -1.3052 -0.5288 -0.9314
18205SOL     OW58530   1.265   0.512   5.655 -0.1841  0.1877  1.0483
18205SOL    HW158531   1.242   0.605   5.651 -1.7990 -0.1116  2.2064
18205SOL    HW258532   1.180   0.467   5.660  0.4902 -1.5041 -1.3956
18206SOL     OW58533   4.678   3.944   3.188  0.4277  0.2842 -0.1771
18206SOL    HW158534   4.757   3.987   3.223 -0.6283  0.6818  1.8833
18206SOL    HW258535   4.606   3.995   3.225 -0.8140 -0.6141 -1.3016
18207SOL     OW58536   8.814   6.792   9.529  0.4291 -0.3751  0.2672
18207SOL    HW158537   8.840   6.706   9.563 -0.6381 -1.1434 -0.8090
18207SOL    HW258538   8.720   6.798   9.546  0.6727  1.0619  1.3052
18208SOL     OW58539   8.765   8.950   4.745  0.4623 -0.3093  0.5141
18208SOL    HW158540   8.832   8.884   4.763 -1.5058 -2.1419  1.6475
18208SOL    HW258541   8.768   9.009   4.820 -0.4926 -1.5917  1.6151
18209SOL     OW58542   0.194   0.478   1.542 -0.4444  0.4229  0.7577
18209SOL    HW158543   0.182   0.383   1.550  1.8071  0.0619  0.5576
18209SOL    HW258544   0.111   0.515   1.571 -0.4679 -1.5248  3.5549
18210SOL     OW58545   0.860  10.154   0.704 -0.2441  0.0195  0.4564
18210SOL    HW158546   0.857  10.119   0.615  0.8937 -3.4875  1.6161
18210SOL    HW258547   0.892  10.243   0.693 -1.0652  0.0453 -2.6960
18211SOL     OW58548   1.110   4.023   3.657 -0.9467 -0.4318  0.2720
18211SOL    HW158549   1.164   3.944   3.659 -0.1309  0.0751 -0.6578
18211SOL    HW258550   1.041   4.003   3.594 -2.3397 -1.3541  2.0103
18212SOL     OW58551   9.846   1.407   2.305  0.2845  0.6785  0.8130
18212SOL    HW158552   9.870   1.328   2.257  0.0628  0.9129  0.3142
18212SOL    HW258553   9.774   1.379   2.362 -1.1006  0.9436 -0.7340
18213SOL     OW58554   2.687   5.698   1.824 -0.3635 -0.1458  0.0285
18213SOL    HW158555   2.685   5.770   1.887 -1.1744  0.8115 -1.0317
18213SOL    HW258556   2.597   5.665   1.823  0.1990 -1.8294  1.1864
18214SOL     OW58557   5.174   6.537   0.439 -0.4826  0.1166 -0.1912
18214SOL    HW158558   5.116   6.548   0.364  0.0056 -2.7157 -1.1003
18214SOL    HW258559   5.115   6.539   0.515 -1.2353  0.9862 -0.7774
18215SOL     OW58560   0.763   4.722   1.744 -0.5301 -0.4036 -0.3276
18215SOL    HW158561   0.856   4.735   1.724 -0.7620 -1.1855 -2.0623
18215SOL    HW258562   0.758   4.631   1.775 -0.4494  0.2500  1.7511
18216SOL     OW58563   9.974   5.861   0.800  0.2109 -0.4166  0.3989
18216SOL    HW158564   9.923   5.940   0.817  1.0506  0.0155  0.9834
18216SOL    HW258565   9.983   5.820   0.886 -1.4088 -1.9100 -0.0996
18217SOL     OW58566   9.623   4.262   0.858 -0.0807  0.0484  0.2662
18217SOL    HW158567   9.716   4.268   0.836 -0.4929  1.4794 -1.3187
18217SOL    HW258568   9.594   4.353   0.862 -1.8908 -0.3802 -1.5516
18218SOL     OW58569   0.480   0.583   2.415  0.2892 -0.2190  0.7782
18218SOL    HW158570   0.521   0.601   2.500 -2.5449 -0.2495  2.2868
18218SOL    HW258571   0.458   0.670   2.381  2.7774 -0.1013 -0.7777
18219SOL     OW58572   3.303   0.369   0.416 -0.1632 -0.2522 -0.2274
18219SOL    HW158573   3.259   0.294   0.377  0.3126 -0.6873  0.0478
18219SOL    HW258574   3.250   0.391   0.493 -1.7103  1.2858 -1.6495
18220SOL     OW58575   6.192   6.566   7.151 -0.1894 -0.0722 -0.0631
18220SOL    HW158576   6.281   6.598   7.165  0.5057 -1.0199 -1.9538
18220SOL    HW258577   6.184   6.557   7.056 -1.3178 -2.6634  0.1726
18221SOL     OW58578   8.027   2.341   1.111  0.0210 -0.8141  0.1425
18221SOL    HW158579   8.086   2.299   1.174  1.4853 -0.1287 -0.7321
18221SOL    HW258580   8.037   2.290   1.031 -1.1873 -1.1584  0.1841
18222SOL     OW58581   4.528   1.395   6.055  0.1664 -0.6832 -0.2437
18222SOL    HW158582   4.547   1.482   6.089  0.7941 -0.4771 -1.1042
18222SOL    HW258583   4.583   1.386   5.978 -1.6937 -0.9087 -1.6058
18223SOL     OW58584   6.796   9.326   8.312 -0.2452  0.4143 -0.4285
18223SOL    HW158585   6.843   9.345   8.231 -1.5342  1.9233 -0.8663
18223SOL    HW258586   6.713   9.373   8.304 -1.2358 -0.9837  0.9415
18224SOL     OW58587   4.176   8.990   7.889  0.6921  0.1150 -0.0966
18224SOL    HW158588   4.228   9.068   7.871 -0.2220  1.0569  1.1605
18224SOL    HW258589   4.119   9.015   7.962  0.4837 -1.7883  0.4487
18225SOL     OW58590   6.125   3.913   1.272  0.5598  0.3359  0.7793
18225SOL    HW158591   6.177   3.843   1.232 -2.2493 -0.8140 -1.1663
18225SOL    HW258592   6.122   3.891   1.365  0.8380 -1.4093  0.4095
18226SOL     OW58593   5.118  10.179   5.516  0.1799 -0.1349 -0.0285
18226SOL    HW158594   5.098  10.114   5.584  2.0111 -0.7168  0.0022
18226SOL    HW258595   5.105  10.264   5.559 -1.0047 -0.4612  0.3040
18227SOL     OW58596   6.461   2.162   5.687  0.1224 -1.0012  0.6008
18227SOL    HW158597   6.474   2.074   5.652  1.3311 -0.4361 -0.4406
18227SOL    HW258598   6.366   2.173   5.689 -0.0357 -1.4774 -1.5374
18228SOL     OW58599   4.174   8.212   2.009  0.8086 -0.4918 -0.3730
18228SOL    HW158600   4.232   8.180   1.940  0.0864 -1.8435 -0.4058
18228SOL    HW258601   4.165   8.137   2.068 -1.0383 -0.4011 -0.4843
18229SOL     OW58602   8.335   7.534   3.786 -0.6672 -0.6099  0.2305
18229SOL    HW158603   8.275   7.469   3.824 -3.4536  1.3746 -0.4666
18229SOL    HW258604   8.285   7.616   3.786  1.7292  0.9741 -1.3559
18230SOL     OW58605   8.344   6.149   7.758 -0.2410  0.4124 -0.0728
18230SOL    HW158606   8.413   6.103   7.805 -1.0972 -0.5652  0.2809
18230SOL    HW258607   8.286   6.079   7.728 -2.1256  1.3122  1.3110
18231SOL     OW58608   7.518   0.577   5.568  0.3009 -0.2239 -0.1758
18231SOL    HW158609   7.444   0.530   5.609  1.5814 -0.6382  1.7962
18231SOL    HW258610   7.537   0.649   5.628  1.8699 -0.4828 -0.3161
18232SOL     OW58611   1.026   3.405   7.380 -0.1407  0.0971 -0.4792
18232SOL    HW158612   1.000   3.458   7.304 -2.1330  0.1349  0.1855
18232SOL    HW258613   1.011   3.314   7.352 -2.0100  0.1578  0.2257
18233SOL     OW58614   4.004   4.725   3.315 -0.6733 -0.2671  0.5797
18233SOL    HW158615   4.058   4.781   3.370 -1.5354  0.4441  0.7111
18233SOL    HW258616   4.057   4.646   3.302  0.9485  0.9252 -0.3711
18234SOL     OW58617  10.102   9.599  10.138 -0.3024  0.1005 -0.3132
18234SOL    HW158618  10.116   9.514  10.096 -1.5944  0.5589 -1.7624
18234SOL    HW258619  10.007   9.608  10.143 -0.1789  1.3494  0.0593
18235SOL     OW58620   5.800   5.593   4.156  0.5278 -0.2777  0.0054
18235SOL    HW158621   5.873   5.598   4.218  0.4902 -1.4778  0.1589
18235SOL    HW258622   5.726   5.561   4.208 -0.2099  1.1631 -0.0864
18236SOL     OW58623   7.204   9.647   7.231 -0.2467 -0.0510 -0.1556
18236SOL    HW158624   7.166   9.703   7.164  3.0992  2.3292 -0.3150
18236SOL    HW258625   7.235   9.707   7.298  1.8413 -1.8321  0.6128
18237SOL     OW58626   1.307   7.753   4.529 -0.1509 -0.5483  0.2625
18237SOL    HW158627   1.272   7.758   4.618 -2.0137 -0.0806 -0.4525
18237SOL    HW258628   1.289   7.839   4.491  0.5758 -0.7590 -0.5774
18238SOL     OW58629   5.740   3.797  10.045  0.3579 -0.4424  0.5937
18238SOL    HW158630   5.731   3.818   9.953 -0.0882 -0.5440  0.6080
18238SOL    HW258631   5.750   3.881  10.089 -2.3313 -0.0959  0.7561
18239SOL     OW58632   5.029   0.369   2.599 -0.0312  0.0979  0.1605
18239SOL    HW158633   5.066   0.312   2.532 -0.1437 -0.0749  0.2468
18239SOL    HW258634   5.083   0.448   2.595  1.2427 -0.6868  1.2520
18240SOL     OW58635   6.835   7.438   2.397 -0.3799 -0.0389  0.0985
18240SOL    HW158636   6.806   7.485   2.475 -1.7942 -0.9092  0.1337
18240SOL    HW258637   6.894   7.499   2.353 -1.2850  1.3131  0.7035
18241SOL     OW58638   6.515   9.904   8.374  0.3505  0.6021 -0.4731
18241SOL    HW158639   6.583   9.870   8.316  0.7680 -0.0806  0.3869
18241SOL    HW258640   6.440   9.919   8.317  0.4132 -1.0163 -1.0229
18242SOL     OW58641   0.473   5.450   8.806 -0.0059 -0.1249  0.3917
18242SOL    HW158642   0.478   5.399   8.886  0.4701 -0.8016 -0.0571
18242SOL    HW258643   0.380   5.461   8.789 -0.1330 -1.5090  0.0911
18243SOL     OW58644   4.792   7.666   4.229 -0.2816  0.5636 -1.3492
18243SOL    HW158645   4.860   7.604   4.204  0.5843  0.8836  0.1434
18243SOL    HW258646   4.739   7.619   4.293 -0.9148  0.6423 -1.8092
18244SOL     OW58647   2.522   4.107   2.824  0.1138 -0.3537 -0.0277
18244SOL    HW158648   2.519   4.163   2.901  0.5577 -2.3566  1.5278
18244SOL    HW258649   2.471   4.154   2.758 -1.8099  0.6163  2.0390
18245SOL     OW58650   9.399   3.498   1.360  0.0971 -0.5836 -0.1277
18245SOL    HW158651   9.383   3.511   1.267 -2.4833 -1.1217  0.1739
18245SOL    HW258652   9.376   3.582   1.400 -0.7395 -0.9629  0.2053
18246SOL     OW58653   9.182   4.897   5.761  0.0142 -0.1034 -0.3576
18246SOL    HW158654   9.095   4.893   5.801  0.2144  0.5215  0.1443
18246SOL    HW258655   9.171   4.853   5.677 -1.1995  1.3909 -1.0338
18247SOL     OW58656   0.211   8.640   4.960  0.2219 -0.5148 -1.0407
18247SOL    HW158657   0.201   8.679   5.047 -0.8087  1.4980 -1.9845
18247SOL    HW258658   0.203   8.546   4.975 -0.7779 -0.1749  0.9378
18248SOL     OW58659   6.269   7.646   9.967  0.5194 -0.7288  0.3195
18248SOL    HW158660   6.218   7.567   9.949 -0.5594 -0.1139  0.5644
18248SOL    HW258661   6.318   7.662   9.886 -0.9447 -0.4219 -0.5503
18249SOL     OW58662   2.873   0.502   8.900  0.0850 -0.2316 -0.2093
18249SOL    HW158663   2.884   0.495   8.805  0.5032  0.4881 -0.2263
18249SOL    HW258664   2.801   0.443   8.920 -0.2272 -0.1493 -1.0248
18250SOL     OW58665   5.059   9.709   1.158 -1.0110 -0.0877  0.0796
18250SOL    HW158666   5.115   9.633   1.170 -0.9196  0.2054  1.8198
18250SOL    HW258667   5.102   9.760   1.090  0.1868 -0.4777  0.5180
18251SOL     OW58668   9.266   6.763   2.393 -0.3222 -0.4975  0.2934
18251SOL    HW158669   9.265   6.836   2.455  0.6798  0.1114 -0.3737
18251SOL    HW258670   9.356   6.762   2.359 -0.2230 -2.2709  0.5488
18252SOL     OW58671   2.900   0.419   3.376  0.1109  0.7723 -0.0834
18252SOL    HW158672   2.973   0.360   3.392 -0.5219  0.3447  1.3973
18252SOL    HW258673   2.923   0.500   3.423 -1.0151  0.0930  1.7563
18253SOL     OW58674   2.733   5.693   3.837 -0.2311 -0.0756 -0.1274
18253SOL    HW158675   2.821   5.672   3.805  0.5887  1.1457  1.1977
18253SOL    HW258676   2.705   5.767   3.783 -0.6264 -0.7115 -0.8098
18254SOL     OW58677   1.061   8.941   5.995  0.4114  0.5961 -0.0328
18254SOL    HW158678   1.019   8.866   6.037 -1.6397 -0.7701 -3.9299
18254SOL    HW258679   0.988   8.993   5.962  1.8031  1.7763 -1.4002
18255SOL     OW58680   1.052   6.262   1.417  0.3773  0.8712 -0.3119
18255SOL    HW158681   1.010   6.338   1.379  1.2494  2.1497  1.1501
18255SOL    HW258682   1.123   6.240   1.356  0.9205  2.0419 -0.1230
18256SOL     OW58683   8.651   4.141   9.105 -0.3033 -0.5596 -0.2386
18256SOL    HW158684   8.739   4.109   9.127 -0.1404 -0.6666 -1.0394
18256SOL    HW258685   8.597   4.113   9.180  0.7787  1.6345  1.4770
18257SOL     OW58686   8.320   6.141   6.245 -0.3351  0.3467  0.1848
18257SOL    HW158687   8.229   6.113   6.231  0.1593 -1.9676  1.1960
18257SOL    HW258688   8.371   6.060   6.239  1.8005  1.6980 -1.1165
18258SOL     OW58689   1.287   3.440   3.392 -0.6037 -0.2817 -0.4138
18258SOL    HW158690   1.227   3.510   3.364 -1.5353 -0.9593 -0.1709
18258SOL    HW258691   1.249   3.407   3.473 -0.4359 -1.3734 -0.7603
18259SOL     OW58692   2.037   8.841   9.209  0.2520  0.0973  0.3453
18259SOL    HW158693   2.106   8.802   9.155 -0.0385 -0.8147  0.6201
18259SOL    HW258694   2.011   8.920   9.162 -0.5315 -1.0680 -1.2765
18260SOL     OW58695   1.448   6.639   5.167 -0.2175 -0.3643  0.0883
18260SOL    HW158696   1.479   6.616   5.255  1.4377  0.3173 -0.2968
18260SOL    HW258697   1.373   6.696   5.183  1.2088  1.3098  1.1079
18261SOL     OW58698   4.113   7.825   8.321 -0.3531  0.8412  0.1651
18261SOL    HW158699   4.071   7.805   8.238 -0.4235  1.5361  0.0264
18261SOL    HW258700   4.076   7.762   8.383 -0.1204  0.1577 -0.3726
18262SOL     OW58701   3.693   2.147   6.458  0.6323  1.2768 -0.1738
18262SOL    HW158702   3.715   2.181   6.371 -0.3817  1.5063 -0.3482
18262SOL    HW258703   3.697   2.052   6.448  2.4120  1.2850  0.0430
18263SOL     OW58704  10.091   1.647   5.541 -0.5980 -0.6882  0.0684
18263SOL    HW158705  10.167   1.661   5.598 -1.6249 -1.1958  1.6326
18263SOL    HW258706  10.107   1.563   5.499  0.6578  0.1617 -1.2690
18264SOL     OW58707   5.334   8.800   5.251 -0.0867  0.8056  0.7316
18264SOL    HW158708   5.291   8.882   5.276  0.1248  0.5756  1.8932
18264SOL    HW258709   5.356   8.757   5.334 -0.7689 -0.7384  0.1564
18265SOL     OW58710   3.745   6.350   7.305  0.1451  0.4247 -0.0779
18265SOL    HW158711   3.774   6.409   7.375  0.2853  0.0691  0.1671
18265SOL    HW258712   3.763   6.262   7.339 -1.9967  0.1311  0.4715
18266SOL     OW58713   8.440   8.290   9.653  0.4604  0.2331  0.0022
18266SOL    HW158714   8.486   8.339   9.722 -0.3632 -0.8989  1.4208
18266SOL    HW258715   8.498   8.216   9.634  0.3799  0.1814 -0.0390
18267SOL     OW58716   2.156   5.743   5.085 -0.0288 -0.4576  0.1585
18267SOL    HW158717   2.234   5.798   5.092 -0.5615  0.3687 -0.2633
18267SOL    HW258718   2.173   5.670   5.144 -0.0907  1.1285  2.2745
18268SOL     OW58719   5.890   8.382   5.640 -0.0436  0.4957 -0.1413
18268SOL    HW158720   5.985   8.376   5.649  0.0635  1.4275 -0.5339
18268SOL    HW258721   5.874   8.392   5.546 -0.3606  2.4436  0.0695
18269SOL     OW58722   4.261   4.986   3.927  0.0273 -0.2007 -0.1509
18269SOL    HW158723   4.326   4.918   3.943 -0.4208 -0.4610  0.6162
18269SOL    HW258724   4.291   5.061   3.978 -0.4941 -0.4658  0.5616
18270SOL     OW58725   4.464   2.535   3.656 -0.1110 -0.4023 -0.0063
18270SOL    HW158726   4.436   2.445   3.675  1.7199 -1.0242 -0.0326
18270SOL    HW258727   4.493   2.569   3.741 -1.5623  0.4941  0.1664
18271SOL     OW58728   6.217   8.334   6.533  0.0859  0.9828 -0.1778
18271SOL    HW158729   6.242   8.259   6.480 -1.3098 -1.5417  2.4575
18271SOL    HW258730   6.275   8.331   6.610 -0.4362  2.2055  0.3044
18272SOL     OW58731   0.337   2.999   1.699 -0.1727  0.3166 -0.2779
18272SOL    HW158732   0.381   2.928   1.745 -0.7720  0.3542  0.3703
18272SOL    HW258733   0.266   3.025   1.758 -1.2157  0.0918 -1.3980
18273SOL     OW58734   8.240   8.452   8.010 -0.2860 -0.1687 -0.4685
18273SOL    HW158735   8.182   8.415   7.944 -1.2042  0.3624  0.0196
18273SOL    HW258736   8.190   8.523   8.049  0.7029  0.3115 -0.0328
18274SOL     OW58737   6.862   0.888   7.045  0.2849  0.6905  0.1392
18274SOL    HW158738   6.794   0.862   6.982  0.8223  0.4597 -0.3534
18274SOL    HW258739   6.828   0.858   7.130  1.5053 -3.1376 -0.5162
18275SOL     OW58740   3.191   6.775   3.514 -0.2091 -0.3001  0.2857
18275SOL    HW158741   3.168   6.855   3.560  0.2800 -0.0492  0.1101
18275SOL    HW258742   3.285   6.764   3.532  0.3673  0.6022 -1.7949
18276SOL     OW58743   3.420   0.825   5.239  0.2461 -0.4240 -0.0179
18276SOL    HW158744   3.448   0.746   5.284 -0.5777 -1.3056 -1.0065
18276SOL    HW258745   3.484   0.837   5.169 -2.1415 -3.0395 -2.9564
18277SOL     OW58746   6.510   6.431   3.201 -0.3840  0.5737  0.7302
18277SOL    HW158747   6.591   6.478   3.180  0.2921 -0.7065  0.3569
18277SOL    HW258748   6.507   6.431   3.297 -0.1503  0.9564  0.7418
18278SOL     OW58749   2.437   7.062   1.546  0.2521 -0.0487  0.3144
18278SOL    HW158750   2.344   7.078   1.531  0.1834 -1.2312 -0.6691
18278SOL    HW258751   2.460   7.121   1.617 -1.7153 -1.1045  1.9391
18279SOL     OW58752   7.959   6.501   3.674 -0.9842 -0.3552 -0.5114
18279SOL    HW158753   7.883   6.557   3.661 -0.4582 -0.0143 -2.2755
18279SOL    HW258754   7.987   6.476   3.586 -0.0716 -1.8661  0.1633
18280SOL     OW58755   6.482   5.927   2.347  0.6828 -0.1537  0.3670
18280SOL    HW158756   6.450   5.980   2.420  1.5332  0.9732 -0.0508
18280SOL    HW258757   6.571   5.959   2.332  0.1346  0.4464 -1.9091
18281SOL     OW58758   3.198   0.224   1.990  0.3332  0.0820 -0.4007
18281SOL    HW158759   3.200   0.316   1.962  2.3055  0.8394  1.8695
18281SOL    HW258760   3.210   0.174   1.909  0.9330  1.8798 -1.4790
18282SOL     OW58761   0.657   2.511   5.035  0.0600 -0.4103 -0.0100
18282SOL    HW158762   0.625   2.601   5.022  0.5516 -0.2164  0.0856
18282SOL    HW258763   0.632   2.465   4.955  0.9428  0.1595 -0.6442
18283SOL     OW58764   5.311   3.371   6.198 -0.2540  1.0170 -0.4377
18283SOL    HW158765   5.363   3.330   6.267  0.4997  0.8216 -1.1100
18283SOL    HW258766   5.321   3.313   6.123  0.9494  2.4726 -1.4550
18284SOL     OW58767   3.973   7.238   6.289  0.1171 -0.3179  0.3311
18284SOL    HW158768   4.038   7.209   6.225 -1.1037 -0.1207 -1.0555
18284SOL    HW258769   3.925   7.158   6.311 -0.4974 -0.1159 -0.2430
18285SOL     OW58770   5.606   3.891   2.159  0.1194 -0.0154  0.3938
18285SOL    HW158771   5.673   3.823   2.162  0.0483 -0.1115 -0.1594
18285SOL    HW258772   5.524   3.843   2.149  0.0253  0.1333  0.4475
18286SOL     OW58773   7.020   5.512   4.104  0.2171  0.7928  0.2602
18286SOL    HW158774   7.044   5.483   4.016 -0.4129  0.7253  0.1047
18286SOL    HW258775   7.075   5.459   4.162 -0.8944 -0.7258 -0.0181
18287SOL     OW58776   3.248   2.139   4.278 -0.4594 -0.2379 -0.1337
18287SOL    HW158777   3.232   2.232   4.263  0.9618 -0.1644 -1.4938
18287SOL    HW258778   3.163   2.098   4.267 -1.0220  0.8453  0.0433
18288SOL     OW58779   3.325   4.296   3.769  0.3312 -0.2020  0.5761
18288SOL    HW158780   3.240   4.258   3.789  0.1881  0.2381  0.8121
18288SOL    HW258781   3.319   4.323   3.678  0.8698 -1.9011  0.0006
18289SOL     OW58782   7.171   7.759   1.500  0.0600  0.2368 -0.6661
18289SOL    HW158783   7.187   7.747   1.594  0.8817 -1.3444 -0.9692
18289SOL    HW258784   7.210   7.844   1.480  0.6717  0.1968  0.2622
18290SOL     OW58785   0.841   0.772   1.865 -0.4987  0.7628 -0.4932
18290SOL    HW158786   0.787   0.788   1.942 -1.3337  0.0465 -0.9206
18290SOL    HW258787   0.854   0.859   1.826 -1.8770  0.8793 -0.7331
18291SOL     OW58788   9.511  10.063   3.603 -0.0607 -0.2566  0.6196
18291SOL    HW158789   9.496   9.974   3.635 -0.9941 -0.9417 -1.5537
18291SOL    HW258790   9.511  10.055   3.507  1.2113  1.8807  0.3620
18292SOL     OW58791   7.564   4.436   3.654  0.1696 -0.7531  0.4140
18292SOL    HW158792   7.647   4.393   3.673  0.3975 -0.5413 -0.0938
18292SOL    HW258793   7.580   4.529   3.674  0.7077 -0.3521 -1.6087
18293SOL     OW58794   9.631   2.283  10.043  0.4024  0.3265 -0.3358
18293SOL    HW158795   9.574   2.214  10.008  0.8537  0.4207 -1.2931
18293SOL    HW258796   9.718   2.243  10.043  0.4066  0.3244  0.7268
18294SOL     OW58797   4.779   2.253   1.630 -0.3793 -0.1889 -0.0770
18294SOL    HW158798   4.820   2.323   1.579  0.0831 -0.2368  0.2234
18294SOL    HW258799   4.782   2.176   1.573  0.2342 -0.2693  0.0632
18295SOL     OW58800   6.006   0.743   8.159 -0.6380 -0.1495  0.3286
18295SOL    HW158801   6.045   0.750   8.072 -1.0165 -0.2626  0.1465
18295SOL    HW258802   5.966   0.656   8.161  1.1249 -0.9705  1.3613
18296SOL     OW58803   6.458   2.933   6.797  0.1905  0.2302 -0.7718
18296SOL    HW158804   6.474   2.980   6.879 -0.6641 -0.5442 -0.1420
18296SOL    HW258805   6.489   2.993   6.728  0.8787  0.9037  0.1040
18297SOL     OW58806   3.795   2.092   8.457 -0.0504 -0.0581  0.1951
18297SOL    HW158807   3.773   2.032   8.528 -0.3499  0.5573  0.6371
18297SOL    HW258808   3.867   2.145   8.493 -1.3675  1.4364  0.7208
18298SOL     OW58809   8.718   7.124   4.073  0.0776 -0.1536  0.2314
18298SOL    HW158810   8.754   7.077   4.148  0.2452 -0.0613  0.2092
18298SOL    HW258811   8.623   7.121   4.085  0.0689 -0.8796 -0.0012
18299SOL     OW58812   9.717   3.044   3.545 -0.4733 -0.5536  0.1707
18299SOL    HW158813   9.679   2.968   3.502 -0.5631 -1.5933  1.9683
18299SOL    HW258814   9.718   3.112   3.478 -1.6228 -1.7370 -1.1077
18300SOL     OW58815   9.133   6.836   0.908  0.2919  0.0951 -0.1775
18300SOL    HW158816   9.069   6.894   0.868  0.4686  0.2266 -0.2673
18300SOL    HW258817   9.146   6.872   0.996  1.0692  0.7262 -0.5310
18301SOL     OW58818   0.262  10.161   7.426 -0.3715  0.1118  0.4224
18301SOL    HW158819   0.288  10.252   7.435  0.9863 -0.1403 -0.7341
18301SOL    HW258820   0.302  10.117   7.502  1.1236  0.0533 -0.3697
18302SOL     OW58821  10.204   5.819   4.403 -0.6328 -0.2219 -0.4995
18302SOL    HW158822  10.230   5.760   4.332  0.8964 -0.0197 -0.1361
18302SOL    HW258823  10.213   5.767   4.483  1.7042  0.7372 -0.0750
18303SOL     OW58824   1.798   5.213   3.451 -0.4160  0.3024  0.1375
18303SOL    HW158825   1.798   5.118   3.444 -0.4882  0.3241 -0.1614
18303SOL    HW258826   1.781   5.230   3.544 -0.0330  0.0196  0.2627
18304SOL     OW58827   4.400   0.324   1.732  0.1559  0.3983 -0.1197
18304SOL    HW158828   4.426   0.265   1.802 -1.4280 -2.4891 -1.7601
18304SOL    HW258829   4.306   0.337   1.745 -0.5906 -1.6802 -2.5375
18305SOL     OW58830   0.424   3.908   2.983  0.4236  0.1007 -0.3008
18305SOL    HW158831   0.431   3.970   3.056 -0.1007  0.4363 -0.5325
18305SOL    HW258832   0.441   3.822   3.023 -0.5870  0.1984  0.3634
18306SOL     OW58833   5.017   2.782   3.974 -0.5263 -0.0801  0.0982
18306SOL    HW158834   4.995   2.702   4.023  1.0371 -0.7408 -0.1899
18306SOL    HW258835   5.063   2.750   3.897 -1.2469  1.0491 -0.8258
18307SOL     OW58836   8.771   4.274   3.939  0.3009  0.2516 -0.3079
18307SOL    HW158837   8.685   4.312   3.953  0.8851  1.3763  0.2995
18307SOL    HW258838   8.824   4.345   3.903  0.9262 -0.4833 -0.8810
18308SOL     OW58839   7.196   6.489   4.472  0.1579  0.6880  0.0559
18308SOL    HW158840   7.112   6.444   4.471 -0.6508  2.1461  0.3661
18308SOL    HW258841   7.248   6.444   4.405  0.0366 -1.8560  1.5805
18309SOL     OW58842   3.859   5.121   3.012 -0.0797 -0.4596 -0.2015
18309SOL    HW158843   3.892   5.032   3.008  1.0821 -0.0397 -0.4605
18309SOL    HW258844   3.910   5.169   2.946 -1.3644  0.1881 -0.7687
18310SOL     OW58845   1.927   1.157   4.247  0.2334  0.1039  0.4706
18310SOL    HW158846   1.929   1.198   4.160  1.9520  1.5948  1.1487
18310SOL    HW258847   1.977   1.076   4.237 -0.8123 -0.4900 -0.2272
18311SOL     OW58848   4.368   2.582   6.372 -0.7049  0.1687 -0.1953
18311SOL    HW158849   4.453   2.598   6.414  0.2719 -0.2541 -1.9220
18311SOL    HW258850   4.304   2.593   6.443  0.8624 -0.9036  1.4827
18312SOL     OW58851   4.939   1.096   2.026 -0.4667 -0.0638  0.1330
18312SOL    HW158852   5.011   1.136   1.978 -0.8633  0.8879  0.3171
18312SOL    HW258853   4.965   1.004   2.036 -0.6056 -0.4538 -2.3672
18313SOL     OW58854   2.577   2.979   1.128 -0.0268 -0.5734 -0.1156
18313SOL    HW158855   2.603   3.005   1.040 -1.0393 -0.5955 -0.4280
18313SOL    HW258856   2.486   3.005   1.135 -0.7268 -2.8371  0.0144
18314SOL     OW58857   9.646   8.393   2.746 -0.1135 -0.1063 -0.4006
18314SOL    HW158858   9.697   8.474   2.738  1.2729 -1.1211 -2.6961
18314SOL    HW258859   9.565   8.411   2.698 -0.2992  0.2557  0.0356
18315SOL     OW58860  10.193   8.176   5.834  0.3494  0.3037  0.7155
18315SOL    HW158861  10.258   8.239   5.801  0.7552  0.1655  1.2366
18315SOL    HW258862  10.246   8.102   5.865 -0.1534 -0.6136 -0.5443
18316SOL     OW58863   1.041   0.834   8.974  0.4536 -0.4831 -0.1349
18316SOL    HW158864   0.951   0.805   8.961  0.1459  0.2582  0.2673
18316SOL    HW258865   1.043   0.863   9.066  0.2186  2.4864 -0.9703
18317SOL     OW58866   1.752   7.048   1.789 -0.0248 -0.3729 -0.2762
18317SOL    HW158867   1.782   7.031   1.700 -0.4755  0.3461 -0.5745
18317SOL    HW258868   1.660   7.024   1.788 -0.2126  0.3211 -0.2095
18318SOL     OW58869   6.047   3.571   4.985  0.2619 -0.2687  0.3993
18318SOL    HW158870   6.065   3.657   4.947 -1.1648 -1.0554 -2.2440
18318SOL    HW258871   5.963   3.583   5.030  0.9518  0.1331  1.6353
18319SOL     OW58872   8.172   3.808   1.402 -0.3312  0.1680 -0.1967
18319SOL    HW158873   8.140   3.785   1.489  3.0660 -0.5651  1.0245
18319SOL    HW258874   8.256   3.851   1.418  0.4539 -0.0636 -3.1366
18320SOL     OW58875   9.533   4.227   1.877 -0.3677  0.0072 -0.0548
18320SOL    HW158876   9.606   4.187   1.829  0.6116  1.1672  0.4071
18320SOL    HW258877   9.494   4.154   1.925  2.0797 -0.3004  1.6812
18321SOL     OW58878   8.332   5.478   6.859  0.5167  0.4439 -0.4819
18321SOL    HW158879   8.267   5.509   6.922  0.8194 -0.3779  0.2371
18321SOL    HW258880   8.371   5.559   6.824  0.9791  0.9243  1.0398
18322SOL     OW58881   9.552   4.638   6.508  0.1218 -0.5026  0.5038
18322SOL    HW158882   9.566   4.610   6.418 -0.4243  0.3733  0.1316
18322SOL    HW258883   9.609   4.714   6.520  0.0607 -0.5057  0.8404
18323SOL     OW58884   0.598   4.098   5.121  0.5661  0.2061  0.9103
18323SOL    HW158885   0.511   4.077   5.087  0.2309  0.6229  1.4948
18323SOL    HW258886   0.646   4.015   5.117 -0.3703 -0.4415  2.1174
18324SOL     OW58887   9.764   2.226   6.961 -0.0606  0.6050  0.2881
18324SOL    HW158888   9.859   2.221   6.961 -0.0478  0.8070 -0.4816
18324SOL    HW258889   9.741   2.250   7.051  0.5557 -0.4743  0.7469
18325SOL     OW58890   9.911   7.068   7.086 -0.5810  0.0240 -0.3556
18325SOL    HW158891   9.940   7.148   7.129 -3.3038  0.6071  0.6242
18325SOL    HW258892   9.863   7.098   7.009  0.0141 -0.7798 -1.0527
18326SOL     OW58893   0.217   5.223   3.259  0.0519  0.2503  0.0059
18326SOL    HW158894   0.187   5.313   3.246 -0.2957  0.0688 -0.4864
18326SOL    HW258895   0.294   5.216   3.202 -0.2501  0.0721 -0.3840
18327SOL     OW58896   7.044   1.042   3.632  0.4490  0.0265 -0.0181
18327SOL    HW158897   6.982   1.109   3.604 -0.7105 -1.7051 -1.8224
18327SOL    HW258898   6.990   0.966   3.654  1.7641 -0.5984  1.3015
18328SOL     OW58899   5.565   7.816   0.572 -0.4136  0.9290 -0.1140
18328SOL    HW158900   5.512   7.865   0.634 -0.5994 -0.4101  0.8406
18328SOL    HW258901   5.586   7.734   0.618  2.8812  1.5473 -0.2196
18329SOL     OW58902   5.884   9.358   7.722  0.3326  0.1080  0.3946
18329SOL    HW158903   5.952   9.293   7.709  2.4115  2.2717 -0.2600
18329SOL    HW258904   5.889   9.414   7.644 -3.3463 -0.5099 -0.5081
18330SOL     OW58905   5.544   1.815   1.245 -0.0037  0.2580 -0.2663
18330SOL    HW158906   5.501   1.897   1.267 -0.3233 -0.5778  2.5679
18330SOL    HW258907   5.633   1.839   1.223  0.0453  1.3339  1.0287
18331SOL     OW58908   4.547  10.050   9.229 -0.1838  0.0620 -0.0586
18331SOL    HW158909   4.635  10.045   9.267  1.2042 -2.2002 -3.1359
18331SOL    HW258910   4.545  10.135   9.184 -1.1118  1.8337  3.0615
18332SOL     OW58911   0.650   3.873   9.602  0.1449  0.1257 -1.0528
18332SOL    HW158912   0.640   3.968   9.599  0.0658  0.1080 -1.2948
18332SOL    HW258913   0.581   3.844   9.662  0.8146  0.3162 -0.1536
18333SOL     OW58914   8.136   7.501   0.421 -1.1025 -0.2033  0.1205
18333SOL    HW158915   8.065   7.511   0.358 -0.6836 -1.2697 -0.5521
18333SOL    HW258916   8.094   7.464   0.498 -1.4143 -0.0408  0.0328
18334SOL     OW58917   4.170   9.671   4.615 -0.4626 -0.1604  0.1202
18334SOL    HW158918   4.191   9.600   4.554 -1.8059  0.2926 -0.9376
18334SOL    HW258919   4.166   9.750   4.560  0.1944  0.6105  1.1354
18335SOL     OW58920   6.433   8.899   8.389 -0.1495  0.0196  0.2268
18335SOL    HW158921   6.494   8.959   8.431  0.0804 -1.3146  1.9376
18335SOL    HW258922   6.372   8.955   8.342  0.1422  1.5649  1.6012
18336SOL     OW58923   9.109   2.200   1.360  0.3351 -0.1408 -0.1987
18336SOL    HW158924   9.109   2.279   1.306  1.1599  0.2662  0.3664
18336SOL    HW258925   9.036   2.211   1.420  2.3512  1.8026  2.0916
18337SOL     OW58926   4.802   7.382   0.542  0.0270 -0.0373 -0.6179
18337SOL    HW158927   4.834   7.473   0.542  0.9827 -0.1737  3.2296
18337SOL    HW258928   4.881   7.329   0.556 -0.9930 -0.8388  3.3693
18338SOL     OW58929   0.641   6.236   8.854 -0.1344  0.0648 -0.1392
18338SOL    HW158930   0.674   6.161   8.805  1.4355  0.8139 -0.3084
18338SOL    HW258931   0.678   6.312   8.809 -1.7005  0.9515  0.0202
18339SOL     OW58932   8.242   4.976   4.601 -0.0966 -0.0879 -0.5195
18339SOL    HW158933   8.233   4.919   4.525  1.1146 -0.5944 -0.3111
18339SOL    HW258934   8.298   5.048   4.571 -1.4552  0.9398 -0.7258
18340SOL     OW58935   4.043   1.417   3.587 -0.1177  0.3172 -0.2892
18340SOL    HW158936   4.010   1.492   3.636  1.8738  0.9506  0.1486
18340SOL    HW258937   3.964   1.373   3.556 -1.3510  2.1621  0.0609
18341SOL     OW58938   2.101   6.153   8.338 -0.1984 -0.7305  0.4405
18341SOL    HW158939   2.034   6.221   8.328  0.0018 -0.4145  1.1611
18341SOL    HW258940   2.181   6.202   8.358 -0.2083 -1.2114  1.7023
18342SOL     OW58941   3.649  10.129   9.501 -0.0431  0.5449  0.3916
18342SOL    HW158942   3.564  10.090   9.477  0.1839  0.3527 -0.1180
18342SOL    HW258943   3.652  10.211   9.452  0.7092 -0.1623 -0.7985
18343SOL     OW58944   4.336   8.263   5.772  0.0843  0.3988  0.1673
18343SOL    HW158945   4.321   8.254   5.678 -0.7482 -1.3166  0.4147
18343SOL    HW258946   4.249   8.258   5.811  0.4231  1.0403  1.0414
18344SOL     OW58947   6.644   4.257   5.377 -0.1808  0.1123  0.0879
18344SOL    HW158948   6.612   4.317   5.310 -1.1736  0.3910  0.7912
18344SOL    HW258949   6.571   4.199   5.395  1.0497 -1.9675 -1.2364
18345SOL     OW58950   4.058   5.844   5.928  0.0159 -0.0648 -0.0098
18345SOL    HW158951   4.105   5.822   6.009 -1.5658  1.5798  1.4318
18345SOL    HW258952   3.991   5.776   5.921 -1.3700  1.0929  1.4298
18346SOL     OW58953   7.465   0.406   2.785 -0.3688 -0.3721 -0.3778
18346SOL    HW158954   7.480   0.321   2.826 -1.3696 -1.4667 -2.1273
18346SOL    HW258955   7.525   0.407   2.710 -0.5039  0.3817 -0.4808
18347SOL     OW58956   4.894   9.019   6.150  0.1526  0.3864 -0.2383
18347SOL    HW158957   4.868   8.937   6.108 -1.2730  0.4962  0.3583
18347SOL    HW258958   4.964   9.054   6.095 -1.5074  0.4310 -2.4593
18348SOL     OW58959   2.904   6.955   5.125  0.2975 -0.1453 -0.1391
18348SOL    HW158960   2.945   6.911   5.050  1.9254  1.4897 -0.2997
18348SOL    HW258961   2.851   7.025   5.086  0.1543 -0.0633  0.1963
18349SOL     OW58962   0.876   1.836   2.489  0.6277  0.0076 -0.0232
18349SOL    HW158963   0.817   1.880   2.549 -0.5078  0.9418 -1.7485
18349SOL    HW258964   0.906   1.758   2.536 -0.2301  0.6908  1.6991
18350SOL     OW58965   1.690   6.280   6.792 -0.1500 -0.2144 -0.2022
18350SOL    HW158966   1.611   6.231   6.816 -0.4388  0.0412 -0.6151
18350SOL    HW258967   1.759   6.241   6.845 -0.1387 -1.8708 -1.3732
18351SOL     OW58968   1.939   5.155   5.593 -0.2127 -0.2215  0.4329
18351SOL    HW158969   1.901   5.077   5.551  1.3740  0.1486 -1.8874
18351SOL    HW258970   1.876   5.225   5.575 -0.2772 -0.3887 -0.0197
18352SOL     OW58971   3.803   4.873   2.249 -0.0233 -0.1979  0.3539
18352SOL    HW158972   3.733   4.854   2.311 -0.8039 -3.0882 -1.2721
18352SOL    HW258973   3.876   4.819   2.278  1.0472  1.5510  1.0686
18353SOL     OW58974   3.652   1.691   2.445 -0.1046  0.3347 -0.6818
18353SOL    HW158975   3.569   1.718   2.486 -0.0910 -1.1200  0.3872
18353SOL    HW258976   3.704   1.656   2.517  1.1079  0.4216 -1.4865
18354SOL     OW58977   1.603   9.002   3.740 -0.5220  0.1211 -0.7113
18354SOL    HW158978   1.589   8.930   3.679  1.6588 -0.3569 -0.7389
18354SOL    HW258979   1.611   9.080   3.685 -0.6054  0.0105 -0.8795
18355SOL     OW58980   8.851   9.424   5.723  0.3520  0.2760  0.1552
18355SOL    HW158981   8.909   9.468   5.785  1.0272 -0.6715  0.2170
18355SOL    HW258982   8.810   9.495   5.674  0.6764  0.9986  0.9072
18356SOL     OW58983   8.168   5.842   6.353  0.3479 -0.4908  0.1880
18356SOL    HW158984   8.151   5.826   6.260  0.5755 -2.0295  0.3770
18356SOL    HW258985   8.248   5.893   6.355 -0.7972  1.4220 -0.5102
18357SOL     OW58986   7.490   6.228   3.465  0.5395 -0.4333  0.0411
18357SOL    HW158987   7.556   6.257   3.527 -1.2333 -1.5138  2.6346
18357SOL    HW258988   7.416   6.287   3.480 -1.2755 -2.9409  1.8068
18358SOL     OW58989   1.869   4.147   5.692 -0.5306  0.0600 -0.5509
18358SOL    HW158990   1.923   4.225   5.678  0.7336 -0.3611  1.5777
18358SOL    HW258991   1.856   4.111   5.604  0.8040  1.3927 -1.3411
18359SOL     OW58992   5.049   4.662   8.841 -0.0212 -0.0143  0.1656
18359SOL    HW158993   5.119   4.719   8.873 -3.7724  5.1227  0.4524
18359SOL    HW258994   5.050   4.675   8.746 -0.7171  0.4106  0.2066
18360SOL     OW58995   1.191   5.872   2.596 -0.4167 -0.1179  0.1972
18360SOL    HW158996   1.174   5.787   2.555 -0.0254 -0.9316  1.6533
18360SOL    HW258997   1.108   5.897   2.635 -0.3680 -0.1603  0.3306
18361SOL     OW58998   2.723   9.442   2.313 -0.7031 -0.0291  0.6928
18361SOL    HW158999   2.792   9.505   2.292 -1.3494  0.4155 -0.1293
18361SOL    HW259000   2.768   9.375   2.365  0.6672 -0.4818 -0.9544
18362SOL     OW59001   3.161   9.733   9.397 -0.1857 -0.0290 -0.0080
18362SOL    HW159002   3.196   9.650   9.365  0.5336  0.9515 -1.9217
18362SOL    HW259003   3.069   9.714   9.416 -0.0020 -1.2956 -0.2678
18363SOL     OW59004   4.243   2.864   9.009 -0.2322 -0.1035 -0.2221
18363SOL    HW159005   4.228   2.770   9.003  1.6670 -0.4025 -0.8227
18363SOL    HW259006   4.208   2.899   8.927 -0.0242 -0.4384 -0.4584
18364SOL     OW59007   9.855   2.699   5.282  0.6100  0.0059 -0.1388
18364SOL    HW159008   9.854   2.619   5.334  0.8517 -0.1886 -0.4334
18364SOL    HW259009   9.803   2.678   5.204  0.5716  0.1749 -0.1597
18365SOL     OW59010   9.358   1.396   2.286  0.0159 -0.3116 -0.0131
18365SOL    HW159011   9.374   1.329   2.219 -0.7326  0.0496 -0.5765
18365SOL    HW259012   9.361   1.349   2.369  0.6477 -0.8293 -0.3276
18366SOL     OW59013   1.254   8.395   5.741  0.0047  0.1690  0.1922
18366SOL    HW159014   1.166   8.420   5.768  0.1869  1.2378 -0.1361
18366SOL    HW259015   1.301   8.377   5.822 -0.3183  0.2894  0.4056
18367SOL     OW59016   4.964   2.179   6.828  0.4698 -0.0570  0.8899
18367SOL    HW159017   4.969   2.199   6.734  2.0790 -0.8642  0.7613
18367SOL    HW259018   4.926   2.257   6.867 -2.9164 -0.7394 -0.7126
18368SOL     OW59019   8.634   2.803   0.738  0.5797 -0.5866  0.4452
18368SOL    HW159020   8.640   2.707   0.734  1.0379 -0.5576  0.3870
18368SOL    HW259021   8.719   2.833   0.706  0.4098 -0.1579  0.3980
18369SOL     OW59022   5.300   6.087   8.774 -0.5435  0.0774 -0.0467
18369SOL    HW159023   5.365   6.039   8.825 -2.5367 -1.1022  1.5054
18369SOL    HW259024   5.312   6.055   8.684  3.1518  2.3296 -0.5731
18370SOL     OW59025   7.999   1.366   1.682  0.7167 -0.0641 -0.4083
18370SOL    HW159026   8.033   1.453   1.703 -0.9590  0.2353  1.3796
18370SOL    HW259027   7.984   1.326   1.767 -1.9607 -0.6880 -1.0849
18371SOL     OW59028   8.842   7.803   5.346  0.4011 -0.8804 -0.6383
18371SOL    HW159029   8.863   7.894   5.329 -0.3166 -0.1180  2.0030
18371SOL    HW259030   8.927   7.760   5.354  0.8418  0.1324  0.5333
18372SOL     OW59031   7.176   0.402   6.301  0.2628 -0.0978  0.2165
18372SOL    HW159032   7.221   0.468   6.247 -1.6054  1.0673 -0.0215
18372SOL    HW259033   7.179   0.438   6.390  1.8197 -1.1813  0.6469
18373SOL     OW59034   0.871   3.547   3.773 -0.3869 -0.2968  0.4795
18373SOL    HW159035   0.919   3.469   3.799 -2.0831 -1.6084 -0.1399
18373SOL    HW259036   0.785   3.515   3.744 -0.9028  1.7194 -0.4557
18374SOL     OW59037   2.097   6.942   8.931 -0.4673 -0.2523 -0.0786
18374SOL    HW159038   2.150   6.863   8.937 -0.4603 -0.2517 -0.1332
18374SOL    HW259039   2.107   6.984   9.017  1.7594  1.1039 -0.8870
18375SOL     OW59040   2.827   7.072   8.402 -0.0274  0.3648  0.0184
18375SOL    HW159041   2.832   7.165   8.424 -0.9063  0.7472 -1.2763
18375SOL    HW259042   2.744   7.063   8.355  0.2963 -0.9812 -0.3436
18376SOL     OW59043   5.653   4.260   2.724  0.0026  0.2187 -0.2977
18376SOL    HW159044   5.592   4.321   2.682 -1.5428 -0.7452  0.4622
18376SOL    HW259045   5.634   4.269   2.818  0.4252 -0.7407 -0.1125
18377SOL     OW59046   1.073   4.433   3.261  0.0291 -0.1414  0.3158
18377SOL    HW159047   1.066   4.525   3.236  0.5294  0.1785  1.3002
18377SOL    HW259048   1.166   4.412   3.249  0.0243 -0.3489  0.6449
18378SOL     OW59049   1.862   7.451   0.627 -0.1452  0.0362  0.6312
18378SOL    HW159050   1.902   7.390   0.564  2.0431  1.7550  0.2397
18378SOL    HW259051   1.797   7.499   0.575  0.6680  0.4827 -0.0044
18379SOL     OW59052   5.008   9.393   0.077  0.0556 -0.3508 -0.2585
18379SOL    HW159053   5.043   9.306   0.094  1.8714  0.1868 -0.9921
18379SOL    HW259054   5.020   9.440   0.160 -1.1027 -0.8178  0.1979
18380SOL     OW59055   5.357   0.020   8.120 -0.6286  0.0726  0.5693
18380SOL    HW159056   5.430   0.076   8.147  0.7527 -1.6676  0.6792
18380SOL    HW259057   5.296   0.022   8.194 -1.1732  2.2422  0.1258
18381SOL     OW59058   1.052   6.669   9.484  0.0460 -0.2724 -0.0207
18381SOL    HW159059   1.111   6.733   9.447  1.5498 -0.9093  1.1472
18381SOL    HW259060   1.091   6.647   9.569 -1.1660 -1.6907  0.2124
18382SOL     OW59061   0.003   8.795   2.493 -0.2426 -0.6779  0.3694
18382SOL    HW159062  -0.086   8.759   2.495 -1.0792  1.0960 -1.3602
18382SOL    HW259063  -0.008   8.887   2.515  1.2497 -0.5085  0.5184
18383SOL     OW59064   5.228   8.824   5.936  0.5462 -0.1704  0.1599
18383SOL    HW159065   5.250   8.883   6.008 -1.1725  0.4826  0.1879
18383SOL    HW259066   5.167   8.761   5.974 -0.3595  0.1683 -0.6905
18384SOL     OW59067   6.196   3.417   0.720  0.1303  0.3725 -0.6703
18384SOL    HW159068   6.193   3.349   0.653  2.9288  1.3654 -1.9680
18384SOL    HW259069   6.173   3.497   0.673  1.7387  1.0243 -0.3827
18385SOL     OW59070   6.935   1.709   5.914 -0.3192  0.2242 -0.3234
18385SOL    HW159071   6.931   1.680   6.005  0.2727  0.8260 -0.0957
18385SOL    HW259072   6.951   1.804   5.920 -0.4081  0.2903 -1.0540
18386SOL     OW59073   2.903   7.517   3.548 -0.3733  0.3119 -0.1367
18386SOL    HW159074   2.958   7.570   3.607 -0.8214  1.2343 -0.5326
18386SOL    HW259075   2.939   7.534   3.461  0.5317 -1.3484 -0.1305
18387SOL     OW59076   5.317   8.157   3.834 -0.1588 -0.0799 -0.0735
18387SOL    HW159077   5.257   8.198   3.772 -0.1920  0.1529  0.1092
18387SOL    HW259078   5.286   8.067   3.842  1.1015 -0.7471 -2.0064
18388SOL     OW59079   5.091   6.668   9.404  0.2633 -1.0581  0.3140
18388SOL    HW159080   5.073   6.733   9.472  0.6783 -0.5073 -0.0929
18388SOL    HW259081   5.186   6.656   9.406  0.2458 -1.2648  0.0400
18389SOL     OW59082   6.695   7.953   5.833 -0.4831  0.5332 -0.2755
18389SOL    HW159083   6.630   7.938   5.763 -0.2567 -0.4587 -0.2884
18389SOL    HW259084   6.718   8.045   5.825  0.8551  0.0706 -2.6869
18390SOL     OW59085   1.718   3.298   6.678  0.0627 -0.6530 -0.3074
18390SOL    HW159086   1.786   3.364   6.671 -0.6658  0.3177  1.2755
18390SOL    HW259087   1.763   3.215   6.661  1.5335  0.0116  0.2143
18391SOL     OW59088   1.072   4.581   1.828  0.2542  0.5355 -0.2703
18391SOL    HW159089   1.160   4.591   1.863  1.4714 -0.0355 -2.9708
18391SOL    HW259090   1.064   4.488   1.806 -0.9371  0.6212 -0.2879
18392SOL     OW59091   9.825   8.604   3.364 -0.3210 -0.5981 -0.5444
18392SOL    HW159092   9.841   8.541   3.434 -0.4798 -0.9494 -0.8278
18392SOL    HW259093   9.805   8.686   3.410  1.5351 -0.3089 -0.1545
18393SOL     OW59094   0.053   2.721   0.103 -0.2652 -0.3822 -0.0032
18393SOL    HW159095   0.026   2.730   0.011 -1.7789 -0.0274  0.4500
18393SOL    HW259096   0.006   2.791   0.149  0.9714 -0.1603  0.9519
18394SOL     OW59097   2.859   3.382   3.065 -0.2929 -0.0123  0.5853
18394SOL    HW159098   2.855   3.327   2.986  0.2047  0.4924  0.2052
18394SOL    HW259099   2.946   3.365   3.102 -0.1606  0.4639  0.5008
18395SOL     OW59100   0.862   9.883   9.254 -0.1773 -0.2594  0.2613
18395SOL    HW159101   0.950   9.858   9.228  0.4191  0.0774  1.8383
18395SOL    HW259102   0.860   9.870   9.349 -1.3041  1.2650  0.4834
18396SOL     OW59103   7.238   5.531   7.537 -0.5526 -0.1587  0.3433
18396SOL    HW159104   7.272   5.449   7.503 -1.7484 -0.5458  0.0081
18396SOL    HW259105   7.232   5.589   7.461 -3.9932 -1.2860 -0.4589
18397SOL     OW59106   4.326   3.089   4.652  0.5494 -0.0194 -0.4518
18397SOL    HW159107   4.262   3.161   4.658 -1.0760 -1.2822 -1.8386
18397SOL    HW259108   4.304   3.031   4.725  1.4908  0.5500  0.3158
18398SOL     OW59109   7.754   6.746   1.198  0.3137 -0.0523 -0.2091
18398SOL    HW159110   7.686   6.680   1.191  0.4516 -0.2282  0.0852
18398SOL    HW259111   7.706   6.828   1.211  0.1456 -0.4924  2.6780
18399SOL     OW59112   0.645   6.829   8.872 -0.8529  0.1104  0.2717
18399SOL    HW159113   0.652   6.923   8.888 -0.1690  0.2846 -0.9724
18399SOL    HW259114   0.726   6.792   8.907 -1.1725 -0.0422  0.8653
18400SOL     OW59115   2.425   2.783   0.261  0.0509  0.1599  0.2971
18400SOL    HW159116   2.506   2.830   0.279 -0.7378  0.6674  2.8530
18400SOL    HW259117   2.453   2.707   0.209  1.9228  1.1328 -0.1900
18401SOL     OW59118   1.641   4.062   1.808  0.2190 -1.3349 -0.1916
18401SOL    HW159119   1.707   4.052   1.739 -0.7989 -2.7539 -1.0169
18401SOL    HW259120   1.633   4.156   1.821  2.2426 -1.1208 -0.2012
18402SOL     OW59121   2.475   2.312   7.625 -0.3820  0.1497 -0.3741
18402SOL    HW159122   2.545   2.376   7.613  1.9048 -1.2731  3.4739
18402SOL    HW259123   2.503   2.236   7.574  0.8605 -0.3170  0.9361
18403SOL     OW59124   0.661   5.220   2.889  0.0422  0.0405  0.1753
18403SOL    HW159125   0.653   5.259   2.803  0.2012 -1.6601 -0.6573
18403SOL    HW259126   0.717   5.280   2.938  1.0084  0.3930 -1.3039
18404SOL     OW59127   4.724   7.844   1.414  0.1956  0.7192 -0.3703
18404SOL    HW159128   4.630   7.831   1.422  0.3148 -1.8476 -2.2016
18404SOL    HW259129   4.736   7.884   1.328  0.8578 -0.8036 -1.0208
18405SOL     OW59130   8.805   8.399   2.304  0.5790  0.8589  0.1479
18405SOL    HW159131   8.865   8.467   2.274 -0.8115  1.8255 -0.5157
18405SOL    HW259132   8.786   8.422   2.394  0.0153  1.4342 -0.1131
18406SOL     OW59133   1.481   9.738   5.513  0.5522 -0.3533  0.3632
18406SOL    HW159134   1.538   9.664   5.534 -0.0293 -0.4806  1.6179
18406SOL    HW259135   1.393   9.708   5.538  0.3888  0.9762  1.5632
18407SOL     OW59136   8.011   4.773   9.645  0.4732 -0.0076  0.2373
18407SOL    HW159137   8.021   4.679   9.659 -0.2750  0.1630  2.1191
18407SOL    HW259138   8.082   4.795   9.585  1.2703 -1.5811  0.5395
18408SOL     OW59139   9.406   5.778   7.323  0.5157  0.0522  0.6008
18408SOL    HW159140   9.437   5.688   7.307  2.4479  0.4275  1.9497
18408SOL    HW259141   9.344   5.769   7.395  0.0074 -0.2827  0.1370
18409SOL     OW59142   0.824   0.442   4.490  0.0340  0.3777  0.1137
18409SOL    HW159143   0.771   0.487   4.556 -0.0594 -1.0572  1.0630
18409SOL    HW259144   0.838   0.508   4.422 -0.4351  1.7023  1.2427
18410SOL     OW59145   2.670   3.442   8.175 -0.6654 -0.0133 -0.0774
18410SOL    HW159146   2.662   3.366   8.231 -3.7652  0.3362  0.1532
18410SOL    HW259147   2.650   3.410   8.087 -1.8998  0.4695  0.0070
18411SOL     OW59148   4.453   5.378   0.832  0.0652  0.9012 -0.3491
18411SOL    HW159149   4.442   5.376   0.927  0.7015  0.8247 -0.2680
18411SOL    HW259150   4.365   5.374   0.797 -0.1554  0.5207  0.2373
18412SOL     OW59151   3.190   8.415   6.056  0.7476  0.1934 -0.4141
18412SOL    HW159152   3.121   8.415   5.989  1.0968  1.5473 -0.8116
18412SOL    HW259153   3.183   8.329   6.098 -1.3559  0.3935 -0.2507
18413SOL     OW59154   2.508   7.291   4.540 -0.9357 -0.2196 -0.2761
18413SOL    HW159155   2.539   7.361   4.483  1.5420 -0.0379  1.1722
18413SOL    HW259156   2.467   7.337   4.615 -0.4295 -0.3424  0.0779
18414SOL     OW59157   5.175   0.554   6.813  0.1670 -0.7487  0.3503
18414SOL    HW159158   5.268   0.535   6.802  0.5175  1.4835 -1.1973
18414SOL    HW259159   5.173   0.631   6.871 -0.1917  2.6445 -3.6585
18415SOL     OW59160   6.026   9.881   1.809 -0.3074  0.3496  0.0790
18415SOL    HW159161   6.085   9.828   1.863 -0.8413 -1.8536 -1.3985
18415SOL    HW259162   5.955   9.906   1.868 -1.0657 -2.3034  0.4107
18416SOL     OW59163   1.597   4.961   0.483  0.1832  0.3639 -0.3228
18416SOL    HW159164   1.683   4.919   0.478 -0.9729 -2.3457  0.5389
18416SOL    HW259165   1.572   4.951   0.575 -0.7178  1.9154 -0.3732
18417SOL     OW59166   2.110   1.053   3.459 -0.1562  0.3101 -0.1211
18417SOL    HW159167   2.175   1.014   3.517  0.5071  1.5262 -0.0082
18417SOL    HW259168   2.161   1.096   3.390 -0.6968  2.7803  0.9142
18418SOL     OW59169   7.362   0.411   0.800  0.0416  0.1155 -0.0304
18418SOL    HW159170   7.275   0.386   0.772  0.4638 -2.1133  0.4971
18418SOL    HW259171   7.391   0.474   0.733 -1.3247 -0.3329 -1.0992
18419SOL     OW59172   8.732   3.472   3.756  0.7081  0.0555  0.1547
18419SOL    HW159173   8.733   3.376   3.758 -2.3822 -0.1651 -2.1177
18419SOL    HW259174   8.792   3.495   3.685 -0.6090 -0.4165 -1.1554
18420SOL     OW59175   9.294   7.110   1.879  0.1048 -0.3535 -0.0126
18420SOL    HW159176   9.262   7.200   1.869  0.2142 -0.5051 -2.0036
18420SOL    HW259177   9.329   7.107   1.968 -0.0233  1.5258  0.1371
18421SOL     OW59178   3.065   0.275   5.440  0.0487  0.9357  0.2704
18421SOL    HW159179   3.052   0.355   5.389 -0.4081  0.3310 -0.5901
18421SOL    HW259180   3.011   0.209   5.396  1.9817 -0.3655 -0.2921
18422SOL     OW59181   2.723   7.045   9.137 -0.1290 -0.2182  1.1573
18422SOL    HW159182   2.663   7.118   9.156  0.8536  0.5824  1.2725
18422SOL    HW259183   2.667   6.968   9.138 -0.9371  0.3420  2.6052
18423SOL     OW59184   8.239   6.365   6.008 -0.0957 -0.0944 -0.0697
18423SOL    HW159185   8.261   6.436   5.948  1.6129 -0.5964 -0.0937
18423SOL    HW259186   8.204   6.295   5.951 -2.4717  0.9146  0.0295
18424SOL     OW59187   2.327   3.342   2.263  0.0131  0.0758 -0.1721
18424SOL    HW159188   2.260   3.274   2.274  0.8303 -0.7381 -0.0382
18424SOL    HW259189   2.317   3.398   2.340 -1.4591  0.8348 -0.8810
18425SOL     OW59190   3.804   8.244   4.093 -0.4797 -0.0828  0.4238
18425SOL    HW159191   3.744   8.224   4.165  0.1676 -1.5349  0.5710
18425SOL    HW259192   3.764   8.202   4.017 -0.1170 -0.2586  0.3330
18426SOL     OW59193   3.467   0.149   0.095  0.3440  0.1285 -0.3385
18426SOL    HW159194   3.409   0.215   0.056  1.2220  1.9887  1.3405
18426SOL    HW259195   3.555   0.177   0.071  0.7184 -0.7468 -0.0375
18427SOL     OW59196   8.995   2.248   2.320  0.4168 -0.4140  0.0971
18427SOL    HW159197   9.054   2.253   2.245  2.1548  3.2844  1.4973
18427SOL    HW259198   8.930   2.317   2.305  1.3655  1.0793  2.3074
18428SOL     OW59199   0.999   8.636   2.581 -0.5810  0.8141  0.1404
18428SOL    HW159200   0.964   8.700   2.519 -0.2250  0.1873 -0.7300
18428SOL    HW259201   0.926   8.619   2.642 -0.6782  2.0141  0.3767
18429SOL     OW59202   7.302   3.611   8.911  0.2521 -0.3728  0.3059
18429SOL    HW159203   7.359   3.537   8.930 -0.7664 -0.7531  2.1601
18429SOL    HW259204   7.267   3.593   8.823  1.0307 -1.4019  0.1930
18430SOL     OW59205   9.062   2.415   9.848 -0.2037  0.2601  0.3013
18430SOL    HW159206   9.031   2.371   9.928  1.1875 -0.0756  0.6790
18430SOL    HW259207   8.982   2.436   9.800 -1.0089 -0.7844  1.1318
18431SOL     OW59208   2.238   9.075   3.106 -0.0096  0.5110 -0.1329
18431SOL    HW159209   2.306   9.090   3.041 -0.3990  2.1660 -0.2146
18431SOL    HW259210   2.285   9.044   3.184  0.6164 -0.1311 -0.7584
18432SOL     OW59211   5.537   5.308   2.886  0.4127 -0.5892  0.3143
18432SOL    HW159212   5.600   5.370   2.849 -0.5588 -0.1485 -0.6749
18432SOL    HW259213   5.469   5.364   2.924 -0.4466 -1.0221 -0.5310
18433SOL     OW59214   9.094   9.491   7.894  0.2187  0.5605  0.4261
18433SOL    HW159215   9.009   9.475   7.936  0.0553  1.5322  0.4819
18433SOL    HW259216   9.097   9.586   7.880  0.4486  0.3207 -1.3985
18434SOL     OW59217   7.994   7.548   4.469 -0.5215  0.2460  0.1531
18434SOL    HW159218   8.037   7.628   4.439  0.0090 -0.7181 -1.8590
18434SOL    HW259219   8.046   7.519   4.544  0.7485  0.5152 -0.5980
18435SOL     OW59220   4.615   4.569   1.795  0.6061 -0.3478  0.8808
18435SOL    HW159221   4.591   4.481   1.764 -1.0342  0.1247  0.7497
18435SOL    HW259222   4.616   4.561   1.891 -0.7360 -0.2388  0.9203
18436SOL     OW59223   3.846   7.992   8.460  0.6323  0.0023  0.8186
18436SOL    HW159224   3.808   7.906   8.445  0.0887  0.3186  0.3563
18436SOL    HW259225   3.858   8.029   8.373 -2.3482  1.7769  1.0489
18437SOL     OW59226   4.628   3.979   6.511  0.1522 -0.5095 -0.4575
18437SOL    HW159227   4.583   3.985   6.427 -1.1627 -0.5457  0.2276
18437SOL    HW259228   4.698   4.044   6.505 -2.3431  2.4408 -0.1771
18438SOL     OW59229   6.634   3.375   3.383 -0.1821  0.1265  0.7050
18438SOL    HW159230   6.722   3.342   3.401 -0.4194 -0.4089  0.9328
18438SOL    HW259231   6.596   3.309   3.325  0.2979  1.4284 -1.1802
18439SOL     OW59232   1.670   4.022   3.193  0.4938  0.0393 -0.3526
18439SOL    HW159233   1.723   3.962   3.140 -2.8259 -0.8774 -3.0736
18439SOL    HW259234   1.607   3.965   3.237  0.2676  1.2090  0.8935
18440SOL     OW59235   6.758   5.723   1.204  0.4219  0.5450 -0.6460
18440SOL    HW159236   6.808   5.760   1.131  0.1575 -0.5794 -1.4264
18440SOL    HW259237   6.668   5.723   1.174  0.3982 -0.5979 -0.6202
18441SOL     OW59238   3.093   8.751   7.072  0.4277 -0.3951 -0.3011
18441SOL    HW159239   3.085   8.743   6.977  0.2589  0.7956 -0.3984
18441SOL    HW259240   3.176   8.797   7.086  0.1262  0.0290  0.1022
18442SOL     OW59241   7.342   3.446   2.019 -0.7535 -0.3210 -0.6089
18442SOL    HW159242   7.346   3.450   1.923 -0.9578 -0.7549 -0.6376
18442SOL    HW259243   7.359   3.355   2.040  0.5150 -0.0014 -0.1589
18443SOL     OW59244   0.268   7.696   4.984  0.6208 -0.1708  0.1091
18443SOL    HW159245   0.214   7.707   4.905 -1.7133  0.2833  1.6764
18443SOL    HW259246   0.244   7.610   5.018  0.4164  0.3002  1.1727
18444SOL     OW59247   6.081   7.094   4.862  0.1084  0.1669  0.1191
18444SOL    HW159248   6.117   7.099   4.950 -0.3838 -1.0734  0.3971
18444SOL    HW259249   6.073   7.001   4.843 -0.1339  0.4123 -1.0981
18445SOL     OW59250   6.120   6.967   3.358 -0.1990 -0.0146  0.2822
18445SOL    HW159251   6.102   6.996   3.447  1.5947 -1.0840  1.0378
18445SOL    HW259252   6.072   7.029   3.303  0.8323  2.3570  1.8877
18446SOL     OW59253   9.651   1.847   8.904 -0.5882 -0.2559  0.1095
18446SOL    HW159254   9.741   1.842   8.871 -0.3889 -2.6666  0.8445
18446SOL    HW259255   9.660   1.881   8.993  0.0174 -3.2004  1.2913
18447SOL     OW59256   0.222   8.854   5.438  0.2599 -0.1527 -0.2286
18447SOL    HW159257   0.239   8.872   5.530  0.3327 -2.2885  0.2234
18447SOL    HW259258   0.248   8.763   5.426 -2.6751 -0.9116 -1.6049
18448SOL     OW59259  10.125   5.293   0.646  0.8610  0.0484 -0.6158
18448SOL    HW159260  10.074   5.367   0.679  1.1544 -0.0381  0.0453
18448SOL    HW259261  10.065   5.247   0.587  0.0735 -0.2207  0.3759
18449SOL     OW59262   7.519   5.702   1.946 -0.3456 -0.4564 -0.7233
18449SOL    HW159263   7.490   5.676   2.033 -1.7945 -0.1836 -1.1021
18449SOL    HW259264   7.606   5.662   1.937 -0.2491 -0.6422  0.7565
18450SOL     OW59265   4.612   1.894   4.312 -0.0990  0.4792  0.1424
18450SOL    HW159266   4.705   1.911   4.294 -0.3052 -0.1788 -1.8709
18450SOL    HW259267   4.576   1.980   4.334  0.7020  1.0419 -0.6506
18451SOL     OW59268   7.808   6.911   4.649 -0.3920  0.6686  0.1078
18451SOL    HW159269   7.850   6.984   4.695 -1.8091  0.0092  2.7003
18451SOL    HW259270   7.863   6.835   4.670  1.6350  0.9717 -3.3783
18452SOL     OW59271   4.303   2.886   2.149 -0.2230 -0.0701 -0.0033
18452SOL    HW159272   4.372   2.829   2.182 -1.8951 -1.2997  1.6017
18452SOL    HW259273   4.281   2.942   2.224  0.7164  2.1133 -1.2559
18453SOL     OW59274   1.626   9.237   2.423 -0.3158  0.0099 -0.4731
18453SOL    HW159275   1.533   9.236   2.399 -0.4085  1.3958 -0.2664
18453SOL    HW259276   1.664   9.165   2.373 -1.6928 -1.3037  0.2882
18454SOL     OW59277   3.185  10.151   4.233 -0.5317 -0.1197  0.0228
18454SOL    HW159278   3.091  10.163   4.237 -0.4601  2.2878 -2.5414
18454SOL    HW259279   3.217  10.185   4.317 -1.9030 -0.9089  0.8950
18455SOL     OW59280   5.594   8.005   6.425 -0.2666  0.1754 -0.8892
18455SOL    HW159281   5.615   7.924   6.378  2.0461  0.1387  0.0907
18455SOL    HW259282   5.649   8.072   6.385  1.2251  0.2892  1.1802
18456SOL     OW59283   2.980   6.341   2.389 -0.1594  0.1591 -0.0514
18456SOL    HW159284   2.954   6.314   2.301 -2.3924  2.1856 -0.1087
18456SOL    HW259285   2.904   6.321   2.444  0.4872  0.6364  1.0566
18457SOL     OW59286   9.630   5.713   1.727  0.1381 -0.3215  0.6731
18457SOL    HW159287   9.662   5.678   1.811 -1.8727  0.1522  1.7047
18457SOL    HW259288   9.573   5.644   1.693  0.4832 -0.2666 -0.0273
18458SOL     OW59289   5.612   1.935   2.543  0.2866 -0.3698 -0.1511
18458SOL    HW159290   5.564   1.853   2.556  1.1662 -0.5404  2.5642
18458SOL    HW259291   5.558   2.002   2.585  0.2585  0.2434 -1.1228
18459SOL     OW59292   8.857   6.663  10.091  0.1456  0.0843 -0.4632
18459SOL    HW159293   8.895   6.749  10.107 -0.8138  0.4138  0.1052
18459SOL    HW259294   8.813   6.671  10.007 -0.4849  0.3490 -0.1146
18460SOL     OW59295   4.976   7.931   2.492 -0.1659 -0.3033  0.2847
18460SOL    HW159296   4.894   7.958   2.532 -0.3353 -0.2772 -0.0752
18460SOL    HW259297   5.034   7.912   2.566 -0.6106 -0.6833  0.5409
18461SOL     OW59298   0.747   6.061   1.673  0.0997 -0.1536  0.3909
18461SOL    HW159299   0.814   6.082   1.739 -0.6938  0.5139  1.0038
18461SOL    HW259300   0.771   6.114   1.597 -0.3587  0.9729  1.0043
18462SOL     OW59301   4.496   8.942   8.880 -0.4558 -0.3221  0.3497
18462SOL    HW159302   4.575   8.969   8.926 -0.9820  0.4513  0.8269
18462SOL    HW259303   4.508   8.849   8.862  2.2714  0.4810 -2.9573
18463SOL     OW59304   4.732   3.781   1.161  0.7783 -0.1196 -0.2228
18463SOL    HW159305   4.649   3.749   1.197  2.0361 -1.7709  1.4120
18463SOL    HW259306   4.720   3.876   1.155 -1.0653 -0.2674  0.3729
18464SOL     OW59307   0.036   0.521   6.230  0.5984  0.1079  0.1451
18464SOL    HW159308  -0.032   0.559   6.174  0.0128 -0.8792  0.1610
18464SOL    HW259309   0.011   0.548   6.319 -0.3344 -1.0334  0.2535
18465SOL     OW59310   1.790   7.426   2.701  0.0169 -0.0377 -0.6691
18465SOL    HW159311   1.727   7.355   2.690 -0.1420 -0.2121  1.1246
18465SOL    HW259312   1.753   7.480   2.771  1.5282  0.2149 -0.0374
18466SOL     OW59313   9.011   5.673   3.222  0.1379 -0.0163  0.2627
18466SOL    HW159314   8.942   5.613   3.250  2.0668 -2.2185  0.6904
18466SOL    HW259315   9.068   5.681   3.298  1.9368 -0.7605 -0.9215
18467SOL     OW59316   9.680   1.694   3.270  0.0300  0.3974  0.5169
18467SOL    HW159317   9.645   1.614   3.309 -0.9081  1.3710  1.7320
18467SOL    HW259318   9.674   1.760   3.339  1.0027  1.4804 -0.3829
18468SOL     OW59319   3.995   7.853   1.826  0.3104 -0.4145 -0.2290
18468SOL    HW159320   4.089   7.870   1.826  0.3447 -0.3972 -2.0097
18468SOL    HW259321   3.974   7.831   1.916  1.6329  1.7267  0.6742
18469SOL     OW59322   0.816   5.716   7.685 -0.5590 -0.9493  0.2655
18469SOL    HW159323   0.770   5.697   7.767  0.8177  0.0808  1.3275
18469SOL    HW259324   0.879   5.784   7.709  0.7439 -1.5227 -1.3812
18470SOL     OW59325   7.446   7.466   2.012 -0.3092 -0.6789  0.0784
18470SOL    HW159326   7.480   7.548   1.976 -0.1785 -0.7268  0.0924
18470SOL    HW259327   7.521   7.427   2.057 -0.4805 -0.6043  0.4307
18471SOL     OW59328   3.237   3.745   6.024  0.1385  0.1159  0.1416
18471SOL    HW159329   3.171   3.680   6.049 -0.1104  0.2380 -0.1850
18471SOL    HW259330   3.198   3.790   5.949  1.0387 -0.5127 -0.7345
18472SOL     OW59331   1.705   3.868   6.902  0.0686 -0.4991  0.2035
18472SOL    HW159332   1.789   3.831   6.875  0.5358  1.1303 -0.6860
18472SOL    HW259333   1.668   3.802   6.960  0.8801 -2.3270 -1.2584
18473SOL     OW59334   2.224   5.844   6.696  0.2037  0.1530 -0.1963
18473SOL    HW159335   2.211   5.938   6.707 -1.5732  0.2028 -2.0283
18473SOL    HW259336   2.277   5.837   6.616 -0.5730 -0.3756 -0.6870
18474SOL     OW59337   1.959   7.011   5.021 -0.5697 -0.2266  0.2792
18474SOL    HW159338   2.028   7.023   5.086  0.5159 -0.2076 -0.8386
18474SOL    HW259339   1.906   7.091   5.028  1.0736  1.0012 -0.6363
18475SOL     OW59340   0.038   3.354   4.060 -0.2323 -0.4658 -0.1781
18475SOL    HW159341  -0.054   3.367   4.036 -0.5240  0.3686  1.2392
18475SOL    HW259342   0.053   3.260   4.050 -1.3233 -0.6501 -0.1542
18476SOL     OW59343   8.248   5.286   5.311  0.2474 -0.0788  0.1193
18476SOL    HW159344   8.186   5.339   5.260 -1.7713  0.8470  3.2330
18476SOL    HW259345   8.297   5.350   5.363 -0.4580 -1.0495  2.0781
18477SOL     OW59346   8.131   0.141   3.236 -0.0425 -0.0447  0.1127
18477SOL    HW159347   8.081   0.060   3.238 -0.2725  0.0985  0.1973
18477SOL    HW259348   8.220   0.115   3.258 -0.4905 -0.0093  2.1528
18478SOL     OW59349   5.044   4.709   3.938  0.0513  0.0024  0.5759
18478SOL    HW159350   5.079   4.798   3.937  2.0159 -0.7040 -1.2751
18478SOL    HW259351   5.035   4.687   4.031 -2.0537  2.6232  1.1175
18479SOL     OW59352   7.550   7.567   5.493 -0.1001  0.0855 -0.3651
18479SOL    HW159353   7.485   7.618   5.541  1.6331  0.6874  1.4581
18479SOL    HW259354   7.520   7.476   5.500 -0.9320  0.3924  0.1003
18480SOL     OW59355   2.077   5.389   2.518  0.0797  0.2893  0.2193
18480SOL    HW159356   2.019   5.444   2.571  0.6534  1.1465 -0.0348
18480SOL    HW259357   2.122   5.333   2.581  0.7981  1.3406  0.6677
18481SOL     OW59358   3.222   4.884   4.859 -0.0365 -0.1955  0.7379
18481SOL    HW159359   3.268   4.817   4.909  0.9122  0.8125  1.2406
18481SOL    HW259360   3.281   4.959   4.857 -1.2964  0.8448  0.6814
18482SOL     OW59361   0.731   3.823   7.151 -0.5947  0.1297 -0.2454
18482SOL    HW159362   0.705   3.865   7.233 -0.5765 -1.0713  0.4014
18482SOL    HW259363   0.762   3.894   7.096  0.3196  0.8562  1.1521
18483SOL     OW59364   0.521   1.058   8.680 -0.0935  0.2679  0.2206
18483SOL    HW159365   0.429   1.040   8.657  0.4484 -1.5013 -0.7264
18483SOL    HW259366   0.560   1.089   8.599  0.7199 -1.4393 -0.0799
18484SOL     OW59367   7.199   7.867   7.965  0.6624 -0.5671  0.0971
18484SOL    HW159368   7.122   7.815   7.941 -0.1063  0.5676  0.0106
18484SOL    HW259369   7.166   7.929   8.030  1.7530 -0.7415  0.8423
18485SOL     OW59370   5.755   8.655   5.533  0.3467  0.4877 -0.0012
18485SOL    HW159371   5.673   8.605   5.539 -0.2627  1.4340 -0.1414
18485SOL    HW259372   5.788   8.636   5.445 -0.6195  1.4066 -0.5880
18486SOL     OW59373   2.301   8.337   2.127  0.1313  0.5103  0.4773
18486SOL    HW159374   2.216   8.338   2.083  0.5812 -0.0630 -0.4489
18486SOL    HW259375   2.333   8.426   2.119 -0.8380  1.0178  1.8024
18487SOL     OW59376   5.784   6.393   4.664 -0.4725 -0.1962 -0.0031
18487SOL    HW159377   5.788   6.388   4.569 -1.9067 -1.0670 -0.0423
18487SOL    HW259378   5.812   6.306   4.694 -0.0726  0.0593  0.3732
18488SOL     OW59379   9.482   6.004   5.462 -0.2128 -0.0216  0.2448
18488SOL    HW159380   9.557   6.026   5.518 -0.1498  0.8140 -0.1571
18488SOL    HW259381   9.520   5.990   5.375 -0.4994  0.2296  0.0777
18489SOL     OW59382   5.331   3.969   4.470 -0.1444  0.4089 -0.2312
18489SOL    HW159383   5.342   3.879   4.500  0.5546  0.9627  1.2659
18489SOL    HW259384   5.241   3.972   4.437  0.0009 -0.9644 -0.8602
18490SOL     OW59385   0.241   6.129   5.249 -0.2644  0.1057 -0.5903
18490SOL    HW159386   0.182   6.113   5.323 -1.8115  1.7441 -1.3890
18490SOL    HW259387   0.325   6.092   5.277 -1.1614 -0.6138  1.3726
18491SOL     OW59388   9.964   7.430   4.118  0.0100 -0.9410 -0.3510
18491SOL    HW159389  10.027   7.359   4.130  0.3994 -0.9899 -2.3606
18491SOL    HW259390   9.961   7.444   4.024 -0.7657  1.0783 -0.0829
18492SOL     OW59391   7.088   6.870   8.973 -0.0272 -0.6293 -0.0842
18492SOL    HW159392   7.028   6.939   9.001  0.0369 -0.0288 -1.3386
18492SOL    HW259393   7.159   6.873   9.037 -1.2594 -1.3048  1.3706
18493SOL     OW59394   9.563   8.238   0.034  0.2006 -0.2801 -0.2123
18493SOL    HW159395   9.542   8.168   0.096  0.2940  0.6763  0.9363
18493SOL    HW259396   9.651   8.218   0.004 -0.2988 -1.4137 -0.9818
18494SOL     OW59397   5.263   7.556   4.610 -0.2424  0.0229  0.2740
18494SOL    HW159398   5.286   7.550   4.703  0.1553 -0.5031  0.1485
18494SOL    HW259399   5.262   7.466   4.579  0.1725  0.2240 -0.3606
18495SOL     OW59400   0.908   3.693   6.549  0.3483 -0.2676  0.4939
18495SOL    HW159401   1.003   3.697   6.561  0.4753 -1.7787  0.1292
18495SOL    HW259402   0.890   3.762   6.485  1.1055  0.4321  1.0005
18496SOL     OW59403   3.103   4.238   9.035  0.2116  0.3272 -0.0287
18496SOL    HW159404   3.115   4.177   9.107 -0.4284 -0.5485 -0.6359
18496SOL    HW259405   3.016   4.276   9.049  0.2333  0.4194 -0.1403
18497SOL     OW59406   3.689   3.844   3.122 -0.3051 -0.1373  0.5177
18497SOL    HW159407   3.708   3.895   3.201  0.1796  0.1662  0.2119
18497SOL    HW259408   3.594   3.835   3.123 -0.6167  2.2532 -0.2812
18498SOL     OW59409   8.244  10.086   5.555 -0.3766  0.0537 -0.0999
18498SOL    HW159410   8.183  10.065   5.485 -1.1250  0.3782  0.4336
18498SOL    HW259411   8.297  10.157   5.520 -0.2811 -0.2590 -0.5873
18499SOL     OW59412   1.315   1.173   2.926 -0.4064 -0.0746  0.1855
18499SOL    HW159413   1.402   1.151   2.894 -0.5785  2.5592 -2.5201
18499SOL    HW259414   1.281   1.092   2.963  2.2379 -1.8068 -0.9369
18500SOL     OW59415   8.074   5.824   1.601 -0.2695 -0.4111 -0.5271
18500SOL    HW159416   8.065   5.901   1.657  0.9432 -1.7074  1.5881
18500SOL    HW259417   8.028   5.847   1.520 -1.0188  2.0250  0.5135
18501SOL     OW59418   7.010   0.307   9.882 -0.8343 -0.6194  0.2168
18501SOL    HW159419   7.098   0.333   9.857 -2.0453  3.0680 -0.8901
18501SOL    HW259420   6.986   0.238   9.819  0.2668  0.3730 -1.3415
18502SOL     OW59421   0.932   1.274   1.945 -0.9261 -0.0468 -0.2372
18502SOL    HW159422   0.999   1.311   1.887 -1.4236 -0.3436 -1.0198
18502SOL    HW259423   0.972   1.194   1.979  0.0163  0.9800  1.1793
18503SOL     OW59424   8.757   2.097   3.225  0.1824  0.1388 -0.2776
18503SOL    HW159425   8.672   2.055   3.210 -0.8307  1.2565  1.8350
18503SOL    HW259426   8.821   2.031   3.198 -1.3338 -0.9322 -1.4420
18504SOL     OW59427   0.810   7.410   8.271 -0.0083  0.0899  0.0156
18504SOL    HW159428   0.752   7.477   8.307 -0.2715 -0.7379  1.1892
18504SOL    HW259429   0.765   7.327   8.289  0.5748 -0.4439 -0.9063
18505SOL     OW59430   3.392   6.071   9.147  0.4031 -0.1441  0.4993
18505SOL    HW159431   3.376   6.038   9.235 -1.0776 -1.1774 -0.1249
18505SOL    HW259432   3.342   6.153   9.143  0.7463  0.0795  0.7158
18506SOL     OW59433   3.948   0.807   5.950  0.5743  0.1087 -0.3862
18506SOL    HW159434   4.026   0.862   5.941  1.1564 -0.6467 -0.1357
18506SOL    HW259435   3.957   0.741   5.881  0.0856  0.0998 -0.4419
18507SOL     OW59436   2.067   0.442   4.183  0.1330 -0.2621  0.4296
18507SOL    HW159437   1.995   0.434   4.120  0.9657 -1.7201 -0.3894
18507SOL    HW259438   2.024   0.463   4.266 -1.2682 -1.2563 -0.0066
18508SOL     OW59439   4.362   7.554   5.678 -0.5355  0.4697  0.5274
18508SOL    HW159440   4.358   7.632   5.733  0.7965 -0.5265  2.1663
18508SOL    HW259441   4.389   7.484   5.738 -1.6274 -1.2657 -0.8692
18509SOL     OW59442   8.900   3.177   9.125  0.3565  0.8986 -0.1666
18509SOL    HW159443   8.865   3.101   9.077  0.7218  1.1217 -0.7976
18509SOL    HW259444   8.835   3.246   9.110  1.1034  1.3668 -1.4886
18510SOL     OW59445   9.932   9.890   8.906 -0.3312 -0.1290 -0.0986
18510SOL    HW159446  10.027   9.880   8.900 -0.2768  0.8862 -1.5757
18510SOL    HW259447   9.900   9.804   8.932  1.0104 -0.4275  0.6180
18511SOL     OW59448   5.534   4.250  10.106  0.0229  0.2860 -0.3468
18511SOL    HW159449   5.526   4.342  10.079 -0.2554  0.6670  0.9417
18511SOL    HW259450   5.508   4.200  10.029 -1.6250  1.3208 -0.5199
18512SOL     OW59451   8.358   8.127   5.708  0.7253 -0.2744  0.0684
18512SOL    HW159452   8.377   8.120   5.614 -1.2391 -1.1519 -0.3161
18512SOL    HW259453   8.374   8.219   5.729 -0.3232  0.3254 -1.5166
18513SOL     OW59454   7.934   3.249   4.901 -0.0315  0.2532 -0.1413
18513SOL    HW159455   7.844   3.252   4.935  0.2240 -0.8861  0.6916
18513SOL    HW259456   7.930   3.301   4.820 -1.4980  0.0098 -0.2634
18514SOL     OW59457   9.664   7.318   8.068 -0.1774 -0.0266  0.6279
18514SOL    HW159458   9.703   7.386   8.014 -2.2942  0.1822 -0.7476
18514SOL    HW259459   9.571   7.337   8.068 -0.6258 -1.9174  1.6823
18515SOL     OW59460   2.934   4.330   7.905 -0.0747 -0.6709 -0.6667
18515SOL    HW159461   2.925   4.246   7.949  2.7262 -0.6384  0.1535
18515SOL    HW259462   2.976   4.309   7.822  0.7970 -0.0796 -0.3855
18516SOL     OW59463   1.431   7.400   4.817 -0.3895 -0.8622  0.3710
18516SOL    HW159464   1.492   7.332   4.848  0.0444 -0.4196  0.4922
18516SOL    HW259465   1.487   7.474   4.795 -0.3845 -1.8230 -3.6312
18517SOL     OW59466   2.496   2.454   9.473 -0.1733 -0.2086 -0.3139
18517SOL    HW159467   2.418   2.410   9.441  0.2167 -1.0258 -0.1785
18517SOL    HW259468   2.464   2.519   9.536 -0.7528 -0.3548 -0.4540
18518SOL     OW59469   7.264   0.216   8.591  0.3469 -0.2474  0.2976
18518SOL    HW159470   7.222   0.298   8.617 -3.7968 -1.9914  0.0426
18518SOL    HW259471   7.255   0.215   8.495  0.1217 -1.0592  0.3221
18519SOL     OW59472   6.219   6.505   9.479 -0.4476 -0.1782 -0.2634
18519SOL    HW159473   6.206   6.588   9.433  0.3063 -0.6252 -1.3102
18519SOL    HW259474   6.162   6.511   9.556 -1.8495  0.5316 -1.3084
18520SOL     OW59475   2.516   5.036   5.860 -0.0420  0.0039 -0.1181
18520SOL    HW159476   2.541   5.035   5.767  1.1541  1.2128  0.1504
18520SOL    HW259477   2.570   4.968   5.900 -0.9289 -0.8712 -0.3696
18521SOL     OW59478   4.109   1.056   5.336 -0.6077  0.4832  0.0160
18521SOL    HW159479   4.175   1.107   5.289  0.0113 -0.6626 -0.4229
18521SOL    HW259480   4.087   0.985   5.275  0.3182 -1.1313  1.4596
18522SOL     OW59481   8.290   7.656   9.307  0.3805 -0.0939 -0.1151
18522SOL    HW159482   8.197   7.636   9.315  0.6070 -1.3468 -0.3719
18522SOL    HW259483   8.328   7.632   9.392  0.3383  1.3141  0.3270
18523SOL     OW59484   9.346   7.959   8.662  0.1751 -0.3287 -0.2863
18523SOL    HW159485   9.343   7.885   8.601  0.3244 -0.2329 -0.4126
18523SOL    HW259486   9.408   8.020   8.622 -2.2512  1.3098 -1.8388
18524SOL     OW59487   9.441   6.863   8.460 -0.1294  0.4904 -0.1055
18524SOL    HW159488   9.392   6.858   8.377  0.4031  1.2019 -0.4791
18524SOL    HW259489   9.440   6.956   8.482 -1.5226  0.1330  1.4727
18525SOL     OW59490   3.674   4.714   0.490 -0.3999 -0.4457  0.0381
18525SOL    HW159491   3.619   4.679   0.420  0.3652 -1.0513 -0.2882
18525SOL    HW259492   3.763   4.690   0.464  0.0359  0.6637  0.4612
18526SOL     OW59493   0.255   2.211   8.833 -0.0533  0.4366  0.1241
18526SOL    HW159494   0.271   2.290   8.781 -0.9727  1.6317  1.5314
18526SOL    HW259495   0.227   2.245   8.919  0.0757 -1.4329  0.9545
18527SOL     OW59496   3.535   1.105   6.530  0.7251 -0.1201  0.3392
18527SOL    HW159497   3.544   1.159   6.609  0.1762 -0.8605  0.9211
18527SOL    HW259498   3.511   1.018   6.563 -0.1144 -0.2888 -0.6787
18528SOL     OW59499   6.831   9.372   4.197 -0.3425 -0.1235  0.4226
18528SOL    HW159500   6.772   9.427   4.249 -1.3738 -0.7455 -0.0618
18528SOL    HW259501   6.894   9.338   4.260 -0.1539  0.9971  0.8567
18529SOL     OW59502   0.251   3.503   5.039  0.0902  0.2306  0.1038
18529SOL    HW159503   0.222   3.557   5.112 -0.1675  0.5059 -0.1980
18529SOL    HW259504   0.332   3.462   5.070 -0.9568 -1.0970  1.2156
18530SOL     OW59505   5.700   6.763   6.181 -0.2762  0.3055 -0.4490
18530SOL    HW159506   5.720   6.671   6.192 -0.3444  0.3895  0.4645
18530SOL    HW259507   5.744   6.788   6.100  0.1227 -0.4147 -0.4616
18531SOL     OW59508   8.118   2.119   1.611 -0.1731  0.1501  0.2408
18531SOL    HW159509   8.098   2.176   1.685 -2.2942  1.2679 -1.0777
18531SOL    HW259510   8.208   2.091   1.626  0.1027  1.8299  2.2602
18532SOL     OW59511   8.822   5.305   4.087  0.3528  0.1186  0.6533
18532SOL    HW159512   8.811   5.365   4.014  0.4226  0.1838  0.6965
18532SOL    HW259513   8.774   5.226   4.061  0.4794  0.0973  0.4871
18533SOL     OW59514   7.557   9.047   8.416 -0.8413  0.0195 -0.2490
18533SOL    HW159515   7.572   9.057   8.322 -1.2317  0.3273 -0.2772
18533SOL    HW259516   7.571   8.953   8.432  1.5527  0.3204 -0.1952
18534SOL     OW59517   7.909   4.459   2.459  0.4982  0.7929  1.0429
18534SOL    HW159518   7.900   4.363   2.453  0.4128  0.8525  0.0611
18534SOL    HW259519   7.859   4.482   2.537 -0.0896  0.1077  0.8863
18535SOL     OW59520   9.364   8.251   8.858 -0.3625 -0.4237  0.2434
18535SOL    HW159521   9.402   8.213   8.779 -0.0677 -0.7972  0.5659
18535SOL    HW259522   9.269   8.245   8.844 -0.4537  2.8429 -1.7181
18536SOL     OW59523   1.771   5.415   4.033  0.2887  0.5738  0.1098
18536SOL    HW159524   1.741   5.420   4.124  1.8568  1.3229  0.6245
18536SOL    HW259525   1.721   5.482   3.987 -0.5347  0.1738  0.4078
18537SOL     OW59526   5.897   1.421   3.202  0.1866  0.0215  0.0871
18537SOL    HW159527   5.921   1.508   3.171  0.1599  0.1435  0.4018
18537SOL    HW259528   5.894   1.429   3.297  2.3397 -0.8611  0.3001
18538SOL     OW59529   8.318   5.214   9.033 -0.0205 -0.1542 -0.3118
18538SOL    HW159530   8.358   5.163   9.103 -0.3043 -1.3600 -0.9900
18538SOL    HW259531   8.385   5.278   9.009  1.1683 -1.5062 -0.7724
18539SOL     OW59532   7.225   2.011   7.010  0.0902 -0.2058 -0.0921
18539SOL    HW159533   7.288   1.940   7.027  1.1528  0.8694  0.6481
18539SOL    HW259534   7.167   1.976   6.943 -0.4861 -2.4223  1.4271
18540SOL     OW59535   7.014   8.244   3.977 -0.2975  0.3945 -0.0097
18540SOL    HW159536   6.921   8.222   3.977 -0.2117  0.0002  1.1006
18540SOL    HW259537   7.017   8.336   3.953 -0.9357  0.2782 -0.5630
18541SOL     OW59538   2.760   3.529   4.994 -0.0044  0.0261 -0.0143
18541SOL    HW159539   2.719   3.444   5.010 -0.1080 -0.0405 -0.6007
18541SOL    HW259540   2.850   3.517   5.023  0.8989 -1.3226 -2.9264
18542SOL     OW59541   8.728   1.631  10.026 -0.6588 -0.0135 -0.0371
18542SOL    HW159542   8.694   1.554   9.980 -1.1234 -0.9995  1.8440
18542SOL    HW259543   8.791   1.669   9.966 -1.3890 -1.1052 -1.5502
18543SOL     OW59544   8.067   6.242   6.619  0.4994 -0.2314  0.1189
18543SOL    HW159545   8.119   6.309   6.574 -0.0484 -0.6284 -1.1685
18543SOL    HW259546   7.980   6.250   6.579  0.4526 -1.7724 -0.1523
18544SOL     OW59547   9.649   5.561   5.271 -0.0882  0.2816  0.6885
18544SOL    HW159548   9.615   5.642   5.232  1.4827  1.0900  0.9455
18544SOL    HW259549   9.716   5.531   5.209  0.2042 -0.1503  1.2101
18545SOL     OW59550   4.322   0.902   5.547  0.0445  0.4120  0.1677
18545SOL    HW159551   4.267   0.976   5.521 -1.1641 -0.6085 -0.3105
18545SOL    HW259552   4.308   0.836   5.478  0.5335 -0.5211  0.9309
18546SOL     OW59553   5.155   4.128   5.929 -0.1390  0.2689  0.6371
18546SOL    HW159554   5.073   4.123   5.976  0.1221  2.6822  1.4678
18546SOL    HW259555   5.222   4.103   5.993 -0.1256 -0.9338  0.1825
18547SOL     OW59556   3.047   1.201   1.414  0.3041 -0.1426 -0.5349
18547SOL    HW159557   3.057   1.246   1.330  0.5109  2.9549  0.9989
18547SOL    HW259558   2.973   1.142   1.400 -0.4484  1.1637 -2.5737
18548SOL     OW59559   7.400   7.517   2.953  1.1150  0.1261 -0.1190
18548SOL    HW159560   7.354   7.489   2.874 -1.0055  2.1215  0.3009
18548SOL    HW259561   7.491   7.526   2.925  0.4723  0.5677 -2.3115
18549SOL     OW59562   3.951   0.649   9.112  0.6248 -0.5330 -0.0072
18549SOL    HW159563   3.884   0.668   9.047  0.5610  0.9667  0.4711
18549SOL    HW259564   3.982   0.561   9.089 -1.7772 -1.4706  0.0358
18550SOL     OW59565   7.520   9.971   8.050  0.4074 -0.1465  0.5603
18550SOL    HW159566   7.429   9.941   8.047  0.5991 -0.7933  0.8620
18550SOL    HW259567   7.537  10.005   7.962 -0.1572  0.0811  0.5327
18551SOL     OW59568   9.845   5.412   7.092 -0.3977  0.1046 -0.1541
18551SOL    HW159569   9.857   5.410   6.997  0.2424 -0.8967 -0.0636
18551SOL    HW259570   9.916   5.358   7.127 -1.9001 -1.4341  0.7475
18552SOL     OW59571   3.650   2.221   7.961 -0.0135 -0.0608 -0.0679
18552SOL    HW159572   3.656   2.282   8.035 -1.8420 -0.1123  0.1670
18552SOL    HW259573   3.640   2.277   7.884  0.5877 -0.0324 -0.1289
18553SOL     OW59574  10.167   2.420   1.054 -0.0900 -0.5923  0.2441
18553SOL    HW159575  10.155   2.494   0.995  0.0412 -0.9164 -0.1986
18553SOL    HW259576  10.251   2.382   1.028 -0.6911 -1.5912 -0.3210
18554SOL     OW59577   7.096   1.310   3.427 -0.3758 -0.3138 -0.4139
18554SOL    HW159578   7.128   1.291   3.339  0.2174  0.6134 -0.4151
18554SOL    HW259579   7.009   1.271   3.430 -1.0959  1.0377 -1.9950
18555SOL     OW59580   6.149   8.117   1.775 -0.7147  0.3225  0.5064
18555SOL    HW159581   6.077   8.180   1.786 -0.0022  1.0587  1.0714
18555SOL    HW259582   6.222   8.156   1.823 -0.0202 -0.5581  0.1826
18556SOL     OW59583   9.525   5.823   1.274 -0.3645 -0.6099  0.2613
18556SOL    HW159584   9.471   5.898   1.296  2.6928  2.3229 -1.2797
18556SOL    HW259585   9.574   5.805   1.355 -0.0030  0.1137  0.2113
18557SOL     OW59586   7.535   1.093   5.513 -0.2984  0.3510  0.2013
18557SOL    HW159587   7.509   1.030   5.446  0.6297  0.3844 -0.1977
18557SOL    HW259588   7.453   1.138   5.536 -0.3869  1.4636 -2.0485
18558SOL     OW59589   7.427   9.774   6.166  0.5241  0.3997  0.1526
18558SOL    HW159590   7.409   9.680   6.154  2.1925  0.1999 -1.4022
18558SOL    HW259591   7.520   9.777   6.189  0.4147  1.6748  0.4837
18559SOL     OW59592   1.570   6.808   8.332  0.2500 -0.4220 -0.0096
18559SOL    HW159593   1.624   6.855   8.396 -1.8576  0.3928  1.3116
18559SOL    HW259594   1.489   6.860   8.328 -0.6826 -1.9166 -1.3932
18560SOL     OW59595   2.194   8.526   1.138 -0.1404  0.4683  0.2586
18560SOL    HW159596   2.249   8.462   1.094 -1.1151  1.1024 -1.9928
18560SOL    HW259597   2.130   8.473   1.187  0.0929 -0.2605 -0.2204
18561SOL     OW59598   7.593   7.886   1.258 -0.0943  0.7964  0.2335
18561SOL    HW159599   7.591   7.978   1.231  0.7743  1.3446  1.8763
18561SOL    HW259600   7.680   7.855   1.234 -0.2094  0.5550  0.1272
18562SOL     OW59601   0.735   2.022   2.657 -0.7736 -0.2183 -0.5429
18562SOL    HW159602   0.763   1.995   2.745  0.3909  0.5799 -0.6410
18562SOL    HW259603   0.707   2.113   2.669 -3.2771 -0.9222 -0.4847
18563SOL     OW59604   7.687   0.016  10.050 -0.0153 -0.8178  0.0988
18563SOL    HW159605   7.595   0.021  10.027 -0.3386 -2.0232  1.0334
18563SOL    HW259606   7.712   0.106  10.071 -1.3901 -0.6859  1.3116
18564SOL     OW59607  10.205   6.406   5.681  0.2310 -0.0147 -0.3471
18564SOL    HW159608  10.223   6.488   5.728 -1.3428 -1.0590  2.2926
18564SOL    HW259609  10.289   6.382   5.642  1.7760  0.8401  2.1993
18565SOL     OW59610   7.426   5.843   4.160 -0.6036  0.2379 -0.0876
18565SOL    HW159611   7.376   5.896   4.222  0.4482  0.5175  0.5504
18565SOL    HW259612   7.458   5.770   4.213  1.7596  1.3719  0.1767
18566SOL     OW59613   1.444   8.071   2.516  0.2905  0.3573 -0.2241
18566SOL    HW159614   1.377   8.041   2.455  1.2005  0.4794 -1.3226
18566SOL    HW259615   1.526   8.060   2.468  1.1178 -0.3050  1.2888
18567SOL     OW59616   4.274   2.789   1.889 -0.6632 -0.0563  0.3914
18567SOL    HW159617   4.288   2.821   1.979  1.7047 -0.7395  0.3251
18567SOL    HW259618   4.252   2.697   1.899 -2.2480  0.2766  0.3089
18568SOL     OW59619   1.907   2.363   7.820  0.1060  0.2462  0.1212
18568SOL    HW159620   1.982   2.412   7.786 -0.1890  1.7421  1.4770
18568SOL    HW259621   1.835   2.386   7.761  0.4031 -0.0717 -0.3653
18569SOL     OW59622   2.865   9.709   6.658  0.0061 -0.7625  0.4575
18569SOL    HW159623   2.843   9.624   6.697 -0.5174 -0.5909  0.5371
18569SOL    HW259624   2.809   9.716   6.581  1.8012 -1.5801 -0.9985
18570SOL     OW59625   6.924   1.370   0.960  0.2460 -0.1468  0.6406
18570SOL    HW159626   6.949   1.383   1.051 -0.9160  1.3152  0.7771
18570SOL    HW259627   6.923   1.458   0.922 -1.1719 -0.5127 -0.2616
18571SOL     OW59628   4.616   0.829   5.020  0.0402  0.2080 -0.1696
18571SOL    HW159629   4.637   0.814   5.112  2.8675  1.7605 -0.4525
18571SOL    HW259630   4.639   0.746   4.977 -0.4758 -0.2258  0.3652
18572SOL     OW59631   4.251   0.635   6.988 -0.6543 -0.0601  0.6489
18572SOL    HW159632   4.176   0.657   7.044 -0.3884 -0.4943  1.1904
18572SOL    HW259633   4.260   0.540   6.998 -1.4962 -0.3886 -1.2657
18573SOL     OW59634   2.949   3.959   7.330  0.0795  0.1535  0.0065
18573SOL    HW159635   2.999   3.887   7.291  2.1742  2.6922 -2.4723
18573SOL    HW259636   2.859   3.944   7.302  0.6506 -0.9606 -1.3941
18574SOL     OW59637   5.565   6.654   1.425  1.1288  0.3337  0.6969
18574SOL    HW159638   5.628   6.727   1.418 -0.6653  2.0591  1.5983
18574SOL    HW259639   5.561   6.635   1.519  0.9348 -0.3450  0.5546
18575SOL     OW59640   4.492   2.565   9.682  0.8347 -0.4222 -0.0051
18575SOL    HW159641   4.485   2.547   9.588  1.7816 -0.8030 -0.0078
18575SOL    HW259642   4.501   2.660   9.688  1.1442 -0.4333 -0.3171
18576SOL     OW59643   3.254   7.174   9.344 -0.4861 -0.0493 -0.5398
18576SOL    HW159644   3.331   7.185   9.289 -0.5352 -0.4456 -0.6917
18576SOL    HW259645   3.187   7.136   9.286 -0.4192 -0.8222 -0.1300
18577SOL     OW59646   2.709   6.574   4.131  0.2813  0.6006  0.0956
18577SOL    HW159647   2.669   6.550   4.215 -0.1122  0.0026 -0.2604
18577SOL    HW259648   2.795   6.607   4.155  0.8701 -1.2077  0.6117
18578SOL     OW59649   0.257   4.323   8.156  0.3654  0.6048 -0.0901
18578SOL    HW159650   0.243   4.244   8.105  0.4533  1.0026 -0.7336
18578SOL    HW259651   0.350   4.345   8.143  1.2017 -0.8822  2.5330
18579SOL     OW59652   8.328   7.209   9.754  0.0197  0.2015  0.1583
18579SOL    HW159653   8.372   7.294   9.759  1.1902 -0.1677 -2.3677
18579SOL    HW259654   8.344   7.169   9.840  0.1793  2.1546  1.0949
18580SOL     OW59655   5.523   1.436   1.910  0.1644 -0.2494  0.2835
18580SOL    HW159656   5.525   1.343   1.931  0.7572 -0.1394  0.7434
18580SOL    HW259657   5.613   1.457   1.884  0.1367  0.2836  0.5987
18581SOL     OW59658   1.280   8.620   5.314  0.4447  0.4656 -0.4003
18581SOL    HW159659   1.221   8.546   5.323  0.9584  0.1842  0.7903
18581SOL    HW259660   1.360   8.583   5.276  0.9908  0.2375  0.9270
18582SOL     OW59661   0.144   2.376   1.683  0.2549  0.2027  0.3589
18582SOL    HW159662   0.049   2.387   1.673  0.5126  0.2312 -3.5251
18582SOL    HW259663   0.162   2.289   1.649  1.7990  1.0370 -1.1002
18583SOL     OW59664   8.770   8.320   6.436 -0.3737  0.2476  0.0605
18583SOL    HW159665   8.847   8.292   6.388 -0.8054 -2.7923  0.9200
18583SOL    HW259666   8.786   8.293   6.527 -1.7541  1.0858  0.6059
18584SOL     OW59667   5.271   7.900   1.629  0.6396 -0.0524 -0.1039
18584SOL    HW159668   5.261   7.992   1.605  0.6576  0.3226  1.2672
18584SOL    HW259669   5.336   7.900   1.699  1.0068 -1.1691 -0.4216
18585SOL     OW59670   3.158   3.889  10.104 -0.1947  0.1640  0.6390
18585SOL    HW159671   3.117   3.974  10.117  1.1071  1.0910 -0.9049
18585SOL    HW259672   3.237   3.891  10.159  0.0028  0.0810  0.3604
18586SOL     OW59673   0.649   9.723   7.691 -0.1602  0.4462 -0.0897
18586SOL    HW159674   0.716   9.725   7.623  2.2661  0.8625  2.1444
18586SOL    HW259675   0.646   9.631   7.719  0.1210  0.5652  0.3550
18587SOL     OW59676   5.261   0.132   6.504 -0.1870  0.0290  0.0700
18587SOL    HW159677   5.284   0.124   6.412  0.1334  0.8415  0.0666
18587SOL    HW259678   5.209   0.054   6.523  0.0735 -0.3424 -0.6926
18588SOL     OW59679   9.110   1.515   4.795 -0.1584 -0.0809  0.0594
18588SOL    HW159680   9.180   1.553   4.742  0.4797  0.0584  0.9855
18588SOL    HW259681   9.155   1.460   4.859 -0.7218  1.5535  1.9710
18589SOL     OW59682   8.244   1.389   0.504  0.3404  0.3658 -0.2001
18589SOL    HW159683   8.194   1.454   0.455  0.0963 -1.1426 -2.0489
18589SOL    HW259684   8.179   1.329   0.540  0.6630 -0.0402 -0.2803
18590SOL     OW59685   0.997   6.845   3.223  0.3655  0.1722 -0.4177
18590SOL    HW159686   0.960   6.764   3.256  0.1792  0.2385 -0.4622
18590SOL    HW259687   0.936   6.873   3.154  1.1894 -0.4115 -1.4132
18591SOL     OW59688   3.832   1.918   1.910  0.3649 -0.4517 -0.5049
18591SOL    HW159689   3.877   1.957   1.835  0.0429 -1.3015 -1.1675
18591SOL    HW259690   3.750   1.886   1.874 -0.2224 -0.0291  0.4287
18592SOL     OW59691   5.394   6.930   7.212  0.4515  0.6061  0.4029
18592SOL    HW159692   5.389   6.918   7.306  1.0612  1.1246  0.5148
18592SOL    HW259693   5.486   6.953   7.196 -0.2150  3.4231  0.0617
18593SOL     OW59694   2.167   0.929   9.186  0.2400 -0.0265  0.3888
18593SOL    HW159695   2.238   0.875   9.222 -0.5328 -0.9255  0.6275
18593SOL    HW259696   2.126   0.969   9.263  0.8428  0.9608  0.2067
18594SOL     OW59697   9.781   5.504   2.317 -0.1282  0.2858  0.0124
18594SOL    HW159698   9.725   5.572   2.280  0.3438  0.2010 -0.8915
18594SOL    HW259699   9.860   5.550   2.345 -0.5061  0.3579  0.9966
18595SOL     OW59700   6.677   7.744   2.857  0.1959 -0.4009  0.1475
18595SOL    HW159701   6.714   7.777   2.775  1.6892 -1.9762  0.1241
18595SOL    HW259702   6.650   7.655   2.837  0.7844 -0.8907  1.4081
18596SOL     OW59703   0.732   6.170   2.513 -0.6785 -0.2393 -0.1553
18596SOL    HW159704   0.763   6.257   2.487  1.5932 -1.0693 -0.4200
18596SOL    HW259705   0.701   6.131   2.431 -1.0554  0.0482 -0.1553
18597SOL     OW59706   8.002   9.494   0.805  0.2213  0.2434  0.7790
18597SOL    HW159707   8.084   9.541   0.792  0.5510 -0.6444 -0.5898
18597SOL    HW259708   8.015   9.445   0.887  0.9861  0.2553  0.6698
18598SOL     OW59709   9.507   5.399   8.432 -0.4685  0.1093 -0.6192
18598SOL    HW159710   9.447   5.332   8.402 -1.1651  0.8009 -0.7995
18598SOL    HW259711   9.451   5.469   8.465  0.2540  0.3214  0.1973
18599SOL     OW59712   8.621   8.796   0.881  0.1694  0.5932  0.6802
18599SOL    HW159713   8.595   8.878   0.839  0.2377  0.9748  1.3713
18599SOL    HW259714   8.553   8.780   0.946 -0.6229 -0.6584 -0.4047
18600SOL     OW59715   9.139   5.834   5.729 -0.0821 -0.1655  0.0791
18600SOL    HW159716   9.093   5.755   5.757  0.6385 -0.8684 -0.6640
18600SOL    HW259717   9.194   5.805   5.657  1.0238  0.7951  0.5166
18601SOL     OW59718   9.527   8.149   8.530 -0.0405  0.8176 -0.4054
18601SOL    HW159719   9.607   8.198   8.548  0.3349  0.2307 -0.4487
18601SOL    HW259720   9.465   8.215   8.500  0.2848  1.3442  0.0674
18602SOL     OW59721   2.033   2.822   7.006 -0.1305 -0.4711 -0.0018
18602SOL    HW159722   1.989   2.906   7.018  0.9375  0.0674  0.2008
18602SOL    HW259723   1.966   2.757   7.030 -1.3082  0.2574 -1.2038
18603SOL     OW59724   0.153   8.361   4.982 -0.2355  0.2228 -0.7196
18603SOL    HW159725   0.091   8.321   4.920 -3.3783  1.8723  1.1029
18603SOL    HW259726   0.177   8.289   5.041 -1.1571 -0.2981 -0.9501
18604SOL     OW59727   0.306   4.298   1.708  0.3616 -0.2321 -0.0511
18604SOL    HW159728   0.282   4.226   1.765  2.6410 -0.9860  0.0467
18604SOL    HW259729   0.292   4.377   1.761 -2.0480 -0.5544 -0.1314
18605SOL     OW59730   5.252   0.724   4.648  0.1465 -1.3811 -0.5639
18605SOL    HW159731   5.192   0.767   4.587  0.2288  2.7037  1.8478
18605SOL    HW259732   5.339   0.737   4.610  0.0004 -1.0273 -0.7800
18606SOL     OW59733   9.423   0.650   8.381 -0.0191 -0.1153 -0.2955
18606SOL    HW159734   9.446   0.699   8.460  0.5199 -3.4162  1.7814
18606SOL    HW259735   9.508   0.622   8.345 -0.3479 -0.8793 -0.4958
18607SOL     OW59736   2.094   6.051   7.330  0.2292 -0.4116 -0.0005
18607SOL    HW159737   2.027   6.016   7.273  2.1458 -1.2500 -1.8564
18607SOL    HW259738   2.136   5.974   7.369  1.9806 -0.1146 -1.1638
18608SOL     OW59739  10.152   4.497   4.688  0.7666 -0.2591 -0.2000
18608SOL    HW159740  10.087   4.481   4.757  1.5098 -1.7720  0.1857
18608SOL    HW259741  10.173   4.410   4.653  2.6089  0.1673 -0.2749
18609SOL     OW59742   8.413   4.237   2.349 -0.3854  0.3710 -0.6540
18609SOL    HW159743   8.346   4.169   2.338 -0.9743  0.8937 -0.3987
18609SOL    HW259744   8.363   4.316   2.369  0.3110  0.8040 -0.5932
18610SOL     OW59745   5.602   9.756   0.076 -0.1194  0.4910  0.1389
18610SOL    HW159746   5.553   9.678   0.048 -0.6376  0.5120  0.9637
18610SOL    HW259747   5.693   9.727   0.077 -0.1246  0.3569 -1.0837
18611SOL     OW59748   6.397   2.257   2.112 -0.2875  0.0947  0.1988
18611SOL    HW159749   6.345   2.286   2.186 -1.1274  1.4684 -0.8806
18611SOL    HW259750   6.383   2.323   2.045  1.8013 -0.1916 -0.6118
18612SOL     OW59751   0.235   4.131   0.365  0.2424 -0.3166 -0.0086
18612SOL    HW159752   0.322   4.097   0.388  0.4564  0.9599  1.2697
18612SOL    HW259753   0.179   4.102   0.436 -0.5247 -1.6072 -1.1171
18613SOL     OW59754   3.366   3.484   4.516 -0.2185  0.0866  0.1786
18613SOL    HW159755   3.319   3.492   4.433 -1.3438 -0.2447  0.7605
18613SOL    HW259756   3.342   3.562   4.566 -1.4268 -0.8233  1.0823
18614SOL     OW59757   8.583   3.412   0.056  0.1415  0.0258 -0.4202
18614SOL    HW159758   8.642   3.371   0.119 -1.0154  0.6928  1.1690
18614SOL    HW259759   8.631   3.490   0.026  0.8790 -0.5333 -0.7155
18615SOL     OW59760   9.063   6.430   5.515 -0.3236  0.1148 -0.3162
18615SOL    HW159761   9.125   6.360   5.496 -0.5124 -0.0721 -0.2434
18615SOL    HW259762   9.111   6.510   5.494 -0.2474 -0.0533 -0.7903
18616SOL     OW59763   4.821   4.318   7.675 -0.2055 -0.0963 -0.0780
18616SOL    HW159764   4.814   4.287   7.766 -0.3914  0.3723  0.0664
18616SOL    HW259765   4.741   4.368   7.660 -0.2363 -0.2848 -0.5468
18617SOL     OW59766   1.272   1.777   9.179  0.5100  0.0188  0.7981
18617SOL    HW159767   1.357   1.735   9.167  0.4425 -0.0697  0.6284
18617SOL    HW259768   1.292   1.871   9.181  0.4276  0.1191 -1.0292
18618SOL     OW59769   3.939   1.773   6.594  0.1302 -0.5219 -0.1762
18618SOL    HW159770   3.878   1.812   6.657 -0.5532 -0.9259 -0.5871
18618SOL    HW259771   3.906   1.684   6.580  0.6072 -0.6246 -0.6786
18619SOL     OW59772   7.440   9.457   6.343 -0.6031  0.0834 -0.5480
18619SOL    HW159773   7.386   9.462   6.264 -3.3772 -0.7621  1.1320
18619SOL    HW259774   7.517   9.407   6.316 -2.3129 -1.7989 -2.3419
18620SOL     OW59775   3.646   7.373   7.962  0.2083  0.1720 -0.0112
18620SOL    HW159776   3.671   7.429   7.889  0.4432 -1.2926 -1.1189
18620SOL    HW259777   3.690   7.289   7.943 -1.2328 -0.8167  0.8225
18621SOL     OW59778   5.339   1.058   3.102 -1.0040  0.0525 -0.5362
18621SOL    HW159779   5.255   1.097   3.125 -0.4030 -0.3495  2.8853
18621SOL    HW259780   5.399   1.132   3.090 -1.1213  0.3080  0.3887
18622SOL     OW59781   7.326   6.980   8.127  0.2562  0.4371  0.0645
18622SOL    HW159782   7.371   7.060   8.100  2.6729 -1.0996 -0.7682
18622SOL    HW259783   7.237   6.990   8.093  0.8624  2.2137 -1.1138
18623SOL     OW59784   2.500   7.491   8.240 -0.3433 -0.0292  0.2293
18623SOL    HW159785   2.458   7.406   8.249  2.5168 -1.6173 -0.3390
18623SOL    HW259786   2.452   7.535   8.169 -1.3287 -1.5334 -0.0632
18624SOL     OW59787   3.428   6.574   5.613  0.2598  0.6946 -0.2705
18624SOL    HW159788   3.426   6.499   5.554  0.9445 -1.1473  1.9393
18624SOL    HW259789   3.521   6.596   5.621  0.1802  0.8903  0.1663
18625SOL     OW59790   4.248   5.344   5.316 -0.5173 -0.2373 -0.1364
18625SOL    HW159791   4.216   5.256   5.296 -0.6756  0.2599 -2.2984
18625SOL    HW259792   4.341   5.341   5.292 -0.6005  0.2595 -0.5407
18626SOL     OW59793   6.690   3.435   1.006  0.5591  0.0481 -0.0808
18626SOL    HW159794   6.622   3.416   0.942  0.0538  0.2049  0.4051
18626SOL    HW259795   6.658   3.512   1.053  0.5918 -0.4780  0.8281
18627SOL     OW59796   7.356   2.777   1.107 -0.4757 -0.3512 -0.1342
18627SOL    HW159797   7.318   2.704   1.156  1.0489 -0.1102  1.5271
18627SOL    HW259798   7.330   2.855   1.156  2.1184 -0.1835  1.1960
18628SOL     OW59799   9.514   7.721   8.859  0.1030  0.2101 -0.0346
18628SOL    HW159800   9.532   7.789   8.794  0.0018 -1.6631 -2.1558
18628SOL    HW259801   9.565   7.645   8.829  0.0803 -0.7461  2.1313
18629SOL     OW59802   4.799   4.855   3.014 -0.0192 -0.2192  0.2676
18629SOL    HW159803   4.761   4.830   3.098  0.7314  0.9629  0.9765
18629SOL    HW259804   4.799   4.774   2.963 -2.0988 -0.5952  0.7544
18630SOL     OW59805  10.196   1.336   6.200  0.2553 -0.4582  0.3867
18630SOL    HW159806  10.223   1.394   6.129  0.9445  0.0720  1.0723
18630SOL    HW259807  10.122   1.286   6.163  1.6987 -1.4574 -1.3054
18631SOL     OW59808   1.175   0.858   8.757 -0.3393 -0.9722  0.1959
18631SOL    HW159809   1.137   0.826   8.839  2.1198 -1.7150  1.1414
18631SOL    HW259810   1.269   0.861   8.774  0.6211 -3.6787 -3.3684
18632SOL     OW59811   0.077   7.318   3.218  0.3362 -0.8235 -0.6448
18632SOL    HW159812   0.165   7.300   3.249  0.2620  1.2096  0.9948
18632SOL    HW259813   0.087   7.396   3.162 -0.2910 -1.2215 -1.3351
18633SOL     OW59814   0.548   8.676   8.582 -0.3228 -0.5307 -0.0920
18633SOL    HW159815   0.476   8.735   8.560 -2.3985 -2.4300  1.1304
18633SOL    HW259816   0.607   8.679   8.506 -1.9090  0.7749 -1.3310
18634SOL     OW59817   2.091   9.248   7.726 -0.8080 -0.7585 -0.1344
18634SOL    HW159818   2.074   9.192   7.650  0.0777 -0.4768 -0.5617
18634SOL    HW259819   2.182   9.228   7.750 -0.3542  0.7209 -0.5030
18635SOL     OW59820   7.609   4.095   0.310  0.6136  0.3208 -0.4648
18635SOL    HW159821   7.634   4.073   0.400 -0.6905 -1.5270 -0.5048
18635SOL    HW259822   7.619   4.013   0.262  2.2703  1.5025 -2.2845
18636SOL     OW59823   3.675   4.563   3.796 -0.0917 -0.2487 -0.1611
18636SOL    HW159824   3.751   4.620   3.809 -0.1511 -0.1635 -0.1882
18636SOL    HW259825   3.663   4.560   3.701  1.7550 -2.6994 -0.4169
18637SOL     OW59826   6.186   5.443   9.985  0.2757 -0.2413 -0.6519
18637SOL    HW159827   6.201   5.485   9.900  1.4618 -0.6806 -0.6825
18637SOL    HW259828   6.142   5.510  10.038 -0.2840  0.1099 -1.5299
18638SOL     OW59829   0.035   9.157   6.391 -0.1772 -0.0908  0.4433
18638SOL    HW159830   0.085   9.233   6.362 -1.2584  1.5648  2.6469
18638SOL    HW259831  -0.050   9.168   6.348 -0.0615 -0.5524  0.0880
18639SOL     OW59832   8.421   0.209   2.592  0.3215 -0.0147 -0.5289
18639SOL    HW159833   8.433   0.296   2.555 -0.0715  0.1036 -0.3884
18639SOL    HW259834   8.378   0.225   2.677  1.2569 -0.2768  0.0093
18640SOL     OW59835   0.394   4.004   7.544  0.3497  0.8121  0.2428
18640SOL    HW159836   0.388   3.912   7.568  0.2360  0.5604 -0.6920
18640SOL    HW259837   0.469   4.038   7.593 -0.3708  0.5479  1.5648
18641SOL     OW59838   6.026   0.415   4.563  0.1221  0.5771  0.3899
18641SOL    HW159839   6.102   0.389   4.616 -0.0241 -2.5870 -0.7776
18641SOL    HW259840   6.062   0.429   4.476 -0.3416  1.1660  0.2863
18642SOL     OW59841   9.288  10.093   2.805 -0.0358 -0.1762 -0.6390
18642SOL    HW159842   9.374  10.053   2.795 -0.0426 -0.2230 -0.5222
18642SOL    HW259843   9.278  10.150   2.729  0.6380  0.8320  0.0115
18643SOL     OW59844   6.790   6.224   9.457 -0.3607 -0.4625  0.4863
18643SOL    HW159845   6.841   6.177   9.523  0.0450 -1.7925 -0.7092
18643SOL    HW259846   6.705   6.180   9.456 -0.3199 -0.5334  0.0402
18644SOL     OW59847   4.858   1.528   5.946 -0.0931 -0.0454  0.3920
18644SOL    HW159848   4.853   1.442   5.987 -2.5842  0.0399  0.3797
18644SOL    HW259849   4.812   1.518   5.863 -0.0899  1.2167  0.2176
18645SOL     OW59850   2.077   9.478   6.575 -0.4620 -0.0869  0.3432
18645SOL    HW159851   2.056   9.418   6.647 -1.7320  1.0821  0.9787
18645SOL    HW259852   2.053   9.430   6.496  0.6014 -1.2448  0.6750
18646SOL     OW59853   8.256   8.502   6.124  0.7074  0.0534 -0.0666
18646SOL    HW159854   8.199   8.572   6.158  2.4834  0.6354  1.8947
18646SOL    HW259855   8.229   8.424   6.172  2.0237  0.5063  1.5079
18647SOL     OW59856   1.673   8.870   4.484 -0.2811  0.7364 -0.3566
18647SOL    HW159857   1.635   8.924   4.414 -0.7513  2.2908  1.0461
18647SOL    HW259858   1.632   8.901   4.564  0.7401 -0.5540  0.7222
18648SOL     OW59859   2.669   3.350   7.370  0.0825 -0.0263  0.4193
18648SOL    HW159860   2.664   3.388   7.282  3.8240  1.0099  0.4832
18648SOL    HW259861   2.703   3.262   7.355  0.2807 -0.0134  0.7957
18649SOL     OW59862   5.400   6.319   9.231 -0.0330  1.0247  0.0236
18649SOL    HW159863   5.318   6.350   9.269 -1.1223  0.4545 -1.7876
18649SOL    HW259864   5.394   6.224   9.234  0.2828  0.9791 -0.7136
18650SOL     OW59865   9.863   3.296   7.708 -0.3320  0.1310  0.0072
18650SOL    HW159866   9.899   3.226   7.654 -3.6228 -0.6406 -1.3952
18650SOL    HW259867   9.832   3.252   7.788  0.0434  0.4582  0.3389
18651SOL     OW59868   6.817   8.665   5.544 -0.0593 -0.2710  0.3033
18651SOL    HW159869   6.737   8.626   5.578  0.6150 -2.3700 -0.3954
18651SOL    HW259870   6.886   8.605   5.569  1.2020  1.0437  0.1061
18652SOL     OW59871   4.412   9.422   4.727 -0.5672 -0.0508  0.6855
18652SOL    HW159872   4.393   9.513   4.750 -0.4981  0.0252  0.4460
18652SOL    HW259873   4.395   9.417   4.633 -1.3653 -0.4872  0.8399
18653SOL     OW59874   2.702   1.178   8.397  0.2816 -0.3686 -0.4127
18653SOL    HW159875   2.692   1.227   8.316 -0.9421  0.3186  0.1320
18653SOL    HW259876   2.724   1.244   8.463  0.9890 -0.8826 -0.1219
18654SOL     OW59877   3.541   9.674   1.584 -0.1310 -0.0983 -0.0636
18654SOL    HW159878   3.471   9.615   1.555 -1.0559  1.0723 -0.3164
18654SOL    HW259879   3.595   9.687   1.506 -0.2850 -0.1285 -0.1770
18655SOL     OW59880   3.819   0.479   9.519 -0.1524  0.4539  0.6783
18655SOL    HW159881   3.757   0.542   9.557 -0.3204  0.3085  0.6432
18655SOL    HW259882   3.766   0.422   9.464 -0.1072 -0.1325  1.2259
18656SOL     OW59883   0.166   8.538   3.366  0.3399  0.2354 -0.4929
18656SOL    HW159884   0.207   8.488   3.437  0.9497  0.2203 -0.8476
18656SOL    HW259885   0.078   8.559   3.399 -0.1883 -1.6307 -0.5756
18657SOL     OW59886   6.019   9.577   3.188 -0.2886 -0.2147 -0.0271
18657SOL    HW159887   5.980   9.636   3.253  3.1428 -0.4360  2.5172
18657SOL    HW259888   5.997   9.490   3.220  1.7727 -0.3316  1.1949
18658SOL     OW59889   4.051   7.380   1.121  0.0858 -0.1395 -0.3358
18658SOL    HW159890   4.038   7.371   1.216  1.4867  0.6516 -0.0467
18658SOL    HW259891   3.963   7.388   1.086 -0.4435 -0.1432  0.9357
18659SOL     OW59892   4.447   6.716   5.581 -0.0048  0.1191  0.1945
18659SOL    HW159893   4.388   6.791   5.571  1.0134  0.8461 -0.6740
18659SOL    HW259894   4.455   6.680   5.493  1.3259  0.4262  0.1659
18660SOL     OW59895   2.515   0.046   2.023  0.4101 -0.3104 -0.2041
18660SOL    HW159896   2.542   0.085   2.106 -2.7093  0.2207  0.6878
18660SOL    HW259897   2.526   0.115   1.958 -1.1902  0.8048  0.6293
18661SOL     OW59898   1.627   1.108   5.353  0.2397  0.2533  0.0031
18661SOL    HW159899   1.606   1.025   5.310 -0.3403 -0.3161  1.3275
18661SOL    HW259900   1.719   1.099   5.378  0.4549  0.4136 -0.7113
18662SOL     OW59901   2.662   3.783   9.938  0.0793 -0.6432  0.0784
18662SOL    HW159902   2.717   3.856   9.968 -0.6030 -0.0547 -0.0821
18662SOL    HW259903   2.693   3.707   9.988  0.2172 -0.0634  0.8782
18663SOL     OW59904   6.328   0.246   5.933  0.8018  0.4298  0.4848
18663SOL    HW159905   6.406   0.199   5.904 -1.6329 -3.8345  0.0474
18663SOL    HW259906   6.290   0.283   5.853  0.8617 -0.0009  0.2601
18664SOL     OW59907   0.533   7.455   6.320 -0.0945  0.2005 -0.1378
18664SOL    HW159908   0.543   7.369   6.280 -1.5623  0.4429 -1.0946
18664SOL    HW259909   0.608   7.505   6.289  0.8225 -0.7417  0.5024
18665SOL     OW59910   2.016   6.819   1.416 -0.0973 -0.3983 -0.4424
18665SOL    HW159911   1.994   6.764   1.341  0.0096 -0.3387 -0.5182
18665SOL    HW259912   1.937   6.820   1.469  0.3754 -1.8480  0.3413
18666SOL     OW59913   5.077   8.630   9.989  0.4454  0.4606  0.3342
18666SOL    HW159914   5.135   8.665  10.057  0.9037  1.2769 -0.4547
18666SOL    HW259915   5.039   8.707   9.947 -0.6696 -0.0577  0.3599
18667SOL     OW59916   4.490   7.233   9.706 -0.3206  0.4187 -0.4916
18667SOL    HW159917   4.565   7.178   9.685 -0.2197 -0.2423  1.4530
18667SOL    HW259918   4.414   7.178   9.686 -0.2245 -0.2269  0.8299
18668SOL     OW59919   4.116   6.543   2.720 -0.2828  0.2977 -0.0453
18668SOL    HW159920   4.022   6.521   2.721 -0.2119 -0.1373 -1.2200
18668SOL    HW259921   4.127   6.597   2.642  0.2227  1.5158  0.8308
18669SOL     OW59922   5.818   5.135  10.048 -0.3810  0.0503 -0.3259
18669SOL    HW159923   5.757   5.062  10.061 -0.7389  0.3781 -0.1488
18669SOL    HW259924   5.819   5.149   9.953  2.3268 -2.4256 -0.8051
18670SOL     OW59925   9.631   8.044   7.971  0.4598 -0.5020 -0.1950
18670SOL    HW159926   9.609   7.973   8.032  1.6105 -1.3084 -0.6969
18670SOL    HW259927   9.653   8.118   8.028 -0.0020 -0.7660  0.3454
18671SOL     OW59928   1.767   6.908   7.133 -0.6673 -0.4839 -0.1221
18671SOL    HW159929   1.809   6.993   7.145 -0.3344 -0.4283 -1.5440
18671SOL    HW259930   1.689   6.912   7.188 -1.5775  1.4151 -1.4575
18672SOL     OW59931   9.279   5.936   8.983 -0.3278  0.6513 -0.1487
18672SOL    HW159932   9.184   5.936   8.987 -0.3849  0.8888 -1.1510
18672SOL    HW259933   9.307   5.903   9.068 -1.3201 -0.3319 -0.1826
18673SOL     OW59934   7.531   5.020   1.541 -0.6178 -0.3822  0.5738
18673SOL    HW159935   7.467   4.949   1.536 -0.9740 -0.1761  1.8130
18673SOL    HW259936   7.543   5.035   1.634  0.4118  0.3441  0.3463
18674SOL     OW59937   0.997   8.661   9.310  0.3883  0.8443  0.2184
18674SOL    HW159938   0.913   8.688   9.272  0.5494  0.7293 -0.2279
18674SOL    HW259939   1.001   8.707   9.394  0.1053  1.2473  0.0165
18675SOL     OW59940   9.188   3.272   7.752 -0.1517 -0.4558  0.1238
18675SOL    HW159941   9.201   3.273   7.847  0.6660  0.0664  0.0170
18675SOL    HW259942   9.201   3.180   7.728  1.0154 -0.3728  0.3550
18676SOL     OW59943   1.199   5.054   4.169 -0.1165  0.3939 -0.6315
18676SOL    HW159944   1.227   5.013   4.088 -0.1830  0.4250 -0.6706
18676SOL    HW259945   1.270   5.114   4.191  0.2186 -0.1214 -0.2955
18677SOL     OW59946   9.363   7.097   6.805 -0.2329  0.1924  0.2336
18677SOL    HW159947   9.401   7.075   6.720  0.1197  0.3097  0.3584
18677SOL    HW259948   9.346   7.191   6.800  0.0882  0.2607  0.4080
18678SOL     OW59949   6.052   7.085   6.398  0.1058  0.4193 -0.4283
18678SOL    HW159950   6.139   7.120   6.375  1.3238 -1.5037  0.9639
18678SOL    HW259951   6.045   7.005   6.346 -0.4457  0.0912  0.1518
18679SOL     OW59952   7.864   3.671   6.061  0.0331  0.0971 -0.1380
18679SOL    HW159953   7.776   3.639   6.041 -1.0596  2.8785 -0.2823
18679SOL    HW259954   7.864   3.685   6.156  0.2348  0.2647 -0.1593
18680SOL     OW59955   7.642   1.333  10.206 -0.3840  0.1485  0.2437
18680SOL    HW159956   7.683   1.319  10.291 -1.0647 -0.7482  0.4339
18680SOL    HW259957   7.685   1.272  10.147  0.8185  1.4866 -0.3269
18681SOL     OW59958   9.244   0.449   8.434  0.4038 -0.1801 -0.6058
18681SOL    HW159959   9.271   0.398   8.510 -0.3279  0.0142 -0.2088
18681SOL    HW259960   9.315   0.511   8.420  1.8892 -2.0618 -1.8304
18682SOL     OW59961   1.954   8.657   7.714 -0.3315  0.0322  0.2058
18682SOL    HW159962   1.887   8.626   7.653  0.1869  0.3818 -0.5648
18682SOL    HW259963   2.009   8.580   7.730 -0.6914 -0.1584  0.5436
18683SOL     OW59964   6.833   6.737   2.418 -0.6475 -0.0926 -0.2072
18683SOL    HW159965   6.815   6.773   2.331 -0.4939  0.6210  0.0473
18683SOL    HW259966   6.863   6.648   2.402 -2.2006 -0.5494 -0.7822
18684SOL     OW59967   0.499   8.800   1.037  0.5111  0.4747 -0.1257
18684SOL    HW159968   0.492   8.836   1.126  2.9532  1.3105 -0.1812
18684SOL    HW259969   0.474   8.873   0.980  1.0116  0.6338 -0.1482
18685SOL     OW59970   0.146   0.182   1.493  0.2632 -0.2714  0.4970
18685SOL    HW159971   0.192   0.098   1.496  2.2972  0.8084  1.6201
18685SOL    HW259972   0.121   0.199   1.584 -1.6770 -0.4085  0.0350
18686SOL     OW59973   5.578   7.525   3.596 -0.2386 -0.2807  0.2155
18686SOL    HW159974   5.579   7.431   3.617 -2.0752  0.0929  2.3216
18686SOL    HW259975   5.485   7.547   3.590  0.1139  1.6960  1.2110
18687SOL     OW59976   9.382   2.748   5.008 -0.3985 -0.1292 -0.6296
18687SOL    HW159977   9.303   2.758   4.956 -1.1517 -1.6352  0.1410
18687SOL    HW259978   9.398   2.834   5.046 -1.0196  0.4638 -1.6777
18688SOL     OW59979   8.193   2.866   0.514  0.1745 -0.2898  0.3220
18688SOL    HW159980   8.226   2.944   0.469  0.7485  0.3525  1.8014
18688SOL    HW259981   8.103   2.889   0.537  0.0909 -0.3679  0.0743
18689SOL     OW59982   6.600   4.909   5.344  0.0641 -0.0305  0.0251
18689SOL    HW159983   6.568   4.881   5.258  0.7016 -0.5517 -0.0473
18689SOL    HW259984   6.653   4.836   5.375 -0.3319  0.0656  0.9650
18690SOL     OW59985   2.242   1.119   6.313  0.4060  0.2233 -0.0065
18690SOL    HW159986   2.173   1.175   6.350 -0.1224 -0.3873 -0.0575
18690SOL    HW259987   2.322   1.148   6.357 -0.0660  0.1267  0.9521
18691SOL     OW59988   4.150   8.005   5.161 -0.4290 -0.1795 -0.3711
18691SOL    HW159989   4.094   7.954   5.102  0.3428  1.3157 -2.5212
18691SOL    HW259990   4.239   7.980   5.137 -0.0757  1.2481 -0.6026
18692SOL     OW59991   3.066   4.633   3.461 -0.4747 -0.7833  0.1798
18692SOL    HW159992   2.979   4.594   3.451 -0.5853 -0.5270  0.1052
18692SOL    HW259993   3.071   4.697   3.390 -0.2781 -0.7012  0.2671
18693SOL     OW59994   4.459   1.058   6.306  0.6882 -0.5464 -0.5735
18693SOL    HW159995   4.401   1.019   6.372  2.0835  0.6550  1.4665
18693SOL    HW259996   4.507   0.983   6.271 -1.0350 -1.3825 -1.2839
18694SOL     OW59997   0.649   7.411   4.406  0.3926  0.1293 -0.5886
18694SOL    HW159998   0.571   7.377   4.363  0.4053  0.3309 -0.7736
18694SOL    HW259999   0.675   7.342   4.467  0.9173 -0.5749 -1.5665
18695SOL     OW60000   1.067   2.547   3.541 -0.0207 -0.1369 -0.2904
18695SOL    HW160001   1.046   2.455   3.558 -0.0225 -0.3491 -1.4001
18695SOL    HW260002   1.105   2.578   3.624  1.2656 -1.5040 -0.3280
18696SOL     OW60003  10.030   6.465   2.544  0.7430 -0.2457  0.0555
18696SOL    HW160004   9.957   6.405   2.551 -0.3909  1.0715  0.0074
18696SOL    HW260005  10.030   6.511   2.628  1.0935  0.2174 -0.1939
18697SOL     OW60006   7.457   5.645   2.204 -0.1632  0.1454 -0.7420
18697SOL    HW160007   7.370   5.620   2.174  0.5179 -1.1065 -1.7756
18697SOL    HW260008   7.475   5.585   2.276 -0.7060  1.3656  0.4564
18698SOL     OW60009   6.324   3.193   8.746  0.4095  0.2089  0.5776
18698SOL    HW160010   6.333   3.101   8.723  0.5401  0.4777 -0.4863
18698SOL    HW260011   6.352   3.241   8.668 -2.5114  1.1274 -0.0377
18699SOL     OW60012   2.634   3.978   2.569  0.4041 -0.4769 -1.3170
18699SOL    HW160013   2.592   4.029   2.638  0.7498 -0.7241 -0.9193
18699SOL    HW260014   2.682   4.042   2.517  0.0039 -0.2684 -1.4288
18700SOL     OW60015   6.074   2.337   7.073  0.0936 -0.4498  0.3815
18700SOL    HW160016   6.147   2.288   7.036  0.1572  0.2316 -0.4368
18700SOL    HW260017   5.995   2.295   7.037  0.1258 -0.4515  0.3128
18701SOL     OW60018   3.776   5.589   7.999 -0.8020  0.1946 -0.3757
18701SOL    HW160019   3.687   5.568   8.026 -0.7189  0.9876  0.5936
18701SOL    HW260020   3.799   5.522   7.935 -1.9696 -0.2123 -0.3840
18702SOL     OW60021   7.426   7.338   7.412 -0.1938 -0.3069 -0.0213
18702SOL    HW160022   7.486   7.323   7.484  0.4522 -0.3705 -0.5637
18702SOL    HW260023   7.469   7.299   7.336 -1.4409 -1.3771 -0.2148
18703SOL     OW60024   4.857   9.169   7.908  0.7504  0.3803 -0.2217
18703SOL    HW160025   4.827   9.093   7.959  1.4964 -0.7999 -1.4789
18703SOL    HW260026   4.836   9.244   7.963 -1.5622 -0.5899  0.3523
18704SOL     OW60027   9.631   5.572   8.777 -0.7698 -0.2103  0.0698
18704SOL    HW160028   9.669   5.593   8.863 -0.2767  0.1260 -0.2201
18704SOL    HW260029   9.658   5.645   8.722 -1.9498  0.0868 -0.1255
18705SOL     OW60030   1.291   1.768  10.098 -0.1577 -0.0579  0.1105
18705SOL    HW160031   1.316   1.790  10.188 -1.1139 -0.2859  0.4533
18705SOL    HW260032   1.204   1.807  10.087 -1.1412 -2.0790  0.1430
18706SOL     OW60033   2.318   2.878   0.889 -0.5483  0.1707  0.2199
18706SOL    HW160034   2.395   2.859   0.836  0.0628  3.2982 -0.1752
18706SOL    HW260035   2.256   2.808   0.868  1.4829 -1.3990 -0.8273
18707SOL     OW60036   4.456   1.886  10.027  0.4019 -0.0129  0.1058
18707SOL    HW160037   4.522   1.956  10.025  1.7131 -1.2107 -0.2400
18707SOL    HW260038   4.465   1.847  10.113  0.2226 -0.2569  0.0162
18708SOL     OW60039   0.196   7.328   0.080 -1.1901 -0.0127 -0.0978
18708SOL    HW160040   0.133   7.325   0.008  0.2236 -0.8278 -1.3630
18708SOL    HW260041   0.270   7.378   0.045  0.1453 -1.6615  0.1844
18709SOL     OW60042   5.277   1.076   5.738 -0.5376  0.1579 -0.2391
18709SOL    HW160043   5.260   1.137   5.666  1.4426  2.8445  1.3745
18709SOL    HW260044   5.371   1.079   5.751 -0.7698 -0.5846  2.1419
18710SOL     OW60045   9.494   9.391   1.515 -0.1489 -0.2030 -0.4366
18710SOL    HW160046   9.449   9.344   1.444 -0.3094  0.8572 -1.0660
18710SOL    HW260047   9.455   9.478   1.514  0.4193  0.0742  0.4421
18711SOL     OW60048   5.412   1.496   9.870  0.5640  0.8029 -0.1358
18711SOL    HW160049   5.374   1.559   9.809  4.1412  2.0422 -1.3541
18711SOL    HW260050   5.494   1.470   9.829  1.5298 -0.9421  2.6376
18712SOL     OW60051   6.971   2.553   5.097 -0.2100  0.2561  0.0180
18712SOL    HW160052   6.930   2.479   5.143 -0.2731  1.2029  1.5752
18712SOL    HW260053   6.959   2.533   5.004 -0.5915 -1.4728  0.3937
18713SOL     OW60054   7.062   5.571   6.621  0.0859 -0.3702  0.5789
18713SOL    HW160055   7.015   5.534   6.696  0.0687  1.2183  1.3943
18713SOL    HW260056   7.151   5.535   6.628 -0.3057 -1.3843  0.4925
18714SOL     OW60057   2.750   1.500   2.562 -0.6474  0.3279 -0.1529
18714SOL    HW160058   2.797   1.441   2.504  1.1595 -1.1833  2.5856
18714SOL    HW260059   2.779   1.588   2.535 -0.4717 -0.2490 -1.9413
18715SOL     OW60060   1.733   5.997   1.963 -0.3312  0.2458 -0.3058
18715SOL    HW160061   1.750   5.904   1.980 -1.7114  0.2249  1.1352
18715SOL    HW260062   1.819   6.039   1.969 -0.0445 -0.5352  1.8791
18716SOL     OW60063   9.050   5.083   1.295 -0.5316 -0.2906 -0.5345
18716SOL    HW160064   9.088   5.120   1.375 -0.6473  1.7288 -1.3740
18716SOL    HW260065   8.959   5.063   1.320 -0.7512  0.9178 -0.3129
18717SOL     OW60066   7.692   4.402   5.127 -0.8445 -0.3870  0.0608
18717SOL    HW160067   7.702   4.486   5.081 -0.9370  0.2791  1.2061
18717SOL    HW260068   7.760   4.404   5.195 -2.0994 -0.3551  1.3583
18718SOL     OW60069   9.115   9.823   5.908 -0.5329 -0.1141  0.0904
18718SOL    HW160070   9.029   9.848   5.943 -2.0271 -0.8459 -2.6815
18718SOL    HW260071   9.138   9.894   5.848  0.4520 -0.2737  0.2724
18719SOL     OW60072   2.216   8.752   0.311 -0.3497 -0.5178  0.0942
18719SOL    HW160073   2.182   8.735   0.223 -0.8931  1.8826 -0.2484
18719SOL    HW260074   2.216   8.848   0.318  0.8656 -0.6118  2.2660
18720SOL     OW60075   6.198   5.510   6.950  0.0434  0.0940 -0.2649
18720SOL    HW160076   6.284   5.522   6.910  0.4435 -0.4178  0.4170
18720SOL    HW260077   6.172   5.422   6.924 -0.5181  0.4473 -0.9096
18721SOL     OW60078   2.843  10.154   4.640  0.2520  0.0713 -0.0131
18721SOL    HW160079   2.879  10.093   4.575  0.1690  0.4876 -0.4521
18721SOL    HW260080   2.913  10.165   4.704  2.0303  2.9321 -2.1978
18722SOL     OW60081   2.620   1.671   8.755 -1.3510  0.1886 -0.1347
18722SOL    HW160082   2.695   1.621   8.725 -0.1749  2.5498 -1.4605
18722SOL    HW260083   2.641   1.697   8.844  0.5792  2.6129 -1.1503
18723SOL     OW60084   9.276   2.693   5.249 -0.4847 -0.8326 -0.1135
18723SOL    HW160085   9.321   2.706   5.166 -0.8351 -1.3104 -0.3835
18723SOL    HW260086   9.332   2.736   5.314 -0.4195 -0.0788 -0.6511
18724SOL     OW60087   3.859   3.024   2.847 -0.1131  0.2101  0.3322
18724SOL    HW160088   3.812   3.100   2.881  0.6098  0.1065  1.6308
18724SOL    HW260089   3.799   2.951   2.861 -1.7995  0.7615 -3.0438
18725SOL     OW60090   3.587   5.268   6.094 -0.0334 -0.1535  0.1332
18725SOL    HW160091   3.658   5.223   6.138  0.3146  0.1769 -0.0804
18725SOL    HW260092   3.615   5.273   6.002  0.2587  1.1105  0.2737
18726SOL     OW60093   1.649   1.615   0.418 -0.5303  0.3636 -0.3936
18726SOL    HW160094   1.725   1.567   0.386 -1.2548 -0.9815 -0.1834
18726SOL    HW260095   1.575   1.577   0.370 -1.6285 -1.5522  2.5759
18727SOL     OW60096   3.134   9.520   4.272 -0.2755  0.3041  0.5351
18727SOL    HW160097   3.047   9.497   4.239 -0.4880 -0.6642  1.6735
18727SOL    HW260098   3.183   9.547   4.194 -0.5263 -2.5530 -0.7509
18728SOL     OW60099   1.150   8.521   6.691  0.5126 -0.1502  0.4117
18728SOL    HW160100   1.209   8.501   6.619  1.1498 -2.3444  1.4561
18728SOL    HW260101   1.092   8.446   6.697 -0.0930  0.3838  1.6374
18729SOL     OW60102   4.668   7.559   1.311  0.1136 -0.0844  0.9602
18729SOL    HW160103   4.749   7.587   1.354  0.2771  1.9589 -0.5234
18729SOL    HW260104   4.601   7.618   1.345 -0.2371 -0.1079  0.3265
18730SOL     OW60105   9.363   1.040   1.443  0.0289  0.3275 -0.0587
18730SOL    HW160106   9.353   1.119   1.495  2.0247  1.2448 -0.9723
18730SOL    HW260107   9.362   1.071   1.352 -0.8930 -0.9325 -0.5071
18731SOL     OW60108   1.204   8.178   5.278 -0.1291  0.1098  0.1008
18731SOL    HW160109   1.174   8.088   5.262  0.1925 -0.1041  0.6383
18731SOL    HW260110   1.221   8.180   5.373  2.4957 -0.0918 -0.2922
18732SOL     OW60111   6.897   0.468   5.505  0.1653 -0.5934 -0.1044
18732SOL    HW160112   6.914   0.507   5.591 -1.2749 -0.4979  0.1767
18732SOL    HW260113   6.820   0.413   5.520  0.2738 -1.0560 -1.2034
18733SOL     OW60114   0.225   3.194   0.392 -0.5308 -0.1300  0.3515
18733SOL    HW160115   0.141   3.229   0.363 -0.9017 -0.9091  0.4665
18733SOL    HW260116   0.206   3.152   0.476  0.2172  0.7381  0.9683
18734SOL     OW60117   0.198   3.780   3.390  0.2559 -0.0268 -0.2779
18734SOL    HW160118   0.183   3.690   3.419  2.4853 -0.1322  0.6824
18734SOL    HW260119   0.188   3.776   3.295  0.1402 -1.2535 -0.2297
18735SOL     OW60120   4.585   2.878   5.603 -0.3206 -0.7092 -0.0812
18735SOL    HW160121   4.645   2.809   5.631  2.1182  1.1226 -0.4758
18735SOL    HW260122   4.554   2.919   5.684 -0.7657 -1.4104  0.1100
18736SOL     OW60123   6.853   0.815   7.574  0.1274  0.2457 -0.3878
18736SOL    HW160124   6.864   0.828   7.668 -1.1587  0.5021 -0.2619
18736SOL    HW260125   6.891   0.729   7.557 -0.0732 -0.0155  0.4524
18737SOL     OW60126   0.176   8.692   1.142 -0.0441 -0.3695  0.0205
18737SOL    HW160127   0.142   8.611   1.179 -0.9636 -0.4740 -1.0065
18737SOL    HW260128   0.271   8.684   1.151 -0.0448 -2.0280 -0.9880
18738SOL     OW60129   7.631   7.813   4.115  0.0748  0.1665  0.0821
18738SOL    HW160130   7.632   7.723   4.148  0.2715 -0.2980 -1.1164
18738SOL    HW260131   7.661   7.805   4.024 -2.0935  1.1204 -0.7990
18739SOL     OW60132   3.857   5.191   1.544 -0.3533 -0.1642 -0.2504
18739SOL    HW160133   3.816   5.253   1.485 -1.0840  0.7870  1.1825
18739SOL    HW260134   3.787   5.130   1.568  0.0383 -0.7934 -0.6680
18740SOL     OW60135   3.227   8.800   7.743 -0.7775 -0.1358 -0.1170
18740SOL    HW160136   3.261   8.783   7.655 -0.2392  1.0717 -0.1616
18740SOL    HW260137   3.267   8.732   7.798 -0.1201 -0.1390 -0.5908
18741SOL     OW60138   7.446   9.429   9.200 -0.4740  0.1356 -0.4281
18741SOL    HW160139   7.360   9.395   9.174 -0.8859  0.9181 -0.1318
18741SOL    HW260140   7.483   9.360   9.255  0.1114 -1.2278 -2.4220
18742SOL     OW60141   5.797   2.036   2.364 -0.6565  0.6991  0.2338
18742SOL    HW160142   5.705   2.053   2.347 -0.6116 -0.5977 -1.7767
18742SOL    HW260143   5.842   2.069   2.286  0.6266  1.4926  1.2685
18743SOL     OW60144   4.928   0.034   8.521  0.1751  0.2578 -0.2659
18743SOL    HW160145   4.963   0.085   8.594  0.8390 -0.7673  0.1463
18743SOL    HW260146   4.845  -0.001   8.553  1.1531 -1.4130  0.5710
18744SOL     OW60147   2.090   3.796   7.828 -0.1724 -0.3981  0.2269
18744SOL    HW160148   2.141   3.757   7.757 -0.3104 -1.1006  0.5053
18744SOL    HW260149   2.004   3.812   7.790  0.4654  1.5668 -0.4920
18745SOL     OW60150   9.620   4.242   6.512  0.0079  0.5230  0.4484
18745SOL    HW160151   9.601   4.311   6.575 -0.8031  0.6437  0.0904
18745SOL    HW260152   9.708   4.212   6.535  0.0890  1.1852  1.0547
18746SOL     OW60153   0.807   9.857   5.953  0.1444  0.3600  0.6148
18746SOL    HW160154   0.788   9.946   5.923  0.3473  0.6024  1.1876
18746SOL    HW260155   0.804   9.863   6.048  1.8652  0.1567  0.7192
18747SOL     OW60156   0.407   6.635   4.445 -0.3380 -0.3165  0.0537
18747SOL    HW160157   0.346   6.561   4.446 -1.2445  0.3721 -1.1395
18747SOL    HW260158   0.353   6.711   4.469 -0.1253  0.4013 -1.5934
18748SOL     OW60159   0.256   0.049   5.644 -0.6105  0.4042 -0.1721
18748SOL    HW160160   0.166   0.061   5.615 -0.6987  1.0933  0.3604
18748SOL    HW260161   0.249   0.026   5.737 -0.1850  2.3311  0.3801
18749SOL     OW60162   2.907   7.122   6.071  0.0120 -0.4592 -0.4871
18749SOL    HW160163   2.818   7.087   6.067 -0.5809  0.6662  1.5922
18749SOL    HW260164   2.909   7.191   6.005  0.0654 -1.8609 -2.0334
18750SOL     OW60165   4.574   9.945   0.217 -0.4872 -0.0422 -0.0316
18750SOL    HW160166   4.544   9.928   0.128 -1.6786  0.4245  0.2589
18750SOL    HW260167   4.585   9.858   0.256 -0.6547 -0.2341 -0.4123
18751SOL     OW60168   3.459   1.981   7.340  0.4280  0.3560 -0.5166
18751SOL    HW160169   3.533   2.042   7.346 -0.4949  1.5071 -0.3272
18751SOL    HW260170   3.454   1.940   7.426 -0.1488  1.5243  0.0390
18752SOL     OW60171   9.680   2.706   8.116 -0.4564 -0.0063 -0.2543
18752SOL    HW160172   9.600   2.692   8.167  0.4350 -1.7354  0.7864
18752SOL    HW260173   9.663   2.663   8.033 -1.1433  0.9869 -0.6524
18753SOL     OW60174   9.153   6.303   4.688 -0.1900 -0.4780 -0.3178
18753SOL    HW160175   9.111   6.349   4.615  0.2535 -0.6492 -0.6836
18753SOL    HW260176   9.155   6.368   4.759 -0.4271 -0.2411 -0.5240
18754SOL     OW60177   2.966  10.020   8.188 -0.2686  0.5528 -0.3496
18754SOL    HW160178   2.872  10.021   8.207 -0.5266  0.2152 -1.5291
18754SOL    HW260179   2.980  10.100   8.137 -0.1270  0.0505 -1.1043
18755SOL     OW60180   7.946   9.263   8.886 -0.1597 -0.6585  0.5784
18755SOL    HW160181   7.866   9.246   8.936 -0.6894  0.6261  0.2025
18755SOL    HW260182   7.968   9.178   8.847 -1.9414 -0.8212 -0.1821
18756SOL     OW60183   0.195   4.474   3.811 -0.2976 -0.1581  0.7266
18756SOL    HW160184   0.168   4.485   3.719 -0.6429  0.3151  0.8806
18756SOL    HW260185   0.114   4.454   3.857 -0.3669  1.0743  1.1628
18757SOL     OW60186   4.151   3.698   0.844 -0.5286 -0.1245  0.5259
18757SOL    HW160187   4.075   3.752   0.821 -0.1220  0.2386  0.0098
18757SOL    HW260188   4.131   3.664   0.931 -1.0290  0.4333  0.6340
18758SOL     OW60189   4.293   4.139   8.787  0.4521 -0.1762  0.2647
18758SOL    HW160190   4.296   4.113   8.695  2.0483  0.0623  0.2303
18758SOL    HW260191   4.239   4.071   8.829  1.9087 -1.7956 -0.3851
18759SOL     OW60192   3.237   0.125   8.732  0.3698 -0.3655 -0.1293
18759SOL    HW160193   3.185   0.205   8.729  0.0652 -0.4948  1.0906
18759SOL    HW260194   3.192   0.065   8.673  0.2440  0.1567 -0.5732
18760SOL     OW60195   5.694  10.118   4.295  0.1867  0.0324  0.1865
18760SOL    HW160196   5.630  10.143   4.228 -0.9897 -2.1997  0.3734
18760SOL    HW260197   5.776  10.157   4.265 -0.1790 -1.2227 -2.8431
18761SOL     OW60198   0.918  10.162   1.218 -0.3203 -0.3752  0.0368
18761SOL    HW160199   0.860  10.086   1.230  0.9633 -1.1444  1.7910
18761SOL    HW260200   0.921  10.203   1.304 -0.7941  1.5916 -0.8253
18762SOL     OW60201   6.755   9.612   8.655  0.5672  0.1358  0.0351
18762SOL    HW160202   6.768   9.705   8.640 -1.3948  0.4019 -0.3049
18762SOL    HW260203   6.833   9.570   8.619  0.0596  1.4118 -2.7777
18763SOL     OW60204   1.157   8.223   8.781  0.3202 -0.2446  0.6034
18763SOL    HW160205   1.073   8.228   8.827  0.1068  0.1836  0.1783
18763SOL    HW260206   1.142   8.273   8.700  1.5510  1.4789  1.3795
18764SOL     OW60207   9.225   7.013   7.653 -0.4918  0.0178  0.2365
18764SOL    HW160208   9.299   7.019   7.593 -0.9977  0.9288 -0.3290
18764SOL    HW260209   9.221   7.100   7.694 -0.5828 -0.3729  1.0678
18765SOL     OW60210   2.675   8.418   1.978  0.2435  0.0509  0.3887
18765SOL    HW160211   2.628   8.482   1.926 -1.0731 -1.2555 -0.0676
18765SOL    HW260212   2.619   8.341   1.980  0.9586 -0.4957  2.4296
18766SOL     OW60213   4.763   9.028   7.053 -0.1159 -0.2583 -0.2382
18766SOL    HW160214   4.819   9.023   7.130 -1.3298 -2.2882  0.6038
18766SOL    HW260215   4.814   9.077   6.989  1.0859  1.1775  1.6987
18767SOL     OW60216   7.943   2.911   1.163 -0.1649  0.0718  0.4041
18767SOL    HW160217   7.923   2.819   1.146  0.8672 -0.2273  0.7322
18767SOL    HW260218   7.873   2.942   1.220  0.6036 -1.1084  2.0553
18768SOL     OW60219   4.860   5.738   9.973 -0.7360  0.2423  0.2256
18768SOL    HW160220   4.861   5.834   9.973 -0.3004  0.3422 -2.7814
18768SOL    HW260221   4.770   5.714   9.951 -0.7507 -0.0267  0.5700
18769SOL     OW60222   9.932   0.581   2.011 -0.0279  0.0792  0.2204
18769SOL    HW160223   9.910   0.535   2.093 -0.0409 -1.5083 -0.6373
18769SOL    HW260224   9.997   0.646   2.037 -1.0213  0.5364  1.7168
18770SOL     OW60225   1.678   9.370   6.020 -0.2982  0.0899 -0.0006
18770SOL    HW160226   1.670   9.443   6.081 -2.1068 -0.3649  0.3535
18770SOL    HW260227   1.741   9.401   5.955  0.6359  1.1053  1.3241
18771SOL     OW60228   3.282   1.339  10.114  0.3750  0.2057  0.6251
18771SOL    HW160229   3.251   1.428  10.132 -0.3349  0.1871 -0.4176
18771SOL    HW260230   3.357   1.350  10.056 -1.9261  0.1046 -2.6558
18772SOL     OW60231   5.764   4.205   3.242  0.3818 -0.4144 -0.3860
18772SOL    HW160232   5.842   4.230   3.293 -0.2845  0.5705  0.1804
18772SOL    HW260233   5.723   4.135   3.293 -0.6166  0.9796  0.8083
18773SOL     OW60234   9.763   2.855   2.677  0.5696 -0.0514  0.2884
18773SOL    HW160235   9.774   2.767   2.713 -1.2857 -1.0465 -1.3519
18773SOL    HW260236   9.755   2.841   2.582  0.6514  1.9413 -0.0605
18774SOL     OW60237   7.859   1.406   2.518 -0.3163  0.6978 -0.3703
18774SOL    HW160238   7.873   1.489   2.563  0.9840  1.0233 -1.3234
18774SOL    HW260239   7.851   1.429   2.425 -0.7165 -0.1711 -0.5718
18775SOL     OW60240   3.825   4.306   7.885  0.3836 -0.6951  0.2030
18775SOL    HW160241   3.853   4.324   7.975  1.4423  0.0008 -0.2370
18775SOL    HW260242   3.765   4.378   7.864 -1.8128 -2.1553  1.1271
18776SOL     OW60243   4.117   3.508   9.298  0.0459 -0.0438  0.2591
18776SOL    HW160244   4.156   3.485   9.214 -2.0902 -2.4697 -0.2134
18776SOL    HW260245   4.185   3.490   9.362  0.5864 -1.5905 -0.6931
18777SOL     OW60246   7.312   7.926   0.045 -0.4560  0.2270  0.3588
18777SOL    HW160247   7.383   7.874   0.008 -0.4002 -0.3597  1.2545
18777SOL    HW260248   7.238   7.865   0.051 -1.2479  0.9988 -1.1566
18778SOL     OW60249   4.170   3.470  10.167  0.5624 -0.5265 -0.3178
18778SOL    HW160250   4.147   3.419  10.089  0.2557 -0.3237 -0.3640
18778SOL    HW260251   4.145   3.414  10.241 -2.7740  0.7411 -0.3116
18779SOL     OW60252   6.054   0.134   4.735  0.5544 -0.0396 -0.3540
18779SOL    HW160253   6.089   0.129   4.824 -0.2879 -1.9604 -0.0698
18779SOL    HW260254   5.965   0.097   4.743  0.1268  0.6185 -1.8233
18780SOL     OW60255   2.355   9.660   6.457 -0.4056 -0.5465 -0.0190
18780SOL    HW160256   2.291   9.709   6.508 -0.6689  1.6371 -2.2695
18780SOL    HW260257   2.334   9.680   6.366  0.9950 -3.0248 -0.9966
18781SOL     OW60258   0.552   7.129   4.265 -0.5139 -0.5740 -0.4332
18781SOL    HW160259   0.513   7.042   4.280 -1.2550 -0.2931 -0.7143
18781SOL    HW260260   0.642   7.120   4.297 -0.3886 -1.6322 -1.0439
18782SOL     OW60261   2.947   2.464  10.018  0.9818  0.1423 -0.4893
18782SOL    HW160262   2.889   2.521  10.067  0.9726  0.3557 -0.7474
18782SOL    HW260263   2.897   2.439   9.940  1.2334  0.3260 -0.7112
18783SOL     OW60264   7.477   4.713   8.869 -0.1619 -0.5394 -0.4187
18783SOL    HW160265   7.509   4.802   8.853 -0.8125 -0.3744 -0.8392
18783SOL    HW260266   7.456   4.680   8.782 -1.0519 -0.6753 -0.1593
18784SOL     OW60267   2.819   5.267   8.898 -0.0544 -0.5311 -0.1466
18784SOL    HW160268   2.913   5.277   8.882 -0.3032  0.6503 -1.0198
18784SOL    HW260269   2.806   5.173   8.909  1.2921 -0.6706  0.4490
18785SOL     OW60270   8.098   7.287   5.839  0.0263  0.3698 -0.5440
18785SOL    HW160271   8.190   7.301   5.813 -0.1238 -0.4537 -1.5532
18785SOL    HW260272   8.103   7.269   5.933  0.9697 -0.3062 -0.7079
18786SOL     OW60273   6.925   7.623   1.030 -0.1561  0.8143  0.2179
18786SOL    HW160274   6.998   7.564   1.046 -0.1338 -0.3155 -3.2445
18786SOL    HW260275   6.953   7.707   1.067  2.6128  0.2312 -0.3678
18787SOL     OW60276   9.526   7.270   7.101  0.2398  0.3601 -0.2569
18787SOL    HW160277   9.481   7.186   7.104  0.0597  0.4147 -1.0205
18787SOL    HW260278   9.561   7.275   7.012 -2.8110  2.6084 -1.5284
18788SOL     OW60279   7.257   9.996   5.675 -0.6447 -0.7582 -0.2564
18788SOL    HW160280   7.286   9.971   5.763 -1.2708 -0.6537 -0.0160
18788SOL    HW260281   7.176  10.045   5.690 -0.0260  0.4623 -0.7907
18789SOL     OW60282   7.319   7.772   7.559  0.1190  0.5625  0.1920
18789SOL    HW160283   7.298   7.727   7.642 -0.8254 -0.8974 -0.7781
18789SOL    HW260284   7.401   7.818   7.576  0.7983 -1.0204  1.4789
18790SOL     OW60285   3.847   1.463   4.859  0.0091 -0.0697  0.2076
18790SOL    HW160286   3.808   1.375   4.866 -0.3090 -0.0625 -1.1387
18790SOL    HW260287   3.941   1.447   4.850  0.1141 -0.1910  1.4480
18791SOL     OW60288   7.621   3.757   5.303  0.2856  0.1376  0.2599
18791SOL    HW160289   7.552   3.769   5.238  0.3206 -0.6985  0.0576
18791SOL    HW260290   7.599   3.675   5.347  1.1559 -0.1492  0.1786
18792SOL     OW60291  10.205   2.819   7.521 -0.1682 -0.2592  0.0032
18792SOL    HW160292  10.204   2.727   7.546  1.0107 -0.7118 -1.4462
18792SOL    HW260293  10.135   2.827   7.456  0.8640 -0.5943 -1.2031
18793SOL     OW60294   5.227   6.663   1.096  0.4358  1.2715 -0.0923
18793SOL    HW160295   5.229   6.616   1.012 -0.1556 -0.9526  1.0583
18793SOL    HW260296   5.247   6.754   1.073 -0.0277  0.8028 -2.6751
18794SOL     OW60297   8.730   0.663   5.127  0.1477 -0.1743  0.0548
18794SOL    HW160298   8.734   0.599   5.056  3.2439  0.5046 -0.5159
18794SOL    HW260299   8.750   0.614   5.206  4.3205  0.1574 -0.5862
18795SOL     OW60300   5.881   5.946   4.505 -0.3737  0.4784  0.3998
18795SOL    HW160301   5.948   5.918   4.442  0.1197  1.6087  0.4071
18795SOL    HW260302   5.890   5.884   4.578 -0.2630 -0.2081 -0.1842
18796SOL     OW60303   2.885   3.205   1.184 -0.0599 -0.2670  0.8367
18796SOL    HW160304   2.959   3.145   1.174 -1.8494 -2.6288  1.2235
18796SOL    HW260305   2.845   3.209   1.097  0.7140  1.3755  0.5097
18797SOL     OW60306   1.438   3.799   9.611  0.4847 -0.3931  0.1911
18797SOL    HW160307   1.424   3.708   9.638  0.3076 -0.5771 -0.5105
18797SOL    HW260308   1.392   3.851   9.678  0.7201 -0.8039  0.6843
18798SOL     OW60309   0.876   3.092   0.153  0.1623 -0.1956  0.1830
18798SOL    HW160310   0.941   3.095   0.083 -2.9384  0.6613 -2.9553
18798SOL    HW260311   0.902   3.161   0.214  3.2764 -1.3208  0.2941
18799SOL     OW60312   4.734   6.978   8.799  0.3694  0.5840  0.2446
18799SOL    HW160313   4.746   6.901   8.854  0.2075  1.1583  1.1047
18799SOL    HW260314   4.781   6.958   8.718 -1.4545 -1.2972 -0.4346
18800SOL     OW60315   7.898   7.806   9.086 -0.1658 -0.1355  0.0723
18800SOL    HW160316   7.985   7.797   9.048 -0.1194  1.5038 -0.2850
18800SOL    HW260317   7.838   7.791   9.013 -0.1719 -0.5678  0.1637
18801SOL     OW60318   3.825   1.057   2.347  0.4282 -0.0778  0.2089
18801SOL    HW160319   3.770   1.014   2.412 -1.4895  2.9924  0.8559
18801SOL    HW260320   3.766   1.073   2.273  1.0939  1.1003 -0.0941
18802SOL     OW60321   1.200  10.139   1.172 -0.0505 -0.0073 -0.2144
18802SOL    HW160322   1.109  10.163   1.188 -0.1837 -1.1151  0.7758
18802SOL    HW260323   1.204  10.045   1.187  0.7417 -0.4515 -2.7167
18803SOL     OW60324   3.124   9.119   7.410  0.0870  0.3611 -0.1107
18803SOL    HW160325   3.069   9.148   7.482 -0.5235 -0.7201 -0.1216
18803SOL    HW260326   3.064   9.075   7.350  0.9607 -0.8959 -0.0903
18804SOL     OW60327   1.096   4.478   2.938  0.1541 -0.8608 -0.4122
18804SOL    HW160328   1.086   4.385   2.919 -0.5224 -1.0045  0.5524
18804SOL    HW260329   1.006   4.512   2.937  0.3296 -0.3717 -0.0503
18805SOL     OW60330   3.128   3.949   9.194  0.0037  0.2594  0.1128
18805SOL    HW160331   3.203   3.911   9.147  0.9450 -0.3126  1.9854
18805SOL    HW260332   3.131   3.908   9.281 -2.0564  0.7906  0.4837
18806SOL     OW60333   7.374   8.678   7.882 -0.2512 -0.2827  0.0706
18806SOL    HW160334   7.322   8.742   7.835 -1.7469 -0.9221  0.7750
18806SOL    HW260335   7.378   8.711   7.972  0.2391 -0.4200  0.1011
18807SOL     OW60336   0.403   1.151   1.009  0.1761 -0.2482 -0.3888
18807SOL    HW160337   0.325   1.099   0.993  0.9158 -1.2505 -0.8550
18807SOL    HW260338   0.374   1.221   1.067 -1.2914  0.0023 -1.3625
18808SOL     OW60339   8.684   2.625   1.868  0.1919  0.3663  0.1312
18808SOL    HW160340   8.690   2.530   1.870 -0.1209  0.2883 -1.3794
18808SOL    HW260341   8.611   2.646   1.927  0.0071 -0.3559  0.1691
18809SOL     OW60342  10.057   0.514   7.113  0.0843  0.0376 -0.3662
18809SOL    HW160343   9.971   0.482   7.140  1.3007 -1.7665  1.6812
18809SOL    HW260344  10.046   0.609   7.106 -2.4272 -0.2608 -1.8060
18810SOL     OW60345  10.159  10.144   2.530 -0.1959 -0.1411  0.0229
18810SOL    HW160346  10.235  10.196   2.502 -0.4795  0.7306  0.8339
18810SOL    HW260347  10.154  10.158   2.624 -0.6711 -1.1356  0.1533
18811SOL     OW60348   2.935   4.514   1.130 -0.3872  0.0117  0.7298
18811SOL    HW160349   3.024   4.549   1.139  0.2706 -0.9725 -1.2248
18811SOL    HW260350   2.948   4.426   1.093 -2.1677 -0.2984  0.7705
18812SOL     OW60351   0.423   4.940   1.161  0.2396 -0.0934 -0.3753
18812SOL    HW160352   0.418   4.848   1.187  1.0832 -0.7042 -2.1777
18812SOL    HW260353   0.356   4.949   1.093  1.5122  0.0595 -1.6581
18813SOL     OW60354   4.927   1.947   9.688 -0.3607  0.2453  0.7728
18813SOL    HW160355   4.968   1.937   9.773  1.3874 -0.0650 -0.0677
18813SOL    HW260356   4.969   1.881   9.633 -0.2829  1.4869 -0.7363
18814SOL     OW60357   0.136   7.984   6.306  0.2125  0.0064 -0.1349
18814SOL    HW160358   0.151   7.969   6.212 -2.5856  1.2406 -0.9138
18814SOL    HW260359   0.143   8.079   6.316 -0.6718  0.0057  0.6302
18815SOL     OW60360   9.433   1.694   3.446 -0.1118  0.8643 -0.4019
18815SOL    HW160361   9.430   1.686   3.541  0.4728 -0.3004 -0.4610
18815SOL    HW260362   9.503   1.757   3.429  0.0959  0.7240 -0.0731
18816SOL     OW60363   5.480   2.814   3.646  0.2479 -0.3540  1.0081
18816SOL    HW160364   5.442   2.842   3.564  0.0364  1.1922  1.6014
18816SOL    HW260365   5.424   2.743   3.676  0.0021 -0.5518  0.1105
18817SOL     OW60366   1.957   4.842   6.306 -0.2853 -0.1628  0.3506
18817SOL    HW160367   1.863   4.861   6.301 -0.4251 -1.1638 -2.3066
18817SOL    HW260368   1.965   4.750   6.279  1.3613 -0.6369  2.1521
18818SOL     OW60369   6.871   7.743   2.409  0.7017  0.2681  0.0041
18818SOL    HW160370   6.836   7.817   2.359 -1.2267 -0.9228 -0.5219
18818SOL    HW260371   6.914   7.689   2.343  0.9477  0.2570  0.1731
18819SOL     OW60372   2.824   3.726   0.317 -0.3201  0.1048 -0.1596
18819SOL    HW160373   2.804   3.727   0.411 -0.4525  0.1949 -0.1888
18819SOL    HW260374   2.919   3.737   0.313 -0.5875  3.4471 -0.1470
18820SOL     OW60375   0.412   1.640   6.727  0.0617  0.0952 -0.3531
18820SOL    HW160376   0.400   1.596   6.811  0.7108  0.6763  0.0497
18820SOL    HW260377   0.326   1.679   6.709  0.4792  1.8943  1.1725
18821SOL     OW60378   2.973   9.727   1.989 -0.2619 -0.5485  0.0541
18821SOL    HW160379   3.039   9.761   1.930 -0.8974  0.5850 -0.0330
18821SOL    HW260380   2.894   9.719   1.935 -0.9927  1.0067  0.8347
18822SOL     OW60381   9.985   1.238   2.699  0.2239 -0.0526 -0.3528
18822SOL    HW160382   9.959   1.147   2.713  0.4558 -0.3061 -1.4340
18822SOL    HW260383  10.078   1.240   2.723 -0.1171  0.2404  1.0065
18823SOL     OW60384   9.889   9.791   2.232  0.0018 -0.1009  0.0942
18823SOL    HW160385   9.909   9.757   2.319 -1.6956  1.2462  1.0954
18823SOL    HW260386   9.893   9.886   2.243  1.5114  0.1157 -1.7924
18824SOL     OW60387   5.429   5.305   8.982  0.5808 -0.0306 -0.3449
18824SOL    HW160388   5.425   5.340   9.071  2.0222 -1.0646  0.1650
18824SOL    HW260389   5.490   5.231   8.988  0.6149 -0.1949 -2.1700
18825SOL     OW60390   2.791   0.807   9.798 -0.0260 -0.2057 -0.3637
18825SOL    HW160391   2.743   0.729   9.772  0.6363 -1.2157  1.2614
18825SOL    HW260392   2.727   0.859   9.847 -0.4084  0.1788 -1.2582
18826SOL     OW60393   2.349  10.000   3.911 -0.1050 -0.0508 -0.2438
18826SOL    HW160394   2.339  10.079   3.859 -1.4924  0.1670  0.3114
18826SOL    HW260395   2.322   9.929   3.853  1.3875 -0.1715 -0.8271
18827SOL     OW60396   0.650   3.910   3.177 -0.3818 -0.2268 -0.6081
18827SOL    HW160397   0.590   3.840   3.203 -0.1020 -0.4153 -0.4671
18827SOL    HW260398   0.596   3.988   3.176 -0.8173 -0.5261 -1.2616
18828SOL     OW60399   3.724   4.027   2.152 -0.1997 -0.0275  0.1646
18828SOL    HW160400   3.760   4.115   2.136  0.9260 -0.8115 -2.0859
18828SOL    HW260401   3.652   4.041   2.214  0.2202  2.4113  0.2010
18829SOL     OW60402   8.884   1.900   2.799  0.1863 -0.2084  0.3181
18829SOL    HW160403   8.860   1.853   2.718  2.1815  0.1711 -0.5473
18829SOL    HW260404   8.900   1.990   2.770  2.1410 -0.3485  0.8902
18830SOL     OW60405   3.128   3.637   7.655  0.0776  0.5192 -0.4908
18830SOL    HW160406   3.041   3.602   7.678  0.1128  1.1109  0.5987
18830SOL    HW260407   3.179   3.559   7.632 -0.4011  0.0353  0.0211
18831SOL     OW60408   2.397   2.576   9.681  0.2869  0.0060 -0.0934
18831SOL    HW160409   2.479   2.594   9.727  1.2436 -0.2332 -1.6373
18831SOL    HW260410   2.359   2.501   9.727  0.7434  0.3301  0.8385
18832SOL     OW60411   1.931   9.899   3.327 -0.3629  0.1192  0.1278
18832SOL    HW160412   1.849   9.945   3.343 -0.0019  0.6959  0.3619
18832SOL    HW260413   1.918   9.854   3.244 -0.2789  1.7245 -0.8056
18833SOL     OW60414   6.433   4.545   3.604 -0.1669 -0.0140 -0.1684
18833SOL    HW160415   6.518   4.501   3.614  0.4532  0.8495 -1.3219
18833SOL    HW260416   6.455   4.630   3.566 -1.3805  1.1355  1.6051
18834SOL     OW60417   3.895   4.246   4.667  0.5043 -0.2553 -0.1272
18834SOL    HW160418   3.926   4.249   4.758 -0.1034 -1.1451  0.1137
18834SOL    HW260419   3.895   4.338   4.639  0.4331  0.0556  0.8577
18835SOL     OW60420   2.798   8.570   7.481  1.0544  0.0841  0.2571
18835SOL    HW160421   2.859   8.516   7.532  0.5795 -1.7710 -1.0299
18835SOL    HW260422   2.842   8.585   7.398 -0.7072 -2.6596 -1.3466
18836SOL     OW60423   3.484   1.681   1.414  0.3221 -1.0283 -0.3631
18836SOL    HW160424   3.479   1.655   1.507  1.1028  0.3418  0.0856
18836SOL    HW260425   3.432   1.614   1.369 -2.0603 -0.4829  1.3199
18837SOL     OW60426   1.027   5.440   0.798 -0.3665  0.1037 -1.1853
18837SOL    HW160427   1.045   5.467   0.888 -3.9849  3.3664 -1.2053
18837SOL    HW260428   1.103   5.472   0.748 -0.0625  1.7211  0.2098
18838SOL     OW60429   0.575   0.951   0.923 -0.5624  0.1519 -0.2330
18838SOL    HW160430   0.594   0.979   0.834  1.2477  0.2197  0.1459
18838SOL    HW260431   0.555   1.032   0.970  1.1973  0.4770  0.0304
18839SOL     OW60432   8.496   2.076   4.858 -0.3170  0.0114 -0.0687
18839SOL    HW160433   8.591   2.086   4.865 -0.2022 -1.5169  0.9789
18839SOL    HW260434   8.464   2.083   4.948 -1.1851  0.3968 -0.4006
18840SOL     OW60435   7.844   6.215   5.446 -0.5410 -0.0995 -0.1839
18840SOL    HW160436   7.808   6.130   5.470  0.9786 -0.8515 -0.4968
18840SOL    HW260437   7.851   6.262   5.529 -2.2640  0.1259 -0.1093
18841SOL     OW60438   5.746   8.580   0.781  0.2233  0.2159 -0.1633
18841SOL    HW160439   5.666   8.633   0.785  0.7174  1.0061 -0.5410
18841SOL    HW260440   5.715   8.489   0.780 -0.6161  0.4317  1.6022
18842SOL     OW60441   7.190   3.352   2.847  0.4233  0.1621  0.6633
18842SOL    HW160442   7.262   3.311   2.895  1.3920  0.2222 -0.6558
18842SOL    HW260443   7.226   3.365   2.759 -0.9023  1.0605  0.2357
18843SOL     OW60444   9.466   0.621   2.152 -0.7085  0.4339 -0.1619
18843SOL    HW160445   9.499   0.710   2.144 -0.7128  0.5274  0.7751
18843SOL    HW260446   9.541   0.566   2.130  0.3413  0.6311  2.6098
18844SOL     OW60447   2.231   9.846   0.810 -0.4128 -0.1623 -0.5427
18844SOL    HW160448   2.149   9.809   0.779 -0.5273 -0.7701  0.4294
18844SOL    HW260449   2.218   9.941   0.807 -0.4741 -0.1983 -2.1265
18845SOL     OW60450   7.627   1.232   8.965  0.1780  0.2346  0.1779
18845SOL    HW160451   7.712   1.192   8.951 -0.1648 -0.1221 -0.9566
18845SOL    HW260452   7.564   1.161   8.952 -0.3307  0.6745  0.1958
18846SOL     OW60453   1.201   9.320   9.383  0.1704  0.0053 -0.0013
18846SOL    HW160454   1.186   9.380   9.310  0.5984  1.9092  1.3993
18846SOL    HW260455   1.290   9.339   9.412  0.0765 -0.8678  0.9144
18847SOL     OW60456   4.527   2.864   3.708  0.0818 -0.3588  0.6521
18847SOL    HW160457   4.600   2.910   3.666  0.4242  0.0901  1.6938
18847SOL    HW260458   4.526   2.778   3.667 -0.1688  0.3418 -0.8866
18848SOL     OW60459   1.549   4.469   0.115  0.2282 -0.2184 -0.0579
18848SOL    HW160460   1.592   4.495   0.034 -1.0512  1.3017 -0.3125
18848SOL    HW260461   1.621   4.455   0.177  1.1521  1.5114 -0.6577
18849SOL     OW60462   3.776   1.937   3.807 -0.3514  0.0943 -0.0275
18849SOL    HW160463   3.727   1.862   3.841  2.6276 -1.5977  0.9322
18849SOL    HW260464   3.827   1.968   3.882  0.4825  1.3713 -1.0879
18850SOL     OW60465   3.963   5.196   8.496 -0.4613 -0.2742  0.1723
18850SOL    HW160466   4.030   5.258   8.525  1.6863 -1.9992 -0.8552
18850SOL    HW260467   3.928   5.235   8.416 -1.5053  1.1229  1.2337
18851SOL     OW60468   1.491   3.011   8.229  0.2231  0.4433  0.2140
18851SOL    HW160469   1.406   2.974   8.251  1.3102 -2.7074 -0.3810
18851SOL    HW260470   1.471   3.094   8.185 -2.6454 -1.0608 -1.6088
18852SOL     OW60471   5.287   0.291   9.242 -0.3465  1.1553  0.1137
18852SOL    HW160472   5.311   0.290   9.149 -1.0336  0.6668 -0.0668
18852SOL    HW260473   5.371   0.296   9.288  0.0679  0.2803 -0.5133
18853SOL     OW60474   7.823   4.736   4.806  0.1692  0.5750 -0.1191
18853SOL    HW160475   7.802   4.657   4.756  0.2273  1.1917 -1.1461
18853SOL    HW260476   7.872   4.791   4.745  1.9217  0.5613  1.2060
18854SOL     OW60477   2.321   7.958   2.681 -0.0726  0.2980  0.0638
18854SOL    HW160478   2.360   8.011   2.751 -0.3974  1.1265 -0.3587
18854SOL    HW260479   2.234   7.936   2.714 -0.6267  1.5611 -0.4633
18855SOL     OW60480   2.910   4.138   1.119  0.1198 -0.2842 -0.1116
18855SOL    HW160481   2.945   4.092   1.043 -0.1122  0.1084 -0.4587
18855SOL    HW260482   2.987   4.165   1.169  0.3293  0.5749 -0.8689
18856SOL     OW60483   2.600   4.795   4.533 -0.1058  0.0217  0.3585
18856SOL    HW160484   2.543   4.864   4.567 -1.0918 -0.2993 -0.5880
18856SOL    HW260485   2.556   4.765   4.454  1.2130 -0.4918 -0.1967
18857SOL     OW60486   1.954   8.749   5.848 -0.3364  0.4476  0.0630
18857SOL    HW160487   1.975   8.784   5.935 -1.2952 -0.2796  0.6149
18857SOL    HW260488   1.900   8.816   5.808 -0.5150  0.4683  0.3339
18858SOL     OW60489   8.392   8.979   2.234 -0.2564  0.0952  0.0869
18858SOL    HW160490   8.329   9.008   2.300 -0.2612 -0.7374  0.4634
18858SOL    HW260491   8.369   9.028   2.155 -1.7458 -0.6002  0.0608
18859SOL     OW60492   0.751   3.213   8.663 -0.3223 -0.2715 -0.1779
18859SOL    HW160493   0.705   3.175   8.588  0.4402 -1.5268 -0.0300
18859SOL    HW260494   0.735   3.152   8.735  0.4286  0.0009  0.2262
18860SOL     OW60495   7.868   5.652   8.825  0.6865 -0.6606  0.1050
18860SOL    HW160496   7.814   5.711   8.879 -0.2184 -1.7424  0.4276
18860SOL    HW260497   7.932   5.615   8.886  0.3327 -1.0893  0.2226
18861SOL     OW60498   9.798   9.969   1.585 -0.0265  0.2074  0.1723
18861SOL    HW160499   9.711  10.009   1.586  0.1902  0.6724  1.4066
18861SOL    HW260500   9.781   9.876   1.571 -0.6433  0.4458 -0.7955
18862SOL     OW60501   3.794   4.426   9.453 -0.0148  0.7949 -0.0379
18862SOL    HW160502   3.857   4.375   9.504 -1.9227 -0.1182  1.4791
18862SOL    HW260503   3.790   4.380   9.369 -1.9105 -1.9091  1.3738
18863SOL     OW60504   6.860   1.185   8.611  0.5530 -0.3638 -0.1563
18863SOL    HW160505   6.938   1.228   8.645 -1.1539 -0.3730  4.3298
18863SOL    HW260506   6.803   1.257   8.582  0.0339  0.1249  1.9216
18864SOL     OW60507   3.341   0.454   5.769  0.0291  0.5332  0.0454
18864SOL    HW160508   3.424   0.498   5.755 -0.2581  1.4004  0.9587
18864SOL    HW260509   3.362   0.361   5.760  1.1666  0.7183  0.5596
18865SOL     OW60510   9.436   6.431   3.141  0.5517 -0.2454 -0.1771
18865SOL    HW160511   9.451   6.466   3.229  0.7199  0.8739 -0.6326
18865SOL    HW260512   9.349   6.462   3.118  0.1873 -1.1979 -0.1094
18866SOL     OW60513  10.062   1.207   8.459  0.2946  0.2129 -0.1218
18866SOL    HW160514  10.115   1.226   8.381 -1.3496 -0.3560 -1.4304
18866SOL    HW260515  10.100   1.127   8.495  1.1261  0.5307 -0.2558
18867SOL     OW60516   1.420   9.719   4.789 -0.0310  0.2741  0.1560
18867SOL    HW160517   1.405   9.756   4.876 -0.1995  1.4617 -0.3592
18867SOL    HW260518   1.445   9.795   4.735  0.1206 -0.4529 -0.8179
18868SOL     OW60519   3.683   4.907   9.339 -0.1559 -0.0564 -0.8755
18868SOL    HW160520   3.675   4.961   9.418  1.2987 -0.5533 -0.3480
18868SOL    HW260521   3.767   4.862   9.349 -0.4765 -1.0203 -2.1702
18869SOL     OW60522   6.159   0.620   2.969  0.0053  0.1485  0.3202
18869SOL    HW160523   6.119   0.532   2.966  1.1015 -0.3450 -0.7470
18869SOL    HW260524   6.225   0.614   3.038  0.9462 -0.2850 -0.5861
18870SOL     OW60525   1.674   3.680   6.352 -0.1167 -0.1699  0.1565
18870SOL    HW160526   1.609   3.611   6.365 -0.2628 -0.2706 -0.9720
18870SOL    HW260527   1.714   3.660   6.267 -0.1274  1.0874 -0.1767
18871SOL     OW60528   5.834   7.831   2.436  0.5415  0.1164  0.0983
18871SOL    HW160529   5.841   7.739   2.411  1.9914 -0.0981  1.1976
18871SOL    HW260530   5.896   7.877   2.380  1.2476  0.1222  0.8587
18872SOL     OW60531   1.538   6.137   6.550  0.1217 -0.0948  0.1064
18872SOL    HW160532   1.570   6.068   6.493 -3.1503 -0.8797 -0.9703
18872SOL    HW260533   1.525   6.095   6.635 -0.9088 -0.5634 -0.2768
18873SOL     OW60534   6.502   3.691   3.926 -0.3397 -0.0280  0.1483
18873SOL    HW160535   6.486   3.784   3.944 -0.7217 -0.3790  1.8651
18873SOL    HW260536   6.415   3.650   3.932 -0.5164 -0.2469 -2.6727
18874SOL     OW60537   5.476   8.520   7.415 -0.8061 -0.0698 -0.0758
18874SOL    HW160538   5.453   8.595   7.470 -1.1204 -0.4674  0.3431
18874SOL    HW260539   5.398   8.464   7.417 -0.1472 -0.9828  0.5899
18875SOL     OW60540   4.729   2.728   9.906  0.1807 -0.5185  0.4894
18875SOL    HW160541   4.719   2.633   9.920 -0.1464 -0.7066 -0.9002
18875SOL    HW260542   4.822   2.740   9.890  0.6972 -0.2005  3.2735
18876SOL     OW60543   8.787   2.017   4.381 -0.6781  0.5452  0.5781
18876SOL    HW160544   8.717   1.963   4.344 -0.2650  1.0918 -1.0910
18876SOL    HW260545   8.744   2.072   4.446 -1.5019 -0.2214  0.6971
18877SOL     OW60546   4.083   9.174   4.407  0.4549 -0.7436  0.0062
18877SOL    HW160547   4.090   9.160   4.313  0.3873 -0.9742  0.0345
18877SOL    HW260548   4.001   9.132   4.432  0.4089 -0.5701  0.1465
18878SOL     OW60549   3.189   0.411   7.766  0.3702 -0.4041  0.6774
18878SOL    HW160550   3.146   0.335   7.805  0.1776 -0.6471 -0.0053
18878SOL    HW260551   3.232   0.378   7.688 -0.4960  0.3620 -0.1461
18879SOL     OW60552   6.597   4.790   1.312 -0.2155 -0.1812 -0.0884
18879SOL    HW160553   6.553   4.837   1.382  0.7532 -0.4167  0.7040
18879SOL    HW260554   6.597   4.698   1.341 -0.5804 -0.4275 -0.8206
18880SOL     OW60555   8.629   8.620   7.787 -0.2638 -0.1590  0.1874
18880SOL    HW160556   8.605   8.676   7.713  2.5896 -0.2405 -0.9396
18880SOL    HW260557   8.618   8.676   7.864  0.5380  1.3098 -0.7139
18881SOL     OW60558   7.750   1.143   1.549  0.1593 -0.2033  0.6088
18881SOL    HW160559   7.799   1.180   1.476  0.4341 -1.8132 -0.0634
18881SOL    HW260560   7.679   1.205   1.565 -0.9118 -0.5779 -2.1325
18882SOL     OW60561   8.536   0.090   7.474 -0.0825 -0.1551  0.1449
18882SOL    HW160562   8.581   0.116   7.394  1.2498  0.5752  1.0867
18882SOL    HW260563   8.585   0.015   7.507 -0.3642 -0.1906  0.4936
18883SOL     OW60564   1.604   9.293   1.703 -0.2759  0.9131  0.3464
18883SOL    HW160565   1.619   9.334   1.618 -0.6449 -0.8014 -0.5893
18883SOL    HW260566   1.563   9.209   1.683 -2.9979  1.6143  2.3603
18884SOL     OW60567   3.232   2.224   0.422 -0.4941 -0.5121 -0.1443
18884SOL    HW160568   3.273   2.285   0.483 -1.1560 -0.8203  0.6310
18884SOL    HW260569   3.138   2.236   0.436 -0.7263  0.5142 -2.2102
18885SOL     OW60570   0.113   3.857   4.966  0.1640  0.3876 -0.2720
18885SOL    HW160571   0.044   3.912   4.928 -1.0080 -1.5306 -1.0685
18885SOL    HW260572   0.147   3.806   4.893  0.9726 -0.2053  0.4946
18886SOL     OW60573   2.580   6.802   3.392 -0.0610 -0.2486 -0.2225
18886SOL    HW160574   2.640   6.876   3.405 -2.5996  1.9013  0.1624
18886SOL    HW260575   2.576   6.791   3.297  1.6562 -1.1365 -0.2327
18887SOL     OW60576   4.282   1.667   5.379  0.8713 -0.1448  0.1955
18887SOL    HW160577   4.321   1.613   5.447 -1.1012  0.1650  1.6830
18887SOL    HW260578   4.229   1.606   5.327  0.5574 -0.0285  0.3761
18888SOL     OW60579   7.913   2.905   3.055 -0.1221  0.2934  0.2289
18888SOL    HW160580   7.868   2.986   3.079  0.4401  0.5610  0.3977
18888SOL    HW260581   7.896   2.895   2.961  1.5598  1.7426 -0.2722
18889SOL     OW60582   2.384   9.471   4.409 -0.4511 -0.4178 -0.3703
18889SOL    HW160583   2.316   9.485   4.476  0.7558  1.2984  0.5719
18889SOL    HW260584   2.466   9.470   4.458  0.5480  1.6197 -1.8732
18890SOL     OW60585   9.097   7.922   4.432 -0.3055  0.8354  0.0057
18890SOL    HW160586   9.103   7.840   4.384  0.6009  0.3207  0.9787
18890SOL    HW260587   9.161   7.979   4.390 -0.7848  0.9913 -0.5320
18891SOL     OW60588   9.114   6.519   2.659 -0.3953  0.0510  0.5418
18891SOL    HW160589   9.055   6.452   2.625  1.5523 -0.8030 -1.4457
18891SOL    HW260590   9.062   6.599   2.659 -2.5173 -1.2044  2.1085
18892SOL     OW60591   2.427   7.893   6.013  0.2301 -0.1084  0.7933
18892SOL    HW160592   2.489   7.864   5.945  0.6604  1.6499  0.3674
18892SOL    HW260593   2.341   7.872   5.977  0.4832  0.0769  0.0488
18893SOL     OW60594   1.396   5.722   6.322 -0.0931 -0.3493 -0.0575
18893SOL    HW160595   1.441   5.717   6.238 -0.2300  0.2952 -0.1728
18893SOL    HW260596   1.462   5.750   6.385 -0.3291  0.6230 -0.2316
18894SOL     OW60597   8.030   7.947   9.924  0.6241 -0.1915  0.3492
18894SOL    HW160598   7.976   7.921   9.849  0.6540 -0.3939  0.3978
18894SOL    HW260599   8.106   7.991   9.884  0.3837  0.1673  0.2849
18895SOL     OW60600   1.513   6.965   7.290  0.6985  0.2852 -0.2196
18895SOL    HW160601   1.483   6.912   7.216  1.9034 -1.6455  0.5968
18895SOL    HW260602   1.462   7.046   7.284 -0.8777 -0.7591 -1.8005
18896SOL     OW60603   2.228   4.564   8.617  0.4247  0.0889 -0.3160
18896SOL    HW160604   2.218   4.470   8.629  0.8308  0.1120  0.2407
18896SOL    HW260605   2.145   4.593   8.578 -1.0187  0.0114  2.4363
18897SOL     OW60606   4.078   8.549   4.085 -0.1236 -0.0458  0.2546
18897SOL    HW160607   3.991   8.529   4.053 -0.0297  1.6961 -1.2664
18897SOL    HW260608   4.109   8.468   4.125 -1.3416 -1.5356 -1.6726
18898SOL     OW60609   5.718   6.543   2.809  0.4520  0.2333 -0.0309
18898SOL    HW160610   5.717   6.616   2.747  3.4691 -0.8428 -1.5393
18898SOL    HW260611   5.629   6.506   2.803 -0.2062  1.8817 -1.5687
18899SOL     OW60612   3.621   8.234   4.282  0.3078  0.7708  0.5579
18899SOL    HW160613   3.581   8.152   4.310  0.0321  0.2738 -1.2137
18899SOL    HW260614   3.549   8.285   4.246  1.1142 -0.0975 -2.5886
18900SOL     OW60615   2.128   4.069   3.516 -0.4289  0.3907 -0.1752
18900SOL    HW160616   2.103   4.020   3.595 -0.3860  0.9734  0.2083
18900SOL    HW260617   2.095   4.016   3.444  0.3011 -0.5930  0.1931
18901SOL     OW60618   3.589   8.734   8.358  0.5057  0.4906  0.0663
18901SOL    HW160619   3.525   8.668   8.385  2.5657 -0.8708  1.8893
18901SOL    HW260620   3.586   8.733   8.262 -1.2464 -0.4419  0.1008
18902SOL     OW60621   9.791   7.976   0.062 -0.2927  0.1531  0.0808
18902SOL    HW160622   9.838   7.983  -0.022 -1.2078 -0.7133 -0.5292
18902SOL    HW260623   9.860   7.970   0.128  0.4510  0.3338 -0.6638
18903SOL     OW60624   6.735   5.403   2.463  0.4060 -0.2671 -0.6769
18903SOL    HW160625   6.679   5.339   2.507  0.0676  0.1420 -0.4923
18903SOL    HW260626   6.681   5.436   2.391 -0.4864  1.7037  0.7661
18904SOL     OW60627   9.479   9.800   9.699  0.9426  0.3384  0.1158
18904SOL    HW160628   9.474   9.858   9.775  2.1368  0.5830  0.0217
18904SOL    HW260629   9.393   9.807   9.658  0.6145  0.9693  0.8858
18905SOL     OW60630   6.128   7.490   5.768  0.2898 -0.2051 -0.2330
18905SOL    HW160631   6.045   7.537   5.771  1.1836  1.5334 -0.9140
18905SOL    HW260632   6.189   7.553   5.729  2.0909 -1.1552  0.9231
18906SOL     OW60633   2.610   5.085   2.639  0.3197 -0.4551  0.0363
18906SOL    HW160634   2.632   5.041   2.557  0.2515  0.6084 -0.5703
18906SOL    HW260635   2.649   5.171   2.632 -1.0294  0.2240  0.4459
18907SOL     OW60636   0.484   9.063   2.569 -0.0276  0.3446 -0.2273
18907SOL    HW160637   0.426   9.087   2.642  0.5782 -1.2973  0.8723
18907SOL    HW260638   0.567   9.040   2.612  0.6228  0.1804 -1.5351
18908SOL     OW60639   8.734   7.715   6.804 -0.3810  0.1566 -0.1617
18908SOL    HW160640   8.773   7.629   6.821 -2.7275 -1.0518 -0.5682
18908SOL    HW260641   8.790   7.776   6.853  2.2113 -1.3581 -1.0136
18909SOL     OW60642   1.551   2.181   4.807  0.0280  0.4245 -0.2974
18909SOL    HW160643   1.577   2.122   4.737  1.1917  1.5406 -0.8529
18909SOL    HW260644   1.505   2.126   4.869  2.2844 -1.3733 -0.0931
18910SOL     OW60645   3.399   9.558   9.958  0.7212 -0.0020 -0.2952
18910SOL    HW160646   3.473   9.516  10.001 -0.0237 -0.3548  0.6750
18910SOL    HW260647   3.372   9.628  10.017  1.4149  1.3285 -1.5055
18911SOL     OW60648   6.302   7.234   5.306  0.6564 -0.3777  0.2910
18911SOL    HW160649   6.389   7.201   5.330  0.7012 -0.1210  0.4906
18911SOL    HW260650   6.248   7.217   5.384  0.6681 -0.0246  0.3772
18912SOL     OW60651   8.601   9.719   4.342 -0.3300 -0.0640  0.9110
18912SOL    HW160652   8.609   9.767   4.424 -0.2523 -0.4029  1.1000
18912SOL    HW260653   8.545   9.775   4.287  2.6180  2.0358 -0.2197
18913SOL     OW60654   4.217   0.680   5.359  0.0582 -0.1282  0.1793
18913SOL    HW160655   4.148   0.717   5.304 -0.0921 -1.5275 -0.6096
18913SOL    HW260656   4.192   0.588   5.371  0.3483  0.0057  2.1833
18914SOL     OW60657   3.510   3.925   8.823  0.6155 -0.0844  0.6543
18914SOL    HW160658   3.560   3.851   8.856 -0.1630 -1.3455 -0.8977
18914SOL    HW260659   3.575   3.995   8.813  1.6243 -0.9693  0.8548
18915SOL     OW60660   4.831   0.292   6.290  0.0189 -0.1717  0.0081
18915SOL    HW160661   4.819   0.271   6.197  0.6436  0.3850 -0.2039
18915SOL    HW260662   4.828   0.207   6.334 -3.2267 -0.2820 -0.1331
18916SOL     OW60663   7.283   6.346   5.765 -0.0618 -0.1342  0.1336
18916SOL    HW160664   7.234   6.322   5.843 -1.3250 -0.2032 -0.6462
18916SOL    HW260665   7.357   6.285   5.763 -1.7791 -2.3724 -0.4277
18917SOL     OW60666   9.198   1.333   4.965  0.1865  0.6733  0.2307
18917SOL    HW160667   9.150   1.252   4.984 -0.4783  0.6028 -1.5112
18917SOL    HW260668   9.290   1.310   4.977  0.0319 -0.4794 -0.6118
18918SOL     OW60669   8.047   2.422   3.198  0.2348  0.1812 -0.5398
18918SOL    HW160670   8.054   2.337   3.239 -0.4127  0.4734  0.1965
18918SOL    HW260671   8.137   2.447   3.177  0.4593 -0.4851 -0.3688
18919SOL     OW60672   3.384   6.748   2.008  0.0120 -0.1109 -0.3941
18919SOL    HW160673   3.470   6.771   1.974 -0.4336  0.7746 -0.9659
18919SOL    HW260674   3.343   6.699   1.936 -0.4194  0.5648 -0.6191
18920SOL     OW60675   4.994   2.440   8.866  0.0380 -0.0719  0.2827
18920SOL    HW160676   5.077   2.441   8.913  0.9440  0.0885 -1.2620
18920SOL    HW260677   4.991   2.355   8.823 -0.8081 -0.2462  0.6620
18921SOL     OW60678   5.119   9.373   1.819  0.1302  0.4746  0.0300
18921SOL    HW160679   5.203   9.418   1.820  0.0077  0.8851  3.3190
18921SOL    HW260680   5.140   9.282   1.841 -0.0970 -0.0352 -1.7225
18922SOL     OW60681   4.227   6.535   1.705  0.0143 -0.7431 -0.2161
18922SOL    HW160682   4.216   6.441   1.716  0.6717 -0.9731 -1.3919
18922SOL    HW260683   4.159   6.561   1.644 -0.1478 -0.4585  0.0838
18923SOL     OW60684   2.998   7.940   3.374 -0.0154  0.2481  0.0083
18923SOL    HW160685   3.079   7.977   3.410  1.3239 -0.6097 -1.9356
18923SOL    HW260686   2.943   7.923   3.451  1.7942  0.5268  1.4342
18924SOL     OW60687   9.341   1.181   0.373 -0.3808 -0.3225 -0.2313
18924SOL    HW160688   9.268   1.125   0.398 -0.1407 -1.4753 -1.9524
18924SOL    HW260689   9.343   1.249   0.440 -0.2925 -2.6856  2.3513
18925SOL     OW60690   6.510   2.217   3.852 -0.4054  0.2724 -0.2154
18925SOL    HW160691   6.540   2.293   3.901 -1.3236  0.3948  0.1779
18925SOL    HW260692   6.453   2.170   3.913 -1.1458  0.1457 -0.9875
18926SOL     OW60693   6.922  10.192   5.472 -0.4609  0.1290 -0.0166
18926SOL    HW160694   6.929  10.156   5.560  1.3586 -0.1040 -0.2145
18926SOL    HW260695   6.863  10.267   5.481  0.7988  0.9781  1.6927
18927SOL     OW60696   3.676   4.899   0.000  1.0753 -0.2008 -0.7347
18927SOL    HW160697   3.733   4.856  -0.064 -0.9320 -1.0493 -2.0346
18927SOL    HW260698   3.589   4.863  -0.017  0.0264  1.4384  0.8322
18928SOL     OW60699   3.518   7.725   4.602 -0.0269  0.1574 -0.4514
18928SOL    HW160700   3.583   7.794   4.594  0.2398 -0.1020 -0.5742
18928SOL    HW260701   3.461   7.736   4.525  0.5097 -0.2609 -0.9216
18929SOL     OW60702   2.911   7.990   9.660  0.4867 -0.0521  0.0754
18929SOL    HW160703   2.828   8.036   9.647  0.7747  0.4071 -0.1465
18929SOL    HW260704   2.978   8.058   9.654  0.8972 -0.4550  0.0356
18930SOL     OW60705   4.454   3.667   6.397 -0.6028  0.3895 -0.0693
18930SOL    HW160706   4.543   3.651   6.365 -0.1322  0.4204  1.1803
18930SOL    HW260707   4.400   3.670   6.317  0.1469 -1.8490 -0.7232
18931SOL     OW60708   1.939   1.351   3.467  0.5634 -0.2303 -0.3682
18931SOL    HW160709   1.888   1.345   3.387  0.1089 -0.5059 -0.0643
18931SOL    HW260710   1.874   1.363   3.537  1.0335  1.4005 -0.1775
18932SOL     OW60711   1.329   0.996   3.740 -0.2658  0.3282  0.1078
18932SOL    HW160712   1.302   1.077   3.784  1.1760  1.0022 -0.1954
18932SOL    HW260713   1.354   0.937   3.812  0.6335  0.8940  0.2777
18933SOL     OW60714   9.728   7.200   6.861  0.1787 -0.4521 -0.4040
18933SOL    HW160715   9.799   7.156   6.816 -1.1536 -0.7803 -2.2981
18933SOL    HW260716   9.752   7.293   6.858  0.9479 -0.6356 -0.1961
18934SOL     OW60717   5.865   7.760   1.396  0.4942  0.1490 -0.0923
18934SOL    HW160718   5.869   7.769   1.301  1.9622  0.0506 -0.0560
18934SOL    HW260719   5.791   7.814   1.422 -2.5473 -2.8580 -1.6388
18935SOL     OW60720   8.212   6.803   8.925 -0.2420 -0.6157 -0.1567
18935SOL    HW160721   8.157   6.880   8.909  0.4465 -0.2173 -0.6342
18935SOL    HW260722   8.191   6.743   8.853  0.6333 -0.0672 -0.8947
18936SOL     OW60723   4.414   4.491   6.836 -0.3048 -0.5825 -0.4807
18936SOL    HW160724   4.333   4.515   6.880  1.1690 -0.3518  2.3104
18936SOL    HW260725   4.386   4.435   6.763 -2.8166 -3.5378  2.4606
18937SOL     OW60726   6.031   3.260   0.853 -0.3064  0.0811 -0.6452
18937SOL    HW160727   5.961   3.292   0.910 -1.1484 -1.5824 -0.6994
18937SOL    HW260728   6.094   3.332   0.850 -2.4696  2.0693 -1.4089
18938SOL     OW60729   4.733   8.032   9.139  0.3801  0.5927 -0.7685
18938SOL    HW160730   4.683   8.001   9.215  0.4361 -0.7592 -1.2487
18938SOL    HW260731   4.812   7.977   9.139  0.0419  0.0553 -2.2011
18939SOL     OW60732   7.643   9.259   6.933 -0.5652  1.0376  0.8597
18939SOL    HW160733   7.664   9.292   7.020 -1.5644 -0.2347  1.6192
18939SOL    HW260734   7.652   9.335   6.875  0.8522  1.7397  1.9344
18940SOL     OW60735   4.294   6.772   8.011 -0.2558  0.0833  0.2592
18940SOL    HW160736   4.214   6.762   8.063 -1.0223 -0.6619 -0.9954
18940SOL    HW260737   4.262   6.785   7.921  1.0291 -1.6500 -0.5052
18941SOL     OW60738   7.498   1.466   4.602 -0.1332  0.4247 -0.3043
18941SOL    HW160739   7.546   1.518   4.666  1.3507  0.0904 -1.1027
18941SOL    HW260740   7.561   1.401   4.571 -1.3171 -0.4901 -0.8849
18942SOL     OW60741   3.084   2.663   7.240 -0.4279  0.2686 -0.2334
18942SOL    HW160742   3.177   2.683   7.230  0.0860 -2.1656 -1.0138
18942SOL    HW260743   3.045   2.745   7.272  2.0994  1.0850  1.0159
18943SOL     OW60744   1.975  10.127   5.504 -0.0758  0.0111 -0.4688
18943SOL    HW160745   2.070  10.139   5.507 -0.0201 -0.5283  0.0418
18943SOL    HW260746   1.959  10.052   5.561 -0.7646 -0.1736 -0.9034
18944SOL     OW60747   5.585   6.359   1.435 -0.1721 -0.0669  0.4321
18944SOL    HW160748   5.680   6.347   1.431  0.0975  1.9459 -0.2240
18944SOL    HW260749   5.570   6.449   1.406 -2.2721 -0.2378  0.7772
18945SOL     OW60750   4.710   7.472   6.727 -0.7074  0.6869  0.3626
18945SOL    HW160751   4.616   7.486   6.717 -0.7137  1.7770  1.6262
18945SOL    HW260752   4.717   7.405   6.796 -0.5549  0.1100 -0.2045
18946SOL     OW60753   5.578   1.243   1.130  0.0840  0.0050  0.4678
18946SOL    HW160754   5.510   1.182   1.160  1.4564 -1.6417  0.4231
18946SOL    HW260755   5.535   1.328   1.128 -1.5165 -0.6967  2.0085
18947SOL     OW60756   1.065   8.237   9.815  0.2755  0.0814  0.1104
18947SOL    HW160757   1.062   8.234   9.719  0.1764 -0.2875  0.1243
18947SOL    HW260758   1.120   8.163   9.840 -0.9147 -0.7377  0.3920
18948SOL     OW60759   7.469   4.753   1.225 -0.1401 -0.5552 -0.2703
18948SOL    HW160760   7.446   4.782   1.314 -3.5209 -2.4147 -0.3807
18948SOL    HW260761   7.522   4.675   1.238  1.0363  0.2655  0.0417
18949SOL     OW60762   4.747   7.268   1.962 -0.0271 -0.1883 -0.3646
18949SOL    HW160763   4.788   7.260   1.876 -0.9562 -1.2458 -0.7228
18949SOL    HW260764   4.686   7.341   1.953 -0.2388 -0.4014 -0.6459
18950SOL     OW60765   8.964   2.605   3.341 -0.1653 -0.4866 -0.1832
18950SOL    HW160766   9.010   2.528   3.373  1.3188  0.1805 -0.6168
18950SOL    HW260767   8.973   2.600   3.245 -0.2730  0.0917 -0.2265
18951SOL     OW60768   0.004   7.695   9.654 -0.1895  0.0016  0.2663
18951SOL    HW160769   0.077   7.686   9.593 -0.0656  1.4052  0.1969
18951SOL    HW260770  -0.072   7.661   9.606 -0.0578  0.9246 -0.6015
18952SOL     OW60771   3.066   7.207   6.798  0.4369 -0.3988  0.0858
18952SOL    HW160772   3.014   7.147   6.851  1.6042 -0.3128  1.3844
18952SOL    HW260773   3.023   7.292   6.809 -0.3155 -0.6789 -0.5249
18953SOL     OW60774   4.524   8.050   6.374  0.3154  0.2905  0.6237
18953SOL    HW160775   4.475   8.056   6.292  0.8469  1.1267  0.3518
18953SOL    HW260776   4.557   7.960   6.376  0.1290  0.2051  0.0180
18954SOL     OW60777   7.944   9.425   4.340  0.5326 -0.2584 -0.1818
18954SOL    HW160778   7.874   9.399   4.399  0.9566 -3.4968 -0.9287
18954SOL    HW260779   7.906   9.414   4.252  1.2326  0.3197 -0.5657
18955SOL     OW60780   8.373   8.206   3.225  0.1669  0.8819  0.3539
18955SOL    HW160781   8.406   8.223   3.314 -1.1552 -1.6283  1.4130
18955SOL    HW260782   8.328   8.122   3.232  1.1263 -0.0444 -3.0266
18956SOL     OW60783   2.718   5.484   0.721 -0.3682  0.0497  0.2011
18956SOL    HW160784   2.805   5.460   0.690 -0.7059 -0.9395 -0.0230
18956SOL    HW260785   2.734   5.536   0.800  0.4142 -1.5262  1.1393
18957SOL     OW60786   4.257   1.138   3.191  0.3880 -0.1055 -0.4484
18957SOL    HW160787   4.291   1.061   3.238  0.4861  1.3578  2.0533
18957SOL    HW260788   4.209   1.187   3.258 -0.3168  1.6654 -2.1561
18958SOL     OW60789   8.653   3.041   0.219 -0.1151  0.0153  0.2593
18958SOL    HW160790   8.574   3.087   0.248 -0.8623 -0.1356 -1.4015
18958SOL    HW260791   8.639   2.950   0.244 -0.5140 -0.0202 -0.0762
18959SOL     OW60792   0.996   8.568   8.102  0.7200 -0.4074  0.5783
18959SOL    HW160793   0.974   8.475   8.104 -0.2917 -0.2967 -1.8427
18959SOL    HW260794   1.023   8.589   8.192 -1.4605 -2.4338  1.7990
18960SOL     OW60795   9.772   7.851   5.312  0.4420 -0.2267  0.0951
18960SOL    HW160796   9.781   7.813   5.224 -2.4187  0.3316 -0.5371
18960SOL    HW260797   9.764   7.945   5.297  1.7627  0.1005  1.1782
18961SOL     OW60798   6.669   0.679  10.075 -0.4159 -0.3650 -0.3660
18961SOL    HW160799   6.685   0.773  10.076  0.6299 -0.5405 -0.0634
18961SOL    HW260800   6.743   0.642  10.027 -1.2805 -0.9692 -1.3046
18962SOL     OW60801   1.431   6.951   3.463  0.5305  0.4036  0.2249
18962SOL    HW160802   1.526   6.943   3.458  0.6538  1.4903  0.4979
18962SOL    HW260803   1.401   6.947   3.372  0.7628 -0.6770  0.1927
18963SOL     OW60804   9.097   2.088   0.831 -0.3906 -0.0522  0.2818
18963SOL    HW160805   9.123   2.159   0.890  1.2829 -0.6664  0.3279
18963SOL    HW260806   9.015   2.118   0.792  1.5252  3.1255 -1.7306
18964SOL     OW60807   6.711   3.671   7.911 -0.5515 -0.0085 -0.6555
18964SOL    HW160808   6.616   3.675   7.913 -0.5695 -0.1591 -1.1589
18964SOL    HW260809   6.739   3.761   7.899 -0.7210 -0.2188 -3.3491
18965SOL     OW60810   8.066   7.721   5.918  0.3962 -0.1522 -0.9078
18965SOL    HW160811   8.145   7.744   5.868  0.4151  1.5015 -0.1990
18965SOL    HW260812   8.046   7.800   5.967 -0.4269 -1.2686  0.6372
18966SOL     OW60813   8.179   8.847   0.728 -0.0816  0.3425 -0.3314
18966SOL    HW160814   8.139   8.776   0.677 -0.9099  0.7230 -0.2089
18966SOL    HW260815   8.269   8.850   0.695 -0.0103 -0.8054 -0.2987
18967SOL     OW60816   8.728   7.748   2.253 -0.4354 -0.4879 -0.0201
18967SOL    HW160817   8.739   7.655   2.272  1.2297 -0.0801  1.2394
18967SOL    HW260818   8.689   7.784   2.332  1.0758  0.2372  0.4402
18968SOL     OW60819   8.676   0.468   8.909 -0.2215 -0.0305 -0.2256
18968SOL    HW160820   8.704   0.525   8.838 -0.2748 -0.1689 -0.3594
18968SOL    HW260821   8.702   0.514   8.989 -0.9620  0.5570 -0.3047
18969SOL     OW60822   9.890   2.776   4.661 -0.3468 -0.4576 -0.3100
18969SOL    HW160823   9.892   2.855   4.715  1.9973 -0.5108 -0.2264
18969SOL    HW260824   9.813   2.728   4.691 -3.0058  2.5794 -1.6257
18970SOL     OW60825   3.383   7.884   3.870  0.0866 -0.4569 -0.5512
18970SOL    HW160826   3.385   7.965   3.922  1.0324  0.4544 -1.9454
18970SOL    HW260827   3.381   7.914   3.779 -0.4288 -2.0217 -1.0859
18971SOL     OW60828   7.800   3.963   1.637 -0.1727  0.2175  0.2342
18971SOL    HW160829   7.886   3.984   1.601 -1.3711  1.1852 -2.4089
18971SOL    HW260830   7.811   3.967   1.732  2.6598  0.2609 -0.0201
18972SOL     OW60831   4.708   3.720   0.286 -0.0440 -0.7208  0.0408
18972SOL    HW160832   4.777   3.783   0.262 -0.5649 -0.4179 -0.6955
18972SOL    HW260833   4.655   3.712   0.208 -1.7365  0.2067  1.0391
18973SOL     OW60834   7.789   4.910   9.594 -0.3689 -0.7394 -0.3064
18973SOL    HW160835   7.826   4.993   9.565  0.4026 -0.1191  2.1765
18973SOL    HW260836   7.862   4.863   9.634 -1.0852 -2.0278 -0.4435
18974SOL     OW60837   9.003   7.100   3.477  0.5291  0.5376 -0.6297
18974SOL    HW160838   8.949   7.039   3.528  0.1112  1.7352  0.3965
18974SOL    HW260839   8.961   7.103   3.391 -1.1733  1.5544  0.1861
18975SOL     OW60840   5.364   1.594   1.219 -0.0942  0.0144 -0.4829
18975SOL    HW160841   5.290   1.637   1.176 -0.4681 -0.5145 -0.3790
18975SOL    HW260842   5.424   1.666   1.241 -1.2203  0.6410  0.6954
18976SOL     OW60843   6.051   0.564   8.443  0.7042  0.2872  0.2904
18976SOL    HW160844   6.014   0.562   8.355  0.2211  0.4387  0.4842
18976SOL    HW260845   6.001   0.632   8.488  1.1185  0.3855  0.6055
18977SOL     OW60846   7.683   0.042   3.470  0.0470  0.0181 -0.7257
18977SOL    HW160847   7.717   0.023   3.383  1.4399 -0.8772 -0.0293
18977SOL    HW260848   7.758   0.078   3.518 -0.4698 -0.2461  0.3217
18978SOL     OW60849   4.990   2.137   4.005  0.3513  0.0264 -0.1323
18978SOL    HW160850   5.071   2.087   4.018  0.1092  0.0947  1.8965
18978SOL    HW260851   4.955   2.104   3.922  0.7366 -2.4414  0.6127
18979SOL     OW60852   6.377   5.748   8.414  0.2080  0.5767  0.0328
18979SOL    HW160853   6.402   5.761   8.506  0.9880  1.3233 -0.2688
18979SOL    HW260854   6.312   5.678   8.416  1.3178 -0.4723  1.0120
18980SOL     OW60855   0.603   9.864   1.436 -0.0053  1.0843 -0.1889
18980SOL    HW160856   0.588   9.792   1.374 -4.3209  1.6430 -0.0761
18980SOL    HW260857   0.654   9.824   1.506  0.8753 -0.8421 -1.7984
18981SOL     OW60858   4.369   8.324   7.593  0.5797  0.3119  0.1192
18981SOL    HW160859   4.446   8.290   7.548  0.3009  1.6086 -1.4549
18981SOL    HW260860   4.370   8.418   7.573 -1.4566  0.3401 -0.0531
18982SOL     OW60861   4.358   4.777   4.992 -0.1022  0.5913 -0.3505
18982SOL    HW160862   4.284   4.723   5.020 -0.0165  1.1068  0.9179
18982SOL    HW260863   4.433   4.718   4.995  0.0284  0.7958  1.2367
18983SOL     OW60864   2.053   7.518   9.024  0.5456  0.2553  0.1646
18983SOL    HW160865   2.143   7.527   9.055  0.6071  0.2260 -0.0044
18983SOL    HW260866   2.001   7.571   9.085  0.5559 -0.4518  0.8066
18984SOL     OW60867   9.685   0.574   7.866 -0.3376  0.4796 -0.1755
18984SOL    HW160868   9.722   0.550   7.782 -0.8704  1.8972 -0.8495
18984SOL    HW260869   9.643   0.494   7.898  1.9346 -0.7499 -0.0883
18985SOL     OW60870   9.128   7.997   3.965  0.4329  0.2747 -0.5997
18985SOL    HW160871   9.190   7.924   3.969  0.6820  0.5154  0.4395
18985SOL    HW260872   9.163   8.056   3.899  0.6772 -0.1578 -0.8559
18986SOL     OW60873   3.503   3.825   5.882 -0.2273 -0.3670  0.0106
18986SOL    HW160874   3.432   3.767   5.909 -0.2631 -0.8547 -1.0567
18986SOL    HW260875   3.565   3.823   5.954 -0.7987 -0.7923  0.4980
18987SOL     OW60876   3.986   1.088   1.702  0.9558  0.3656  0.0947
18987SOL    HW160877   4.037   1.133   1.770  0.4101  0.1341  0.6729
18987SOL    HW260878   4.004   1.136   1.622  0.6177  1.4319  0.6437
18988SOL     OW60879   5.300   0.834   1.582 -0.1572  0.0405  0.2420
18988SOL    HW160880   5.281   0.857   1.673  0.5419  0.4407  0.2918
18988SOL    HW260881   5.246   0.757   1.566  0.0547 -0.3172  1.1430
18989SOL     OW60882   6.189   9.925   2.553 -0.1272 -0.1543  0.2368
18989SOL    HW160883   6.224   9.840   2.525 -0.6808 -0.8425  1.5163
18989SOL    HW260884   6.211   9.985   2.482 -0.0318 -1.4409 -0.8617
18990SOL     OW60885   2.051   6.439   8.859  0.3885  1.0384 -0.0526
18990SOL    HW160886   2.063   6.414   8.768  1.7149 -0.2020  0.4266
18990SOL    HW260887   1.958   6.420   8.877  0.7861 -1.5788 -0.3589
18991SOL     OW60888   4.260   3.554   3.405  0.1265 -0.1115 -0.2545
18991SOL    HW160889   4.185   3.498   3.424  1.3790 -1.6868  0.2379
18991SOL    HW260890   4.244   3.588   3.317 -0.0981 -2.2413 -1.0798
18992SOL     OW60891   8.152   4.669   0.250  0.2437  0.3274 -0.0818
18992SOL    HW160892   8.214   4.597   0.262  0.3905  0.4050 -0.3795
18992SOL    HW260893   8.177   4.733   0.317 -0.3633 -0.2175  0.6861
18993SOL     OW60894   7.217   5.712   1.680  0.3257 -0.2658 -0.6524
18993SOL    HW160895   7.158   5.708   1.755  1.0563 -1.3532 -0.1145
18993SOL    HW260896   7.194   5.635   1.627  2.5061 -1.8299  0.5479
18994SOL     OW60897   1.948   8.935   6.062  0.4198 -0.1451  0.5920
18994SOL    HW160898   1.949   9.012   6.005  0.7866  0.2826  1.1646
18994SOL    HW260899   1.910   8.966   6.144  0.9701 -0.4645  0.9755
18995SOL     OW60900   1.369   9.639   7.120  0.0203  0.0560  0.4604
18995SOL    HW160901   1.277   9.666   7.114  0.1934  0.5895  0.0027
18995SOL    HW260902   1.373   9.557   7.071 -0.5148 -0.8415  1.8581
18996SOL     OW60903   8.872   4.345   4.970 -0.4688 -0.6332 -0.1105
18996SOL    HW160904   8.810   4.273   4.964 -0.4215 -0.6275 -0.6725
18996SOL    HW260905   8.826   4.420   4.933  0.3407 -0.9390 -1.8379
18997SOL     OW60906   6.352   6.734   2.074  0.7842  0.0965 -0.1353
18997SOL    HW160907   6.415   6.683   2.126 -0.2449 -0.2005  0.8561
18997SOL    HW260908   6.358   6.823   2.109 -0.4213 -0.2487  1.0416
18998SOL     OW60909   3.690   5.727   5.279  0.2838 -0.4594 -0.0100
18998SOL    HW160910   3.785   5.718   5.291  0.5246  1.5135 -0.2340
18998SOL    HW260911   3.679   5.798   5.216 -1.3571  0.9255  1.6922
18999SOL     OW60912   6.387   0.406   9.744  0.2742 -0.2734  0.1481
18999SOL    HW160913   6.449   0.345   9.705 -0.3916 -0.7594 -0.1662
18999SOL    HW260914   6.344   0.448   9.669  1.3386  1.2338  0.3414
19000SOL     OW60915   2.874   9.651   3.348  0.3803 -0.2824 -0.1919
19000SOL    HW160916   2.825   9.731   3.369 -1.4369 -1.1002 -1.0891
19000SOL    HW260917   2.873   9.646   3.252 -0.5077 -1.8937 -0.1496
19001SOL     OW60918   3.370   1.228   8.612 -0.1984  0.3469  0.1677
19001SOL    HW160919   3.421   1.219   8.531  1.9751 -1.6301  1.6130
19001SOL    HW260920   3.387   1.318   8.640 -0.0787  0.7082 -1.0061
19002SOL     OW60921   6.603   4.309   9.875 -0.4132 -0.2146 -0.1770
19002SOL    HW160922   6.554   4.297   9.794 -1.4391 -0.2668  0.4327
19002SOL    HW260923   6.547   4.270   9.943  0.8529 -1.0517  0.4366
19003SOL     OW60924   4.981   4.582   5.001  0.2426  0.7661  0.8552
19003SOL    HW160925   4.914   4.614   4.941  0.5351  0.6777  0.4760
19003SOL    HW260926   4.940   4.507   5.045  0.0552  0.7806  0.7081
19004SOL     OW60927   4.798   4.395   4.583  0.3902 -0.0988 -0.6340
19004SOL    HW160928   4.875   4.340   4.600 -0.1390 -0.5124  0.5125
19004SOL    HW260929   4.758   4.356   4.505  0.6537 -0.6404 -0.5012
19005SOL     OW60930   5.752   8.370   1.854 -0.5420  0.3015 -0.4759
19005SOL    HW160931   5.774   8.458   1.883  0.5039  0.1294 -0.7189
19005SOL    HW260932   5.711   8.329   1.930 -0.4938  0.7916 -0.1790
19006SOL     OW60933   1.410   7.047   3.889  0.1806  0.1846 -0.3995
19006SOL    HW160934   1.477   7.054   3.957  0.3667 -2.0040 -0.2693
19006SOL    HW260935   1.330   7.026   3.937 -0.3823  1.6787 -0.6473
19007SOL     OW60936   3.681   5.250   9.229 -0.5601 -0.3226  0.2790
19007SOL    HW160937   3.776   5.262   9.226 -0.5835 -0.2817 -0.8266
19007SOL    HW260938   3.647   5.339   9.235 -0.5681 -0.1376 -1.7670
19008SOL     OW60939   2.381   6.363   9.005  0.3700  0.6790 -0.3306
19008SOL    HW160940   2.292   6.366   9.040 -0.1240  1.2203 -1.5696
19008SOL    HW260941   2.409   6.455   9.001  0.3680  0.6442 -1.4293
19009SOL     OW60942   2.337   3.761   4.636  0.5026 -0.1973 -0.3602
19009SOL    HW160943   2.242   3.771   4.649  0.1819 -2.5945 -0.4168
19009SOL    HW260944   2.364   3.701   4.706  1.8556 -0.1254 -0.8066
19010SOL     OW60945   2.347   6.346   2.096  0.2914  0.0307  0.1624
19010SOL    HW160946   2.377   6.435   2.117  0.0294 -0.0168  0.7685
19010SOL    HW260947   2.314   6.312   2.180 -0.9874 -0.0977 -0.3676
19011SOL     OW60948   5.803   9.956   6.192  0.0932  0.7267  0.1059
19011SOL    HW160949   5.748   9.941   6.115  0.0758 -1.8759  0.5673
19011SOL    HW260950   5.781  10.045   6.219 -1.2557  1.0391 -1.8005
19012SOL     OW60951   4.435   1.461   1.200 -0.5859  0.2206  0.2948
19012SOL    HW160952   4.495   1.389   1.220  1.0694  0.8826 -1.9230
19012SOL    HW260953   4.491   1.539   1.197 -2.0928  1.4054  1.1544
19013SOL     OW60954   9.398   8.667   9.635  0.1660  0.0199 -0.1214
19013SOL    HW160955   9.337   8.599   9.606  1.1776  0.2818 -3.2237
19013SOL    HW260956   9.458   8.622   9.694 -1.8864 -0.6175  1.6268
19014SOL     OW60957   3.531   6.732   8.709 -0.2326  0.0366  0.5039
19014SOL    HW160958   3.437   6.726   8.730 -0.1883 -2.1519  0.2789
19014SOL    HW260959   3.534   6.735   8.614 -0.0719  0.5693  0.5216
19015SOL     OW60960   5.978   8.002   2.281 -0.0987 -0.3708 -0.0774
19015SOL    HW160961   6.036   8.067   2.320 -0.1136 -1.1867  1.3811
19015SOL    HW260962   5.949   8.041   2.199 -1.9899  2.5287  1.8024
19016SOL     OW60963   2.253   1.700   8.048 -0.5768  0.2603 -0.0521
19016SOL    HW160964   2.231   1.673   7.959  0.9469 -1.4384  0.0384
19016SOL    HW260965   2.288   1.621   8.089  1.2323  1.6566  1.2262
19017SOL     OW60966   3.528   9.831   5.186 -0.1596  0.1169  0.2352
19017SOL    HW160967   3.553   9.742   5.162  0.3841  0.4230 -0.3506
19017SOL    HW260968   3.434   9.834   5.171 -0.1219 -0.2459 -0.1025
19018SOL     OW60969   8.386   2.386   4.651  0.1452 -0.6723 -0.0391
19018SOL    HW160970   8.292   2.372   4.662  0.1218 -0.5878 -0.1277
19018SOL    HW260971   8.421   2.299   4.631 -0.0293 -0.5786 -0.7854
19019SOL     OW60972   5.516   3.600   6.553  0.0179 -0.0376 -0.4024
19019SOL    HW160973   5.594   3.554   6.585 -0.5665  0.6543  2.2944
19019SOL    HW260974   5.529   3.691   6.579 -2.5966 -0.2701  2.3441
19020SOL     OW60975   1.243   9.105   8.761 -0.2449 -0.4808 -0.0646
19020SOL    HW160976   1.251   9.149   8.845  0.7185 -0.3171 -0.2299
19020SOL    HW260977   1.166   9.049   8.771 -0.6790  0.2063  0.6079
19021SOL     OW60978   5.526   0.772   6.671  0.3660  0.6523  0.1942
19021SOL    HW160979   5.596   0.724   6.715 -1.0153 -1.5970  0.0970
19021SOL    HW260980   5.560   0.790   6.583  0.5404 -1.3022 -0.1935
19022SOL     OW60981   2.619   9.458   8.712  0.3796 -0.4635 -0.1174
19022SOL    HW160982   2.556   9.445   8.641  0.8335 -0.8934 -0.4543
19022SOL    HW260983   2.702   9.478   8.667  0.4164  0.4193  0.3276
19023SOL     OW60984   9.064   8.134   1.686  0.0132  0.5471  0.4130
19023SOL    HW160985   9.102   8.143   1.774 -0.2117  0.3751  0.5288
19023SOL    HW260986   8.979   8.093   1.701  0.1924  0.0488  0.0705
19024SOL     OW60987   4.524   1.402   0.335  0.1435 -0.2283  0.8884
19024SOL    HW160988   4.432   1.376   0.337  0.5858 -1.8657  0.9764
19024SOL    HW260989   4.561   1.363   0.414  0.5930  1.7805  1.7203
19025SOL     OW60990   0.553   9.998   0.011  0.1819  0.3754 -0.5921
19025SOL    HW160991   0.465   9.965  -0.007  1.1212 -1.4870 -1.9766
19025SOL    HW260992   0.591  10.015  -0.075  1.8920 -0.8029 -0.1050
19026SOL     OW60993   0.912   3.148   7.284  0.0064 -0.5473  0.6472
19026SOL    HW160994   0.996   3.127   7.326  1.0386  1.5693 -0.2238
19026SOL    HW260995   0.930   3.139   7.190 -0.9429 -0.6677  0.4711
19027SOL     OW60996   4.550   9.310   3.951  0.1089 -0.0178 -0.3534
19027SOL    HW160997   4.570   9.395   3.911 -0.0094  0.8168  1.2329
19027SOL    HW260998   4.454   9.305   3.949 -0.1198  1.3809  2.2461
19028SOL     OW60999   0.155   1.538   8.178 -0.0599 -0.5486  0.0813
19028SOL    HW161000   0.161   1.494   8.263  0.3083 -1.1226 -0.2391
19028SOL    HW261001   0.224   1.605   8.180  0.5047 -1.1226 -0.0925
19029SOL     OW61002   2.743   7.488   5.117 -0.3839  0.0826 -0.1328
19029SOL    HW161003   2.696   7.460   5.038  1.1033  0.8481 -1.3513
19029SOL    HW261004   2.789   7.409   5.146 -0.2230  0.0110 -0.5734
19030SOL     OW61005   6.668   9.203   4.065 -0.4203  0.0712 -0.0782
19030SOL    HW161006   6.705   9.174   3.982  0.8898 -2.4179  1.2482
19030SOL    HW261007   6.732   9.265   4.100 -0.5679  0.4788 -0.5132
19031SOL     OW61008   5.289   6.058   2.428  0.3183 -0.5723 -0.8505
19031SOL    HW161009   5.367   6.047   2.373  0.4207 -0.9909 -0.6242
19031SOL    HW261010   5.234   6.119   2.379  0.4526 -0.8669 -1.3746
19032SOL     OW61011   4.432   7.507   7.132 -0.5393  0.0486 -0.5712
19032SOL    HW161012   4.473   7.570   7.073  0.9047 -0.5001 -0.1971
19032SOL    HW261013   4.361   7.556   7.174 -0.4947  0.9342 -1.4938
19033SOL     OW61014   1.530   7.234   1.914 -0.6982 -1.0308 -0.4491
19033SOL    HW161015   1.556   7.300   1.977  0.4193 -2.0220  0.1697
19033SOL    HW261016   1.451   7.270   1.872 -0.6145  0.2794  0.4669
19034SOL     OW61017   2.401   9.096   5.313 -0.7388 -0.0337 -0.3699
19034SOL    HW161018   2.315   9.124   5.342 -0.7148 -0.3607  0.0278
19034SOL    HW261019   2.445   9.176   5.285 -0.5569  0.3734  1.0212
19035SOL     OW61020   4.589   4.517   2.795 -0.5513 -0.4251 -0.1421
19035SOL    HW161021   4.556   4.428   2.790  0.3996 -0.8229  0.5762
19035SOL    HW261022   4.630   4.524   2.881 -0.3463  0.6139 -0.3047
19036SOL     OW61023   8.499   8.418   0.519 -0.0335  0.6743  0.1099
19036SOL    HW161024   8.446   8.388   0.445  1.0543  2.1076 -1.3437
19036SOL    HW261025   8.589   8.397   0.493  0.3152  0.3551  1.4874
19037SOL     OW61026   9.531   2.486   2.785  0.5732  0.6154 -0.4841
19037SOL    HW161027   9.466   2.418   2.771 -0.5703  1.0536  2.0625
19037SOL    HW261028   9.502   2.560   2.732 -1.6208  1.1151  1.2646
19038SOL     OW61029   2.150   7.173   1.403  0.0187  0.0371  0.6025
19038SOL    HW161030   2.118   7.263   1.391 -0.0080  0.0041  0.4227
19038SOL    HW261031   2.071   7.119   1.401  0.1290 -0.1009 -0.3993
19039SOL     OW61032   2.322   0.045   9.414 -0.2414 -0.5151 -0.0653
19039SOL    HW161033   2.308   0.119   9.355 -0.8971 -0.0013  0.7197
19039SOL    HW261034   2.238   0.032   9.457  0.8178  0.7597  2.6124
19040SOL     OW61035   9.292   2.488   8.319 -0.5953 -0.8520 -0.1661
19040SOL    HW161036   9.224   2.511   8.381 -0.1331 -1.2740  0.5036
19040SOL    HW261037   9.349   2.565   8.315  0.4027 -1.4588  1.3385
19041SOL     OW61038   1.168   2.258   4.325  0.2126  0.3527 -0.0368
19041SOL    HW161039   1.214   2.328   4.279  0.0232  0.4654 -0.0560
19041SOL    HW261040   1.083   2.296   4.346  0.0527  0.0705 -0.1889
19042SOL     OW61041   8.061   0.225   7.948  0.0864  0.8620 -0.1546
19042SOL    HW161042   8.081   0.270   8.030  2.0112  1.4679 -0.8955
19042SOL    HW261043   8.143   0.182   7.924 -0.8649 -0.5828 -1.0134
19043SOL     OW61044   2.654   1.839   5.820 -0.0399 -0.2145  0.3359
19043SOL    HW161045   2.600   1.917   5.834  0.2432 -0.2114  1.5322
19043SOL    HW261046   2.619   1.775   5.882  0.5056 -0.6365  0.2150
19044SOL     OW61047   9.275   0.758   7.305  0.0787  0.6570 -0.1895
19044SOL    HW161048   9.313   0.820   7.243  0.8772 -0.6893 -1.0819
19044SOL    HW261049   9.332   0.762   7.382 -1.2275  2.7460  0.7908
19045SOL     OW61050   3.323   3.683   8.545 -0.5358  0.2348  0.0513
19045SOL    HW161051   3.401   3.663   8.597  0.3223  1.7505 -0.5914
19045SOL    HW261052   3.314   3.608   8.485  1.0501  0.4800 -0.5506
19046SOL     OW61053   4.816   0.215   5.799 -0.2521 -0.2166 -0.0976
19046SOL    HW161054   4.886   0.165   5.840 -0.9261 -0.8076  0.3605
19046SOL    HW261055   4.763   0.149   5.753 -1.0343  0.0858  0.3463
19047SOL     OW61056   1.429   7.855   0.247 -0.3648  0.0446  0.1503
19047SOL    HW161057   1.492   7.926   0.263  1.5310 -1.4164 -0.5141
19047SOL    HW261058   1.403   7.867   0.156 -1.2708  0.7612  0.4777
19048SOL     OW61059   4.130   2.915   2.792  0.1508  0.4761  0.1727
19048SOL    HW161060   4.189   2.945   2.861  1.4699 -1.3172 -0.0783
19048SOL    HW261061   4.044   2.946   2.818  0.9438  1.6829  1.4815
19049SOL     OW61062   4.401   6.420   4.431  0.2877 -0.2454  0.2134
19049SOL    HW161063   4.375   6.492   4.373 -1.4240  0.5097  1.8083
19049SOL    HW261064   4.438   6.464   4.508 -1.2691 -0.9958  1.4455
19050SOL     OW61065   6.311   1.371   7.302  0.3001 -0.3459 -0.1154
19050SOL    HW161066   6.237   1.310   7.303 -1.5627  1.7599  1.6124
19050SOL    HW261067   6.372   1.335   7.367 -0.6251 -0.5644  0.6641
19051SOL     OW61068   7.453   8.405   3.243 -0.7508 -0.0254 -0.0613
19051SOL    HW161069   7.411   8.488   3.220 -0.1976  0.4935  0.7297
19051SOL    HW261070   7.380   8.348   3.270 -0.9915  0.8992  1.4116
19052SOL     OW61071   6.727   8.093   2.371  0.1310 -0.2484  0.4391
19052SOL    HW161072   6.682   8.165   2.327 -0.5989  0.5393  2.3394
19052SOL    HW261073   6.659   8.026   2.382  1.0801 -1.8420 -2.3715
19053SOL     OW61074   5.784   8.520   3.405 -0.5454 -0.3072  0.1117
19053SOL    HW161075   5.816   8.443   3.451 -0.1744 -1.3113 -1.7047
19053SOL    HW261076   5.708   8.488   3.355 -1.7300  1.0270  0.9631
19054SOL     OW61077   2.574   8.410   4.098 -0.3935  0.1934  0.0745
19054SOL    HW161078   2.592   8.496   4.136 -0.5785  1.7837 -3.0761
19054SOL    HW261079   2.518   8.429   4.022  2.0837 -2.2675 -2.6153
19055SOL     OW61080   8.763   5.133   8.268  0.0983  0.1118 -0.3403
19055SOL    HW161081   8.840   5.152   8.216 -0.3958 -0.3079 -1.2468
19055SOL    HW261082   8.716   5.216   8.272 -0.2776 -0.0462 -1.2843
19056SOL     OW61083   7.702   7.615   3.211  0.7036 -0.1409  0.2295
19056SOL    HW161084   7.723   7.673   3.283  0.7210  0.0057  0.1054
19056SOL    HW261085   7.708   7.669   3.132 -0.3670 -0.0315  0.2061
19057SOL     OW61086   8.275   8.433   1.033  0.8987  0.7768 -0.4104
19057SOL    HW161087   8.191   8.394   1.010 -0.0656  2.6035 -0.1817
19057SOL    HW261088   8.332   8.359   1.053 -1.2615 -0.4990  1.5091
19058SOL     OW61089  10.105   9.333   3.130  0.1537 -0.1315 -0.1790
19058SOL    HW161090  10.040   9.273   3.166 -1.1276  1.0589 -0.3989
19058SOL    HW261091  10.187   9.311   3.174 -0.3294 -1.8500 -0.0920
19059SOL     OW61092   6.460   1.132   1.312  0.4215  0.5099 -0.1126
19059SOL    HW161093   6.468   1.040   1.336 -1.7744  0.3372  0.1428
19059SOL    HW261094   6.458   1.132   1.216  0.0603  0.2427 -0.1074
19060SOL     OW61095   4.944   9.777   8.529 -0.1432  0.0359  0.4655
19060SOL    HW161096   4.893   9.764   8.609  1.5096  0.1174  1.5949
19060SOL    HW261097   5.032   9.799   8.560  0.1863  1.6107 -1.3885
19061SOL     OW61098  10.044   2.518   2.126  0.4078  0.4285 -0.5295
19061SOL    HW161099   9.991   2.441   2.149  1.1512  0.5403  1.7435
19061SOL    HW261100   9.985   2.573   2.075 -1.2735 -0.0585  0.8007
19062SOL     OW61101   1.131   5.051   3.531  0.2714  0.4339 -0.6517
19062SOL    HW161102   1.148   5.126   3.588  1.5949 -1.4441  1.6093
19062SOL    HW261103   1.218   5.022   3.503 -0.2541  0.0615 -1.9816
19063SOL     OW61104   4.123   9.085   7.200 -0.3642  0.3136  0.8484
19063SOL    HW161105   4.181   9.135   7.142 -0.1515 -1.4475 -0.5414
19063SOL    HW261106   4.051   9.146   7.220  0.0351  1.2863 -0.5234
19064SOL     OW61107   0.654   7.446   7.773 -0.0458  0.5615  0.2551
19064SOL    HW161108   0.741   7.477   7.747 -0.5322  4.3015  2.4141
19064SOL    HW261109   0.661   7.432   7.867 -1.3471 -0.9539  0.1577
19065SOL     OW61110   4.668   4.961   5.117 -0.5763 -0.7112  0.0251
19065SOL    HW161111   4.605   5.026   5.086  0.0155 -0.2193 -0.1670
19065SOL    HW261112   4.744   4.971   5.059  0.3230 -0.1955  1.2415
19066SOL     OW61113   9.604   0.218   6.236 -0.0441  0.2604  0.0030
19066SOL    HW161114   9.697   0.198   6.222 -0.1545  0.0459 -0.4377
19066SOL    HW261115   9.578   0.160   6.308  0.5125  1.3220  1.0967
19067SOL     OW61116   6.373   3.103   9.483 -0.2486 -0.2062  0.2827
19067SOL    HW161117   6.288   3.146   9.475 -1.4495 -2.6545 -1.5270
19067SOL    HW261118   6.368   3.055   9.566  1.1124  2.8911  2.3290
19068SOL     OW61119   6.474   8.941   6.755  0.0427 -0.5531  0.0919
19068SOL    HW161120   6.449   8.985   6.674  0.2139 -0.4743  0.0800
19068SOL    HW261121   6.402   8.958   6.815  0.4124  0.3368  0.3065
19069SOL     OW61122   2.520   5.063   1.337  0.0980  0.2370  0.2778
19069SOL    HW161123   2.487   5.002   1.272 -0.4690 -1.7396  2.2931
19069SOL    HW261124   2.613   5.043   1.345  0.1278  0.3486  0.2156
19070SOL     OW61125   2.570   3.902   0.343 -0.2862  0.1372  0.3886
19070SOL    HW161126   2.533   3.844   0.409 -0.9538  0.3513  0.2136
19070SOL    HW261127   2.665   3.897   0.357 -0.4117  0.1447  1.3342
19071SOL     OW61128   3.714   2.654   8.658 -0.4113 -0.1967  0.6166
19071SOL    HW161129   3.729   2.671   8.564 -1.9196  0.6540  0.4895
19071SOL    HW261130   3.741   2.564   8.671 -0.6500 -0.4926 -0.7663
19072SOL     OW61131   4.412   1.334   0.013  0.0798 -0.3917  0.5214
19072SOL    HW161132   4.360   1.335   0.093 -0.5188  1.4699  0.1618
19072SOL    HW261133   4.503   1.334   0.044 -0.1432  0.2581  1.2060
19073SOL     OW61134   0.841   8.292   2.409 -0.3146  0.4068  0.2747
19073SOL    HW161135   0.788   8.370   2.430  1.0611  1.7496 -1.0477
19073SOL    HW261136   0.906   8.323   2.347  1.5972 -1.3598  1.2789
19074SOL     OW61137   2.706   0.542   6.018  0.7364  0.0691  0.0064
19074SOL    HW161138   2.789   0.498   6.001  1.3713  0.5405  1.7360
19074SOL    HW261139   2.694   0.536   6.113 -1.1000  0.2072 -0.1721
19075SOL     OW61140   4.142   4.931   0.138 -0.0795  0.9179 -0.9267
19075SOL    HW161141   4.104   4.854   0.182 -2.3665  1.2852 -2.0987
19075SOL    HW261142   4.066   4.985   0.117  1.3290  2.6202 -1.8017
19076SOL     OW61143   8.899   0.302   0.728 -0.3730 -0.3701  0.2271
19076SOL    HW161144   8.950   0.364   0.779 -2.3341  0.9641  0.6851
19076SOL    HW261145   8.923   0.216   0.763  2.0224  0.0977 -0.0839
19077SOL     OW61146   4.952   2.747   7.278 -0.1237  0.1742 -0.0374
19077SOL    HW161147   4.979   2.821   7.332  1.0204 -0.5339  0.3871
19077SOL    HW261148   4.860   2.765   7.257 -0.1236  1.2532  0.8131
19078SOL     OW61149   6.605   0.569   8.884 -0.0344  0.5407 -0.2498
19078SOL    HW161150   6.525   0.557   8.934  0.0489  1.3270  0.0810
19078SOL    HW261151   6.636   0.480   8.866 -0.3505  0.2451  0.6281
19079SOL     OW61152   9.251   6.242   5.532  0.3215  0.5631  0.3660
19079SOL    HW161153   9.323   6.189   5.497  0.9160  1.0126  0.8786
19079SOL    HW261154   9.285   6.277   5.615  0.4373  2.8076 -0.5613
19080SOL     OW61155   3.920   0.668   1.940  0.6477  0.0806 -0.1729
19080SOL    HW161156   3.877   0.727   1.879 -0.1247 -0.0529  0.2318
19080SOL    HW261157   3.908   0.709   2.026 -1.0752 -1.2881  0.3017
19081SOL     OW61158   3.260   6.545   3.720  0.4075 -0.0055 -0.0510
19081SOL    HW161159   3.172   6.561   3.754  1.1279 -1.4256  2.7028
19081SOL    HW261160   3.307   6.627   3.735 -0.3397  0.7009 -1.3775
19082SOL     OW61161   4.242   7.855   6.467  0.0090 -0.0114  0.7778
19082SOL    HW161162   4.269   7.938   6.506  0.3066 -0.5005  1.6598
19082SOL    HW261163   4.311   7.793   6.492  1.1406 -0.0094 -2.0220
19083SOL     OW61164   9.119   0.586   6.427  0.0285 -0.1676  0.3331
19083SOL    HW161165   9.138   0.648   6.497 -0.2757 -0.3775  0.6018
19083SOL    HW261166   9.149   0.502   6.461  2.2398  0.1045 -0.7731
19084SOL     OW61167   0.135   1.732   1.083  0.1010  0.3320  0.1250
19084SOL    HW161168   0.115   1.674   1.157  0.1274  0.0399 -0.0916
19084SOL    HW261169   0.192   1.799   1.120 -1.7348  1.5427  0.9017
19085SOL     OW61170   4.690   3.859  10.111 -0.3156 -0.0516  0.0332
19085SOL    HW161171   4.711   3.779  10.063  0.0054 -1.0357  1.7195
19085SOL    HW261172   4.625   3.904  10.056 -0.2048 -1.2592 -1.1400
19086SOL     OW61173   2.716   6.231   9.301  0.3376 -0.1632  0.0562
19086SOL    HW161174   2.778   6.209   9.370 -0.0918  1.4173  0.9850
19086SOL    HW261175   2.644   6.169   9.312  0.4165 -0.1251  0.8378
19087SOL     OW61176   7.109   9.349   9.923  0.0082  0.3006  0.3599
19087SOL    HW161177   7.166   9.358   9.847 -1.8288 -0.6510 -1.2358
19087SOL    HW261178   7.126   9.427   9.975  2.6255  0.0925 -0.0771
19088SOL     OW61179   1.575   5.934   7.477  0.1982  0.2261  0.5486
19088SOL    HW161180   1.503   5.875   7.500  1.1503 -0.2163  2.6281
19088SOL    HW261181   1.587   5.988   7.555  2.4368 -0.0490  0.4375
19089SOL     OW61182   3.235   1.433   4.549  0.0384 -0.1145  0.6237
19089SOL    HW161183   3.306   1.413   4.611  0.1012  0.6920  0.8246
19089SOL    HW261184   3.157   1.439   4.604  0.0322  0.2310  0.5843
19090SOL     OW61185   6.672   7.536   6.452 -0.1940  0.2362 -0.3067
19090SOL    HW161186   6.621   7.569   6.526  1.3690  0.3230  0.7618
19090SOL    HW261187   6.728   7.610   6.427 -0.3952  0.0641 -1.3088
19091SOL     OW61188   7.528  10.156   0.370 -0.1202 -0.4123 -0.0796
19091SOL    HW161189   7.566  10.098   0.437 -0.5428  0.1504  0.6600
19091SOL    HW261190   7.558  10.243   0.394 -0.1143 -0.2247 -0.7495
19092SOL     OW61191   5.126   7.030   5.270 -0.6116 -0.0564  0.5417
19092SOL    HW161192   5.113   7.106   5.328 -2.3977  0.7102 -0.7793
19092SOL    HW261193   5.193   7.059   5.208 -0.5841  0.0656  0.6260
19093SOL     OW61194   4.774   8.809   0.581 -0.0198 -0.3080 -0.4363
19093SOL    HW161195   4.767   8.874   0.511  0.4977 -0.1319 -0.3262
19093SOL    HW261196   4.688   8.810   0.623  0.6960  2.0681  1.1196
19094SOL     OW61197   9.926   8.418   6.883  0.1386 -0.7851  0.0399
19094SOL    HW161198   9.842   8.408   6.927 -0.7149  1.5305 -0.8774
19094SOL    HW261199   9.906   8.464   6.802  2.3046  0.0356 -0.1158
19095SOL     OW61200   0.114   9.526   3.374  0.2006 -0.5112  0.1127
19095SOL    HW161201   0.185   9.516   3.438 -1.6067 -0.2500  2.2538
19095SOL    HW261202   0.036   9.542   3.426 -1.0105  2.1709 -2.2402
19096SOL     OW61203   9.561   1.140   4.159  0.5039  0.3913  0.1172
19096SOL    HW161204   9.520   1.188   4.231 -0.0484  1.7864 -1.0941
19096SOL    HW261205   9.628   1.199   4.125  2.9759 -1.4629  1.4215
19097SOL     OW61206   2.323   5.474   3.329 -0.1520  1.2203  0.0563
19097SOL    HW161207   2.367   5.408   3.382  0.0025  0.0564 -1.4397
19097SOL    HW261208   2.384   5.547   3.326  0.6622  0.5576 -0.0356
19098SOL     OW61209   3.384   2.835   4.418  0.5088  0.7167  0.0260
19098SOL    HW161210   3.440   2.847   4.342 -1.3579 -2.4583 -2.1167
19098SOL    HW261211   3.334   2.916   4.424  2.0872  1.8029 -0.8662
19099SOL     OW61212   5.053   9.905   9.579  0.0244 -0.1271  0.0742
19099SOL    HW161213   5.113   9.977   9.557 -1.1188  0.4342 -1.4284
19099SOL    HW261214   5.087   9.830   9.530  1.5473 -0.8536  2.0807
19100SOL     OW61215   5.553   7.801   5.331  0.3880 -0.0041  0.5066
19100SOL    HW161216   5.590   7.715   5.310  0.0355  0.1217 -0.7212
19100SOL    HW261217   5.574   7.855   5.255 -0.0454  0.7935  0.9401
19101SOL     OW61218   0.192   8.385   9.754 -0.1585  0.1698  0.0418
19101SOL    HW161219   0.154   8.297   9.755 -2.0263  0.8999  2.0623
19101SOL    HW261220   0.218   8.400   9.663 -1.5050 -1.7650 -0.7152
19102SOL     OW61221   4.149   1.782   8.757  0.0163 -0.5683  0.3486
19102SOL    HW161222   4.164   1.801   8.665 -1.8678 -1.7584 -0.2765
19102SOL    HW261223   4.067   1.732   8.758 -0.4678  0.1157  2.7421
19103SOL     OW61224   9.995   9.274   2.384  0.2494  0.3988  0.0064
19103SOL    HW161225   9.900   9.282   2.373  0.4042  0.7298 -1.3181
19103SOL    HW261226  10.021   9.352   2.432 -0.1993  0.1040  0.7370
19104SOL     OW61227   5.485   0.603   9.717  0.5181 -0.2027  0.5325
19104SOL    HW161228   5.412   0.555   9.754 -0.0039  0.5547  0.5108
19104SOL    HW261229   5.543   0.621   9.792  0.6085 -0.6668  0.5746
19105SOL     OW61230   4.075   3.769   8.138  0.0866  0.3718 -0.2222
19105SOL    HW161231   3.992   3.727   8.115  0.0941 -0.3361  0.9397
19105SOL    HW261232   4.139   3.729   8.079  0.5049 -3.0680  2.2385
19106SOL     OW61233   6.372   0.726   0.781  0.1774  0.3000  0.4722
19106SOL    HW161234   6.391   0.710   0.874 -1.6562 -3.3953  0.4211
19106SOL    HW261235   6.283   0.761   0.780  0.3675  0.7796  0.1264
19107SOL     OW61236   0.595   5.003   6.608 -0.6757  0.0043 -0.9984
19107SOL    HW161237   0.610   5.015   6.514  0.1383  0.8563 -0.7702
19107SOL    HW261238   0.680   4.976   6.643 -1.3032 -1.7543 -0.7077
19108SOL     OW61239   0.345   0.631   7.870  0.3126  0.2272  0.1887
19108SOL    HW161240   0.438   0.615   7.852 -0.2178 -0.4485 -2.3573
19108SOL    HW261241   0.315   0.684   7.796 -1.7504 -1.2940 -0.1672
19109SOL     OW61242   7.755   5.175   2.563  0.0425 -0.2057 -0.0543
19109SOL    HW161243   7.702   5.167   2.642  1.6590 -1.1326  0.9751
19109SOL    HW261244   7.740   5.094   2.515 -0.0806 -0.1123 -0.1778
19110SOL     OW61245   4.759   9.343   5.897 -0.0955 -0.4311  0.1294
19110SOL    HW161246   4.801   9.389   5.824  2.1133 -0.5401  1.2673
19110SOL    HW261247   4.765   9.250   5.874  0.6955 -0.4712  0.4743
19111SOL     OW61248   9.492   0.112   4.078  0.1367  0.2712 -0.0834
19111SOL    HW161249   9.548   0.185   4.106 -0.3329  0.9415 -0.8624
19111SOL    HW261250   9.522   0.091   3.990 -1.0973  0.9221 -0.6809
19112SOL     OW61251   5.305   8.564   2.331  0.6589 -0.1093 -0.0790
19112SOL    HW161252   5.349   8.623   2.392 -0.1552  0.9010 -0.4430
19112SOL    HW261253   5.376   8.517   2.287  1.3239  0.5781  0.2391
19113SOL     OW61254   5.355   9.211   6.544  0.2713  0.4766 -0.1665
19113SOL    HW161255   5.297   9.166   6.484 -1.8693  1.4854  1.0384
19113SOL    HW261256   5.315   9.297   6.557  1.8518  1.0871  0.9990
19114SOL     OW61257   6.741   6.709   1.784 -0.0588 -0.3842  0.0974
19114SOL    HW161258   6.782   6.682   1.866  0.5169 -0.3733 -0.1846
19114SOL    HW261259   6.701   6.629   1.750 -0.2514 -0.4004  0.3584
19115SOL     OW61260   4.285   9.121   5.189  0.0185  0.0482  0.3833
19115SOL    HW161261   4.288   9.171   5.108  1.8038  0.9136  0.9388
19115SOL    HW261262   4.220   9.052   5.172 -0.9367  1.2560 -1.1381
19116SOL     OW61263   5.566   4.755   5.985  0.5964  0.1161  0.0222
19116SOL    HW161264   5.607   4.841   5.991  1.7906 -0.4451  0.3367
19116SOL    HW261265   5.480   4.766   6.024  0.1494  1.4983 -1.2555
19117SOL     OW61266   1.083   1.214   4.572 -0.6727  0.6001 -0.3664
19117SOL    HW161267   1.166   1.199   4.526 -0.2468 -0.8192  0.7893
19117SOL    HW261268   1.097   1.296   4.620  0.5351 -0.1925  0.7253
19118SOL     OW61269   0.396   5.870   6.313  0.6158  0.5332  0.1403
19118SOL    HW161270   0.390   5.955   6.358  1.4716  0.2749  0.7761
19118SOL    HW261271   0.485   5.868   6.279  0.1056  0.5421 -1.2281
19119SOL     OW61272   1.919   1.950   6.349  0.0968 -0.2853 -0.6078
19119SOL    HW161273   1.869   1.967   6.268 -0.5646  1.5418  0.1282
19119SOL    HW261274   1.882   1.868   6.383  0.8999 -1.5016 -2.4978
19120SOL     OW61275   9.228   2.095   8.686 -0.3423 -0.4350 -0.3804
19120SOL    HW161276   9.260   2.182   8.709  0.2867 -0.6333 -0.4638
19120SOL    HW261277   9.292   2.035   8.726 -0.2073 -0.8279 -1.1726
19121SOL     OW61278   0.821   9.626   2.971 -0.1258 -0.6038 -0.0890
19121SOL    HW161279   0.760   9.590   3.036 -0.4942 -0.1734 -0.1955
19121SOL    HW261280   0.786   9.712   2.950  1.4938  0.4254  1.1628
19122SOL     OW61281   8.755   7.407  10.095 -0.6550 -0.2218 -0.0925
19122SOL    HW161282   8.774   7.482  10.039  0.8627  0.3967  1.1739
19122SOL    HW261283   8.674   7.431  10.141 -0.5762  0.3092 -0.2317
19123SOL     OW61284   1.469   0.556   2.848  0.0304 -0.2225  0.2931
19123SOL    HW161285   1.523   0.483   2.819  0.4826  0.0331  0.4769
19123SOL    HW261286   1.525   0.605   2.909 -0.0307  0.6270 -0.3044
19124SOL     OW61287   3.988   5.144   0.700  0.5318  0.2528  0.6613
19124SOL    HW161288   3.920   5.172   0.762 -0.1258  1.9008 -0.7310
19124SOL    HW261289   3.968   5.052   0.683 -1.1855  0.6062  0.5560
19125SOL     OW61290   5.860   4.940   6.971  0.0760  0.1543  0.0462
19125SOL    HW161291   5.931   4.928   6.909  2.1681  0.4613  2.2492
19125SOL    HW261292   5.871   4.870   7.035 -1.9613 -0.1065  0.1922
19126SOL     OW61293   0.999   5.528   5.562 -0.6218  0.2800 -0.0733
19126SOL    HW161294   1.013   5.535   5.467  0.6103  0.0078  0.0744
19126SOL    HW261295   1.064   5.465   5.591  0.5093  1.9727  1.2697
19127SOL     OW61296   2.484   7.279   9.729 -0.3196 -0.0537  0.3013
19127SOL    HW161297   2.516   7.350   9.674  0.0231 -0.2405  0.2539
19127SOL    HW261298   2.547   7.273   9.801 -0.3447 -0.3081  0.3053
19128SOL     OW61299   2.512   4.439   4.501  0.0791 -0.4431  0.3115
19128SOL    HW161300   2.592   4.443   4.554  0.5992  0.8849 -0.5080
19128SOL    HW261301   2.526   4.364   4.442  0.2164 -0.9105  0.9284
19129SOL     OW61302   5.222   5.655   9.604  0.1164 -0.6074  0.1765
19129SOL    HW161303   5.131   5.685   9.605  0.1719 -0.4505  0.5320
19129SOL    HW261304   5.249   5.665   9.513 -0.0065 -0.0119  0.2020
19130SOL     OW61305   7.878  10.205   1.534  0.0632 -0.0093  0.1163
19130SOL    HW161306   7.884  10.207   1.630  1.9388  1.0833  0.0266
19130SOL    HW261307   7.960  10.245   1.504  0.8132 -2.8229 -1.9893
19131SOL     OW61308   4.828   9.989   3.833  0.8769  0.3410 -0.2339
19131SOL    HW161309   4.855  10.071   3.791  0.1461  0.5135 -0.3795
19131SOL    HW261310   4.842  10.005   3.926 -0.5711  1.1478 -0.1333
19132SOL     OW61311   1.766   2.816   1.404  0.1948 -0.6440 -0.0234
19132SOL    HW161312   1.719   2.766   1.337  1.4246 -1.2430 -0.4596
19132SOL    HW261313   1.846   2.845   1.360  0.2310  0.3949  0.6934
19133SOL     OW61314   7.291   6.902   9.132  0.0757  0.8834 -0.3159
19133SOL    HW161315   7.270   6.962   9.203 -0.2666  1.5009 -0.9225
19133SOL    HW261316   7.384   6.880   9.145 -0.2679  0.1224  0.9349
19134SOL     OW61317   4.229   8.916   2.007 -0.5141  0.0223 -0.4132
19134SOL    HW161318   4.177   8.994   2.029  0.4366 -0.1660  3.1000
19134SOL    HW261319   4.315   8.950   1.984  0.2872  0.1375  2.3388
19135SOL     OW61320   3.820   5.034   4.649  0.3273 -0.1381 -0.8064
19135SOL    HW161321   3.850   5.015   4.738 -0.2685 -0.8680 -0.7464
19135SOL    HW261322   3.761   4.962   4.629 -2.7265  2.0603 -0.3069
19136SOL     OW61323   0.705   2.001   4.329  0.3179  0.1729  0.1838
19136SOL    HW161324   0.682   1.980   4.239 -0.2313  2.3265 -0.2350
19136SOL    HW261325   0.639   2.064   4.357  0.1642 -0.8370  2.3036
19137SOL     OW61326   6.892   9.198   5.185  0.6057  0.4870  0.8196
19137SOL    HW161327   6.890   9.192   5.281 -0.5772 -0.9484  0.7328
19137SOL    HW261328   6.800   9.204   5.159  0.7013 -2.0994 -0.3474
19138SOL     OW61329   6.875   0.933   5.288  0.2818 -0.4650 -0.2119
19138SOL    HW161330   6.964   0.911   5.314  0.8977  1.5635 -0.4309
19138SOL    HW261331   6.878   0.941   5.193  0.1465  0.5935 -0.1452
19139SOL     OW61332   8.831   7.362   1.866 -0.4761  0.6201  0.3129
19139SOL    HW161333   8.840   7.412   1.785  0.5590  1.6535  1.0413
19139SOL    HW261334   8.829   7.428   1.935 -0.8891 -0.2673  1.1723
19140SOL     OW61335   4.351   6.943   7.046 -0.1270  0.3045  0.4268
19140SOL    HW161336   4.358   7.029   7.004  2.0876 -0.5446 -1.1813
19140SOL    HW261337   4.366   6.961   7.139  1.1995  1.6060  0.0094
19141SOL     OW61338   3.483   5.787   7.494 -0.1455  0.2342 -0.0387
19141SOL    HW161339   3.554   5.734   7.458 -1.5459 -0.8338 -1.3902
19141SOL    HW261340   3.507   5.877   7.473  2.6738  0.3630  3.0066
19142SOL     OW61341   9.190   8.237   4.699  0.3114  0.2499 -0.2109
19142SOL    HW161342   9.207   8.246   4.606  1.3362 -0.1506 -0.0796
19142SOL    HW261343   9.100   8.266   4.711  0.6901  1.8924 -1.0776
19143SOL     OW61344   0.543   9.303   9.112 -0.6599  0.2774  0.3811
19143SOL    HW161345   0.612   9.310   9.177 -0.4209 -0.4502  0.2254
19143SOL    HW261346   0.565   9.368   9.046  0.7006 -0.8864 -0.3833
19144SOL     OW61347   3.501   6.805   6.260 -0.2880  0.7159  0.5900
19144SOL    HW161348   3.407   6.823   6.249 -0.9569 -1.6830  1.5505
19144SOL    HW261349   3.536   6.882   6.304 -1.6791  1.8874 -0.2664
19145SOL     OW61350   9.596   3.278   3.197 -0.2320 -0.1791 -0.2471
19145SOL    HW161351   9.549   3.204   3.234  0.3743  0.7063  2.5851
19145SOL    HW261352   9.687   3.251   3.196 -0.2668 -0.3111 -1.5412
19146SOL     OW61353   2.967   5.885   1.644 -0.0900 -0.0290 -0.3601
19146SOL    HW161354   2.882   5.852   1.672 -0.4964  0.7489 -0.6428
19146SOL    HW261355   2.999   5.934   1.720 -0.3025  0.4285 -0.5626
19147SOL     OW61356   4.348   3.515   9.466 -0.1764 -0.0106 -0.1559
19147SOL    HW161357   4.393   3.530   9.383  0.9362  4.5126  0.9714
19147SOL    HW261358   4.416   3.482   9.524 -0.3870 -0.9337 -0.4162
19148SOL     OW61359   0.505   7.300   6.932  0.0866 -0.0250 -0.4783
19148SOL    HW161360   0.590   7.267   6.905 -0.5045 -3.6638  1.3773
19148SOL    HW261361   0.520   7.341   7.017  0.2521  1.2494 -1.1031
19149SOL     OW61362   1.726   3.624   0.599  0.1315  0.0681  0.0898
19149SOL    HW161363   1.660   3.586   0.541 -2.8593  0.5694  2.9269
19149SOL    HW261364   1.725   3.717   0.580 -1.1722  0.2963  1.1529
19150SOL     OW61365   4.452   6.123   6.612  0.2713  0.2369 -0.4713
19150SOL    HW161366   4.483   6.137   6.701  0.3844  1.5236 -0.6893
19150SOL    HW261367   4.359   6.148   6.615  0.5311  1.3521 -0.9222
19151SOL     OW61368   1.405   5.381   3.428 -0.1815 -0.3502 -0.1844
19151SOL    HW161369   1.375   5.469   3.407  0.5706 -0.1005 -0.2616
19151SOL    HW261370   1.376   5.327   3.355 -3.6179 -0.8875  1.3721
19152SOL     OW61371   3.069   6.832   9.128  0.2210 -0.7743 -0.3032
19152SOL    HW161372   3.032   6.912   9.165 -0.5288 -0.7305 -1.1184
19152SOL    HW261373   3.114   6.861   9.049 -0.9115 -1.2592 -1.1648
19153SOL     OW61374   5.549   3.253   7.620 -0.1012 -0.5184  0.2066
19153SOL    HW161375   5.529   3.169   7.581 -1.6412 -0.0457 -0.0772
19153SOL    HW261376   5.636   3.242   7.659 -0.5042 -2.3875  0.6468
19154SOL     OW61377   1.021   3.032   7.649 -0.1690 -0.0126 -0.2995
19154SOL    HW161378   1.104   3.048   7.694 -0.1338  1.5886 -0.8566
19154SOL    HW261379   0.954   3.058   7.712 -0.2729 -1.3037  0.1497
19155SOL     OW61380   5.466   2.827   0.738  0.4468  0.0897 -0.5134
19155SOL    HW161381   5.465   2.921   0.752  0.6952  0.1730 -1.0633
19155SOL    HW261382   5.399   2.793   0.798  0.1320  0.6421 -0.5494
19156SOL     OW61383   6.627   7.454   2.241 -0.3231  0.6274  0.2294
19156SOL    HW161384   6.702   7.441   2.298 -0.6607  0.1201  0.5730
19156SOL    HW261385   6.661   7.504   2.167  0.4371  0.0855  0.1991
19157SOL     OW61386   9.864   0.444   0.760  0.2085  0.5356 -0.6315
19157SOL    HW161387   9.874   0.350   0.776  1.6269  0.7294 -0.2281
19157SOL    HW261388   9.770   0.458   0.753  0.0148 -1.2357 -2.6064
19158SOL     OW61389   3.930   0.244   2.871  0.0472 -0.4057 -0.1814
19158SOL    HW161390   3.935   0.199   2.787 -0.5437  0.2680 -0.5941
19158SOL    HW261391   3.850   0.211   2.912 -1.7099  1.8832 -1.5091
19159SOL     OW61392   4.354   5.836   6.575  0.1369  0.6272 -0.2729
19159SOL    HW161393   4.403   5.817   6.655 -0.3573  1.0905  0.1549
19159SOL    HW261394   4.288   5.900   6.602 -0.5205  0.2378 -0.8911
19160SOL     OW61395   1.875   7.221   5.448  0.0241 -0.2627  0.2502
19160SOL    HW161396   1.948   7.274   5.478  0.1125 -0.7340  0.8672
19160SOL    HW261397   1.868   7.150   5.512 -2.2540  0.8892  1.3920
19161SOL     OW61398   2.567   4.235   8.549  0.3353  0.0962 -0.1813
19161SOL    HW161399   2.531   4.320   8.523  0.3816  0.2901  0.3844
19161SOL    HW261400   2.626   4.212   8.477  1.1073  1.0314  0.1308
19162SOL     OW61401   4.877   0.980   3.030  0.2426 -0.0618  0.2808
19162SOL    HW161402   4.927   0.993   2.949 -0.8558  1.1870 -0.2457
19162SOL    HW261403   4.906   1.051   3.088  1.7335 -1.5119  1.4061
19163SOL     OW61404   3.624   2.599   9.061  0.2546 -0.2287  0.4506
19163SOL    HW161405   3.619   2.537   9.134 -2.2983 -1.6146 -0.7760
19163SOL    HW261406   3.689   2.560   9.002  0.4637 -0.4481  0.8219
19164SOL     OW61407   5.674   5.026   2.989 -0.2425  0.2501 -0.2106
19164SOL    HW161408   5.639   5.076   3.062  1.8331  1.1696  0.2419
19164SOL    HW261409   5.615   5.045   2.916 -1.2443  0.8721  0.7342
19165SOL     OW61410   5.359   8.428   5.153  0.2473 -0.4230 -0.0129
19165SOL    HW161411   5.400   8.375   5.222 -0.1322  0.4110  0.8867
19165SOL    HW261412   5.312   8.365   5.100  2.5862 -1.4099 -1.0549
19166SOL     OW61413   2.128   2.659   5.354 -0.4042  0.5567  0.2716
19166SOL    HW161414   2.112   2.730   5.416 -0.5622  0.5024  0.2935
19166SOL    HW261415   2.056   2.667   5.290 -3.0165 -2.1708  2.5439
19167SOL     OW61416   4.088   2.730   7.403 -0.1926  0.1482 -0.0224
19167SOL    HW161417   4.000   2.694   7.413 -0.2669  0.5191  0.7277
19167SOL    HW261418   4.144   2.671   7.453 -0.4756  1.6458  2.2354
19168SOL     OW61419   4.439   7.100   2.903 -0.5272  0.3630  0.6828
19168SOL    HW161420   4.524   7.064   2.926 -0.9107  0.6656  2.8484
19168SOL    HW261421   4.382   7.024   2.892 -0.6602  0.1810  2.3462
19169SOL     OW61422   0.345   1.770   8.156  0.0113 -0.0229  0.0193
19169SOL    HW161423   0.285   1.841   8.133 -0.2130 -0.1539  0.1973
19169SOL    HW261424   0.377   1.793   8.244  1.1504  0.6677 -0.5536
19170SOL     OW61425   3.886   8.002   5.283  0.5361 -0.2681 -0.1215
19170SOL    HW161426   3.849   8.077   5.236  1.4499 -0.2346 -0.8031
19170SOL    HW261427   3.973   7.991   5.247  0.6956 -1.2051  0.5042
19171SOL     OW61428   7.385   3.372   0.589 -0.7099 -0.1644  0.3599
19171SOL    HW161429   7.381   3.303   0.524  0.0450  0.9292 -0.8980
19171SOL    HW261430   7.477   3.373   0.617 -0.4495  1.0367 -0.4668
19172SOL     OW61431   8.664   8.328   8.229 -0.9879  0.0908  0.3635
19172SOL    HW161432   8.742   8.278   8.205 -1.3451  0.5413 -1.8937
19172SOL    HW261433   8.668   8.407   8.177 -1.6972  1.3327  2.0968
19173SOL     OW61434   2.837   5.486   1.191  0.2023  0.1639 -0.0502
19173SOL    HW161435   2.918   5.532   1.214  0.7635 -1.1188  0.6795
19173SOL    HW261436   2.774   5.514   1.258  1.0376 -1.3917  1.4779
19174SOL     OW61437   8.560   8.584   4.024  0.7936  0.0207  0.4182
19174SOL    HW161438   8.570   8.648   4.094 -3.2467  0.4688  0.8318
19174SOL    HW261439   8.591   8.629   3.945 -1.8362  2.6184  0.7117
19175SOL     OW61440   6.702   3.631   7.113 -0.1543  0.2029  0.6963
19175SOL    HW161441   6.687   3.588   7.197  0.8871 -0.5940  0.4971
19175SOL    HW261442   6.797   3.648   7.111 -0.2003  0.4327 -0.2091
19176SOL     OW61443   9.448  10.038   4.955  0.2597 -0.0554  0.4663
19176SOL    HW161444   9.409  10.046   5.041  0.0417 -0.4673  0.4112
19176SOL    HW261445   9.384   9.987   4.904  0.2048  0.5296 -0.0555
19177SOL     OW61446   1.122   8.578   8.991 -0.1197 -0.3623 -0.7032
19177SOL    HW161447   1.072   8.504   8.956  0.6075 -1.6430  0.8506
19177SOL    HW261448   1.055   8.645   9.009 -0.9440 -1.0550 -1.0898
19178SOL     OW61449  10.038   5.358   7.437  0.4663 -0.6875  0.1031
19178SOL    HW161450  10.131   5.374   7.423  0.6174 -1.5946  0.0341
19178SOL    HW261451  10.027   5.264   7.421 -0.3267 -0.7318  0.8423
19179SOL     OW61452   8.213   1.543   2.729 -0.3855 -0.4376 -0.0914
19179SOL    HW161453   8.136   1.498   2.763 -0.5237 -0.2420 -0.1436
19179SOL    HW261454   8.287   1.498   2.769 -0.4697 -1.5219 -1.0830
19180SOL     OW61455   4.711   1.881   3.938 -0.1494 -0.0713 -0.0910
19180SOL    HW161456   4.675   1.943   4.001  0.9998  0.1607  0.3679
19180SOL    HW261457   4.756   1.936   3.874 -0.3791 -0.3582 -0.4940
19181SOL     OW61458   6.561   0.847   7.610 -0.7584  0.0562 -0.1393
19181SOL    HW161459   6.638   0.808   7.569 -0.0050  0.5296  0.8026
19181SOL    HW261460   6.498   0.775   7.616  0.8686 -1.2875  2.2309
19182SOL     OW61461   5.548  10.050   2.412  0.3146 -0.3742 -0.3781
19182SOL    HW161462   5.566  10.141   2.388  1.5331 -0.4109  0.2843
19182SOL    HW261463   5.523  10.008   2.329  2.6226 -0.0867 -1.3034
19183SOL     OW61464   3.607   2.096   2.527  0.6117  0.3520  0.0847
19183SOL    HW161465   3.625   2.100   2.433 -0.0659  0.0759 -0.0562
19183SOL    HW261466   3.595   2.188   2.553  1.2656  0.4670 -0.0006
19184SOL     OW61467   2.997   3.633   6.307  0.3111  0.0726  0.2853
19184SOL    HW161468   3.009   3.607   6.215  1.8807  2.5342 -0.3027
19184SOL    HW261469   3.084   3.657   6.337 -0.8020  5.3119  0.3536
19185SOL     OW61470   4.409   4.522   9.366 -0.4159  0.0916 -0.0555
19185SOL    HW161471   4.500   4.503   9.388 -0.1883 -0.0343 -1.0846
19185SOL    HW261472   4.387   4.599   9.420  0.1475 -0.1439  0.5267
19186SOL     OW61473   2.298   1.918   4.975 -0.3075  0.4486 -0.0758
19186SOL    HW161474   2.270   1.991   5.030  0.9212 -0.4994  1.9362
19186SOL    HW261475   2.238   1.846   4.997 -0.8088  0.4831 -1.2182
19187SOL     OW61476   2.728   8.896   8.785 -0.1026  0.1940 -0.2226
19187SOL    HW161477   2.781   8.871   8.709 -0.8802  0.2750 -0.8053
19187SOL    HW261478   2.723   8.991   8.780  0.6364  0.2753  0.4792
19188SOL     OW61479   0.674   6.375   3.445 -0.0463 -0.2268 -0.2899
19188SOL    HW161480   0.616   6.352   3.518  2.1327  0.3041  1.7505
19188SOL    HW261481   0.706   6.463   3.467  1.3032 -0.3913 -1.4622
19189SOL     OW61482   5.644   8.518   2.998 -0.0873  0.0817 -0.6712
19189SOL    HW161483   5.565   8.570   2.982 -1.0511 -0.9357  0.5655
19189SOL    HW261484   5.715   8.582   2.997 -0.6799  0.8140 -3.3696
19190SOL     OW61485   2.386   1.598   0.621 -0.1078  0.6313 -0.2157
19190SOL    HW161486   2.443   1.552   0.559 -1.0248 -1.0465  0.1239
19190SOL    HW261487   2.351   1.671   0.572 -0.6612 -0.5540 -1.6459
19191SOL     OW61488   7.266   0.966   6.031  0.3145  0.0651  0.3268
19191SOL    HW161489   7.283   0.887   5.979 -0.7712 -0.1989  0.3441
19191SOL    HW261490   7.198   0.940   6.093  0.6101  0.7643  0.9698
19192SOL     OW61491   7.073   2.292   2.706  0.3718  0.2414 -0.3555
19192SOL    HW161492   7.022   2.372   2.692 -1.3790 -0.6893  0.4045
19192SOL    HW261493   7.051   2.236   2.631 -0.0839 -0.3218  0.1853
19193SOL     OW61494   9.601   7.155   9.024 -0.3456 -0.2973 -0.2329
19193SOL    HW161495   9.527   7.216   9.032 -0.8709 -1.0810  1.0992
19193SOL    HW261496   9.676   7.204   9.059 -0.4780  0.0701 -0.4579
19194SOL     OW61497   7.902   5.006   8.976 -0.1150  0.1140  0.3460
19194SOL    HW161498   7.810   4.988   8.997  0.0472 -0.8472  0.2646
19194SOL    HW261499   7.911   5.101   8.986 -1.2688  0.3006 -0.2505
19195SOL     OW61500   2.162   4.702   1.356  0.3522  0.3638  0.1797
19195SOL    HW161501   2.069   4.701   1.377  0.4666  1.0836  0.7438
19195SOL    HW261502   2.207   4.700   1.441  0.9175 -2.2634 -0.0706
19196SOL     OW61503   6.863   3.788   2.939  0.5056  0.4236 -0.0755
19196SOL    HW161504   6.952   3.818   2.924  1.1133 -0.6602  1.1830
19196SOL    HW261505   6.860   3.768   3.033 -0.6697 -0.7895 -0.3433
19197SOL     OW61506   6.649   5.692   1.468  0.0133 -0.3827 -0.0267
19197SOL    HW161507   6.703   5.638   1.526 -0.9902  0.3169  1.6028
19197SOL    HW261508   6.706   5.709   1.393  1.0208 -2.0986  0.2823
19198SOL     OW61509   8.997   5.032   2.931 -0.7249  0.0004  0.1305
19198SOL    HW161510   8.940   5.094   2.976 -0.3387  0.1562  0.4065
19198SOL    HW261511   9.059   5.086   2.883 -2.0231 -0.1217 -1.8177
19199SOL     OW61512   9.721   6.422   6.373 -0.1958  0.7371 -0.3121
19199SOL    HW161513   9.658   6.350   6.375 -0.2912  0.6686  4.3259
19199SOL    HW261514   9.803   6.382   6.344 -1.3451  0.1160 -3.1147
19200SOL     OW61515   7.809   7.353   6.670 -0.2594  0.6547  0.0766
19200SOL    HW161516   7.881   7.330   6.729  0.2431  2.8839  0.4348
19200SOL    HW261517   7.820   7.295   6.595  1.4199  0.3743  0.4927
19201SOL     OW61518   9.248   0.513   9.991  0.3164 -0.4979  0.4149
19201SOL    HW161519   9.266   0.468   9.909  0.4677 -1.2065  0.8198
19201SOL    HW261520   9.152   0.515   9.997  0.2840 -1.7992  0.9052
19202SOL     OW61521   4.193   7.771   4.137 -0.1979  0.3388 -0.0275
19202SOL    HW161522   4.254   7.807   4.201 -0.0922  1.3160 -0.6653
19202SOL    HW261523   4.144   7.704   4.186 -1.9071  2.7987  1.8414
19203SOL     OW61524   4.877   0.117   5.421 -0.1414 -0.6525 -0.3349
19203SOL    HW161525   4.814   0.184   5.394 -1.8642 -3.0820 -2.8776
19203SOL    HW261526   4.954   0.133   5.366 -0.6599 -0.8872 -1.1484
19204SOL     OW61527   8.378   8.633   0.904  0.5694 -0.3440 -0.3405
19204SOL    HW161528   8.328   8.695   0.955 -0.1886 -1.1722 -0.0587
19204SOL    HW261529   8.359   8.548   0.943 -0.5977 -1.1026 -2.3948
19205SOL     OW61530   1.740   4.702   8.672 -0.6185  0.4505  0.6795
19205SOL    HW161531   1.658   4.746   8.694 -1.3344 -1.8319  3.1071
19205SOL    HW261532   1.801   4.730   8.740  0.1693  0.9170 -0.2085
19206SOL     OW61533   6.167   5.830   7.444 -0.3519  0.4080 -0.0757
19206SOL    HW161534   6.098   5.765   7.428  0.3107 -0.4539  0.4144
19206SOL    HW261535   6.212   5.839   7.360  0.2441 -0.6314  0.1091
19207SOL     OW61536   3.073   7.095   5.294 -0.3892  0.4103 -0.3639
19207SOL    HW161537   3.159   7.070   5.261  0.7272  1.4098  1.5590
19207SOL    HW261538   3.011   7.062   5.229  1.3308 -1.7270 -1.0231
19208SOL     OW61539   4.178   3.735   5.903  0.0692  0.2997 -0.0112
19208SOL    HW161540   4.241   3.664   5.888 -1.6137 -0.9435 -1.5723
19208SOL    HW261541   4.166   3.775   5.817  0.7608  2.3832  0.7806
19209SOL     OW61542   2.991   1.714   7.901 -0.2626 -0.4111 -0.2668
19209SOL    HW161543   3.066   1.738   7.847  0.7546 -0.5158  1.0427
19209SOL    HW261544   2.988   1.618   7.897 -0.3163 -0.4068 -0.3208
19210SOL     OW61545   3.491   6.843   6.613  0.1278 -0.1635 -0.2426
19210SOL    HW161546   3.409   6.808   6.649  0.0274 -0.0416 -0.3539
19210SOL    HW261547   3.510   6.919   6.668 -0.1612  0.1749 -0.6078
19211SOL     OW61548   9.288   2.807   0.711  0.1755 -0.1012 -0.4009
19211SOL    HW161549   9.309   2.810   0.617 -0.2165 -1.6568 -0.5816
19211SOL    HW261550   9.194   2.827   0.715  0.0322 -0.7452 -0.4305
19212SOL     OW61551   2.645   7.938   7.840  0.6993 -0.1420  0.3817
19212SOL    HW161552   2.586   7.946   7.765  0.6224  0.3364  0.4945
19212SOL    HW261553   2.622   8.011   7.897 -0.0303 -1.1630  1.4331
19213SOL     OW61554   9.491   3.610   3.632  0.1930 -0.0293 -0.2384
19213SOL    HW161555   9.489   3.684   3.571  0.1517 -0.3880 -0.6734
19213SOL    HW261556   9.496   3.651   3.719  2.6385  0.4757 -0.5552
19214SOL     OW61557   5.939   2.756   4.460 -0.0354 -0.5479  0.1524
19214SOL    HW161558   5.898   2.687   4.409  0.3327 -1.1115  0.6009
19214SOL    HW261559   5.883   2.764   4.538  0.0954 -0.5667  0.2491
19215SOL     OW61560   8.734   5.796   8.851  0.7502 -0.0074 -0.4882
19215SOL    HW161561   8.805   5.857   8.871  0.2707  0.2463  0.4427
19215SOL    HW261562   8.683   5.789   8.931  1.0102 -1.9466 -0.4280
19216SOL     OW61563   8.827   6.144   3.364  0.4734  0.6469  0.4319
19216SOL    HW161564   8.803   6.223   3.317  1.4612  0.2804 -0.7528
19216SOL    HW261565   8.906   6.168   3.413  0.4538  0.5456  0.5161
19217SOL     OW61566   7.742   3.814   2.902 -0.6527 -0.5611  0.2969
19217SOL    HW161567   7.775   3.861   2.825 -1.3195  0.5525  0.6523
19217SOL    HW261568   7.819   3.799   2.956 -0.0924 -1.8296 -0.8078
19218SOL     OW61569   9.833   6.758   1.632  0.0918  0.1126  0.4008
19218SOL    HW161570   9.773   6.708   1.576  0.1364  0.5679 -0.0707
19218SOL    HW261571   9.854   6.699   1.704 -0.3581 -0.3119  0.1939
19219SOL     OW61572   2.643   5.299   0.071  0.5491  0.3751 -0.4866
19219SOL    HW161573   2.663   5.390   0.092 -0.9113  0.2877  1.6358
19219SOL    HW261574   2.635   5.257   0.156  0.0016 -1.4739 -1.4150
19220SOL     OW61575   4.074  10.172   3.066 -0.1918  0.2081  0.3639
19220SOL    HW161576   4.013  10.156   2.995 -0.7772  2.0015  0.4148
19220SOL    HW261577   4.033  10.241   3.118  0.5613 -0.5448  2.0386
19221SOL     OW61578   7.913   6.330   2.478  0.2453 -0.2257  0.2259
19221SOL    HW161579   7.913   6.425   2.484 -0.8726 -0.1899 -0.2203
19221SOL    HW261580   8.006   6.306   2.472  0.6380  0.7271  1.7916
19222SOL     OW61581   8.659   5.615   8.395  0.1672  0.0543 -0.0480
19222SOL    HW161582   8.629   5.705   8.383 -0.4068 -0.1932 -0.5189
19222SOL    HW261583   8.750   5.623   8.421  0.4618  0.7516 -1.2110
19223SOL     OW61584   9.582   2.170   6.389 -0.1747 -0.2554 -0.0221
19223SOL    HW161585   9.669   2.202   6.364  0.2828 -2.5718 -1.7771
19223SOL    HW261586   9.598   2.081   6.423 -1.6924 -0.0267  1.4415
19224SOL     OW61587   4.780   5.244   1.571  0.6156 -0.8300  0.3889
19224SOL    HW161588   4.851   5.243   1.635  0.3570 -1.1159  0.6714
19224SOL    HW261589   4.766   5.152   1.549  0.9076 -0.7123 -0.3054
19225SOL     OW61590   6.358   9.381   0.841  0.2171 -0.1108  0.7262
19225SOL    HW161591   6.412   9.392   0.920 -0.1909 -0.6083  1.0778
19225SOL    HW261592   6.407   9.320   0.787  0.6699  0.5018  0.4279
19226SOL     OW61593   3.861   8.782   8.112  0.1106  0.0303 -0.4036
19226SOL    HW161594   3.946   8.789   8.155  0.1730  1.4902 -0.6819
19226SOL    HW261595   3.827   8.872   8.113 -2.2179 -0.7774  1.2426
19227SOL     OW61596   8.702   1.640   1.960  0.2013  0.4304  0.5659
19227SOL    HW161597   8.764   1.707   1.931 -0.2123  0.8515  0.6425
19227SOL    HW261598   8.616   1.681   1.948 -0.0371  0.0510  0.9672
19228SOL     OW61599   8.234   2.703   6.481  0.2136  0.2459 -0.3740
19228SOL    HW161600   8.205   2.718   6.390  0.0797 -0.2869 -0.4254
19228SOL    HW261601   8.207   2.613   6.499 -1.3461  0.9070  0.7894
19229SOL     OW61602   3.004   5.152   8.180  0.1235 -0.2954  0.0344
19229SOL    HW161603   2.986   5.059   8.195 -0.9181 -0.0377  0.5082
19229SOL    HW261604   3.041   5.156   8.092 -0.8891 -1.0490 -0.4386
19230SOL     OW61605   4.702   0.006   3.443 -0.0061 -0.0640 -0.2976
19230SOL    HW161606   4.667  -0.013   3.356  0.7075  0.0957 -0.6283
19230SOL    HW261607   4.792   0.036   3.427 -0.1527  0.8195  0.4222
19231SOL     OW61608   0.653   0.560   2.653 -0.6713 -0.4232 -0.1851
19231SOL    HW161609   0.721   0.614   2.695 -0.9721  2.0663 -2.6539
19231SOL    HW261610   0.676   0.470   2.678  1.9261  0.5336  1.2943
19232SOL     OW61611   9.396   0.175   8.145  0.2203 -0.4473  0.0666
19232SOL    HW161612   9.415   0.269   8.148  1.1857 -0.5136 -2.2282
19232SOL    HW261613   9.473   0.134   8.184  0.8667 -0.3459 -1.0584
19233SOL     OW61614   2.339   4.515   2.219 -0.2096  0.5669  0.5182
19233SOL    HW161615   2.250   4.508   2.184 -0.3654  1.3060  0.7435
19233SOL    HW261616   2.370   4.600   2.186  0.7144 -0.0435 -0.2384
19234SOL     OW61617   2.810   3.152   9.513  0.1392 -0.1630 -0.1876
19234SOL    HW161618   2.895   3.160   9.557  0.7985 -1.3020 -1.1833
19234SOL    HW261619   2.749   3.129   9.584  0.9489 -0.7837  0.3348
19235SOL     OW61620   4.473   2.965   5.373  0.1346  0.4496 -0.1966
19235SOL    HW161621   4.538   2.940   5.308  1.4393  1.3070  0.7113
19235SOL    HW261622   4.507   2.928   5.455 -1.3365 -0.3997  0.0474
19236SOL     OW61623   3.784   2.174   5.219 -0.5779  0.9137  0.1574
19236SOL    HW161624   3.797   2.080   5.234  1.0155  0.9414 -0.7606
19236SOL    HW261625   3.707   2.196   5.270 -1.7441 -1.1501 -0.5883
19237SOL     OW61626   8.681   2.652   8.755 -0.0326  0.2501 -0.3612
19237SOL    HW161627   8.615   2.707   8.714 -2.3415 -0.2908  2.2492
19237SOL    HW261628   8.668   2.666   8.849  0.7400 -2.9996  0.3565
19238SOL     OW61629   9.410  10.053   6.298 -0.1031 -0.3601 -0.4197
19238SOL    HW161630   9.394  10.143   6.324 -0.5559 -0.1244 -1.4827
19238SOL    HW261631   9.420  10.006   6.381  0.3049  0.6828  0.1423
19239SOL     OW61632   7.871   6.204   6.030 -0.2154 -0.2902 -0.2222
19239SOL    HW161633   7.819   6.282   6.050  0.1290 -0.5816  2.0881
19239SOL    HW261634   7.960   6.239   6.015 -0.2306 -0.1519 -0.0047
19240SOL     OW61635   0.163   2.931   2.715  0.5043  0.3918  0.4588
19240SOL    HW161636   0.115   2.979   2.784  1.3186  1.1691  0.5013
19240SOL    HW261637   0.244   2.981   2.704  1.4844 -1.1187  0.6554
19241SOL     OW61638   1.901   7.382   9.996 -0.4507 -0.0415  0.6733
19241SOL    HW161639   1.827   7.439   9.978  0.6746  1.0094 -0.9076
19241SOL    HW261640   1.874   7.330  10.072 -1.6525  2.3975  2.0431
19242SOL     OW61641   6.030   6.921   4.082  0.1258  0.4346 -0.1133
19242SOL    HW161642   6.060   7.012   4.077 -0.1819  0.5576  0.2387
19242SOL    HW261643   6.022   6.903   4.176  0.8208 -0.1702 -0.1537
19243SOL     OW61644   1.085   7.193   8.062 -0.2978  0.3219 -0.5296
19243SOL    HW161645   1.014   7.177   7.999 -0.9341  1.0889 -0.0340
19243SOL    HW261646   1.165   7.170   8.015 -0.8125  0.2215 -1.3794
19244SOL     OW61647   5.575   7.261   3.627  0.5129 -0.2002 -0.1655
19244SOL    HW161648   5.633   7.203   3.676 -0.1100 -0.0670  0.7463
19244SOL    HW261649   5.577   7.226   3.538  1.2148 -0.7913  0.0673
19245SOL     OW61650   7.672   5.141   4.222  0.0763 -0.0132  0.0614
19245SOL    HW161651   7.729   5.096   4.160 -0.7159  0.1485 -0.7995
19245SOL    HW261652   7.719   5.136   4.305  0.1784 -2.1334 -0.0673
19246SOL     OW61653   9.478   7.231   5.519  0.2878  0.4696 -0.7736
19246SOL    HW161654   9.412   7.193   5.577  1.8509  2.3000  2.4932
19246SOL    HW261655   9.539   7.159   5.502 -0.1433 -0.1022  0.0152
19247SOL     OW61656  10.102   4.282   7.414  0.3124 -0.4203  0.0990
19247SOL    HW161657  10.104   4.291   7.319 -1.3481 -0.1032  0.0698
19247SOL    HW261658  10.172   4.340   7.445  0.2997  0.1356 -0.8841
19248SOL     OW61659   0.263   7.375   0.953  0.4464 -0.0891  0.0148
19248SOL    HW161660   0.294   7.451   0.904  1.9408 -1.1763 -0.7916
19248SOL    HW261661   0.294   7.391   1.043  1.7661 -0.2754 -0.3920
19249SOL     OW61662   1.798   8.229   4.282 -0.1238  0.6258  0.3220
19249SOL    HW161663   1.880   8.188   4.252 -0.0713 -0.3173  1.6160
19249SOL    HW261664   1.818   8.257   4.372 -1.5828 -0.8538  1.1635
19250SOL     OW61665   8.871   2.823   1.891  0.0186 -0.2284  0.1803
19250SOL    HW161666   8.805   2.755   1.902 -0.8335  0.5145 -0.1857
19250SOL    HW261667   8.821   2.901   1.866  1.0699  0.2762 -0.4028
19251SOL     OW61668   4.186   1.655   9.017 -0.1556  0.1488 -0.4568
19251SOL    HW161669   4.257   1.602   8.980  0.1226  0.4931 -0.4214
19251SOL    HW261670   4.163   1.716   8.947  0.7179  1.1457  0.0838
19252SOL     OW61671   1.681   9.617   9.509  0.0769  0.5345  0.5996
19252SOL    HW161672   1.727   9.701   9.499 -0.1394  0.5460 -0.4696
19252SOL    HW261673   1.613   9.619   9.442  1.3834 -1.3362 -0.9062
19253SOL     OW61674   7.231   2.519   6.730  0.0669 -0.0845  0.1745
19253SOL    HW161675   7.215   2.553   6.818  0.8959  1.9387 -0.3926
19253SOL    HW261676   7.180   2.438   6.726  0.2759 -0.4232  2.6073
19254SOL     OW61677  10.081   0.814   8.960  0.2732  0.9944 -0.0498
19254SOL    HW161678  10.157   0.867   8.934  1.7988 -0.6519  0.8572
19254SOL    HW261679  10.071   0.751   8.889  1.6706 -0.6926  1.1992
19255SOL     OW61680   7.217   7.221   3.962 -0.2377  0.1571  0.1493
19255SOL    HW161681   7.236   7.305   3.921 -1.2382  0.3578  0.0741
19255SOL    HW261682   7.152   7.241   4.029  0.4634 -0.3594  1.0152
19256SOL     OW61683   0.911   5.392   0.307  0.0167 -0.1025 -0.0081
19256SOL    HW161684   0.848   5.388   0.235 -0.6932 -0.0178  0.5935
19256SOL    HW261685   0.997   5.395   0.264 -0.3098 -1.5055 -0.8303
19257SOL     OW61686   8.669   3.801   9.779  0.6193 -0.0809 -0.2332
19257SOL    HW161687   8.694   3.738   9.711  0.3932 -0.9524  0.4681
19257SOL    HW261688   8.613   3.751   9.839  2.3983  0.0824  1.6808
19258SOL     OW61689   0.075   4.265   0.162  0.1809  0.5024 -0.3205
19258SOL    HW161690   0.040   4.345   0.199 -1.0322  0.5728 -1.5239
19258SOL    HW261691   0.117   4.220   0.235  1.1704  2.3538  0.3074
19259SOL     OW61692   6.558   9.902   0.412  0.3386 -0.2095  0.1703
19259SOL    HW161693   6.551   9.966   0.482 -1.9525 -0.4750  0.2486
19259SOL    HW261694   6.600   9.949   0.340  0.4183  0.8124  0.8694
19260SOL     OW61695   7.125   0.739   2.749  0.2743 -0.0172  0.0467
19260SOL    HW161696   7.095   0.729   2.659 -1.3418  2.0955  0.2690
19260SOL    HW261697   7.137   0.649   2.780  1.4101 -0.8086 -2.3836
19261SOL     OW61698   6.836   9.776   3.535 -0.4092 -0.5128  0.1640
19261SOL    HW161699   6.929   9.756   3.545  0.1107  0.1461 -2.4941
19261SOL    HW261700   6.832   9.871   3.531 -1.2424 -0.5223  0.5083
19262SOL     OW61701   1.636   7.189   8.563 -0.1941  0.8572 -0.0739
19262SOL    HW161702   1.663   7.099   8.547 -1.5620  0.2106  1.0913
19262SOL    HW261703   1.541   7.189   8.553 -0.2247  2.1665 -0.0341
19263SOL     OW61704   4.050   8.542   1.875 -0.0564 -0.2084 -0.3546
19263SOL    HW161705   4.007   8.625   1.851 -0.3577  0.2941  1.6922
19263SOL    HW261706   4.137   8.568   1.904  0.1310 -0.7236 -0.4513
19264SOL     OW61707   3.003   6.089   9.718  0.8534  0.3097 -0.2164
19264SOL    HW161708   3.088   6.046   9.726  0.4830 -0.5731 -0.8737
19264SOL    HW261709   2.983   6.121   9.806  2.3526  1.5058 -0.2580
19265SOL     OW61710   6.879   3.711   6.598  0.0472  0.0315 -0.0299
19265SOL    HW161711   6.812   3.716   6.530  0.4742 -0.4801 -0.4909
19265SOL    HW261712   6.833   3.675   6.674 -0.2520 -0.1115 -0.2756
19266SOL     OW61713   6.334   1.033   0.407  0.0359 -0.0022 -0.7608
19266SOL    HW161714   6.419   1.077   0.396 -0.1926  1.0103  1.1192
19266SOL    HW261715   6.356   0.941   0.423  0.7561  0.1780 -0.6730
19267SOL     OW61716   7.511   0.897   3.352 -0.0239 -0.4627  0.4682
19267SOL    HW161717   7.481   0.851   3.274 -0.9132 -1.9920  1.6300
19267SOL    HW261718   7.433   0.904   3.407  0.2572  1.8825  0.6434
19268SOL     OW61719   6.675   3.703   1.250  0.3255  0.0524  0.0704
19268SOL    HW161720   6.588   3.671   1.225 -0.1579  0.8602  0.6460
19268SOL    HW261721   6.671   3.797   1.233  0.2832  0.4942  2.1984
19269SOL     OW61722   4.694   5.245   6.036  0.8422 -0.4029 -0.3386
19269SOL    HW161723   4.674   5.300   5.960 -0.9122  1.3212  1.2835
19269SOL    HW261724   4.609   5.210   6.064  0.9554  1.3347  2.5095
19270SOL     OW61725   3.799   3.589   3.106 -0.4029 -0.1625  0.2835
19270SOL    HW161726   3.741   3.540   3.047  1.7581 -1.3627 -0.9516
19270SOL    HW261727   3.775   3.681   3.092 -1.8888 -0.5993 -0.2795
19271SOL     OW61728   2.089   8.932   4.123 -0.2136  0.0171 -0.1542
19271SOL    HW161729   2.168   8.884   4.145  0.1404  0.4139 -0.5402
19271SOL    HW261730   2.021   8.895   4.180 -0.0757 -1.3190 -0.8271
19272SOL     OW61731   4.171   1.625   7.618  0.2768 -0.1333  0.1685
19272SOL    HW161732   4.108   1.581   7.676 -1.0847 -1.9444 -2.5135
19272SOL    HW261733   4.133   1.711   7.602 -1.9550 -1.3865 -1.8303
19273SOL     OW61734   9.540   7.515   6.817  0.4673 -0.3581  0.0448
19273SOL    HW161735   9.552   7.520   6.722 -0.2679  0.5336 -0.0102
19273SOL    HW261736   9.629   7.508   6.852  0.7999  0.2407 -0.6595
19274SOL     OW61737   2.819   6.120   1.947 -0.1265 -0.4035 -0.1534
19274SOL    HW161738   2.907   6.092   1.923 -0.0030  0.1470 -0.3531
19274SOL    HW261739   2.789   6.172   1.872 -0.6458 -0.6366 -0.1138
19275SOL     OW61740   9.791   8.731   9.413 -0.0151 -0.3582  0.1800
19275SOL    HW161741   9.798   8.770   9.326 -0.8418 -0.2321  0.1646
19275SOL    HW261742   9.864   8.669   9.417 -1.0757 -1.7994 -1.3455
19276SOL     OW61743   4.852   0.351   7.063 -0.0645  0.1753 -0.3604
19276SOL    HW161744   4.887   0.264   7.083 -1.8001 -0.6224 -0.6201
19276SOL    HW261745   4.926   0.410   7.078  1.3194 -1.3836 -0.6854
19277SOL     OW61746   4.381   1.703   2.929  0.8047 -0.6181  0.1017
19277SOL    HW161747   4.455   1.698   2.989  0.2251  0.0725  0.8987
19277SOL    HW261748   4.324   1.770   2.967 -0.8744 -2.0464  0.2517
19278SOL     OW61749   2.079   6.365   3.569 -0.7015  0.5176 -0.0352
19278SOL    HW161750   2.172   6.381   3.578 -0.7444  1.1677 -0.6355
19278SOL    HW261751   2.059   6.387   3.478 -1.0479 -1.6603 -0.5567
19279SOL     OW61752   5.848   4.294   1.303  0.3434 -0.1433  0.0862
19279SOL    HW161753   5.760   4.291   1.266 -0.0583 -1.7641  1.0424
19279SOL    HW261754   5.844   4.234   1.378  2.6625 -1.4934 -0.7677
19280SOL     OW61755   3.597   8.328   6.679  0.7857 -0.0250 -0.2583
19280SOL    HW161756   3.504   8.350   6.680  0.9165  0.5592 -0.8495
19280SOL    HW261757   3.641   8.405   6.714  1.1033 -0.0441 -0.6104
19281SOL     OW61758   9.537   3.068   1.875  0.0243 -0.0361 -0.2972
19281SOL    HW161759   9.587   3.081   1.795 -0.4408 -0.6386 -0.7002
19281SOL    HW261760   9.557   2.978   1.901 -1.6082 -0.6454 -1.0285
19282SOL     OW61761   5.146   2.375   2.140  0.7430 -0.4373  0.2811
19282SOL    HW161762   5.108   2.289   2.154  2.1194 -1.1441 -0.1811
19282SOL    HW261763   5.129   2.395   2.048  0.8492 -0.4353  0.2611
19283SOL     OW61764   6.450   9.713   4.979 -0.3282  0.2686  0.1522
19283SOL    HW161765   6.373   9.667   4.946 -1.1243  0.5798  1.4893
19283SOL    HW261766   6.496   9.648   5.032 -1.0284  0.7327  1.3874
19284SOL     OW61767   8.546  10.135   2.233 -0.4198  0.2071  0.2212
19284SOL    HW161768   8.469  10.190   2.246 -2.0961 -1.9307 -0.1567
19284SOL    HW261769   8.526  10.054   2.279  1.1528 -0.8155 -0.7875
19285SOL     OW61770   1.186   3.117   2.602 -0.1473 -0.7931  0.5414
19285SOL    HW161771   1.199   3.165   2.520  0.2953 -1.3137  0.3019
19285SOL    HW261772   1.144   3.180   2.660  0.2659 -0.1637  0.1719
19286SOL     OW61773   5.230   8.098   0.500  0.0630 -0.2724 -0.3658
19286SOL    HW161774   5.227   8.002   0.500 -1.6334 -0.3794  3.0765
19286SOL    HW261775   5.226   8.122   0.407 -0.8714 -3.5217 -1.3032
19287SOL     OW61776   5.042   5.189   3.928 -0.8693 -0.7592 -0.0218
19287SOL    HW161777   4.954   5.203   3.962 -0.5438  2.4642 -0.2353
19287SOL    HW261778   5.099   5.235   3.989  0.1188  1.5844 -2.5267
19288SOL     OW61779   6.526   3.980   3.540 -0.0282  0.2554 -0.0384
19288SOL    HW161780   6.490   4.068   3.524  0.4473  0.0091 -2.9044
19288SOL    HW261781   6.448   3.924   3.544 -0.2481  0.5322 -0.3069
19289SOL     OW61782   4.192   8.520   6.991 -0.7543 -0.4627  0.1258
19289SOL    HW161783   4.283   8.551   6.989 -1.7294  2.9483  1.2478
19289SOL    HW261784   4.170   8.505   6.899  0.5561  0.0037 -0.2895
19290SOL     OW61785   4.666   6.655   0.289 -0.1972 -0.3551 -0.6276
19290SOL    HW161786   4.733   6.603   0.243  1.4388  0.1851  0.9975
19290SOL    HW261787   4.658   6.735   0.237  0.2849 -0.5109 -0.9536
19291SOL     OW61788   6.320   7.484   0.704  0.0802  0.1702 -0.4278
19291SOL    HW161789   6.337   7.486   0.798 -1.6444  1.2803 -0.1012
19291SOL    HW261790   6.388   7.540   0.666  0.2351  0.4422  0.2382
19292SOL     OW61791   5.766   9.157   9.424 -0.1195  0.4637  0.8357
19292SOL    HW161792   5.788   9.206   9.344  0.2596  1.3688  1.4775
19292SOL    HW261793   5.682   9.193   9.452 -0.7769 -0.5869  0.2909
19293SOL     OW61794   7.919   0.283   6.675  0.4589 -0.3232 -0.3245
19293SOL    HW161795   7.858   0.356   6.669  0.6894 -0.2091 -1.4497
19293SOL    HW261796   7.909   0.236   6.592  2.5062  0.2073 -0.9303
19294SOL     OW61797   4.235   7.927   7.328 -0.2075  0.1536 -0.1235
19294SOL    HW161798   4.308   7.989   7.337 -0.8174  1.2353 -2.1250
19294SOL    HW261799   4.157   7.977   7.352 -0.4126 -0.7366  1.1307
19295SOL     OW61800   5.212   7.179  10.150 -0.6470 -0.5049 -0.8826
19295SOL    HW161801   5.174   7.252  10.100  0.2715  0.4881 -0.1929
19295SOL    HW261802   5.142   7.115  10.156 -2.1186  1.1128  0.0522
19296SOL     OW61803   4.126   9.257   1.315  0.1920 -0.1986  0.4652
19296SOL    HW161804   4.040   9.216   1.313 -0.0843  0.3455 -2.4658
19296SOL    HW261805   4.187   9.189   1.285  0.1073  0.6191 -1.7347
19297SOL     OW61806   2.587   2.433   6.494  0.2802 -0.1160  0.2417
19297SOL    HW161807   2.597   2.339   6.479 -1.2795 -0.3081  0.2122
19297SOL    HW261808   2.534   2.463   6.420  2.9166  1.3403 -1.2021
19298SOL     OW61809   5.871   3.822   1.910 -0.1288 -0.2305  0.1538
19298SOL    HW161810   5.931   3.888   1.876  1.6552 -1.5474  0.5693
19298SOL    HW261811   5.806   3.811   1.841 -0.2302  1.6158 -0.0900
19299SOL     OW61812   4.994   7.612   4.690 -0.2545 -0.1416  0.1359
19299SOL    HW161813   5.088   7.594   4.695 -0.4968 -1.1825  2.1485
19299SOL    HW261814   4.984   7.703   4.718  0.0762 -0.3863  1.0755
19300SOL     OW61815   4.027   4.920   1.645 -0.1695  0.5822 -0.0640
19300SOL    HW161816   3.957   4.976   1.677  0.1451  1.0043 -0.0976
19300SOL    HW261817   4.098   4.981   1.624 -0.1045  0.2523 -0.8605
19301SOL     OW61818   1.763   0.794  10.044 -0.6112 -0.0927 -0.3289
19301SOL    HW161819   1.843   0.796   9.992  0.1792 -0.5581  0.8479
19301SOL    HW261820   1.693   0.780   9.979  0.0513  1.8912 -1.5700
19302SOL     OW61821   4.710   3.027   3.988  0.0742 -0.2131 -0.2702
19302SOL    HW161822   4.645   2.957   3.985  0.1154 -0.2326 -0.8326
19302SOL    HW261823   4.658   3.108   3.994 -0.0085 -0.2260 -0.7585
19303SOL     OW61824   6.846   6.366   5.021  0.4238  0.1022  0.2963
19303SOL    HW161825   6.874   6.347   4.932  0.9969 -1.2833  0.7453
19303SOL    HW261826   6.751   6.366   5.017  0.4458 -0.0294 -0.2896
19304SOL     OW61827   1.848   1.302   9.779  0.2641 -0.7822 -0.2788
19304SOL    HW161828   1.779   1.336   9.721 -0.8320 -3.0814 -0.4285
19304SOL    HW261829   1.801   1.277   9.859  1.0908 -1.4049  0.0241
19305SOL     OW61830   1.219   4.914   0.804  0.8409  0.1573 -0.4084
19305SOL    HW161831   1.190   4.901   0.714 -2.6672 -0.2601  0.6314
19305SOL    HW261832   1.235   5.008   0.812 -2.4233  0.8358 -0.6448
19306SOL     OW61833   6.055   4.430   6.134 -0.2960 -0.2606  0.2010
19306SOL    HW161834   6.054   4.521   6.165 -2.4550 -0.4416  0.8490
19306SOL    HW261835   6.147   4.410   6.122  0.3593  1.4237  1.8592
19307SOL     OW61836   0.937   9.988   0.931 -0.4015  0.1790  0.2329
19307SOL    HW161837   0.933  10.052   1.002  0.2320 -0.0367  0.4721
19307SOL    HW261838   0.909  10.036   0.853 -0.9364  0.4616  0.5974
19308SOL     OW61839   7.012   9.171   3.540  0.6158  0.5260  0.0180
19308SOL    HW161840   6.980   9.183   3.450 -1.5172 -0.3898  0.5699
19308SOL    HW261841   6.979   9.247   3.587  1.0033  0.5823  0.1958
19309SOL     OW61842   0.719   6.333   2.058 -0.2959 -0.1365  0.0413
19309SOL    HW161843   0.767   6.264   2.011  0.5231 -0.1548  0.8703
19309SOL    HW261844   0.739   6.413   2.010  0.8046 -0.1027  0.5136
19310SOL     OW61845  10.130   0.990  10.123 -0.2379  0.0576  0.0843
19310SOL    HW161846  10.168   0.962  10.040  0.7395  0.2249  0.4536
19310SOL    HW261847  10.040   0.960  10.120  0.2110 -1.2974 -0.3937
19311SOL     OW61848   9.212   2.072   6.326 -0.0456 -0.0682  0.3693
19311SOL    HW161849   9.187   2.037   6.240 -0.9384  2.1537 -0.3348
19311SOL    HW261850   9.136   2.054   6.381 -0.2036  0.1025  0.2088
19312SOL     OW61851   9.297   0.851   5.918  0.0403  0.3150 -0.2400
19312SOL    HW161852   9.302   0.935   5.963  1.8395 -0.7949  1.8536
19312SOL    HW261853   9.204   0.831   5.913 -0.3687  2.0304 -0.0306
19313SOL     OW61854   5.671   3.529   1.904  0.6031 -0.5652 -0.0640
19313SOL    HW161855   5.745   3.515   1.963  0.2763  0.2559  0.5542
19313SOL    HW261856   5.681   3.462   1.836  1.1157 -1.3805  0.7940
19314SOL     OW61857   1.284   8.382   7.154  0.6818 -0.3137  0.3604
19314SOL    HW161858   1.210   8.322   7.157  0.0769  0.4632  1.4365
19314SOL    HW261859   1.303   8.392   7.061 -4.1666  3.7443 -0.6211
19315SOL     OW61860   1.902   1.185   3.001  0.3163  0.4353  0.4808
19315SOL    HW161861   1.812   1.153   3.005  0.5628 -0.2119  1.0263
19315SOL    HW261862   1.896   1.266   2.951 -0.4726  0.0661 -0.0491
19316SOL     OW61863   1.985   9.802   8.736  0.2917  0.1256 -0.0786
19316SOL    HW161864   2.008   9.744   8.664  0.0867 -0.7737  0.5564
19316SOL    HW261865   1.920   9.862   8.699 -0.3035 -0.7466 -0.4695
19317SOL     OW61866   2.805   1.854   3.070 -0.1901 -0.0693 -0.5127
19317SOL    HW161867   2.860   1.792   3.022  0.4864  0.5912 -0.6058
19317SOL    HW261868   2.717   1.840   3.034  0.0900 -0.4341 -1.0775
19318SOL     OW61869   3.849   3.243   3.203 -0.0037 -0.3617 -0.0728
19318SOL    HW161870   3.814   3.172   3.256  1.8541 -0.4769  1.0959
19318SOL    HW261871   3.807   3.232   3.117 -1.2098 -1.6701  0.6457
19319SOL     OW61872   8.431   7.347   9.171 -0.5774  0.4585  0.0857
19319SOL    HW161873   8.341   7.331   9.146 -0.5686  0.5962 -0.0384
19319SOL    HW261874   8.434   7.328   9.264 -0.4918 -0.5438 -0.1122
19320SOL     OW61875   7.711   8.589   2.279  0.3400  0.8552  0.0360
19320SOL    HW161876   7.681   8.578   2.189 -1.4909  1.3604  0.5379
19320SOL    HW261877   7.660   8.526   2.329  0.6981  1.1961  0.8502
19321SOL     OW61878   2.274   5.844   3.540 -0.1401  0.3904  0.1556
19321SOL    HW161879   2.198   5.793   3.513  1.1805 -0.7939 -1.4790
19321SOL    HW261880   2.243   5.895   3.615 -3.0271  1.2931 -1.5275
19322SOL     OW61881   6.108   5.664  10.146 -0.0611  0.7914 -0.0028
19322SOL    HW161882   6.076   5.716  10.072  2.3194  0.8967 -1.0254
19322SOL    HW261883   6.091   5.719  10.223  0.5849  2.2249 -0.8509
19323SOL     OW61884   3.956   1.079   7.459 -0.0390 -0.3269 -0.1086
19323SOL    HW161885   3.997   1.162   7.481 -0.8008  0.8687 -2.7603
19323SOL    HW261886   3.997   1.053   7.376 -1.4352 -1.3931 -0.5115
19324SOL     OW61887   0.354   4.885   2.865 -0.2669  0.2335 -0.4183
19324SOL    HW161888   0.364   4.800   2.906 -0.1592  0.3226 -0.2579
19324SOL    HW261889   0.436   4.931   2.885 -0.2214  0.2860 -0.7119
19325SOL     OW61890   8.116   6.867   3.051 -0.4246 -0.1014  0.0694
19325SOL    HW161891   8.066   6.852   3.132 -0.7459 -1.4349 -0.3519
19325SOL    HW261892   8.207   6.863   3.078 -0.4897  1.9282  0.7744
19326SOL     OW61893  10.084   8.970   7.272  0.5528 -0.3087  0.1183
19326SOL    HW161894  10.029   9.015   7.337  0.8903 -0.4237  0.4912
19326SOL    HW261895  10.022   8.924   7.215  0.2247  0.3109 -0.0272
19327SOL     OW61896   5.851   9.151   5.329  0.3675  0.2300 -0.0074
19327SOL    HW161897   5.798   9.162   5.408  1.6155 -0.5154  0.9691
19327SOL    HW261898   5.787   9.130   5.260 -0.7431  0.9408  0.7688
19328SOL     OW61899   5.422   9.302   7.105 -0.1713 -0.0730  0.2036
19328SOL    HW161900   5.509   9.305   7.067  0.2310  1.1119  1.1517
19328SOL    HW261901   5.425   9.364   7.178 -1.4148 -0.9823  1.0852
19329SOL     OW61902   4.241   0.828   2.214 -0.5127  0.1377  0.2595
19329SOL    HW161903   4.267   0.736   2.203 -0.2000 -0.0559  2.2468
19329SOL    HW261904   4.323   0.877   2.210 -0.6508  0.3199 -0.5220
19330SOL     OW61905   5.241   2.072   4.006 -0.0175  0.3729 -0.2584
19330SOL    HW161906   5.318   2.048   4.056  0.9525  1.2364 -1.2703
19330SOL    HW261907   5.260   2.161   3.975 -0.3146 -0.3174 -2.5914
19331SOL     OW61908   8.569   1.579   7.453  0.1348  0.1212 -0.5987
19331SOL    HW161909   8.566   1.607   7.545 -2.8455 -1.0368 -0.2325
19331SOL    HW261910   8.487   1.611   7.415 -0.1803 -2.0781 -1.9776
19332SOL     OW61911   7.197   7.838   9.227 -0.1792 -0.4789  0.2929
19332SOL    HW161912   7.132   7.784   9.272  1.3320 -0.8015  2.2456
19332SOL    HW261913   7.239   7.778   9.166  0.3411 -1.1106  1.2390
19333SOL     OW61914   9.351   3.860   5.872 -0.1330 -0.1359 -0.1237
19333SOL    HW161915   9.345   3.859   5.968  0.3868 -1.6510 -0.0777
19333SOL    HW261916   9.265   3.830   5.842  0.4931 -2.1396 -0.0321
19334SOL     OW61917   2.510   1.987   8.687 -0.5639  0.0967 -0.3512
19334SOL    HW161918   2.488   2.080   8.683 -1.3133 -0.0674 -0.1281
19334SOL    HW261919   2.426   1.943   8.701 -0.2413 -0.6329 -0.6980
19335SOL     OW61920   2.891   4.010   5.730  0.5850  0.0274 -0.1924
19335SOL    HW161921   2.972   3.960   5.737  1.2785  0.9511 -1.2755
19335SOL    HW261922   2.867   4.006   5.638 -0.3603  0.1530  0.0321
19336SOL     OW61923   4.740   7.705   5.214 -0.1109  0.0944 -0.0671
19336SOL    HW161924   4.718   7.727   5.123 -0.7039 -0.4152 -0.0524
19336SOL    HW261925   4.773   7.616   5.210 -2.3372 -0.8357  0.4861
19337SOL     OW61926   4.279   9.753   6.599  0.0140 -0.1114  0.4074
19337SOL    HW161927   4.250   9.764   6.508 -0.2344  2.2451  0.7041
19337SOL    HW261928   4.345   9.683   6.595  1.1626  0.9749 -1.8683
19338SOL     OW61929   2.082   4.490   7.988  0.0312  0.5003  0.3898
19338SOL    HW161930   2.151   4.553   7.969 -0.5670  0.8271 -0.8306
19338SOL    HW261931   2.081   4.432   7.912 -0.4093 -0.0805  0.8215
19339SOL     OW61932   7.406   1.769   3.416 -0.2705  0.2398 -0.1943
19339SOL    HW161933   7.351   1.740   3.489 -0.5265 -0.8853 -0.8149
19339SOL    HW261934   7.451   1.847   3.449 -2.9147  1.7987  0.0564
19340SOL     OW61935   1.703   4.268   2.679 -0.3305 -0.4986 -0.5460
19340SOL    HW161936   1.784   4.295   2.723 -0.4476 -0.7579 -0.1710
19340SOL    HW261937   1.703   4.318   2.597 -0.1645  0.0702 -0.2053
19341SOL     OW61938   1.935   7.974   7.156 -0.1258  0.6776  0.2219
19341SOL    HW161939   1.949   8.046   7.217 -1.4598  0.5473  0.7063
19341SOL    HW261940   1.879   7.913   7.203 -1.0895  0.5165 -1.0725
19342SOL     OW61941   4.425   0.399   5.583  0.3875  0.2991 -0.4552
19342SOL    HW161942   4.426   0.303   5.574 -2.3339  0.0847  0.7409
19342SOL    HW261943   4.454   0.415   5.672  0.4685  0.5714 -0.5302
19343SOL     OW61944   1.837   8.464   0.741  0.1787 -0.9971  0.3966
19343SOL    HW161945   1.879   8.507   0.815  0.0600 -0.9735  0.4510
19343SOL    HW261946   1.818   8.535   0.679 -2.6165 -0.4565  1.6910
19344SOL     OW61947   4.039   4.009   9.690  0.3762  0.3748  0.3013
19344SOL    HW161948   4.057   3.923   9.728 -1.4266 -0.4390 -0.5953
19344SOL    HW261949   4.006   4.061   9.763  0.0653 -0.1505  0.5399
19345SOL     OW61950   5.968   9.063   1.560  0.4062  0.1074 -0.2282
19345SOL    HW161951   6.011   9.093   1.640  1.0990 -0.5946 -0.3247
19345SOL    HW261952   5.997   9.124   1.492 -0.1703  0.6969  0.0396
19346SOL     OW61953   4.128   6.381   4.945 -0.2743  0.9458  0.0581
19346SOL    HW161954   4.110   6.428   5.027  0.4804 -0.0533  0.8189
19346SOL    HW261955   4.213   6.341   4.959 -0.5576 -0.0148 -0.8786
19347SOL     OW61956   6.416   1.912   8.954 -0.1571 -0.7093 -0.0316
19347SOL    HW161957   6.422   1.996   9.000  0.6821 -0.9535  0.3319
19347SOL    HW261958   6.426   1.935   8.862  2.6532 -0.6003  0.2021
19348SOL     OW61959   4.798   9.959   9.596  0.4027 -0.2616 -0.1451
19348SOL    HW161960   4.735   9.907   9.547 -0.0136  0.7599 -0.7232
19348SOL    HW261961   4.884   9.925   9.570  0.1517 -0.3816 -0.8308
19349SOL     OW61962   7.895   9.235   9.695 -0.9487 -0.1324 -0.2687
19349SOL    HW161963   7.924   9.273   9.778 -1.3392 -0.3252 -0.0370
19349SOL    HW261964   7.852   9.307   9.649 -1.5038 -0.2364  0.0799
19350SOL     OW61965   1.585   6.957   0.069 -0.7499  0.4483 -0.2744
19350SOL    HW161966   1.600   6.863   0.078  1.7939  0.9108  1.3086
19350SOL    HW261967   1.507   6.964   0.014 -1.1734 -2.5672 -0.2070
19351SOL     OW61968   0.302   2.414   1.904 -0.1934 -0.4007 -0.0953
19351SOL    HW161969   0.254   2.435   1.984  0.4678  1.6127 -0.1846
19351SOL    HW261970   0.234   2.386   1.842 -0.8133 -1.0506  0.8518
19352SOL     OW61971   9.556   5.467   0.773 -0.3751 -0.4988  0.1681
19352SOL    HW161972   9.481   5.517   0.804  0.0690  0.1455  0.2212
19352SOL    HW261973   9.518   5.397   0.719 -0.9538  0.4237 -0.6449
19353SOL     OW61974   2.268   8.187   6.383 -0.2650  0.2237  0.3116
19353SOL    HW161975   2.343   8.137   6.349  0.3615 -0.6351  2.7513
19353SOL    HW261976   2.229   8.129   6.448  0.7171  2.9497  3.6184
19354SOL     OW61977   6.730   9.456   0.763 -0.2045 -0.5298 -0.3648
19354SOL    HW161978   6.668   9.462   0.837 -1.4649 -1.4188 -1.3059
19354SOL    HW261979   6.791   9.528   0.778 -2.2049  1.2151 -0.0512
19355SOL     OW61980   3.716   4.695   9.696  0.4201 -0.0815 -0.8306
19355SOL    HW161981   3.774   4.772   9.694 -0.3664  0.5852  0.4320
19355SOL    HW261982   3.628   4.732   9.682  0.0418 -0.7657 -0.2655
19356SOL     OW61983   3.053   2.478   6.035  0.5959  0.1883  0.1964
19356SOL    HW161984   3.080   2.391   6.064 -0.2620 -0.7513 -1.6705
19356SOL    HW261985   3.001   2.513   6.108  0.0742 -1.2896  0.5591
19357SOL     OW61986   6.397   3.973   5.605 -0.7247 -0.8800  0.2181
19357SOL    HW161987   6.450   3.893   5.607 -0.9386 -1.0346 -0.2728
19357SOL    HW261988   6.309   3.945   5.629 -0.7596 -0.7611  0.2306
19358SOL     OW61989   6.057   3.420   3.057  0.0121 -0.2490 -0.0354
19358SOL    HW161990   6.045   3.329   3.029  0.5308 -0.3676  0.1153
19358SOL    HW261991   6.126   3.454   3.001  0.1230 -0.0809  0.2010
19359SOL     OW61992   7.915   1.593   8.984 -0.1346  0.5174 -0.3343
19359SOL    HW161993   7.948   1.580   8.895  0.2842  5.0167 -1.0267
19359SOL    HW261994   7.823   1.568   8.979  0.0999 -0.1759 -1.7440
19360SOL     OW61995   9.067   8.627   0.236  0.1798 -0.6712  0.1441
19360SOL    HW161996   9.025   8.542   0.220 -0.9021 -0.0499 -0.4998
19360SOL    HW261997   9.158   8.614   0.210 -0.2398 -1.3260 -1.1292
19361SOL     OW61998   2.538   9.146   8.716 -0.0319  0.1576  0.4897
19361SOL    HW161999   2.544   9.185   8.629 -0.1363 -0.5385  0.1611
19361SOL    HW262000   2.459   9.092   8.712  0.2224 -0.2466  0.8685
19362SOL     OW62001   4.060   7.506   0.772  0.0388  0.4211 -0.2234
19362SOL    HW162002   4.017   7.441   0.829 -0.7936  0.3661 -0.8963
19362SOL    HW262003   4.127   7.457   0.726  1.9190  0.7991  1.9175
19363SOL     OW62004   1.735   8.997   8.633 -0.0803  0.3380 -0.2209
19363SOL    HW162005   1.654   9.033   8.596  0.3503  0.6999 -0.8342
19363SOL    HW262006   1.706   8.933   8.698 -0.8738  1.6234  0.7325
19364SOL     OW62007   0.515   2.965   5.193 -0.0851 -0.3763 -0.5426
19364SOL    HW162008   0.608   2.990   5.191 -0.5526  1.5097 -0.4944
19364SOL    HW262009   0.506   2.914   5.274  0.8670 -0.4265 -0.4514
19365SOL     OW62010   2.271   2.008   3.171 -0.1952 -0.1290  0.4750
19365SOL    HW162011   2.192   2.005   3.224 -1.5121 -1.0708 -1.4167
19365SOL    HW262012   2.239   2.019   3.081  1.9236  1.5054 -0.1668
19366SOL     OW62013   9.492   9.648   2.693 -0.2422 -0.3005 -0.3441
19366SOL    HW162014   9.483   9.648   2.788 -0.4561 -0.9306 -0.3608
19366SOL    HW262015   9.430   9.582   2.662  1.8892 -2.2684 -0.7139
19367SOL     OW62016   9.878   5.095   5.740  0.1254 -0.3100  0.3555
19367SOL    HW162017   9.792   5.088   5.781  0.8358 -0.7192  1.8362
19367SOL    HW262018   9.900   5.188   5.746 -0.1864 -0.2140  0.0187
19368SOL     OW62019   9.165   8.316   9.938  0.4192  0.2542 -0.0260
19368SOL    HW162020   9.076   8.346   9.919  1.0861  1.6893 -1.0078
19368SOL    HW262021   9.169   8.229   9.897 -0.1178  0.7442 -1.1672
19369SOL     OW62022   3.371   1.230   0.972 -0.1338 -0.0778 -0.5926
19369SOL    HW162023   3.328   1.311   0.942 -1.6373 -1.1047 -1.2953
19369SOL    HW262024   3.406   1.253   1.058 -1.0049  1.1682 -0.5326
19370SOL     OW62025   2.739   9.417   6.338  0.5662 -0.5792 -0.0713
19370SOL    HW162026   2.697   9.340   6.377 -0.7905 -0.2294 -0.7696
19370SOL    HW262027   2.689   9.491   6.371  1.6627 -0.0090  0.3375
19371SOL     OW62028   6.801   7.826   6.054 -0.8021 -0.0542  0.1362
19371SOL    HW162029   6.749   7.857   5.980 -0.7795  0.5925  0.3927
19371SOL    HW262030   6.820   7.904   6.106 -2.9072 -0.8019  2.1722
19372SOL     OW62031   6.365   9.756   6.697  0.0600  0.1438  0.1617
19372SOL    HW162032   6.315   9.821   6.747 -0.8154 -0.4991  0.1257
19372SOL    HW262033   6.419   9.712   6.762 -0.9950 -0.6149  0.5474
19373SOL     OW62034   0.465   7.518   2.510  0.0842  0.1291  0.4196
19373SOL    HW162035   0.551   7.492   2.543  0.6603 -0.7619 -1.6095
19373SOL    HW262036   0.484   7.590   2.449 -0.6470  0.1928  0.2574
19374SOL     OW62037   4.680   4.358   4.914 -0.4835 -0.3890 -0.1601
19374SOL    HW162038   4.712   4.369   4.824  1.6534 -0.1247  0.5747
19374SOL    HW262039   4.646   4.269   4.917  0.0281 -0.6282 -1.0759
19375SOL     OW62040   5.081   9.790   6.153 -0.3040  0.0237  0.3638
19375SOL    HW162041   5.059   9.721   6.090  0.9204 -1.2370  1.2387
19375SOL    HW262042   5.171   9.770   6.180 -0.6498  0.7229  2.2321
19376SOL     OW62043   6.090   3.041   1.071  0.1420  0.3484 -0.1225
19376SOL    HW162044   6.087   2.946   1.072 -0.0321  0.3388 -0.7452
19376SOL    HW262045   6.078   3.064   0.978  0.0657  0.9744  0.0377
19377SOL     OW62046   2.908   4.869   1.454  0.2302  0.1870  0.3883
19377SOL    HW162047   2.879   4.951   1.416  0.6467  0.7773  1.3098
19377SOL    HW262048   2.834   4.809   1.441 -0.5461  1.0427  0.7416
19378SOL     OW62049   9.835   2.154   4.271 -0.4833 -0.0463  0.4552
19378SOL    HW162050   9.813   2.173   4.179  1.1053 -0.0771  0.0459
19378SOL    HW262051   9.769   2.091   4.298 -1.2283  0.2730 -0.5327
19379SOL     OW62052   5.779   7.949   7.038  0.2208  0.3871 -0.1515
19379SOL    HW162053   5.686   7.964   7.053 -0.6859 -3.0061 -1.4900
19379SOL    HW262054   5.802   8.010   6.968 -0.5979  2.2120  1.1091
19380SOL     OW62055   3.242   2.264   7.034  0.4757  0.0376  0.0009
19380SOL    HW162056   3.315   2.288   6.977  0.6492  0.3882  0.3622
19380SOL    HW262057   3.243   2.169   7.037  1.3090  0.0535  0.5005
19381SOL     OW62058   5.130   0.121   0.780  0.3927  0.2625 -0.3643
19381SOL    HW162059   5.037   0.127   0.800  0.4993 -1.3078  0.7861
19381SOL    HW262060   5.161   0.211   0.781 -0.9085  0.7295  0.2452
19382SOL     OW62061   1.346   1.514   5.675  0.2718 -0.6345 -0.1597
19382SOL    HW162062   1.275   1.556   5.627  1.1270  0.6417 -0.3411
19382SOL    HW262063   1.350   1.560   5.759  0.6164 -0.9662  0.0100
19383SOL     OW62064   7.306   5.661   9.147 -0.0877  0.0167  0.0923
19383SOL    HW162065   7.293   5.756   9.153 -1.8600 -0.2062  0.0853
19383SOL    HW262066   7.326   5.635   9.237  1.1518  0.4756 -0.0294
19384SOL     OW62067   0.004   4.487   0.285  1.1697 -0.3929 -0.1189
19384SOL    HW162068   0.030   4.570   0.325 -3.1115  1.0178  0.2406
19384SOL    HW262069  -0.025   4.433   0.358  1.0870 -1.0654 -0.6384
19385SOL     OW62070   1.598   9.698   6.725  0.2332  0.0687  0.0980
19385SOL    HW162071   1.691   9.709   6.710  0.6398 -1.6638  1.0311
19385SOL    HW262072   1.583   9.730   6.814 -0.4239  1.8745 -0.6085
19386SOL     OW62073   2.937   6.776   2.163  0.0492  0.0927  0.4161
19386SOL    HW162074   2.905   6.704   2.217  1.3932 -0.2464  0.7932
19386SOL    HW262075   3.027   6.788   2.191  0.0951  1.3709 -0.2429
19387SOL     OW62076   6.149   9.771   8.952 -0.2860 -0.2059 -0.1820
19387SOL    HW162077   6.233   9.785   8.909 -0.3095 -0.4755 -0.3162
19387SOL    HW262078   6.100   9.716   8.891 -0.5546 -0.0619 -0.0979
19388SOL     OW62079   3.980   2.402   9.783  0.6531  0.0849 -0.5475
19388SOL    HW162080   4.070   2.380   9.807 -0.1960 -1.1980  1.7105
19388SOL    HW262081   3.971   2.371   9.692  2.0682 -1.0875 -0.3212
19389SOL     OW62082   2.842  10.140   0.075  0.2824 -0.5564 -0.4191
19389SOL    HW162083   2.821  10.098  -0.008  0.0845  1.7394 -1.5857
19389SOL    HW262084   2.771  10.203   0.090 -0.6104 -2.0247  2.3775
19390SOL     OW62085   3.617   3.872   7.181  0.4420 -0.1479  0.1863
19390SOL    HW162086   3.688   3.904   7.126  0.0460 -1.2544 -1.0308
19390SOL    HW262087   3.540   3.921   7.152  0.1990 -0.8525 -0.4015
19391SOL     OW62088   4.339   8.744   5.877  0.4133 -0.4941  0.1829
19391SOL    HW162089   4.255   8.786   5.897  0.4196 -0.8659  1.0277
19391SOL    HW262090   4.404   8.797   5.923  0.4128 -1.4435  1.3368
19392SOL     OW62091   8.167   2.706   5.990 -0.4614  0.1366 -0.6147
19392SOL    HW162092   8.143   2.736   5.902  0.0412 -1.5614 -1.3656
19392SOL    HW262093   8.213   2.624   5.976  2.2905  1.2565  1.0366
19393SOL     OW62094   1.936   6.289   9.833 -0.5292  0.1240  0.2727
19393SOL    HW162095   1.866   6.279   9.769 -0.8484  0.0565  0.6361
19393SOL    HW262096   1.972   6.376   9.814 -0.2494 -0.1184 -0.3664
19394SOL     OW62097   6.755   2.816   7.442  0.9312 -0.0342 -0.6989
19394SOL    HW162098   6.701   2.738   7.449  0.8894  0.1095  1.0359
19394SOL    HW262099   6.810   2.815   7.521  0.8834  1.7086 -0.6034
19395SOL     OW62100   7.652   9.348   6.671 -0.0760  0.3860 -0.1867
19395SOL    HW162101   7.676   9.267   6.624 -0.7159  0.7064 -1.0968
19395SOL    HW262102   7.701   9.417   6.625  0.2834  0.5563  0.4372
19396SOL     OW62103   1.536   0.501   8.046 -0.3393  0.3693 -0.9104
19396SOL    HW162104   1.527   0.548   8.129  1.2216  1.2349 -1.1830
19396SOL    HW262105   1.614   0.540   8.005 -1.1774  0.0998 -2.8747
19397SOL     OW62106   4.904   7.169   8.155  0.7031  0.4823 -0.1775
19397SOL    HW162107   4.957   7.214   8.220  0.1504 -0.3506  0.8661
19397SOL    HW262108   4.963   7.102   8.118  0.9570  0.8320 -0.4140
19398SOL     OW62109   7.786   6.268   8.976 -0.6040 -0.3325 -0.3828
19398SOL    HW162110   7.765   6.208   9.048 -1.1388 -0.5633 -0.7249
19398SOL    HW262111   7.872   6.241   8.946 -0.6312 -0.6090 -0.2118
19399SOL     OW62112   1.750   4.278   0.950 -0.0164 -0.4689 -0.0534
19399SOL    HW162113   1.824   4.221   0.928  0.4483 -0.4830  1.4010
19399SOL    HW262114   1.676   4.240   0.903  1.1199  0.3906 -2.7140
19400SOL     OW62115   7.170   6.166   1.378 -0.2091  0.2563  0.1361
19400SOL    HW162116   7.080   6.155   1.347 -0.0395 -0.4318 -0.1148
19400SOL    HW262117   7.212   6.221   1.312 -0.0633 -0.5697 -0.4695
19401SOL     OW62118   3.079   2.764   0.894  0.1414  0.4552 -0.7114
19401SOL    HW162119   3.014   2.830   0.869 -2.1593 -1.4665 -0.1556
19401SOL    HW262120   3.050   2.732   0.979  3.5153  1.4953  0.9954
19402SOL     OW62121   2.073   9.770   8.183  0.4929  0.4795  0.1629
19402SOL    HW162122   2.005   9.794   8.246 -1.9412 -1.5199 -1.4817
19402SOL    HW262123   2.061   9.676   8.170  2.4726  0.3903 -1.5114
19403SOL     OW62124   2.308   3.696   7.979  0.7229  0.0189 -0.0557
19403SOL    HW162125   2.234   3.740   7.938  0.3481 -0.0465  0.5460
19403SOL    HW262126   2.350   3.648   7.908 -0.6422 -1.0947 -0.1320
19404SOL     OW62127   3.190   6.604   8.479  0.0224  0.0238 -0.1662
19404SOL    HW162128   3.207   6.632   8.569 -3.1208  0.3951  0.4263
19404SOL    HW262129   3.179   6.685   8.430  0.4398 -0.1834 -0.6082
19405SOL     OW62130   2.776   9.975   0.334 -0.3814  0.1467  1.0249
19405SOL    HW162131   2.795  10.045   0.272  1.2079  0.9633  2.3614
19405SOL    HW262132   2.683   9.987   0.355 -0.6340  0.5879 -0.2724
19406SOL     OW62133   5.636   6.326   0.632  0.0280  1.4038 -0.2397
19406SOL    HW162134   5.727   6.335   0.603  0.7492 -2.3867  0.2557
19406SOL    HW262135   5.597   6.266   0.568 -0.8110 -0.3179  1.7470
19407SOL     OW62136   1.483   1.615   4.225  0.1363  0.0150  0.0925
19407SOL    HW162137   1.530   1.670   4.163  2.5846  0.1734  1.9352
19407SOL    HW262138   1.454   1.540   4.174  3.6339 -0.7530 -1.0108
19408SOL     OW62139   7.130   1.834   4.096 -1.0058  0.2066 -0.1388
19408SOL    HW162140   7.110   1.921   4.061 -0.2468 -0.5552 -2.6599
19408SOL    HW262141   7.217   1.842   4.135 -0.8102  0.5115 -0.6393
19409SOL     OW62142   7.027   9.504   0.237 -0.9857  0.6700 -0.5676
19409SOL    HW162143   6.947   9.475   0.281 -0.5375 -1.8025 -1.2651
19409SOL    HW262144   6.996   9.564   0.169 -2.2237 -0.0881 -0.6913
19410SOL     OW62145   0.447   6.269   2.126  0.0044  0.5682 -0.1052
19410SOL    HW162146   0.532   6.306   2.103  0.2901  0.2419  0.4073
19410SOL    HW262147   0.384   6.320   2.074  0.3471  2.0220  0.8583
19411SOL     OW62148   7.588   1.402   3.081 -0.3737  0.3086  0.6024
19411SOL    HW162149   7.650   1.459   3.036 -1.0093  1.2013  0.8198
19411SOL    HW262150   7.637   1.322   3.099  0.9993  1.3148  1.5696
19412SOL     OW62151   7.043   9.856   7.054  0.6718  0.0741  0.2103
19412SOL    HW162152   7.044   9.874   7.148  0.4387 -0.8556  0.4049
19412SOL    HW262153   7.114   9.909   7.018  1.5568 -0.4832  1.0906
19413SOL     OW62154   5.346   3.197   7.017  0.4387  0.2460  0.0842
19413SOL    HW162155   5.401   3.157   7.085  1.7959  0.8595 -0.6215
19413SOL    HW262156   5.309   3.122   6.969  0.7492 -0.1701  0.4837
19414SOL     OW62157   6.982   5.224   0.640 -0.8400 -0.4449 -0.2133
19414SOL    HW162158   6.960   5.140   0.679 -0.7410 -1.2034 -1.7178
19414SOL    HW262159   6.929   5.229   0.561 -1.0354  1.0318 -0.0237
19415SOL     OW62160   4.862   2.754   5.104 -0.2935 -0.0507 -0.2760
19415SOL    HW162161   4.821   2.801   5.032 -3.1771 -1.9747 -0.0464
19415SOL    HW262162   4.794   2.748   5.171  0.5289 -2.8685  0.4437
19416SOL     OW62163   3.685   6.814   8.116  0.0534 -0.7290 -0.1300
19416SOL    HW162164   3.606   6.812   8.170 -1.0513  0.2633 -1.6525
19416SOL    HW262165   3.748   6.865   8.168 -0.6020 -0.7316  0.6852
19417SOL     OW62166   7.350   3.140   7.762 -0.2058 -0.3917  0.1173
19417SOL    HW162167   7.333   3.225   7.720 -2.0863  0.0805  1.6781
19417SOL    HW262168   7.347   3.077   7.690  0.8266  0.7832 -1.0233
19418SOL     OW62169   5.759   2.646   1.499 -0.2173  0.6875  0.3510
19418SOL    HW162170   5.813   2.583   1.450 -1.3806 -0.1785  0.1461
19418SOL    HW262171   5.820   2.686   1.561  0.5934 -0.5309  0.3783
19419SOL     OW62172   7.939   9.796   5.574 -0.1687  0.9361 -0.2176
19419SOL    HW162173   7.996   9.760   5.507 -1.4732 -1.4608 -0.1434
19419SOL    HW262174   7.850   9.784   5.540 -0.8257  0.4868  1.5162
19420SOL     OW62175   1.766   7.021   2.598 -0.3393 -0.0279 -0.2067
19420SOL    HW162176   1.720   7.048   2.519  0.2803  0.1998 -0.5014
19420SOL    HW262177   1.732   7.078   2.666 -3.0206 -2.1231  0.3663
19421SOL     OW62178   3.818   7.243   4.325  0.1833 -0.1613 -0.1219
19421SOL    HW162179   3.793   7.151   4.322 -2.9184  0.5334  0.0948
19421SOL    HW262180   3.793   7.272   4.413 -0.0798  1.1390 -0.5935
19422SOL     OW62181   2.236   9.480   7.956  0.4462 -0.5850  0.4247
19422SOL    HW162182   2.212   9.408   8.015  1.1538  0.3106  1.8693
19422SOL    HW262183   2.159   9.492   7.900 -0.7783 -0.6606  2.0079
19423SOL     OW62184   9.086   9.281   0.721  0.2693  0.2534 -0.9406
19423SOL    HW162185   9.176   9.301   0.696  1.1458 -2.7806 -0.6490
19423SOL    HW262186   9.094   9.204   0.778 -2.3901  1.0762  0.6991
19424SOL     OW62187   8.319   7.231   1.807 -0.1872 -0.6920 -0.2300
19424SOL    HW162188   8.300   7.286   1.731 -0.8358 -0.7493 -0.1106
19424SOL    HW262189   8.318   7.142   1.773  0.0840 -0.6861 -0.2612
19425SOL     OW62190   8.217   3.136   5.254 -0.1570  0.3773 -0.1878
19425SOL    HW162191   8.206   3.116   5.161 -1.3568  1.2759 -0.2638
19425SOL    HW262192   8.266   3.219   5.255 -0.6583  0.6724 -0.0357
19426SOL     OW62193   6.309   1.795   8.602 -0.1141  0.2467 -0.0943
19426SOL    HW162194   6.298   1.805   8.508 -0.0488  0.9540 -0.0372
19426SOL    HW262195   6.357   1.874   8.629  0.4016 -0.2335  0.4378
19427SOL     OW62196   2.736   4.546   3.957 -0.2690 -0.1738 -0.4911
19427SOL    HW162197   2.735   4.618   4.021 -2.7352  0.0204 -0.6238
19427SOL    HW262198   2.710   4.588   3.875 -1.5711 -1.1611 -0.6086
19428SOL     OW62199   4.486   1.437   4.427  0.1725  0.4561  0.3904
19428SOL    HW162200   4.489   1.432   4.331  1.2405 -0.6503  0.4478
19428SOL    HW262201   4.462   1.527   4.446 -0.5949  0.5585 -0.9191
19429SOL     OW62202   8.873   0.363   9.406  0.2953 -0.6464 -0.6749
19429SOL    HW162203   8.797   0.324   9.449  0.1925 -2.6215 -2.5055
19429SOL    HW262204   8.919   0.409   9.476 -1.4458 -1.1791  0.8896
19430SOL     OW62205   3.409   5.454   1.186 -0.0562 -0.6854  0.0340
19430SOL    HW162206   3.412   5.416   1.273  0.1423 -1.4229 -0.2888
19430SOL    HW262207   3.459   5.536   1.194 -0.5811 -0.4194  0.7532
19431SOL     OW62208   5.091   8.923   9.590 -0.1261 -0.3283 -0.0321
19431SOL    HW162209   5.164   8.870   9.557  0.0989 -1.3211  1.9067
19431SOL    HW262210   5.033   8.860   9.633 -0.6241  0.7981  1.0289
19432SOL     OW62211   5.936   6.411   1.163 -0.1709  0.3551  0.1026
19432SOL    HW162212   5.857   6.459   1.141  1.4519  2.2209 -2.1627
19432SOL    HW262213   5.933   6.333   1.107 -0.2856  0.5646 -0.1844
19433SOL     OW62214   8.635   3.251   5.573  0.4595  0.3943  0.1962
19433SOL    HW162215   8.542   3.268   5.591  0.0348 -1.0291 -0.5336
19433SOL    HW262216   8.665   3.331   5.529  0.1403  1.7120  2.2055
19434SOL     OW62217   5.447   4.249   8.677 -0.9693 -0.3461 -0.0824
19434SOL    HW162218   5.500   4.270   8.753  0.3650 -0.5596 -0.9297
19434SOL    HW262219   5.463   4.157   8.660 -0.6116 -0.1142 -1.0994
19435SOL     OW62220   8.421   1.213   1.409  0.2685 -0.3434 -0.2040
19435SOL    HW162221   8.350   1.203   1.473  2.1597  1.1754  2.3588
19435SOL    HW262222   8.400   1.294   1.362  0.5095  0.3950  0.9174
19436SOL     OW62223   7.848   6.534   6.354 -0.4714 -0.1300  0.3828
19436SOL    HW162224   7.872   6.613   6.403  1.0919 -0.2198 -0.1779
19436SOL    HW262225   7.930   6.488   6.341 -0.9866 -0.6659 -1.3557
19437SOL     OW62226   8.600   5.422   8.636  0.5115  0.6957 -0.1283
19437SOL    HW162227   8.667   5.472   8.590  0.3919  0.9057 -0.0723
19437SOL    HW262228   8.635   5.332   8.638  1.4800  1.0688  1.2023
19438SOL     OW62229   4.349   8.871   2.633  0.2897  0.4721 -0.1633
19438SOL    HW162230   4.433   8.879   2.589  0.6918 -2.3686 -0.1051
19438SOL    HW262231   4.292   8.828   2.569 -0.6960  1.0544  0.2956
19439SOL     OW62232   3.064   8.215   7.953  0.1818 -0.1217  0.7166
19439SOL    HW162233   2.972   8.235   7.936  0.5437  0.6562 -0.4793
19439SOL    HW262234   3.101   8.298   7.984  0.6500 -0.2198  0.4305
19440SOL     OW62235   7.323   9.009   4.889 -0.0443  0.1203  0.0033
19440SOL    HW162236   7.277   9.073   4.943  1.5938  0.5541  0.9206
19440SOL    HW262237   7.385   9.061   4.838  0.5464 -0.6120 -0.0372
19441SOL     OW62238   9.360   7.847   7.293  0.2007  0.3855 -0.5344
19441SOL    HW162239   9.354   7.793   7.372  0.2652  1.1942  0.0323
19441SOL    HW262240   9.280   7.827   7.245 -0.1065  0.2867  0.0052
19442SOL     OW62241   8.108   2.057   9.564 -0.3445  0.1647 -0.1646
19442SOL    HW162242   8.194   2.061   9.607 -0.8028  2.8085  0.7073
19442SOL    HW262243   8.101   2.140   9.517 -1.8205 -0.6691 -1.5179
19443SOL     OW62244   5.419   4.517   4.532  0.2836  0.3907  0.2127
19443SOL    HW162245   5.513   4.497   4.525  0.3182  1.1334 -2.4817
19443SOL    HW262246   5.417   4.612   4.546 -0.0184  0.6764 -1.4986
19444SOL     OW62247   0.224   4.531   1.849 -0.1547  0.3984 -0.8109
19444SOL    HW162248   0.256   4.580   1.925  1.6300  1.7994 -2.3852
19444SOL    HW262249   0.131   4.516   1.868  0.3976 -0.0171  1.9877
19445SOL     OW62250   9.120   9.275   2.017  0.2079  0.1128  0.4687
19445SOL    HW162251   9.135   9.297   1.925  0.6696 -0.1950  0.4686
19445SOL    HW262252   9.195   9.312   2.063  0.5400 -0.6874  0.5812
19446SOL     OW62253   7.556   0.731   9.712 -0.7354 -0.1921 -0.2565
19446SOL    HW162254   7.604   0.651   9.737 -0.1801  0.0370 -0.5621
19446SOL    HW262255   7.602   0.762   9.633 -2.3912 -0.8639 -1.5461
19447SOL     OW62256   5.303   7.030   8.991  0.4063  0.2724 -0.3314
19447SOL    HW162257   5.378   7.060   9.042 -0.6624  0.2909  1.3220
19447SOL    HW262258   5.264   6.961   9.045 -2.2230  1.9801  0.1984
19448SOL     OW62259   1.932   7.735   1.785  0.0048 -0.0657 -0.1333
19448SOL    HW162260   1.987   7.737   1.863 -0.0349 -1.8229 -0.0179
19448SOL    HW262261   1.842   7.738   1.819 -0.0076 -0.4816 -0.1266
19449SOL     OW62262   3.301   6.875   1.504 -0.6462 -0.1242 -0.2733
19449SOL    HW162263   3.294   6.851   1.596 -1.9411  0.1808 -0.2738
19449SOL    HW262264   3.390   6.910   1.495 -0.7758  0.6005  1.0456
19450SOL     OW62265   6.604   7.063   2.965  0.0861  0.2456 -0.9731
19450SOL    HW162266   6.695   7.042   2.989  0.6087  1.7924 -1.5026
19450SOL    HW262267   6.551   7.005   3.020  1.3038  1.6522  1.9036
19451SOL     OW62268   7.905  10.018   0.198 -0.8678  0.1295 -0.4406
19451SOL    HW162269   7.945   9.931   0.199 -0.3661  0.2865  2.3222
19451SOL    HW262270   7.844  10.016   0.124 -1.0929 -2.6746 -0.2954
19452SOL     OW62271   4.554   9.698   1.258 -0.3299  0.1990 -0.0485
19452SOL    HW162272   4.534   9.790   1.239 -0.9904  0.3094  1.0679
19452SOL    HW262273   4.642   9.685   1.223 -0.2580  1.2431 -0.3020
19453SOL     OW62274   5.913   5.669   9.422 -0.2988 -0.3496  0.3408
19453SOL    HW162275   5.872   5.603   9.367 -3.2101  0.8289  0.9089
19453SOL    HW262276   5.907   5.750   9.370  2.2339 -0.2481  0.0853
19454SOL     OW62277   5.768   8.030   1.838  0.4314 -0.1562  0.3055
19454SOL    HW162278   5.793   7.938   1.841  1.2667  0.0407 -0.1374
19454SOL    HW262279   5.680   8.033   1.876  0.0692 -1.2476 -0.3942
19455SOL     OW62280   9.718   1.694   7.897  0.3472 -0.0436 -0.0903
19455SOL    HW162281   9.732   1.608   7.937  1.0119 -0.6017 -1.4524
19455SOL    HW262282   9.725   1.677   7.803 -1.5236  1.1468 -0.4860
19456SOL     OW62283   2.121   1.485   9.844 -0.1137  0.4100  0.2631
19456SOL    HW162284   2.081   1.454   9.763  0.4963 -0.3713  0.2449
19456SOL    HW262285   2.052   1.473   9.910 -1.2090  2.6466 -0.3951
19457SOL     OW62286   2.380   6.353   7.781  0.5401 -0.0759  0.2566
19457SOL    HW162287   2.294   6.359   7.740  0.7643 -0.0430 -0.2266
19457SOL    HW262288   2.439   6.398   7.719  0.7046  1.0201  1.1616
19458SOL     OW62289   5.546   6.867   3.302 -0.2137  0.3883 -0.2953
19458SOL    HW162290   5.640   6.850   3.300 -0.1263 -0.3855  3.1901
19458SOL    HW262291   5.509   6.809   3.236  1.6631 -0.0447 -1.0241
19459SOL     OW62292   5.626   2.736  10.181 -0.2578  0.6012 -0.2047
19459SOL    HW162293   5.549   2.791  10.178 -1.0690 -0.5058 -0.3264
19459SOL    HW262294   5.642   2.713  10.089  0.9356  1.7569 -0.3218
19460SOL     OW62295   9.856   9.195  10.007  0.6135  0.5015 -0.1439
19460SOL    HW162296   9.883   9.121  10.061  1.1088 -0.0812 -1.1735
19460SOL    HW262297   9.793   9.159   9.945  0.4613  1.0506 -0.3229
19461SOL     OW62298   2.348   7.447   1.617 -0.7639 -0.0579  0.4216
19461SOL    HW162299   2.384   7.363   1.644  2.4165  1.7492  2.4853
19461SOL    HW262300   2.280   7.466   1.681 -0.6007 -0.5146  0.7287
19462SOL     OW62301   9.295   0.393   0.636 -0.1386 -0.2717 -0.1647
19462SOL    HW162302   9.373   0.337   0.639 -0.1345 -0.2270  1.6211
19462SOL    HW262303   9.266   0.399   0.727 -1.5783  0.6464 -0.6444
19463SOL     OW62304   1.079   9.077   8.223  0.0255  0.8607  0.1293
19463SOL    HW162305   1.000   9.123   8.253 -0.0151  0.0655  1.3314
19463SOL    HW262306   1.126   9.056   8.304  0.7836  0.1142 -0.4906
19464SOL     OW62307   2.926   1.514   4.617  0.3326 -0.1401  0.6195
19464SOL    HW162308   2.915   1.448   4.685 -0.8785 -1.7703 -1.0238
19464SOL    HW262309   2.870   1.586   4.643 -1.1353 -1.2803  0.7739
19465SOL     OW62310  10.141   0.787   7.736  0.6290  0.4134  0.3798
19465SOL    HW162311  10.142   0.696   7.704 -0.5256  0.4059  0.2936
19465SOL    HW262312  10.076   0.830   7.680  0.5288  1.0743  0.9996
19466SOL     OW62313   2.611   2.435   7.179  0.2216 -0.4162  0.4854
19466SOL    HW162314   2.704   2.453   7.166 -0.0118  0.2655 -0.3238
19466SOL    HW262315   2.589   2.371   7.112 -0.0288 -0.0788  0.2359
19467SOL     OW62316   6.793   4.126   0.621  0.5737 -0.2839 -0.1590
19467SOL    HW162317   6.884   4.105   0.639  0.8034  1.3601  0.8273
19467SOL    HW262318   6.743   4.080   0.688  0.6177 -1.5033 -0.9385
19468SOL     OW62319   7.738   2.270   7.164  0.2348 -0.2567  0.1331
19468SOL    HW162320   7.814   2.263   7.222  0.0040 -1.2563  0.3322
19468SOL    HW262321   7.773   2.309   7.084  1.1843 -1.6169 -0.1493
19469SOL     OW62322   9.494   3.316   4.633  0.2938  0.1077  0.6787
19469SOL    HW162323   9.508   3.405   4.600  1.5372 -0.8086 -1.4054
19469SOL    HW262324   9.579   3.289   4.667 -0.0664 -0.3493  1.2470
19470SOL     OW62325   9.467   3.419   0.818  0.2931  0.7537  1.0901
19470SOL    HW162326   9.390   3.472   0.797  0.4646 -0.0195 -1.8898
19470SOL    HW262327   9.538   3.460   0.770  1.7371  1.1535  3.4034
19471SOL     OW62328   1.741   0.278   3.690 -0.1269 -0.0837 -0.2973
19471SOL    HW162329   1.727   0.253   3.599 -0.0815  1.5977 -0.8040
19471SOL    HW262330   1.796   0.209   3.726 -2.8096 -2.5584 -0.5571
19472SOL     OW62331   8.347   7.182   5.144  0.1172 -0.3848 -0.5760
19472SOL    HW162332   8.318   7.137   5.223  2.4023  1.0070  1.1845
19472SOL    HW262333   8.430   7.140   5.122 -0.4075 -0.6449 -2.1787
19473SOL     OW62334   4.486   6.070   7.039  0.0340  0.0410 -0.6530
19473SOL    HW162335   4.392   6.058   7.033 -0.0743 -0.2388  1.2079
19473SOL    HW262336   4.523   5.982   7.027  0.0084  0.0142 -0.5329
19474SOL     OW62337   7.056   8.340   6.409  0.0310  0.2689 -0.2143
19474SOL    HW162338   7.037   8.364   6.499  1.6005 -1.2259  0.5819
19474SOL    HW262339   7.123   8.403   6.381  1.1293 -0.5814  0.4397
19475SOL     OW62340   8.098   8.015   4.693 -0.4939  0.3033  0.2548
19475SOL    HW162341   8.040   7.977   4.627  0.3233 -1.7203  0.6541
19475SOL    HW262342   8.044   8.018   4.773 -0.3922 -0.5496  0.3585
19476SOL     OW62343   2.234   0.084   6.811  0.3966 -0.1106 -0.1516
19476SOL    HW162344   2.254   0.160   6.865  0.4775  1.9729 -2.8841
19476SOL    HW262345   2.319   0.045   6.791  0.4131 -0.5234  0.7130
19477SOL     OW62346   3.684   8.355  10.202 -0.0790  0.4770  0.2704
19477SOL    HW162347   3.645   8.321  10.121 -1.5045  2.6540 -0.0333
19477SOL    HW262348   3.640   8.306  10.272 -2.3346  1.7965 -0.1354
19478SOL     OW62349   1.454   8.916   9.450 -0.6590 -0.2127  0.0564
19478SOL    HW162350   1.466   8.825   9.475 -0.3374 -0.3089 -0.4286
19478SOL    HW262351   1.361   8.932   9.461 -0.5768 -0.3237  1.0313
19479SOL     OW62352   3.065   5.977   5.924  0.1281 -0.0612 -0.2787
19479SOL    HW162353   3.092   5.946   6.011 -1.8724  0.7705  0.7238
19479SOL    HW262354   3.007   6.052   5.943 -1.6326 -0.8335 -2.2394
19480SOL     OW62355   7.629   4.487   2.128  0.1689  0.0514 -0.1879
19480SOL    HW162356   7.632   4.539   2.047 -0.0793  1.7885  0.8849
19480SOL    HW262357   7.549   4.435   2.119 -0.2173  0.7154 -0.7810
19481SOL     OW62358   1.524   1.902   6.593 -0.0995  0.1833 -0.1919
19481SOL    HW162359   1.530   1.990   6.556 -0.0395 -0.0832 -0.8439
19481SOL    HW262360   1.431   1.879   6.587 -0.2055  0.4190  0.5065
19482SOL     OW62361  10.112   5.300   7.147  0.4573  0.0575 -0.2070
19482SOL    HW162362  10.167   5.307   7.225  1.3357  1.7395 -0.9280
19482SOL    HW262363  10.136   5.216   7.109 -0.5896 -1.2035  1.7249
19483SOL     OW62364   6.627   9.210   7.022  0.0824 -0.6150 -0.2289
19483SOL    HW162365   6.698   9.168   6.973 -0.2433  0.0258 -1.2815
19483SOL    HW262366   6.642   9.304   7.009 -1.0589 -0.4750 -0.6177
19484SOL     OW62367   2.072   2.244   6.917 -0.2083 -0.1370  1.2957
19484SOL    HW162368   1.987   2.238   6.962 -0.4691 -0.1776  0.7997
19484SOL    HW262369   2.065   2.323   6.864 -0.6920 -1.2204 -0.3015
19485SOL     OW62370   6.250   6.479   5.504  0.3676  0.7387 -0.1503
19485SOL    HW162371   6.200   6.409   5.461 -1.3524  3.3080 -2.7404
19485SOL    HW262372   6.186   6.526   5.557  0.9296  1.7275 -0.3165
19486SOL     OW62373   9.210   7.519   2.395  0.2327  0.2336 -0.7505
19486SOL    HW162374   9.194   7.605   2.433  0.0995 -0.5833  1.1454
19486SOL    HW262375   9.297   7.525   2.356  0.0034  1.3649 -1.1033
19487SOL     OW62376   0.146   9.938   3.626  0.3608  0.4845 -0.3693
19487SOL    HW162377   0.065   9.933   3.676  0.7979 -1.8500  0.2044
19487SOL    HW262378   0.149  10.028   3.594 -2.7609  0.4911 -0.9410
19488SOL     OW62379   3.878   2.935   5.777 -0.5050  0.2087 -0.1433
19488SOL    HW162380   3.900   3.027   5.759 -0.3792 -0.3166 -3.3581
19488SOL    HW262381   3.783   2.931   5.765 -0.2852 -0.3696 -2.1744
19489SOL     OW62382   2.942   9.606   9.269  0.4560 -0.2985 -0.2204
19489SOL    HW162383   2.909   9.695   9.260  0.7090  0.0425  1.8050
19489SOL    HW262384   3.005   9.597   9.198  2.5968  2.1994  1.1592
19490SOL     OW62385   7.472   2.792   1.650  0.2185 -0.0899 -0.3978
19490SOL    HW162386   7.387   2.834   1.662  1.6948  3.0757 -0.0484
19490SOL    HW262387   7.517   2.804   1.734  1.1034 -1.6102 -0.6102
19491SOL     OW62388   2.990   2.095   7.053 -0.1911  0.2953  0.5440
19491SOL    HW162389   3.023   2.137   6.973  1.5598  0.9046  1.5256
19491SOL    HW262390   2.960   2.168   7.107 -0.5934 -0.0541  0.8000
19492SOL     OW62391   1.814   9.982   4.186  0.3605  0.3293  0.0534
19492SOL    HW162392   1.809   9.888   4.202 -0.2196  0.3805  0.1920
19492SOL    HW262393   1.868   9.990   4.108  2.7800  0.0291  1.5905
19493SOL     OW62394   2.076   9.273   0.765 -0.2481  0.1549 -0.1407
19493SOL    HW162395   2.105   9.333   0.697  0.3534 -0.5078 -0.4791
19493SOL    HW262396   2.121   9.301   0.844  0.1765  0.0308 -0.3399
19494SOL     OW62397   8.927   4.053   6.502  0.1005 -0.0604 -0.0812
19494SOL    HW162398   8.898   3.963   6.489  0.1527 -0.2496  1.0340
19494SOL    HW262399   8.900   4.098   6.422 -0.6525 -0.8840 -0.3095
19495SOL     OW62400   7.360   1.886   5.613 -0.3027  0.4935 -0.3996
19495SOL    HW162401   7.407   1.832   5.549 -2.3949 -1.4799 -0.4241
19495SOL    HW262402   7.310   1.947   5.561 -0.0463  0.6126 -0.5094
19496SOL     OW62403   3.443   2.223   6.537 -0.1346  0.0554 -0.1821
19496SOL    HW162404   3.394   2.161   6.483  0.9351 -0.2613 -0.8010
19496SOL    HW262405   3.535   2.206   6.517  0.2230  0.9608  0.6132
19497SOL     OW62406   5.270   5.345   8.234 -0.2358 -0.0115  0.2738
19497SOL    HW162407   5.186   5.318   8.196 -0.1320  0.4800 -0.3228
19497SOL    HW262408   5.297   5.271   8.289 -0.5594 -0.6000 -0.3495
19498SOL     OW62409   5.796   2.444   9.493  0.4932  0.2112  0.1860
19498SOL    HW162410   5.711   2.430   9.453  1.4545  0.5865 -2.1252
19498SOL    HW262411   5.847   2.367   9.469  1.1882  0.5781  0.4471
19499SOL     OW62412   5.737   9.020   0.607 -0.3133  0.2078 -0.5251
19499SOL    HW162413   5.756   8.941   0.555 -2.3017 -0.7939  0.1695
19499SOL    HW262414   5.740   8.990   0.698  1.1778  1.5008 -0.1056
19500SOL     OW62415   6.380   7.812   2.668  0.2176  0.0905 -0.3624
19500SOL    HW162416   6.359   7.747   2.735 -0.3230  0.3310 -0.2924
19500SOL    HW262417   6.337   7.779   2.589 -0.6069  0.6852 -0.1727
19501SOL     OW62418   0.986   9.352   4.706 -0.2276  0.4577  0.4146
19501SOL    HW162419   1.065   9.345   4.652  1.1046  0.4823  2.2883
19501SOL    HW262420   0.988   9.442   4.739 -0.6573  0.2310  1.0624
19502SOL     OW62421   9.006   8.673   8.155  0.2355  0.7255  0.3790
19502SOL    HW162422   8.922   8.645   8.118  0.4857  1.6688 -0.9261
19502SOL    HW262423   9.025   8.606   8.222 -0.9892 -0.1330 -0.0894
19503SOL     OW62424   6.620   3.340   6.457 -0.2255 -0.5651  0.2565
19503SOL    HW162425   6.631   3.420   6.406 -0.1156 -0.7518 -0.0147
19503SOL    HW262426   6.708   3.306   6.469 -0.3449 -1.1465 -0.4465
19504SOL     OW62427   6.920   8.475   2.269  0.0116 -0.1432 -0.3492
19504SOL    HW162428   6.921   8.381   2.281 -1.2597 -0.0961  0.3266
19504SOL    HW262429   6.835   8.493   2.228  0.4795  0.6534 -1.0055
19505SOL     OW62430   4.756   9.304   3.677 -0.2621 -0.2047  0.5443
19505SOL    HW162431   4.780   9.371   3.741 -0.3407  0.0288  0.3298
19505SOL    HW262432   4.684   9.342   3.628  0.4102  0.0037 -0.3076
19506SOL     OW62433   2.780   1.916   7.038 -0.7818 -0.1504 -0.3542
19506SOL    HW162434   2.779   1.875   7.124 -1.0191 -0.9520 -0.7294
19506SOL    HW262435   2.844   1.987   7.046  1.6769 -2.1865 -0.3942
19507SOL     OW62436   6.884   0.497  10.016  0.3747  0.2708 -0.6538
19507SOL    HW162437   6.957   0.559  10.020  0.4499  0.1329  0.9913
19507SOL    HW262438   6.910   0.434   9.949  2.6620 -0.7779  1.0543
19508SOL     OW62439   5.549   1.276   3.090 -0.2520  0.3973 -0.6315
19508SOL    HW162440   5.632   1.229   3.085 -0.8895 -0.8229 -0.1764
19508SOL    HW262441   5.529   1.300   3.000  1.6334  2.6605 -0.5636
19509SOL     OW62442   6.971   9.907   0.171 -0.4089 -0.3509  0.2407
19509SOL    HW162443   6.899   9.878   0.115  0.6079 -2.1896 -0.1913
19509SOL    HW262444   7.032   9.949   0.111 -1.7062  2.6519  0.8102
19510SOL     OW62445   2.681   5.016   8.338 -0.3502  0.2483  0.4908
19510SOL    HW162446   2.736   5.012   8.417  1.0184 -1.7473 -0.4745
19510SOL    HW262447   2.710   5.094   8.292  1.2634 -0.4140  0.3339
19511SOL     OW62448   6.795   4.905   9.122 -0.6750  0.0600  0.3289
19511SOL    HW162449   6.851   4.974   9.087 -1.1069 -0.6975 -2.0287
19511SOL    HW262450   6.847   4.865   9.191  0.5199  1.2044  0.1448
19512SOL     OW62451   0.595   5.625   4.704 -0.5259  0.0874 -0.5291
19512SOL    HW162452   0.679   5.649   4.667 -0.6558  0.4737 -0.5836
19512SOL    HW262453   0.545   5.707   4.705 -0.4858  0.1162  0.5928
19513SOL     OW62454   4.823   4.148   5.525  0.2028 -0.0075 -0.2119
19513SOL    HW162455   4.837   4.227   5.578 -0.7130  0.2212 -0.2917
19513SOL    HW262456   4.818   4.077   5.589 -1.4195  0.3363  0.0770
19514SOL     OW62457   6.874   4.765   1.168  0.3506 -0.3266  0.3250
19514SOL    HW162458   6.797   4.814   1.197 -0.6761  0.0989 -2.8167
19514SOL    HW262459   6.939   4.832   1.149  1.2942 -0.6453  2.1891
19515SOL     OW62460   2.427   6.654   5.894  0.0849 -0.6031 -0.8201
19515SOL    HW162461   2.456   6.654   5.986  0.5751  1.1186 -0.9335
19515SOL    HW262462   2.491   6.600   5.849 -1.6301 -3.7672  0.1828
19516SOL     OW62463   3.867   1.132   2.688 -0.0295  0.1249  0.4490
19516SOL    HW162464   3.909   1.147   2.603  0.5717 -1.0927  0.4981
19516SOL    HW262465   3.776   1.158   2.675  0.2159  0.6369 -0.3566
19517SOL     OW62466   4.844   6.384   1.629  0.4114  0.2708 -0.3894
19517SOL    HW162467   4.888   6.427   1.703 -0.1726 -0.2754  0.2986
19517SOL    HW262468   4.761   6.431   1.619 -0.1793 -0.5767  0.2933
19518SOL     OW62469   9.094   9.277   0.295 -0.2249 -0.2151 -0.1238
19518SOL    HW162470   9.174   9.262   0.245 -0.9862 -1.6101 -0.9585
19518SOL    HW262471   9.107   9.228   0.376  0.8220  1.6899  0.9431
19519SOL     OW62472   8.940   6.994   9.772  0.0441 -0.4124 -0.7270
19519SOL    HW162473   8.901   7.080   9.764 -0.5041 -0.5946 -0.0611
19519SOL    HW262474   8.887   6.938   9.716 -0.7638 -0.6863  0.2775
19520SOL     OW62475   4.512   9.699  10.008 -0.2648  0.0951  0.1674
19520SOL    HW162476   4.533   9.619   9.960 -0.0196  0.2423  0.0263
19520SOL    HW262477   4.492   9.763   9.940 -1.2081 -0.0416  0.2932
19521SOL     OW62478   6.013   0.909   5.511  0.3766  0.0825 -0.4581
19521SOL    HW162479   5.971   0.931   5.594  0.1622 -2.5786  0.2342
19521SOL    HW262480   6.084   0.973   5.503 -0.6224  1.4394  0.9100
19522SOL     OW62481   4.867   0.010   1.645 -0.4285 -0.1519  0.0823
19522SOL    HW162482   4.828   0.035   1.728  1.8473 -0.6029  1.3754
19522SOL    HW262483   4.842  -0.082   1.633  1.0003 -0.7654  1.4407
19523SOL     OW62484   4.383   7.821   8.427 -0.2464 -0.0288  0.2686
19523SOL    HW162485   4.359   7.822   8.520 -1.4149  2.3715  0.0125
19523SOL    HW262486   4.300   7.830   8.380  0.4728  0.5616 -0.9392
19524SOL     OW62487   1.414   4.920   4.979 -0.5183 -0.0103 -0.3376
19524SOL    HW162488   1.377   4.945   4.894 -1.8130 -0.3892  0.0957
19524SOL    HW262489   1.490   4.867   4.957  1.0496  2.4424 -1.2747
19525SOL     OW62490   6.056   3.003   5.486  0.9087  0.3064  0.4620
19525SOL    HW162491   6.084   3.048   5.407  0.5990  0.4753  0.4460
19525SOL    HW262492   6.060   3.070   5.554 -2.1474  1.1722 -0.0496
19526SOL     OW62493   7.850   0.332   2.875  0.0985 -0.7843 -0.7877
19526SOL    HW162494   7.896   0.338   2.791  0.5330 -1.8054 -0.6385
19526SOL    HW262495   7.795   0.410   2.878  0.2119 -0.6425 -1.9419
19527SOL     OW62496   4.633   1.196   3.288 -0.3475 -0.1290  0.0579
19527SOL    HW162497   4.604   1.287   3.294  0.6646  0.1253  1.3831
19527SOL    HW262498   4.559   1.150   3.249 -1.2332  1.0909  0.2554
19528SOL     OW62499   2.286   6.628   4.356 -0.5903  0.2818  0.0347
19528SOL    HW162500   2.352   6.686   4.393  0.3298 -0.7076 -0.0009
19528SOL    HW262501   2.229   6.606   4.430  0.3413 -0.4845  0.5361
19529SOL     OW62502   9.634   6.698   1.324 -0.4267 -0.3438  0.1821
19529SOL    HW162503   9.716   6.739   1.298 -2.0763  1.0662 -3.7373
19529SOL    HW262504   9.641   6.608   1.292 -0.7961  0.1601 -1.4407
19530SOL     OW62505   1.906   6.695   1.801 -0.1204 -0.1769  0.4516
19530SOL    HW162506   1.873   6.750   1.729 -1.4816 -0.3473  0.9221
19530SOL    HW262507   1.890   6.747   1.880  0.8831 -0.2180  0.6937
19531SOL     OW62508   2.467   3.519   3.153  0.4129  0.0166 -0.3821
19531SOL    HW162509   2.533   3.463   3.194  0.0300 -0.1012  0.0721
19531SOL    HW262510   2.474   3.499   3.059 -0.2897 -1.4194 -0.1519
19532SOL     OW62511   6.260   8.120   1.339 -0.4611 -0.0843  0.3785
19532SOL    HW162512   6.235   8.084   1.424  1.9162  2.6652  2.4271
19532SOL    HW262513   6.285   8.211   1.356  3.5663 -0.3245 -2.4831
19533SOL     OW62514   6.372   7.029   3.987  0.2634  0.2372  0.1230
19533SOL    HW162515   6.331   6.985   3.912 -0.0607 -1.4174  1.2193
19533SOL    HW262516   6.384   6.960   4.052  0.4317  1.6500  1.6594
19534SOL     OW62517   9.268   9.558   3.739 -0.1128  0.2264  0.1229
19534SOL    HW162518   9.343   9.502   3.761  0.0375  0.5733  0.5254
19534SOL    HW262519   9.308   9.641   3.713 -0.3622  0.5730  0.8134
19535SOL     OW62520   0.181   2.129   8.416  0.1316  0.6150  0.0778
19535SOL    HW162521   0.149   2.089   8.336 -0.4774 -0.6037  0.8976
19535SOL    HW262522   0.275   2.113   8.415  0.0921  0.4001 -0.2817
19536SOL     OW62523   5.987   3.131   3.537  0.3168  0.1570 -0.4422
19536SOL    HW162524   5.992   3.047   3.491  0.9919 -1.4033  2.2240
19536SOL    HW262525   6.077   3.163   3.537  0.3778  0.0004 -0.0225
19537SOL     OW62526   6.810   8.858   3.710 -0.0875  0.1222 -0.3371
19537SOL    HW162527   6.740   8.803   3.675  0.3771  0.3978 -1.8020
19537SOL    HW262528   6.869   8.871   3.635  1.3216  0.2175  0.7599
19538SOL     OW62529   5.199   1.927   0.582  0.8819 -0.3149 -0.0944
19538SOL    HW162530   5.209   1.850   0.637  1.0713 -0.7881 -0.7742
19538SOL    HW262531   5.274   1.983   0.604 -0.8820  1.2012  2.7103
19539SOL     OW62532   3.915   3.402   9.737  0.4220  0.5534  0.5456
19539SOL    HW162533   3.959   3.458   9.673  1.3717  0.6893  1.3059
19539SOL    HW262534   3.863   3.342   9.683  0.9051  0.9091 -0.3448
19540SOL     OW62535   7.835   0.114   7.482 -0.1087  0.0502 -0.1246
19540SOL    HW162536   7.874   0.201   7.485  1.6933 -0.7172  2.6496
19540SOL    HW262537   7.906   0.057   7.451 -0.7381 -0.6583 -0.3032
19541SOL     OW62538   9.038   6.962   2.045 -0.4409  0.4963 -0.3331
19541SOL    HW162539   9.071   6.881   2.085  1.2250  0.9212 -0.7995
19541SOL    HW262540   8.984   6.932   1.972 -0.2465 -0.1960 -0.1986
19542SOL     OW62541   3.047   7.900   4.939  0.4824  0.0545 -0.0686
19542SOL    HW162542   3.084   7.829   4.992  0.4583 -0.9202 -1.3067
19542SOL    HW262543   2.964   7.921   4.982 -0.3942 -1.9570 -0.6699
19543SOL     OW62544   5.555   9.428   6.749 -0.3856 -0.5522  0.1058
19543SOL    HW162545   5.577   9.503   6.695 -0.6472 -0.1406  0.5697
19543SOL    HW262546   5.520   9.363   6.688  0.9196 -0.7425 -0.4686
19544SOL     OW62547   8.449   3.973   0.227 -0.0127 -0.9143 -0.1629
19544SOL    HW162548   8.450   4.006   0.137  0.5850  2.4042  0.9142
19544SOL    HW262549   8.531   3.925   0.237  2.7386  3.2246 -0.0860
19545SOL     OW62550   5.009   5.981   0.739 -0.1305  0.7611 -0.1248
19545SOL    HW162551   5.052   5.918   0.681  1.2931 -0.6808  2.3138
19545SOL    HW262552   5.031   6.067   0.702  0.5975 -0.0702 -1.7372
19546SOL     OW62553   4.281   3.548   0.656 -0.2722 -0.3032  0.1179
19546SOL    HW162554   4.237   3.598   0.724 -0.2430  0.0774 -0.1415
19546SOL    HW262555   4.374   3.561   0.673 -0.1685  2.4391 -1.8439
19547SOL     OW62556   6.327   6.693   3.552  0.1110  0.3181 -0.0185
19547SOL    HW162557   6.340   6.726   3.641 -0.6513  0.8576 -0.0991
19547SOL    HW262558   6.385   6.618   3.545 -0.4209 -0.2243  1.2088
19548SOL     OW62559   8.450   8.312   0.774 -0.1507  0.2767 -0.9617
19548SOL    HW162560   8.491   8.334   0.690 -0.7894  1.3628 -1.0150
19548SOL    HW262561   8.361   8.347   0.768 -0.4942 -0.4041 -0.1538
19549SOL     OW62562   9.990   7.954   6.790 -0.5683 -0.0704  0.3135
19549SOL    HW162563   9.985   7.914   6.877 -2.0652 -2.5200 -0.7984
19549SOL    HW262564  10.078   7.989   6.785 -0.5202  0.3937  2.8990
19550SOL     OW62565   8.839   7.227   9.231 -0.2042  0.3826 -0.4041
19550SOL    HW162566   8.811   7.299   9.287 -0.2381  0.6022 -0.7061
19550SOL    HW262567   8.915   7.260   9.184 -1.7539  1.1765 -2.5146
19551SOL     OW62568   6.181   1.697   9.707 -0.1879 -0.0086  0.2674
19551SOL    HW162569   6.177   1.785   9.745  1.4837  0.0484  0.4239
19551SOL    HW262570   6.095   1.660   9.721 -0.3612  0.9241  1.8988
19552SOL     OW62571   2.793   7.357   8.209  0.3192 -0.0422 -0.1151
19552SOL    HW162572   2.768   7.360   8.301  1.8615 -0.2116  0.3259
19552SOL    HW262573   2.888   7.353   8.209  0.3249 -1.1070 -1.6936
19553SOL     OW62574   7.849   2.718   4.477  0.2425 -0.0719  0.3885
19553SOL    HW162575   7.922   2.757   4.524 -1.0001  3.2302 -0.1587
19553SOL    HW262576   7.867   2.737   4.385 -2.1408  2.6853  0.3527
19554SOL     OW62577   8.192   7.806   7.295 -0.2049 -0.5776  0.1640
19554SOL    HW162578   8.243   7.884   7.319  2.3088 -2.0634  0.0655
19554SOL    HW262579   8.112   7.840   7.257  1.4190  2.0322 -1.2275
19555SOL     OW62580   1.512   7.179   4.955  0.3038 -0.1534 -0.2254
19555SOL    HW162581   1.502   7.116   4.884  0.2249  0.2437 -0.5778
19555SOL    HW262582   1.570   7.137   5.018  0.6390 -0.3852 -0.6848
19556SOL     OW62583   6.414   5.595   8.181 -0.1620  0.2822 -0.0926
19556SOL    HW162584   6.437   5.666   8.241 -0.7870  0.4931 -0.0978
19556SOL    HW262585   6.343   5.549   8.224 -0.9758  0.7509 -0.8980
19557SOL     OW62586   2.437   8.846   1.013 -0.8092 -0.0449  0.5091
19557SOL    HW162587   2.460   8.754   1.021 -0.9807  0.0131  1.8522
19557SOL    HW262588   2.521   8.892   1.016 -0.5916 -0.2090 -1.6700
19558SOL     OW62589   1.308   1.566   3.474  0.4449 -0.5010  0.4899
19558SOL    HW162590   1.363   1.582   3.397  3.3578 -1.5987  2.1379
19558SOL    HW262591   1.305   1.650   3.519 -1.5477  0.2287 -0.8971
19559SOL     OW62592   4.753   0.465   4.722 -0.4880 -0.0609 -0.0653
19559SOL    HW162593   4.702   0.405   4.669 -0.7933 -1.1447  1.3905
19559SOL    HW262594   4.826   0.491   4.666 -1.1808 -0.5855 -1.2426
19560SOL     OW62595   0.383   6.867   6.298 -0.7290  0.0910 -0.1734
19560SOL    HW162596   0.351   6.953   6.270 -0.8773  0.1666  0.2166
19560SOL    HW262597   0.398   6.819   6.217  0.2644  0.8061 -0.4320
19561SOL     OW62598   3.381   4.299   5.719  0.2923 -0.2984  0.5047
19561SOL    HW162599   3.452   4.249   5.760  0.3763 -0.0856  0.6231
19561SOL    HW262600   3.394   4.286   5.625  0.1943 -0.6578  0.5410
19562SOL     OW62601   1.851   8.941   9.001  0.0330 -0.3347  0.5190
19562SOL    HW162602   1.808   8.900   8.926  1.3708  1.0744 -1.1208
19562SOL    HW262603   1.781   8.990   9.045 -0.8036 -1.3301  0.3332
19563SOL     OW62604   7.934   5.433   2.311 -0.4813 -0.7640 -0.0208
19563SOL    HW162605   7.928   5.443   2.216  1.7798  1.8087 -0.0431
19563SOL    HW262606   7.887   5.509   2.346  1.6369  0.3360  0.6737
19564SOL     OW62607   8.131   9.733  10.092  0.2058 -0.0472 -0.6702
19564SOL    HW162608   8.038   9.712  10.099 -0.0974  0.0715 -3.2514
19564SOL    HW262609   8.138   9.824  10.123 -0.4573 -0.1865 -0.1038
19565SOL     OW62610   8.015   0.126   4.576  0.1036  0.1697 -0.2701
19565SOL    HW162611   8.037   0.210   4.616 -0.3306 -0.2093  0.7988
19565SOL    HW262612   7.933   0.142   4.531  0.1445  0.3827 -0.2711
19566SOL     OW62613   1.714   9.816   8.612 -0.0456  0.5238  0.3565
19566SOL    HW162614   1.743   9.787   8.526 -2.3201 -0.3036 -0.2147
19566SOL    HW262615   1.740   9.908   8.617  2.3304 -0.0620 -0.1393
19567SOL     OW62616  10.173   7.754   2.234  0.3311 -0.4359  0.2706
19567SOL    HW162617  10.223   7.822   2.189 -0.1550  0.1982  0.6661
19567SOL    HW262618  10.186   7.676   2.181  0.9686 -0.0573 -0.1478
19568SOL     OW62619   8.649   9.210   4.374  0.2920  0.5990  0.6407
19568SOL    HW162620   8.673   9.276   4.308  0.4352 -1.7454 -1.8341
19568SOL    HW262621   8.729   9.198   4.426  1.3476  0.0771 -1.0278
19569SOL     OW62622   4.770   8.780   4.942  0.3943  0.1380 -0.1893
19569SOL    HW162623   4.766   8.777   5.037 -0.6237 -3.0509 -0.2094
19569SOL    HW262624   4.849   8.732   4.919  0.0933 -0.0191 -0.9404
19570SOL     OW62625   4.589   4.106   5.406 -0.0862  0.3515  0.9278
19570SOL    HW162626   4.670   4.121   5.454 -0.9341  0.5011  2.3646
19570SOL    HW262627   4.612   4.042   5.339  0.9475 -0.5615  2.1093
19571SOL     OW62628   5.650   9.242   1.770  0.6038 -0.0871  0.3098
19571SOL    HW162629   5.667   9.324   1.816 -2.5201 -0.2905  2.0941
19571SOL    HW262630   5.704   9.177   1.815  2.6171  0.7737 -0.7159
19572SOL     OW62631   2.138   7.967   6.985 -0.3594 -0.0312  0.1561
19572SOL    HW162632   2.071   7.997   6.924 -0.3835 -2.1848 -0.9555
19572SOL    HW262633   2.090   7.947   7.065 -0.8381 -0.2172 -0.1736
19573SOL     OW62634   4.765   6.677   8.229 -0.0735  0.1644 -0.6372
19573SOL    HW162635   4.686   6.663   8.178  0.1017  2.0169 -1.4763
19573SOL    HW262636   4.768   6.772   8.243  1.0145 -0.0716  0.9999
19574SOL     OW62637   8.837   5.268   2.197  0.1985  0.2611 -0.0714
19574SOL    HW162638   8.823   5.195   2.258 -1.6940  0.8759  0.2878
19574SOL    HW262639   8.908   5.238   2.140  0.0977 -1.4862  0.6539
19575SOL     OW62640   5.541   4.629   4.832 -0.1579  0.0888  0.1576
19575SOL    HW162641   5.485   4.580   4.892 -0.0778  0.9984  1.0024
19575SOL    HW262642   5.479   4.677   4.776 -0.2431 -1.1790 -0.8911
19576SOL     OW62643   6.386   8.077   5.850  0.0812 -0.4374 -0.1962
19576SOL    HW162644   6.462   8.064   5.794  1.2867 -1.8156  1.6375
19576SOL    HW262645   6.406   8.155   5.901  0.0935 -0.5721  0.0090
19577SOL     OW62646   1.523   6.915   6.226 -0.3335 -0.1115 -0.8163
19577SOL    HW162647   1.522   6.900   6.320 -2.0529  1.3052 -0.5648
19577SOL    HW262648   1.432   6.905   6.199  0.3121 -1.8189 -2.5965
19578SOL     OW62649   1.743   6.248   5.946 -0.0437 -0.2202 -0.4383
19578SOL    HW162650   1.693   6.256   5.865  0.0249 -2.5968 -0.7881
19578SOL    HW262651   1.835   6.257   5.918 -0.0956  3.3485  0.0926
19579SOL     OW62652   1.390   7.241   1.375 -0.1955  0.2943  0.0195
19579SOL    HW162653   1.332   7.251   1.451  1.4208  0.5937  1.2660
19579SOL    HW262654   1.420   7.150   1.380 -1.7267 -0.3691 -1.5546
19580SOL     OW62655   4.844   6.066   3.887 -0.3472  0.2095  0.3046
19580SOL    HW162656   4.783   6.139   3.882 -0.6124  0.0102  0.5833
19580SOL    HW262657   4.832   6.030   3.975  0.3932  0.3586  0.4750
19581SOL     OW62658   7.653   9.414   1.550  0.2035  0.1900  0.0189
19581SOL    HW162659   7.666   9.484   1.486 -1.8641 -0.1060 -0.8158
19581SOL    HW262660   7.607   9.346   1.501  1.2069 -1.3261  1.0931
19582SOL     OW62661   9.300   6.454   1.564 -0.2972 -0.0451  0.2575
19582SOL    HW162662   9.345   6.533   1.535  0.6357 -0.8851 -0.6890
19582SOL    HW262663   9.266   6.475   1.651 -0.3336  1.4837 -0.1099
19583SOL     OW62664   2.023   4.175   9.851 -0.0790  0.2592 -0.5009
19583SOL    HW162665   1.949   4.116   9.866  0.1300 -0.0306 -0.5991
19583SOL    HW262666   1.997   4.257   9.893 -1.5573  1.0173 -2.6978
19584SOL     OW62667   6.895   9.346   6.613 -0.4581 -0.4478 -0.7336
19584SOL    HW162668   6.977   9.296   6.624 -0.1231 -0.0320 -1.3066
19584SOL    HW262669   6.897   9.377   6.523 -1.9292 -1.6031 -1.1980
19585SOL     OW62670   1.748   6.653   7.416 -0.3102 -0.4198 -0.3863
19585SOL    HW162671   1.721   6.737   7.454  1.3719  0.1113 -0.2785
19585SOL    HW262672   1.827   6.674   7.366  0.6294 -2.0823  0.3440
19586SOL     OW62673   5.532   6.612   7.290  0.2175 -0.2593  0.2227
19586SOL    HW162674   5.512   6.526   7.327  2.2543 -0.5367  0.7759
19586SOL    HW262675   5.601   6.647   7.346  0.2780  1.2278 -0.7288
19587SOL     OW62676   7.906   7.042   9.534 -0.4865  0.0596 -0.0287
19587SOL    HW162677   7.909   6.947   9.536 -0.2791  0.0721  0.4829
19587SOL    HW262678   7.953   7.069   9.613 -1.6973  0.5672  0.5323
19588SOL     OW62679   9.261   5.602   2.278 -0.1804  0.1459 -0.1329
19588SOL    HW162680   9.183   5.658   2.287 -0.0068  0.1933  1.4100
19588SOL    HW262681   9.270   5.588   2.184 -1.3647  1.1191 -0.4188
19589SOL     OW62682   7.890   1.685   7.910 -0.2252  0.4277 -0.1057
19589SOL    HW162683   7.807   1.644   7.888  0.0441 -1.3850  1.9875
19589SOL    HW262684   7.956   1.627   7.871  0.1041  0.1870  0.7931
19590SOL     OW62685   7.420   4.640   6.348  0.4406  0.5856 -0.1797
19590SOL    HW162686   7.373   4.601   6.273  1.6123  1.1412 -1.2359
19590SOL    HW262687   7.395   4.585   6.422 -1.0728  0.2548 -0.8831
19591SOL     OW62688   0.342   8.177   7.720 -0.0682  0.2307 -0.0703
19591SOL    HW162689   0.264   8.178   7.665 -0.7429 -1.3935  0.8070
19591SOL    HW262690   0.332   8.254   7.776 -0.6771  0.4382 -0.4531
19592SOL     OW62691   7.132   3.640   5.804 -0.1945  0.0413  0.2526
19592SOL    HW162692   7.043   3.667   5.781 -0.4764 -0.7377  0.3878
19592SOL    HW262693   7.189   3.697   5.752 -0.7743  0.3610 -0.0408
19593SOL     OW62694   7.555   1.575   0.044  0.6516 -0.2112  0.4337
19593SOL    HW162695   7.550   1.557   0.138  0.6321 -1.8579  0.1442
19593SOL    HW262696   7.582   1.492   0.005  3.3758  1.0846 -0.7609
19594SOL     OW62697   2.814   6.069   5.477 -1.0306  0.3502 -0.1519
19594SOL    HW162698   2.828   5.980   5.444 -1.2930 -0.1929  1.1346
19594SOL    HW262699   2.879   6.122   5.431 -1.7196 -0.2433 -1.9189
19595SOL     OW62700   8.977   9.611   1.897 -0.2870 -0.0686 -0.3689
19595SOL    HW162701   8.909   9.637   1.960  0.4180  0.6994  0.0948
19595SOL    HW262702   9.010   9.527   1.929 -2.9249 -1.9577 -2.1442
19596SOL     OW62703   4.444   8.613   0.835 -0.7117 -0.3516 -0.1146
19596SOL    HW162704   4.373   8.661   0.877 -0.6645 -0.7160  0.3899
19596SOL    HW262705   4.500   8.584   0.907 -0.6116 -0.9504 -0.4221
19597SOL     OW62706   6.803   0.217   0.372  0.0511 -0.2850 -0.7476
19597SOL    HW162707   6.881   0.172   0.340  0.1013 -0.9153  0.2279
19597SOL    HW262708   6.730   0.162   0.343  0.1590 -1.6964  1.4066
19598SOL     OW62709   4.175   4.568   8.150  0.4416  0.0886  0.1001
19598SOL    HW162710   4.188   4.653   8.191 -0.8037  0.4604 -0.2295
19598SOL    HW262711   4.187   4.584   8.057 -0.4901  0.0599 -0.0293
19599SOL     OW62712   3.690   3.801   4.684  0.5217 -0.5007  0.2251
19599SOL    HW162713   3.611   3.849   4.657  0.7364  0.4978  1.2646
19599SOL    HW262714   3.753   3.870   4.707  0.5920 -1.2406  2.5039
19600SOL     OW62715   8.729   7.509   7.897  0.6223 -0.2641 -0.3588
19600SOL    HW162716   8.696   7.483   7.984 -1.7881  0.4453 -0.9872
19600SOL    HW262717   8.655   7.554   7.856  1.4762 -1.1564 -3.0592
19601SOL     OW62718   5.974   9.944   7.467  0.1784 -1.1297  0.3130
19601SOL    HW162719   5.940   9.972   7.552 -1.7653 -1.4483 -0.3133
19601SOL    HW262720   5.980  10.025   7.416 -1.4335 -1.2620 -0.1431
19602SOL     OW62721   5.792   1.130   9.395 -0.5338  0.8705 -0.1145
19602SOL    HW162722   5.740   1.149   9.473  2.1132  0.9862  1.7284
19602SOL    HW262723   5.790   1.034   9.388 -4.6189  0.8581 -2.8625
19603SOL     OW62724   4.736   4.164   3.627  0.5017  0.2384  0.3567
19603SOL    HW162725   4.692   4.085   3.659  0.0292  0.5115  0.3910
19603SOL    HW262726   4.810   4.175   3.686  0.4049 -0.0192  0.5314
19604SOL     OW62727   1.388   3.250   0.295  0.1955 -0.2534  0.3695
19604SOL    HW162728   1.432   3.298   0.225 -0.9695  0.2523 -0.0519
19604SOL    HW262729   1.328   3.191   0.249  0.5353 -1.0360  0.9184
19605SOL     OW62730   6.314   9.162   3.892 -0.2991 -0.1343  0.0066
19605SOL    HW162731   6.307   9.169   3.796 -1.2572  0.1238  0.0904
19605SOL    HW262732   6.361   9.241   3.918 -1.4346  0.5967 -0.1065
19606SOL     OW62733   2.726   3.931   6.265  0.1769  0.4825  0.3693
19606SOL    HW162734   2.672   3.980   6.203  0.2759 -0.5079 -0.5387
19606SOL    HW262735   2.780   3.874   6.210  2.2238  1.4691  1.2361
19607SOL     OW62736   4.623   2.135   0.055  0.0780 -0.6638 -0.4522
19607SOL    HW162737   4.628   2.135   0.151  1.9076  2.9812 -0.3696
19607SOL    HW262738   4.685   2.067   0.028  1.4027 -0.1133  1.0247
19608SOL     OW62739   1.216   4.031   7.666  0.6357  0.0975 -0.2204
19608SOL    HW162740   1.136   4.003   7.710 -0.5628  1.4631 -1.4271
19608SOL    HW262741   1.222   3.974   7.589  1.0961 -0.3194  0.1199
19609SOL     OW62742   4.102   3.044   0.778 -0.0172  0.2681  0.3770
19609SOL    HW162743   4.091   3.138   0.766 -1.3468  0.2127  1.0752
19609SOL    HW262744   4.182   3.024   0.729  0.7030  1.8732  0.8149
19610SOL     OW62745   1.907   6.390   0.485 -0.0257 -0.5117  0.1365
19610SOL    HW162746   1.839   6.364   0.548  1.0196 -1.2242  1.0062
19610SOL    HW262747   1.969   6.317   0.485  1.4876  0.7179  0.4699
19611SOL     OW62748   4.428   8.997   0.294  0.0165  0.8841  0.5323
19611SOL    HW162749   4.482   9.042   0.359  1.6685 -0.6993  0.3403
19611SOL    HW262750   4.431   8.905   0.319  0.9925  0.1629 -1.9163
19612SOL     OW62751   7.788   6.044   4.472  0.1828 -0.2600  0.1526
19612SOL    HW162752   7.862   6.090   4.512  1.4016 -1.0480 -1.1311
19612SOL    HW262753   7.812   5.952   4.475  0.0805 -0.3893 -1.8733
19613SOL     OW62754   1.984   3.913   3.315  0.1752  0.6370 -0.3087
19613SOL    HW162755   1.940   3.872   3.240  0.9215  0.2998 -0.5673
19613SOL    HW262756   2.034   3.843   3.356  3.1767  1.6263 -1.9904
19614SOL     OW62757   6.780   7.692   8.963  0.0685 -0.7108  0.3282
19614SOL    HW162758   6.840   7.626   8.927  0.4642  1.3414 -3.2015
19614SOL    HW262759   6.703   7.689   8.905 -1.4294 -0.3617  2.1966
19615SOL     OW62760   3.639   8.742   5.327  0.4444 -0.1449  0.0936
19615SOL    HW162761   3.565   8.682   5.340  0.1735  0.0174 -0.6359
19615SOL    HW262762   3.709   8.687   5.292  0.2462 -0.0766 -0.4277
19616SOL     OW62763   9.972   9.581   4.722 -0.1358 -0.0489 -0.0246
19616SOL    HW162764   9.969   9.519   4.649 -2.2910 -0.0271 -0.0278
19616SOL    HW262765   9.953   9.528   4.799 -1.9939  0.5353 -0.0272
19617SOL     OW62766   6.412   7.648   7.929 -0.4783  0.4687  0.1029
19617SOL    HW162767   6.326   7.615   7.904 -0.9217  0.1265  1.9522
19617SOL    HW262768   6.446   7.583   7.990  1.1754  0.5386 -0.6814
19618SOL     OW62769   9.153   2.605   9.098  0.3272  0.1307  0.3030
19618SOL    HW162770   9.091   2.535   9.115  0.5326 -0.1039  0.1043
19618SOL    HW262771   9.099   2.681   9.076  0.0971  0.1005  0.7478
19619SOL     OW62772   4.928   4.157   8.700 -0.0973  0.3678  0.3521
19619SOL    HW162773   4.875   4.195   8.770 -0.0581  1.0797  0.0087
19619SOL    HW262774   5.017   4.189   8.717 -0.1682  0.9228 -0.2698
19620SOL     OW62775   6.527   7.408   0.225  0.0635 -0.1525  0.1331
19620SOL    HW162776   6.527   7.456   0.142  0.8102  2.9664  1.8006
19620SOL    HW262777   6.613   7.368   0.229 -0.3274 -1.1899 -0.9742
19621SOL     OW62778   4.205   8.127   7.845  0.6405  0.4449 -0.0133
19621SOL    HW162779   4.150   8.198   7.810  0.6574  0.2221 -0.5023
19621SOL    HW262780   4.283   8.171   7.878  1.0389  0.5870 -1.0917
19622SOL     OW62781   3.712   3.262   4.329  0.1076  0.2231  0.5776
19622SOL    HW162782   3.805   3.272   4.310 -0.3703  2.3827 -1.0260
19622SOL    HW262783   3.710   3.206   4.407  2.5945 -2.0079 -0.7843
19623SOL     OW62784   9.601   2.596   7.900  0.3515  0.3725  0.0994
19623SOL    HW162785   9.522   2.575   7.949  0.6178 -0.1883  0.2967
19623SOL    HW262786   9.590   2.551   7.816  1.1554 -1.0415  0.7167
19624SOL     OW62787   8.937   5.326   5.349  0.0180 -0.2051 -0.3117
19624SOL    HW162788   8.981   5.241   5.343 -0.3099 -0.3454 -0.8010
19624SOL    HW262789   8.997   5.387   5.308  0.0240 -0.2961 -0.4408
19625SOL     OW62790   6.010   2.758   5.891 -0.3386  0.0921  0.0996
19625SOL    HW162791   5.952   2.746   5.816  1.3798 -1.2057 -1.0989
19625SOL    HW262792   6.000   2.679   5.943  0.7697 -0.4455 -0.4590
19626SOL     OW62793   6.714   3.375   0.463  0.1980 -0.0486  0.1675
19626SOL    HW162794   6.704   3.464   0.498 -0.5184 -0.5924  1.4042
19626SOL    HW262795   6.669   3.377   0.378 -1.1101  0.3887  0.8500
19627SOL     OW62796   8.481   2.246   1.633  0.2562  0.2698  0.2704
19627SOL    HW162797   8.511   2.227   1.544  0.3097 -0.9841  0.5373
19627SOL    HW262798   8.413   2.181   1.650  1.0512 -0.2603  1.5527
19628SOL     OW62799   5.808   0.031   5.672  0.0439 -0.1315  0.3370
19628SOL    HW162800   5.862   0.109   5.661  0.0075 -0.2569 -0.7900
19628SOL    HW262801   5.851  -0.018   5.743  0.2810  0.7132  0.7935
19629SOL     OW62802   2.348   2.216   3.997  0.0968  0.3830 -0.0385
19629SOL    HW162803   2.267   2.175   3.967  0.2490  1.2938 -1.8282
19629SOL    HW262804   2.349   2.302   3.956  1.0211  1.2016  1.5760
19630SOL     OW62805   6.065   5.844   5.523  0.1917  0.3636 -0.1142
19630SOL    HW162806   6.019   5.877   5.601 -1.1878 -0.7329 -0.4226
19630SOL    HW262807   6.017   5.766   5.498  1.8561 -0.4607 -0.8951
19631SOL     OW62808   5.551   6.250   4.867 -0.4639 -0.1558  0.4193
19631SOL    HW162809   5.543   6.203   4.784 -0.4160  0.1638  0.2322
19631SOL    HW262810   5.495   6.327   4.857 -1.3099 -0.6669  1.0908
19632SOL     OW62811   5.635   8.292   4.188 -0.5624  0.5332 -0.0413
19632SOL    HW162812   5.633   8.350   4.264  1.6764  1.8811 -0.9146
19632SOL    HW262813   5.552   8.309   4.143 -1.1321  1.0349  1.1681
19633SOL     OW62814   2.770   7.649   5.322 -0.3298 -0.3985 -0.0668
19633SOL    HW162815   2.747   7.580   5.385 -2.1699 -0.4488 -0.7591
19633SOL    HW262816   2.764   7.606   5.237  1.1234 -0.0473 -0.3760
19634SOL     OW62817   4.474   5.647   1.971  0.0777 -0.0599 -0.2448
19634SOL    HW162818   4.435   5.646   2.058  0.5306  2.2002  0.0488
19634SOL    HW262819   4.568   5.645   1.987  0.1749 -1.6537 -0.8053
19635SOL     OW62820   9.759   7.663   0.929 -0.2354 -0.6910  0.5478
19635SOL    HW162821   9.665   7.678   0.919 -0.2700  0.0247  1.7529
19635SOL    HW262822   9.786   7.721   1.000  0.9782 -1.4262  0.7354
19636SOL     OW62823   3.729   2.294   1.697  0.5495  0.0987  0.2085
19636SOL    HW162824   3.741   2.216   1.642 -0.1642  0.6165 -0.7158
19636SOL    HW262825   3.634   2.303   1.706  0.5998  1.1271 -0.1168
19637SOL     OW62826   0.993   0.298   2.083 -0.2118  0.2175 -0.1452
19637SOL    HW162827   1.023   0.301   1.992  0.0273 -1.1813 -0.1223
19637SOL    HW262828   0.958   0.210   2.094  0.4561  0.1168  1.3500
19638SOL     OW62829   6.073   3.946   2.342  0.2081  0.0329  0.2598
19638SOL    HW162830   6.049   4.007   2.272  0.2533  0.8310  0.9356
19638SOL    HW262831   6.137   3.992   2.395 -0.9337  0.0407  1.7156
19639SOL     OW62832   9.127   2.204   7.285  0.3505  0.4424  0.0481
19639SOL    HW162833   9.193   2.268   7.312 -0.7171  1.2825  0.7747
19639SOL    HW262834   9.140   2.194   7.191  0.3530  1.9883 -0.1439
19640SOL     OW62835   3.928   9.860   2.665  0.4045  0.2802 -0.1914
19640SOL    HW162836   3.838   9.890   2.678  0.4711  1.4586 -2.0863
19640SOL    HW262837   3.951   9.816   2.747 -1.2272  1.6444  1.0699
19641SOL     OW62838   7.306   6.917   6.103 -0.6074  0.1584 -0.1931
19641SOL    HW162839   7.389   6.872   6.122  0.3581  1.8131 -0.3289
19641SOL    HW262840   7.305   6.991   6.163 -2.2411 -0.0865  0.1215
19642SOL     OW62841   7.099   6.999   1.468  0.2020  0.8240 -0.1333
19642SOL    HW162842   7.021   7.000   1.523 -0.0244  3.1826 -0.4224
19642SOL    HW262843   7.146   6.920   1.494 -0.6266  1.0908  2.3776
19643SOL     OW62844   2.181   4.530   4.502 -0.0643  0.1917  0.1379
19643SOL    HW162845   2.087   4.523   4.484 -0.4240  0.6765  1.6723
19643SOL    HW262846   2.223   4.503   4.420 -1.5155 -1.2401 -0.1947
19644SOL     OW62847   1.334   2.720   7.006  0.1110  0.2262  0.4887
19644SOL    HW162848   1.274   2.672   6.949  0.4590 -1.6512  1.6052
19644SOL    HW262849   1.422   2.696   6.973  0.2867  1.1346  0.2774
19645SOL     OW62850   7.714   8.823   0.468  0.6206  0.5817 -0.6485
19645SOL    HW162851   7.638   8.767   0.483  0.0492  1.1822 -1.1855
19645SOL    HW262852   7.687   8.880   0.395  1.1082  1.6533 -0.0135
19646SOL     OW62853   6.539   0.415   1.507  0.4808  0.2159 -0.1440
19646SOL    HW162854   6.497   0.430   1.591  0.4983  1.7086 -0.3747
19646SOL    HW262855   6.630   0.442   1.520  0.4566  0.5694 -0.6665
19647SOL     OW62856   5.533   2.659   3.973  0.4640  0.1458 -0.0330
19647SOL    HW162857   5.608   2.608   4.003  1.8785  1.9872 -0.2428
19647SOL    HW262858   5.491   2.604   3.907  1.9014 -0.7481 -0.2453
19648SOL     OW62859   4.981   1.746   8.879  0.4916  0.7437  0.1888
19648SOL    HW162860   4.887   1.745   8.861  0.5768 -0.7599 -0.3080
19648SOL    HW262861   4.989   1.711   8.967  0.6181  0.3293  0.0141
19649SOL     OW62862   0.652   0.895   4.435 -0.0534  0.0750 -0.6549
19649SOL    HW162863   0.737   0.850   4.431  1.0936  2.0509 -0.0099
19649SOL    HW262864   0.662   0.968   4.374 -0.6633  1.2905  0.6576
19650SOL     OW62865   0.842   0.393   6.600  0.4178  0.0214 -0.8277
19650SOL    HW162866   0.779   0.326   6.625  0.5017 -0.1622 -1.0958
19650SOL    HW262867   0.921   0.344   6.575  0.6107  0.2396 -0.6488
19651SOL     OW62868   4.991   3.783   4.992  0.1534  0.3344  0.2326
19651SOL    HW162869   5.040   3.854   4.950  0.5440  0.5320  1.0020
19651SOL    HW262870   4.907   3.781   4.947  0.8930 -0.0827 -1.2024
19652SOL     OW62871   4.254   0.124   5.110 -0.1483  0.4309 -0.0380
19652SOL    HW162872   4.339   0.163   5.130  0.0030  0.4201 -0.6630
19652SOL    HW262873   4.266   0.081   5.026 -0.1801 -1.3647  0.8285
19653SOL     OW62874  10.063   6.873   8.132  0.3723 -0.3199  0.6430
19653SOL    HW162875  10.111   6.885   8.214 -0.6370  2.6989  0.9173
19653SOL    HW262876  10.092   6.946   8.077 -0.9716 -0.7123 -0.6429
19654SOL     OW62877   0.794   8.024   2.398 -0.2448  0.0002 -0.1562
19654SOL    HW162878   0.706   7.999   2.368  0.3443  0.1293 -2.1603
19654SOL    HW262879   0.795   8.119   2.391 -0.3524  0.1046  1.1222
19655SOL     OW62880   4.100   9.894   7.760  0.0416  0.0113 -0.5159
19655SOL    HW162881   4.089   9.988   7.774  1.1028  0.4805 -2.4827
19655SOL    HW262882   4.173   9.887   7.698 -0.6707 -2.0647 -1.2133
19656SOL     OW62883   8.698   7.047   3.415  0.0106  0.0842 -0.4421
19656SOL    HW162884   8.769   7.092   3.368  1.5831 -0.7354  1.0460
19656SOL    HW262885   8.707   6.956   3.389  0.2548 -0.2076  0.6094
19657SOL     OW62886   5.494  10.008   8.472 -0.2275 -0.1309 -0.3400
19657SOL    HW162887   5.405   9.988   8.443 -0.2975 -0.9105  0.3542
19657SOL    HW262888   5.551   9.964   8.409 -0.3787 -2.2150  0.8496
19658SOL     OW62889   8.058   7.245   6.773 -0.4919  0.3615 -0.2072
19658SOL    HW162890   8.115   7.315   6.806  0.9754 -0.9803  0.2789
19658SOL    HW262891   8.103   7.213   6.695  0.3314 -1.7709  1.0689
19659SOL     OW62892   5.454   0.430   7.988  0.3796  0.3291  0.2979
19659SOL    HW162893   5.437   0.480   7.908  1.7512 -0.1559 -0.3264
19659SOL    HW262894   5.413   0.345   7.972  0.9952  0.0940 -0.0749
19660SOL     OW62895   8.673   8.820   3.514 -0.4259 -0.3607  0.1753
19660SOL    HW162896   8.617   8.878   3.462  0.1628  0.8363  0.8343
19660SOL    HW262897   8.670   8.857   3.602 -0.6022 -1.7752  0.7889
19661SOL     OW62898   1.280   4.047   8.096  0.5488 -0.6670  0.3391
19661SOL    HW162899   1.359   4.005   8.062  0.6483 -0.2524  0.0555
19661SOL    HW262900   1.213   4.032   8.030 -0.1205 -2.5657  1.3604
19662SOL     OW62901   9.962   7.886   4.278 -0.4085 -0.3615  0.2088
19662SOL    HW162902  10.052   7.911   4.298  0.1272 -0.9055 -1.3573
19662SOL    HW262903   9.913   7.968   4.278 -0.1248 -0.1672  2.0084
19663SOL     OW62904   4.513   3.694   4.558  0.4761  0.3119 -0.3086
19663SOL    HW162905   4.584   3.635   4.531  1.4439  1.0295  0.5827
19663SOL    HW262906   4.489   3.664   4.646  0.4201  0.7297 -0.1786
19664SOL     OW62907   3.735   1.375   7.305  0.1451 -0.0089 -0.1873
19664SOL    HW162908   3.645   1.357   7.331  0.4738 -2.5112 -0.5292
19664SOL    HW262909   3.727   1.440   7.234 -1.5436 -1.4136 -1.3800
19665SOL     OW62910   0.645   1.138   1.886 -0.1233  0.1100  0.0818
19665SOL    HW162911   0.579   1.143   1.956 -0.8505  1.8438 -0.6719
19665SOL    HW262912   0.595   1.148   1.805  0.7753 -1.2995 -0.6953
19666SOL     OW62913   2.710   7.769   2.032  0.4535  0.2414  0.1099
19666SOL    HW162914   2.796   7.764   2.074  0.4436  1.0492  0.2329
19666SOL    HW262915   2.690   7.862   2.028 -0.9727  0.0214  1.2132
19667SOL     OW62916   7.491   6.715   9.668 -0.0436  0.3639  0.1944
19667SOL    HW162917   7.433   6.743   9.597  0.4176  2.4915  0.5782
19667SOL    HW262918   7.572   6.765   9.655  1.2097 -1.4737  0.5011
19668SOL     OW62919  10.174   8.844   4.510 -0.1351 -0.7281  0.5437
19668SOL    HW162920  10.263   8.842   4.545  1.1417 -3.0650 -2.3101
19668SOL    HW262921  10.126   8.778   4.561  0.6154 -1.4454  0.3490
19669SOL     OW62922   6.951   9.311   0.611 -0.0350  0.3246 -0.4302
19669SOL    HW162923   6.979   9.402   0.624  0.3718  0.3892 -1.6297
19669SOL    HW262924   6.857   9.312   0.628  0.0485  0.8813 -0.0005
19670SOL     OW62925   1.893   8.491   2.973  0.2938 -0.1981  0.0679
19670SOL    HW162926   1.898   8.448   2.888 -1.3497 -3.4060  1.4328
19670SOL    HW262927   1.979   8.475   3.013  0.8679  0.8250 -0.6983
19671SOL     OW62928   3.832   0.303   8.439  0.3824  0.1081 -0.3378
19671SOL    HW162929   3.828   0.393   8.408  0.0309  0.5083  0.8110
19671SOL    HW262930   3.741   0.278   8.456  0.5864  0.1179  0.8871
19672SOL     OW62931   9.897   9.792   8.286  0.1120 -0.7758 -0.4856
19672SOL    HW162932   9.943   9.849   8.225 -0.8546  1.1476  0.5100
19672SOL    HW262933   9.812   9.776   8.245 -0.7323  0.9269  0.5069
19673SOL     OW62934   9.164   8.659   4.350  0.7902 -0.2327  0.2757
19673SOL    HW162935   9.249   8.664   4.394  0.6602 -1.5422  0.7105
19673SOL    HW262936   9.176   8.592   4.283 -0.1286 -0.9961  0.8595
19674SOL     OW62937   5.490   1.166   0.849  0.3466  0.1148 -0.2731
19674SOL    HW162938   5.516   1.214   0.927 -1.6240  0.0333  0.4854
19674SOL    HW262939   5.454   1.232   0.790 -2.3440 -0.3203  0.7619
19675SOL     OW62940   2.960   9.530   4.806 -0.2833  0.0959 -0.2584
19675SOL    HW162941   2.991   9.509   4.718 -1.9934 -1.1854 -0.6151
19675SOL    HW262942   3.032   9.507   4.864  0.6271  0.3544 -1.2626
19676SOL     OW62943   4.479   4.525   3.545 -0.4859 -1.2059  0.6940
19676SOL    HW162944   4.433   4.452   3.505 -0.8159 -1.0312  0.7515
19676SOL    HW262945   4.567   4.522   3.506 -0.9857 -0.6450 -0.5451
19677SOL     OW62946   1.013   9.809   2.743 -0.1544  0.0735  0.0321
19677SOL    HW162947   0.952   9.871   2.783  0.7189  0.6768  0.4909
19677SOL    HW262948   1.046   9.854   2.665 -1.6040 -0.9690 -1.2252
19678SOL     OW62949   0.110   8.886   9.357  0.0847 -0.4539  0.0675
19678SOL    HW162950   0.089   8.980   9.357 -2.9155 -0.9635 -2.2739
19678SOL    HW262951   0.136   8.867   9.447 -2.7893  1.9540  1.5719
19679SOL     OW62952   7.582   2.843   3.897 -0.4089  0.0241  0.0187
19679SOL    HW162953   7.560   2.902   3.824 -0.7702  0.7457  0.6937
19679SOL    HW262954   7.498   2.818   3.934 -0.2877 -1.3061 -0.5278
19680SOL     OW62955   3.269   4.582   2.566 -0.2247  0.2594 -0.1071
19680SOL    HW162956   3.311   4.571   2.481  0.7054  0.9481  0.2436
19680SOL    HW262957   3.232   4.496   2.587  1.0148 -0.3716 -0.4297
19681SOL     OW62958   5.226   7.950   2.708 -0.2817  0.1389  0.6558
19681SOL    HW162959   5.307   7.903   2.689 -1.3303 -1.1639 -0.8092
19681SOL    HW262960   5.174   7.888   2.759 -0.7147  0.6340  0.8258
19682SOL     OW62961  10.189   0.618   6.501 -0.2861 -0.2307  0.8576
19682SOL    HW162962  10.256   0.676   6.537  0.8287 -1.3734  0.6956
19682SOL    HW262963  10.182   0.547   6.565 -0.7397 -0.5570  0.4537
19683SOL     OW62964   7.123   2.387   3.665 -0.2601  0.1209 -0.4827
19683SOL    HW162965   7.035   2.364   3.635 -0.1376  0.6785 -1.3094
19683SOL    HW262966   7.178   2.378   3.588 -0.0059  1.9834 -0.5645
19684SOL     OW62967   5.118   5.311   5.307 -0.3104 -0.4782 -0.4064
19684SOL    HW162968   5.203   5.272   5.288  0.0860 -0.2048  0.7481
19684SOL    HW262969   5.110   5.305   5.402 -0.8371  1.0497 -0.3348
19685SOL     OW62970   9.216   8.555   6.506  0.4418  0.1661  0.6543
19685SOL    HW162971   9.135   8.553   6.556  0.1017  0.6770  0.1418
19685SOL    HW262972   9.279   8.600   6.563 -0.0962  1.2495  0.4167
19686SOL     OW62973  10.137   7.154   2.522  0.1192 -0.0430 -0.2097
19686SOL    HW162974  10.096   7.235   2.553  0.9439  0.7487 -1.1239
19686SOL    HW262975  10.139   7.097   2.599 -0.0465  0.9711  0.5661
19687SOL     OW62976   4.977   5.342   5.808  0.0412 -0.2800  0.7436
19687SOL    HW162977   5.027   5.291   5.745 -0.4052 -0.0904  0.2362
19687SOL    HW262978   4.887   5.336   5.778 -0.3106 -0.9588  1.8822
19688SOL     OW62979   9.372   9.446   6.701  0.1886 -0.2278  0.8452
19688SOL    HW162980   9.316   9.423   6.775  0.3210  1.2249  1.4406
19688SOL    HW262981   9.399   9.362   6.663 -1.9142 -0.9841  0.8823
19689SOL     OW62982   2.841  10.196   9.705 -0.3055  0.2432  0.2057
19689SOL    HW162983   2.865  10.166   9.793  0.1904 -0.4961 -0.1707
19689SOL    HW262984   2.746  10.187   9.702 -0.2634 -0.3419  0.4540
19690SOL     OW62985   2.844   2.099   8.041  0.3530  0.1683 -0.2003
19690SOL    HW162986   2.751   2.110   8.062  0.3469  0.0084 -0.1420
19690SOL    HW262987   2.852   2.133   7.952  0.7963  2.8528  0.8001
19691SOL     OW62988   5.073   5.424   7.232  0.0345  0.3672 -0.1211
19691SOL    HW162989   5.155   5.376   7.216 -0.2478 -0.5000  0.9084
19691SOL    HW262990   5.004   5.365   7.201 -0.2053  1.3429 -1.5436
19692SOL     OW62991   4.411   0.847   5.987  0.6870  0.0860  0.5078
19692SOL    HW162992   4.458   0.787   6.044  0.8714 -0.5217 -0.2540
19692SOL    HW262993   4.433   0.934   6.018  1.0752 -0.2282  1.1190
19693SOL     OW62994   6.764   9.945   3.285 -0.2215  0.1811 -0.3266
19693SOL    HW162995   6.776   9.853   3.307  0.8153  0.4630  0.3312
19693SOL    HW262996   6.753   9.989   3.369  2.6181  1.1047 -0.3405
19694SOL     OW62997   3.317   6.708   6.763  0.5464 -0.1198 -0.0767
19694SOL    HW162998   3.259   6.652   6.815  0.4987 -0.3981 -0.4192
19694SOL    HW262999   3.295   6.797   6.790  1.1259 -0.2954  0.9881
19695SOL     OW63000   7.294   7.696   3.191 -0.2528 -0.2122  0.3295
19695SOL    HW163001   7.327   7.653   3.113  0.0492  0.5810  0.0079
19695SOL    HW263002   7.315   7.789   3.178 -2.3800  0.3065  0.2316
19696SOL     OW63003   1.461   9.731   9.360  0.0446 -0.2664 -0.0729
19696SOL    HW163004   1.454   9.705   9.268  2.1313 -0.9854 -0.0814
19696SOL    HW263005   1.455   9.826   9.359  2.9456  0.0118 -1.3821
19697SOL     OW63006   2.432   1.841   9.689  0.2306 -0.2546 -0.7046
19697SOL    HW163007   2.348   1.806   9.719  0.1875  0.5988  0.2280
19697SOL    HW263008   2.409   1.922   9.643  0.4722 -0.4841 -1.2287
19698SOL     OW63009   7.447   0.872   6.256 -0.9702  0.2232 -0.2639
19698SOL    HW163010   7.525   0.904   6.302 -1.0269 -0.6721  0.4820
19698SOL    HW263011   7.377   0.929   6.287 -0.9567 -0.1933  0.5737
19699SOL     OW63012   2.326   7.831   9.631  0.2640  0.2689  0.2362
19699SOL    HW163013   2.237   7.798   9.626  0.3631 -0.1731  1.0822
19699SOL    HW263014   2.320   7.923   9.607 -0.2822  0.0383 -0.5279
19700SOL     OW63015   9.439   6.994   8.149  1.1729  0.3636  0.4100
19700SOL    HW163016   9.433   6.943   8.068  1.3728 -0.7402  1.0647
19700SOL    HW263017   9.533   7.008   8.161  1.0931  1.3110 -0.0107
19701SOL     OW63018   4.824   2.178   4.206  0.6144  0.3690 -0.8731
19701SOL    HW163019   4.741   2.161   4.162  0.1592 -0.8513  0.3790
19701SOL    HW263020   4.891   2.155   4.141 -0.0019  1.3817 -1.8975
19702SOL     OW63021   6.026   4.562   1.526 -0.5615  0.0043  0.1800
19702SOL    HW163022   6.040   4.470   1.505 -2.0862 -0.6943  1.9117
19702SOL    HW263023   5.936   4.580   1.498 -1.1472  0.2192  2.0536
19703SOL     OW63024   5.266   4.378   5.259  0.0193 -0.2848  0.0400
19703SOL    HW163025   5.179   4.346   5.285 -1.2498  1.0555 -2.2417
19703SOL    HW263026   5.282   4.452   5.317  0.1112 -1.1233  1.1196
19704SOL     OW63027   1.815   4.923   3.385  0.2472  0.3404  0.2022
19704SOL    HW163028   1.910   4.923   3.376  0.2561 -1.0986  0.0433
19704SOL    HW263029   1.788   4.837   3.351 -1.2475  1.3034 -1.2322
19705SOL     OW63030   9.413   1.193   2.080  0.7978 -0.1111  0.1223
19705SOL    HW163031   9.321   1.176   2.099 -0.0712  0.1408 -3.2137
19705SOL    HW263032   9.456   1.108   2.089  0.0061 -0.4628  0.6125
19706SOL     OW63033   6.136   7.675   0.864 -0.1645 -0.4849  0.1088
19706SOL    HW163034   6.195   7.729   0.810 -1.6516  0.4411 -0.6869
19706SOL    HW263035   6.194   7.623   0.919  1.3907  2.0423  1.0319
19707SOL     OW63036   4.909   6.157   5.706 -0.2557  0.1255  0.4282
19707SOL    HW163037   4.894   6.167   5.612 -1.3350  0.1319  0.5954
19707SOL    HW263038   4.886   6.242   5.743 -3.2307 -0.8425  1.0850
19708SOL     OW63039   7.133   0.208   4.302  0.3737  0.0108 -0.1940
19708SOL    HW163040   7.167   0.185   4.388  0.5903  2.2168  0.3574
19708SOL    HW263041   7.038   0.195   4.309  0.4234 -0.0993  0.2614
19709SOL     OW63042   6.260   8.813   1.794 -0.7679  0.1848  0.1012
19709SOL    HW163043   6.280   8.863   1.874  0.8475  0.0688 -0.1894
19709SOL    HW263044   6.286   8.872   1.723  1.2520 -1.0339 -0.2488
19710SOL     OW63045   8.847   1.473   4.806 -0.1591 -0.2472 -0.6424
19710SOL    HW163046   8.940   1.487   4.825 -0.1253 -1.3535  0.0842
19710SOL    HW263047   8.806   1.461   4.892 -1.1238  0.9698 -0.8943
19711SOL     OW63048   4.746   6.460   7.778 -0.1441  0.1543  0.4165
19711SOL    HW163049   4.674   6.399   7.764  0.3003 -0.0829 -1.0362
19711SOL    HW263050   4.706   6.546   7.777 -0.5940 -0.0426  1.0821
19712SOL     OW63051   8.696   9.668   0.314 -0.1183 -0.0117 -0.3044
19712SOL    HW163052   8.753   9.737   0.280  0.6622 -0.0675  0.8579
19712SOL    HW263053   8.755   9.608   0.358 -0.9266 -0.8446 -0.3397
19713SOL     OW63054   0.874   6.465   4.613 -0.1425 -0.2960  0.0503
19713SOL    HW163055   0.781   6.488   4.620  0.1708  0.7461  1.0866
19713SOL    HW263056   0.916   6.513   4.684  1.4753  0.7032 -1.5004
19714SOL     OW63057   2.859   4.811   5.402 -0.2648 -0.1392 -0.0550
19714SOL    HW163058   2.886   4.864   5.477  2.2089 -0.3485 -0.7116
19714SOL    HW263059   2.882   4.721   5.425 -0.0086 -0.2872 -0.8351
19715SOL     OW63060   4.255   0.836   3.989 -0.1885  0.4796 -0.0783
19715SOL    HW163061   4.225   0.747   3.969  1.7050 -0.1221 -0.5015
19715SOL    HW263062   4.292   0.830   4.077  1.1138  0.4924 -0.5951
19716SOL     OW63063   7.044   4.616   9.410 -0.1934  0.1357  0.5491
19716SOL    HW163064   6.981   4.548   9.436 -0.6504 -0.4973 -1.9295
19716SOL    HW263065   7.123   4.568   9.387 -0.9772  0.1268 -2.6421
19717SOL     OW63066   6.174   9.988   3.032  0.3333 -0.0924  0.1342
19717SOL    HW163067   6.173  10.083   3.046  1.1735  0.0105 -0.4329
19717SOL    HW263068   6.216   9.977   2.947 -0.5458 -0.9360 -0.2095
19718SOL     OW63069   7.801   1.445   4.879 -0.0210  1.0246  0.0581
19718SOL    HW163070   7.824   1.386   4.951 -1.1887  0.9501  0.3980
19718SOL    HW263071   7.802   1.389   4.801 -0.7345  0.6280  0.3230
19719SOL     OW63072   0.276   9.643  10.195  0.2945  0.1442  0.0226
19719SOL    HW163073   0.229   9.654  10.277 -2.0618 -3.3319 -0.6145
19719SOL    HW263074   0.340   9.574  10.213  0.2329 -0.1578 -0.8410
19720SOL     OW63075   4.877   7.408   9.123  0.5412 -0.4915  0.7944
19720SOL    HW163076   4.823   7.335   9.092  2.2522 -1.0497 -1.0716
19720SOL    HW263077   4.837   7.486   9.085 -0.6281 -0.5284  1.8702
19721SOL     OW63078   9.026   0.774   0.856 -0.2188 -0.5464  0.3188
19721SOL    HW163079   9.095   0.708   0.851  0.5182  0.0500  2.0251
19721SOL    HW263080   9.072   0.857   0.860 -1.1244  0.0522 -1.0405
19722SOL     OW63081   5.535   1.246  10.035  0.3703  0.4304  0.1401
19722SOL    HW163082   5.550   1.170   9.979 -0.3975 -0.9484  1.6995
19722SOL    HW263083   5.622   1.277  10.059  0.6888  0.3267 -0.8679
19723SOL     OW63084   8.436   9.107   7.578 -0.2780  0.2675 -0.2022
19723SOL    HW163085   8.413   9.072   7.492 -1.1903 -0.4198  0.3104
19723SOL    HW263086   8.465   9.197   7.560 -1.6003  0.5436 -1.0991
19724SOL     OW63087   4.592   1.517   6.483 -0.2280 -0.4380  0.7077
19724SOL    HW163088   4.541   1.551   6.557 -0.4408 -1.1687  0.9072
19724SOL    HW263089   4.542   1.441   6.453 -0.2229 -0.0503 -0.2995
19725SOL     OW63090   1.005   0.903   1.520  1.5011 -0.7765 -0.4704
19725SOL    HW163091   0.966   0.952   1.592  0.1700  0.0508 -1.6911
19725SOL    HW263092   1.098   0.896   1.543  1.0905 -0.7344  1.3926
19726SOL     OW63093   2.985   1.378   2.958  0.3446  0.3610  0.5110
19726SOL    HW163094   3.048   1.403   2.891  0.0257  2.3468  0.8853
19726SOL    HW263095   2.902   1.368   2.911  0.5054 -0.1765  0.3355
19727SOL     OW63096   2.059  10.155   2.326 -0.2916 -1.1449  0.1182
19727SOL    HW163097   2.062  10.060   2.323  2.9463 -1.1528  0.6375
19727SOL    HW263098   2.096  10.183   2.242  0.9162 -0.4016  0.8775
19728SOL     OW63099   6.442   9.748   9.095 -0.1636  0.4806  0.8841
19728SOL    HW163100   6.456   9.841   9.112  3.0074  0.1778  0.5769
19728SOL    HW263101   6.510   9.704   9.146 -0.5638 -1.5711 -0.2260
19729SOL     OW63102   9.348   4.162   3.248 -0.6019 -0.1610 -0.0098
19729SOL    HW163103   9.309   4.242   3.215  0.2024  0.8706  1.4158
19729SOL    HW263104   9.273   4.108   3.274 -1.1634  1.0257  0.9811
19730SOL     OW63105   2.492   3.782   3.232  0.3166 -1.2665 -0.0013
19730SOL    HW163106   2.440   3.818   3.160 -2.1922 -2.4615  1.0587
19730SOL    HW263107   2.515   3.694   3.203 -0.3284 -1.5938  0.4495
19731SOL     OW63108   4.393   3.311   7.642  0.3889  0.3974  0.6868
19731SOL    HW163109   4.451   3.262   7.584 -0.3007  0.7001 -0.2840
19731SOL    HW263110   4.441   3.317   7.725  1.1666 -0.4970  0.3143
19732SOL     OW63111   6.945   6.384   4.479 -0.3178 -0.5984  0.4297
19732SOL    HW163112   6.934   6.295   4.446 -1.6063 -0.6412  0.9215
19732SOL    HW263113   6.888   6.437   4.423 -0.0840 -0.1756  0.5840
19733SOL     OW63114  10.202   3.026   5.663 -0.4361 -0.5326  0.1218
19733SOL    HW163115  10.242   2.973   5.594 -1.7522 -1.1563 -0.1784
19733SOL    HW263116  10.109   3.007   5.658 -0.7920  0.8870  0.8176
19734SOL     OW63117   6.735   8.958   6.895 -0.1651 -0.6133 -0.3102
19734SOL    HW163118   6.679   8.941   6.820 -0.6972 -0.7356  0.1086
19734SOL    HW263119   6.699   8.904   6.965  0.5509 -0.7838 -0.0662
19735SOL     OW63120   3.201   2.484   3.118  0.2557 -0.4711  0.0746
19735SOL    HW163121   3.128   2.545   3.107  0.1425 -0.3416  1.3838
19735SOL    HW263122   3.273   2.525   3.069  0.4332  1.2052  1.6053
19736SOL     OW63123   1.323   1.128   3.437  0.3026  0.3537 -0.0905
19736SOL    HW163124   1.317   1.214   3.479  0.3882  0.3495 -0.0710
19736SOL    HW263125   1.368   1.073   3.500  1.0121  0.5146 -0.4524
19737SOL     OW63126   4.184   6.786   4.579  0.7214 -0.3777  0.1781
19737SOL    HW163127   4.165   6.746   4.494 -1.1702 -1.2998  0.9707
19737SOL    HW263128   4.149   6.723   4.643  1.4135  0.6494  1.6186
19738SOL     OW63129   6.141   4.545   2.208  0.5170 -0.6597  0.0383
19738SOL    HW163130   6.188   4.534   2.291 -0.0682 -2.0071  0.2045
19738SOL    HW263131   6.050   4.527   2.230  0.4613 -1.7550 -1.0504
19739SOL     OW63132   3.987   3.609   3.304 -0.0590 -0.0277  0.9299
19739SOL    HW163133   3.991   3.701   3.330 -0.4973  0.1234  0.4844
19739SOL    HW263134   3.932   3.608   3.225 -1.3769 -0.8614  1.8162
19740SOL     OW63135   2.405   2.541   6.047  0.1206  0.5881 -0.2296
19740SOL    HW163136   2.413   2.450   6.017 -0.3497  1.2120 -2.3892
19740SOL    HW263137   2.444   2.540   6.135  1.3775 -1.4107 -0.7293
19741SOL     OW63138   6.854   5.062   4.714 -0.2659  0.1315 -0.4032
19741SOL    HW163139   6.763   5.049   4.685 -0.0588  0.4763 -1.2526
19741SOL    HW263140   6.898   4.980   4.693 -0.5148 -0.2760  0.6065
19742SOL     OW63141   1.212   0.109   0.900  0.1050 -1.0175 -1.1295
19742SOL    HW163142   1.298   0.150   0.904  0.0747 -0.9849 -0.7849
19742SOL    HW263143   1.222   0.027   0.948  0.0568 -1.2237 -1.4636
19743SOL     OW63144   3.707   0.532   5.486 -0.0320  0.5672  0.1727
19743SOL    HW163145   3.667   0.448   5.504  0.4940  0.6892  2.1150
19743SOL    HW263146   3.756   0.518   5.405 -0.4682 -0.7985  0.1219
19744SOL     OW63147   0.788   7.240   5.648  0.7685 -0.2263  0.1967
19744SOL    HW163148   0.875   7.276   5.632 -0.0919  2.1792  0.3868
19744SOL    HW263149   0.763   7.277   5.733 -0.6838 -0.3074 -0.1710
19745SOL     OW63150   8.135   7.849   1.973  0.2981 -0.0348  0.1490
19745SOL    HW163151   8.230   7.852   1.973  0.2851  0.7573 -0.2352
19745SOL    HW263152   8.111   7.838   2.065  0.7293  2.1476  0.5939
19746SOL     OW63153   4.497   9.060   4.260  0.1836  0.2028 -0.1401
19746SOL    HW163154   4.500   8.977   4.213 -1.8610  1.4547 -2.7250
19746SOL    HW263155   4.560   9.116   4.215 -0.2758  0.7945 -0.0555
19747SOL     OW63156   3.057   9.585   0.781  0.0520  0.3456 -0.1930
19747SOL    HW163157   3.062   9.596   0.876 -0.7359 -0.3960 -0.0499
19747SOL    HW263158   2.963   9.586   0.763  0.1400 -0.9996 -0.7725
19748SOL     OW63159   4.445   9.692   1.507 -0.3689  0.3440  0.2479
19748SOL    HW163160   4.421   9.599   1.505 -0.2880  0.3073  0.7947
19748SOL    HW263161   4.489   9.707   1.424  0.4423 -0.3312  0.5418
19749SOL     OW63162   2.837   5.076   0.805 -0.6592  0.1306 -0.3439
19749SOL    HW163163   2.854   4.995   0.853 -0.5666 -1.1713 -2.4426
19749SOL    HW263164   2.923   5.117   0.797 -0.3863 -0.5143 -0.8312
19750SOL     OW63165   3.327   2.879   3.559  0.0161 -0.1694  0.1432
19750SOL    HW163166   3.410   2.879   3.607 -0.8968 -0.7782  1.8166
19750SOL    HW263167   3.261   2.891   3.626 -1.3382 -1.0041 -0.9868
19751SOL     OW63168   4.479  10.136   8.914  0.5608 -0.0359  0.0408
19751SOL    HW163169   4.494  10.204   8.980  0.7977  0.3231 -0.3827
19751SOL    HW263170   4.390  10.106   8.931  0.1030  1.0406 -0.3616
19752SOL     OW63171   1.034   9.347   7.245  0.0588  0.0037  0.3461
19752SOL    HW163172   1.018   9.387   7.160  0.2898 -1.0834 -0.2229
19752SOL    HW263173   1.041   9.254   7.227 -1.0676 -0.3818  1.7238
19753SOL     OW63174   8.517   8.649   9.913 -0.7181 -0.2054 -0.9776
19753SOL    HW163175   8.594   8.704   9.897  0.0703 -1.1003 -0.3876
19753SOL    HW263176   8.532   8.571   9.858 -1.1201 -0.4567 -0.7321
19754SOL     OW63177   1.664   9.173   4.829 -0.0732  0.4790 -0.1650
19754SOL    HW163178   1.633   9.181   4.739 -0.5437 -0.7578 -0.1271
19754SOL    HW263179   1.676   9.079   4.842  0.4140  0.6833  0.9260
19755SOL     OW63180   1.704   1.235   5.930 -0.4486 -0.1082 -0.4392
19755SOL    HW163181   1.686   1.322   5.966 -0.2993  0.8015 -2.4016
19755SOL    HW263182   1.766   1.196   5.991 -0.4951  1.1830  0.4769
19756SOL     OW63183   7.147   8.583   5.692 -0.1417  0.3204  0.3849
19756SOL    HW163184   7.232   8.555   5.727 -0.0485 -1.7232 -1.3273
19756SOL    HW263185   7.167   8.663   5.643  1.1506 -0.9588 -1.2922
19757SOL     OW63186   2.695   7.610   8.869 -0.6773  0.0664  0.0450
19757SOL    HW163187   2.782   7.628   8.905  0.3005 -0.5883 -1.8534
19757SOL    HW263188   2.662   7.696   8.843 -0.2913  0.2419  0.1281
19758SOL     OW63189   9.981   9.241   6.289  0.1326 -0.4830  0.3720
19758SOL    HW163190   9.955   9.334   6.288 -1.0489 -0.7808  1.1636
19758SOL    HW263191   9.972   9.213   6.198  2.4916  0.6687 -0.2799
19759SOL     OW63192   6.256   4.138   1.349 -0.3360  0.5971  0.7218
19759SOL    HW163193   6.320   4.143   1.421  0.7131  0.3613 -0.1649
19759SOL    HW263194   6.255   4.045   1.325 -1.2847  0.5427  0.9494
19760SOL     OW63195   3.507   5.695   1.759  0.1013  0.0788 -0.3786
19760SOL    HW163196   3.449   5.753   1.710  0.1662  1.3260  0.9499
19760SOL    HW263197   3.552   5.644   1.692 -0.4658  1.0882 -1.5742
19761SOL     OW63198   7.599   8.024   0.668 -0.1579  0.4886 -0.2859
19761SOL    HW163199   7.576   8.080   0.593 -2.5155  2.1594  1.5420
19761SOL    HW263200   7.599   8.083   0.743  1.3574 -1.2872  1.2124
19762SOL     OW63201   1.385   7.321   9.179  0.0839 -0.0749  0.4179
19762SOL    HW163202   1.458   7.382   9.176 -0.0054  0.0436  0.6470
19762SOL    HW263203   1.319   7.361   9.121  1.0671 -1.3292 -1.6910
19763SOL     OW63204   7.806   4.088   1.955  0.5764  0.0452  0.5669
19763SOL    HW163205   7.765   4.062   2.037  0.0608  0.1486  0.3413
19763SOL    HW263206   7.890   4.041   1.955  0.0062 -1.0091  0.5397
19764SOL     OW63207   3.988   7.500   9.291  0.5980 -0.4335 -0.1270
19764SOL    HW163208   3.925   7.571   9.303  0.4283 -0.3638 -1.2959
19764SOL    HW263209   3.951   7.427   9.342  1.3164  0.5923  1.9485
19765SOL     OW63210   2.396   5.179   3.912 -0.0736 -0.2977 -0.6654
19765SOL    HW163211   2.415   5.221   3.828 -0.2579 -1.8529 -1.5285
19765SOL    HW263212   2.381   5.087   3.890  0.4422 -0.8656  1.1511
19766SOL     OW63213   5.100   6.510   4.649  0.4384 -0.4501  0.1214
19766SOL    HW163214   5.145   6.470   4.723 -0.4482  1.1517  1.6082
19766SOL    HW263215   5.034   6.446   4.623  1.2095 -1.3162  0.2782
19767SOL     OW63216   3.486   6.727   9.436  0.2992  0.4306  0.5891
19767SOL    HW163217   3.398   6.747   9.467 -0.1147  0.3968 -0.5048
19767SOL    HW263218   3.493   6.632   9.442  0.9104  0.5415  2.2837
19768SOL     OW63219   7.575   9.813   1.491 -0.3945  0.6256 -0.2793
19768SOL    HW163220   7.614   9.881   1.546 -0.3924 -1.3838  2.4081
19768SOL    HW263221   7.533   9.861   1.420  0.8694  3.3068  0.6526
19769SOL     OW63222   2.350   1.931   2.067  0.1947  0.0704 -0.5239
19769SOL    HW163223   2.413   1.900   2.002 -0.4084  0.8674 -1.5076
19769SOL    HW263224   2.404   1.975   2.133  0.6676  0.7820 -1.3798
19770SOL     OW63225   6.792   5.724   3.756  0.4665  0.1551 -0.1357
19770SOL    HW163226   6.715   5.727   3.814  0.7226  3.2993  0.2310
19770SOL    HW263227   6.773   5.790   3.688  2.4875  0.4245 -0.4958
19771SOL     OW63228   9.414   1.026   7.266 -0.6862  0.0947  0.4490
19771SOL    HW163229   9.403   1.117   7.239 -2.0187 -0.1758  0.0047
19771SOL    HW263230   9.508   1.017   7.283 -0.7059  1.9178  1.8339
19772SOL     OW63231   8.947   3.131   4.903  1.0951  0.3231  0.0468
19772SOL    HW163232   8.871   3.166   4.858  0.6790 -0.9856 -0.3133
19772SOL    HW263233   8.972   3.054   4.852  1.8643 -0.0179  0.9036
19773SOL     OW63234   6.121   4.848   0.889  0.2089  0.3542  0.0928
19773SOL    HW163235   6.075   4.817   0.811  0.1646  2.1829 -0.6706
19773SOL    HW263236   6.212   4.820   0.876  0.1773  0.5361 -0.5749
19774SOL     OW63237   0.682   1.425   5.093  0.2204  0.1445  0.1364
19774SOL    HW163238   0.643   1.449   5.177 -0.3856 -0.8749  0.1679
19774SOL    HW263239   0.771   1.399   5.114 -0.2631 -1.1906  0.6622
19775SOL     OW63240   6.438   3.292   8.536 -0.2047  0.4397  0.1813
19775SOL    HW163241   6.517   3.255   8.497  0.2794  1.4752  0.1290
19775SOL    HW263242   6.386   3.321   8.462 -0.7455 -0.4288  0.2083
19776SOL     OW63243   0.464   8.584   3.016 -1.0842  0.0017 -0.3369
19776SOL    HW163244   0.538   8.615   3.069  0.3775  0.0621 -2.3013
19776SOL    HW263245   0.396   8.565   3.080  0.9745 -1.1440  1.6954
19777SOL     OW63246   3.955   3.696   9.828 -0.6630  0.0170  0.2446
19777SOL    HW163247   3.897   3.628   9.863 -1.1019  0.7534  0.9831
19777SOL    HW263248   3.971   3.670   9.738 -0.8663 -1.0409  0.5061
19778SOL     OW63249   8.556   7.334   3.176 -0.3042 -0.0987  0.0815
19778SOL    HW163250   8.576   7.424   3.151 -0.0348 -0.0648  0.4125
19778SOL    HW263251   8.465   7.338   3.206 -0.0984  0.1883  0.6818
19779SOL     OW63252   2.985   1.082   2.628 -0.1177  0.7987 -0.7887
19779SOL    HW163253   2.987   1.127   2.544 -0.7955  1.0900 -0.6573
19779SOL    HW263254   2.920   1.130   2.679 -0.0078  0.3745 -0.2424
19780SOL     OW63255   6.952   9.429   1.843  0.3443  0.6829  0.3624
19780SOL    HW163256   7.038   9.429   1.885  1.4103  3.3379 -1.5563
19780SOL    HW263257   6.919   9.519   1.855 -0.4900  0.7715 -2.0344
19781SOL     OW63258   3.646   4.689   8.016  0.7001 -0.4205  0.8691
19781SOL    HW163259   3.635   4.638   7.936  0.1546  0.4689  0.3572
19781SOL    HW263260   3.739   4.682   8.037  0.6747 -1.4168  0.6809
19782SOL     OW63261   8.057   4.437   8.768 -0.4540  0.1361 -0.3001
19782SOL    HW163262   7.995   4.510   8.777 -0.8976 -0.3904  1.1847
19782SOL    HW263263   8.078   4.435   8.674 -0.8467  1.8226 -0.4633
19783SOL     OW63264   3.812   9.158   6.249 -0.5557  0.5863  0.1256
19783SOL    HW163265   3.838   9.090   6.311 -0.7926 -0.4312 -0.8516
19783SOL    HW263266   3.773   9.226   6.303  2.7378  1.5628  1.5281
19784SOL     OW63267   7.771   1.249   0.741 -0.9357 -0.9449  0.3282
19784SOL    HW163268   7.694   1.302   0.763 -1.3706 -1.6245  0.4676
19784SOL    HW263269   7.764   1.171   0.796 -0.0481 -0.9379  0.4713
19785SOL     OW63270   7.294   0.175   9.719  0.6053  0.1443 -0.0961
19785SOL    HW163271   7.352   0.246   9.690  0.8722  0.5499  1.3467
19785SOL    HW263272   7.330   0.148   9.803  0.7357 -2.0023 -0.7768
19786SOL     OW63273   6.270   4.269   8.007  0.2348 -0.1104  0.0795
19786SOL    HW163274   6.310   4.350   8.037 -0.1735  1.3258 -2.8522
19786SOL    HW263275   6.198   4.297   7.951 -0.4944 -2.5278 -0.3133
19787SOL     OW63276   7.461   3.391   6.441 -0.0180 -0.2017  0.3085
19787SOL    HW163277   7.444   3.485   6.448 -0.3781 -0.2849  0.6096
19787SOL    HW263278   7.386   3.350   6.485  0.2643 -0.6215  0.4053
19788SOL     OW63279   4.712   7.698   2.515 -0.2601  0.0740 -0.0774
19788SOL    HW163280   4.754   7.715   2.431 -1.2471  0.5461 -0.4831
19788SOL    HW263281   4.678   7.782   2.543 -0.6221 -0.2308  0.4250
19789SOL     OW63282  10.178   1.408   3.282 -0.7423 -0.2501 -0.1773
19789SOL    HW163283  10.229   1.402   3.363 -1.9252 -0.6614  0.5713
19789SOL    HW263284  10.111   1.474   3.301 -0.7788 -0.0519 -0.9716
19790SOL     OW63285   6.215   1.586   4.326  0.3920  0.5960  0.2667
19790SOL    HW163286   6.242   1.567   4.416 -1.3316  0.5637  0.8159
19790SOL    HW263287   6.151   1.519   4.305 -0.0646  1.2720 -0.5823
19791SOL     OW63288   9.089   2.253   9.429 -0.3728 -0.1110  0.1618
19791SOL    HW163289   9.058   2.343   9.443  0.6866  0.1338  1.0275
19791SOL    HW263290   9.037   2.201   9.490  0.9670  0.3170  1.7097
19792SOL     OW63291   8.379   9.371   0.749  0.0878  0.4918 -0.8699
19792SOL    HW163292   8.308   9.323   0.707 -1.9895  2.6974 -0.0333
19792SOL    HW263293   8.352   9.380   0.840  2.0719  0.2933 -0.2103
19793SOL     OW63294   2.789   0.133   8.717  0.6216 -0.0709  0.2955
19793SOL    HW163295   2.873   0.179   8.706  0.7611 -0.2638  0.5586
19793SOL    HW263296   2.793   0.096   8.805  0.9289 -1.4465 -0.2707
19794SOL     OW63297   9.371   9.706   6.018  0.2000 -0.0582  0.7195
19794SOL    HW163298   9.303   9.772   6.031  1.3424  1.6111 -1.3048
19794SOL    HW263299   9.446   9.739   6.067  1.0552  0.6615 -1.0107
19795SOL     OW63300   2.270   0.448   1.453 -0.2768  0.2335 -0.1465
19795SOL    HW163301   2.253   0.488   1.538  0.3118 -1.8134  0.9915
19795SOL    HW263302   2.186   0.452   1.407 -0.5719  1.4650  0.4491
19796SOL     OW63303   4.398   3.244  10.106  0.2614  0.2324 -0.1149
19796SOL    HW163304   4.380   3.281  10.192 -0.8106  0.7559 -0.5466
19796SOL    HW263305   4.370   3.152  10.112 -0.4768  0.4528 -0.1069
19797SOL     OW63306   8.637   7.337   3.818  0.6393  0.8562  0.2438
19797SOL    HW163307   8.551   7.294   3.826  1.1609 -0.3456 -0.3391
19797SOL    HW263308   8.645   7.357   3.725  1.2751  0.3312  0.1817
19798SOL     OW63309   4.760  10.172   4.624  0.1100 -0.5147  0.0916
19798SOL    HW163310   4.703  10.242   4.592  0.6683  0.3925  1.0359
19798SOL    HW263311   4.843  10.186   4.579  1.1485  1.2299  2.3378
19799SOL     OW63312   4.169   8.299  10.117  0.5139 -0.5010  0.3743
19799SOL    HW163313   4.091   8.294  10.173 -0.1452 -0.5576 -0.5209
19799SOL    HW263314   4.173   8.214  10.074  0.6148 -0.2211 -0.1783
19800SOL     OW63315   5.449   4.659   1.063  0.2387 -0.1880 -0.0284
19800SOL    HW163316   5.523   4.605   1.037 -0.5445 -1.7774  0.9194
19800SOL    HW263317   5.469   4.746   1.027  1.7462 -0.9754 -1.1986
19801SOL     OW63318   2.627   2.616   9.821 -0.4673 -0.3013  0.0190
19801SOL    HW163319   2.636   2.631   9.915 -0.7847  0.6373 -0.0855
19801SOL    HW263320   2.693   2.550   9.800  0.2348  0.1614  0.7363
19802SOL     OW63321   4.611   3.337   1.364 -0.1549 -0.4251 -0.6488
19802SOL    HW163322   4.605   3.247   1.332  1.0270 -0.6827 -0.2031
19802SOL    HW263323   4.557   3.338   1.443 -2.3303 -0.0220 -2.0458
19803SOL     OW63324   4.533   3.180   7.316  0.5327  0.2975 -0.0143
19803SOL    HW163325   4.555   3.264   7.356  0.6635  0.9838 -1.4656
19803SOL    HW263326   4.478   3.203   7.241  1.7617 -0.7683 -1.3084
19804SOL     OW63327   4.731   9.429   5.330 -0.0931 -0.2704 -0.2769
19804SOL    HW163328   4.676   9.457   5.256  0.7418  1.2865 -0.3565
19804SOL    HW263329   4.686   9.353   5.366 -1.8796  0.4719 -0.8307
19805SOL     OW63330   9.226  10.205   3.047  0.1094 -0.7443 -0.1434
19805SOL    HW163331   9.270  10.284   3.014 -1.5086 -0.1929 -1.0593
19805SOL    HW263332   9.227  10.144   2.973  1.0112 -1.4665  0.4424
19806SOL     OW63333   8.349   8.319   9.224  0.3644 -0.3783 -0.1023
19806SOL    HW163334   8.258   8.347   9.218  0.1346 -1.0148  0.1976
19806SOL    HW263335   8.386   8.338   9.138  0.1742  0.6319  0.0259
19807SOL     OW63336   1.954   0.595   3.218 -0.2078  0.2327 -0.0635
19807SOL    HW163337   2.032   0.645   3.194 -0.1732  0.0968 -0.2453
19807SOL    HW263338   1.978   0.504   3.199 -0.4841  0.2116 -0.3206
19808SOL     OW63339   9.803   4.072   7.969  0.0930  0.0526 -0.6122
19808SOL    HW163340   9.742   4.094   7.898 -0.5612 -0.0655 -0.0920
19808SOL    HW263341   9.845   4.156   7.990 -0.3947  0.2741 -0.5006
19809SOL     OW63342   2.721   3.785   0.923 -0.6185 -0.2040  0.4705
19809SOL    HW163343   2.752   3.720   0.987  0.2184  0.9221  1.2572
19809SOL    HW263344   2.626   3.784   0.933 -0.6298 -1.3457  0.4137
19810SOL     OW63345   7.145   0.666   5.486  0.3239 -0.8277  0.4769
19810SOL    HW163346   7.107   0.623   5.563 -1.3310 -1.1328 -0.4673
19810SOL    HW263347   7.144   0.600   5.418  1.9726 -0.6175  0.2087
19811SOL     OW63348   1.324   4.070   1.667  0.5246  0.0070 -0.0136
19811SOL    HW163349   1.326   4.098   1.758  1.0327 -0.1023  0.0088
19811SOL    HW263350   1.352   4.147   1.617  1.6184 -0.3572  0.0262
19812SOL     OW63351   0.183   8.670   4.362 -0.3855  0.0160  0.0055
19812SOL    HW163352   0.103   8.662   4.416 -0.6347  0.7687 -0.2396
19812SOL    HW263353   0.175   8.756   4.321  0.5993  0.1291  0.0391
19813SOL     OW63354   6.154   4.150   9.376 -0.3381 -0.0284 -0.3709
19813SOL    HW163355   6.092   4.088   9.338 -0.4839 -1.8588  2.5606
19813SOL    HW263356   6.239   4.124   9.339 -0.7161 -0.3464 -1.0402
19814SOL     OW63357   0.319   1.332   7.304 -0.8279  0.0618 -0.0786
19814SOL    HW163358   0.359   1.338   7.391  0.5260  1.4167 -0.7559
19814SOL    HW263359   0.266   1.412   7.297 -0.6177  0.1495 -0.6526
19815SOL     OW63360   7.663   5.060   3.285  0.2261  0.0459  0.0635
19815SOL    HW163361   7.579   5.066   3.329  0.4216 -1.8788  0.7846
19815SOL    HW263362   7.663   4.974   3.243  1.7110  0.1087 -0.1403
19816SOL     OW63363   1.867   5.172   9.147 -0.1400 -0.2235 -0.1597
19816SOL    HW163364   1.942   5.222   9.114 -0.1949  0.3437  0.5360
19816SOL    HW263365   1.850   5.106   9.080  1.5178 -0.9163  0.0454
19817SOL     OW63366   0.171   8.401   6.033 -0.3975 -0.6055  0.2806
19817SOL    HW163367   0.232   8.384   5.962  0.8331 -0.7485  1.3297
19817SOL    HW263368   0.214   8.467   6.087 -1.7488  0.2461  0.3668
19818SOL     OW63369   3.321   2.334   2.187 -0.4483 -0.0995  0.1622
19818SOL    HW163370   3.366   2.293   2.113 -1.0096  0.2220 -0.3729
19818SOL    HW263371   3.277   2.262   2.231 -1.7767 -0.0536 -1.0173
19819SOL     OW63372   8.402   3.668   6.539  0.4666 -0.1803  0.0593
19819SOL    HW163373   8.458   3.745   6.550 -1.1399  0.8553  1.5916
19819SOL    HW263374   8.326   3.700   6.491 -0.2837 -0.7591  0.8210
19820SOL     OW63375   8.021   1.752   2.939  0.0366 -0.7277 -0.5868
19820SOL    HW163376   8.102   1.767   2.891  1.7721 -0.1509  2.3173
19820SOL    HW263377   7.961   1.820   2.907  1.1040 -0.3611 -1.8765
19821SOL     OW63378   1.053   4.946   1.379  0.3836  0.5241  0.2834
19821SOL    HW163379   0.964   4.939   1.345  0.3057  0.2758  0.5289
19821SOL    HW263380   1.107   4.899   1.316  0.2864  0.3488  0.3288
19822SOL     OW63381   1.177   8.540   9.658  0.0914 -0.1146  0.2096
19822SOL    HW163382   1.227   8.620   9.640 -0.4709  0.4154  0.9168
19822SOL    HW263383   1.208   8.512   9.744  0.5911 -0.9172 -0.2138
19823SOL     OW63384   9.529   7.789   3.379 -0.1822  0.0393 -0.7977
19823SOL    HW163385   9.587   7.815   3.308  1.3199 -1.0173 -0.0239
19823SOL    HW263386   9.475   7.720   3.342 -0.9365  0.9906 -1.5127
19824SOL     OW63387   3.783   0.417   4.294  0.1221  0.0897  0.0591
19824SOL    HW163388   3.695   0.402   4.328  0.4990 -1.3071  0.4650
19824SOL    HW263389   3.790   0.512   4.289 -0.6643  0.2949  2.0210
19825SOL     OW63390   1.062   2.834   7.876 -1.0369  0.4363 -0.5420
19825SOL    HW163391   1.033   2.788   7.797 -0.5006  2.0092 -1.7246
19825SOL    HW263392   1.127   2.897   7.844 -0.0994  0.4803  1.3131
19826SOL     OW63393   0.267  10.058   9.428  0.2753 -0.8291 -0.0575
19826SOL    HW163394   0.272   9.972   9.387 -2.1271 -1.2435  0.3309
19826SOL    HW263395   0.176  10.065   9.457  1.2867  0.3008  3.2992
19827SOL     OW63396   0.823   6.594   2.722  0.1001 -0.0591  0.1699
19827SOL    HW163397   0.907   6.566   2.686 -1.2942 -0.5345 -3.0697
19827SOL    HW263398   0.820   6.555   2.810  2.4516 -1.5794 -0.3296
19828SOL     OW63399   9.550   0.935   2.173 -0.2801  0.1972  0.1033
19828SOL    HW163400   9.645   0.931   2.162 -0.2563  0.3865  0.2382
19828SOL    HW263401   9.537   0.930   2.268 -0.4572 -0.9542  0.0309
19829SOL     OW63402   7.818   7.695   6.790  0.5190 -0.0159 -0.2947
19829SOL    HW163403   7.884   7.765   6.791  0.0673  0.4245 -0.7337
19829SOL    HW263404   7.805   7.673   6.883 -2.4705  3.5106  0.3583
19830SOL     OW63405   4.653   5.980   2.595  0.2226  0.6287 -0.2153
19830SOL    HW163406   4.719   6.049   2.589  0.6652  0.2130 -0.1944
19830SOL    HW263407   4.571   6.024   2.572  0.2936  1.4570  0.9908
19831SOL     OW63408   3.150   1.973   6.025 -0.1460 -0.2612  0.2709
19831SOL    HW163409   3.201   1.901   6.061 -0.6377 -0.3594  0.7910
19831SOL    HW263410   3.061   1.939   6.018 -0.3447  0.2250  0.3415
19832SOL     OW63411   6.884   8.340   0.242 -0.5221  0.3736 -0.1810
19832SOL    HW163412   6.963   8.375   0.200  1.1879  0.6766  2.9205
19832SOL    HW263413   6.813   8.359   0.181  1.3463  3.0131 -1.7372
19833SOL     OW63414   0.317   1.802   2.564  0.1857 -0.2475 -0.0978
19833SOL    HW163415   0.259   1.818   2.490  0.4414  0.1089 -0.2273
19833SOL    HW263416   0.402   1.834   2.535  0.3456 -0.3419  0.2572
19834SOL     OW63417   0.413   1.299   5.359  0.3811 -0.5295 -0.0850
19834SOL    HW163418   0.503   1.318   5.385  0.1076 -0.6369  0.9762
19834SOL    HW263419   0.367   1.382   5.368  0.2251 -0.6281  0.0327
19835SOL     OW63420   6.151  10.092   4.384 -0.4865 -0.3234  0.1580
19835SOL    HW163421   6.138  10.176   4.428 -0.2731 -0.0716 -0.2630
19835SOL    HW263422   6.096  10.097   4.306 -1.7176 -1.1881  0.9304
19836SOL     OW63423   7.161   6.152   2.121 -0.1262 -0.1625 -0.3118
19836SOL    HW163424   7.190   6.243   2.128  2.1016 -0.9049  1.4352
19836SOL    HW263425   7.166   6.118   2.211  1.5601 -2.6769 -1.2421
19837SOL     OW63426   0.695   6.228   1.375  0.1444  0.0297 -0.4048
19837SOL    HW163427   0.683   6.284   1.298 -1.5727  0.7247  0.3145
19837SOL    HW263428   0.659   6.144   1.349 -0.4272  0.2614 -0.3735
19838SOL     OW63429   5.014   3.814   3.469 -0.3540 -0.2798  0.8968
19838SOL    HW163430   4.989   3.805   3.561 -0.9580  1.2737  0.9063
19838SOL    HW263431   4.958   3.751   3.423 -1.7277  0.5729  1.3424
19839SOL     OW63432   7.829   1.772   2.115 -0.5550 -0.2977  0.3553
19839SOL    HW163433   7.854   1.696   2.061 -1.2161  0.4416 -1.0162
19839SOL    HW263434   7.854   1.746   2.204  4.1322 -0.1359 -0.6151
19840SOL     OW63435   2.569   1.934   8.417  0.1525 -0.5063 -0.2986
19840SOL    HW163436   2.562   1.906   8.509  1.1193 -1.0753 -0.3894
19840SOL    HW263437   2.639   1.881   8.381  0.2554  0.2148 -1.1885
19841SOL     OW63438   4.697   5.904   4.946 -0.0342  0.4626 -0.2386
19841SOL    HW163439   4.750   5.953   4.883 -1.6653  3.0652  0.2421
19841SOL    HW263440   4.607   5.929   4.925 -0.6969  0.5660  2.4005
19842SOL     OW63441   0.904   7.450   7.656 -0.4810 -0.7158 -0.0588
19842SOL    HW163442   0.926   7.483   7.569  1.4276  1.0597  1.0063
19842SOL    HW263443   0.977   7.394   7.680 -0.2748 -0.0707  0.9120
19843SOL     OW63444   5.777   6.434  10.085  0.2971 -0.1080  0.1146
19843SOL    HW163445   5.809   6.438  10.175 -0.5294  0.6607  0.3868
19843SOL    HW263446   5.831   6.496  10.037  0.6092 -0.3735  0.1224
19844SOL     OW63447   4.377   8.449   4.463  0.2489  0.2413  0.8894
19844SOL    HW163448   4.412   8.536   4.448  2.4096 -0.1938  2.7388
19844SOL    HW263449   4.408   8.426   4.551 -0.9483 -2.0639  0.7844
19845SOL     OW63450   4.476   6.610   1.946  0.2685 -0.2417  0.0054
19845SOL    HW163451   4.399   6.578   1.899 -1.1741 -0.8321  2.5745
19845SOL    HW263452   4.472   6.706   1.936  0.0123 -0.3491 -1.0350
19846SOL     OW63453   4.972   5.630   4.098 -0.0637  0.2967 -0.1762
19846SOL    HW163454   5.037   5.605   4.164 -0.4431 -0.5886 -0.1167
19846SOL    HW263455   5.024   5.663   4.025  0.3199  2.9560  1.1721
19847SOL     OW63456   4.918   6.108   7.525 -0.0490  0.2114  0.2056
19847SOL    HW163457   4.928   6.048   7.598 -0.5286  0.1707  0.2390
19847SOL    HW263458   4.916   6.195   7.565  0.8935  0.2831  0.1382
19848SOL     OW63459  10.077   5.017   0.939  0.3977 -0.3181 -0.4915
19848SOL    HW163460  10.148   5.079   0.919 -0.5215  0.7721 -0.4584
19848SOL    HW263461  10.002   5.050   0.891  0.0499 -1.8222 -1.0307
19849SOL     OW63462   7.764   8.324   3.917 -0.2963 -0.0097  0.4056
19849SOL    HW163463   7.731   8.407   3.885  2.0258  0.7784 -0.1586
19849SOL    HW263464   7.688   8.281   3.957 -1.5805  2.3039  0.6054
19850SOL     OW63465   9.744   9.459   6.513  0.0701 -0.0192 -0.3436
19850SOL    HW163466   9.723   9.384   6.568  0.1200  0.5794  0.5134
19850SOL    HW263467   9.685   9.528   6.543  1.6328  1.0024  0.5209
19851SOL     OW63468   3.708   1.391   9.540  0.3829 -0.2528  0.2830
19851SOL    HW163469   3.630   1.337   9.547 -0.0300 -0.0631 -2.0841
19851SOL    HW263470   3.682   1.476   9.576  0.1876 -0.7933  1.4607
19852SOL     OW63471   9.856   1.160   4.555  0.6969  0.1934  0.0675
19852SOL    HW163472   9.944   1.121   4.552  0.7290  0.1120  1.4322
19852SOL    HW263473   9.836   1.180   4.463  1.4735 -1.2484 -0.4529
19853SOL     OW63474   1.349   1.072   4.455 -0.3747 -0.1243  0.1679
19853SOL    HW163475   1.357   1.045   4.546 -1.0751 -0.4085  0.1510
19853SOL    HW263476   1.366   1.166   4.456  0.1201 -0.2146  0.5161
19854SOL     OW63477   7.610   7.974   0.349  1.1051 -0.6972 -0.0687
19854SOL    HW163478   7.678   7.950   0.287  1.1256  1.6869 -1.0773
19854SOL    HW263479   7.624   8.067   0.366 -1.8703 -0.0940 -0.2908
19855SOL     OW63480   4.655   7.868   5.726 -0.0067  0.4744  0.3122
19855SOL    HW163481   4.611   7.809   5.787 -0.2203 -0.0205 -0.3102
19855SOL    HW263482   4.649   7.824   5.642  0.8460  0.8516  0.0424
19856SOL     OW63483   2.558   4.566   7.735 -0.0846  0.1301  0.5194
19856SOL    HW163484   2.505   4.606   7.666 -0.3481 -1.0614  0.0189
19856SOL    HW263485   2.569   4.636   7.799  0.7230  1.4528 -1.0144
19857SOL     OW63486   5.569   2.646   7.176  0.2433  0.4870 -0.0574
19857SOL    HW163487   5.625   2.636   7.099 -0.6716  0.6420 -0.7665
19857SOL    HW263488   5.486   2.678   7.140 -0.6225 -0.7024  0.8425
19858SOL     OW63489   2.765   6.351   2.985 -0.0196  0.6062  0.2580
19858SOL    HW163490   2.689   6.333   3.040  0.2877 -0.1718  0.4371
19858SOL    HW263491   2.825   6.279   3.003 -0.2362 -0.1109 -1.6785
19859SOL     OW63492   7.730   7.436   2.134  0.6503  0.1726 -0.4572
19859SOL    HW163493   7.685   7.465   2.213 -0.4306  0.2527 -1.0805
19859SOL    HW263494   7.795   7.373   2.165 -1.0749 -1.3255  0.3466
19860SOL     OW63495   6.277   2.672   5.085  0.0961 -0.2975  0.2585
19860SOL    HW163496   6.197   2.711   5.122 -0.7902 -1.0298 -0.8126
19860SOL    HW263497   6.265   2.578   5.098  1.1609 -0.3657  0.7870
19861SOL     OW63498   2.299   2.307   9.383  0.2652  0.6533  0.3024
19861SOL    HW163499   2.272   2.225   9.342  1.5850  1.0605 -1.5206
19861SOL    HW263500   2.261   2.376   9.328  1.5581  1.2241  0.0805
19862SOL     OW63501   6.825   5.597   0.071 -0.0557  0.3769  0.4646
19862SOL    HW163502   6.749   5.546   0.099 -1.2851  1.7338 -0.2609
19862SOL    HW263503   6.805   5.686   0.098 -1.4269  1.8828 -4.5040
19863SOL     OW63504   1.081   8.801   2.936  0.5038 -0.0277  0.5850
19863SOL    HW163505   1.042   8.840   2.858 -1.8549 -1.2813  1.0352
19863SOL    HW263506   1.171   8.782   2.912 -0.0405  0.0565 -1.6699
19864SOL     OW63507   6.395   2.674   6.659 -0.2069 -0.0346  0.0864
19864SOL    HW163508   6.419   2.611   6.728 -0.1809  0.1711  0.2664
19864SOL    HW263509   6.415   2.759   6.698  0.6240  0.0484 -0.4956
19865SOL     OW63510   0.216   6.740   7.736 -0.0052 -0.3347 -0.6665
19865SOL    HW163511   0.171   6.714   7.656  0.2869 -0.0730 -0.9160
19865SOL    HW263512   0.154   6.797   7.781 -0.1661 -0.4767 -0.7063
19866SOL     OW63513   3.772   7.081   1.177  0.3727  0.6800 -0.5037
19866SOL    HW163514   3.711   7.095   1.104 -0.2984 -0.7103 -0.2482
19866SOL    HW263515   3.854   7.055   1.135  0.8494  2.5851 -0.8521
19867SOL     OW63516   5.862   6.603   0.770  0.1944 -0.3082  0.1376
19867SOL    HW163517   5.831   6.580   0.858  1.0924  1.0760  0.8614
19867SOL    HW263518   5.934   6.664   0.786  0.8871 -0.6383 -1.5613
19868SOL     OW63519   0.701   0.519   3.325  0.6053 -0.6797 -0.3361
19868SOL    HW163520   0.662   0.460   3.389 -0.6980  0.4261 -0.0784
19868SOL    HW263521   0.658   0.497   3.242 -1.1277  0.9759  0.0680
19869SOL     OW63522   7.101   9.183   4.745 -0.5357  0.0120  0.2702
19869SOL    HW163523   7.006   9.199   4.748 -0.1545  2.7721  0.5490
19869SOL    HW263524   7.131   9.202   4.834  0.4434  0.7490 -0.1987
19870SOL     OW63525   4.284   5.330   4.977 -0.5580 -0.8535  0.2958
19870SOL    HW163526   4.328   5.375   4.904 -1.5617 -1.2277 -0.5646
19870SOL    HW263527   4.350   5.271   5.013 -0.8643 -2.9876 -2.3232
19871SOL     OW63528   6.232   7.020  10.114  0.1208 -0.7426 -0.0046
19871SOL    HW163529   6.199   7.079  10.181  0.4318  0.7437 -1.1125
19871SOL    HW263530   6.154   6.978  10.077 -0.2656  0.2410 -0.3313
19872SOL     OW63531   5.962   8.579   2.439 -0.3842  0.3397 -0.3228
19872SOL    HW163532   6.013   8.555   2.362  1.3205 -0.6081  1.0380
19872SOL    HW263533   5.900   8.507   2.451  1.2095 -0.9118  0.7399
19873SOL     OW63534   5.252   8.369   6.093  0.2347 -0.3758 -0.6780
19873SOL    HW163535   5.299   8.298   6.049  0.7476  0.2716 -1.1991
19873SOL    HW263536   5.285   8.367   6.183  2.2113  0.7943 -1.2942
19874SOL     OW63537   8.122   3.093   5.976  0.4058 -0.7915 -0.3561
19874SOL    HW163538   8.139   3.050   5.893  0.3722 -1.5945  0.0476
19874SOL    HW263539   8.090   3.180   5.952  0.5258 -0.9728 -1.1754
19875SOL     OW63540   8.795   9.098   6.223  0.0689  0.4155  0.1530
19875SOL    HW163541   8.796   9.184   6.264 -0.5557  0.7914 -0.6116
19875SOL    HW263542   8.816   9.114   6.131  1.9189 -0.4714  0.3726
19876SOL     OW63543   2.479   6.561   3.360 -0.1774  0.3470 -0.0970
19876SOL    HW163544   2.499   6.653   3.376 -0.8294  0.2795  1.1992
19876SOL    HW263545   2.442   6.560   3.272 -1.0840  1.4836  0.2477
19877SOL     OW63546   0.555   1.001   0.353 -0.0468  0.6568 -0.2305
19877SOL    HW163547   0.639   0.964   0.324 -0.7623 -0.1136 -1.4040
19877SOL    HW263548   0.568   1.020   0.446  0.4768 -2.2925  0.3824
19878SOL     OW63549   7.394   6.821   3.763  0.1135 -0.0040  0.1538
19878SOL    HW163550   7.343   6.878   3.820  1.4383 -0.3198  1.7061
19878SOL    HW263551   7.399   6.738   3.810  0.8651 -0.4136 -0.6242
19879SOL     OW63552   6.960   1.460   9.094 -0.1811 -0.6957  0.3639
19879SOL    HW163553   6.932   1.377   9.055 -0.1000 -0.4065 -0.3379
19879SOL    HW263554   6.983   1.515   9.018 -0.7951  0.1670  0.7936
19880SOL     OW63555   3.934   5.077   7.017  0.3403  0.0750  0.1959
19880SOL    HW163556   4.025   5.076   6.987  0.2228  0.0065 -0.1605
19880SOL    HW263557   3.887   5.025   6.953  0.3962 -1.6473  1.4737
19881SOL     OW63558   5.642   9.058   5.945  0.3293  0.2289 -0.0656
19881SOL    HW163559   5.644   8.981   5.888 -0.0219 -0.1597  0.4307
19881SOL    HW263560   5.572   9.112   5.910  1.8077  1.2515 -1.5634
19882SOL     OW63561   7.405   8.598   1.842  0.3319  0.0812 -0.8183
19882SOL    HW163562   7.321   8.636   1.817  1.3585  2.6374 -0.6694
19882SOL    HW263563   7.444   8.569   1.760 -1.2739 -2.5892 -0.7354
19883SOL     OW63564   4.700   0.503   6.434 -0.1660 -0.0229 -0.5605
19883SOL    HW163565   4.762   0.556   6.484 -0.5420  0.2649 -0.3975
19883SOL    HW263566   4.753   0.465   6.364  0.5569 -1.0897  0.5055
19884SOL     OW63567   7.734   2.337   8.878 -0.3947 -0.0203  0.0931
19884SOL    HW163568   7.696   2.296   8.800 -1.2845  1.4083 -0.2622
19884SOL    HW263569   7.680   2.415   8.893  0.5249  0.3966  1.4181
19885SOL     OW63570   4.788   3.125   5.036 -0.3023  0.6249  0.5078
19885SOL    HW163571   4.811   3.218   5.036 -1.5417  0.9858  1.6492
19885SOL    HW263572   4.868   3.079   5.011  0.3593  1.9923  0.0378
19886SOL     OW63573   1.986   9.893   5.651 -0.5608  0.3737  0.2137
19886SOL    HW163574   1.912   9.867   5.707 -0.9900 -1.6840 -1.1734
19886SOL    HW263575   1.952   9.882   5.561  1.5700 -1.2141 -0.4718
19887SOL     OW63576   4.544   8.765   6.102 -0.0629  0.0387  0.6358
19887SOL    HW163577   4.489   8.840   6.127 -1.7348 -0.4494 -1.3119
19887SOL    HW263578   4.632   8.802   6.092 -0.0379  0.9463  3.3482
19888SOL     OW63579   5.976   8.963   6.444  0.0187  0.6371 -0.3191
19888SOL    HW163580   6.021   8.883   6.416  0.8274 -0.0438  2.5237
19888SOL    HW263581   5.898   8.968   6.389  0.1255 -1.9252 -0.8375
19889SOL     OW63582   3.390   7.399   1.277  0.0916  0.1586 -0.4142
19889SOL    HW163583   3.377   7.324   1.335  0.1540  0.9917  0.7080
19889SOL    HW263584   3.325   7.463   1.306  1.0584  1.1290 -0.3230
19890SOL     OW63585   5.611   9.087   4.044  0.0952 -0.1609  0.5739
19890SOL    HW163586   5.703   9.074   4.021  0.1499 -3.0640  1.9917
19890SOL    HW263587   5.613   9.143   4.121  0.4827  1.3719 -0.4943
19891SOL     OW63588   0.515   1.865   7.831  0.0283 -0.2999 -0.5691
19891SOL    HW163589   0.515   1.804   7.905  0.0436 -0.2024 -0.4891
19891SOL    HW263590   0.423   1.875   7.808  0.0571 -0.7579 -0.9168
19892SOL     OW63591   8.140   7.989   8.986 -0.1144  0.0720 -0.2626
19892SOL    HW163592   8.066   8.031   8.943 -0.4595 -0.9842 -0.7271
19892SOL    HW263593   8.212   7.996   8.924 -0.9065 -2.4724 -1.6120
19893SOL     OW63594   1.325   5.158   5.167  0.8145  0.3267  0.6723
19893SOL    HW163595   1.328   5.137   5.074  2.0261 -1.7801  1.1299
19893SOL    HW263596   1.407   5.205   5.183 -0.0846  2.0667  0.4350
19894SOL     OW63597   1.810   3.867   4.050 -0.0643 -0.3294  0.0823
19894SOL    HW163598   1.771   3.781   4.041  0.0559 -0.2930 -0.9685
19894SOL    HW263599   1.767   3.920   3.982 -0.9531  0.7540  1.4453
19895SOL     OW63600   3.341   1.903   1.337 -0.0181  0.0454 -0.1653
19895SOL    HW163601   3.388   1.825   1.366 -1.4612 -0.1007  1.9509
19895SOL    HW263602   3.268   1.868   1.284 -0.2085  0.0026  0.1237
19896SOL     OW63603   7.567   0.070   4.305 -0.0685  0.2187  0.1750
19896SOL    HW163604   7.536   0.052   4.216 -0.1411  0.0351  0.2374
19896SOL    HW263605   7.507   0.020   4.361 -0.8281  1.3547  0.3992
19897SOL     OW63606   8.089   1.321   4.292  0.5216  0.0865  0.0602
19897SOL    HW163607   8.018   1.385   4.300 -0.0645 -0.3567 -1.2476
19897SOL    HW263608   8.149   1.361   4.229  0.1322 -0.6523 -0.7904
19898SOL     OW63609   2.675   2.388   2.353  0.0079  0.7246 -0.0554
19898SOL    HW163610   2.606   2.413   2.414 -0.5622 -0.4144 -0.2122
19898SOL    HW263611   2.634   2.394   2.266  0.5771  1.5561 -0.2794
19899SOL     OW63612   3.891   1.305   2.446 -0.3080  0.6332 -0.1108
19899SOL    HW163613   3.844   1.234   2.402 -0.3973 -0.2620  1.3623
19899SOL    HW263614   3.935   1.352   2.376 -0.5159 -0.6878 -1.1554
19900SOL     OW63615   4.381   2.240   1.389  0.2127 -0.4744 -0.1853
19900SOL    HW163616   4.335   2.321   1.365  1.1679  0.1228 -0.0609
19900SOL    HW263617   4.446   2.268   1.453  2.6285 -0.7720 -2.3381
19901SOL     OW63618   3.298   5.496   0.116 -0.5924 -0.1218 -0.6730
19901SOL    HW163619   3.205   5.480   0.100 -0.5198 -0.5675 -0.6513
19901SOL    HW263620   3.343   5.438   0.055 -0.3260 -0.2005 -0.4010
19902SOL     OW63621   7.764   2.417   6.525 -0.1873  0.0497 -0.1185
19902SOL    HW163622   7.747   2.428   6.432 -1.2484 -1.0673 -0.0806
19902SOL    HW263623   7.679   2.394   6.563 -0.2046  2.3993  1.4813
19903SOL     OW63624   0.506   7.820   1.458  0.3134  0.1140  0.0038
19903SOL    HW163625   0.484   7.897   1.510  1.4631  1.3400 -1.2601
19903SOL    HW263626   0.457   7.830   1.377  1.1797  0.0063 -0.5449
19904SOL     OW63627   8.993   8.545   3.523 -0.4320 -0.5355 -0.1095
19904SOL    HW163628   9.074   8.497   3.505 -0.3397 -0.0626 -1.0031
19904SOL    HW263629   9.021   8.637   3.531 -0.4437 -0.6742  2.5974
19905SOL     OW63630   2.030   2.172   9.037 -0.9840  0.2347  0.6837
19905SOL    HW163631   2.035   2.080   9.012 -0.1875 -0.2491  2.4357
19905SOL    HW263632   1.980   2.214   8.967 -0.8671 -1.4132 -0.4338
19906SOL     OW63633   4.929   4.975   4.216 -0.2694 -0.0492 -0.6630
19906SOL    HW163634   4.875   5.022   4.153  0.2560 -0.2358 -1.2671
19906SOL    HW263635   4.869   4.915   4.260 -0.4920 -0.5375 -1.6075
19907SOL     OW63636   8.002   7.496   9.003 -0.7113 -0.0823  0.1296
19907SOL    HW163637   8.054   7.560   8.954  1.0766 -1.6343 -0.1257
19907SOL    HW263638   7.912   7.526   8.992  0.0409  2.5740  0.3533
19908SOL     OW63639   1.290   4.033   0.108 -0.3602 -0.1024  0.1851
19908SOL    HW163640   1.210   4.018   0.158  0.6863  1.6021  2.6019
19908SOL    HW263641   1.311   4.125   0.125  0.7834  0.1914 -2.4591
19909SOL     OW63642   5.481   2.594   9.499  0.0733 -0.3691 -0.1530
19909SOL    HW163643   5.390   2.623   9.490  0.3594  1.1067  1.2366
19909SOL    HW263644   5.499   2.546   9.419 -2.0950 -1.1645 -0.2224
19910SOL     OW63645   2.072   0.976   6.601  0.2145  0.7127 -0.0229
19910SOL    HW163646   1.992   0.948   6.556 -0.2342  0.2938  0.9806
19910SOL    HW263647   2.073   1.071   6.593 -1.5303  0.9473  1.7065
19911SOL     OW63648   9.630   2.919   7.740  0.1268 -0.9888 -0.1133
19911SOL    HW163649   9.624   2.908   7.834 -1.9606  0.4828 -0.0091
19911SOL    HW263650   9.577   2.996   7.721  0.7008 -1.0852 -2.4710
19912SOL     OW63651   3.237   7.918   9.278  0.2792  0.0139 -0.1760
19912SOL    HW163652   3.206   7.968   9.202  3.1292  1.2461 -0.6875
19912SOL    HW263653   3.252   7.985   9.345 -0.6678 -0.8693  0.9394
19913SOL     OW63654   0.949   9.795   9.810 -0.1144 -0.0062 -0.0738
19913SOL    HW163655   0.954   9.705   9.840  0.1538 -0.4611 -1.4474
19913SOL    HW263656   0.855   9.816   9.812 -0.2860 -0.6922 -0.8338
19914SOL     OW63657   8.639   4.796   7.028 -0.0546 -0.3058  0.1032
19914SOL    HW163658   8.715   4.741   7.009 -0.0050 -0.5329  0.9312
19914SOL    HW263659   8.611   4.828   6.942  1.2257  0.1146 -0.1776
19915SOL     OW63660   0.946   9.624   4.432  0.0357  0.8517 -0.1124
19915SOL    HW163661   0.987   9.639   4.347  2.7097  0.3351  0.9975
19915SOL    HW263662   0.976   9.696   4.487  0.3474 -0.1107  1.0294
19916SOL     OW63663   6.141   7.306   5.978 -0.4975  0.3768  0.3778
19916SOL    HW163664   6.154   7.348   5.893  2.3110  1.2007  1.1288
19916SOL    HW263665   6.095   7.373   6.030  0.8292  1.2284  0.5007
19917SOL     OW63666   8.698   0.008   0.411  0.1686 -0.2593  0.3133
19917SOL    HW163667   8.753   0.014   0.333 -0.7754  1.6680 -0.2724
19917SOL    HW263668   8.759  -0.015   0.482  1.4098  0.0388 -0.6227
19918SOL     OW63669   4.903   3.487   6.142 -0.0246 -0.5671 -0.7577
19918SOL    HW163670   4.929   3.540   6.066  1.6269  1.9153  1.3648
19918SOL    HW263671   4.985   3.453   6.177 -0.7110 -1.3545  0.1384
19919SOL     OW63672   4.914   7.997   0.767  0.3345  0.1710 -0.0437
19919SOL    HW163673   4.851   7.997   0.839  0.4517  1.5783  0.0988
19919SOL    HW263674   4.958   7.913   0.773 -1.0532 -0.5694  0.2749
19920SOL     OW63675   8.243   9.359   7.347 -0.7470 -0.0377  0.2826
19920SOL    HW163676   8.177   9.395   7.287 -0.4857  0.4966  0.3118
19920SOL    HW263677   8.305   9.313   7.290 -2.0166 -1.9888  0.3805
19921SOL     OW63678   3.913   1.361   3.178  0.2938  0.0911 -0.4311
19921SOL    HW163679   3.981   1.311   3.132 -0.6208 -3.0071  1.2952
19921SOL    HW263680   3.957   1.393   3.257  0.1324 -0.7612  0.0192
19922SOL     OW63681  10.202   9.418   7.120  0.1244 -0.0851  0.7598
19922SOL    HW163682  10.145   9.342   7.133  0.5686 -0.4789  0.4172
19922SOL    HW263683  10.199   9.465   7.203 -0.7789 -0.0462  0.7212
19923SOL     OW63684   5.450   3.029   9.806 -0.6177 -0.2036 -0.5732
19923SOL    HW163685   5.467   3.026   9.900 -2.7532 -1.7829 -0.1760
19923SOL    HW263686   5.506   2.961   9.769 -0.4143 -0.1678 -0.3309
19924SOL     OW63687   4.219   6.273   1.690 -0.1049  0.6970 -0.1412
19924SOL    HW163688   4.163   6.216   1.742  1.5116 -0.3352  0.5502
19924SOL    HW263689   4.272   6.214   1.637  1.6724  1.4897  0.6449
19925SOL     OW63690   6.655   6.449   5.697 -0.4031 -0.3286  0.6021
19925SOL    HW163691   6.744   6.458   5.662 -1.5338  1.7634 -2.1062
19925SOL    HW263692   6.633   6.537   5.727 -1.8630 -0.5947  0.3481
19926SOL     OW63693   2.286   0.870   9.809 -0.4298  0.1477 -0.1480
19926SOL    HW163694   2.350   0.845   9.876 -0.3647 -0.2403 -0.3557
19926SOL    HW263695   2.235   0.940   9.850  0.9520  1.3655 -0.4481
19927SOL     OW63696   7.391   5.555   2.770  0.1736  0.0509 -0.0244
19927SOL    HW163697   7.325   5.524   2.832  1.0024 -2.1189 -0.1627
19927SOL    HW263698   7.474   5.546   2.817  0.6619 -0.1123 -0.9021
19928SOL     OW63699   3.107   8.686   0.103 -0.5057 -0.3673 -0.2625
19928SOL    HW163700   3.133   8.735   0.181 -0.0995 -1.8357  0.5603
19928SOL    HW263701   3.180   8.697   0.042  0.0435 -0.7684  0.3094
19929SOL     OW63702   8.331   3.718   2.803 -0.2788  0.4431  0.0376
19929SOL    HW163703   8.252   3.667   2.787 -1.2216  2.0505 -0.6694
19929SOL    HW263704   8.307   3.778   2.873  0.6623  0.2771  0.5328
19930SOL     OW63705   5.086   5.754   1.822 -0.5000  0.2016 -0.0462
19930SOL    HW163706   5.052   5.730   1.736 -1.3953 -0.5739  0.5072
19930SOL    HW263707   5.039   5.834   1.845  0.1426  0.7282 -0.4912
19931SOL     OW63708   8.717   5.449   4.658  0.0237  0.5144 -0.3313
19931SOL    HW163709   8.655   5.414   4.723  0.5012  0.4968  0.1206
19931SOL    HW263710   8.775   5.375   4.638 -0.8556  0.1514 -1.7067
19932SOL     OW63711   4.345   9.998   4.232 -0.4159  0.2278  0.0375
19932SOL    HW163712   4.279  10.063   4.208 -1.8123 -0.8645  0.7458
19932SOL    HW263713   4.308   9.915   4.202  0.2960 -0.4953  1.0983
19933SOL     OW63714   7.450   0.029   8.088  0.0236 -0.0828 -0.4268
19933SOL    HW163715   7.484  -0.054   8.122  1.0330 -0.3064 -1.9282
19933SOL    HW263716   7.364   0.006   8.052 -0.2399 -0.2080  0.2499
19934SOL     OW63717   7.498   3.234   6.657  0.2485 -0.6566 -0.1752
19934SOL    HW163718   7.544   3.304   6.611 -0.7163 -1.1305 -1.9450
19934SOL    HW263719   7.405   3.252   6.642 -0.0587 -1.3661  0.7928
19935SOL     OW63720   8.699  10.119   1.971 -0.3724 -0.0929 -0.2827
19935SOL    HW163721   8.747  10.196   2.001 -1.9371  0.7505  0.1960
19935SOL    HW263722   8.621  10.117   2.026 -0.4577 -1.9372 -0.4188
19936SOL     OW63723   7.237   2.767   7.692 -0.4650  0.3119  0.5322
19936SOL    HW163724   7.307   2.755   7.756 -1.3867  0.0125  1.4944
19936SOL    HW263725   7.230   2.682   7.648  1.6642  1.1039 -1.5833
19937SOL     OW63726   0.401   0.313   0.925 -0.0665 -0.2293 -0.6250
19937SOL    HW163727   0.478   0.292   0.871 -0.3018 -2.8900 -0.0606
19937SOL    HW263728   0.437   0.365   0.997  1.1633 -1.0842 -0.5809
19938SOL     OW63729   7.787   1.134   4.873 -0.5059  0.5518  0.4807
19938SOL    HW163730   7.760   1.162   4.786 -0.7318  0.6669  0.5870
19938SOL    HW263731   7.880   1.157   4.879  0.6085 -2.7796 -1.1316
19939SOL     OW63732   5.007   0.775   6.683 -0.1733 -0.4705 -0.3555
19939SOL    HW163733   4.977   0.716   6.752  1.1065 -1.0980 -0.3006
19939SOL    HW263734   5.095   0.802   6.712 -0.3203  0.6391 -0.8900
19940SOL     OW63735   2.252   8.952   9.997 -0.3515  0.6663  0.3475
19940SOL    HW163736   2.345   8.969  10.011 -0.6605  1.5677  1.4188
19940SOL    HW263737   2.216   9.036   9.970 -0.6453  0.0212 -1.4597
19941SOL     OW63738   3.454   9.184   4.873 -0.4768  0.1232 -0.4473
19941SOL    HW163739   3.396   9.240   4.822 -0.8386 -2.1403 -2.7221
19941SOL    HW263740   3.402   9.160   4.950 -1.5292  0.2838 -1.0970
19942SOL     OW63741   9.684   2.696   3.241 -0.7968  0.1950  0.3929
19942SOL    HW163742   9.623   2.629   3.210 -0.4205 -0.7303  1.5669
19942SOL    HW263743   9.638   2.737   3.314 -0.5835  0.4555  0.3815
19943SOL     OW63744   3.159   8.082   7.398  0.0498  0.3638 -0.3377
19943SOL    HW163745   3.091   8.017   7.410  0.5909  0.1886  2.2842
19943SOL    HW263746   3.239   8.032   7.384  0.1369  0.5085 -0.3710
19944SOL     OW63747   9.630   2.164   1.414 -0.1523  0.4263 -0.2099
19944SOL    HW163748   9.624   2.108   1.337 -0.6874  0.0869  0.0728
19944SOL    HW263749   9.642   2.103   1.487  1.2632  0.7829 -0.1059
19945SOL     OW63750   8.683   3.746   1.041  0.3427 -0.0980  0.0057
19945SOL    HW163751   8.634   3.756   0.960  1.2734  0.8464 -0.4633
19945SOL    HW263752   8.660   3.658   1.073  0.4312 -0.7289 -1.5967
19946SOL     OW63753   2.809   4.565   3.391 -0.0841 -0.8551  0.0121
19946SOL    HW163754   2.742   4.537   3.453 -1.7454  1.2868 -0.6829
19946SOL    HW263755   2.761   4.580   3.309  1.1545  1.0126 -0.4456
19947SOL     OW63756   6.318   9.617   3.593  0.3775  0.1120 -0.2441
19947SOL    HW163757   6.361   9.617   3.678  0.2941 -0.9284 -0.1890
19947SOL    HW263758   6.389   9.599   3.531  0.4166  0.7391 -0.3868
19948SOL     OW63759   5.145   0.735   8.518 -0.2499 -0.2148 -0.4995
19948SOL    HW163760   5.218   0.714   8.576 -0.8349  1.4271  0.9137
19948SOL    HW263761   5.068   0.737   8.576 -1.4673 -1.8590 -1.9384
19949SOL     OW63762   4.981   8.161   4.166  0.7592  0.6487 -0.1219
19949SOL    HW163763   5.007   8.195   4.251  1.2415  0.6106 -0.2556
19949SOL    HW263764   4.938   8.078   4.185  0.8473  0.6495  0.0835
19950SOL     OW63765   5.296   6.748   2.432 -0.2825 -0.5197 -0.3316
19950SOL    HW163766   5.237   6.823   2.441 -0.1726 -0.3680 -0.8816
19950SOL    HW263767   5.377   6.785   2.396 -0.3223 -0.9486 -0.8615
19951SOL     OW63768   2.682   0.546   6.290 -0.3161 -0.0209 -0.3263
19951SOL    HW163769   2.741   0.602   6.340  0.0237 -2.2130  1.9290
19951SOL    HW263770   2.594   0.570   6.321 -0.3161  0.4385 -0.6697
19952SOL     OW63771   3.831   7.036   0.606 -0.7724  1.3608 -0.7016
19952SOL    HW163772   3.826   7.127   0.635 -2.4354  0.5047  2.0778
19952SOL    HW263773   3.902   6.998   0.659 -1.7782  0.4895  0.0693
19953SOL     OW63774   3.666   1.501   8.786  0.2193 -0.1347 -0.1713
19953SOL    HW163775   3.632   1.550   8.861 -0.5693  1.0830 -1.2752
19953SOL    HW263776   3.591   1.496   8.725  1.0031 -0.5563 -1.1275
19954SOL     OW63777   0.593   1.270   2.565 -0.1780 -0.8870 -0.5701
19954SOL    HW163778   0.506   1.229   2.558 -0.5586 -0.4783  1.2780
19954SOL    HW263779   0.654   1.199   2.542 -0.9059 -2.0379  0.8364
19955SOL     OW63780   5.295   1.570   8.318  0.5153  0.9092 -0.4711
19955SOL    HW163781   5.213   1.615   8.338 -0.1339 -0.1551 -0.6573
19955SOL    HW263782   5.288   1.549   8.225  0.4852 -0.1736 -0.2429
19956SOL     OW63783   2.333   9.387   4.154 -0.5570 -0.1386  0.7491
19956SOL    HW163784   2.425   9.360   4.152 -0.9233 -1.4381 -0.9019
19956SOL    HW263785   2.327   9.447   4.227  1.3557 -0.9655  1.6462
19957SOL     OW63786   5.883   4.689   8.820 -0.4153 -0.2085  0.3032
19957SOL    HW163787   5.969   4.673   8.858 -1.1451 -1.0155  1.6808
19957SOL    HW263788   5.829   4.719   8.893 -2.1215 -2.7176  0.1842
19958SOL     OW63789   1.789   3.341   5.268  0.5456  0.8875  0.7437
19958SOL    HW163790   1.744   3.398   5.331  1.2391  1.2984  0.8745
19958SOL    HW263791   1.846   3.286   5.322  1.0809  1.1827  0.4799
19959SOL     OW63792   3.535   9.282   1.784 -0.6375 -0.1285  0.0764
19959SOL    HW163793   3.495   9.312   1.703  0.4101  2.9407  0.5918
19959SOL    HW263794   3.593   9.210   1.757  1.1963  2.0567 -2.3031
19960SOL     OW63795   1.597   9.848   3.168  0.4865 -0.1750  0.0984
19960SOL    HW163796   1.540   9.901   3.113 -0.2370  0.3104  1.2669
19960SOL    HW263797   1.614   9.903   3.245 -1.3330 -2.0263  1.9686
19961SOL     OW63798   4.989   4.101   8.275 -0.1769 -0.4732  0.6005
19961SOL    HW163799   5.038   4.070   8.199  0.8225  1.7433  0.2592
19961SOL    HW263800   5.054   4.102   8.346 -0.1196  0.9242  0.5519
19962SOL     OW63801   5.106   9.009   3.366 -0.1024 -0.5316  0.4648
19962SOL    HW163802   5.187   9.016   3.315 -0.4316  1.9046  0.1881
19962SOL    HW263803   5.038   8.991   3.301 -0.1269 -0.2154  0.4043
19963SOL     OW63804   6.236   8.713   0.137 -0.4753  0.3220 -0.0403
19963SOL    HW163805   6.271   8.745   0.054  1.5458  0.9707  0.9891
19963SOL    HW263806   6.250   8.619   0.135  0.5888  0.4677 -0.0139
19964SOL     OW63807   3.769   3.761   0.285  0.4167  0.2219  0.2881
19964SOL    HW163808   3.711   3.750   0.360  0.9366 -0.6256  0.5802
19964SOL    HW263809   3.714   3.741   0.209  0.0973  0.3151  0.4905
19965SOL     OW63810   3.089   4.976   4.113  0.3702 -0.1701  0.7155
19965SOL    HW163811   3.094   5.028   4.194 -0.0576 -0.0801  0.6887
19965SOL    HW263812   2.996   4.955   4.104  0.4590 -0.4377  0.4072
19966SOL     OW63813   3.827   2.782   4.698 -0.2640 -0.3069  0.1081
19966SOL    HW163814   3.836   2.714   4.766 -0.4368 -0.4998 -0.0630
19966SOL    HW263815   3.767   2.744   4.634  0.0448 -0.1974 -0.2471
19967SOL     OW63816   7.822   3.224   0.290  0.7678 -0.0351  0.3887
19967SOL    HW163817   7.796   3.189   0.204  1.0667  0.1625  0.2162
19967SOL    HW263818   7.834   3.146   0.344  0.2744 -0.1457  0.3372
19968SOL     OW63819  10.088   7.804   5.483  0.0305  0.3556  0.0382
19968SOL    HW163820  10.020   7.851   5.435  0.0432  0.1872 -0.1484
19968SOL    HW263821  10.131   7.750   5.416  1.4283  1.6715 -0.1835
19969SOL     OW63822   9.980   7.557   7.535  0.3190 -0.2534  0.1322
19969SOL    HW163823  10.048   7.572   7.601 -1.7993  2.4256  1.9037
19969SOL    HW263824   9.919   7.497   7.578 -0.6746  0.8891  0.3414
19970SOL     OW63825   0.731   7.382   1.007 -0.0231  0.0171  0.2597
19970SOL    HW163826   0.798   7.450   1.011 -0.4766  0.5367 -0.5431
19970SOL    HW263827   0.761   7.324   0.937  0.4166 -0.6851  1.0145
19971SOL     OW63828   6.723   2.478   8.642 -0.0469  0.1100  0.3500
19971SOL    HW163829   6.791   2.460   8.706  0.2423 -0.0487  0.0041
19971SOL    HW263830   6.768   2.522   8.570 -0.5811  1.3939  0.7719
19972SOL     OW63831   7.798   6.256   1.190  0.5801 -0.0643  0.4582
19972SOL    HW163832   7.715   6.247   1.237  0.4553  0.8665  0.4297
19972SOL    HW263833   7.838   6.335   1.226  0.6295  0.4895 -0.7406
19973SOL     OW63834   3.446  10.132   8.411 -0.3430 -0.2094  0.1818
19973SOL    HW163835   3.528  10.091   8.386  0.6151  0.6432  1.7971
19973SOL    HW263836   3.437  10.115   8.505 -2.8621 -1.6770 -0.2125
19974SOL     OW63837   2.623   9.945  10.104 -0.6867 -0.5202 -0.3751
19974SOL    HW163838   2.628   9.871  10.164  0.4218 -0.6268 -0.5685
19974SOL    HW263839   2.673   9.917  10.028  0.9341  0.9206  0.1004
19975SOL     OW63840   3.966   7.976   5.771  0.2637 -0.0664  0.8293
19975SOL    HW163841   3.901   7.943   5.709  1.0651 -0.0427 -0.0493
19975SOL    HW263842   3.919   7.981   5.854 -1.4118  1.7673 -0.1382
19976SOL     OW63843   3.247   5.037   0.143 -0.0645 -0.5219  0.1473
19976SOL    HW163844   3.279   4.953   0.175 -1.0068 -0.5896  0.9441
19976SOL    HW263845   3.178   5.062   0.205 -0.0614  0.6503 -0.2976
19977SOL     OW63846   2.057   7.444   0.845  0.1073  0.2177 -0.2154
19977SOL    HW163847   2.125   7.503   0.811  1.9783 -2.1542 -0.8251
19977SOL    HW263848   2.009   7.416   0.767  0.4200 -0.4644 -0.1669
19978SOL     OW63849   5.426   2.524   7.394  0.0475 -0.0725 -0.3105
19978SOL    HW163850   5.418   2.611   7.434 -2.1117 -0.1681 -0.3977
19978SOL    HW263851   5.446   2.542   7.302  1.2572  0.2693  0.0129
19979SOL     OW63852   3.150   7.202   1.314  0.9968 -0.2242 -0.0945
19979SOL    HW163853   3.162   7.264   1.386 -0.3454 -0.0959  0.0610
19979SOL    HW263854   3.070   7.233   1.271  0.4993 -1.6476 -0.2264
19980SOL     OW63855   8.494   9.276   8.474 -0.1484  0.9836 -0.1651
19980SOL    HW163856   8.433   9.348   8.459  0.1141  1.0088 -1.1717
19980SOL    HW263857   8.513   9.280   8.568  0.0839  2.4134 -0.2520
19981SOL     OW63858   8.473   7.699   8.725  0.6784  0.2545  0.6568
19981SOL    HW163859   8.477   7.635   8.796 -0.1324 -0.0423  0.4411
19981SOL    HW263860   8.563   7.705   8.694  1.6249  2.3210  3.3754
19982SOL     OW63861   8.759   4.157   5.529  0.3882 -0.2834  0.1605
19982SOL    HW163862   8.781   4.206   5.450 -0.8840 -1.5774 -1.0506
19982SOL    HW263863   8.666   4.173   5.542  0.9325  1.5505  2.6449
19983SOL     OW63864   1.316   7.567   8.133 -0.1972 -0.1266  0.1490
19983SOL    HW163865   1.226   7.538   8.143 -0.3031 -0.6076 -1.7564
19983SOL    HW263866   1.369   7.490   8.154 -0.0936  0.6355  3.0159
19984SOL     OW63867   1.276   4.126   0.971  0.0953 -0.2142 -0.6201
19984SOL    HW163868   1.307   4.147   0.883  1.0009 -1.1372 -0.5450
19984SOL    HW263869   1.190   4.167   0.977 -0.0633 -0.3015 -2.0089
19985SOL     OW63870   5.615   1.299   8.780 -0.2401  0.3172 -0.3472
19985SOL    HW163871   5.527   1.290   8.815  0.1180 -2.5728  0.0281
19985SOL    HW263872   5.611   1.258   8.693  0.9666 -1.1039  0.2154
19986SOL     OW63873   1.204   4.575   8.696 -0.1229 -0.1810  0.0409
19986SOL    HW163874   1.222   4.649   8.753 -0.5910 -1.3112  1.7353
19986SOL    HW263875   1.277   4.572   8.635 -0.0899  1.6335 -0.0542
19987SOL     OW63876   5.088   3.991   4.371  0.3947  0.0795 -0.7066
19987SOL    HW163877   5.041   4.068   4.338 -2.0035 -1.4598 -1.1354
19987SOL    HW263878   5.097   3.934   4.294  1.9906 -0.2031 -0.3548
19988SOL     OW63879   9.650   7.601   6.090  0.0085  0.0813 -0.0066
19988SOL    HW163880   9.720   7.547   6.129 -1.1653 -1.9808 -0.5828
19988SOL    HW263881   9.674   7.608   5.997 -0.0980  0.1146 -0.0322
19989SOL     OW63882   8.651   2.133  10.166 -0.1753  0.4487  0.1030
19989SOL    HW163883   8.646   2.038  10.171 -0.1636  0.5188  2.2209
19989SOL    HW263884   8.737   2.151  10.126 -0.0595 -0.4179 -0.0473
19990SOL     OW63885   6.318   2.518   9.194  0.1978  0.1491  0.2728
19990SOL    HW163886   6.226   2.513   9.168 -0.2845 -1.3753  2.0853
19990SOL    HW263887   6.366   2.486   9.117 -0.6889  1.5485 -0.9312
19991SOL     OW63888   1.629   8.857   8.854  0.4021  0.0972 -0.1504
19991SOL    HW163889   1.540   8.850   8.821 -0.0422  0.6121  0.8867
19991SOL    HW263890   1.645   8.773   8.899  0.0260  0.4277  0.6158
19992SOL     OW63891   1.601   6.576   5.708 -0.2210  0.0921  0.2523
19992SOL    HW163892   1.593   6.587   5.613 -2.1662  1.0960  0.5024
19992SOL    HW263893   1.598   6.481   5.720 -0.6167 -0.0264 -0.6426
19993SOL     OW63894   0.978   6.364   2.836  0.3621  0.0428 -0.4101
19993SOL    HW163895   0.990   6.330   2.747  0.4875 -0.5717 -0.1641
19993SOL    HW263896   0.975   6.286   2.891  1.6975  0.4494  0.2938
19994SOL     OW63897   1.450  10.194   1.276  0.2587  0.5684 -0.2205
19994SOL    HW163898   1.375  10.214   1.219  0.0608 -1.1575 -0.6017
19994SOL    HW263899   1.511  10.146   1.219 -0.4932 -2.3491  1.2573
19995SOL     OW63900   4.096   7.675   2.227 -1.3762 -0.1228 -0.0176
19995SOL    HW163901   4.119   7.766   2.209 -1.1791  0.3070  2.0834
19995SOL    HW263902   4.007   7.680   2.263 -2.2343 -1.0334 -1.9068
19996SOL     OW63903   7.315   1.411   6.907 -0.1728 -0.3536  0.6168
19996SOL    HW163904   7.238   1.457   6.873  1.0695  0.0179 -1.8992
19996SOL    HW263905   7.318   1.436   7.000 -1.4329  1.9831  0.1100
19997SOL     OW63906   6.953   5.055   4.037  0.1859  0.1163 -0.0998
19997SOL    HW163907   6.906   5.045   3.955  1.0560 -1.3099 -0.4656
19997SOL    HW263908   7.004   4.974   4.045  2.7864  1.6658  0.1317
19998SOL     OW63909   2.891   6.098   9.036 -0.2001  0.4522 -0.2114
19998SOL    HW163910   2.817   6.158   9.028  1.1079  2.2483  0.6940
19998SOL    HW263911   2.925   6.091   8.947  0.0107  1.5866 -0.2347
19999SOL     OW63912   2.697   6.036   7.301 -0.1378  0.1218  0.0770
19999SOL    HW163913   2.674   5.971   7.367 -0.6849  0.9501  0.7208
19999SOL    HW263914   2.619   6.041   7.245 -0.6474  1.1840  0.8369
20000SOL     OW63915   5.400   8.830   7.820 -0.5582  0.0061 -0.4092
20000SOL    HW163916   5.494   8.837   7.833 -0.7317  0.4545  0.7401
20000SOL    HW263917   5.367   8.919   7.834 -1.1425 -0.1124 -0.9684
20001SOL     OW63918   2.488   7.687   0.011  0.0734 -0.2823  0.1275
20001SOL    HW163919   2.398   7.697  -0.020  0.8839  0.0775 -2.3026
20001SOL    HW263920   2.526   7.774   0.004  1.1623 -0.8019 -0.8212
20002SOL     OW63921   4.765   2.919   3.142 -0.0016  0.0840  0.2547
20002SOL    HW163922   4.770   2.853   3.073  1.5031  0.1129  0.2983
20002SOL    HW263923   4.787   2.871   3.222  1.7113  0.7072  0.2024
20003SOL     OW63924   9.734   1.671   6.857 -0.2829  0.5072 -0.3943
20003SOL    HW163925   9.656   1.687   6.909 -0.9425  3.6368 -2.0644
20003SOL    HW263926   9.803   1.655   6.921 -1.9799 -0.9349  1.1655
20004SOL     OW63927   3.715   5.212   6.339 -0.0502 -0.0195 -0.2058
20004SOL    HW163928   3.802   5.218   6.380 -1.2814 -0.0799  2.6390
20004SOL    HW263929   3.672   5.294   6.364 -1.0815 -0.3121 -0.9746
20005SOL     OW63930   5.886   2.172   9.340 -0.1060  0.0215  0.1381
20005SOL    HW163931   5.961   2.113   9.331 -0.3450 -0.0996 -1.2692
20005SOL    HW263932   5.821   2.138   9.279 -1.7767 -0.5158  2.1073
20006SOL     OW63933   2.699   8.249   4.593  0.6549 -0.1326 -0.2554
20006SOL    HW163934   2.726   8.296   4.515  0.2182 -0.1960 -0.4459
20006SOL    HW263935   2.769   8.266   4.657  1.0115 -0.0873 -0.6579
20007SOL     OW63936   4.012   7.053   2.804  0.2710 -0.2421  0.1803
20007SOL    HW163937   3.941   6.989   2.790 -1.4837  1.4998  0.6846
20007SOL    HW263938   3.969   7.138   2.799  2.5618  0.9426 -0.5383
20008SOL     OW63939   3.001   6.312   3.617 -0.0471  0.7366  0.7887
20008SOL    HW163940   2.936   6.249   3.647 -1.5035  2.1644  0.7637
20008SOL    HW263941   3.079   6.294   3.670 -0.0257 -1.7363  0.0551
20009SOL     OW63942   3.016   0.605   6.341 -0.2677  0.3172 -0.0967
20009SOL    HW163943   2.949   0.672   6.332  0.0412  0.6441 -0.0159
20009SOL    HW263944   2.973   0.523   6.315 -0.3936  0.6842 -1.1117
20010SOL     OW63945   2.014   9.818   0.173 -0.3796 -0.1228  0.7131
20010SOL    HW163946   2.050   9.835   0.260  0.1920  1.5556  0.1862
20010SOL    HW263947   1.923   9.848   0.179 -0.5811 -0.7477  0.9319
20011SOL     OW63948   6.110   4.555   3.878 -0.0184  0.2834 -0.2260
20011SOL    HW163949   6.077   4.520   3.795 -2.1751  0.2813  0.5647
20011SOL    HW263950   6.148   4.640   3.855  1.0805 -0.4935 -1.4570
20012SOL     OW63951   5.123   0.994   4.894 -0.0577  0.5996 -0.3744
20012SOL    HW163952   5.139   0.955   4.980 -0.7897 -0.4749 -0.7150
20012SOL    HW263953   5.205   1.036   4.871  1.3662 -2.1825 -0.7526
20013SOL     OW63954   8.593   0.791   4.554 -0.1987 -0.1087 -0.0679
20013SOL    HW163955   8.549   0.713   4.589 -0.7538 -0.8806 -2.3385
20013SOL    HW263956   8.683   0.762   4.535  0.4402  0.6109  1.6215
20014SOL     OW63957   6.606   1.873   9.343  0.8319  0.0736  0.5050
20014SOL    HW163958   6.583   1.780   9.346  0.1456  0.1911 -0.4881
20014SOL    HW263959   6.639   1.886   9.254  2.3901  0.4697  1.1063
20015SOL     OW63960   8.923   1.375   9.862  0.2237 -0.0943 -0.1548
20015SOL    HW163961   8.846   1.369   9.918 -0.6929 -0.0128 -1.3683
20015SOL    HW263962   8.912   1.306   9.797  1.8543 -0.9536  0.4158
20016SOL     OW63963   1.152   9.115   1.500 -0.4827 -0.1335 -0.0329
20016SOL    HW163964   1.243   9.108   1.528 -0.2925 -0.1470 -0.6306
20016SOL    HW263965   1.118   9.191   1.547 -0.8921 -1.5787  2.1144
20017SOL     OW63966   0.810   3.401   8.334 -0.3756 -0.0935 -0.0522
20017SOL    HW163967   0.804   3.387   8.239 -0.1731 -0.3087 -0.0346
20017SOL    HW263968   0.804   3.496   8.345 -1.7762 -0.1507 -0.1727
20018SOL     OW63969   9.602   5.026   9.133 -0.6519 -0.5510 -0.7092
20018SOL    HW163970   9.510   5.038   9.108 -0.4948  0.4340 -0.8359
20018SOL    HW263971   9.649   5.095   9.087 -0.2087  0.6850  1.4399
20019SOL     OW63972   4.074   8.892   0.643 -0.0505 -0.2422  0.0228
20019SOL    HW163973   4.039   8.864   0.559 -0.2888 -2.5311  0.8075
20019SOL    HW263974   4.126   8.970   0.623 -0.8102 -0.2152 -2.0738
20020SOL     OW63975   3.259   3.323   9.375 -0.3373  0.1056  0.2914
20020SOL    HW163976   3.347   3.355   9.396  0.1307  0.4465 -2.0121
20020SOL    HW263977   3.210   3.336   9.456  1.5895  0.3336  1.5031
20021SOL     OW63978   1.423   1.736   1.726  0.0239 -0.0458  0.0194
20021SOL    HW163979   1.495   1.672   1.728  0.3030  0.2225 -0.9743
20021SOL    HW263980   1.426   1.777   1.812  1.2628  0.1728 -0.1121
20022SOL     OW63981   9.722   7.183   2.709  0.2174 -0.5831 -0.0980
20022SOL    HW163982   9.645   7.235   2.732 -0.2553 -1.0198 -0.6600
20022SOL    HW263983   9.769   7.171   2.791 -0.3223 -0.3252  0.2503
20023SOL     OW63984   0.539   7.797   0.822  0.2539  0.4675  0.3743
20023SOL    HW163985   0.513   7.837   0.905  0.2790 -0.1213  0.6728
20023SOL    HW263986   0.534   7.868   0.758  0.7834  1.0614  0.9813
20024SOL     OW63987   7.744   9.068   5.140  0.8358  0.1841 -0.4434
20024SOL    HW163988   7.802   9.031   5.074  0.3895  1.5802 -1.6913
20024SOL    HW263989   7.666   9.012   5.137  0.6025  0.5280 -1.5333
20025SOL     OW63990   6.603   1.985   7.587  0.1773  0.0063  0.0627
20025SOL    HW163991   6.603   1.946   7.499  0.7332 -0.8424  0.4241
20025SOL    HW263992   6.564   1.917   7.643 -1.6070  1.1084  0.2554
20026SOL     OW63993   7.490   2.747   5.478  0.1657  0.5119 -0.1405
20026SOL    HW163994   7.429   2.757   5.551 -0.0937 -0.9720 -0.1339
20026SOL    HW263995   7.464   2.816   5.416 -1.6701 -0.1839 -0.2096
20027SOL     OW63996   3.664   1.481   1.133 -0.1033 -0.4068 -0.1626
20027SOL    HW163997   3.631   1.457   1.219  0.2067 -0.4756 -0.0618
20027SOL    HW263998   3.757   1.459   1.135 -0.7208 -3.6969 -1.6686
20028SOL     OW63999   9.720   8.414   2.343 -0.1851  0.2026  0.4819
20028SOL    HW164000   9.752   8.470   2.414 -1.0691  2.9939 -1.1542
20028SOL    HW264001   9.630   8.393   2.368  0.5627 -1.7478  1.7440
20029SOL     OW64002   9.046   0.339   6.754  0.1848 -0.3809 -0.5417
20029SOL    HW164003   9.128   0.300   6.725  0.5384 -0.6096  0.7167
20029SOL    HW264004   8.984   0.320   6.684  0.6299 -2.2339 -0.4809
20030SOL     OW64005   8.860   8.656   5.546  0.0277 -0.3083  0.2462
20030SOL    HW164006   8.869   8.735   5.598  2.0287 -0.6691  0.5246
20030SOL    HW264007   8.812   8.684   5.468  0.3239  1.0798  0.5344
20031SOL     OW64008   5.038   7.286   9.286 -0.3294  0.8649  0.0942
20031SOL    HW164009   4.993   7.335   9.217 -0.2982  0.3873 -0.2771
20031SOL    HW264010   5.050   7.349   9.357 -0.9240  1.1964 -0.0937
20032SOL     OW64011   1.468   3.049   5.735  0.3470  0.0232 -0.3191
20032SOL    HW164012   1.431   3.016   5.817 -1.1830 -0.6572 -1.2445
20032SOL    HW264013   1.563   3.040   5.746  0.2500  1.1620  1.8664
20033SOL     OW64014   8.644   8.331   5.163  0.2620  0.4357 -0.4285
20033SOL    HW164015   8.617   8.379   5.242  1.1607 -1.3452  1.0246
20033SOL    HW264016   8.736   8.311   5.177  0.8899  1.4179 -2.6970
20034SOL     OW64017   0.719   2.966   7.842 -0.4632  0.0730 -0.3239
20034SOL    HW164018   0.632   2.978   7.804 -1.2164  2.8381  1.8734
20034SOL    HW264019   0.766   3.047   7.821 -0.4511  1.1252  3.0976
20035SOL     OW64020   9.639   7.227   3.910 -0.5370  0.1640  0.3317
20035SOL    HW164021   9.604   7.189   3.830  1.5343 -1.2556  0.0299
20035SOL    HW264022   9.712   7.282   3.881 -0.7691  0.9220  1.1274
20036SOL     OW64023   5.346   4.364   0.921 -0.0912  0.6253 -0.2846
20036SOL    HW164024   5.311   4.374   0.832  1.0918  0.2961 -0.8205
20036SOL    HW264025   5.388   4.449   0.939  1.7036 -0.0418 -1.0205
20037SOL     OW64026   5.655   7.588   7.913 -0.4771  0.6778 -0.7189
20037SOL    HW164027   5.600   7.515   7.886  0.5409 -0.3647 -0.0893
20037SOL    HW264028   5.740   7.548   7.932 -0.4438  1.6765  1.6029
20038SOL     OW64029   4.257   9.555   9.012  0.2320 -0.6048  0.3147
20038SOL    HW164030   4.259   9.460   9.014  0.8961 -0.6591 -1.5857
20038SOL    HW264031   4.194   9.577   8.943 -0.3286  0.3632  1.0951
20039SOL     OW64032   8.645   7.834   4.557  0.2230  0.3142  0.0123
20039SOL    HW164033   8.588   7.898   4.515 -1.3893 -0.0488  1.5374
20039SOL    HW264034   8.646   7.760   4.497 -0.0958  0.7202 -0.5003
20040SOL     OW64035   2.725   0.836   2.126  0.2580  0.1252  0.0146
20040SOL    HW164036   2.655   0.812   2.186  0.6759 -0.3218  0.3424
20040SOL    HW264037   2.805   0.810   2.172  0.5441 -1.1059 -1.1117
20041SOL     OW64038   6.284   5.118   2.499 -0.5402  0.1679 -0.5789
20041SOL    HW164039   6.278   5.041   2.556  0.6679 -0.3285 -1.0699
20041SOL    HW264040   6.194   5.144   2.484 -0.9241 -0.3570  0.6638
20042SOL     OW64041   9.009   3.985   4.163 -0.4590  0.5916  0.5073
20042SOL    HW164042   9.097   4.024   4.168 -0.1554 -0.0451  0.2715
20042SOL    HW264043   8.980   4.004   4.073  0.2385 -0.8365 -0.0569
20043SOL     OW64044   8.813   8.082   7.905 -0.2581  0.0843  0.3087
20043SOL    HW164045   8.837   8.095   7.997  0.9274  2.9928 -0.3055
20043SOL    HW264046   8.863   8.006   7.877  0.7840  0.2592  1.6156
20044SOL     OW64047   0.725   9.289   2.432 -0.4984  0.1175  0.7654
20044SOL    HW164048   0.637   9.328   2.425 -0.1667  0.9589  1.1856
20044SOL    HW264049   0.718   9.228   2.506 -1.2059 -1.1627 -0.3168
20045SOL     OW64050   4.967   7.979   8.501 -0.2978  0.0292  0.9038
20045SOL    HW164051   4.894   7.984   8.563 -0.3209 -0.3587  0.9125
20045SOL    HW264052   4.924   7.974   8.415 -0.2969  3.6952  0.5121
20046SOL     OW64053   5.991   4.541   4.518  0.3560 -0.0189 -0.1154
20046SOL    HW164054   5.926   4.550   4.588  1.0168 -0.5720  0.5973
20046SOL    HW264055   5.956   4.473   4.460  0.1688 -0.1243  0.1194
20047SOL     OW64056   3.199   3.507   0.178 -0.3550 -0.1672 -0.2315
20047SOL    HW164057   3.293   3.517   0.162 -0.5527  1.1969 -0.6234
20047SOL    HW264058   3.191   3.513   0.273 -0.0032 -0.7829 -0.1549
20048SOL     OW64059   5.179   7.244   9.653  0.2928 -0.3994  0.4100
20048SOL    HW164060   5.201   7.185   9.581  1.0692  1.4397 -0.9339
20048SOL    HW264061   5.263   7.280   9.681 -0.0631 -0.6590  1.8820
20049SOL     OW64062   2.586   8.210   5.996  0.1498  0.5546 -0.0665
20049SOL    HW164063   2.511   8.151   5.990  1.3363 -1.1426  0.7200
20049SOL    HW264064   2.577   8.252   6.082  0.3271 -0.0401  0.2549
20050SOL     OW64065   3.884  10.120   3.678  0.1838  1.0532  0.1720
20050SOL    HW164066   3.979  10.124   3.678  0.1623  2.4728  0.9099
20050SOL    HW264067   3.856  10.208   3.653 -0.9552  0.3418 -1.1898
20051SOL     OW64068   5.863  10.099   5.441 -0.5600  0.4488 -0.3425
20051SOL    HW164069   5.801  10.106   5.368 -3.3802 -0.9083  1.6938
20051SOL    HW264070   5.815  10.135   5.515  0.5631 -1.8622  1.6338
20052SOL     OW64071   3.813   3.751   5.146  0.0075 -0.1173  0.7979
20052SOL    HW164072   3.770   3.823   5.101  0.2287  0.0040  0.7757
20052SOL    HW264073   3.778   3.672   5.104 -1.7296 -0.1126  2.1786
20053SOL     OW64074   0.527   6.278   6.996  0.0137 -0.0588 -0.0957
20053SOL    HW164075   0.548   6.303   6.906 -0.0323  0.4012  0.0207
20053SOL    HW264076   0.531   6.360   7.046  1.2850 -0.4916  0.5656
20054SOL     OW64077   8.237   5.686   2.877 -0.1725  0.2894 -0.4960
20054SOL    HW164078   8.214   5.594   2.889 -1.3608  0.4949 -1.1013
20054SOL    HW264079   8.333   5.688   2.884 -0.2567 -0.6846  1.4792
20055SOL     OW64080   3.713   2.083   2.910 -0.4568 -0.1114  0.1337
20055SOL    HW164081   3.684   2.030   2.836 -1.5805  0.1845  0.3441
20055SOL    HW264082   3.644   2.072   2.976 -1.3449  2.5003 -0.2357
20056SOL     OW64083   6.095   9.524   0.809 -0.1282  0.6433 -0.2769
20056SOL    HW164084   6.166   9.478   0.854 -1.8607  0.5721  2.6805
20056SOL    HW264085   6.091   9.609   0.852 -1.2698  0.9775 -1.0124
20057SOL     OW64086   7.552   5.951   4.751 -0.6573  0.3827 -0.2214
20057SOL    HW164087   7.500   5.982   4.677 -0.2978  0.1970 -0.5546
20057SOL    HW264088   7.595   6.029   4.785  0.4433  0.2290 -1.2127
20058SOL     OW64089   1.866   9.754   1.257  0.4723 -0.0281  0.0988
20058SOL    HW164090   1.948   9.798   1.239  0.0085  0.2680 -1.4280
20058SOL    HW264091   1.800   9.823   1.258 -0.0934 -0.5146 -1.1593
20059SOL     OW64092   5.592   0.696   9.964  0.2886  0.4012 -0.2230
20059SOL    HW164093   5.639   0.774   9.993 -0.5690  0.1875  1.8975
20059SOL    HW264094   5.627   0.625  10.018  0.2944 -0.5148 -1.3781
20060SOL     OW64095   0.045   7.995   4.517 -0.2862 -0.0070 -0.1713
20060SOL    HW164096  -0.038   8.017   4.559  0.5492  2.3321  0.3689
20060SOL    HW264097   0.086   7.933   4.577 -1.2484 -0.5239 -0.0263
20061SOL     OW64098   3.985   2.559  10.015  0.0707 -0.4402  0.3078
20061SOL    HW164099   3.972   2.507   9.935 -1.0672 -0.6175  0.6002
20061SOL    HW264100   3.900   2.559  10.058  0.5100  0.2085  1.2015
20062SOL     OW64101   8.054   1.704   4.205  0.3339  0.3179  0.1283
20062SOL    HW164102   7.960   1.717   4.193  0.4574  1.2610  0.0281
20062SOL    HW264103   8.086   1.681   4.118  0.3192  0.9385 -0.0510
20063SOL     OW64104   4.242   7.368   9.588  0.0427 -0.3071 -0.1306
20063SOL    HW164105   4.280   7.297   9.640  1.9950  1.2549  0.7196
20063SOL    HW264106   4.153   7.339   9.570  0.2947 -2.3130  1.4277
20064SOL     OW64107   5.237   3.401   7.773  0.2370  0.1403 -0.2223
20064SOL    HW164108   5.299   3.469   7.748 -0.5256  0.6843 -0.6859
20064SOL    HW264109   5.178   3.394   7.698  0.8512 -1.7034 -0.5807
20065SOL     OW64110   2.899  10.149   7.873 -0.6021  0.0791 -0.5061
20065SOL    HW164111   2.984  10.105   7.870 -1.3350 -1.3759 -0.8445
20065SOL    HW264112   2.841  10.087   7.916 -1.5458  0.9972 -0.3968
20066SOL     OW64113   3.585   6.669   6.881 -0.0149  0.2417 -0.2850
20066SOL    HW164114   3.546   6.756   6.880  0.1685  0.3355  0.2678
20066SOL    HW264115   3.562   6.631   6.796  1.1843  1.3842 -1.1557
20067SOL     OW64116   6.457   0.169   9.214 -0.0433  0.5928  0.1657
20067SOL    HW164117   6.409   0.210   9.142  2.5723  2.3945 -0.7117
20067SOL    HW264118   6.484   0.242   9.269  0.3758 -0.5047  1.4693
20068SOL     OW64119   3.341   6.654   7.268  0.2631 -0.0949  0.2776
20068SOL    HW164120   3.424   6.615   7.242  0.8683  0.8944  0.6789
20068SOL    HW264121   3.300   6.588   7.323  1.0531 -0.3544  0.5694
20069SOL     OW64122   1.305   0.332   4.503 -0.6043 -0.1637  0.6312
20069SOL    HW164123   1.228   0.365   4.458 -0.1813 -0.4837 -0.3595
20069SOL    HW264124   1.316   0.243   4.471  2.0775  0.8971 -1.9061
20070SOL     OW64125   7.979   9.637   8.753 -0.4148  0.1599 -0.0607
20070SOL    HW164126   7.890   9.645   8.786 -0.9984  1.6696 -1.8362
20070SOL    HW264127   7.981   9.693   8.676  1.8117 -0.6003 -0.6264
20071SOL     OW64128   8.903   4.917   5.564  0.5021 -0.2360  1.0362
20071SOL    HW164129   8.939   4.830   5.581 -0.9973 -0.9666  0.6501
20071SOL    HW264130   8.839   4.931   5.634 -0.0806  0.0538  0.4616
20072SOL     OW64131   7.097   5.109   8.525 -0.3121 -0.5655 -0.0825
20072SOL    HW164132   7.041   5.099   8.447  0.4895 -0.3762 -0.6951
20072SOL    HW264133   7.067   5.190   8.566 -1.8966 -1.5444  0.7927
20073SOL     OW64134   2.325   3.391   6.158  0.0905 -0.3208  0.3544
20073SOL    HW164135   2.368   3.344   6.086  1.3004 -0.0057  0.8541
20073SOL    HW264136   2.359   3.351   6.237 -0.2854  0.1730  0.7741
20074SOL     OW64137   2.463   4.116   6.753  0.5323 -0.4115 -0.4149
20074SOL    HW164138   2.544   4.084   6.792  1.1314  2.0895  0.5991
20074SOL    HW264139   2.448   4.201   6.795 -2.0466 -0.3036 -1.3598
20075SOL     OW64140   9.349   4.617   7.318  0.3252  0.3678  0.1315
20075SOL    HW164141   9.297   4.549   7.360 -1.6095  2.6329  1.7039
20075SOL    HW264142   9.326   4.611   7.225 -0.2858 -0.7021  0.3403
20076SOL     OW64143   5.421  10.003   3.101 -1.0200  0.0637  0.2318
20076SOL    HW164144   5.364   9.992   3.176 -0.3589  1.0531  0.9022
20076SOL    HW264145   5.509  10.010   3.138 -0.5775 -0.3804 -0.7000
20077SOL     OW64146   2.024   7.249   2.724 -0.3117  0.4182 -0.5058
20077SOL    HW164147   1.936   7.287   2.723  0.1715  1.6013  0.4289
20077SOL    HW264148   2.048   7.241   2.632 -1.3567  0.1399 -0.7721
20078SOL     OW64149   1.394   8.364   8.818 -0.1857  0.0320  0.3831
20078SOL    HW164150   1.310   8.320   8.807 -0.7988  1.4661 -0.9690
20078SOL    HW264151   1.452   8.319   8.757  0.2701 -1.4178  1.8116
20079SOL     OW64152   3.111   7.917   8.448  0.9480  0.2385  0.5698
20079SOL    HW164153   3.197   7.938   8.412  0.2930  0.5209 -0.8838
20079SOL    HW264154   3.110   7.961   8.534  3.1795 -1.8752  1.8136
20080SOL     OW64155   3.199   4.458   7.965 -0.0928 -0.0753  0.3878
20080SOL    HW164156   3.243   4.378   7.993  0.7143  0.2781  0.1549
20080SOL    HW264157   3.107   4.442   7.985 -0.4978 -2.3719 -2.6083
20081SOL     OW64158   1.671  10.167   3.725 -0.1127  0.1124 -0.2678
20081SOL    HW164159   1.647  10.233   3.790  1.1135  1.9920 -1.5840
20081SOL    HW264160   1.588  10.134   3.692 -0.7457 -0.6695  1.9894
20082SOL     OW64161   6.789   4.917   9.511 -0.0690  0.1948 -0.0988
20082SOL    HW164162   6.863   4.909   9.452  0.7751  2.5555  0.5311
20082SOL    HW264163   6.826   4.903   9.598 -0.6250  0.0956  0.1276
20083SOL     OW64164   0.400   0.915   2.218  0.5834  0.9550 -0.1376
20083SOL    HW164165   0.416   1.000   2.175  2.7115  0.7572  0.1656
20083SOL    HW264166   0.395   0.936   2.311  1.7343  0.7088 -0.0031
20084SOL     OW64167   8.159   0.260   1.683 -0.0252 -0.1546 -0.1012
20084SOL    HW164168   8.121   0.223   1.603  0.0738 -1.8107  0.5894
20084SOL    HW264169   8.204   0.187   1.724 -0.2901  0.6070  1.6033
20085SOL     OW64170   0.219  10.062   8.362  0.5374  0.7433  0.2496
20085SOL    HW164171   0.280  10.120   8.315  1.0274  0.2163  0.2228
20085SOL    HW264172   0.266   9.979   8.369 -0.7508 -0.1259 -1.0408
20086SOL     OW64173   3.593   3.819   6.156  0.4371 -0.2433  0.4352
20086SOL    HW164174   3.613   3.726   6.168  1.5170  0.0628  1.1890
20086SOL    HW264175   3.598   3.856   6.244  1.7284  0.8273 -0.0465
20087SOL     OW64176   5.320   6.540   5.935 -0.4475  0.0680  0.5648
20087SOL    HW164177   5.389   6.585   5.983 -0.4512 -1.4741  2.0945
20087SOL    HW264178   5.299   6.464   5.988 -2.2862 -0.3214 -0.6216
20088SOL     OW64179   2.656   7.449   9.956 -0.0907  0.2054  0.6868
20088SOL    HW164180   2.742   7.458   9.915 -0.2362 -0.2089  0.2816
20088SOL    HW264181   2.674   7.407  10.041  0.3550  2.2495  1.6535
20089SOL     OW64182   4.462   2.913   1.744  0.0590  0.0820 -0.0228
20089SOL    HW164183   4.384   2.880   1.789  0.4710  1.5524  1.8735
20089SOL    HW264184   4.498   2.836   1.700 -2.9003 -0.5082 -1.7588
20090SOL     OW64185   2.179   0.376   3.390 -0.5150 -0.3220 -0.1981
20090SOL    HW164186   2.115   0.366   3.460  0.0304  0.0212  0.3639
20090SOL    HW264187   2.129   0.367   3.309 -0.7354 -3.7227  0.1667
20091SOL     OW64188  10.039   2.413   2.437  0.1153 -0.3763 -0.1031
20091SOL    HW164189   9.958   2.393   2.390  0.0673 -0.7095  0.1225
20091SOL    HW264190  10.104   2.426   2.368 -0.4032  1.1460 -0.3456
20092SOL     OW64191  10.134  10.060   9.205 -0.1694 -0.4027  0.4829
20092SOL    HW164192  10.137  10.006   9.126  0.0955  0.8764 -0.4195
20092SOL    HW264193  10.041  10.066   9.227 -0.4254  0.5613 -0.7217
20093SOL     OW64194   2.522  10.055   2.352  0.3702  0.3263  0.0872
20093SOL    HW164195   2.544   9.965   2.331 -0.7298  0.4225 -1.6589
20093SOL    HW264196   2.459  10.049   2.424  0.7352 -0.2548  0.3632
20094SOL     OW64197   7.965   0.926   5.824 -0.2708 -0.0893 -0.3298
20094SOL    HW164198   7.871   0.920   5.808 -0.6825 -1.2264  2.0043
20094SOL    HW264199   8.004   0.865   5.762 -0.9863  0.8339 -1.7309
20095SOL     OW64200   3.519   3.937   1.459  0.3066 -0.2367 -0.4754
20095SOL    HW164201   3.471   3.912   1.380  0.4146  0.1099 -0.6524
20095SOL    HW264202   3.585   4.000   1.428  1.5949 -1.5070 -0.4172
20096SOL     OW64203   0.067   9.835   8.492  0.5447  0.0705  0.1462
20096SOL    HW164204  -0.003   9.770   8.484  1.4251 -0.9073  0.2311
20096SOL    HW264205   0.066   9.881   8.408  0.5906 -0.7507 -0.3133
20097SOL     OW64206   5.596   1.819   6.990 -0.0179 -0.2710 -0.4815
20097SOL    HW164207   5.587   1.809   7.085 -0.2755  0.5100 -0.4156
20097SOL    HW264208   5.639   1.738   6.961 -1.3557 -1.2046  0.0857
20098SOL     OW64209   3.574   2.762   9.913  0.1073 -0.2075 -0.6449
20098SOL    HW164210   3.596   2.816   9.837  0.3948  0.2962 -0.2170
20098SOL    HW264211   3.513   2.815   9.963  0.9862  0.0569  0.1715
20099SOL     OW64212   4.962   2.285   8.147  0.6846  0.0263  0.1190
20099SOL    HW164213   5.021   2.276   8.072  1.4231 -0.4688  0.7382
20099SOL    HW264214   4.970   2.377   8.174 -1.3861  0.8593 -1.8212
20100SOL     OW64215   9.480   4.485   1.812  0.4010  0.2532 -0.3833
20100SOL    HW164216   9.399   4.490   1.761 -0.9069 -1.2346  1.3710
20100SOL    HW264217   9.498   4.391   1.818 -0.1864  0.1998  2.6951
20101SOL     OW64218   3.272   3.429   2.350 -0.2977  0.1306  0.1688
20101SOL    HW164219   3.333   3.498   2.326 -1.1569  1.0787  0.6403
20101SOL    HW264220   3.256   3.441   2.443 -0.6848 -0.5261  0.2012
20102SOL     OW64221   9.492   5.240   7.324 -0.5913 -1.0902  0.6749
20102SOL    HW164222   9.406   5.214   7.290 -0.8956 -0.2687  0.7923
20102SOL    HW264223   9.548   5.164   7.308 -1.1269 -1.3160 -0.1997
20103SOL     OW64224   4.085   1.015   3.871 -0.2484  0.2817  0.8482
20103SOL    HW164225   4.123   1.091   3.827  0.5113 -1.2844 -1.3756
20103SOL    HW264226   4.160   0.969   3.909 -0.7385  0.7753  2.4967
20104SOL     OW64227   8.607   8.258   6.111  0.3663 -0.1170  0.7572
20104SOL    HW164228   8.593   8.348   6.140  3.3400  0.3372  1.0869
20104SOL    HW264229   8.592   8.205   6.189  0.3189  0.2824  1.0226
20105SOL     OW64230   9.989  10.172   3.173 -0.1849 -0.2932 -0.3958
20105SOL    HW164231   9.996  10.076   3.171 -0.1272 -0.3851  1.6304
20105SOL    HW264232  10.078  10.202   3.191 -0.1954  0.1646 -1.0623
20106SOL     OW64233   3.673   5.945   5.088 -0.0466  0.4516  0.5477
20106SOL    HW164234   3.605   5.918   5.027 -1.8746  0.4739  2.4709
20106SOL    HW264235   3.754   5.913   5.049 -1.3392 -1.2459 -0.8951
20107SOL     OW64236   4.305   0.041   3.837  0.4439  0.2179  0.2566
20107SOL    HW164237   4.363   0.116   3.848  0.6805 -0.1146  1.4139
20107SOL    HW264238   4.272   0.023   3.925  2.3156 -2.5739  0.4970
20108SOL     OW64239   6.740   3.586   8.167  0.5030  0.4783 -0.0222
20108SOL    HW164240   6.825   3.541   8.166  0.0077 -0.5063 -0.8613
20108SOL    HW264241   6.733   3.625   8.080  0.4749  1.3162  0.3521
20109SOL     OW64242   8.551   8.928   9.747 -0.0295 -0.2561 -0.1469
20109SOL    HW164243   8.593   8.894   9.827 -0.0382  1.3049  0.5671
20109SOL    HW264244   8.461   8.897   9.753 -1.2471  3.1424  2.6787
20110SOL     OW64245   0.503   0.001   8.318  0.0765 -0.1960 -0.2100
20110SOL    HW164246   0.592  -0.015   8.286  0.2170  0.3596 -0.1140
20110SOL    HW264247   0.494  -0.053   8.396  0.2757 -0.3752 -0.3137
20111SOL     OW64248   2.155   8.600   8.422  0.3356 -0.6630 -0.2187
20111SOL    HW164249   2.183   8.628   8.509 -1.9764 -2.4410  1.2216
20111SOL    HW264250   2.068   8.639   8.411  0.3857 -0.8943 -1.5184
20112SOL     OW64251   8.400   6.139   4.732  0.1388  0.3320 -0.0173
20112SOL    HW164252   8.387   6.201   4.660  0.5335  1.0321  0.4964
20112SOL    HW264253   8.466   6.180   4.787 -0.1908 -0.1717  0.7733
20113SOL     OW64254   6.195   4.181   6.236 -0.2768  0.1970 -0.1232
20113SOL    HW164255   6.144   4.116   6.284 -0.5089  0.0019 -0.6203
20113SOL    HW264256   6.175   4.264   6.279 -0.5081  0.0298  0.0933
20114SOL     OW64257   6.014   4.385   8.816  0.6495  0.6480 -0.7577
20114SOL    HW164258   5.937   4.349   8.860 -0.4631  2.1341 -1.4210
20114SOL    HW264259   6.061   4.432   8.884  0.2474  0.8583 -0.6192
20115SOL     OW64260   9.347   6.400   9.732  0.0396  0.1971 -0.6675
20115SOL    HW164261   9.404   6.475   9.751  2.3710 -1.1152 -2.0457
20115SOL    HW264262   9.373   6.372   9.645 -1.0307 -2.0205 -0.3271
20116SOL     OW64263   0.205   0.509   9.368  0.3351  0.1138  0.2462
20116SOL    HW164264   0.175   0.426   9.405  0.6040  0.0200  0.2583
20116SOL    HW264265   0.297   0.515   9.394  1.2290 -1.0777 -2.3234
20117SOL     OW64266   1.851   2.693   7.615  0.4814 -0.7169 -0.7629
20117SOL    HW164267   1.941   2.695   7.648  0.4868 -0.9663 -0.7570
20117SOL    HW264268   1.804   2.756   7.669  0.4152 -1.3705 -0.0392
20118SOL     OW64269   6.379   5.244   9.979 -0.1376 -0.2573 -0.1759
20118SOL    HW164270   6.455   5.303   9.984  0.1491 -0.5184 -1.2661
20118SOL    HW264271   6.303   5.303   9.976  0.1694  0.0938 -1.7343
20119SOL     OW64272   9.568   9.544   9.444  0.2420  0.3965 -0.0768
20119SOL    HW164273   9.535   9.469   9.493 -1.0442  1.2560  0.4295
20119SOL    HW264274   9.548   9.620   9.499  0.7229  1.1978 -0.9643
20120SOL     OW64275   6.211   2.770   9.706  0.1024  0.3795 -0.3604
20120SOL    HW164276   6.166   2.737   9.784  2.6543  0.9405  1.4753
20120SOL    HW264277   6.175   2.858   9.693 -2.7500 -0.8654 -1.9749
20121SOL     OW64278   8.894   4.246   3.661  0.2699  0.0789 -0.2041
20121SOL    HW164279   8.951   4.261   3.737 -0.4012  0.5786  0.2167
20121SOL    HW264280   8.863   4.333   3.637  0.9117 -0.0062 -1.4214
20122SOL     OW64281   4.633   7.608   8.371  0.1104 -0.1009  0.7488
20122SOL    HW164282   4.658   7.558   8.449 -0.3012  0.8585  1.5064
20122SOL    HW264283   4.540   7.592   8.361 -0.3877  1.7552  1.9546
20123SOL     OW64284   5.985   1.049   9.584  0.2369  0.1765 -0.5298
20123SOL    HW164285   5.941   1.103   9.518  0.3091  0.1057 -0.6357
20123SOL    HW264286   6.034   0.985   9.534  1.3971  0.9744 -0.4465
20124SOL     OW64287   7.424   9.746   4.503  0.1935 -0.1695  0.7890
20124SOL    HW164288   7.435   9.665   4.454  2.3068 -0.5501  1.7799
20124SOL    HW264289   7.404   9.812   4.436  1.4673 -0.9560 -0.4074
20125SOL     OW64290   0.250   5.045   1.862  0.2381  0.3318  0.2557
20125SOL    HW164291   0.312   4.981   1.897 -1.5513 -0.5295  2.0416
20125SOL    HW264292   0.258   5.121   1.920  0.1449  0.5283  0.0176
20126SOL     OW64293   5.217   1.357   2.216  0.3127 -0.0593 -0.5109
20126SOL    HW164294   5.180   1.332   2.301 -0.0124  1.4886 -0.1771
20126SOL    HW264295   5.309   1.376   2.235  0.4390 -0.4661 -0.6790
20127SOL     OW64296   4.029   5.355   0.492  0.1334  0.3817 -0.3083
20127SOL    HW164297   4.026   5.417   0.565  2.0822 -1.7079  1.7484
20127SOL    HW264298   3.982   5.278   0.525 -0.9753  0.1785 -2.2238
20128SOL     OW64299   4.153   9.886   4.819  0.2616 -0.0648 -0.0182
20128SOL    HW164300   4.074   9.886   4.765 -1.4253 -0.9590  2.2793
20128SOL    HW264301   4.193   9.801   4.803  2.0312  1.1171 -2.7183
20129SOL     OW64302   7.991   0.491   3.301  0.6424 -0.0194  0.0313
20129SOL    HW164303   7.933   0.467   3.374  0.2561  1.4477  0.2384
20129SOL    HW264304   7.936   0.545   3.244  0.8855 -1.2831 -1.4598
20130SOL     OW64305   2.896   4.544   6.498  0.1947  0.4151 -0.3500
20130SOL    HW164306   2.981   4.518   6.462  0.7709  0.2492  1.0726
20130SOL    HW264307   2.868   4.617   6.442  0.6690 -0.3256 -1.6037
20131SOL     OW64308   8.061   0.581   1.159  0.3111 -0.0998  0.3264
20131SOL    HW164309   8.121   0.516   1.197 -0.8552 -1.0696  0.5877
20131SOL    HW264310   7.974   0.553   1.189 -0.1876  2.0057  1.0342
20132SOL     OW64311   5.250   6.687   2.050 -0.0915 -0.9650  0.6715
20132SOL    HW164312   5.192   6.640   1.989  0.1842 -1.3853  0.7247
20132SOL    HW264313   5.319   6.723   1.995 -1.6826  1.6637  0.2491
20133SOL     OW64314   5.353   0.514   4.324 -0.3063 -0.2819  0.3941
20133SOL    HW164315   5.302   0.558   4.256  0.2935 -0.1309  0.0437
20133SOL    HW264316   5.440   0.552   4.318 -0.3577  0.0609  1.5434
20134SOL     OW64317   4.523   9.908   2.442 -0.1856  0.6343  0.0255
20134SOL    HW164318   4.514   9.850   2.366 -0.0152  1.2771 -0.4992
20134SOL    HW264319   4.482   9.860   2.514 -1.3409  0.4650 -0.7131
20135SOL     OW64320   6.173   1.516   6.217 -0.1453 -0.4256  0.0236
20135SOL    HW164321   6.215   1.455   6.155 -2.2170 -0.4171 -1.4873
20135SOL    HW264322   6.207   1.602   6.192 -1.8790 -0.2491 -2.0699
20136SOL     OW64323   5.492   3.317   4.279 -0.2588  0.1311  0.7188
20136SOL    HW164324   5.581   3.281   4.276 -0.4069 -0.3008 -2.1238
20136SOL    HW264325   5.455   3.284   4.361  1.3444 -1.9305  0.7117
20137SOL     OW64326   5.080   0.976   0.877 -0.4292  0.2918 -0.1537
20137SOL    HW164327   5.072   0.883   0.898 -1.1676 -0.1418 -2.1165
20137SOL    HW264328   5.109   1.017   0.958  3.1062 -2.0711  0.0215
20138SOL     OW64329   0.285   0.984   0.393 -0.3862  0.3797  0.3286
20138SOL    HW164330   0.299   1.078   0.386  1.1222  0.1635  0.2108
20138SOL    HW264331   0.373   0.946   0.399 -0.9821 -0.9745  1.0491
20139SOL     OW64332   6.616   5.841   5.047 -0.8129  0.6651  0.7938
20139SOL    HW164333   6.647   5.880   5.129  2.9467  0.5861 -0.4018
20139SOL    HW264334   6.639   5.906   4.980 -0.2200 -0.9010 -0.5793
20140SOL     OW64335   0.319   0.880   1.844  0.5087 -0.0759 -0.2498
20140SOL    HW164336   0.313   0.797   1.892  1.9651 -0.3983 -0.5800
20140SOL    HW264337   0.245   0.878   1.783 -1.3461  0.3123  1.8673
20141SOL     OW64338   3.816   1.604   0.823 -0.2148 -0.4348  0.1128
20141SOL    HW164339   3.830   1.528   0.879 -1.0237 -1.1051 -0.5517
20141SOL    HW264340   3.725   1.595   0.794  0.2329 -0.2364 -1.4687
20142SOL     OW64341   5.206   3.982   8.943 -0.5148  0.6435 -0.4883
20142SOL    HW164342   5.267   4.055   8.932  1.2109 -0.7404 -0.5610
20142SOL    HW264343   5.220   3.928   8.865 -0.8708 -0.3909  0.1523
20143SOL     OW64344   4.659   8.175   3.191 -0.4374  0.3937 -0.2533
20143SOL    HW164345   4.591   8.220   3.242 -0.4286 -0.7038  0.7655
20143SOL    HW264346   4.619   8.092   3.167  0.4467 -0.1492  0.1259
20144SOL     OW64347   6.432   2.761   5.417 -0.6349  0.4065  0.3342
20144SOL    HW164348   6.461   2.761   5.325 -1.3707  0.8933  0.0941
20144SOL    HW264349   6.362   2.695   5.419 -1.5756  1.3738  0.2196
20145SOL     OW64350   3.435   6.792   3.668  0.5487  0.9394  0.0079
20145SOL    HW164351   3.390   6.863   3.713  0.2902  1.4041 -0.9545
20145SOL    HW264352   3.527   6.802   3.691  0.4868  1.4838  0.0204
20146SOL     OW64353   6.754   9.918   8.848 -0.2765  0.6969  0.2759
20146SOL    HW164354   6.690   9.950   8.783 -0.7111 -2.0393 -0.7746
20146SOL    HW264355   6.833   9.901   8.797 -0.2284 -0.3493  0.6844
20147SOL     OW64356   6.030   0.762   7.013 -0.4656  0.5973  0.2933
20147SOL    HW164357   5.987   0.728   7.091 -1.8970  0.0787 -0.6783
20147SOL    HW264358   6.124   0.754   7.031 -0.7362 -1.7837  1.0149
20148SOL     OW64359   0.337   9.496   3.498  0.0510 -0.1253 -0.5077
20148SOL    HW164360   0.361   9.437   3.570  0.5605 -0.2016 -0.7346
20148SOL    HW264361   0.419   9.512   3.452 -0.3299 -0.3584 -1.2872
20149SOL     OW64362   6.029   4.454   5.846 -0.1660  0.4424 -0.1675
20149SOL    HW164363   5.967   4.527   5.843  0.0014  0.6364  0.7160
20149SOL    HW264364   6.033   4.430   5.939  0.2559 -0.2832 -0.3638
20150SOL     OW64365   7.785   8.205   0.096 -0.0716 -0.0507  0.1849
20150SOL    HW164366   7.871   8.170   0.120  0.8916  2.0253 -0.0139
20150SOL    HW264367   7.782   8.197   0.001  0.4589  1.0083  0.0665
20151SOL     OW64368   9.489   5.512   3.867  0.4636  0.2797  0.0809
20151SOL    HW164369   9.581   5.526   3.889  0.9755  2.7284 -2.8953
20151SOL    HW264370   9.486   5.424   3.829  1.3355 -0.2347  1.1749
20152SOL     OW64371   2.394   1.275   2.768 -0.6899 -0.1130 -0.4432
20152SOL    HW164372   2.418   1.282   2.860  0.5424  0.6505 -0.7920
20152SOL    HW264373   2.367   1.184   2.756 -1.1391 -0.1451  0.7174
20153SOL     OW64374   7.862  10.168   6.817  0.0465 -0.2857 -0.5236
20153SOL    HW164375   7.876  10.092   6.874 -0.6887  0.4308  0.6445
20153SOL    HW264376   7.928  10.158   6.748  0.1543 -1.8257 -0.2396
20154SOL     OW64377   4.724   9.412   0.173  0.4830 -0.1533  0.0630
20154SOL    HW164378   4.803   9.392   0.123  1.2667  0.6889  0.9187
20154SOL    HW264379   4.652   9.383   0.117  1.4104 -1.9772 -0.2745
20155SOL     OW64380   6.646   6.841   0.137 -0.4621  0.4797  0.5056
20155SOL    HW164381   6.597   6.762   0.159 -0.7756  0.3355 -0.6160
20155SOL    HW264382   6.656   6.836   0.042 -1.1290  2.1540  0.3255
20156SOL     OW64383  10.184   7.098   3.416  0.2722 -0.4914 -0.2897
20156SOL    HW164384  10.118   7.037   3.451 -0.8584 -1.6971 -4.0873
20156SOL    HW264385  10.134   7.177   3.394  1.1424  0.6264  1.4665
20157SOL     OW64386   7.464   7.381   8.419  0.3518  0.1606 -0.1633
20157SOL    HW164387   7.416   7.443   8.474 -0.6321 -0.5563 -0.1846
20157SOL    HW264388   7.538   7.432   8.384  1.0412  0.6407  1.8214
20158SOL     OW64389   5.203   2.802   9.123 -0.1365 -0.4003 -0.5201
20158SOL    HW164390   5.290   2.808   9.164 -0.3063 -1.1417 -0.0353
20158SOL    HW264391   5.192   2.709   9.103 -1.0614 -0.4017 -0.0467
20159SOL     OW64392   6.633   1.280   3.700 -0.1755  0.4486  0.2473
20159SOL    HW164393   6.623   1.370   3.669 -1.2751  0.4298  0.5283
20159SOL    HW264394   6.592   1.226   3.633 -1.2635  0.3079  1.0062
20160SOL     OW64395   3.083   5.217   0.296  0.1836 -0.3516  0.1899
20160SOL    HW164396   3.138   5.295   0.303 -0.9478  0.3968  1.0101
20160SOL    HW264397   2.996   5.245   0.325 -0.9715 -1.1891 -2.1871
20161SOL     OW64398   7.353   4.172   9.212 -0.1877  1.0824 -0.2731
20161SOL    HW164399   7.297   4.118   9.157 -1.1497 -0.4287  2.0056
20161SOL    HW264400   7.291   4.219   9.269  0.7804  0.5001  1.3151
20162SOL     OW64401   3.694   8.122   9.854  0.4492  0.7115 -0.3510
20162SOL    HW164402   3.723   8.064   9.925  0.8246  1.0230 -0.2442
20162SOL    HW264403   3.671   8.063   9.783  1.8622  0.4453 -0.6299
20163SOL     OW64404   6.048   3.017   4.489 -0.1192 -0.0519  0.1616
20163SOL    HW164405   6.057   2.922   4.483  0.3782  0.0451 -0.7239
20163SOL    HW264406   6.098   3.041   4.567  0.0764 -0.4788  0.1695
20164SOL     OW64407   7.948   9.397   3.009  0.1429 -0.4345  1.1874
20164SOL    HW164408   8.018   9.454   2.979 -1.1729  1.3594  1.3881
20164SOL    HW264409   7.892   9.385   2.933  0.4842 -1.6428  1.1000
20165SOL     OW64410   8.564   3.894   6.621 -0.8253 -0.0328  0.1502
20165SOL    HW164411   8.618   3.960   6.664 -0.3785 -0.5949  0.4813
20165SOL    HW264412   8.590   3.812   6.663 -1.0089 -0.4798 -0.5922
20166SOL     OW64413   7.112   5.127   4.475 -0.1238 -0.1334 -0.4900
20166SOL    HW164414   7.198   5.125   4.434  0.5231 -2.3110  0.8282
20166SOL    HW264415   7.067   5.049   4.441 -0.0454 -1.2673  1.8447
20167SOL     OW64416   7.621   8.351   7.978 -0.4087  0.7452  0.3707
20167SOL    HW164417   7.532   8.362   7.946 -0.6726  0.8726  1.1433
20167SOL    HW264418   7.617   8.273   8.034  0.5104 -0.8197 -1.5820
20168SOL     OW64419   4.578   7.165   5.068  0.4030 -0.3425  0.0049
20168SOL    HW164420   4.516   7.146   4.998  0.2889  0.1806 -0.0429
20168SOL    HW264421   4.524   7.192   5.142  0.6030  1.4774 -0.4673
20169SOL     OW64422   6.651   0.499   0.368  0.1285 -0.5094 -0.1238
20169SOL    HW164423   6.648   0.404   0.379 -0.8455 -0.3829  0.8733
20169SOL    HW264424   6.706   0.530   0.441 -1.6633 -0.1253  1.1202
20170SOL     OW64425   6.528   4.845   9.150  0.5017  0.2248  0.2294
20170SOL    HW164426   6.524   4.833   9.245 -1.2701  2.0274  0.4688
20170SOL    HW264427   6.619   4.869   9.132  1.5643 -2.7956  1.0197
20171SOL     OW64428   5.794   0.773   2.665  0.1599 -0.5271 -0.3776
20171SOL    HW164429   5.841   0.826   2.729 -0.0389  0.7450 -1.2428
20171SOL    HW264430   5.849   0.696   2.653  0.1708 -0.8168  1.3398
20172SOL     OW64431   9.879   9.552   6.064 -0.1132  0.4783  0.0573
20172SOL    HW164432   9.860   9.645   6.081  0.9875  0.7666 -0.2143
20172SOL    HW264433   9.872   9.511   6.150 -0.4067  0.8464  0.2150
20173SOL     OW64434   9.281   7.019   5.986  0.0241  0.1920  0.7526
20173SOL    HW164435   9.284   6.945   5.924  0.9238  0.4420  0.4746
20173SOL    HW264436   9.252   7.093   5.933  0.1896  0.2721  0.7744
20174SOL     OW64437   2.081   8.801   2.441 -0.2216  0.4845  0.4694
20174SOL    HW164438   2.050   8.810   2.531 -0.9023  1.2531  0.1695
20174SOL    HW264439   2.159   8.857   2.436 -0.2861  0.5807  0.5350
20175SOL     OW64440   5.064   9.542   0.298 -0.0820 -0.0885  0.2878
20175SOL    HW164441   5.106   9.527   0.384  2.2934 -1.7507 -1.0339
20175SOL    HW264442   5.014   9.622   0.310  2.5728  1.4505  2.4360
20176SOL     OW64443   6.169   0.163   8.304 -0.3658 -0.7323  0.2149
20176SOL    HW164444   6.118   0.200   8.232 -0.7070 -1.0179  0.3078
20176SOL    HW264445   6.239   0.226   8.318 -0.7073 -0.3196  0.1014
20177SOL     OW64446   9.030   8.077   5.901  0.0299  0.0033  0.3994
20177SOL    HW164447   9.029   8.044   5.991 -0.7492  3.2303  1.7113
20177SOL    HW264448   8.943   8.116   5.888  0.5926  0.8259 -1.2496
20178SOL     OW64449   1.452   4.009   6.653 -0.2943 -0.5627 -0.1828
20178SOL    HW164450   1.401   3.972   6.724 -0.3153 -0.4193 -0.1227
20178SOL    HW264451   1.444   4.104   6.664 -1.2745 -0.5267 -1.0743
20179SOL     OW64452   4.858   9.193   9.930  0.2339 -0.0559 -0.3092
20179SOL    HW164453   4.856   9.282   9.963  0.4048 -0.0020 -0.4418
20179SOL    HW264454   4.801   9.194   9.853 -1.4378 -0.5532  0.8823
20180SOL     OW64455   0.099   9.199   1.067 -0.1586  0.2626  0.0111
20180SOL    HW164456   0.060   9.269   1.120 -1.3048  1.2599 -2.0162
20180SOL    HW264457   0.065   9.118   1.106  0.0996  0.8633  1.5707
20181SOL     OW64458   1.584  10.174   7.921  0.0849 -0.4098 -0.1124
20181SOL    HW164459   1.503  10.127   7.901  0.1427 -0.4274 -0.3148
20181SOL    HW264460   1.556  10.252   7.968  0.0510 -1.0884  1.0319
20182SOL     OW64461   5.713   4.773   6.389 -0.0716 -0.1284 -0.4921
20182SOL    HW164462   5.689   4.847   6.445 -0.3680 -0.6059  0.0267
20182SOL    HW264463   5.636   4.716   6.391  0.6505 -1.1110  0.2241
20183SOL     OW64464   8.718   8.948   5.840 -0.2709  0.3648  0.1670
20183SOL    HW164465   8.703   9.030   5.794 -0.3173 -0.6541 -1.7268
20183SOL    HW264466   8.803   8.918   5.810 -0.7379 -0.8165 -0.0440
20184SOL     OW64467   4.675   3.482   4.491 -0.6487 -0.4113 -0.1083
20184SOL    HW164468   4.703   3.518   4.407 -0.5318  2.0930  0.9309
20184SOL    HW264469   4.756   3.455   4.534 -0.5431 -0.1895 -0.1656
20185SOL     OW64470   5.753   2.282   1.442  0.1664 -0.3227  0.3640
20185SOL    HW164471   5.784   2.342   1.374  2.1587 -0.5563  0.9984
20185SOL    HW264472   5.804   2.305   1.519 -1.6636 -0.4218  1.6738
20186SOL     OW64473   7.140   2.156   4.822 -0.2614  0.0379  0.0159
20186SOL    HW164474   7.207   2.201   4.771 -0.1570  0.7363  0.7478
20186SOL    HW264475   7.160   2.177   4.913  1.0353 -3.2278  0.5959
20187SOL     OW64476   0.878   8.998   0.082 -0.6791  0.3692 -0.5671
20187SOL    HW164477   0.841   8.918   0.120  0.5497  0.7703  1.6782
20187SOL    HW264478   0.858   9.066   0.147 -0.1869  1.5401 -1.6109
20188SOL     OW64479   6.137   7.242   6.709  0.7267 -0.2208  0.1643
20188SOL    HW164480   6.084   7.290   6.646 -0.0914 -0.5539  0.5796
20188SOL    HW264481   6.089   7.161   6.724  0.5492  0.1222  1.6864
20189SOL     OW64482   1.778   6.328   5.445  0.7177  0.2031  0.1907
20189SOL    HW164483   1.717   6.401   5.446  1.2340  0.8319 -2.6661
20189SOL    HW264484   1.774   6.295   5.355  1.7094 -2.2569  0.9553
20190SOL     OW64485   9.419   2.669   0.490 -0.4354  0.1907  0.1824
20190SOL    HW164486   9.499   2.698   0.533 -0.7299  1.6382 -0.1937
20190SOL    HW264487   9.428   2.574   0.483  1.8247  0.4221 -0.9880
20191SOL     OW64488   7.335   0.646   3.528 -0.3844 -0.3214  0.2365
20191SOL    HW164489   7.284   0.679   3.602  1.7581 -0.3060  1.7986
20191SOL    HW264490   7.377   0.724   3.491  0.5481 -0.6224  0.6278
20192SOL     OW64491   6.316   5.677   2.336 -0.1121  0.1834 -0.3069
20192SOL    HW164492   6.375   5.751   2.319 -0.5218  0.0516 -2.5669
20192SOL    HW264493   6.235   5.718   2.365 -0.0996  0.5862 -0.8262
20193SOL     OW64494   2.920   3.985   4.484  0.2035  0.2118 -0.3182
20193SOL    HW164495   2.961   4.026   4.561 -0.9023  1.6103 -0.4218
20193SOL    HW264496   2.916   4.055   4.419  0.0950 -0.6471 -1.2598
20194SOL     OW64497   6.393   2.507   1.613 -0.1331 -0.0206  0.2720
20194SOL    HW164498   6.461   2.568   1.582  0.0715 -0.7507 -0.7713
20194SOL    HW264499   6.326   2.510   1.546 -0.1769 -0.8527  0.2733
20195SOL     OW64500   2.315   0.811   1.467 -1.0415  0.0059  0.1846
20195SOL    HW164501   2.358   0.836   1.386  0.0770  1.2488  1.1219
20195SOL    HW264502   2.338   0.718   1.478 -0.1192  0.1678 -0.2659
20196SOL     OW64503   6.108   4.314   0.417 -0.9184 -0.9059  0.4933
20196SOL    HW164504   6.152   4.281   0.338 -0.0568 -1.0965  1.0402
20196SOL    HW264505   6.145   4.401   0.429 -1.8424 -0.4480  0.0900
20197SOL     OW64506   3.399   6.382   5.414  0.6501 -0.0238 -0.2685
20197SOL    HW164507   3.355   6.403   5.332 -0.4386 -1.7672 -0.1756
20197SOL    HW264508   3.447   6.301   5.396  0.7555 -0.1939  0.7072
20198SOL     OW64509   0.357   1.051   7.558 -0.4387 -0.1070 -0.1038
20198SOL    HW164510   0.405   1.067   7.477 -1.9487  0.4461 -0.9195
20198SOL    HW264511   0.362   1.134   7.606  1.5226 -0.7937  1.0125
20199SOL     OW64512  10.037   0.164   3.400 -0.3256 -0.1042 -0.0520
20199SOL    HW164513   9.979   0.224   3.353 -0.5743  0.4827  0.9697
20199SOL    HW264514  10.123   0.205   3.396 -0.4259  0.1531  0.3350
20200SOL     OW64515   1.787   3.194   1.544  0.3532  0.0020  0.5095
20200SOL    HW164516   1.854   3.186   1.476 -0.0049 -0.3563  0.1972
20200SOL    HW264517   1.823   3.146   1.619  0.7098  0.3245  0.5484
20201SOL     OW64518   8.768   1.768   3.561 -0.0407  0.5429 -0.5525
20201SOL    HW164519   8.708   1.841   3.551  0.3005  0.7973 -0.7669
20201SOL    HW264520   8.790   1.742   3.472 -0.6522 -0.2384 -0.4921
20202SOL     OW64521   9.293   4.751   6.587  0.0324  0.6342  0.5407
20202SOL    HW164522   9.384   4.724   6.594  0.0575  0.6023  0.1214
20202SOL    HW264523   9.265   4.718   6.502 -0.3752  0.6317  0.6725
20203SOL     OW64524   8.828   5.174   3.095  0.2077  0.9236 -0.1537
20203SOL    HW164525   8.754   5.189   3.036  0.4386 -0.1627 -0.7442
20203SOL    HW264526   8.827   5.249   3.155 -1.4297  0.8534 -0.0749
20204SOL     OW64527   8.401   7.583   8.164 -0.4543  0.1174 -0.2801
20204SOL    HW164528   8.417   7.605   8.072 -0.1380 -0.0706 -0.2729
20204SOL    HW264529   8.359   7.661   8.201  0.1623  0.5136 -0.3831
20205SOL     OW64530   3.216   8.116   5.824 -0.1073 -0.2892  0.4733
20205SOL    HW164531   3.202   8.069   5.742  1.2516  0.0360  0.0247
20205SOL    HW264532   3.264   8.195   5.799 -0.5216  0.3077  1.4693
20206SOL     OW64533   0.954   1.289   0.338  0.2845 -0.0786 -0.5598
20206SOL    HW164534   0.907   1.306   0.419  1.7042 -1.8889  0.7159
20206SOL    HW264535   0.886   1.289   0.270 -1.0295  0.7336  0.7018
20207SOL     OW64536   9.202   2.494   7.474  0.3142 -0.0437  0.5909
20207SOL    HW164537   9.234   2.408   7.502  1.1741  0.4761  1.2855
20207SOL    HW264538   9.195   2.545   7.556 -0.9626  0.3049  0.2830
20208SOL     OW64539   2.301   9.477   9.082 -0.5487  0.1139 -0.1045
20208SOL    HW164540   2.367   9.546   9.078 -0.0129 -0.4341 -1.5505
20208SOL    HW264541   2.306   9.435   8.996 -0.8440 -1.7304  0.7453
20209SOL     OW64542   7.827   3.339  10.083  0.1315  0.9354 -0.4667
20209SOL    HW164543   7.777   3.267  10.122 -1.6475  1.1676 -2.1928
20209SOL    HW264544   7.907   3.298  10.051 -0.6986 -0.2410 -1.1048
20210SOL     OW64545   6.557   9.030   1.104  0.4032  0.5839  0.0880
20210SOL    HW164546   6.519   9.117   1.117  0.3311  0.8998 -2.0005
20210SOL    HW264547   6.542   8.985   1.187 -1.4360  1.8555  0.5010
20211SOL     OW64548   8.680   6.292   8.113 -0.2211  0.3218  0.2121
20211SOL    HW164549   8.703   6.320   8.024 -1.7412 -1.1701 -0.7168
20211SOL    HW264550   8.728   6.351   8.170  0.2883  1.7575 -1.6067
20212SOL     OW64551   2.562   1.313   8.707 -0.3729 -0.4001 -0.3150
20212SOL    HW164552   2.624   1.325   8.635  0.8973 -0.1646  0.7889
20212SOL    HW264553   2.612   1.268   8.775 -0.8608  1.3937  1.3246
20213SOL     OW64554   6.219   5.996   2.697 -0.1719 -0.3220  0.7628
20213SOL    HW164555   6.280   6.047   2.644 -0.1925 -0.5416  0.5259
20213SOL    HW264556   6.247   5.906   2.686 -0.0299 -0.3521  1.3197
20214SOL     OW64557   5.439   9.302   3.363 -0.0300 -0.4368  0.4532
20214SOL    HW164558   5.443   9.329   3.272 -2.5915 -0.0340  0.3799
20214SOL    HW264559   5.512   9.347   3.405  1.3042 -0.7518 -1.3842
20215SOL     OW64560   2.926   1.745   2.834 -0.3432 -0.4133 -0.4416
20215SOL    HW164561   2.918   1.706   2.747  2.4303 -1.4062 -0.3356
20215SOL    HW264562   2.920   1.840   2.818  0.9398 -0.5403 -1.8430
20216SOL     OW64563   9.483   1.262   4.678 -0.5831 -0.0051 -0.0346
20216SOL    HW164564   9.408   1.288   4.625 -0.0026 -1.5444 -1.7322
20216SOL    HW264565   9.501   1.172   4.652  1.2691 -0.0027  1.0246
20217SOL     OW64566   6.866  10.021   5.705  0.5721  0.3963 -0.7606
20217SOL    HW164567   6.914  10.076   5.767  0.5876  0.2220 -0.6167
20217SOL    HW264568   6.882   9.932   5.734 -1.1043  0.3756  0.2418
20218SOL     OW64569   3.853   7.957   2.991 -0.3853 -0.1269 -0.0670
20218SOL    HW164570   3.908   7.885   3.022  0.3463  0.3958 -0.1244
20218SOL    HW264571   3.853   7.947   2.895 -0.9581 -0.5304 -0.0271
20219SOL     OW64572   4.050   1.111   1.417 -0.2084  0.1654  0.1965
20219SOL    HW164573   4.020   1.190   1.371  1.0690  1.5426  1.6115
20219SOL    HW264574   4.101   1.064   1.352 -1.3887  0.2230 -0.8153
20220SOL     OW64575   4.585   4.617   4.989 -0.2944 -0.0475  0.0131
20220SOL    HW164576   4.595   4.616   5.084 -2.2780  1.0069  0.2775
20220SOL    HW264577   4.592   4.525   4.963 -0.7170 -0.4697  1.3115
20221SOL     OW64578   4.220   8.917   8.962  0.2750  0.3306 -0.8591
20221SOL    HW164579   4.289   8.983   8.959  0.0746  0.6520  0.6946
20221SOL    HW264580   4.266   8.833   8.959  0.8544  0.5300  1.2496
20222SOL     OW64581   6.757   1.337   5.881  0.0326  0.1745  0.1080
20222SOL    HW164582   6.756   1.241   5.877 -1.2361  0.1372  0.9385
20222SOL    HW264583   6.698   1.359   5.953 -1.4933  1.6589 -1.4973
20223SOL     OW64584   4.801   4.014   1.920 -0.1108 -0.6176 -0.0898
20223SOL    HW164585   4.780   3.987   2.009  1.1873  0.2639  0.5184
20223SOL    HW264586   4.842   4.100   1.930 -0.2541 -0.3551 -1.5661
20224SOL     OW64587  10.206   6.598   6.460  0.2037  0.0423  0.2568
20224SOL    HW164588  10.175   6.679   6.501  2.8724  1.4962 -0.4035
20224SOL    HW264589  10.300   6.610   6.450  0.2777 -1.9172 -2.5964
20225SOL     OW64590   1.010   6.049   8.879 -0.0508  0.6184 -0.4359
20225SOL    HW164591   0.927   6.050   8.831 -0.5393 -1.4482  0.2645
20225SOL    HW264592   0.985   6.033   8.970  1.0959  0.1269 -0.1863
20226SOL     OW64593   7.551   6.388   9.148 -0.0026 -0.9315 -0.2662
20226SOL    HW164594   7.632   6.368   9.101  0.3512 -1.3600  0.5012
20226SOL    HW264595   7.493   6.423   9.081  1.2278  0.5671 -0.5964
20227SOL     OW64596   4.771   8.302   4.478  0.4822 -0.4052 -0.0025
20227SOL    HW164597   4.715   8.309   4.401  0.8859 -0.4344 -0.2994
20227SOL    HW264598   4.859   8.294   4.443  0.7803  0.6156  0.4727
20228SOL     OW64599   1.997   8.458  10.152 -0.0443  0.3279  0.0465
20228SOL    HW164600   1.998   8.376  10.103 -0.7877  0.2473  0.1531
20228SOL    HW264601   2.055   8.517  10.103 -3.0868  1.2789 -2.7277
20229SOL     OW64602   8.730   7.672   4.222 -0.6898 -0.3713 -0.6798
20229SOL    HW164603   8.654   7.690   4.277 -1.8426  0.0754 -2.3225
20229SOL    HW264604   8.706   7.591   4.175 -0.2092 -0.1632 -1.2961
20230SOL     OW64605   6.584   0.528   2.509  0.2272  0.0577  0.1631
20230SOL    HW164606   6.515   0.583   2.546 -1.0613 -1.4974  0.2289
20230SOL    HW264607   6.659   0.586   2.498 -1.0715  1.8086  0.1528
20231SOL     OW64608   1.212   5.185   6.952 -0.0765 -0.1824 -0.3796
20231SOL    HW164609   1.209   5.267   6.903  0.7854 -0.6753 -1.3015
20231SOL    HW264610   1.302   5.154   6.941 -0.4833 -1.4296 -0.3373
20232SOL     OW64611   6.268   3.058   2.254  0.3387  0.0004 -0.8166
20232SOL    HW164612   6.243   3.015   2.172 -0.8682 -1.2875  0.1728
20232SOL    HW264613   6.216   3.014   2.321  2.0306  0.3191  0.7900
20233SOL     OW64614   5.126   4.929   9.022  0.1940  0.0225  0.0577
20233SOL    HW164615   5.104   4.980   9.099  0.6512  1.6718 -0.8661
20233SOL    HW264616   5.195   4.978   8.978 -0.8871 -0.1940 -2.0562
20234SOL     OW64617   7.398   9.304   3.251  0.0606 -0.1716  0.3827
20234SOL    HW164618   7.441   9.241   3.308 -0.4934 -0.6176  0.3098
20234SOL    HW264619   7.465   9.327   3.186  0.4210 -0.2991  0.7069
20235SOL     OW64620   4.815  10.043   7.964 -0.2090  0.0534  0.3312
20235SOL    HW164621   4.746  10.028   7.900 -0.0387  0.7849 -0.0327
20235SOL    HW264622   4.894  10.004   7.925 -0.2728 -0.2241  0.4694
20236SOL     OW64623   3.576   5.181   4.506 -0.3400 -0.5474  0.3920
20236SOL    HW164624   3.543   5.146   4.424 -1.1053  0.3351  0.3157
20236SOL    HW264625   3.670   5.191   4.492 -0.5159 -0.0877 -0.4955
20237SOL     OW64626   3.885   9.355   6.921 -0.1215 -0.5922 -0.8235
20237SOL    HW164627   3.952   9.408   6.880  0.2217 -0.2798  0.1064
20237SOL    HW264628   3.841   9.311   6.849  0.4701 -0.0797 -1.5078
20238SOL     OW64629   5.377   6.273   7.158  0.2390  0.1249  0.6312
20238SOL    HW164630   5.462   6.316   7.161  1.0028 -1.3546  1.0775
20238SOL    HW264631   5.323   6.322   7.221  0.8260  0.9139  0.5332
20239SOL     OW64632   4.192   2.716   9.908  0.3144 -0.4210 -0.0421
20239SOL    HW164633   4.165   2.742   9.820  2.3758  0.3963 -0.4839
20239SOL    HW264634   4.119   2.663   9.940 -1.3993  0.9322 -1.4351
20240SOL     OW64635   6.898   8.537   4.259  0.6759  0.0258 -0.3477
20240SOL    HW164636   6.967   8.486   4.299  1.4660  0.8368 -0.6482
20240SOL    HW264637   6.876   8.604   4.324  2.0692  1.4408 -1.2580
20241SOL     OW64638   6.678   0.174   5.296 -0.0730  0.0363 -0.8159
20241SOL    HW164639   6.650   0.266   5.294  1.0266  0.4084 -0.1753
20241SOL    HW264640   6.773   0.178   5.281  0.3657 -0.7900  1.3415
20242SOL     OW64641   7.891  10.179   9.786  0.1507 -0.1682 -0.3620
20242SOL    HW164642   7.801  10.210   9.773 -0.5021 -1.8427 -0.0732
20242SOL    HW264643   7.904  10.115   9.717 -0.3628 -2.9436  1.9379
20243SOL     OW64644   5.182   5.797   6.473  0.4516 -0.2886  0.3344
20243SOL    HW164645   5.130   5.877   6.471 -1.6621 -1.5949 -0.5208
20243SOL    HW264646   5.272   5.827   6.483 -0.2362  2.1933 -0.2354
20244SOL     OW64647   3.423   7.489   3.002  0.4278  0.4738 -0.2019
20244SOL    HW164648   3.419   7.478   3.097 -0.8599  0.7395 -0.2100
20244SOL    HW264649   3.497   7.548   2.988  1.7138 -0.8762  0.4853
20245SOL     OW64650   2.064   0.936   7.299 -0.2017  0.2348  0.2182
20245SOL    HW164651   2.116   0.981   7.233 -2.0122  0.3212 -1.2132
20245SOL    HW264652   2.031   1.006   7.355 -0.1328  0.3256  0.1462
20246SOL     OW64653   1.800   6.327   9.555 -0.2040 -0.4173  0.0640
20246SOL    HW164654   1.768   6.417   9.558  0.2818 -0.2814  1.3462
20246SOL    HW264655   1.727   6.278   9.516 -1.3271  0.1661  1.3648
20247SOL     OW64656  10.029   0.475   1.309  0.0911  0.2430 -0.2676
20247SOL    HW164657  10.058   0.533   1.238  0.1229 -0.2357 -0.6532
20247SOL    HW264658   9.934   0.487   1.313  0.1878  0.9050  0.1829
20248SOL     OW64659   4.854   1.054   0.452 -0.1727 -0.2064  0.1768
20248SOL    HW164660   4.771   1.101   0.459 -0.2651 -0.3512  0.0721
20248SOL    HW264661   4.871   1.023   0.541 -0.4532 -0.5462  0.1184
20249SOL     OW64662   5.681   2.045   8.843 -0.4689  0.4691 -0.2237
20249SOL    HW164663   5.724   2.062   8.759  0.9348  1.4236  0.6552
20249SOL    HW264664   5.729   1.971   8.880 -1.5911 -0.4736 -0.5639
20250SOL     OW64665   6.051   3.749   7.224 -0.0851  0.1275  0.5906
20250SOL    HW164666   6.092   3.812   7.165 -0.8771 -1.6557 -2.0387
20250SOL    HW264667   5.968   3.790   7.250 -0.1081  0.6214 -0.2283
20251SOL     OW64668   7.632   1.868   5.134 -0.9261  0.1571  0.6747
20251SOL    HW164669   7.601   1.927   5.065  1.4611 -0.3600 -0.9698
20251SOL    HW264670   7.621   1.780   5.097  0.9479 -0.0980  0.6393
20252SOL     OW64671   6.437   6.915   8.607 -0.1393 -0.0871 -0.7385
20252SOL    HW164672   6.357   6.943   8.563 -0.2305 -1.0523 -1.2050
20252SOL    HW264673   6.422   6.823   8.628  0.8189 -0.2520 -0.7582
20253SOL     OW64674   7.619   9.349   3.093 -0.2723  0.8805  0.3324
20253SOL    HW164675   7.674   9.428   3.100  0.3409  0.6091 -1.1010
20253SOL    HW264676   7.671   9.280   3.134 -0.3853  1.0038  0.6936
20254SOL     OW64677   7.172   6.736   7.129 -0.2010  0.0456  0.0989
20254SOL    HW164678   7.085   6.774   7.116 -0.8172 -1.1581  0.5620
20254SOL    HW264679   7.226   6.809   7.160 -1.2797  0.6016  0.6995
20255SOL     OW64680   2.480   0.769   3.897  0.0686  0.0996 -0.0381
20255SOL    HW164681   2.479   0.691   3.842 -0.3022  0.1096 -0.0504
20255SOL    HW264682   2.490   0.841   3.834  1.8935 -0.0084  0.0793
20256SOL     OW64683   5.841   2.449   8.330  0.3620  0.1383  0.2205
20256SOL    HW164684   5.822   2.385   8.399 -1.0643  1.3423  1.0027
20256SOL    HW264685   5.936   2.462   8.334  0.3471 -0.0770  1.7312
20257SOL     OW64686   4.824   2.839   6.568 -0.2534 -0.8824  0.3489
20257SOL    HW164687   4.764   2.768   6.544 -0.3674 -0.8033  0.3968
20257SOL    HW264688   4.911   2.805   6.548 -0.4048 -0.3779 -1.3492
20258SOL     OW64689   7.826   5.412   3.679 -0.3063  0.0447  0.0933
20258SOL    HW164690   7.855   5.347   3.615 -0.8067 -1.4063  1.2843
20258SOL    HW264691   7.828   5.366   3.762 -0.4423  1.6572  1.0266
20259SOL     OW64692   2.511   4.292   1.579 -0.3170  0.1834 -0.4359
20259SOL    HW164693   2.607   4.298   1.586 -0.3819  2.3863 -0.6021
20259SOL    HW264694   2.488   4.216   1.632  1.4216  0.5331  0.9402
20260SOL     OW64695   6.627  10.057   0.193  0.1893  0.2887 -0.1448
20260SOL    HW164696   6.706  10.085   0.239  0.2827  0.8242 -0.6167
20260SOL    HW264697   6.604  10.131   0.137 -0.5555  0.0752 -0.1361
20261SOL     OW64698   7.142   7.701   0.123 -0.3640  0.1881 -0.3785
20261SOL    HW164699   7.063   7.741   0.161  0.8823  0.5037  2.0458
20261SOL    HW264700   7.117   7.610   0.109 -1.0205  0.1415  0.9006
20262SOL     OW64701   5.881   1.259   7.019  0.2992  0.2592 -0.3149
20262SOL    HW164702   5.892   1.301   6.933  1.1342  0.2481 -0.2235
20262SOL    HW264703   5.965   1.218   7.036 -0.2591 -0.7870 -0.0342
20263SOL     OW64704   8.692   0.087   3.670  0.3443  0.2889  0.5174
20263SOL    HW164705   8.774   0.086   3.620  1.7142 -1.8436  2.5955
20263SOL    HW264706   8.708   0.028   3.743 -3.0641 -0.1432  1.0675
20264SOL     OW64707   0.906   1.666   5.455 -0.4833  0.1711 -0.0866
20264SOL    HW164708   0.963   1.614   5.511 -2.0141  1.5925  3.0496
20264SOL    HW264709   0.937   1.756   5.467 -2.1157  0.7389  0.1564
20265SOL     OW64710   5.556   8.689  10.169  0.2654 -0.8480 -0.0560
20265SOL    HW164711   5.469   8.677  10.207  0.7733  0.5845  1.6956
20265SOL    HW264712   5.543   8.755  10.101  0.3712  1.6908  2.2182
20266SOL     OW64713   1.301   2.608   1.459 -0.3360 -0.5054  0.4139
20266SOL    HW164714   1.342   2.676   1.405  0.2549 -1.1136  0.0921
20266SOL    HW264715   1.237   2.567   1.400 -1.6539  0.6216  0.9907
20267SOL     OW64716   3.413  10.027   4.100 -0.7713 -0.4263  0.6652
20267SOL    HW164717   3.479  10.085   4.138  0.0135 -0.4383 -0.6113
20267SOL    HW264718   3.334  10.045   4.150 -0.0923  0.4539  1.4582
20268SOL     OW64719   2.016   7.739   2.042  0.1858  0.1752 -0.2569
20268SOL    HW164720   2.093   7.682   2.042  0.5741  0.6295  1.7439
20268SOL    HW264721   2.048   7.822   2.075 -1.2103  0.2930  0.9059
20269SOL     OW64722   6.107   9.876   0.162  0.4632 -0.2330 -0.6206
20269SOL    HW164723   6.185   9.822   0.172  2.6303  2.5468 -1.1969
20269SOL    HW264724   6.138   9.966   0.172 -2.9691  1.0018  0.7497
20270SOL     OW64725   2.890   4.104   4.735 -0.4152  0.3119  0.1046
20270SOL    HW164726   2.817   4.159   4.762 -0.0532  0.3176  1.0918
20270SOL    HW264727   2.969   4.154   4.758 -0.0893 -0.4858  0.7821
20271SOL     OW64728   3.736   7.813   1.056  0.9641 -0.0122 -0.2069
20271SOL    HW164729   3.663   7.768   1.012  1.2560  1.4860 -2.3725
20271SOL    HW264730   3.728   7.786   1.147 -0.0162 -2.8814 -1.0135
20272SOL     OW64731   7.530   0.699   7.648 -0.0474  0.0801  0.1081
20272SOL    HW164732   7.475   0.777   7.643  1.4120  1.1188 -0.2081
20272SOL    HW264733   7.524   0.670   7.739 -0.7126  0.4654  0.1892
20273SOL     OW64734   3.670   9.234   9.076  0.3381  0.5278  0.0268
20273SOL    HW164735   3.750   9.196   9.040 -0.9676 -1.9587 -0.4552
20273SOL    HW264736   3.672   9.212   9.169 -0.6066 -1.2544 -0.3230
20274SOL     OW64737   2.026   4.476   9.256 -0.2524  0.2258 -0.2262
20274SOL    HW164738   1.989   4.393   9.227  3.1990 -1.9196  0.9257
20274SOL    HW264739   2.092   4.498   9.190 -0.4631  1.5777 -0.0247
20275SOL     OW64740   9.229   9.904   3.494 -0.2536 -0.2633  0.1822
20275SOL    HW164741   9.179   9.824   3.481  2.2557 -1.8019 -0.8666
20275SOL    HW264742   9.313   9.873   3.530  0.8692  1.8601 -0.4578
20276SOL     OW64743   2.808   5.784   2.109 -0.3992 -0.0331  0.5199
20276SOL    HW164744   2.872   5.772   2.038  1.2624  0.7470  1.8190
20276SOL    HW264745   2.732   5.822   2.066  0.2970 -0.2302 -0.9670
20277SOL     OW64746   1.739   0.569   4.977  0.1211 -0.0637  0.1904
20277SOL    HW164747   1.728   0.476   4.953 -1.9058 -0.5547  2.5295
20277SOL    HW264748   1.670   0.614   4.927  1.8650  0.4666 -1.8741
20278SOL     OW64749   6.860   9.469   9.051 -0.2323 -0.4036  0.3893
20278SOL    HW164750   6.798   9.524   9.003  0.4437  0.3571  0.3688
20278SOL    HW264751   6.919   9.435   8.983 -1.0161 -1.6653  0.3214
20279SOL     OW64752   2.125   4.033   9.568 -0.4686  0.3330 -0.1838
20279SOL    HW164753   2.151   4.098   9.502  1.5358 -1.4534 -1.2989
20279SOL    HW264754   2.084   4.084   9.637 -1.1764  2.4953 -2.0678
20280SOL     OW64755   4.734   6.181   7.010  0.0975  0.3719  0.0005
20280SOL    HW164756   4.644   6.154   7.027  0.8016 -2.1641  0.0561
20280SOL    HW264757   4.786   6.134   7.075  1.4318  2.5159  0.6089
20281SOL     OW64758   2.688   4.456   0.694 -0.1159 -0.0595 -0.1496
20281SOL    HW164759   2.769   4.425   0.734 -0.9603 -0.4317  1.3242
20281SOL    HW264760   2.646   4.377   0.660 -1.1333 -0.2865  1.5154
20282SOL     OW64761   0.233   9.783   7.106  0.0583 -0.4429  0.0258
20282SOL    HW164762   0.160   9.748   7.057 -0.5819 -0.6916  1.1281
20282SOL    HW264763   0.193   9.835   7.176  0.9598  1.3944 -0.7507
20283SOL     OW64764   9.621   2.886   6.831 -0.0253  0.6008  0.3547
20283SOL    HW164765   9.601   2.970   6.788 -2.1192 -0.8994 -1.8453
20283SOL    HW264766   9.691   2.849   6.779 -2.4896 -1.1681 -1.9785
20284SOL     OW64767   9.578   3.875   6.411  0.4554 -0.3649  0.0483
20284SOL    HW164768   9.559   3.951   6.356 -2.8626 -0.9306  0.2033
20284SOL    HW264769   9.635   3.820   6.357 -3.9186 -1.7047 -3.9094
20285SOL     OW64770   8.894   2.311   3.446 -0.0727 -0.1811  0.0058
20285SOL    HW164771   8.924   2.380   3.505 -1.8729 -0.5988  1.5185
20285SOL    HW264772   8.829   2.354   3.390  0.4247 -0.1642 -0.5657
20286SOL     OW64773   8.362   6.356   9.921 -0.1441  0.7589  0.4975
20286SOL    HW164774   8.322   6.369  10.007  0.2317  0.4386  0.7244
20286SOL    HW264775   8.456   6.350   9.939 -0.1454 -0.3995  0.1900
20287SOL     OW64776   5.904   2.200   6.921  0.1485 -0.5406  0.0978
20287SOL    HW164777   5.820   2.172   6.957  0.4458 -1.3835  0.1557
20287SOL    HW264778   5.896   2.187   6.827  0.3940 -1.1358  0.1539
20288SOL     OW64779   6.873   7.356   0.641 -0.2560  0.4094  0.1800
20288SOL    HW164780   6.861   7.261   0.632 -0.3583  0.5303 -1.2462
20288SOL    HW264781   6.941   7.377   0.577 -0.3540  1.3271  0.3650
20289SOL     OW64782   9.478   6.915   2.205 -0.1309 -0.1866  0.0738
20289SOL    HW164783   9.402   6.967   2.232  0.8271  0.6712  1.2625
20289SOL    HW264784   9.528   6.974   2.149 -0.2676 -0.7047 -0.6044
20290SOL     OW64785  10.183   4.273   4.986 -0.0092  0.2014 -0.5667
20290SOL    HW164786  10.189   4.234   5.074 -0.1418  0.6890 -0.3395
20290SOL    HW264787  10.170   4.366   5.002 -3.4200 -0.0860 -1.0434
20291SOL     OW64788   3.237   3.432   1.806 -0.2078  0.1430 -0.2302
20291SOL    HW164789   3.278   3.512   1.839  2.4321 -1.3097  0.2538
20291SOL    HW264790   3.175   3.407   1.874 -1.6529  2.1025 -0.7247
20292SOL     OW64791   6.590   7.949   1.130 -0.0673 -0.0998 -0.4977
20292SOL    HW164792   6.648   7.933   1.055  1.5099 -0.7323  0.7898
20292SOL    HW264793   6.603   8.042   1.151  0.9323 -0.3639  0.1139
20293SOL     OW64794   9.997   0.875   2.285 -0.0148 -0.4083 -0.1364
20293SOL    HW164795   9.937   0.821   2.336  0.2544 -0.4523  0.1341
20293SOL    HW264796  10.030   0.940   2.347  1.9538 -1.7554  0.3231
20294SOL     OW64797   0.853   2.635   7.307 -0.0707 -0.2959  0.3911
20294SOL    HW164798   0.764   2.641   7.273  0.9403  1.3335 -2.2918
20294SOL    HW264799   0.876   2.724   7.332  1.6695 -0.0897 -1.6209
20295SOL     OW64800   8.078   4.772   3.098 -0.1977  0.2092 -0.0693
20295SOL    HW164801   8.127   4.714   3.039 -1.8520 -0.3537 -0.9496
20295SOL    HW264802   8.085   4.859   3.058  0.0345  0.1265 -0.2078
20296SOL     OW64803   5.495   8.690   8.125  0.3825  0.1967 -0.1065
20296SOL    HW164804   5.420   8.631   8.122 -2.0330  2.7441  3.3154
20296SOL    HW264805   5.556   8.649   8.186  0.4810 -0.4987 -0.6587
20297SOL     OW64806   6.708   2.687   3.257 -0.3182  0.9249  0.3190
20297SOL    HW164807   6.793   2.731   3.256  2.6542 -4.0564 -1.4720
20297SOL    HW264808   6.709   2.632   3.335 -0.4148 -1.3632 -1.1725
20298SOL     OW64809   6.990   9.834   6.758  0.0705  0.2723 -0.1368
20298SOL    HW164810   7.044   9.845   6.837  0.0085  2.9406 -0.3804
20298SOL    HW264811   7.037   9.769   6.706  2.7475  1.9516 -0.0165
20299SOL     OW64812   8.603   8.392   4.205  0.5283  0.3785  0.4089
20299SOL    HW164813   8.576   8.431   4.122 -0.6928 -0.5542  0.3338
20299SOL    HW264814   8.692   8.359   4.189 -0.0363 -0.6130 -0.8401
20300SOL     OW64815   4.302   0.372   0.497 -0.1736 -0.2921 -0.6395
20300SOL    HW164816   4.340   0.457   0.472 -0.9075  0.4445  0.6630
20300SOL    HW264817   4.371   0.309   0.477  0.4601  0.6220 -1.4740
20301SOL     OW64818   8.223   7.358   3.280 -0.0861  0.0133 -0.2913
20301SOL    HW164819   8.247   7.292   3.346 -0.9360  0.0073  0.0191
20301SOL    HW264820   8.148   7.403   3.317 -0.6323 -0.0443 -1.3013
20302SOL     OW64821   6.536   4.299   9.303  1.2143 -0.0463  0.1068
20302SOL    HW164822   6.603   4.302   9.235  1.2447 -0.6804  0.1018
20302SOL    HW264823   6.469   4.361   9.274  1.9068  0.7962  0.2375
20303SOL     OW64824   5.894   9.175   4.903 -0.4495  0.0564 -0.0834
20303SOL    HW164825   5.927   9.113   4.968 -0.1654 -0.1415 -0.4094
20303SOL    HW264826   5.918   9.261   4.938 -1.3952  0.0223  0.6734
20304SOL     OW64827   6.132   4.747   3.241  0.5539  0.0428 -0.1164
20304SOL    HW164828   6.158   4.683   3.307 -0.6606 -0.5734 -0.1986
20304SOL    HW264829   6.165   4.830   3.274 -0.1670 -0.2291  1.3642
20305SOL     OW64830   7.649   9.638   6.910 -0.1576  0.1044  0.0364
20305SOL    HW164831   7.725   9.590   6.878 -0.0325  0.2917  0.0470
20305SOL    HW264832   7.593   9.649   6.833  1.1307  2.4479 -0.6725
20306SOL     OW64833   4.143   2.441   5.065 -0.3752  0.4178 -0.2223
20306SOL    HW164834   4.122   2.517   5.119  1.1162 -1.9398  4.1576
20306SOL    HW264835   4.233   2.418   5.089 -0.7516 -2.7031 -1.2876
20307SOL     OW64836   7.892   3.999   7.710  0.0287 -0.3096 -0.1215
20307SOL    HW164837   7.987   3.992   7.701 -0.1690 -0.7603 -2.1966
20307SOL    HW264838   7.877   4.093   7.722  0.6759 -0.1163 -0.7304
20308SOL     OW64839   2.089   9.545   1.534 -0.4979 -0.1028  0.1407
20308SOL    HW164840   2.105   9.630   1.493 -0.9694 -0.1080 -0.0639
20308SOL    HW264841   2.154   9.487   1.497 -0.2859  0.1279  0.1482
20309SOL     OW64842  10.165   7.843   6.475  0.6183  0.2765  0.1391
20309SOL    HW164843  10.226   7.893   6.421 -0.9892  0.2736 -1.8023
20309SOL    HW264844  10.141   7.903   6.546 -0.4839  1.9653 -1.5634
20310SOL     OW64845   1.570   5.921   5.987 -0.0377 -0.1634 -0.2124
20310SOL    HW164846   1.614   5.856   5.932  2.2216  0.4473  0.7776
20310SOL    HW264847   1.637   5.949   6.050 -2.0800  0.3035  1.8746
20311SOL     OW64848   7.161   6.768   2.065  0.3904 -0.7404 -0.2947
20311SOL    HW164849   7.135   6.803   2.150 -1.3940 -0.2248 -0.9784
20311SOL    HW264850   7.238   6.819   2.040 -0.1901  0.4252  0.2091
20312SOL     OW64851   8.158   3.041   8.839 -0.0484 -0.1571 -0.1570
20312SOL    HW164852   8.222   3.031   8.909  0.7358  0.6748 -0.7359
20312SOL    HW264853   8.074   3.051   8.884  0.1363 -1.6530  0.6032
20313SOL     OW64854   6.168   8.111   4.193 -0.5442  0.3340  0.2900
20313SOL    HW164855   6.167   8.060   4.112 -0.5879  0.6820  0.0694
20313SOL    HW264856   6.158   8.202   4.165 -1.6514  0.3719  0.7661
20314SOL     OW64857   9.017   1.497   2.738  0.2408  0.0785  0.0952
20314SOL    HW164858   9.110   1.521   2.736 -0.4308  3.0749 -0.9534
20314SOL    HW264859   8.988   1.523   2.825 -0.1724  1.9478 -0.5534
20315SOL     OW64860  10.049   2.885   9.170  0.1146 -0.5520 -0.0051
20315SOL    HW164861  10.123   2.884   9.231  0.7005  2.1754 -0.5191
20315SOL    HW264862  10.036   2.978   9.151 -1.2387 -1.1841 -2.6051
20316SOL     OW64863   1.695   8.125   3.322  0.2169  1.0128 -0.1293
20316SOL    HW164864   1.640   8.135   3.399  0.3165  0.0742  0.0739
20316SOL    HW264865   1.634   8.130   3.248  0.0212  1.1576  0.0424
20317SOL     OW64866   1.795   4.954   7.993 -0.6626  0.8330 -0.1300
20317SOL    HW164867   1.736   4.997   8.055 -2.1218 -0.2932 -0.6863
20317SOL    HW264868   1.883   4.978   8.023 -1.3178  0.3940  2.3448
20318SOL     OW64869   3.282   2.034   7.886  0.2588  0.5522 -0.5338
20318SOL    HW164870   3.253   1.945   7.867  1.3201  0.4331 -1.7835
20318SOL    HW264871   3.209   2.089   7.860 -0.0997  0.0859 -0.5286
20319SOL     OW64872   3.122   7.517   9.090 -0.8465  0.1888 -0.3563
20319SOL    HW164873   3.173   7.568   9.153 -1.5516  2.3621 -1.4270
20319SOL    HW264874   3.180   7.445   9.064  1.3957  2.0811 -0.9154
20320SOL     OW64875   4.566   0.658   6.792 -0.0185  0.5518 -1.0198
20320SOL    HW164876   4.576   0.749   6.819  0.3179 -0.0669  1.1202
20320SOL    HW264877   4.485   0.629   6.834  0.1051 -0.2582 -1.3279
20321SOL     OW64878   2.930   1.029   0.356 -0.1443 -0.6406  0.3892
20321SOL    HW164879   2.948   1.121   0.337  0.2570 -0.7176  0.3803
20321SOL    HW264880   2.906   1.028   0.449  0.8915 -0.6575  0.6686
20322SOL     OW64881   7.599   4.431   7.216  0.3155 -0.1325 -0.1830
20322SOL    HW164882   7.554   4.356   7.256  1.8241 -1.1927 -0.3727
20322SOL    HW264883   7.611   4.493   7.288  0.1688 -0.6393  0.2897
20323SOL     OW64884   6.931   1.552   5.523  0.9285 -0.9397 -0.5243
20323SOL    HW164885   6.923   1.639   5.561  2.9554 -0.4668 -1.0793
20323SOL    HW264886   6.849   1.539   5.475 -0.3706 -0.3057  1.4241
20324SOL     OW64887   7.339   4.750   8.312  0.1847  0.0996  0.2574
20324SOL    HW164888   7.329   4.720   8.222  1.8192 -0.2339  0.1505
20324SOL    HW264889   7.339   4.846   8.306  0.7312  0.0741 -0.1509
20325SOL     OW64890   2.057   6.845   7.737 -0.2941 -0.2566 -0.3328
20325SOL    HW164891   2.069   6.887   7.652  0.0072  2.1115  0.8251
20325SOL    HW264892   1.964   6.859   7.758 -0.2434 -0.3937 -0.0155
20326SOL     OW64893   6.582   8.347   3.878  0.1947 -0.4734  0.6724
20326SOL    HW164894   6.629   8.393   3.947 -1.5181 -0.6404  2.0320
20326SOL    HW264895   6.595   8.254   3.898  1.2349 -0.5751 -0.3631
20327SOL     OW64896   1.519   7.874   6.029  0.5478 -0.2113 -0.0215
20327SOL    HW164897   1.586   7.830   5.977  0.8217  1.3552 -1.0395
20327SOL    HW264898   1.566   7.941   6.078  0.2485 -1.4457  2.0848
20328SOL     OW64899   3.511   8.215   0.178  0.7770 -0.4462  0.0134
20328SOL    HW164900   3.436   8.196   0.123  1.0799  0.8131 -0.8882
20328SOL    HW264901   3.477   8.211   0.267 -0.5781  0.8550 -0.4014
20329SOL     OW64902   9.285   4.667   1.366 -0.6753  0.2153  0.2176
20329SOL    HW164903   9.362   4.611   1.355 -1.5651 -1.3192  1.3670
20329SOL    HW264904   9.319   4.756   1.360  0.8257 -0.4002 -1.4824
20330SOL     OW64905   4.444   2.243   8.977 -0.4902  0.0129  0.6140
20330SOL    HW164906   4.523   2.233   9.030  1.3001  0.7971 -1.7007
20330SOL    HW264907   4.456   2.328   8.933 -1.8938 -0.5455 -0.9430
20331SOL     OW64908   3.365   0.799  10.086  0.1208 -0.5162  0.5744
20331SOL    HW164909   3.385   0.839  10.171 -1.3971  0.6054  0.4413
20331SOL    HW264910   3.449   0.765  10.056  1.0519  0.6458  1.7143
20332SOL     OW64911   5.949   8.489   1.319  0.0385 -0.3844 -0.0872
20332SOL    HW164912   5.992   8.509   1.403  0.2596  0.6671 -0.4289
20332SOL    HW264913   6.018   8.502   1.253 -1.0067  2.5506 -0.7671
20333SOL     OW64914   3.300   2.780   4.002 -0.9449  0.7845  0.2579
20333SOL    HW164915   3.361   2.799   4.073  1.0798 -1.6869 -0.6960
20333SOL    HW264916   3.349   2.801   3.922 -1.0353 -1.8286 -0.5554
20334SOL     OW64917   3.842   4.987   9.659  0.1504  0.5413 -0.3720
20334SOL    HW164918   3.904   4.933   9.610 -0.7735  0.6270 -1.7054
20334SOL    HW264919   3.803   5.044   9.593 -1.1475  0.6757  0.4743
20335SOL     OW64920   4.595   0.459   8.870  0.0790 -0.1390  0.8489
20335SOL    HW164921   4.578   0.501   8.785  0.7496  0.1944  0.8749
20335SOL    HW264922   4.606   0.366   8.849 -2.3530 -0.5068  0.9044
20336SOL     OW64923   7.089   3.342   5.620 -0.1033 -0.2186 -0.4888
20336SOL    HW164924   7.002   3.382   5.612  0.5568  2.0539  2.1951
20336SOL    HW264925   7.143   3.390   5.558 -0.3811 -0.4452 -0.9105
20337SOL     OW64926   9.727   2.645   0.607  0.2448  0.3572  0.1623
20337SOL    HW164927   9.682   2.561   0.614 -0.5183  0.6359 -1.0527
20337SOL    HW264928   9.814   2.623   0.574 -1.0487  0.2200 -3.5781
20338SOL     OW64929   4.896   2.720   6.246 -0.1684 -0.2132  0.1571
20338SOL    HW164930   4.846   2.639   6.258 -0.5495 -0.0726 -0.4343
20338SOL    HW264931   4.867   2.754   6.161  0.8529 -0.0642 -0.1457
20339SOL     OW64932   7.045   4.563   6.823  0.1602 -0.4086 -0.2261
20339SOL    HW164933   7.131   4.531   6.848 -0.3989 -1.3002  0.6225
20339SOL    HW264934   6.984   4.494   6.850 -0.7292 -0.3130 -1.8299
20340SOL     OW64935   4.701   7.017   2.980 -0.1306  0.5288  0.0079
20340SOL    HW164936   4.660   6.964   3.048 -0.5499  1.2540  0.3313
20340SOL    HW264937   4.751   6.954   2.928 -0.3588 -0.1345  0.5693
20341SOL     OW64938   1.034   1.864   3.283 -0.1929 -0.1786  0.5931
20341SOL    HW164939   0.963   1.825   3.231  2.7494 -0.6345 -3.5271
20341SOL    HW264940   1.089   1.790   3.308  0.4839  0.4521  1.0091
20342SOL     OW64941   8.552   1.939   7.638 -0.0529 -0.7252  0.1365
20342SOL    HW164942   8.571   2.014   7.695  1.2966 -0.1191 -1.0537
20342SOL    HW264943   8.547   1.976   7.550  1.4006 -2.1216 -0.5826
20343SOL     OW64944   2.433   0.109   4.987 -0.0169  0.6493 -0.0914
20343SOL    HW164945   2.505   0.047   4.977 -1.4136 -1.1955  0.6724
20343SOL    HW264946   2.378   0.095   4.911  0.9553  2.9079 -1.3036
20344SOL     OW64947   2.104   1.537   3.561 -0.0837  0.1004 -0.4919
20344SOL    HW164948   2.060   1.460   3.526  0.5499 -1.6465  2.3069
20344SOL    HW264949   2.035   1.588   3.603 -0.1078 -0.4154  0.1063
20345SOL     OW64950   8.942   7.344   0.638  0.1784  0.4174  0.1597
20345SOL    HW164951   8.856   7.305   0.620  0.5491 -0.6119  0.5411
20345SOL    HW264952   8.926   7.405   0.710 -0.6100  1.7932 -1.1224
20346SOL     OW64953   5.659   0.268   8.074  0.0428 -0.6125 -0.2433
20346SOL    HW164954   5.721   0.230   8.011  1.5921  0.0648  0.8008
20346SOL    HW264955   5.595   0.313   8.020  0.6277 -1.0804 -1.3742
20347SOL     OW64956   8.339   7.945   7.029  0.2215 -0.3785 -0.1069
20347SOL    HW164957   8.309   8.033   7.009 -0.0454 -0.5816 -0.6014
20347SOL    HW264958   8.377   7.952   7.117  1.2356  0.4710 -0.5889
20348SOL     OW64959   8.226   3.272   0.039  0.0300 -0.1192 -0.1145
20348SOL    HW164960   8.246   3.319   0.120  0.3187 -1.4122  0.5818
20348SOL    HW264961   8.186   3.190   0.067 -1.0065 -0.0700 -1.3281
20349SOL     OW64962   5.094   9.227   9.713 -0.2570 -0.5370 -0.2059
20349SOL    HW164963   5.050   9.147   9.684 -1.8801  0.5030 -0.7273
20349SOL    HW264964   5.035   9.298   9.687  0.9635  0.8183  0.5751
20350SOL     OW64965   8.614   4.831   2.577  0.4087  0.9141  0.1307
20350SOL    HW164966   8.677   4.835   2.649  0.2020 -0.6402  0.4360
20350SOL    HW264967   8.649   4.891   2.512  1.7909  0.6958  0.6205
20351SOL     OW64968   0.898   9.935   5.528  0.2678  0.6261 -0.4553
20351SOL    HW164969   0.916   9.856   5.578 -2.8230  0.6475  0.9651
20351SOL    HW264970   0.968   9.996   5.550  1.0310 -0.6889  0.8416
20352SOL     OW64971   2.466   7.637   6.814  0.3361  0.0284  0.0616
20352SOL    HW164972   2.432   7.716   6.856  0.0931 -1.6222  3.2288
20352SOL    HW264973   2.552   7.663   6.782 -0.8140  2.2621 -1.5157
20353SOL     OW64974   6.853   6.759   0.821  0.2550 -0.2619  0.2178
20353SOL    HW164975   6.915   6.832   0.825  1.0111 -0.8791  0.0886
20353SOL    HW264976   6.809   6.759   0.906 -0.4511  0.9298 -0.1226
20354SOL     OW64977   0.005   1.913   3.630 -0.2522  0.1555  0.0948
20354SOL    HW164978   0.092   1.930   3.593  0.3348 -0.6027  1.0937
20354SOL    HW264979  -0.033   2.000   3.640  0.5201  0.5209 -0.0459
20355SOL     OW64980   5.427   0.879   9.750 -0.2968 -0.4347 -0.3688
20355SOL    HW164981   5.464   0.793   9.734  0.7523  0.0344 -0.5013
20355SOL    HW264982   5.348   0.882   9.695 -0.5880 -1.4630 -0.0156
20356SOL     OW64983   2.059   3.706   3.487  0.3395 -0.5303 -0.4273
20356SOL    HW164984   2.059   3.737   3.578  0.6628 -0.2821 -0.5127
20356SOL    HW264985   1.978   3.655   3.480 -0.0992  0.1189 -0.2289
20357SOL     OW64986   5.365   5.041   5.395  0.2210 -0.6711 -0.2203
20357SOL    HW164987   5.426   5.108   5.363 -0.7766 -0.1150 -1.0082
20357SOL    HW264988   5.376   5.042   5.490  1.6975 -0.8466 -0.3616
20358SOL     OW64989   0.046   3.303   7.451 -0.1723 -0.3101  0.5471
20358SOL    HW164990   0.106   3.357   7.399 -0.4574 -1.9195 -1.5954
20358SOL    HW264991  -0.013   3.367   7.492  1.2671  1.1406  0.4520
20359SOL     OW64992  10.083   2.574   8.339  0.3586  0.2853  0.5739
20359SOL    HW164993  10.116   2.496   8.384 -0.2922 -1.3799 -1.6431
20359SOL    HW264994   9.988   2.566   8.343  0.2881  0.8213  0.0882
20360SOL     OW64995   4.609   4.968   0.259  0.5221  0.2362  0.0052
20360SOL    HW164996   4.611   4.972   0.164  1.4859 -0.6390 -0.0296
20360SOL    HW264997   4.526   4.924   0.279  0.2192  0.6083 -0.4163
20361SOL     OW64998   1.612   3.237   6.931  0.8657 -0.4807 -0.8719
20361SOL    HW164999   1.617   3.259   6.838  1.5533  0.2396 -0.6754
20361SOL    HW265000   1.614   3.322   6.976  0.0979 -0.7974 -0.2102
20362SOL     OW65001   4.132   9.787   5.380 -0.3130 -0.4660  0.1284
20362SOL    HW165002   4.185   9.793   5.459 -1.1374 -0.0413  0.6613
20362SOL    HW265003   4.165   9.856   5.323 -0.2678 -0.2256  0.4441
20363SOL     OW65004   7.628   6.865   8.416  0.2022  0.0738 -0.6446
20363SOL    HW165005   7.642   6.844   8.323  0.5249  0.7080 -0.7429
20363SOL    HW265006   7.617   6.960   8.417 -0.5619 -0.0095 -0.1223
20364SOL     OW65007   0.821   3.821   5.765  0.3232 -0.4519  0.0935
20364SOL    HW165008   0.821   3.786   5.854  0.2961 -0.1879  0.1984
20364SOL    HW265009   0.812   3.744   5.709 -0.5272 -0.5539  0.3439
20365SOL     OW65010   6.182   4.904   4.919 -0.3030 -0.0163  0.0718
20365SOL    HW165011   6.258   4.869   4.872 -1.4401 -0.7375 -1.2961
20365SOL    HW265012   6.153   4.979   4.866 -0.1766  0.6515  0.9286
20366SOL     OW65013   6.950   4.452   5.765  0.2878 -0.0392 -0.3591
20366SOL    HW165014   6.871   4.414   5.804  0.1236  1.6268  1.0467
20366SOL    HW265015   6.917   4.517   5.702  0.5699 -1.7873 -2.4492
20367SOL     OW65016   5.986   5.309   1.230 -0.7814  0.0651 -0.2537
20367SOL    HW165017   5.964   5.389   1.183  0.3680  1.2494  1.1614
20367SOL    HW265018   5.959   5.326   1.320  1.9253 -0.0450  0.6487
20368SOL     OW65019   7.986   6.377   8.614  0.2178  0.5904  0.1257
20368SOL    HW165020   8.028   6.301   8.654 -1.5938 -0.7239 -0.3483
20368SOL    HW265021   7.916   6.401   8.675 -1.0044  0.0960 -1.0532
20369SOL     OW65022   7.428   0.745   3.921  0.0955 -0.1297 -0.2950
20369SOL    HW165023   7.489   0.729   3.849 -0.7516 -2.2619 -0.6340
20369SOL    HW265024   7.464   0.694   3.995 -0.6276 -0.4459 -0.1504
20370SOL     OW65025   1.429   2.178   2.295  0.2027 -0.0832  0.3045
20370SOL    HW165026   1.407   2.239   2.365  2.8828  0.2439  0.9912
20370SOL    HW265027   1.453   2.234   2.221  1.3795 -0.2736  0.5110
20371SOL     OW65028   8.926  10.173   1.718  0.2509 -0.5233  0.0220
20371SOL    HW165029   8.856  10.231   1.747  1.6531  0.4313  1.6355
20371SOL    HW265030   8.892  10.085   1.735 -0.6781 -0.0863  0.5049
20372SOL     OW65031   2.172   4.913   0.888  0.6692 -0.2374 -0.4498
20372SOL    HW165032   2.189   4.848   0.956 -1.4931  0.1469  0.5472
20372SOL    HW265033   2.201   4.871   0.807  0.5871 -1.9008  0.3401
20373SOL     OW65034   6.545   2.189   0.213  0.5916 -0.3067  0.4485
20373SOL    HW165035   6.562   2.096   0.231  0.1666 -0.6217 -0.6967
20373SOL    HW265036   6.632   2.228   0.207  0.7798 -0.6831  0.6945
20374SOL     OW65037   4.548   7.826   2.750 -0.1703 -0.1938  0.9628
20374SOL    HW165038   4.568   7.742   2.792 -0.4275 -1.1914 -0.7942
20374SOL    HW265039   4.459   7.847   2.778 -0.9222 -1.6236 -0.2067
20375SOL     OW65040   7.681   5.733   4.081 -0.2843  0.5926 -0.7597
20375SOL    HW165041   7.639   5.718   4.166  0.8714 -3.4151 -0.6729
20375SOL    HW265042   7.609   5.727   4.018 -0.6597 -0.6625 -0.2570
20376SOL     OW65043   2.203   1.732   9.777  0.0235  0.4075  0.1695
20376SOL    HW165044   2.117   1.771   9.789  0.4563  1.2442  0.7148
20376SOL    HW265045   2.193   1.642   9.808 -0.8098  0.2949 -0.3970
20377SOL     OW65046   0.749   0.257   1.640  0.2540  0.2348 -0.7845
20377SOL    HW165047   0.703   0.329   1.684  2.2620  0.5961  0.8826
20377SOL    HW265048   0.746   0.280   1.547 -0.5983  1.5977 -0.4559
20378SOL     OW65049   3.037   4.158  10.157 -0.2908  0.5522 -0.6354
20378SOL    HW165050   2.962   4.185  10.105 -0.6167 -0.4114 -0.6907
20378SOL    HW265051   3.002   4.094  10.218  0.1883  1.2824  0.4350
20379SOL     OW65052   2.048   6.549   6.969 -0.2365 -0.1630 -0.4670
20379SOL    HW165053   2.126   6.563   6.913 -1.8936  0.1641 -2.8664
20379SOL    HW265054   1.980   6.521   6.908 -1.8772 -1.0366  1.6522
20380SOL     OW65055   3.514   5.788   3.989  0.0996  0.2359  0.1111
20380SOL    HW165056   3.500   5.855   4.055  0.2409  0.0140  0.3657
20380SOL    HW265057   3.449   5.720   4.010  0.9428 -0.3847  0.7470
20381SOL     OW65058   6.858   2.257   1.903  0.2562 -0.6281  0.3613
20381SOL    HW165059   6.853   2.321   1.831 -1.6745  1.1606  1.9706
20381SOL    HW265060   6.927   2.290   1.959 -0.8629  0.2218  1.2870
20382SOL     OW65061   8.541   8.484   2.448 -0.1850  0.4675  0.4177
20382SOL    HW165062   8.532   8.569   2.405  1.7905 -0.5413 -2.3170
20382SOL    HW265063   8.496   8.423   2.390 -1.3688 -0.4257  2.2116
20383SOL     OW65064   9.120   9.826   1.007  0.3419 -0.4990 -0.2544
20383SOL    HW165065   9.076   9.802   1.089  0.9768 -0.1190  0.2097
20383SOL    HW265066   9.171   9.749   0.984 -2.0388 -1.7081 -1.8659
20384SOL     OW65067   2.813   3.269   2.798 -0.5888 -0.3967 -0.1169
20384SOL    HW165068   2.735   3.223   2.767 -1.0466 -0.2714  0.8090
20384SOL    HW265069   2.795   3.361   2.779 -0.2760 -0.4487 -0.6987
20385SOL     OW65070   8.858   3.716   4.002 -0.4932 -0.2633  0.1944
20385SOL    HW165071   8.898   3.774   4.066  1.1570 -0.6136 -0.4844
20385SOL    HW265072   8.915   3.639   3.999 -1.3180 -0.8724 -0.6690
20386SOL     OW65073   9.375   8.823   4.511  0.4736  0.0300  0.1069
20386SOL    HW165074   9.466   8.850   4.502  0.1697  0.7147 -1.1113
20386SOL    HW265075   9.324   8.901   4.490 -0.4010 -0.7373 -0.7369
20387SOL     OW65076   3.507   5.559   8.460 -0.2891  0.6934 -0.2234
20387SOL    HW165077   3.470   5.544   8.373 -1.0601  2.4802 -0.2475
20387SOL    HW265078   3.597   5.527   8.454 -0.7546 -0.5209 -1.2220
20388SOL     OW65079   8.763   6.170   3.856  0.0123  0.8024 -0.3022
20388SOL    HW165080   8.774   6.224   3.777 -1.7313  0.9186 -0.5051
20388SOL    HW265081   8.669   6.154   3.861  0.4161 -1.9044 -0.0129
20389SOL     OW65082   8.016   9.245   6.444 -0.3478 -0.1334 -0.0450
20389SOL    HW165083   8.031   9.208   6.357 -2.7137  0.1903 -0.6526
20389SOL    HW265084   7.966   9.326   6.427 -0.1501  0.3529  1.5697
20390SOL     OW65085   5.173   6.782   6.189  0.2944  0.1891 -0.3535
20390SOL    HW165086   5.153   6.779   6.282  2.1153 -0.4122  0.0540
20390SOL    HW265087   5.111   6.722   6.148 -0.6746  0.6427  0.4213
20391SOL     OW65088   9.706   5.392   7.425 -0.2960  0.5435  0.6641
20391SOL    HW165089   9.649   5.367   7.353  1.1484 -0.3150 -0.2426
20391SOL    HW265090   9.794   5.370   7.394  0.3055 -0.6501  2.9954
20392SOL     OW65091   8.266   0.800   6.726 -0.2877 -0.4539 -0.0929
20392SOL    HW165092   8.171   0.797   6.713 -0.4762 -1.0945  1.2088
20392SOL    HW265093   8.276   0.807   6.821  0.9607  0.7402 -0.2817
20393SOL     OW65094   3.152   5.518   5.904  0.2988  0.1846 -0.1055
20393SOL    HW165095   3.090   5.563   5.845 -2.4418  0.3058  2.6416
20393SOL    HW265096   3.140   5.425   5.884 -0.0966  0.2564 -0.2295
20394SOL     OW65097   0.779   0.648   7.536 -0.1422  0.2899 -0.4186
20394SOL    HW165098   0.864   0.628   7.575 -1.1334 -1.1521  1.1162
20394SOL    HW265099   0.773   0.744   7.540  0.3500  0.2869  1.8741
20395SOL     OW65100   9.752   6.422   0.715 -0.2415 -0.1021  0.0717
20395SOL    HW165101   9.782   6.337   0.749 -0.6378  0.2140  1.2518
20395SOL    HW265102   9.662   6.406   0.688 -0.3753 -0.0098  0.4652
20396SOL     OW65103   4.455   2.784   8.364  0.1235  0.1252  0.4313
20396SOL    HW165104   4.416   2.699   8.385  2.2193 -1.4825 -1.6396
20396SOL    HW265105   4.524   2.796   8.429 -0.7346  0.7014  1.2543
20397SOL     OW65106   4.548   2.919   4.215 -0.2601 -0.0479 -0.1959
20397SOL    HW165107   4.629   2.915   4.265 -0.0874 -0.3807 -0.4934
20397SOL    HW265108   4.542   3.010   4.186 -0.0699  0.0117 -0.0495
20398SOL     OW65109   0.213   4.782   4.109  0.4112 -0.1073  0.2434
20398SOL    HW165110   0.214   4.833   4.190 -0.4831 -0.6591  0.6086
20398SOL    HW265111   0.199   4.692   4.137  2.7801 -0.7220 -0.3294
20399SOL     OW65112   5.820   1.443   4.961  0.1474 -0.1383 -0.4223
20399SOL    HW165113   5.886   1.373   4.963 -1.5350 -1.8213 -0.9001
20399SOL    HW265114   5.739   1.398   4.938 -0.9772  2.0339 -0.9044
20400SOL     OW65115   5.756   5.450   9.302  0.2237 -0.5449 -0.3335
20400SOL    HW165116   5.677   5.398   9.296  0.9293 -1.8431  0.9499
20400SOL    HW265117   5.770   5.484   9.213 -2.2999  0.6149 -0.3655
20401SOL     OW65118   2.552   6.703   6.160  0.3119 -0.2286  0.0144
20401SOL    HW165119   2.597   6.769   6.109 -0.9042  0.3402 -0.3493
20401SOL    HW265120   2.607   6.691   6.238  0.3187  1.5502  0.3133
20402SOL     OW65121   9.648   0.302   4.484  0.3760 -0.7030  0.5200
20402SOL    HW165122   9.699   0.233   4.443  2.1299  0.5075  0.5597
20402SOL    HW265123   9.571   0.312   4.428  1.4443 -0.8391 -1.0112
20403SOL     OW65124   1.931   5.081   3.166 -0.6245 -0.5159 -0.3244
20403SOL    HW165125   1.902   5.153   3.223  1.0854 -0.6931  0.8789
20403SOL    HW265126   1.968   5.016   3.227 -0.2352 -1.4659 -1.5311
20404SOL     OW65127   4.966   7.053  10.160  0.0560  0.2998 -0.2636
20404SOL    HW165128   4.883   7.100  10.159 -0.4229 -0.3582  2.0404
20404SOL    HW265129   4.969   7.007  10.077 -0.4133  2.7056 -1.6996
20405SOL     OW65130   1.712  10.023   2.541 -0.4094  0.1103 -0.6128
20405SOL    HW165131   1.647   9.978   2.488 -0.5452 -0.0301 -0.3280
20405SOL    HW265132   1.761  10.076   2.479 -2.0879  1.8111 -0.5715
20406SOL     OW65133   9.107   1.433   6.110  0.0628  0.4190  0.4360
20406SOL    HW165134   9.079   1.359   6.057 -0.2200  0.6450  0.2658
20406SOL    HW265135   9.122   1.504   6.048 -0.0682  0.6240  0.6341
20407SOL     OW65136   2.030   5.969   4.725 -0.0689 -0.1434  0.0383
20407SOL    HW165137   1.966   5.975   4.796 -0.2127 -3.3372  0.3570
20407SOL    HW265138   2.079   6.050   4.729 -2.9562  1.7248  0.8909
20408SOL     OW65139   1.227   6.875   5.688 -0.0548 -0.2660 -0.0686
20408SOL    HW165140   1.199   6.796   5.734  1.1431 -0.6615  0.0175
20408SOL    HW265141   1.292   6.845   5.626 -0.7146  0.4513 -1.1359
20409SOL     OW65142   9.841   2.635   9.182 -0.4347 -0.0551  0.2547
20409SOL    HW165143   9.849   2.730   9.178 -0.1339 -0.0819  0.1711
20409SOL    HW265144   9.825   2.608   9.091  2.5124 -0.3325 -0.2862
20410SOL     OW65145   0.953   5.102   4.711 -0.3350  0.0383  0.4207
20410SOL    HW165146   0.981   5.174   4.655  2.1373 -0.9732  0.2520
20410SOL    HW265147   0.883   5.059   4.661  0.5210  0.2846 -1.0496
20411SOL     OW65148   7.649   9.195   2.459  0.0297 -0.1686  0.0833
20411SOL    HW165149   7.558   9.172   2.440 -0.1799  1.0947 -0.5739
20411SOL    HW265150   7.700   9.124   2.422 -0.6674 -0.6140 -0.0396
20412SOL     OW65151   2.336   6.638   6.474 -0.3181 -0.3191  0.2759
20412SOL    HW165152   2.319   6.568   6.537  1.0182  0.5993  1.7065
20412SOL    HW265153   2.336   6.718   6.525  4.2639  0.1945 -0.0809
20413SOL     OW65154   1.015   8.266   6.663 -0.0583 -0.6525  0.2964
20413SOL    HW165155   1.075   8.235   6.595 -0.5908 -0.1350 -0.4232
20413SOL    HW265156   1.024   8.202   6.734 -0.3556 -1.8851 -0.7306
20414SOL     OW65157   8.326   0.097   2.320  0.1644  0.0465  0.1065
20414SOL    HW165158   8.252   0.134   2.367 -0.2997 -1.7080  0.8489
20414SOL    HW265159   8.389   0.168   2.314 -1.6110  1.6335 -0.6707
20415SOL     OW65160   0.444   5.735   6.584 -0.0910  0.4111  0.2740
20415SOL    HW165161   0.488   5.650   6.587 -0.1690  0.3880  0.7909
20415SOL    HW265162   0.445   5.759   6.491  1.6209  0.7307  0.3489
20416SOL     OW65163   0.611   8.345   7.195  0.3272  0.0058  0.1018
20416SOL    HW165164   0.690   8.301   7.226  0.4052 -0.4131 -0.6695
20416SOL    HW265165   0.592   8.304   7.111 -1.1859 -0.4961  0.6438
20417SOL     OW65166   1.736   9.157   0.149 -0.5380  0.1646  0.1568
20417SOL    HW165167   1.763   9.244   0.179 -1.5630  0.0409  1.5920
20417SOL    HW265168   1.712   9.111   0.230 -1.2038 -1.0251 -0.6921
20418SOL     OW65169   5.983   6.485   0.551  0.0014 -0.0601 -0.2222
20418SOL    HW165170   5.938   6.518   0.628  0.1773  0.0092 -0.1498
20418SOL    HW265171   5.980   6.557   0.488 -2.3713 -0.9239 -1.2370
20419SOL     OW65172   4.142   8.768   7.556  0.1686  0.2010 -0.0384
20419SOL    HW165173   4.141   8.803   7.467  1.4164  1.3779  0.3831
20419SOL    HW265174   4.066   8.710   7.560  1.4415 -1.8455 -2.6410
20420SOL     OW65175   3.674   6.657   1.140 -0.1783 -0.2735 -0.1454
20420SOL    HW165176   3.693   6.604   1.217 -1.1862 -0.3143  0.0825
20420SOL    HW265177   3.633   6.596   1.078 -0.3784  0.0069 -0.2910
20421SOL     OW65178   3.643   5.425   4.998  0.0545  0.5744  0.0683
20421SOL    HW165179   3.548   5.431   5.001 -0.1456 -1.1008 -1.5817
20421SOL    HW265180   3.669   5.479   4.924  0.5949  2.2689  1.4051
20422SOL     OW65181   7.053   2.089   2.438  0.3582 -0.1554  0.4714
20422SOL    HW165182   6.992   2.077   2.365  0.8911 -1.1406  0.1639
20422SOL    HW265183   7.011   2.045   2.512  0.1810  0.1496  0.5518
20423SOL     OW65184   3.038   3.290   7.410 -0.3837 -0.4174  0.0485
20423SOL    HW165185   3.027   3.342   7.330 -2.3116  1.7181  1.5638
20423SOL    HW265186   3.129   3.258   7.406  0.4236  1.8322 -1.7188
20424SOL     OW65187   6.364   1.612   7.173  0.5086  0.3654  0.1586
20424SOL    HW165188   6.458   1.619   7.162  0.3796  0.7795 -0.8665
20424SOL    HW265189   6.351   1.528   7.218  1.4112  0.8760  1.4250
20425SOL     OW65190   5.928   9.709   1.403 -0.3887 -0.0721  0.5168
20425SOL    HW165191   6.017   9.742   1.417 -0.4268 -0.4125  1.7171
20425SOL    HW265192   5.903   9.672   1.488 -1.3333 -0.8056 -0.0597
20426SOL     OW65193   0.152   4.777   0.186 -0.0839 -0.4367  0.1913
20426SOL    HW165194   0.176   4.862   0.225  0.1190  0.3733 -1.6087
20426SOL    HW265195   0.130   4.722   0.261  2.1478  0.4509  1.6102
20427SOL     OW65196   2.028   0.343   5.347  0.2134  0.0725  0.4041
20427SOL    HW165197   2.008   0.397   5.271 -0.2183 -2.2485 -1.2379
20427SOL    HW265198   2.082   0.272   5.313  0.8544 -0.5154  2.4773
20428SOL     OW65199   1.070   7.919   5.532  0.0564  0.0125  0.2037
20428SOL    HW165200   1.154   7.890   5.567 -0.8748 -2.2736  0.6604
20428SOL    HW265201   1.084   7.922   5.437  0.0687 -2.6706  0.0402
20429SOL     OW65202   1.826   1.877   8.839  0.0360  0.4670  0.1583
20429SOL    HW165203   1.816   1.782   8.839  0.0323  0.4630 -0.5909
20429SOL    HW265204   1.885   1.895   8.766 -2.9156  1.2958 -2.2502
20430SOL     OW65205   8.435   9.644   0.698 -0.0229  0.0778 -0.0257
20430SOL    HW165206   8.419   9.642   0.604  0.2624  0.3591 -0.0814
20430SOL    HW265207   8.468   9.557   0.719  1.2766  0.4472 -0.4362
20431SOL     OW65208   2.096   6.154   6.240  0.2877  0.0451  0.8267
20431SOL    HW165209   2.129   6.243   6.257  0.5145  0.0096  0.5682
20431SOL    HW265210   2.001   6.164   6.241  0.3053  0.2137  1.2175
20432SOL     OW65211   3.766   9.784   8.394  0.0744 -0.2877  0.0752
20432SOL    HW165212   3.718   9.721   8.448 -1.3944  1.2494  0.6530
20432SOL    HW265213   3.826   9.731   8.342 -2.0467 -2.2918 -0.4693
20433SOL     OW65214   7.920   3.466   2.938  0.5589  0.1158 -0.1768
20433SOL    HW165215   7.882   3.531   2.997 -0.6521 -0.9598  0.2934
20433SOL    HW265216   7.969   3.407   2.995  1.9044  0.7517 -0.6357
20434SOL     OW65217   4.495   1.610   8.737 -0.0141 -0.0179 -0.0499
20434SOL    HW165218   4.431   1.580   8.672 -0.7384  1.5092 -0.0757
20434SOL    HW265219   4.492   1.543   8.806 -1.3421 -0.1981 -0.2484
20435SOL     OW65220   1.273   6.704  10.157 -0.1990  0.3657 -0.5267
20435SOL    HW165221   1.323   6.779  10.125 -0.0314  0.4280 -0.1202
20435SOL    HW265222   1.257   6.722  10.249  0.6710 -0.5372 -0.1793
20436SOL     OW65223   1.202   7.077   8.962 -0.4735 -0.4763 -0.2380
20436SOL    HW165224   1.149   7.155   8.977 -1.5972 -1.4645  1.1154
20436SOL    HW265225   1.237   7.089   8.873  0.6051  2.2344  0.4377
20437SOL     OW65226   8.527   9.075   4.157 -0.3769  0.2114  0.4382
20437SOL    HW165227   8.583   8.998   4.162 -1.1958 -0.4159  0.1389
20437SOL    HW265228   8.543   9.122   4.239  0.7374  0.1569  0.2611
20438SOL     OW65229   8.609   9.312   3.788  0.2457 -0.6441 -0.4589
20438SOL    HW165230   8.515   9.324   3.778  0.0430 -0.5608  1.3614
20438SOL    HW265231   8.645   9.401   3.786  0.2512 -0.6484 -0.6418
20439SOL     OW65232   6.570   9.158   5.556 -0.1037 -0.3568  0.5041
20439SOL    HW165233   6.618   9.219   5.611 -0.5498  1.6115 -1.1827
20439SOL    HW265234   6.485   9.200   5.542 -0.3848 -1.3129 -0.7981
20440SOL     OW65235   0.465   2.431   7.428 -0.4501  0.7136  0.7806
20440SOL    HW165236   0.483   2.409   7.337 -2.4952 -0.7038  0.6431
20440SOL    HW265237   0.543   2.478   7.458  1.5820 -1.4685 -0.7862
20441SOL     OW65238   1.332   6.268   5.766  0.4420  0.5365 -0.2918
20441SOL    HW165239   1.310   6.271   5.672  0.8170  0.8373 -0.3718
20441SOL    HW265240   1.356   6.177   5.781  0.0782  0.4184 -0.4214
20442SOL     OW65241   1.570   9.554   2.894 -0.4229  0.3257  0.2686
20442SOL    HW165242   1.493   9.589   2.940 -1.1263 -1.5577  0.6029
20442SOL    HW265243   1.536   9.530   2.807 -0.7441 -2.2533  1.0274
20443SOL     OW65244   9.043   7.023   2.910 -0.0877 -0.2537  0.2789
20443SOL    HW165245   8.949   7.037   2.906 -0.1514 -0.6143  0.5294
20443SOL    HW265246   9.079   7.086   2.847 -0.7243 -2.1912 -2.2039
20444SOL     OW65247   5.759   5.198   0.665 -0.8231 -0.0287  0.3769
20444SOL    HW165248   5.756   5.151   0.749 -0.1371  1.1792  1.1106
20444SOL    HW265249   5.852   5.214   0.650 -0.9975  0.4329 -0.2448
20445SOL     OW65250   3.387   6.406   3.538  0.4137  0.0182  0.7203
20445SOL    HW165251   3.433   6.337   3.585  0.4294 -1.1109 -0.8836
20445SOL    HW265252   3.338   6.452   3.606 -1.6308 -3.1296  1.5834
20446SOL     OW65253   4.087   6.877   0.204  0.4411  0.6962 -0.0292
20446SOL    HW165254   4.077   6.965   0.240 -0.1122  0.8391 -0.5118
20446SOL    HW265255   4.175   6.875   0.168  0.7523  0.7782  0.7131
20447SOL     OW65256   9.575   0.533   2.608  0.3307  0.1390  0.1744
20447SOL    HW165257   9.498   0.551   2.553 -1.2150 -1.7435  1.5718
20447SOL    HW265258   9.558   0.446   2.644  3.1087 -0.2841  0.6397
20448SOL     OW65259   3.392   8.308   3.478  0.0058 -0.2542 -0.1608
20448SOL    HW165260   3.412   8.262   3.397  0.3440 -1.1415  0.4126
20448SOL    HW265261   3.452   8.271   3.543 -0.8969 -0.2454  0.7154
20449SOL     OW65262   1.140   9.443   3.703 -0.3917 -0.1214  0.1664
20449SOL    HW165263   1.069   9.380   3.714 -2.8488  2.6472  1.4902
20449SOL    HW265264   1.100   9.515   3.654  1.4504  1.6041  1.0713
20450SOL     OW65265   4.837   4.062   4.019 -0.7338  0.6491 -0.1397
20450SOL    HW165266   4.799   3.981   4.053 -1.2134  0.1560 -1.7587
20450SOL    HW265267   4.872   4.107   4.096 -3.2157  0.3859  1.2186
20451SOL     OW65268   4.120   4.042   6.273 -0.3835 -0.2606  0.4619
20451SOL    HW165269   4.188   4.001   6.327 -0.4048 -0.2826  0.4721
20451SOL    HW265270   4.156   4.041   6.185 -0.2220  0.0576  0.5264
20452SOL     OW65271   1.660   4.844   4.558  0.1465 -0.3067  0.2340
20452SOL    HW165272   1.594   4.835   4.489  0.8795 -2.2202 -0.2819
20452SOL    HW265273   1.659   4.760   4.603  0.9544  0.2876  1.4048
20453SOL     OW65274   6.924   0.734   8.793 -0.4871  0.2125  0.0111
20453SOL    HW165275   6.940   0.652   8.839  0.1470  0.8606  0.9908
20453SOL    HW265276   6.866   0.783   8.851 -0.4784  0.6469 -0.3381
20454SOL     OW65277   8.458   1.008   2.037 -0.0835 -0.3689  0.4709
20454SOL    HW165278   8.515   0.996   1.961  0.2273  1.6788  0.3368
20454SOL    HW265279   8.500   1.075   2.089 -3.0946  2.5895 -0.5093
20455SOL     OW65280   3.504   5.535  10.086 -0.0118  0.1763 -0.4578
20455SOL    HW165281   3.426   5.529  10.032  1.0081 -1.8967 -1.8131
20455SOL    HW265282   3.475   5.510  10.174 -0.8996 -0.3970 -0.9020
20456SOL     OW65283   0.809   0.064   3.165  0.1311  0.1182 -0.1993
20456SOL    HW165284   0.723   0.103   3.177  0.0804 -0.6271  2.3166
20456SOL    HW265285   0.815   0.047   3.071 -2.4955  0.1092 -0.4235
20457SOL     OW65286   3.060   1.915   8.362  0.3423  0.0198 -0.3051
20457SOL    HW165287   2.991   1.899   8.297  0.1770 -0.8753  0.0705
20457SOL    HW265288   3.013   1.919   8.446  0.6646  0.1367 -0.1311
20458SOL     OW65289   6.460   6.613   0.767 -0.0762 -0.2012  1.2235
20458SOL    HW165290   6.502   6.693   0.799 -0.0180 -0.5529  2.0733
20458SOL    HW265291   6.433   6.633   0.678 -1.5732  1.3565  1.9529
20459SOL     OW65292   0.696   1.372   8.165 -0.0738  0.0517 -0.0401
20459SOL    HW165293   0.724   1.312   8.096  0.8318 -1.0328  1.2034
20459SOL    HW265294   0.755   1.353   8.238 -1.8032  0.2374  1.4789
20460SOL     OW65295   3.159   1.113   2.021  0.2270 -0.0072 -0.1079
20460SOL    HW165296   3.219   1.043   2.049  1.3017  0.2213 -1.7231
20460SOL    HW265297   3.203   1.194   2.048  0.0544  0.1179 -0.2015
20461SOL     OW65298   3.830   8.376   8.066  0.0016 -0.5003 -0.0716
20461SOL    HW165299   3.836   8.468   8.040  1.5681 -0.4748  0.2653
20461SOL    HW265300   3.755   8.373   8.125  0.1157  0.6329  0.1524
20462SOL     OW65301   6.463   3.293   5.340 -0.3253  0.2177 -0.3956
20462SOL    HW165302   6.495   3.225   5.400 -0.6717 -0.8688 -1.3931
20462SOL    HW265303   6.447   3.369   5.395  0.5291 -0.3636  0.6851
20463SOL     OW65304   2.596   2.962   7.011  0.5204  0.6717  0.0780
20463SOL    HW165305   2.525   2.935   7.070  0.9621  1.1367  0.8371
20463SOL    HW265306   2.671   2.910   7.038  0.8158  1.1367  0.1563
20464SOL     OW65307   0.853   8.426   5.169 -0.4139 -0.2966 -0.8191
20464SOL    HW165308   0.897   8.424   5.083  1.3910 -1.0925  0.0540
20464SOL    HW265309   0.784   8.361   5.162  1.8568 -2.9260 -0.7022
20465SOL     OW65310   2.821   6.438   0.917  0.0305  0.2780  0.7174
20465SOL    HW165311   2.795   6.468   0.830  0.3443  0.6378  0.7399
20465SOL    HW265312   2.741   6.441   0.969 -0.1190  0.2456  0.4907
20466SOL     OW65313   2.947   9.616   1.028  0.1175 -0.1402 -0.2998
20466SOL    HW165314   2.977   9.636   1.117  1.3366  1.7240 -1.0556
20466SOL    HW265315   2.861   9.577   1.040  0.9284 -1.5175  1.7708
20467SOL     OW65316   7.674   0.056   4.939 -0.2648 -0.1080  0.2621
20467SOL    HW165317   7.671   0.057   4.844  1.0838  2.0147  0.1676
20467SOL    HW265318   7.597   0.105   4.966 -0.2598 -0.0793  0.2251
20468SOL     OW65319   3.198   3.572   0.739  0.6300  0.2192 -0.3181
20468SOL    HW165320   3.248   3.491   0.733  0.2959 -0.0253  0.1506
20468SOL    HW265321   3.117   3.547   0.784  0.2698  0.6940 -0.6893
20469SOL     OW65322   5.344   2.727   5.463  0.3035 -0.4863  0.4840
20469SOL    HW165323   5.288   2.798   5.432  1.6639  0.1874 -0.5918
20469SOL    HW265324   5.285   2.653   5.474 -1.3728  1.0230  2.6702
20470SOL     OW65325   6.555   7.142   2.706 -0.1052  0.2596  0.1730
20470SOL    HW165326   6.571   7.127   2.799 -0.6501 -0.6771  0.1288
20470SOL    HW265327   6.576   7.058   2.664  1.5012  1.0629 -0.7471
20471SOL     OW65328   0.666   3.156   8.411 -0.6135 -0.5934 -0.4038
20471SOL    HW165329   0.617   3.153   8.328 -1.4045 -1.2409  0.0712
20471SOL    HW265330   0.734   3.221   8.396 -1.3155 -0.0248 -1.2616
20472SOL     OW65331   6.479   2.518   8.703  1.2304  0.4064 -0.7879
20472SOL    HW165332   6.440   2.584   8.645 -0.8078  0.1885  0.2337
20472SOL    HW265333   6.566   2.503   8.667  0.1449  0.4259 -3.6930
20473SOL     OW65334   9.767   0.549   3.141  0.2453  0.2017  0.4606
20473SOL    HW165335   9.712   0.498   3.082  2.2406 -1.6212  0.0681
20473SOL    HW265336   9.817   0.606   3.084 -0.6223  1.2994  0.7585
20474SOL     OW65337   8.973   0.466   8.895 -0.2935  0.1156  0.3204
20474SOL    HW165338   8.954   0.555   8.923  0.5071  0.6895 -0.8668
20474SOL    HW265339   8.919   0.410   8.952  0.6623  1.2266  2.4156
20475SOL     OW65340   9.881   2.935   1.518  0.8301  0.2421  0.4763
20475SOL    HW165341   9.836   2.862   1.560  1.6492 -0.2450  0.5459
20475SOL    HW265342   9.970   2.931   1.553  1.4129  0.0960 -0.9699
20476SOL     OW65343   8.560   4.259   6.627  0.0073  0.0264 -0.2852
20476SOL    HW165344   8.638   4.298   6.587  0.7339 -0.9622  0.1239
20476SOL    HW265345   8.595   4.198   6.692 -1.1329  0.4078  0.7115
20477SOL     OW65346   9.433   9.004   4.892  1.0179 -0.4503 -0.4719
20477SOL    HW165347   9.509   9.045   4.932  0.5218 -0.1492  0.1854
20477SOL    HW265348   9.406   8.936   4.953  0.0160  0.2791 -0.0757
20478SOL     OW65349   4.764   7.054   9.927 -0.0975 -0.3150 -0.0878
20478SOL    HW165350   4.849   7.095   9.910  0.1672 -0.5746  0.5898
20478SOL    HW265351   4.722   7.050   9.841  0.9668 -1.0558 -0.5948
20479SOL     OW65352   5.918   8.306   0.509  0.3728 -0.4249 -0.4398
20479SOL    HW165353   5.895   8.351   0.591  0.2940  0.4170 -0.9095
20479SOL    HW265354   6.007   8.274   0.523  0.4326 -0.1105 -0.0936
20480SOL     OW65355   1.515   5.279   2.283 -1.1125  0.1606 -0.4810
20480SOL    HW165356   1.568   5.358   2.280  0.7891 -1.0823 -2.1970
20480SOL    HW265357   1.456   5.292   2.357  0.5379  2.2805  0.5538
20481SOL     OW65358   3.826   1.537   6.570 -0.2266  0.3425  0.3234
20481SOL    HW165359   3.834   1.444   6.548  2.3752  0.0755  1.9725
20481SOL    HW265360   3.764   1.540   6.642  0.6034 -0.3065  1.0806
20482SOL     OW65361   5.296   7.267   4.947  0.3332  0.6410 -0.4106
20482SOL    HW165362   5.361   7.197   4.957  2.0065  2.2268  0.4441
20482SOL    HW265363   5.212   7.224   4.962  1.3116 -1.1363  0.3043
20483SOL     OW65364   4.599   5.714   9.917 -0.0924 -0.8664  0.6124
20483SOL    HW165365   4.558   5.692   9.833 -0.1344 -1.0347  0.6771
20483SOL    HW265366   4.527   5.744   9.972  0.2228  1.4523 -0.1258
20484SOL     OW65367   0.773   6.777   0.026 -0.1356  0.4626  0.2241
20484SOL    HW165368   0.733   6.850  -0.021  0.4929 -0.5826 -2.0816
20484SOL    HW265369   0.845   6.748  -0.030 -0.3312 -1.9067  1.0470
20485SOL     OW65370   8.529   3.555   9.859 -0.0599  0.1570 -0.0443
20485SOL    HW165371   8.540   3.471   9.814  0.9631 -0.2734  0.9636
20485SOL    HW265372   8.491   3.531   9.943 -0.8141  0.8382 -0.1781
20486SOL     OW65373   9.712   4.516   1.282 -0.1141 -0.8623 -0.0403
20486SOL    HW165374   9.788   4.467   1.313 -0.7860 -1.5319  0.5850
20486SOL    HW265375   9.705   4.590   1.341  0.8363 -0.0421 -0.9170
20487SOL     OW65376   6.983   6.817   7.711  0.7007 -0.1599 -0.6658
20487SOL    HW165377   6.987   6.893   7.653  0.6043 -0.0939 -0.5883
20487SOL    HW265378   7.039   6.751   7.670  2.3815  0.6237  0.2781
20488SOL     OW65379   7.892   9.988   8.343  0.7805 -0.3535 -0.1898
20488SOL    HW165380   7.865   9.966   8.254  1.0562 -0.6163 -0.2078
20488SOL    HW265381   7.964  10.050   8.332  0.2505  0.2821 -0.1437
20489SOL     OW65382   6.808   5.305   1.558 -0.0261 -0.1863  0.2635
20489SOL    HW165383   6.788   5.398   1.572 -0.7223  0.0185 -1.7449
20489SOL    HW265384   6.763   5.283   1.476  0.4581 -2.2048  0.4869
20490SOL     OW65385   3.089   1.947   4.590 -0.4830 -0.1848 -0.1245
20490SOL    HW165386   3.100   2.039   4.563 -1.0157  0.0259  0.3471
20490SOL    HW265387   3.170   1.927   4.638 -0.7801  0.3657  0.6423
20491SOL     OW65388   8.953   6.586   8.560  0.1828  0.0809  0.4244
20491SOL    HW165389   8.947   6.681   8.558  0.7347  0.1010 -0.9495
20491SOL    HW265390   9.021   6.567   8.625 -0.3323  0.5889  1.1199
20492SOL     OW65391   4.117   6.595   0.611 -0.3056  0.2341  0.3584
20492SOL    HW165392   4.024   6.615   0.597 -0.5528 -0.7476  0.5018
20492SOL    HW265393   4.122   6.567   0.702  0.1454  0.3639  0.3730
20493SOL     OW65394   8.421   9.697   5.371 -0.2559  0.5370 -0.2272
20493SOL    HW165395   8.404   9.790   5.387 -2.8986 -0.1003  1.2374
20493SOL    HW265396   8.486   9.673   5.437 -2.3489  0.5963  2.0024
20494SOL     OW65397   6.535   8.440  10.134  0.2093  0.4091 -0.0615
20494SOL    HW165398   6.540   8.398  10.048 -1.6226  2.5681 -1.3393
20494SOL    HW265399   6.576   8.378  10.194  3.1052 -0.4852 -2.7099
20495SOL     OW65400   6.074   3.357   4.040  0.2633  0.7218 -0.4954
20495SOL    HW165401   6.075   3.302   3.962 -1.7403  0.8369 -0.6722
20495SOL    HW265402   6.078   3.295   4.113 -1.8012  0.2773 -0.6924
20496SOL     OW65403   2.875   4.381  10.178  0.0057  0.3669  0.4745
20496SOL    HW165404   2.822   4.456  10.205 -0.7440 -0.6685  2.0633
20496SOL    HW265405   2.963   4.401  10.207  0.1053  1.2194 -0.3658
20497SOL     OW65406   7.764   5.589   5.872  0.0217 -0.3889 -0.2985
20497SOL    HW165407   7.808   5.588   5.787 -2.2123 -0.1518 -1.5117
20497SOL    HW265408   7.737   5.498   5.886  0.0884 -0.3634  0.0012
20498SOL     OW65409   6.779   9.146   2.107  0.1777 -0.5995  0.3013
20498SOL    HW165410   6.863   9.141   2.152  0.7076  1.1316 -0.4047
20498SOL    HW265411   6.723   9.084   2.154  1.2453 -0.2444  2.1314
20499SOL     OW65412   4.458   9.422   0.285  0.1019  0.2146  0.6347
20499SOL    HW165413   4.454   9.504   0.236  1.9521  0.1632  0.2996
20499SOL    HW265414   4.484   9.357   0.221 -0.5066 -0.4753  1.0763
20500SOL     OW65415   6.328   2.235   4.153  0.1282 -0.6418  0.3162
20500SOL    HW165416   6.251   2.216   4.208 -0.7723  2.4812  0.3441
20500SOL    HW265417   6.388   2.281   4.212  0.8234 -0.6437 -0.3843
20501SOL     OW65418   3.386   8.041   9.691 -0.6934  0.7036  0.2496
20501SOL    HW165419   3.399   8.070   9.601 -1.4039  2.2885  0.6190
20501SOL    HW265420   3.469   8.000   9.716 -0.7175 -0.3696 -1.3232
20502SOL     OW65421  10.203   3.214   6.398 -0.3465  0.5646 -0.5539
20502SOL    HW165422  10.225   3.259   6.317 -0.5019  0.4368 -0.6690
20502SOL    HW265423  10.108   3.198   6.391 -0.6937  2.0072  0.3763
20503SOL     OW65424   1.461   6.006   1.890 -0.3789  0.0334 -0.2092
20503SOL    HW165425   1.550   5.999   1.924  0.2718 -2.2845 -2.1150
20503SOL    HW265426   1.461   5.952   1.811 -2.7040  2.3193 -1.9691
20504SOL     OW65427   4.949   8.702   8.796  0.2673 -0.6697  0.3436
20504SOL    HW165428   4.996   8.776   8.758  1.1379 -0.8460  1.0368
20504SOL    HW265429   4.999   8.680   8.875 -1.0170 -0.8486  1.1211
20505SOL     OW65430   1.116   1.111   1.167  0.5530  0.1322 -0.6161
20505SOL    HW165431   1.197   1.121   1.215  0.0497  0.1209  0.2530
20505SOL    HW265432   1.110   1.189   1.112  0.1308  1.1796  0.8585
20506SOL     OW65433   1.105   7.827   5.945 -0.1133 -0.5437 -0.2562
20506SOL    HW165434   1.152   7.806   5.864 -1.0812  0.6660 -1.1798
20506SOL    HW265435   1.055   7.748   5.966 -1.2321 -0.2908 -1.8505
20507SOL     OW65436   6.109   8.262   2.851 -0.4697  0.0445 -0.5433
20507SOL    HW165437   6.067   8.253   2.936 -1.2586 -0.3855 -0.9692
20507SOL    HW265438   6.193   8.303   2.870 -0.5684 -0.1952  0.4589
20508SOL     OW65439   0.249   7.659   1.412  0.1244  0.0532  0.1412
20508SOL    HW165440   0.282   7.647   1.501 -1.4603 -0.7953  0.6419
20508SOL    HW265441   0.291   7.740   1.382  1.1008  0.0627  1.4417
20509SOL     OW65442   6.927   1.353   2.133  0.4228 -0.1266  0.2493
20509SOL    HW165443   6.966   1.280   2.083  0.9701  0.7273 -0.6109
20509SOL    HW265444   6.912   1.317   2.220  2.3907 -0.7648  0.3874
20510SOL     OW65445   0.328   9.902  10.146  0.5923  0.0421 -0.4786
20510SOL    HW165446   0.268   9.919  10.073 -0.6405 -1.0582  0.2370
20510SOL    HW265447   0.328   9.806  10.155 -0.6761  0.2071  2.0643
20511SOL     OW65448   2.266   1.786   6.524  0.3148 -0.2616 -0.7087
20511SOL    HW165449   2.350   1.829   6.536  0.1063  0.0211 -0.2502
20511SOL    HW265450   2.202   1.857   6.525 -0.0211 -0.5665 -0.0298
20512SOL     OW65451   0.014   0.157   9.681  0.1397  0.1978 -1.2159
20512SOL    HW165452  -0.043   0.101   9.627 -0.4746 -0.1534 -0.2327
20512SOL    HW265453   0.102   0.123   9.666 -0.3638 -2.1779  0.5988
20513SOL     OW65454   7.055   0.716   1.543  0.3523 -0.5571  0.0350
20513SOL    HW165455   6.997   0.785   1.511  1.0289  0.3602  0.7383
20513SOL    HW265456   7.071   0.661   1.467 -2.6253 -1.7370  0.1217
20514SOL     OW65457   6.411   9.893   3.962  0.1046 -0.4866  0.3956
20514SOL    HW165458   6.490   9.840   3.971  0.5928 -0.2833 -2.0172
20514SOL    HW265459   6.422   9.940   3.879 -1.9228  0.6465  0.6863
20515SOL     OW65460   0.332   8.731   0.164 -0.1940 -0.3829 -0.1729
20515SOL    HW165461   0.364   8.770   0.245  0.4969 -2.8727  0.8514
20515SOL    HW265462   0.256   8.679   0.191 -0.2714 -0.8260 -1.2066
20516SOL     OW65463   2.708   3.657   3.352 -0.8827  0.3574  0.2089
20516SOL    HW165464   2.649   3.652   3.427 -0.2356  1.3592  0.8019
20516SOL    HW265465   2.679   3.733   3.302 -0.0614  0.9053  0.5480
20517SOL     OW65466   3.343   7.546   0.420 -0.3909 -0.0370  0.5643
20517SOL    HW165467   3.420   7.514   0.372 -0.7406 -0.2230  0.1086
20517SOL    HW265468   3.299   7.466   0.449 -0.7985  0.0488  0.1903
20518SOL     OW65469   3.564   2.258   3.325  0.1736  0.5405  0.5878
20518SOL    HW165470   3.508   2.321   3.281 -0.0437  0.6441  1.0062
20518SOL    HW265471   3.507   2.214   3.388  0.4361  0.2686  0.6412
20519SOL     OW65472   8.664   0.086   6.784 -0.0617 -0.1036  0.1911
20519SOL    HW165473   8.722   0.067   6.710  1.4584  1.1039  1.0134
20519SOL    HW265474   8.603   0.013   6.786  0.2553 -0.4833 -1.8635
20520SOL     OW65475   0.367   5.811   4.446  0.1289 -0.2496  0.3950
20520SOL    HW165476   0.461   5.798   4.437  0.0662 -0.3476 -0.1578
20520SOL    HW265477   0.332   5.795   4.358 -0.3267  0.4072  0.4497
20521SOL     OW65478   5.167   2.136   2.369  0.2984  0.1089  0.7556
20521SOL    HW165479   5.212   2.058   2.336 -1.2325 -0.4027 -0.2023
20521SOL    HW265480   5.081   2.105   2.395  0.3807  1.1128  2.3609
20522SOL     OW65481   8.490   0.455   4.227  0.0078 -1.1172  0.0952
20522SOL    HW165482   8.482   0.380   4.286 -1.3059 -0.5786  0.6509
20522SOL    HW265483   8.511   0.417   4.142  1.0096 -1.9839  0.7036
20523SOL     OW65484   6.861   1.740   8.256 -0.7123 -0.8870 -0.1183
20523SOL    HW165485   6.955   1.760   8.249 -0.9391  1.3002  1.9132
20523SOL    HW265486   6.852   1.653   8.216  2.2746 -1.4357  0.1873
20524SOL     OW65487   0.714   4.019   0.819 -0.2725  0.5854  0.7583
20524SOL    HW165488   0.735   3.940   0.869 -0.4278 -0.3197 -0.5511
20524SOL    HW265489   0.670   4.076   0.882  1.5057  0.4258  2.2221
20525SOL     OW65490   8.414   7.847   9.082  0.2526  0.1904 -0.5542
20525SOL    HW165491   8.384   7.766   9.123 -0.1890 -0.1582 -1.5308
20525SOL    HW265492   8.416   7.911   9.154  3.2723 -1.2755  0.8798
20526SOL     OW65493   9.721   5.201   6.204 -0.1506 -0.0243 -0.5431
20526SOL    HW165494   9.739   5.267   6.138 -0.1531  1.6209  1.0176
20526SOL    HW265495   9.784   5.218   6.274 -0.5865 -1.2544  0.1974
20527SOL     OW65496   7.952   4.899   1.328 -0.3323  0.2634  0.1637
20527SOL    HW165497   7.880   4.891   1.266 -0.0530  1.5910 -0.3612
20527SOL    HW265498   7.928   4.973   1.384  0.6251  0.7657 -0.0529
20528SOL     OW65499   8.480   3.976   9.685  0.4879 -0.4149 -0.3072
20528SOL    HW165500   8.534   3.926   9.747  1.0885 -0.2030 -0.6435
20528SOL    HW265501   8.440   3.909   9.629 -1.3400 -0.7170  1.2754
20529SOL     OW65502   6.240  10.138   9.809 -0.2067 -0.3752  0.1471
20529SOL    HW165503   6.145  10.142   9.823 -0.2198 -0.3844  0.0665
20529SOL    HW265504   6.274  10.091   9.885 -0.4132 -1.4811 -0.4254
20530SOL     OW65505   3.687   3.867   9.592  0.1932  0.3021 -0.0355
20530SOL    HW165506   3.764   3.826   9.551 -0.6307 -2.3379  0.8118
20530SOL    HW265507   3.622   3.869   9.522  0.1500 -0.1589 -0.0151
20531SOL     OW65508   7.946   8.129   4.936 -0.2009  0.0591 -0.4045
20531SOL    HW165509   8.024   8.127   4.992  1.0810 -1.4470 -2.1209
20531SOL    HW265510   7.873   8.130   4.997  1.1410  0.4434  1.2727
20532SOL     OW65511   1.516   2.904   3.331 -0.2320  0.1766 -0.8433
20532SOL    HW165512   1.605   2.904   3.367 -1.1528 -0.7727  1.7104
20532SOL    HW265513   1.512   2.826   3.276 -0.3878 -1.8697  1.8685
20533SOL     OW65514   6.061   3.221   5.652  0.6434  0.5039 -0.1485
20533SOL    HW165515   6.141   3.236   5.703 -0.1798 -0.8994  1.6623
20533SOL    HW265516   6.009   3.300   5.666  1.1090  0.8151 -0.1424
20534SOL     OW65517   2.225   7.274  10.109 -0.7116 -0.0204 -0.3678
20534SOL    HW165518   2.239   7.208  10.041 -1.4335 -1.9926  1.3087
20534SOL    HW265519   2.276   7.350  10.080 -0.6306 -0.9360 -2.8414
20535SOL     OW65520   3.080   0.759   2.487  0.2514 -0.1588 -0.2896
20535SOL    HW165521   3.142   0.795   2.550  1.8553 -0.5263 -1.5834
20535SOL    HW265522   3.050   0.678   2.527  1.2147 -0.3740  0.0230
20536SOL     OW65523   6.387   7.391   9.592 -0.6934  0.0288 -0.4766
20536SOL    HW165524   6.321   7.383   9.522 -0.5590 -0.2273 -0.5789
20536SOL    HW265525   6.470   7.400   9.545 -0.6279  0.0901 -0.3489
20537SOL     OW65526   9.406   3.935  10.189  0.0044  0.4394 -0.3355
20537SOL    HW165527   9.362   3.934  10.274 -2.4356  1.6113 -1.4824
20537SOL    HW265528   9.476   3.999  10.199 -0.7819  1.1853  0.5579
20538SOL     OW65529   5.495   1.919   8.154  0.6004 -0.1973 -0.2309
20538SOL    HW165530   5.488   2.008   8.118 -2.6144  0.3850  1.4907
20538SOL    HW265531   5.489   1.931   8.248 -0.7949 -2.2726 -0.0038
20539SOL     OW65532   0.656   4.265   6.911  0.2003 -0.1329 -0.5860
20539SOL    HW165533   0.716   4.310   6.971  1.3568 -1.3698 -0.7556
20539SOL    HW265534   0.699   4.271   6.825  0.7674 -2.0957 -0.4983
20540SOL     OW65535   1.671   6.942   3.400  0.5776  0.0647 -0.2982
20540SOL    HW165536   1.687   6.850   3.383 -0.4560  0.0958 -1.7067
20540SOL    HW265537   1.751   6.986   3.373  0.6783 -0.3355 -0.6639
20541SOL     OW65538   3.019   2.539   1.325  0.2692 -0.1064 -0.1475
20541SOL    HW165539   2.993   2.447   1.329 -0.9825  0.2814  1.8779
20541SOL    HW265540   3.110   2.539   1.357  0.3790 -0.6502 -0.4395
20542SOL     OW65541   8.348   5.643   5.087 -0.4323 -0.1727  0.4200
20542SOL    HW165542   8.287   5.601   5.027  0.0401 -0.0067 -0.1857
20542SOL    HW265543   8.327   5.736   5.081  0.4450 -0.0246 -0.4424
20543SOL     OW65544   2.307   8.757   4.124 -0.1533 -0.0818  0.0716
20543SOL    HW165545   2.394   8.740   4.087 -0.4238 -0.7700 -0.2600
20543SOL    HW265546   2.300   8.697   4.197  0.1404  0.8630  0.9022
20544SOL     OW65547   3.454   7.770   9.955 -0.2397 -0.1956  0.2547
20544SOL    HW165548   3.381   7.736   9.903 -0.6614  0.3004  0.5013
20544SOL    HW265549   3.514   7.696   9.963  0.1661 -0.0914 -1.4902
20545SOL     OW65550   6.672  10.186   9.697 -0.1596 -0.1634  0.5221
20545SOL    HW165551   6.684  10.191   9.792  0.0837 -0.5653  0.5131
20545SOL    HW265552   6.717  10.106   9.671 -0.8316 -0.4322  0.1638
20546SOL     OW65553   7.633   7.343   0.875 -0.2284  0.8575 -0.0478
20546SOL    HW165554   7.568   7.393   0.826 -0.5839  1.3176  0.8550
20546SOL    HW265555   7.620   7.371   0.966 -0.6496 -1.1338  0.5400
20547SOL     OW65556   6.847   7.716   7.458 -0.3525 -0.2630 -0.0110
20547SOL    HW165557   6.820   7.763   7.537 -0.1574 -0.4756  0.1849
20547SOL    HW265558   6.943   7.722   7.458 -0.3862  2.5402 -1.9456
20548SOL     OW65559   2.193   2.542   1.448 -0.2111 -0.0686 -0.5820
20548SOL    HW165560   2.245   2.464   1.464  0.6590  0.3823 -1.1319
20548SOL    HW265561   2.107   2.522   1.486  0.5169 -0.6068  0.8586
20549SOL     OW65562   6.721   6.597   0.366  0.4283  0.2540 -0.0166
20549SOL    HW165563   6.713   6.505   0.391  0.3147  0.4011  0.5038
20549SOL    HW265564   6.697   6.645   0.445 -1.3096  0.7410 -0.7717
20550SOL     OW65565   2.039   2.021   9.523  0.0738 -0.1526  0.1004
20550SOL    HW165566   2.120   1.978   9.496 -0.4599 -1.1720  0.0965
20550SOL    HW265567   2.068   2.099   9.571  1.0412  0.3245 -1.2050
20551SOL     OW65568   6.888   8.529   0.484 -0.1781 -0.0383 -0.5993
20551SOL    HW165569   6.809   8.582   0.488 -1.0258 -1.3227  1.0916
20551SOL    HW265570   6.884   8.486   0.399  0.1207  1.9321 -1.6542
20552SOL     OW65571   1.551   4.586   0.887 -0.3666  0.1776  0.3212
20552SOL    HW165572   1.475   4.540   0.922  0.2361  0.2157  1.7330
20552SOL    HW265573   1.571   4.540   0.805  0.7935 -2.7718  2.1137
20553SOL     OW65574   5.945   5.327   3.712 -0.3090  0.0789 -0.0525
20553SOL    HW165575   5.965   5.394   3.777  0.0600 -0.2588  0.1836
20553SOL    HW265576   5.899   5.374   3.642 -0.6069  0.4625  0.3969
20554SOL     OW65577   7.894   3.924   2.665 -0.3787  0.5672  0.5326
20554SOL    HW165578   7.981   3.953   2.691 -0.1433  0.6929 -0.3593
20554SOL    HW265579   7.860   3.997   2.612  0.2903 -0.7892 -1.9015
20555SOL     OW65580   5.359   4.355   8.449  0.1217  0.1774  0.1190
20555SOL    HW165581   5.386   4.316   8.532  0.2243  0.5851  0.2792
20555SOL    HW265582   5.312   4.285   8.404  1.0492 -0.3987  0.0246
20556SOL     OW65583   8.951   4.760   5.124  0.3607 -0.1820  0.5663
20556SOL    HW165584   9.044   4.783   5.124  0.4231 -0.3821  1.4826
20556SOL    HW265585   8.918   4.793   5.041  1.4629 -1.0076 -0.2272
20557SOL     OW65586   5.484   1.128   8.153 -0.4776  0.1960 -0.5001
20557SOL    HW165587   5.527   1.082   8.081  0.3968  1.5545 -0.8740
20557SOL    HW265588   5.440   1.059   8.203  1.2067 -1.1019 -0.7503
20558SOL     OW65589   4.248   5.069   7.372 -0.4251  0.2945 -0.8780
20558SOL    HW165590   4.172   5.014   7.394 -1.7023  2.5094  0.6399
20558SOL    HW265591   4.313   5.045   7.437 -0.9864  0.5657 -0.1995
20559SOL     OW65592   2.301   7.739   0.494  0.0378 -0.0991  0.1834
20559SOL    HW165593   2.333   7.808   0.436 -2.2302  2.3366  1.6040
20559SOL    HW265594   2.381   7.694   0.524  1.4193  0.1358 -2.7937
20560SOL     OW65595   7.337   8.884   3.201 -0.7248 -0.6233  0.1491
20560SOL    HW165596   7.244   8.908   3.195 -0.4464  1.0133  1.5212
20560SOL    HW265597   7.366   8.922   3.284  1.0438 -1.6305  0.0369
20561SOL     OW65598   9.756   1.563   7.361  0.0431  0.0147  0.1950
20561SOL    HW165599   9.804   1.597   7.286  2.3793  0.1352  1.6394
20561SOL    HW265600   9.768   1.468   7.356  1.1928  0.0963  0.9831
20562SOL     OW65601   6.303   2.837   5.682 -0.1383  0.3504  0.4339
20562SOL    HW165602   6.224   2.891   5.678 -0.3576  0.6246  4.5659
20562SOL    HW265603   6.274   2.754   5.721  0.9377 -1.2986 -2.0300
20563SOL     OW65604   2.805   0.776   7.280  0.5292 -0.3385 -0.1430
20563SOL    HW165605   2.867   0.706   7.258 -0.0682 -0.0992 -2.9414
20563SOL    HW265606   2.860   0.855   7.287  0.8769 -0.6210  0.3858
20564SOL     OW65607   1.568   7.324   1.161  0.1094  0.3188 -0.4348
20564SOL    HW165608   1.516   7.289   1.233  1.8829 -0.4228  0.5434
20564SOL    HW265609   1.643   7.265   1.155 -0.2669 -0.0200 -3.3377
20565SOL     OW65610   6.547   7.098   2.003  0.2054 -0.3786  0.1710
20565SOL    HW165611   6.614   7.130   2.064 -1.5432 -0.1939  2.1009
20565SOL    HW265612   6.472   7.078   2.058 -1.0173 -1.5502 -1.7979
20566SOL     OW65613   6.063   7.645   7.473 -0.1871 -0.3518 -0.5159
20566SOL    HW165614   6.008   7.573   7.442 -0.0852 -1.4772  1.6990
20566SOL    HW265615   6.152   7.615   7.457 -0.1551 -0.0225 -0.9825
20567SOL     OW65616   9.526   7.927  10.096  0.2555  0.1641  0.1975
20567SOL    HW165617   9.456   7.883  10.048  1.0758 -1.5778  0.5071
20567SOL    HW265618   9.561   7.990  10.033  1.0139 -1.7528 -1.4286
20568SOL     OW65619   1.873   2.471   5.904  0.2185  0.0430 -0.3753
20568SOL    HW165620   1.940   2.432   5.849  0.1507 -0.3419 -0.1861
20568SOL    HW265621   1.856   2.556   5.864  1.1310  0.3312 -0.1701
20569SOL     OW65622   6.713   5.427   7.137 -0.7177 -0.9706  0.2671
20569SOL    HW165623   6.750   5.445   7.223  3.9349 -0.2818 -1.5654
20569SOL    HW265624   6.729   5.508   7.087 -0.3841 -2.3355 -2.0004
20570SOL     OW65625   8.703   0.529   0.780  0.2865 -0.2891 -0.4036
20570SOL    HW165626   8.633   0.485   0.732 -0.1125 -0.6493  0.4947
20570SOL    HW265627   8.784   0.496   0.740 -0.0301 -0.9312 -0.5230
20571SOL     OW65628   3.112   8.472   8.007 -0.2953 -0.4746 -0.2699
20571SOL    HW165629   3.165   8.474   7.928 -1.8570  0.2962 -1.3685
20571SOL    HW265630   3.079   8.562   8.016 -0.0799 -0.5300  1.3174
20572SOL     OW65631   2.465   2.123   7.212  0.1505 -0.1770 -0.2118
20572SOL    HW165632   2.378   2.151   7.187  0.4330 -0.4922 -1.6018
20572SOL    HW265633   2.509   2.103   7.130  1.9380  1.1283  0.3535
20573SOL     OW65634   0.924   8.917   8.010  0.4187 -0.0843 -0.0663
20573SOL    HW165635   1.005   8.868   8.022  1.6359  2.0971  1.3680
20573SOL    HW265636   0.937   8.997   8.060 -1.7011  1.4249 -1.7244
20574SOL     OW65637   7.786   0.303   0.785 -0.3652  0.0984  0.2046
20574SOL    HW165638   7.830   0.287   0.701 -0.0615 -0.0350  0.3895
20574SOL    HW265639   7.741   0.221   0.804 -3.0860  1.0759 -1.3838
20575SOL     OW65640   5.585   9.826   6.771  0.0450 -0.0494 -0.3637
20575SOL    HW165641   5.666   9.846   6.818 -0.6090  1.4371  0.1860
20575SOL    HW265642   5.612   9.762   6.704  1.6785  0.4607 -0.2487
20576SOL     OW65643   5.480   4.842   1.387 -0.4876  0.4128 -0.1719
20576SOL    HW165644   5.488   4.870   1.478 -0.6357 -0.7666  0.2173
20576SOL    HW265645   5.413   4.774   1.388  0.6823 -0.8026 -0.8662
20577SOL     OW65646   3.151   0.137   0.107 -0.3595  0.1567 -0.8615
20577SOL    HW165647   3.177   0.128   0.015 -0.1233  1.9441 -0.9928
20577SOL    HW265648   3.141   0.046   0.137  1.1759 -0.5083 -2.1834
20578SOL     OW65649   1.406   9.163   2.060 -0.4846 -0.3395  0.9207
20578SOL    HW165650   1.376   9.161   1.969 -1.7658  2.1644  1.2180
20578SOL    HW265651   1.487   9.113   2.059 -1.1874 -1.5874 -1.2973
20579SOL     OW65652   0.656   0.703   0.955 -0.3320  0.4197 -0.2237
20579SOL    HW165653   0.704   0.692   0.873 -0.0496  1.4400 -0.2072
20579SOL    HW265654   0.624   0.793   0.952  0.1034  0.6288  1.0058
20580SOL     OW65655   6.965   8.894   6.485  0.0578 -0.3984 -0.3061
20580SOL    HW165656   7.001   8.901   6.396 -1.2856 -0.1173 -0.8534
20580SOL    HW265657   6.897   8.962   6.489 -0.5130 -1.0004  0.6301
20581SOL     OW65658   3.690   7.559   3.006 -0.4108  0.0857  0.1007
20581SOL    HW165659   3.743   7.547   3.085  0.2267 -0.0438 -0.3335
20581SOL    HW265660   3.679   7.470   2.971  0.6098  0.2672 -0.7640
20582SOL     OW65661   7.615   9.398   4.960  0.1178 -0.0534 -0.0925
20582SOL    HW165662   7.706   9.419   4.940  0.1873 -0.4476 -0.2165
20582SOL    HW265663   7.602   9.312   4.919 -0.4080  0.1499 -0.3557
20583SOL     OW65664   3.839   0.234   6.720  0.0451  0.6083  0.9290
20583SOL    HW165665   3.785   0.313   6.722 -0.1093  0.5896 -0.6592
20583SOL    HW265666   3.825   0.199   6.632  2.0344  0.1690  0.7575
20584SOL     OW65667   2.735   5.074   7.977  0.2897 -0.5299 -0.2589
20584SOL    HW165668   2.781   4.993   8.003 -0.4885 -1.2737 -1.1211
20584SOL    HW265669   2.776   5.099   7.894  0.2237 -0.2852 -0.2185
20585SOL     OW65670   5.893   6.115   9.869 -0.4355 -0.1079  0.3790
20585SOL    HW165671   5.854   6.180   9.809 -0.9985  0.5335  1.4116
20585SOL    HW265672   5.987   6.129   9.861 -0.5272  0.3631  0.0625
20586SOL     OW65673   4.064   2.062   6.425  0.3110 -0.1285  0.5748
20586SOL    HW165674   4.051   2.157   6.434  1.8986  0.0664  1.3405
20586SOL    HW265675   4.007   2.036   6.353 -1.1913  1.1537  1.2383
20587SOL     OW65676   9.306   7.418   2.643  0.1854  0.1296  0.3463
20587SOL    HW165677   9.295   7.456   2.556 -2.2929  0.2303  0.6543
20587SOL    HW265678   9.263   7.480   2.702 -0.7644 -1.3638  1.2791
20588SOL     OW65679   1.217   1.321   0.285  0.2796  0.6449  0.1392
20588SOL    HW165680   1.226   1.248   0.223  0.6333  0.5667  0.2830
20588SOL    HW265681   1.123   1.337   0.289  0.2034  0.2313  0.0623
20589SOL     OW65682   9.136   5.687   9.886  0.3944 -0.3169 -0.2684
20589SOL    HW165683   9.112   5.727   9.970 -1.3093 -1.1638 -0.3179
20589SOL    HW265684   9.231   5.697   9.881  0.6415 -0.9974  2.1456
20590SOL     OW65685   1.472   0.317   7.836  0.2593 -0.1550  0.1927
20590SOL    HW165686   1.489   0.387   7.899 -0.9749  2.2790 -1.9513
20590SOL    HW265687   1.487   0.359   7.751 -3.3743 -1.5857 -1.3209
20591SOL     OW65688   1.605   1.818   0.598  0.2609  0.6021 -0.3137
20591SOL    HW165689   1.612   1.731   0.558  1.0199 -0.7250  2.4350
20591SOL    HW265690   1.665   1.873   0.547  1.3358 -1.0265 -0.8883
20592SOL     OW65691   4.886   9.095   3.189 -0.4253  0.5613  0.7023
20592SOL    HW165692   4.840   9.122   3.268  1.1523  1.3445  1.3982
20592SOL    HW265693   4.871   9.000   3.184 -2.0497  0.7733  0.8922
20593SOL     OW65694   5.041   7.449   2.031 -0.3286  0.1318  0.1133
20593SOL    HW165695   5.100   7.524   2.044  0.4173 -0.2835 -0.7799
20593SOL    HW265696   5.040   7.436   1.936 -0.8820 -0.6533  0.2216
20594SOL     OW65697   0.903   5.595   4.493 -0.2437  0.4369  0.3928
20594SOL    HW165698   0.886   5.686   4.517 -1.0902  0.4012 -0.0418
20594SOL    HW265699   0.900   5.594   4.398  1.9123  0.3450  0.2822
20595SOL     OW65700   0.179   8.399   7.545 -0.2900  0.4357 -0.1587
20595SOL    HW165701   0.186   8.411   7.451 -2.8748  1.2676 -0.3109
20595SOL    HW265702   0.143   8.311   7.556  0.5902  0.0918  0.1233
20596SOL     OW65703   9.024   3.457  10.192  0.0728  0.4074  0.5944
20596SOL    HW165704   9.031   3.401  10.115 -0.8494  1.3463 -0.1992
20596SOL    HW265705   8.952   3.516  10.172 -1.9883 -0.9843  3.2214
20597SOL     OW65706   9.799   5.253   6.483 -0.1546  0.6473 -0.1497
20597SOL    HW165707   9.705   5.240   6.471 -0.1906  0.3271  0.4321
20597SOL    HW265708   9.835   5.164   6.488 -0.3632  0.6140  3.5737
20598SOL     OW65709   7.969   1.209   5.550 -0.0594  0.2042 -0.2091
20598SOL    HW165710   7.895   1.270   5.550  1.7065  2.4841 -0.8090
20598SOL    HW265711   8.027   1.242   5.619  1.1401 -0.5740 -0.8071
20599SOL     OW65712   2.439   8.311   0.963 -0.0760  0.1364  0.3325
20599SOL    HW165713   2.356   8.267   0.985 -0.3622  0.5644  0.1342
20599SOL    HW265714   2.467   8.351   1.045 -0.6763  0.9725  0.1492
20600SOL     OW65715   7.655   8.821   3.583  0.4178 -0.1665 -0.3320
20600SOL    HW165716   7.633   8.728   3.594  0.3020 -0.0725  0.2293
20600SOL    HW265717   7.727   8.837   3.644  1.0718 -0.1041 -1.0907
20601SOL     OW65718   8.287   8.395   7.589  0.4314  0.3449 -0.3123
20601SOL    HW165719   8.264   8.485   7.568  0.2068  0.2415 -0.5259
20601SOL    HW265720   8.372   8.400   7.633 -0.6108  0.8781  1.7680
20602SOL     OW65721   3.599   3.281   6.694  0.2139 -0.1280  0.5759
20602SOL    HW165722   3.672   3.342   6.700 -0.6118  1.0513 -0.7493
20602SOL    HW265723   3.596   3.238   6.779  0.2077  2.3879  1.9263
20603SOL     OW65724   1.051   4.206   3.868 -0.4437  0.1422 -0.2538
20603SOL    HW165725   0.956   4.217   3.868 -0.3771  0.7431 -0.2391
20603SOL    HW265726   1.072   4.184   3.777 -0.5127  0.7688 -0.4237
20604SOL     OW65727   2.850   7.008   8.897 -0.0146 -0.6221  0.3698
20604SOL    HW165728   2.901   7.071   8.846 -0.3646  0.5907  1.4626
20604SOL    HW265729   2.823   7.057   8.975  1.2082 -2.6442  2.1525
20605SOL     OW65730   2.324   2.267   3.397  0.0525  0.1112  0.3245
20605SOL    HW165731   2.308   2.177   3.369  3.6184 -0.7687  0.5290
20605SOL    HW265732   2.330   2.317   3.316  1.0677 -0.5147 -0.0090
20606SOL     OW65733   3.698   3.533   9.476 -0.0377  0.0619  0.3165
20606SOL    HW165734   3.656   3.591   9.539 -0.7718  1.2113 -1.1778
20606SOL    HW265735   3.755   3.590   9.424 -0.1384 -0.6821 -0.6481
20607SOL     OW65736   1.602   0.388   1.963 -0.2741  0.0256  0.2554
20607SOL    HW165737   1.579   0.310   2.015  0.9647 -0.2798  0.3735
20607SOL    HW265738   1.522   0.408   1.914 -0.8336 -0.9018  0.7500
20608SOL     OW65739   3.735   4.794   9.036  0.7721 -0.0347 -0.5982
20608SOL    HW165740   3.711   4.773   9.126  0.5044  1.9778 -0.1451
20608SOL    HW265741   3.760   4.886   9.039 -0.3057  0.3989 -2.7731
20609SOL     OW65742   1.928   6.540   5.247 -0.5468  0.3883  0.0148
20609SOL    HW165743   1.913   6.512   5.156  0.4894  3.3769 -1.2009
20609SOL    HW265744   1.841   6.563   5.279 -0.8419 -0.0329 -0.4626
20610SOL     OW65745   0.309  10.175   0.175  0.6856  0.2099  0.2707
20610SOL    HW165746   0.267  10.229   0.108  1.2910  1.4006  0.8038
20610SOL    HW265747   0.265  10.199   0.256  0.7255 -0.3746  0.4701
20611SOL     OW65748   4.767   8.305   6.680  0.4535  0.3418  0.0972
20611SOL    HW165749   4.859   8.323   6.699  0.4051  1.2501 -0.4865
20611SOL    HW265750   4.752   8.346   6.595 -0.6476  0.7071  0.4547
20612SOL     OW65751   9.978   5.410   4.502 -0.1150  0.0931  0.0543
20612SOL    HW165752  10.013   5.466   4.571 -1.8281  2.3501 -0.7915
20612SOL    HW265753  10.004   5.453   4.421 -2.6158  0.4993 -0.6069
20613SOL     OW65754   3.849   6.451   6.462  0.2262 -0.0358  0.2494
20613SOL    HW165755   3.879   6.442   6.371  1.4574 -1.3512  0.7495
20613SOL    HW265756   3.877   6.370   6.504 -3.6147 -1.1840  0.9509
20614SOL     OW65757   8.415   1.372   9.355  0.0230 -0.0904  0.2944
20614SOL    HW165758   8.403   1.442   9.291 -2.7547 -0.0845  0.7261
20614SOL    HW265759   8.442   1.296   9.303 -0.7758  0.2824 -0.6896
20615SOL     OW65760   4.211   7.434   6.619  0.3139 -0.6674 -0.2410
20615SOL    HW165761   4.205   7.496   6.691  0.4069 -1.8044  0.7857
20615SOL    HW265762   4.148   7.466   6.554  1.2988  1.2015 -0.3397
20616SOL     OW65763   7.477   1.781   8.590 -0.3616 -0.0257  0.0556
20616SOL    HW165764   7.420   1.736   8.651  0.4704  0.2935  1.0924
20616SOL    HW265765   7.418   1.810   8.519 -1.2890 -0.6171  0.5635
20617SOL     OW65766   3.677   2.097   9.984  0.1532 -0.1174 -0.2429
20617SOL    HW165767   3.710   2.145  10.059 -1.8278  1.8343 -0.5257
20617SOL    HW265768   3.657   2.010  10.018  0.2081  0.4281  1.2455
20618SOL     OW65769   4.778   2.381   2.234  0.0198 -0.6197  0.0133
20618SOL    HW165770   4.833   2.375   2.312 -1.0221 -1.7046  0.6983
20618SOL    HW265771   4.715   2.451   2.254 -0.3480 -1.0070  0.2117
20619SOL     OW65772   9.498   8.368   3.539 -0.0127 -0.6926 -0.7881
20619SOL    HW165773   9.570   8.425   3.567 -1.3138 -0.3024  2.0899
20619SOL    HW265774   9.528   8.331   3.456  2.9351  0.4491 -0.3527
20620SOL     OW65775   4.094   9.708   3.179  0.0220 -0.1607  0.3272
20620SOL    HW165776   4.023   9.653   3.213 -1.0567 -0.0959 -1.6424
20620SOL    HW265777   4.143   9.735   3.256  0.4008 -3.5755  1.4628
20621SOL     OW65778   9.867   0.921  10.113 -0.4300  0.0231 -0.2120
20621SOL    HW165779   9.813   0.979  10.166 -0.9993 -2.3179  2.0033
20621SOL    HW265780   9.805   0.855  10.080  0.7567 -2.1349  1.5438
20622SOL     OW65781   7.190   2.985   1.622  0.8536 -0.3569  0.3616
20622SOL    HW165782   7.157   3.014   1.707 -2.2320  2.5288 -1.5569
20622SOL    HW265783   7.223   3.064   1.581  0.2221 -1.1922 -1.9164
20623SOL     OW65784   1.152   3.449   2.420  0.3582 -0.0012  0.1175
20623SOL    HW165785   1.231   3.498   2.399  2.3255 -2.4993  1.0984
20623SOL    HW265786   1.113   3.497   2.493 -0.6856  2.7972 -2.0965
20624SOL     OW65787   6.762   1.476   8.286 -0.4680 -0.2279 -0.1382
20624SOL    HW165788   6.786   1.401   8.232  0.7189  0.4371 -0.5754
20624SOL    HW265789   6.757   1.441   8.375  1.2852 -0.6208 -0.1518
20625SOL     OW65790   4.101   4.938   4.599 -0.1428 -0.1243 -0.2047
20625SOL    HW165791   4.113   5.026   4.634 -0.5781 -0.7850  1.7269
20625SOL    HW265792   4.023   4.905   4.643  1.1108 -2.1731  0.6218
20626SOL     OW65793   8.218   1.843   2.440 -0.0478 -0.0466  0.5671
20626SOL    HW165794   8.307   1.878   2.442  0.9697 -2.3834  0.6331
20626SOL    HW265795   8.180   1.878   2.359  2.1411 -1.5079 -1.2327
20627SOL     OW65796   0.190   7.904   0.272 -0.2150  0.3351  0.1138
20627SOL    HW165797   0.177   7.817   0.236  0.7086 -0.0706  0.7210
20627SOL    HW265798   0.129   7.910   0.345  0.9812 -0.5112  1.2201
20628SOL     OW65799   8.133   1.969   6.349 -0.1167  0.2485  0.1219
20628SOL    HW165800   8.145   1.887   6.397  0.1262  1.2384  1.8581
20628SOL    HW265801   8.040   1.991   6.362 -0.7605 -0.7845 -2.1787
20629SOL     OW65802   6.095   9.160   8.676 -0.0228  0.8752 -0.3256
20629SOL    HW165803   6.069   9.189   8.764 -1.0633  0.5925 -0.5238
20629SOL    HW265804   6.070   9.068   8.674 -1.6340  1.3166 -1.5200
20630SOL     OW65805   8.126   3.503   6.152 -0.2890  0.0349  0.1268
20630SOL    HW165806   8.178   3.501   6.072  0.0449  1.4469  0.2856
20630SOL    HW265807   8.042   3.539   6.125 -1.0256 -1.6850 -0.0115
20631SOL     OW65808   3.349   7.576   4.752  0.2574 -0.2116  0.5258
20631SOL    HW165809   3.410   7.616   4.690 -0.3277  0.4288  0.3421
20631SOL    HW265810   3.265   7.618   4.733  0.4568  1.5744  3.1069
20632SOL     OW65811   8.686   7.204   4.555  0.2196  0.3586  0.0095
20632SOL    HW165812   8.636   7.281   4.528 -0.3903  0.2641  0.8090
20632SOL    HW265813   8.769   7.239   4.587 -0.2526  0.7526  0.8505
20633SOL     OW65814   3.294   8.438   2.604 -0.2518 -0.7124  0.1055
20633SOL    HW165815   3.334   8.505   2.549  0.4194 -1.4629 -0.3424
20633SOL    HW265816   3.317   8.462   2.693 -0.2327 -0.2114 -0.0343
20634SOL     OW65817   2.978   1.343   3.945  0.3050 -0.2219 -0.3095
20634SOL    HW165818   3.024   1.266   3.911 -1.9910 -2.1535  0.6678
20634SOL    HW265819   2.936   1.382   3.868 -0.1606 -1.1633 -0.5418
20635SOL     OW65820   7.914   1.743   9.760  0.4644  0.9574 -0.2926
20635SOL    HW165821   7.956   1.657   9.767  0.4822  0.9995  0.1894
20635SOL    HW265822   7.924   1.767   9.668  0.2954  0.3623 -0.4740
20636SOL     OW65823   2.256   0.360   6.057  0.0160  0.5664 -0.4934
20636SOL    HW165824   2.348   0.351   6.082  0.0628 -0.3904 -0.9753
20636SOL    HW265825   2.215   0.402   6.132  0.3357 -1.4008  0.8727
20637SOL     OW65826   8.361   6.231   1.203 -0.6506  0.2590 -0.0870
20637SOL    HW165827   8.410   6.293   1.257  1.6613 -0.8552 -0.7707
20637SOL    HW265828   8.282   6.213   1.254  0.4763  0.7905  1.9822
20638SOL     OW65829   5.141   2.056   9.985 -0.2260 -0.1290  0.7347
20638SOL    HW165830   5.050   2.071   9.959 -0.5705 -0.1559  1.8808
20638SOL    HW265831   5.192   2.080   9.907 -1.2616 -1.2231 -0.3280
20639SOL     OW65832   2.357   0.830   7.072  0.1204 -0.2107 -0.4082
20639SOL    HW165833   2.433   0.816   7.129 -1.0148 -0.0801  1.2223
20639SOL    HW265834   2.349   0.925   7.066  0.4044 -0.2203 -1.0642
20640SOL     OW65835   0.343   7.304   3.275 -0.0516 -0.1137 -0.1195
20640SOL    HW165836   0.385   7.230   3.231 -0.8155  0.0343 -1.1565
20640SOL    HW265837   0.401   7.378   3.258 -0.3041 -0.0727 -0.8564
20641SOL     OW65838   7.821   6.240   6.463 -0.2834  0.0990  0.6567
20641SOL    HW165839   7.742   6.189   6.483 -0.7072 -0.7810 -2.6485
20641SOL    HW265840   7.809   6.268   6.372  2.9039  0.5497  0.2564
20642SOL     OW65841   3.362   7.053   0.763  0.3632  0.6386  0.1737
20642SOL    HW165842   3.424   7.123   0.782 -0.2609  1.2595 -0.0142
20642SOL    HW265843   3.288   7.070   0.822  0.9103 -0.8477  1.3395
20643SOL     OW65844   6.379   6.667   8.652 -0.5098 -0.0638 -1.1893
20643SOL    HW165845   6.398   6.577   8.625  0.0663 -0.1051 -0.6691
20643SOL    HW265846   6.292   6.685   8.616 -0.5798 -0.7888 -1.3995
20644SOL     OW65847   3.569   7.124   5.858 -0.1238 -0.0121 -0.0439
20644SOL    HW165848   3.584   7.132   5.764 -1.7495 -1.0150 -0.4254
20644SOL    HW265849   3.607   7.203   5.895 -0.6660  1.0769 -1.6978
20645SOL     OW65850   3.012   0.067   1.747 -0.3726 -0.0002 -0.3949
20645SOL    HW165851   2.960   0.035   1.820  0.5398 -1.0057 -0.1559
20645SOL    HW265852   2.987   0.158   1.737  1.0386  0.8388  2.5821
20646SOL     OW65853   8.251   5.201   2.635  0.4411 -0.4586  0.3089
20646SOL    HW165854   8.160   5.204   2.606 -0.5222 -3.2495  2.5245
20646SOL    HW265855   8.278   5.292   2.640 -2.4690  0.4965  0.2060
20647SOL     OW65856   1.186   0.582   7.384 -0.2682  0.7375 -0.5135
20647SOL    HW165857   1.222   0.578   7.473 -2.4791  2.5505  0.5904
20647SOL    HW265858   1.263   0.590   7.327  1.1587  2.9083  1.5252
20648SOL     OW65859   3.363   9.857   1.951 -0.0533  0.1528 -0.3090
20648SOL    HW165860   3.435   9.880   1.892 -0.6092  2.5822 -0.1470
20648SOL    HW265861   3.284   9.874   1.899 -0.5250  0.5853  0.5301
20649SOL     OW65862   2.913   0.083   6.936 -1.1264  0.0893 -0.0882
20649SOL    HW165863   2.882   0.067   6.846 -3.4005  3.1346  0.0071
20649SOL    HW265864   2.994   0.133   6.925  0.8507 -2.9043 -0.3150
20650SOL     OW65865   3.205   3.440   2.741 -0.2632 -0.1507 -0.1660
20650SOL    HW165866   3.137   3.430   2.674 -0.7523 -2.3174  0.5780
20650SOL    HW265867   3.168   3.503   2.803 -1.4659 -1.0018  0.0162
20651SOL     OW65868   2.174   6.206   4.808  0.1291  0.3887 -0.1932
20651SOL    HW165869   2.269   6.212   4.801  0.1092  0.7268 -0.1572
20651SOL    HW265870   2.148   6.283   4.859 -0.1723  0.3452 -0.2762
20652SOL     OW65871   0.707   8.737   6.801 -0.2096  0.4202  0.6133
20652SOL    HW165872   0.722   8.801   6.730  0.6905  0.8463  1.1669
20652SOL    HW265873   0.612   8.724   6.801 -0.1263 -0.7760 -1.6999
20653SOL     OW65874   5.625   0.605   4.700  0.0835 -0.7736 -0.4875
20653SOL    HW165875   5.625   0.568   4.611 -1.9513 -1.7519 -0.1440
20653SOL    HW265876   5.655   0.533   4.755  0.3861 -0.4787 -0.2642
20654SOL     OW65877   1.859   7.546   3.146 -0.5391 -0.2662  0.2137
20654SOL    HW165878   1.905   7.615   3.193  0.9732 -1.8579  1.1916
20654SOL    HW265879   1.832   7.485   3.215  0.6702 -2.0483 -0.8270
20655SOL     OW65880   7.970   5.038   5.797  0.1737 -0.0025 -0.5643
20655SOL    HW165881   7.985   4.995   5.713 -0.1918  1.7854 -1.5973
20655SOL    HW265882   8.019   5.120   5.791  0.0786  0.2035  0.9474
20656SOL     OW65883   4.103   6.429   7.648  0.5395  0.5221  0.4203
20656SOL    HW165884   4.018   6.386   7.639  1.1145 -0.8107  1.0683
20656SOL    HW265885   4.139   6.394   7.730  2.3974 -0.2259 -0.6464
20657SOL     OW65886   7.855   2.314   1.798 -0.5469 -0.0866  0.6164
20657SOL    HW165887   7.945   2.340   1.778 -1.0631  0.1887 -1.6938
20657SOL    HW265888   7.863   2.225   1.833  0.5455 -0.7374 -1.1620
20658SOL     OW65889   0.283   0.911   4.828 -0.4815  0.6377  0.0974
20658SOL    HW165890   0.313   0.856   4.756 -0.9350  1.1898 -0.5261
20658SOL    HW265891   0.188   0.902   4.827 -0.4513 -0.0269  1.1853
20659SOL     OW65892   3.419   0.883   6.626  0.0887 -0.3117 -0.3458
20659SOL    HW165893   3.464   0.849   6.704  1.0137 -1.0217 -1.1605
20659SOL    HW265894   3.360   0.812   6.599  0.9753 -0.7381 -1.2256
20660SOL     OW65895   2.693   9.563   8.949 -0.5606 -0.6157 -0.0134
20660SOL    HW165896   2.638   9.516   8.886 -1.0072  1.5575 -1.3446
20660SOL    HW265897   2.686   9.512   9.030  1.6078 -4.7023 -2.0606
20661SOL     OW65898   7.401   1.990   1.772 -0.6729  0.2168  0.1539
20661SOL    HW165899   7.391   2.073   1.725  2.6736  0.3189 -0.6061
20661SOL    HW265900   7.355   1.926   1.718  2.3901  0.4724 -3.1401
20662SOL     OW65901   3.476   9.443   5.240 -0.1185  0.3495  0.3661
20662SOL    HW165902   3.468   9.454   5.146 -2.0220  1.2387  0.5766
20662SOL    HW265903   3.559   9.398   5.252  0.7575  1.2936 -1.6373
20663SOL     OW65904   4.273   0.153   6.770  0.5628 -0.0815 -0.1156
20663SOL    HW165905   4.292   0.183   6.681  0.3632  0.9279  0.1684
20663SOL    HW265906   4.352   0.173   6.820  0.7559 -0.8457 -0.1015
20664SOL     OW65907   9.694   8.525   7.836 -0.2245 -0.4678 -0.5259
20664SOL    HW165908   9.619   8.537   7.777 -0.9853 -0.2153  0.4706
20664SOL    HW265909   9.680   8.588   7.906 -0.6288 -2.3961  1.2249
20665SOL     OW65910   1.207   8.157   1.760 -0.0110  0.3243  0.0703
20665SOL    HW165911   1.147   8.098   1.715 -0.3317  2.2575 -2.2691
20665SOL    HW265912   1.162   8.182   1.840  0.7635 -3.6080  1.9543
20666SOL     OW65913   1.910   6.082   3.564 -0.0321 -0.5674  0.2620
20666SOL    HW165914   1.921   6.157   3.622  1.3557 -0.5456  0.0116
20666SOL    HW265915   1.959   6.105   3.485  1.5706 -2.2388  0.6901
20667SOL     OW65916   3.137   3.018   8.689  0.1332  0.0279 -0.1011
20667SOL    HW165917   3.220   2.971   8.698  1.8039  2.7170 -0.3647
20667SOL    HW265918   3.153   3.104   8.729 -1.6837  1.5490 -2.3232
20668SOL     OW65919   4.232   2.368   7.458 -0.9920  0.6763 -0.6964
20668SOL    HW165920   4.255   2.369   7.365 -1.9216 -1.1661 -0.9848
20668SOL    HW265921   4.159   2.306   7.464 -0.1941 -0.1341  1.4145
20669SOL     OW65922   2.568   7.609   4.552 -0.1620 -0.3950 -0.7427
20669SOL    HW165923   2.546   7.698   4.525 -0.6115 -0.4897 -0.6968
20669SOL    HW265924   2.513   7.594   4.629 -0.0178 -0.6786 -0.6965
20670SOL     OW65925   9.890   2.242   8.250  0.8012 -0.3711  0.3909
20670SOL    HW165926   9.985   2.232   8.251  0.6556 -2.5498 -1.1455
20670SOL    HW265927   9.873   2.297   8.173  0.7926  0.0094  0.6594
20671SOL     OW65928   1.385   9.994   0.512 -0.4060 -0.1047  0.3019
20671SOL    HW165929   1.419   9.950   0.434  0.9218  1.8230 -0.2716
20671SOL    HW265930   1.351   9.923   0.567 -0.2344 -1.6242 -1.4564
20672SOL     OW65931   4.872   7.567   2.834 -0.2068  0.4297  0.1181
20672SOL    HW165932   4.820   7.520   2.769  1.2768  0.5035 -1.1673
20672SOL    HW265933   4.816   7.570   2.912 -1.7007 -0.3775 -0.8837
20673SOL     OW65934   9.942   1.632   6.677  0.1247  0.1329  0.0884
20673SOL    HW165935   9.867   1.622   6.736  0.0353 -2.2813 -0.3436
20673SOL    HW265936   9.910   1.602   6.592  0.6607  2.2539 -0.9504
20674SOL     OW65937   0.044   7.723   3.982  0.0820  0.9319  0.2413
20674SOL    HW165938  -0.003   7.806   3.978 -1.3532  0.1192 -0.2489
20674SOL    HW265939   0.125   7.745   4.029 -0.5258  2.4759  0.6576
20675SOL     OW65940   0.781   0.215  10.025  0.2415  0.4612  0.5056
20675SOL    HW165941   0.692   0.180  10.027  0.2814 -0.0677 -2.3268
20675SOL    HW265942   0.838   0.140  10.044  0.1551 -0.0067 -0.9574
20676SOL     OW65943   7.582   5.852   0.637  0.1266 -0.0003  0.2256
20676SOL    HW165944   7.579   5.758   0.622 -1.9178 -0.0012  0.3912
20676SOL    HW265945   7.624   5.888   0.559  1.4059 -1.0687  0.3976
20677SOL     OW65946   3.401   8.862   4.862  0.7035 -0.2628 -0.4839
20677SOL    HW165947   3.314   8.896   4.844  0.8448  0.5931  0.3536
20677SOL    HW265948   3.408   8.863   4.958  1.2665 -1.2820 -0.4967
20678SOL     OW65949   6.575   3.770   4.896 -0.0088 -0.5884 -0.1762
20678SOL    HW165950   6.532   3.810   4.971  1.6094 -0.0236  0.4917
20678SOL    HW265951   6.555   3.828   4.823  1.3129  0.8563  0.5495
20679SOL     OW65952   2.041   0.831   1.508  0.3482 -0.1811  0.3727
20679SOL    HW165953   2.137   0.832   1.506  0.3436  0.9720  0.2098
20679SOL    HW265954   2.019   0.802   1.596  0.8854  1.9309  1.2728
20680SOL     OW65955  10.138   9.462   3.641 -0.1077 -0.5374  0.0433
20680SOL    HW165956  10.207   9.499   3.697  0.0057  2.0326 -1.6092
20680SOL    HW265957  10.173   9.378   3.611  0.0247 -1.7625  3.2990
20681SOL     OW65958   3.042   7.289   7.133  0.3488  0.0915  0.0034
20681SOL    HW165959   2.965   7.270   7.186 -0.1037 -1.3180 -1.0868
20681SOL    HW265960   3.090   7.206   7.131  0.3640  0.1003 -1.7174
20682SOL     OW65961   4.140   0.757   0.099 -0.3723 -0.7516 -0.6189
20682SOL    HW165962   4.137   0.799   0.013 -1.2771  0.0183 -0.2398
20682SOL    HW265963   4.150   0.829   0.160  0.4374 -1.3118 -0.0824
20683SOL     OW65964   4.723   0.268   2.874 -0.0185  0.3819 -0.4472
20683SOL    HW165965   4.704   0.305   2.788  0.0592 -0.2708 -0.7477
20683SOL    HW265966   4.645   0.216   2.895  0.0016  0.4653 -0.1656
20684SOL     OW65967   9.606   6.954   6.939  0.1510  0.6083 -0.1822
20684SOL    HW165968   9.527   6.986   6.895  0.4787  1.3339 -0.2647
20684SOL    HW265969   9.666   7.029   6.936  0.9077  0.0009 -0.2873
20685SOL     OW65970   5.123   6.597   9.867 -0.4230 -0.6988 -0.0959
20685SOL    HW165971   5.140   6.566   9.778 -2.0778  0.8812 -1.0053
20685SOL    HW265972   5.146   6.522   9.923  0.9344 -1.6223 -1.7853
20686SOL     OW65973   7.353   6.307   4.321 -0.0817 -0.2445  0.0905
20686SOL    HW165974   7.361   6.392   4.278 -1.1582 -0.0639  0.2109
20686SOL    HW265975   7.441   6.270   4.319  0.1518  0.3402 -1.0605
20687SOL     OW65976   2.899   3.282   9.875 -0.3729  0.0169 -0.1052
20687SOL    HW165977   2.846   3.204   9.891 -1.3090  0.7078  0.2779
20687SOL    HW265978   2.989   3.254   9.893 -0.4664 -1.4123 -1.5795
20688SOL     OW65979   0.525   4.767   0.807 -0.4073 -0.0360 -0.3141
20688SOL    HW165980   0.576   4.690   0.782  0.1610  0.8961 -2.1540
20688SOL    HW265981   0.445   4.761   0.755 -0.5465  0.4092 -0.1540
20689SOL     OW65982   2.791   2.976   4.736 -0.4196 -0.1786  0.4475
20689SOL    HW165983   2.772   2.992   4.644 -0.3765  0.7261  0.5894
20689SOL    HW265984   2.838   3.054   4.765  0.3857 -0.8542  1.0046
20690SOL     OW65985   4.350   6.701   0.605 -0.4228 -0.1348  0.1447
20690SOL    HW165986   4.348   6.758   0.528  1.1026 -1.0711 -0.6653
20690SOL    HW265987   4.263   6.662   0.608 -1.1847  1.5005  0.1655
20691SOL     OW65988   5.730   1.826   9.018  0.4976 -0.3021 -0.0967
20691SOL    HW165989   5.786   1.764   8.970  1.0893  0.4479 -0.4018
20691SOL    HW265990   5.670   1.770   9.067  1.0089 -1.1230 -0.3671
20692SOL     OW65991   6.146   8.533   2.255  0.1655 -0.0918 -0.3580
20692SOL    HW165992   6.095   8.458   2.224 -2.0247  1.5223 -0.9283
20692SOL    HW265993   6.119   8.605   2.198  2.5736  1.0450 -0.1558
20693SOL     OW65994   4.882   1.610   3.395 -0.2958  0.1407 -0.4778
20693SOL    HW165995   4.870   1.630   3.303 -0.5413  0.9174 -0.2812
20693SOL    HW265996   4.916   1.691   3.434 -0.3467 -0.1250  0.1412
20694SOL     OW65997   5.674   6.001   0.296 -0.5458  0.0419 -0.0758
20694SOL    HW165998   5.671   6.038   0.208 -0.3736  0.1533 -0.0354
20694SOL    HW265999   5.658   5.908   0.284  2.1167 -0.4425 -0.5404
20695SOL     OW66000   4.621   5.801   7.040 -0.1104 -0.3995  0.6836
20695SOL    HW166001   4.597   5.730   7.100 -0.9061 -0.7278 -0.0067
20695SOL    HW266002   4.713   5.817   7.058 -0.2764 -0.6355  1.8452
20696SOL     OW66003   9.844   3.027   1.972  0.6793  0.8003 -0.4834
20696SOL    HW166004   9.846   3.122   1.984  2.0241  0.5982  1.4470
20696SOL    HW266005   9.863   3.014   1.879  1.8999  2.4022 -0.5115
20697SOL     OW66006   2.940   5.910   7.435 -0.2739  0.7908 -0.0656
20697SOL    HW166007   3.036   5.911   7.433 -0.2426 -0.1763  0.2287
20697SOL    HW266008   2.916   5.989   7.482  0.4203  0.6015  0.6312
20698SOL     OW66009   7.630   6.901   3.665  0.3266 -0.3217 -0.0591
20698SOL    HW166010   7.637   6.996   3.678  0.8444 -0.1780 -1.2470
20698SOL    HW266011   7.548   6.877   3.708  1.3596  0.2304  2.4385
20699SOL     OW66012   6.898   1.761   4.236  0.2468  0.2509  0.5258
20699SOL    HW166013   6.979   1.810   4.219 -1.3524  2.5009 -1.2515
20699SOL    HW266014   6.925   1.669   4.231  2.6330  0.9083 -0.3793
20700SOL     OW66015   9.984   0.136   0.441 -0.3310  0.2045 -0.5483
20700SOL    HW166016  10.017   0.217   0.478 -0.6492  0.7623 -1.4527
20700SOL    HW266017  10.063   0.090   0.410 -0.0122 -0.5059  1.2172
20701SOL     OW66018   4.434   4.889   8.545 -0.8258  0.2801 -0.0023
20701SOL    HW166019   4.346   4.884   8.508 -0.8395  0.2287  0.0370
20701SOL    HW266020   4.420   4.918   8.635 -0.7311  1.2871 -0.3051
20702SOL     OW66021   7.956   4.996   3.664  0.8749  0.3800  0.1973
20702SOL    HW166022   8.051   5.005   3.661  0.8753  0.8658  1.1675
20702SOL    HW266023   7.938   4.949   3.745  0.3421 -0.8997 -0.6246
20703SOL     OW66024   6.881   7.641   5.486  0.1189  0.4652  0.7433
20703SOL    HW166025   6.886   7.574   5.554 -0.3829 -0.0510  0.2798
20703SOL    HW266026   6.909   7.721   5.530  2.0115 -0.2710  0.9595
20704SOL     OW66027   5.486   4.808   1.963 -0.5094  0.4904 -0.3644
20704SOL    HW166028   5.488   4.714   1.945  2.8777  0.4343 -0.4008
20704SOL    HW266029   5.499   4.849   1.877 -1.5482  0.9832 -0.2921
20705SOL     OW66030   1.265   7.166   8.454 -0.0447  0.0523 -0.1154
20705SOL    HW166031   1.285   7.260   8.452 -0.6958  0.1923 -0.5665
20705SOL    HW266032   1.172   7.161   8.432 -0.6916 -0.5390  2.4704
20706SOL     OW66033   5.604   3.168   8.182 -0.3330  0.7229 -0.1795
20706SOL    HW166034   5.525   3.214   8.153 -0.7748  0.0634 -0.0323
20706SOL    HW266035   5.639   3.224   8.252 -1.0383  0.6868  0.2118
20707SOL     OW66036  10.069   7.547   9.365  0.3934  0.6557  0.1566
20707SOL    HW166037  10.002   7.481   9.346  0.0541  1.0383  0.0009
20707SOL    HW266038  10.019   7.626   9.389  0.8059  0.3051  2.3411
20708SOL     OW66039   6.077   7.836   7.929  0.6874  0.4252 -0.0460
20708SOL    HW166040   6.037   7.888   7.859  2.4934  0.6900 -0.9354
20708SOL    HW266041   6.127   7.899   7.981 -0.0622  0.1169  1.1081
20709SOL     OW66042   4.063   2.104   8.178  0.0351  0.1211 -0.2301
20709SOL    HW166043   4.011   2.032   8.213 -1.9457  1.5835  0.0344
20709SOL    HW266044   4.106   2.068   8.101 -0.2458 -1.5394  0.3531
20710SOL     OW66045   2.918   0.961   4.286 -0.2016 -0.0525 -0.4669
20710SOL    HW166046   2.827   0.936   4.273 -0.0030 -1.0834  0.0462
20710SOL    HW266047   2.937   0.939   4.378  0.1222  1.6012 -0.0953
20711SOL     OW66048   2.727   1.725   8.292 -0.2476  0.4619 -0.1296
20711SOL    HW166049   2.793   1.754   8.230 -0.5774  2.3337  0.3294
20711SOL    HW266050   2.776   1.678   8.360  0.3598  0.2245 -0.7254
20712SOL     OW66051   2.188   3.612   5.904  0.0728 -0.5105 -0.3852
20712SOL    HW166052   2.283   3.620   5.909  0.2739 -1.6832 -1.7968
20712SOL    HW266053   2.156   3.702   5.915  1.4311  0.1399 -1.4661
20713SOL     OW66054   9.351   4.417   3.039 -0.7820 -0.1173 -0.4582
20713SOL    HW166055   9.419   4.457   3.094  0.1026 -1.0752 -0.8185
20713SOL    HW266056   9.298   4.490   3.009 -0.7087  0.5211  0.8989
20714SOL     OW66057   0.661   3.762   7.668  0.1451 -0.5939  0.5877
20714SOL    HW166058   0.734   3.703   7.686  1.4493  1.3269  2.0870
20714SOL    HW266059   0.697   3.826   7.607  0.4108  1.4245  2.7120
20715SOL     OW66060   0.428   0.675   0.468 -0.0161 -0.0040  0.4722
20715SOL    HW166061   0.347   0.647   0.510 -1.1127 -0.4436 -1.7723
20715SOL    HW266062   0.490   0.604   0.486 -0.6952 -0.5605  0.6548
20716SOL     OW66063   9.498   3.595   4.495 -0.1851  0.2139  0.3356
20716SOL    HW166064   9.420   3.544   4.470 -0.6844  0.5122  1.2368
20716SOL    HW266065   9.486   3.680   4.453  0.0427 -0.0006 -0.1665
20717SOL     OW66066   6.041   1.754   0.629  0.0010 -0.6869 -0.6636
20717SOL    HW166067   6.115   1.728   0.574  0.2080  0.0368 -0.7385
20717SOL    HW266068   5.966   1.705   0.594  0.8216 -3.2272  0.8492
20718SOL     OW66069   2.224   7.122   4.039  0.1199  0.4869  0.1206
20718SOL    HW166070   2.268   7.045   4.076 -0.4722 -0.0771 -0.3266
20718SOL    HW266071   2.134   7.116   4.072 -0.1639  0.4996 -0.6278
20719SOL     OW66072   5.354   2.793   0.168 -0.3849  1.0109  0.5743
20719SOL    HW166073   5.312   2.878   0.183  0.2909  1.8064 -1.7439
20719SOL    HW266074   5.340   2.775   0.075  0.9620 -0.6068  0.6421
20720SOL     OW66075   4.537   6.099   0.965  0.8089 -0.1258 -0.0864
20720SOL    HW166076   4.573   6.059   1.044 -0.9681  1.5621  1.6749
20720SOL    HW266077   4.470   6.038   0.935  0.7494 -0.2645  0.3267
20721SOL     OW66078   3.993   7.770   6.401 -0.2814  0.0698  0.0678
20721SOL    HW166079   4.076   7.797   6.440 -1.3056  1.3043  1.4845
20721SOL    HW266080   3.979   7.681   6.434  0.2181  0.0589  0.2616
20722SOL     OW66081   9.860   7.497   2.706  0.0603  0.0882 -0.0984
20722SOL    HW166082   9.901   7.541   2.781 -0.9471  0.2752  0.3641
20722SOL    HW266083   9.830   7.413   2.741 -0.7870  0.3473 -0.1545
20723SOL     OW66084   7.364   4.809   1.525  0.1039  0.1818 -0.5134
20723SOL    HW166085   7.293   4.804   1.462  0.4065 -0.7877 -0.8005
20723SOL    HW266086   7.329   4.769   1.605  0.4310 -0.6598 -0.7756
20724SOL     OW66087   2.343   6.048   9.678  0.4821 -0.0748 -0.2685
20724SOL    HW166088   2.373   5.993   9.606  0.5645 -0.0148 -0.2803
20724SOL    HW266089   2.332   6.134   9.639 -0.2297 -0.2133 -0.3872
20725SOL     OW66090   7.767   7.505   9.205 -0.2468 -0.0509  0.0367
20725SOL    HW166091   7.832   7.435   9.217  0.0243  0.3588  1.0735
20725SOL    HW266092   7.768   7.522   9.111  0.5348 -0.6383 -0.0746
20726SOL     OW66093   9.684   2.951   3.815 -0.2008  0.2175 -0.1661
20726SOL    HW166094   9.589   2.959   3.806 -0.2927  0.4640  0.8992
20726SOL    HW266095   9.717   2.955   3.725 -1.2674 -0.9809 -0.6366
20727SOL     OW66096  10.000   7.562   8.768  0.6349  0.5095  0.1397
20727SOL    HW166097   9.986   7.637   8.710  1.6828 -0.8077 -1.9462
20727SOL    HW266098   9.925   7.563   8.827 -0.1650  2.2885 -0.8254
20728SOL     OW66099   1.103   6.977   7.595  0.3855 -0.1748 -0.4220
20728SOL    HW166100   1.135   7.040   7.531  0.6831 -0.1157 -0.2197
20728SOL    HW266101   1.171   6.909   7.599  0.6818  0.1542  0.3019
20729SOL     OW66102   9.578   7.253   7.379  0.5886  0.0192  0.7347
20729SOL    HW166103   9.669   7.224   7.385 -0.4055 -3.5795  0.6141
20729SOL    HW266104   9.567   7.277   7.287  1.2124 -0.4003  0.5437
20730SOL     OW66105   8.021   9.837   4.820  0.2031  0.5083 -0.0855
20730SOL    HW166106   8.043   9.923   4.856 -2.7386  0.7480  1.4435
20730SOL    HW266107   7.925   9.836   4.817  0.1278 -2.6918 -0.1315
20731SOL     OW66108   0.470   5.706   8.123  0.0634  0.3689 -0.3261
20731SOL    HW166109   0.548   5.703   8.068 -0.2333  0.8694 -0.7874
20731SOL    HW266110   0.406   5.755   8.071 -0.9954 -1.1232 -0.5274
20732SOL     OW66111   1.916   9.022   4.495  0.5269  0.2640 -0.1387
20732SOL    HW166112   1.857   9.097   4.483 -1.1967 -1.1269 -0.8879
20732SOL    HW266113   1.858   8.951   4.523  1.8697 -1.1754 -0.8557
20733SOL     OW66114   1.635   7.833   7.081  0.1232  0.1889 -0.0038
20733SOL    HW166115   1.726   7.852   7.057 -0.4393  2.1399 -0.7767
20733SOL    HW266116   1.586   7.842   6.999 -1.1184  1.7883  0.8535
20734SOL     OW66117   5.862   9.052   2.423  0.0856  0.4956  0.0807
20734SOL    HW166118   5.882   9.107   2.347  1.4498 -0.2428 -0.1253
20734SOL    HW266119   5.826   8.971   2.386  1.2085 -0.0618  0.1687
20735SOL     OW66120   7.909   3.102   7.734  0.4021 -0.3083  0.1702
20735SOL    HW166121   7.873   3.100   7.645  0.8001  0.5902 -0.0276
20735SOL    HW266122   7.853   3.043   7.784  0.3522 -1.0648 -0.7401
20736SOL     OW66123   3.996   2.028   9.143 -0.2269  0.0052  0.2687
20736SOL    HW166124   3.936   1.964   9.105  1.4575 -0.3958 -1.8891
20736SOL    HW266125   4.072   2.028   9.085  1.1279  1.7862  1.8961
20737SOL     OW66126   6.552   1.601   4.927  0.1354  0.6183  0.3077
20737SOL    HW166127   6.569   1.691   4.955 -2.0269  1.1959 -0.0928
20737SOL    HW266128   6.472   1.576   4.974 -1.2643  0.1630 -2.1581
20738SOL     OW66129   0.633   5.078   9.777  0.0231  0.0980  0.5955
20738SOL    HW166130   0.565   5.145   9.766  0.6802  0.7970  0.7619
20738SOL    HW266131   0.709   5.113   9.731  1.3634  0.9463  3.2712
20739SOL     OW66132   0.925   5.776   6.683 -0.2150  0.2650 -0.2657
20739SOL    HW166133   0.917   5.711   6.753  2.7566 -0.1770 -0.2094
20739SOL    HW266134   0.909   5.726   6.603  0.1337 -0.0955 -0.1128
20740SOL     OW66135   5.022   3.234   3.194  0.7475  0.4807 -0.3050
20740SOL    HW166136   4.930   3.233   3.220  1.3405  0.5007  2.0330
20740SOL    HW266137   5.024   3.185   3.112 -1.3209  0.4039 -0.3611
20741SOL     OW66138   3.038   0.831   8.357 -0.4106 -0.0766 -0.3291
20741SOL    HW166139   3.105   0.775   8.397  0.6455  0.9308 -0.6330
20741SOL    HW266140   2.958   0.811   8.406 -0.1830 -2.1439 -0.7082
20742SOL     OW66141   0.176  10.152   8.630 -0.3617  0.2953  0.0154
20742SOL    HW166142   0.178  10.131   8.537 -1.5040 -1.4179  0.3389
20742SOL    HW266143   0.251  10.105   8.667  0.1629  1.0708 -0.0251
20743SOL     OW66144   3.243   7.675   3.961  0.9679  0.3050 -0.5890
20743SOL    HW166145   3.230   7.685   4.055 -0.6942  1.1188 -0.8676
20743SOL    HW266146   3.301   7.748   3.937  0.0034  1.1409 -0.4431
20744SOL     OW66147   9.532   6.129   2.915  0.1893  0.4226 -0.2796
20744SOL    HW166148   9.547   6.074   2.838  0.6776  1.0618 -0.6517
20744SOL    HW266149   9.543   6.071   2.990 -0.0476 -0.1514 -0.6872
20745SOL     OW66150   6.099   9.747  10.113  0.1816  0.5552 -0.3116
20745SOL    HW166151   6.004   9.754  10.103  0.1993 -0.5737 -1.5620
20745SOL    HW266152   6.117   9.788  10.197 -1.2660  1.8570 -0.5757
20746SOL     OW66153   5.607   8.769   5.912 -0.1262 -0.0077 -0.5866
20746SOL    HW166154   5.618   8.680   5.946 -0.6984 -0.0688 -0.5602
20746SOL    HW266155   5.526   8.766   5.862 -0.2687  0.5632 -0.3956
20747SOL     OW66156   9.138   1.255   0.099 -0.4995  0.0615  0.7353
20747SOL    HW166157   9.220   1.207   0.097 -1.3306 -1.4735 -2.6654
20747SOL    HW266158   9.073   1.190   0.128 -1.1660 -0.0885 -0.9997
20748SOL     OW66159   2.941   6.789  10.170 -0.3565 -0.5884  0.0993
20748SOL    HW166160   2.942   6.866  10.112 -0.5083 -0.2121  0.5877
20748SOL    HW266161   2.885   6.726  10.125 -1.1621  0.0133  0.2133
20749SOL     OW66162   4.361   9.493   6.119 -0.1288  0.0793 -1.0766
20749SOL    HW166163   4.407   9.489   6.203 -1.7550  0.8580 -0.1129
20749SOL    HW266164   4.431   9.489   6.054  1.1918 -0.3055  0.3018
20750SOL     OW66165   1.328   3.657   0.393 -0.0981 -0.0306  0.0218
20750SOL    HW166166   1.309   3.604   0.471 -1.2822 -0.2560 -0.4004
20750SOL    HW266167   1.337   3.746   0.426 -0.1783 -0.1820  0.4673
20751SOL     OW66168   2.426   2.053   0.481 -0.3829  0.2163 -0.6445
20751SOL    HW166169   2.514   2.026   0.506 -0.7475 -0.3208  0.1033
20751SOL    HW266170   2.409   2.131   0.534 -0.2701  0.4607 -0.9655
20752SOL     OW66171   5.396   1.553   7.225 -0.3811 -0.1643 -0.7535
20752SOL    HW166172   5.416   1.522   7.136  1.0895  2.6910 -1.5179
20752SOL    HW266173   5.465   1.514   7.279  1.1219  1.2162 -1.5955
20753SOL     OW66174   7.610   9.028   6.816 -0.3859 -0.0513 -0.1887
20753SOL    HW166175   7.596   9.104   6.874 -1.3241  0.1417 -0.6552
20753SOL    HW266176   7.698   9.041   6.782 -0.5633  0.8799 -0.3257
20754SOL     OW66177   5.432   9.697   7.013  0.4931  0.0487 -0.2711
20754SOL    HW166178   5.337   9.687   7.009  0.3963  0.4068  0.7238
20754SOL    HW266179   5.459   9.711   6.923 -0.4084  0.0186 -0.5550
20755SOL     OW66180   0.440   6.292   5.136  0.0024 -0.1087  0.0287
20755SOL    HW166181   0.366   6.234   5.153  0.1592 -0.5112 -0.6217
20755SOL    HW266182   0.517   6.235   5.143  0.1631  0.0386 -0.5435
20756SOL     OW66183   9.354   9.585   0.525 -0.2636  0.3331 -0.1844
20756SOL    HW166184   9.290   9.621   0.464 -1.0827 -0.7189  0.0369
20756SOL    HW266185   9.428   9.646   0.521 -0.6183  0.7023 -1.6382
20757SOL     OW66186   6.449   4.033   9.910 -0.1741  0.2048 -0.0049
20757SOL    HW166187   6.534   4.011   9.871 -1.0309 -2.5455 -0.5573
20757SOL    HW266188   6.470   4.064   9.998  1.4587  0.6023 -0.5104
20758SOL     OW66189   9.439   2.813   0.158 -0.2206  0.1721  0.2582
20758SOL    HW166190   9.445   2.892   0.212  2.5486  1.0733 -1.2073
20758SOL    HW266191   9.346   2.791   0.159 -0.8290  2.4230  2.1334
20759SOL     OW66192   4.093   2.723   8.145  0.1332  0.1544 -0.0196
20759SOL    HW166193   4.157   2.663   8.182 -0.5486 -1.5297 -1.4304
20759SOL    HW266194   4.128   2.743   8.058 -0.6306  0.2052 -0.3210
20760SOL     OW66195   6.143   5.418   8.863  0.4731 -0.1653 -0.3979
20760SOL    HW166196   6.058   5.435   8.822  1.3260  0.6318 -1.9841
20760SOL    HW266197   6.123   5.376   8.946 -1.4154 -1.2104 -1.3310
20761SOL     OW66198   8.050   6.083   6.219  0.3423 -0.1855 -0.7649
20761SOL    HW166199   7.987   6.142   6.177  1.4665  1.6489  0.0100
20761SOL    HW266200   7.998   6.033   6.281 -0.8612 -0.9909 -2.3408
20762SOL     OW66201   7.573   3.538   4.470  0.8412  0.3445 -0.2970
20762SOL    HW166202   7.544   3.622   4.435  0.5430  0.2546 -0.2682
20762SOL    HW266203   7.668   3.547   4.479  0.5407  1.7126  2.4081
20763SOL     OW66204   1.021   4.123   1.241  0.2340  0.3789  0.0026
20763SOL    HW166205   1.045   4.187   1.308  0.8023  0.7760 -0.5655
20763SOL    HW266206   1.054   4.040   1.274  1.9667  0.8264 -0.5071
20764SOL     OW66207   4.351   2.309   8.055 -0.5165  0.1500 -0.3573
20764SOL    HW166208   4.431   2.358   8.037 -1.2925  1.2134 -1.0747
20764SOL    HW266209   4.377   2.218   8.050  0.9812  0.4585  1.0088
20765SOL     OW66210   0.942   8.430   4.911  0.0945 -0.2598 -0.3231
20765SOL    HW166211   0.890   8.386   4.844 -0.7980 -0.3211  0.3786
20765SOL    HW266212   0.979   8.506   4.866 -1.2130  0.1968 -0.6762
20766SOL     OW66213   9.779   0.053   4.174 -0.9974 -0.2087 -0.2230
20766SOL    HW166214   9.770   0.144   4.145 -4.5261 -0.7580 -1.3219
20766SOL    HW266215   9.762   0.057   4.269 -0.6993  0.3125 -0.1866
20767SOL     OW66216   4.054  10.056   6.210  0.5670  0.1318  0.3176
20767SOL    HW166217   4.047  10.094   6.123 -1.1012 -1.5042 -0.3272
20767SOL    HW266218   4.014  10.120   6.268  0.7094  0.7504 -0.2656
20768SOL     OW66219   7.391   6.572   4.256 -0.3148 -0.4930 -0.7262
20768SOL    HW166220   7.312   6.624   4.274 -0.4112 -1.1284  0.9200
20768SOL    HW266221   7.456   6.635   4.226 -0.7944  0.3972  0.0569
20769SOL     OW66222   7.307   3.671   6.054  0.1922 -0.0130 -0.0258
20769SOL    HW166223   7.250   3.707   5.987 -1.3771  0.3059  1.4138
20769SOL    HW266224   7.249   3.649   6.127  1.3549 -3.4036  0.0603
20770SOL     OW66225   9.338   2.576   8.011  0.4974 -0.3688  0.7577
20770SOL    HW166226   9.314   2.488   7.981 -1.6832  0.1306  0.8859
20770SOL    HW266227   9.273   2.597   8.078  2.5056  0.3818  2.6031
20771SOL     OW66228   4.184   8.201   8.262 -0.0019 -1.1286  0.0828
20771SOL    HW166229   4.119   8.183   8.194 -0.2801 -2.0794  0.5860
20771SOL    HW266230   4.146   8.165   8.342  1.5860 -2.6355  0.2037
20772SOL     OW66231   4.180   7.947   0.691  0.0754  0.1102  0.3482
20772SOL    HW166232   4.263   7.976   0.651 -0.3542  0.5597 -0.2386
20772SOL    HW266233   4.114   7.963   0.623 -0.2637 -1.8181  0.1762
20773SOL     OW66234   1.045   7.434   4.611  0.1458  0.2023  0.1351
20773SOL    HW166235   0.988   7.429   4.688  0.6489  0.7009  0.5515
20773SOL    HW266236   1.130   7.461   4.646 -0.0691  2.3039 -0.8031
20774SOL     OW66237   3.605   2.009   4.750  0.3092  0.3240  0.0267
20774SOL    HW166238   3.635   2.022   4.840  0.5697 -0.2073  0.0177
20774SOL    HW266239   3.672   1.953   4.710 -0.8367 -1.1627  0.1002
20775SOL     OW66240   4.294   3.724   4.831  0.0998  0.0021 -0.2334
20775SOL    HW166241   4.281   3.757   4.742 -0.4803  0.4918  0.0307
20775SOL    HW266242   4.253   3.789   4.888  2.1881  0.7477  0.5381
20776SOL     OW66243   1.212   6.750   5.272 -0.2129 -0.6143  0.5674
20776SOL    HW166244   1.209   6.711   5.359  0.3192 -0.1148  0.8129
20776SOL    HW266245   1.247   6.838   5.286 -0.6454 -0.3329 -0.0821
20777SOL     OW66246   2.789   0.584   0.904  0.1474 -0.7786  0.5146
20777SOL    HW166247   2.796   0.541   0.989 -1.3859  0.3970  1.3103
20777SOL    HW266248   2.726   0.530   0.855  1.2691 -1.6312 -0.0182
20778SOL     OW66249   6.441   8.363   7.436 -0.1887 -0.0706 -0.3789
20778SOL    HW166250   6.491   8.374   7.517 -0.7439 -3.0189  0.4610
20778SOL    HW266251   6.506   8.375   7.367  0.7580  0.3617  0.5439
20779SOL     OW66252   8.211   6.062   9.552  0.1737  0.3955  0.0248
20779SOL    HW166253   8.189   6.097   9.466 -0.8016  0.2413  0.1924
20779SOL    HW266254   8.276   6.122   9.587 -0.0609  0.9447 -0.4675
20780SOL     OW66255   6.491   6.151   2.844  0.7752  0.7336 -0.3945
20780SOL    HW166256   6.479   6.057   2.832  1.2076  0.5387  0.6487
20780SOL    HW266257   6.430   6.175   2.914  1.5644  0.9821  0.2255
20781SOL     OW66258   7.202   6.702   5.993  0.2277  0.9416 -0.2622
20781SOL    HW166259   7.220   6.779   6.046  1.2089  2.1220 -2.1609
20781SOL    HW266260   7.287   6.658   5.985 -0.3279 -0.3784  0.8199
20782SOL     OW66261   6.567   6.076   0.482  0.6577  0.1292 -0.5456
20782SOL    HW166262   6.551   6.083   0.388 -2.6455  1.3718 -0.0158
20782SOL    HW266263   6.490   6.030   0.516  0.1046  2.5900  1.8691
20783SOL     OW66264   7.892   9.558   8.056  0.1952 -0.2459 -0.6754
20783SOL    HW166265   7.932   9.472   8.071  0.1574  0.0181  1.0565
20783SOL    HW266266   7.801   9.538   8.034  0.7292 -0.7385 -2.6999
20784SOL     OW66267   8.363   2.695   2.621 -0.0577  0.2811  0.3466
20784SOL    HW166268   8.416   2.753   2.675  0.7626 -1.1483  1.1282
20784SOL    HW266269   8.283   2.679   2.672 -1.0961  2.0578 -0.6270
20785SOL     OW66270   2.516   7.191   4.886  0.7752  0.0331  0.2098
20785SOL    HW166271   2.541   7.142   4.808  2.6723 -0.0440  0.8039
20785SOL    HW266272   2.582   7.167   4.952 -0.3241  0.6645  1.6054
20786SOL     OW66273   5.458   5.891   6.520  0.3943  0.5942  0.2361
20786SOL    HW166274   5.449   5.979   6.557 -1.3059  2.2846 -3.6213
20786SOL    HW266275   5.542   5.894   6.473  0.9148 -0.3344  1.0658
20787SOL     OW66276   2.161   1.842   9.050 -0.1596 -0.2358 -0.2070
20787SOL    HW166277   2.227   1.773   9.056  0.0161 -0.3766 -2.6494
20787SOL    HW266278   2.157   1.863   8.957 -3.3078  0.0405 -0.1118
20788SOL     OW66279   1.563   1.733   6.817 -0.1031  0.3247 -0.0966
20788SOL    HW166280   1.550   1.785   6.737  1.9230  1.0410 -0.0225
20788SOL    HW266281   1.571   1.799   6.886  2.6974  0.0245 -0.0256
20789SOL     OW66282   4.041   7.087   9.822  0.6623 -0.8007 -0.0317
20789SOL    HW166283   3.952   7.115   9.840 -0.0397 -2.0243 -1.3557
20789SOL    HW266284   4.035   6.991   9.817  2.6664 -1.2233  2.9514
20790SOL     OW66285   5.727   0.610   0.485 -0.1428 -0.8139  0.0469
20790SOL    HW166286   5.798   0.585   0.426  0.7418 -1.3689  1.3033
20790SOL    HW266287   5.647   0.595   0.434  0.5109 -2.9400 -0.4504
20791SOL     OW66288   9.828   7.337   7.703  0.4575 -0.1206 -0.5013
20791SOL    HW166289   9.824   7.291   7.620  0.2728 -1.8665  0.4313
20791SOL    HW266290   9.878   7.279   7.761  0.0482  0.7507  0.7870
20792SOL     OW66291   7.299   3.972   1.751  0.5351  0.2248  0.0004
20792SOL    HW166292   7.264   3.959   1.663 -3.3300  1.4003  1.1415
20792SOL    HW266293   7.342   4.058   1.748  0.4249  0.2575 -0.7470
20793SOL     OW66294   7.404   4.817   7.283  0.0836 -0.2031 -0.4187
20793SOL    HW166295   7.407   4.728   7.247  1.8630 -0.3154 -0.0566
20793SOL    HW266296   7.422   4.873   7.208  1.9389 -0.3377 -0.1116
20794SOL     OW66297   2.757   3.152   8.093  0.2272  0.0636  0.0645
20794SOL    HW166298   2.851   3.172   8.092  0.0646  0.8943 -0.9872
20794SOL    HW266299   2.724   3.189   8.011 -1.0574 -0.0266  0.5161
20795SOL     OW66300   9.365   6.432   9.438 -0.4402  0.2106  0.8383
20795SOL    HW166301   9.418   6.512   9.446 -0.5997  0.5046 -0.7455
20795SOL    HW266302   9.282   6.462   9.401 -0.6497 -0.6434  0.5928
20796SOL     OW66303   4.804   2.420   1.400  0.1992 -0.0133  0.4260
20796SOL    HW166304   4.890   2.418   1.357  0.2863 -0.3297  0.6106
20796SOL    HW266305   4.782   2.513   1.405  0.6368  0.0852  0.5833
20797SOL     OW66306  10.000   1.718   0.462 -0.2402  0.2616 -0.2457
20797SOL    HW166307   9.940   1.678   0.526 -0.5508  1.5101  0.2827
20797SOL    HW266308  10.087   1.709   0.502 -0.0527 -1.4512 -0.9602
20798SOL     OW66309   5.387   1.638   5.355 -0.5062  0.6272 -0.0545
20798SOL    HW166310   5.315   1.666   5.299  0.7409  1.0913 -1.4644
20798SOL    HW266311   5.411   1.716   5.404 -0.6417  0.5915  0.0708
20799SOL     OW66312   5.462   5.029   4.402  0.0616  0.4605 -0.3197
20799SOL    HW166313   5.437   5.086   4.475 -1.0727 -0.3871 -0.0210
20799SOL    HW266314   5.380   4.991   4.372  0.6255  0.1334 -1.4924
20800SOL     OW66315   1.181   0.732   2.491  0.1554  0.1684 -0.3753
20800SOL    HW166316   1.271   0.706   2.508 -0.0208 -0.2699 -0.0652
20800SOL    HW266317   1.129   0.656   2.519 -0.2288 -0.1865 -1.9364
20801SOL     OW66318   9.923   6.834   6.607  0.4741  0.3408 -0.6896
20801SOL    HW166319   9.989   6.786   6.655  1.1973 -0.0857 -2.0593
20801SOL    HW266320   9.897   6.775   6.536 -1.8657  0.2274  0.1725
20802SOL     OW66321   2.041   9.824   4.658  0.9316  0.3466 -0.0468
20802SOL    HW166322   2.071   9.835   4.568  0.0258 -0.1330 -0.4138
20802SOL    HW266323   2.122   9.826   4.710  1.4003  1.4792 -0.7718
20803SOL     OW66324   0.670   1.618   2.902 -0.1359  0.0966 -0.1006
20803SOL    HW166325   0.609   1.589   2.971  1.2778 -0.9723  0.7519
20803SOL    HW266326   0.668   1.714   2.908  0.3049  0.0253  1.7703
20804SOL     OW66327   1.384   2.427   8.772  0.1806 -0.3301  0.0428
20804SOL    HW166328   1.306   2.376   8.746 -0.9648  1.1560  0.4381
20804SOL    HW266329   1.391   2.495   8.705 -0.0273  0.7201  1.0632
20805SOL     OW66330   7.107  10.151   3.024 -0.3940 -0.2486 -0.1091
20805SOL    HW166331   7.151  10.211   2.963 -0.8282 -0.5368 -0.7176
20805SOL    HW266332   7.154  10.162   3.106 -0.8713  1.4176 -0.0156
20806SOL     OW66333   6.950   9.095   0.378  0.2003 -0.2388 -0.0210
20806SOL    HW166334   6.882   9.039   0.415 -0.8199  0.4846 -0.7618
20806SOL    HW266335   7.001   9.124   0.454 -1.2150  0.3901  0.7302
20807SOL     OW66336   6.828   2.593   4.214 -0.2582  0.3506 -0.0174
20807SOL    HW166337   6.910   2.628   4.180 -0.7338  0.8522 -0.6693
20807SOL    HW266338   6.766   2.666   4.210 -0.5659  0.1899  1.1467
20808SOL     OW66339   1.214   7.080   0.693  0.1897  0.0759  0.0353
20808SOL    HW166340   1.142   7.126   0.648 -0.6990 -1.9452 -0.7126
20808SOL    HW266341   1.234   7.006   0.636  0.9752 -0.9710  1.6107
20809SOL     OW66342   1.636   1.479   0.061  0.1695 -0.4652 -0.4301
20809SOL    HW166343   1.701   1.450   0.125 -0.4859 -1.7585 -0.3214
20809SOL    HW266344   1.573   1.407   0.056  0.4353 -0.6326 -2.8660
20810SOL     OW66345   7.979   2.876   3.597  0.1823 -0.1066  0.2895
20810SOL    HW166346   7.969   2.875   3.502 -0.5390  0.1408  0.3592
20810SOL    HW266347   7.950   2.963   3.624 -0.4145 -0.4557  0.8153
20811SOL     OW66348   1.753   0.487   6.910 -0.1832 -0.7957 -0.5712
20811SOL    HW166349   1.662   0.459   6.897 -0.4698 -0.7549  1.0528
20811SOL    HW266350   1.794   0.414   6.955  0.0755 -0.0973  0.3593
20812SOL     OW66351   3.677   0.685   9.992  0.5940  0.3860 -0.4115
20812SOL    HW166352   3.746   0.626   9.963 -0.0481 -1.2509  1.2319
20812SOL    HW266353   3.605   0.670   9.930  1.6009  2.0781 -2.1113
20813SOL     OW66354   5.847   6.371   3.847 -0.0077  0.3069 -0.0473
20813SOL    HW166355   5.811   6.459   3.856 -1.6511 -0.3119 -0.2769
20813SOL    HW266356   5.814   6.324   3.923  1.5445  0.0631  0.5299
20814SOL     OW66357   7.803   0.934   4.057  0.1083  0.3758 -0.2121
20814SOL    HW166358   7.829   0.855   4.105 -0.7591 -0.2073 -0.6737
20814SOL    HW266359   7.819   1.006   4.118  1.3623 -0.0961  0.0435
20815SOL     OW66360   9.547   4.570   7.490 -0.0607 -0.5843 -0.5566
20815SOL    HW166361   9.480   4.546   7.426  0.8348 -1.2012 -1.2857
20815SOL    HW266362   9.522   4.658   7.518 -1.3804 -0.9332 -0.5306
20816SOL     OW66363   2.006   8.238   7.354 -0.4222  0.0307  0.0293
20816SOL    HW166364   2.011   8.326   7.316 -1.9142  0.1572  0.0512
20816SOL    HW266365   1.944   8.247   7.426  1.2436 -0.5352  1.6126
20817SOL     OW66366   5.856  10.093   0.313 -0.1679  0.1904  0.0109
20817SOL    HW166367   5.813  10.056   0.390  1.4294  0.2598  0.9728
20817SOL    HW266368   5.928  10.033   0.294 -0.0880  0.5750 -0.9827
20818SOL     OW66369   8.303   8.343   5.444  0.5189  0.2666 -0.3122
20818SOL    HW166370   8.280   8.252   5.427  1.5294 -0.2609  0.9486
20818SOL    HW266371   8.279   8.358   5.536  1.7631  0.7713 -0.0351
20819SOL     OW66372   5.955   1.552   9.458 -0.0516  0.2691  0.3158
20819SOL    HW166373   5.906   1.521   9.382  0.2477 -0.4268  0.4036
20819SOL    HW266374   6.020   1.613   9.422 -0.3353  0.4419  0.0921
20820SOL     OW66375   7.177   7.193   0.690  0.0318  0.5544  0.1236
20820SOL    HW166376   7.116   7.248   0.740 -1.0729 -0.9080  0.4446
20820SOL    HW266377   7.261   7.203   0.736 -0.4626  0.9157  0.9812
20821SOL     OW66378   0.575   6.038   3.372  0.0686  0.5853 -0.3615
20821SOL    HW166379   0.514   6.088   3.427 -1.0291 -1.7030  0.6128
20821SOL    HW266380   0.650   6.022   3.429 -1.3393 -2.3419  0.8400
20822SOL     OW66381   4.265   5.102   9.448 -0.5769 -0.4172 -0.3241
20822SOL    HW166382   4.282   5.057   9.531  0.9829 -0.4438 -0.6289
20822SOL    HW266383   4.195   5.052   9.407  0.1175 -1.7229  0.0094
20823SOL     OW66384   4.806   4.572   3.812 -0.2253  0.2152  0.0149
20823SOL    HW166385   4.852   4.655   3.799  3.9560 -0.9185  4.5746
20823SOL    HW266386   4.857   4.508   3.762 -0.8366 -0.2021 -0.0873
20824SOL     OW66387   5.134   2.911   2.275 -0.2539 -0.6073 -0.0653
20824SOL    HW166388   5.125   2.988   2.332 -0.0969  0.4773 -1.4458
20824SOL    HW266389   5.072   2.926   2.205  2.1112  0.0001 -2.1803
20825SOL     OW66390   6.611   0.351   2.989 -0.1274 -0.5078 -0.6887
20825SOL    HW166391   6.698   0.373   2.954  0.1616  0.8113  0.7250
20825SOL    HW266392   6.553   0.416   2.950  0.2456  1.1622  1.3475
20826SOL     OW66393   0.061   0.990   5.233  0.1467 -0.3654  0.0317
20826SOL    HW166394   0.041   1.034   5.316 -1.2761  0.3005 -0.6233
20826SOL    HW266395   0.153   1.010   5.217  0.2950 -0.0467  1.1749
20827SOL     OW66396   7.247   5.883   3.197 -0.3761  0.5860  0.2115
20827SOL    HW166397   7.210   5.956   3.146 -1.3370  0.7509  1.0957
20827SOL    HW266398   7.318   5.922   3.247  0.7057  0.3798 -1.1326
20828SOL     OW66399   5.152   4.797   7.842 -0.3750 -0.6675 -0.1419
20828SOL    HW166400   5.117   4.807   7.753 -0.8117  0.6648  0.1649
20828SOL    HW266401   5.245   4.817   7.833 -0.3881 -0.6786 -0.3163
20829SOL     OW66402   9.793   1.428   0.418  0.0371  0.3645  0.7197
20829SOL    HW166403   9.886   1.410   0.437  0.2078 -0.1930 -0.5557
20829SOL    HW266404   9.749   1.345   0.433  0.0443  0.1404 -0.4172
20830SOL     OW66405   1.387  10.038   9.133  0.3334  0.6300  0.0776
20830SOL    HW166406   1.457  10.089   9.173 -0.8109  1.1266  1.5319
20830SOL    HW266407   1.428   9.995   9.058  2.4857 -0.0106  1.5335
20831SOL     OW66408   6.380   7.766   3.611  0.0519  0.2066  0.0001
20831SOL    HW166409   6.288   7.788   3.625  0.6831  1.6273  2.6098
20831SOL    HW266410   6.406   7.817   3.534 -0.6700  2.0523  0.9233
20832SOL     OW66411   8.248  10.022   8.647  0.7827 -0.3858 -0.1154
20832SOL    HW166412   8.269  10.115   8.652  0.9457 -0.4111 -0.3451
20832SOL    HW266413   8.152  10.019   8.649  0.7389 -0.1449 -1.2749
20833SOL     OW66414   8.300   8.026   3.976  0.5430  0.7170 -0.3673
20833SOL    HW166415   8.247   8.101   3.952  2.5934  2.2886 -0.2493
20833SOL    HW266416   8.350   8.006   3.897  0.3054 -0.2856 -0.2767
20834SOL     OW66417   9.793   7.458   1.221 -0.3259 -0.6881 -0.5692
20834SOL    HW166418   9.814   7.430   1.131 -0.6644 -1.0237 -0.5484
20834SOL    HW266419   9.793   7.554   1.217  0.1682 -0.6962 -0.8065
20835SOL     OW66420   2.272   4.348   1.874  0.0539  0.5160 -0.9403
20835SOL    HW166421   2.344   4.365   1.934 -0.3474  0.1186 -0.3428
20835SOL    HW266422   2.195   4.384   1.918 -0.0749  1.2203 -1.7086
20836SOL     OW66423   6.988   0.207   1.598 -0.1453  0.4086 -0.0033
20836SOL    HW166424   6.960   0.258   1.521 -0.4759 -1.0969 -0.9295
20836SOL    HW266425   6.929   0.234   1.668 -1.0270  0.4976 -0.7654
20837SOL     OW66426   4.226   9.246   6.396 -0.6982 -0.3080  0.4094
20837SOL    HW166427   4.228   9.286   6.309  1.5681 -0.1781  0.4721
20837SOL    HW266428   4.168   9.303   6.447 -0.5393  0.7053 -0.5080
20838SOL     OW66429   6.608   6.078   8.665  0.4014  0.1639 -0.1536
20838SOL    HW166430   6.564   6.105   8.745  1.5791 -1.2987  1.0716
20838SOL    HW266431   6.552   6.110   8.594 -2.3527 -1.1570  1.2659
20839SOL     OW66432   7.705   2.940   6.223  0.2706  0.9571 -0.4178
20839SOL    HW166433   7.730   2.897   6.141  0.0714  1.3082 -0.6681
20839SOL    HW266434   7.731   3.031   6.211  0.2015  1.0186 -0.1068
20840SOL     OW66435   5.699   6.363   5.303  0.5203 -0.2851  0.0659
20840SOL    HW166436   5.750   6.435   5.266  1.7955 -1.4325 -0.5145
20840SOL    HW266437   5.619   6.360   5.249  1.8561 -1.2321 -2.0021
20841SOL     OW66438   2.400   1.725   5.730  0.1051 -0.1928 -0.0855
20841SOL    HW166439   2.358   1.642   5.752 -1.5591  0.3130 -1.1799
20841SOL    HW266440   2.484   1.722   5.776 -1.0428 -1.3046  2.0991
20842SOL     OW66441   4.432   3.445   8.592  0.1302 -0.3964 -0.4696
20842SOL    HW166442   4.402   3.416   8.506  0.1752 -2.0463  0.0341
20842SOL    HW266443   4.525   3.464   8.580  0.3509 -1.4790 -0.6160
20843SOL     OW66444   2.934   9.628   7.536  0.0202  0.0105  0.3791
20843SOL    HW166445   2.909   9.720   7.535 -0.8040  0.0265 -4.9483
20843SOL    HW266446   3.029   9.630   7.547 -0.2308  1.1118  3.3573
20844SOL     OW66447   4.576   5.344   2.933 -0.1682  0.3618  0.1021
20844SOL    HW166448   4.646   5.370   2.874 -1.1803  0.2926 -1.1594
20844SOL    HW266449   4.542   5.427   2.968  0.3432  0.4072  0.5130
20845SOL     OW66450   3.084   4.719   0.407 -0.6320 -0.0513  0.1642
20845SOL    HW166451   3.069   4.649   0.471  0.2852 -1.1279 -0.7424
20845SOL    HW266452   2.996   4.751   0.385 -1.1517 -1.5696 -0.0748
20846SOL     OW66453   6.673   2.290   0.914  0.1220  0.5939  0.2674
20846SOL    HW166454   6.590   2.302   0.867  0.8757  2.0322 -0.7698
20846SOL    HW266455   6.699   2.200   0.894  0.1534  0.9982 -1.6936
20847SOL     OW66456   7.663  10.125   7.562  0.3670 -0.1383  0.4775
20847SOL    HW166457   7.632  10.082   7.482  1.4303  2.1629 -1.3076
20847SOL    HW266458   7.711  10.202   7.530  0.9466  0.8076  3.3597
20848SOL     OW66459   6.786   4.474   9.598  0.1785 -0.6962  0.2152
20848SOL    HW166460   6.774   4.526   9.677  1.3371 -0.0712  0.0101
20848SOL    HW266461   6.842   4.401   9.627  1.6887  0.2278 -0.2600
20849SOL     OW66462   8.884   7.986   8.416 -0.7011 -0.2123 -0.0538
20849SOL    HW166463   8.965   7.935   8.418  0.1790  1.0714 -1.2969
20849SOL    HW266464   8.906   8.069   8.458 -1.2335  0.3322 -0.8246
20850SOL     OW66465   6.761   7.171   7.578  0.5714  0.4438 -0.0812
20850SOL    HW166466   6.672   7.138   7.571  0.2725  0.5722  2.2135
20850SOL    HW266467   6.770   7.195   7.671  3.3066 -0.5196 -0.0182
20851SOL     OW66468   5.784   3.433   1.412  0.6735 -0.2057 -0.1800
20851SOL    HW166469   5.780   3.496   1.340  1.6783  0.8575  0.6415
20851SOL    HW266470   5.808   3.351   1.370 -0.8504 -0.1253 -1.3063
20852SOL     OW66471  10.089   6.622   0.250  0.3076 -0.1407 -0.1746
20852SOL    HW166472  10.154   6.689   0.266 -1.3398  1.9372 -1.6428
20852SOL    HW266473  10.113   6.585   0.165  1.5914 -2.0084  0.9123
20853SOL     OW66474   9.492   7.056   9.890  0.0852 -0.0805  0.0010
20853SOL    HW166475   9.457   7.138   9.925 -0.9686 -0.5416  0.0858
20853SOL    HW266476   9.580   7.050   9.925  1.3162  2.4242 -2.2828
20854SOL     OW66477   3.652   0.527   5.121 -0.2326 -0.0749 -0.5655
20854SOL    HW166478   3.564   0.515   5.156 -0.0313  1.0410  0.3743
20854SOL    HW266479   3.639   0.578   5.041 -0.5475 -1.1788 -1.2397
20855SOL     OW66480   3.590   6.455   9.181 -0.0862 -0.0712 -0.1636
20855SOL    HW166481   3.587   6.359   9.180  2.2964 -0.2489  1.2481
20855SOL    HW266482   3.647   6.478   9.107  0.1525  0.1679  0.0892
20856SOL     OW66483   4.392   0.627   0.075 -0.2756 -0.4253 -0.6914
20856SOL    HW166484   4.462   0.692   0.087 -0.7135 -0.3320  2.1814
20856SOL    HW266485   4.311   0.677   0.090 -0.6645 -1.3947  0.6301
20857SOL     OW66486   6.591   4.915   6.120  0.1300 -0.4790 -0.2533
20857SOL    HW166487   6.499   4.939   6.134  0.2973 -0.4448  0.9151
20857SOL    HW266488   6.630   4.993   6.081  0.0528  0.1771  0.9383
20858SOL     OW66489   5.709   7.335   0.296 -0.2652 -0.5441  0.0341
20858SOL    HW166490   5.737   7.353   0.206 -0.8095 -0.9053 -0.2106
20858SOL    HW266491   5.621   7.297   0.287  0.4777 -2.5235  0.5803
20859SOL     OW66492   1.298   9.116   0.080  0.0553  0.2095 -0.5332
20859SOL    HW166493   1.373   9.057   0.079  0.1250  0.2837 -0.1009
20859SOL    HW266494   1.284   9.139  -0.012 -0.4347 -1.0489 -0.7770
20860SOL     OW66495   3.822   5.300   5.553 -0.4129  0.3982 -0.2284
20860SOL    HW166496   3.770   5.339   5.483 -3.1040 -2.5323 -0.0748
20860SOL    HW266497   3.859   5.220   5.515  0.8800  0.4627  0.7898
20861SOL     OW66498   8.696   9.899   9.088 -0.1822 -0.2505  0.4327
20861SOL    HW166499   8.782   9.909   9.048 -0.4864  0.0318 -0.1739
20861SOL    HW266500   8.665   9.988   9.101 -0.9563 -0.3308 -0.6610
20862SOL     OW66501   6.907   0.876   9.057 -0.6163  0.5147  0.0148
20862SOL    HW166502   6.830   0.834   9.096  0.0094  0.7403  1.5893
20862SOL    HW266503   6.907   0.965   9.093 -1.3241  1.5933 -2.4307
20863SOL     OW66504   8.342   9.597   0.456 -0.2116 -0.4530 -0.3079
20863SOL    HW166505   8.319   9.538   0.383 -0.7346  1.6014 -1.8960
20863SOL    HW266506   8.258   9.637   0.480  0.0881 -0.5718  0.9743
20864SOL     OW66507   7.951   2.877   3.339 -0.1981 -0.1199  0.0297
20864SOL    HW166508   7.934   2.970   3.357 -0.3514 -0.0746 -0.3531
20864SOL    HW266509   7.963   2.872   3.245  0.0832 -0.4493  0.0773
20865SOL     OW66510   3.968   2.489   0.258  0.5507 -0.4013  0.2371
20865SOL    HW166511   4.013   2.567   0.225  0.4511 -0.1308  0.7295
20865SOL    HW266512   3.897   2.474   0.196 -0.8476  1.2582  1.3396
20866SOL     OW66513   4.124   1.399   4.176  0.4679 -0.0049  0.2741
20866SOL    HW166514   4.159   1.377   4.090 -1.2174 -1.1012 -0.1660
20866SOL    HW266515   4.140   1.494   4.184  2.0273 -0.1547 -0.5449
20867SOL     OW66516   3.857   9.739   9.861 -0.5692  0.1017 -0.0939
20867SOL    HW166517   3.799   9.811   9.835  0.6569  1.2298  0.2087
20867SOL    HW266518   3.799   9.663   9.869 -1.6529  0.6688 -1.9602
20868SOL     OW66519   9.824   9.172   3.515 -0.3849  0.2856  0.1327
20868SOL    HW166520   9.761   9.100   3.506 -1.4329  1.1237  0.5877
20868SOL    HW266521   9.857   9.164   3.605  0.7702 -0.6180 -0.3462
20869SOL     OW66522   0.338   3.838   4.327 -0.4111  0.5493  0.4063
20869SOL    HW166523   0.409   3.822   4.265 -0.4939  0.2217  0.3904
20869SOL    HW266524   0.364   3.917   4.374 -0.5261  1.0153 -0.2977
20870SOL     OW66525   3.592   7.289   1.067  0.1442 -0.4961 -0.4696
20870SOL    HW166526   3.513   7.236   1.082 -0.0858  0.2295  0.9695
20870SOL    HW266527   3.586   7.360   1.131  0.5559  1.1768 -2.2019
20871SOL     OW66528   2.097   5.265   5.037  0.3301  0.3431 -0.1715
20871SOL    HW166529   2.165   5.198   5.038  0.5574  0.5591 -0.6307
20871SOL    HW266530   2.032   5.231   4.976  0.6378  0.7173 -0.7201
20872SOL     OW66531   4.292   9.098   8.371  0.1559  0.1084 -0.7807
20872SOL    HW166532   4.318   9.077   8.460 -0.4783  3.1501  0.2363
20872SOL    HW266533   4.202   9.065   8.363 -0.2025  0.8338  0.1332
20873SOL     OW66534   2.732   6.261   2.190  0.0087 -0.5823  0.0476
20873SOL    HW166535   2.769   6.215   2.115 -0.6744  0.4644 -0.9673
20873SOL    HW266536   2.732   6.353   2.163 -2.4262 -0.4255  0.3866
20874SOL     OW66537   3.669   0.135   5.265 -0.5358 -0.4925  0.1081
20874SOL    HW166538   3.684   0.043   5.287 -0.0562 -0.2143  1.0004
20874SOL    HW266539   3.640   0.176   5.346  0.9273  0.4913  0.1800
20875SOL     OW66540   8.685   7.906   0.843 -0.0682  0.0373  0.4760
20875SOL    HW166541   8.607   7.889   0.896 -0.7079 -0.5711 -0.6422
20875SOL    HW266542   8.700   7.825   0.795  0.1957  0.7414 -0.6735
20876SOL     OW66543   9.863   1.293   3.288 -0.5402 -0.4567  0.0869
20876SOL    HW166544   9.778   1.337   3.280 -0.5629 -0.6331 -0.7065
20876SOL    HW266545   9.897   1.321   3.374 -1.4135 -0.4154  0.4297
20877SOL     OW66546   3.347   8.264   6.915  0.5462 -0.0833  0.3123
20877SOL    HW166547   3.397   8.330   6.962  0.1431  1.2774 -1.0928
20877SOL    HW266548   3.388   8.181   6.938  1.3423  0.6868  1.7728
20878SOL     OW66549   5.262   3.580   9.966  0.0178  0.3984 -0.1607
20878SOL    HW166550   5.191   3.546   9.913  0.9256 -1.5312 -0.2165
20878SOL    HW266551   5.230   3.575  10.056  0.9001 -2.9981  0.1075
20879SOL     OW66552   4.073   4.590   5.986  0.1484  0.0217 -0.3170
20879SOL    HW166553   3.984   4.558   6.000  0.0311  0.4538 -0.0732
20879SOL    HW266554   4.128   4.532   6.039 -0.0043 -0.1412 -0.3371
20880SOL     OW66555   4.280   2.908   6.404  0.5018 -0.2103 -0.4804
20880SOL    HW166556   4.273   2.829   6.458 -1.7106  0.0611 -0.2853
20880SOL    HW266557   4.261   2.878   6.315  1.6164 -0.2092 -0.7335
20881SOL     OW66558   9.134   7.522   5.036 -0.5495  0.3847 -0.0843
20881SOL    HW166559   9.172   7.570   4.962  2.0115 -1.6982 -0.2428
20881SOL    HW266560   9.198   7.530   5.106  0.0514 -2.7107 -0.1310
20882SOL     OW66561   9.181   4.010  10.030  0.6798  0.0303  0.1495
20882SOL    HW166562   9.129   3.930  10.029  0.7284 -0.0115  0.5576
20882SOL    HW266563   9.264   3.985  10.071  1.1180  0.0458 -0.7039
20883SOL     OW66564   0.047   8.092   2.945 -0.2370  0.1850 -0.4075
20883SOL    HW166565   0.068   8.176   2.984 -1.0677 -0.1475  0.7927
20883SOL    HW266566   0.118   8.034   2.973 -0.6937  0.0128  0.4286
20884SOL     OW66567   1.781   8.957   5.125 -0.0665  0.0771  0.4969
20884SOL    HW166568   1.848   9.013   5.086 -0.5617 -0.0256 -0.5330
20884SOL    HW266569   1.715   9.017   5.159 -1.5758  0.2033 -2.3202
20885SOL     OW66570   4.710   9.695   1.807  0.0429 -0.3257  0.0563
20885SOL    HW166571   4.714   9.688   1.711  1.9044 -1.7100  0.1893
20885SOL    HW266572   4.617   9.683   1.828 -0.2218 -1.2832 -1.4972
20886SOL     OW66573   4.807   4.762   4.859  0.0989  0.3475  0.0271
20886SOL    HW166574   4.835   4.837   4.912 -0.3238  1.9762 -1.9202
20886SOL    HW266575   4.733   4.725   4.908  1.3374  0.1380  1.8428
20887SOL     OW66576   5.102   4.935   8.352  0.0833 -0.1541  0.0964
20887SOL    HW166577   5.159   4.892   8.289 -0.6828 -0.3275 -0.4881
20887SOL    HW266578   5.147   5.017   8.373 -1.2716  1.6416 -3.3613
20888SOL     OW66579   3.740   5.796   9.684 -0.0151 -0.2054 -0.0172
20888SOL    HW166580   3.655   5.752   9.680 -0.4432  0.6735 -1.2173
20888SOL    HW266581   3.786   5.767   9.605 -1.8501  4.3430 -3.2142
20889SOL     OW66582   8.507   8.213   6.385 -0.4300  0.4307  0.3523
20889SOL    HW166583   8.503   8.134   6.439  0.4620  0.0367 -0.1372
20889SOL    HW266584   8.588   8.257   6.413  0.5316 -0.2311 -1.2273
20890SOL     OW66585   2.680   6.730   6.408 -0.6412 -0.5409  0.2165
20890SOL    HW166586   2.768   6.769   6.414 -0.7849 -0.4248  1.8884
20890SOL    HW266587   2.647   6.731   6.498 -1.5150 -2.5599 -0.0367
20891SOL     OW66588   5.801   8.588   4.271 -0.3078 -0.2489  0.1313
20891SOL    HW166589   5.839   8.512   4.228 -0.6366  0.0996 -0.8090
20891SOL    HW266590   5.760   8.638   4.200  0.4646  1.1441  0.6085
20892SOL     OW66591   3.700   1.221   8.676 -0.8245  0.0501  0.0436
20892SOL    HW166592   3.674   1.235   8.767 -0.0864  0.4097  0.2109
20892SOL    HW266593   3.762   1.292   8.658 -0.7333 -0.1974 -0.6452
20893SOL     OW66594   4.425   6.643   9.278  0.0183  0.8177  0.0981
20893SOL    HW166595   4.495   6.681   9.226 -0.9101  0.7892 -1.2473
20893SOL    HW266596   4.462   6.563   9.314  0.7985  1.0096 -0.2679
20894SOL     OW66597   5.173   4.489   9.664  0.0272  0.4078  0.3574
20894SOL    HW166598   5.240   4.536   9.614 -1.2434  0.4947 -1.3288
20894SOL    HW266599   5.222   4.443   9.732  1.9296 -0.3672 -1.4493
20895SOL     OW66600   1.948   2.558   8.511  0.0279  0.2250  0.3834
20895SOL    HW166601   1.955   2.553   8.416  0.5204 -1.5534  0.4787
20895SOL    HW266602   1.858   2.585   8.527 -0.0037  0.7340 -0.5840
20896SOL     OW66603   6.797   7.183   2.204  0.1613  0.0717 -0.0934
20896SOL    HW166604   6.709   7.185   2.243  0.4303  0.8280  0.4939
20896SOL    HW266605   6.854   7.213   2.274  0.8644 -0.1621 -0.5618
20897SOL     OW66606   0.441  10.204   4.522  0.3754 -0.5665 -0.1521
20897SOL    HW166607   0.499  10.184   4.448  1.5941 -1.0243  0.9026
20897SOL    HW266608   0.482  10.161   4.597 -0.3825  0.6196  0.9642
20898SOL     OW66609   4.435   2.791   8.083 -1.0521 -0.2357  0.1825
20898SOL    HW166610   4.361   2.831   8.037  0.1267  1.8560 -0.0409
20898SOL    HW266611   4.424   2.819   8.174  0.2701  1.5207 -0.1354
20899SOL     OW66612   7.369   9.576   2.205 -0.6304  0.2076  0.2222
20899SOL    HW166613   7.343   9.574   2.113  1.2369 -1.5036 -0.3414
20899SOL    HW266614   7.456   9.615   2.204 -0.1412 -0.8114  1.1066
20900SOL     OW66615   3.523   1.545   4.326 -0.0916  0.2199 -0.6090
20900SOL    HW166616   3.575   1.464   4.320 -2.9557 -1.9193  0.9700
20900SOL    HW266617   3.502   1.554   4.419 -0.9601  2.0730 -0.9337
20901SOL     OW66618   7.571   7.370   6.814 -0.1748 -1.2195 -0.5549
20901SOL    HW166619   7.525   7.432   6.757 -0.7900 -1.7271 -0.6278
20901SOL    HW266620   7.650   7.346   6.766  0.1319 -0.3999 -0.4713
20902SOL     OW66621   7.267   8.956   5.279 -0.1385  0.4441 -0.0458
20902SOL    HW166622   7.207   8.922   5.213  0.7908 -1.9792  0.2659
20902SOL    HW266623   7.235   8.920   5.361  0.6177  0.7178  0.3786
20903SOL     OW66624   3.688   8.121   1.049  0.7517 -0.4743 -0.4110
20903SOL    HW166625   3.602   8.161   1.065  1.4995  1.7060 -1.3412
20903SOL    HW266626   3.671   8.027   1.049 -2.0521 -0.1279 -2.4435
20904SOL     OW66627   6.785   1.784   5.244  0.4437 -0.0017  0.0303
20904SOL    HW166628   6.856   1.770   5.181  0.1085  0.2267 -0.4033
20904SOL    HW266629   6.824   1.838   5.313  0.8816 -0.4681  0.1528
20905SOL     OW66630   4.331   4.450   0.240  0.5772 -0.3862  0.4599
20905SOL    HW166631   4.288   4.380   0.291 -0.3354 -0.3336 -0.2094
20905SOL    HW266632   4.412   4.468   0.288  1.5154 -2.8100 -0.0516
20906SOL     OW66633   8.503   1.383   3.246 -0.4605  0.2140  0.3337
20906SOL    HW166634   8.505   1.392   3.341 -2.2928  0.7343  0.3530
20906SOL    HW266635   8.512   1.472   3.213 -1.6309  0.2489  0.0783
20907SOL     OW66636   7.204   3.527   7.441 -0.9970  0.1795 -0.2463
20907SOL    HW166637   7.110   3.519   7.455 -1.1280  2.0413  0.2907
20907SOL    HW266638   7.222   3.621   7.452  1.1034 -0.2858  0.9429
20908SOL     OW66639   7.403   3.707   0.687  0.0304 -0.2104 -0.3213
20908SOL    HW166640   7.439   3.721   0.599 -2.2402 -0.2240 -1.3122
20908SOL    HW266641   7.349   3.629   0.679 -1.3939  0.6256  0.6765
20909SOL     OW66642   6.240   2.730   8.931  0.2127  0.4097  0.7901
20909SOL    HW166643   6.324   2.759   8.964 -0.2407  1.4808  1.0360
20909SOL    HW266644   6.233   2.769   8.844  0.2906 -0.3053  0.4509
20910SOL     OW66645   6.838   1.423   5.175  0.4249 -0.2890  0.2762
20910SOL    HW166646   6.791   1.384   5.101 -0.6756 -1.0088  1.3261
20910SOL    HW266647   6.931   1.413   5.152  0.1875 -2.7590  0.0636
20911SOL     OW66648   9.470   8.918   1.339  0.4232 -0.3118 -0.0119
20911SOL    HW166649   9.506   8.956   1.259  0.1129  1.0732  0.4766
20911SOL    HW266650   9.376   8.912   1.322  0.4039 -0.3551  0.1089
20912SOL     OW66651   0.689   1.580   0.665 -0.2055  0.2180  0.0556
20912SOL    HW166652   0.622   1.641   0.634 -0.9765 -0.6809 -0.1219
20912SOL    HW266653   0.669   1.567   0.757 -1.0811 -1.0066 -0.2785
20913SOL     OW66654   3.199   5.788   5.425 -0.2701  0.7598  0.0508
20913SOL    HW166655   3.226   5.855   5.488  1.7769  0.5696 -0.5612
20913SOL    HW266656   3.131   5.831   5.372 -0.2932  1.7179  0.8269
20914SOL     OW66657   3.019   4.092   0.379  0.0323  0.1182  0.8035
20914SOL    HW166658   3.033   4.151   0.453 -1.5291  0.4749  0.8260
20914SOL    HW266659   2.950   4.133   0.327  1.1816 -0.0662 -0.9477
20915SOL     OW66660   4.749   4.656   4.594  0.5848 -0.3717 -0.1035
20915SOL    HW166661   4.790   4.682   4.676  0.4014  0.1903 -0.1878
20915SOL    HW266662   4.758   4.561   4.592  0.7721 -0.3682  0.4690
20916SOL     OW66663   7.681   4.249  10.036  0.0695  0.3283 -0.1592
20916SOL    HW166664   7.756   4.256   9.976 -0.1647  0.6716 -0.4204
20916SOL    HW266665   7.714   4.199  10.110  0.9066  1.4447  0.2627
20917SOL     OW66666   9.510   6.916   4.157 -0.1596  0.6724 -0.1426
20917SOL    HW166667   9.444   6.854   4.189  0.3668  0.3732  0.3828
20917SOL    HW266668   9.578   6.916   4.225  1.7036 -1.0721 -1.8876
20918SOL     OW66669   4.621   8.871   2.199  0.2951 -0.1575  0.4418
20918SOL    HW166670   4.711   8.897   2.218  0.4221 -0.9872  1.0203
20918SOL    HW266671   4.574   8.954   2.188  1.2206  0.2859 -0.3442
20919SOL     OW66672   2.472   1.427   4.876 -0.1351  0.7048 -0.7413
20919SOL    HW166673   2.407   1.484   4.835 -1.2838  0.4122  0.5623
20919SOL    HW266674   2.447   1.338   4.848 -0.9626  0.4981  0.5572
20920SOL     OW66675   3.279  10.084   4.844 -0.0557  0.4641  0.0544
20920SOL    HW166676   3.298  10.098   4.752  0.1850 -1.6038 -0.2510
20920SOL    HW266677   3.324  10.155   4.889  0.0160  1.3673 -1.3822
20921SOL     OW66678   6.071   7.971   5.012  0.0022  0.5072  0.0431
20921SOL    HW166679   6.044   7.880   5.026  0.4383  0.5221  1.0740
20921SOL    HW266680   6.018   8.000   4.938  0.6642 -0.9318 -1.0472
20922SOL     OW66681   5.959   8.781   1.560 -0.5298 -0.5743 -0.1386
20922SOL    HW166682   5.865   8.787   1.578 -0.3895  0.4461  0.3257
20922SOL    HW266683   5.986   8.872   1.545  0.2298 -0.9378 -1.1012
20923SOL     OW66684   2.910   4.288   0.798 -0.5445 -0.0258  0.4613
20923SOL    HW166685   2.923   4.198   0.827  1.7188 -0.4613 -1.5973
20923SOL    HW266686   2.998   4.321   0.781 -1.3614  0.4437 -4.5795
20924SOL     OW66687   5.653   8.529   5.222 -0.0021 -0.1202 -0.0212
20924SOL    HW166688   5.606   8.498   5.145  0.0824  0.6940 -0.4072
20924SOL    HW266689   5.595   8.594   5.261  0.1748 -0.1675  0.3216
20925SOL     OW66690   7.648   4.258   8.186  0.7208 -0.4090  0.3824
20925SOL    HW166691   7.602   4.306   8.255 -0.9102 -1.1472 -0.1483
20925SOL    HW266692   7.585   4.251   8.114  2.1591 -0.1936 -0.9802
20926SOL     OW66693   0.004   9.991   0.089 -0.4681  0.1635 -0.3283
20926SOL    HW166694   0.027   9.914   0.037  0.7958 -0.0835  0.5453
20926SOL    HW266695  -0.011  10.060   0.024  3.2789  0.4884 -1.1070
20927SOL     OW66696   1.330   6.357   5.480 -0.6828 -0.4619 -0.2104
20927SOL    HW166697   1.354   6.446   5.506 -0.1029 -1.3304  2.5241
20927SOL    HW266698   1.386   6.338   5.405 -0.7499  1.4177 -0.7914
20928SOL     OW66699   5.867   3.574   3.432  0.4157  0.2680 -0.6729
20928SOL    HW166700   5.878   3.589   3.338  1.6383 -2.1899 -1.0130
20928SOL    HW266701   5.848   3.481   3.439 -2.3600  0.8674  1.3939
20929SOL     OW66702   2.392   4.355   4.052  0.1407 -0.0703  0.2038
20929SOL    HW166703   2.483   4.377   4.073 -0.2969  1.7947  0.3801
20929SOL    HW266704   2.383   4.374   3.959 -0.2090  0.3489  0.3183
20930SOL     OW66705   4.584   2.174   2.783 -0.6761 -0.6348  0.2064
20930SOL    HW166706   4.582   2.238   2.712 -0.9901 -1.1024 -0.2130
20930SOL    HW266707   4.494   2.171   2.814 -0.9560 -1.8376 -0.6600
20931SOL     OW66708   3.801   4.318  10.203  0.2259  0.5123 -0.5732
20931SOL    HW166709   3.885   4.305  10.159 -0.7693 -1.0254 -2.1329
20931SOL    HW266710   3.766   4.230  10.215 -1.3894  1.1346 -0.4067
20932SOL     OW66711   8.927   0.368   0.479 -0.3593  0.1437 -0.1505
20932SOL    HW166712   9.021   0.353   0.467  0.0468  2.0284  0.3311
20932SOL    HW266713   8.908   0.332   0.566 -0.2710 -0.8891 -0.5394
20933SOL     OW66714   4.194   2.727   2.465 -0.4296  0.1682 -0.7196
20933SOL    HW166715   4.102   2.754   2.469 -0.0339  1.6573 -1.0122
20933SOL    HW266716   4.196   2.642   2.508 -1.5972  1.0643  1.2393
20934SOL     OW66717   7.242   9.303   6.948  0.1093 -0.2642  0.2467
20934SOL    HW166718   7.264   9.382   6.997  0.6924 -0.0993 -0.2832
20934SOL    HW266719   7.150   9.314   6.925  0.3132  0.4825 -0.2324
20935SOL     OW66720   4.689   1.535   1.468  0.5235 -0.0444  0.2942
20935SOL    HW166721   4.672   1.534   1.563  1.1133  2.0276  0.4755
20935SOL    HW266722   4.664   1.448   1.438  0.6366 -0.8701  2.4180
20936SOL     OW66723   0.584   1.383   0.383 -0.0731  0.7378  0.1082
20936SOL    HW166724   0.661   1.336   0.350 -0.5653  0.9800 -1.4540
20936SOL    HW266725   0.616   1.472   0.396  0.3556  0.4404  1.1917
20937SOL     OW66726   8.614   2.549   7.478  0.2730  0.4088 -0.2880
20937SOL    HW166727   8.621   2.642   7.499  1.6505  0.4890 -1.0116
20937SOL    HW266728   8.670   2.537   7.402 -0.3171 -0.9224 -0.5426
20938SOL     OW66729   6.643   5.592   0.858 -0.2345  0.1668  0.4736
20938SOL    HW166730   6.602   5.508   0.879  1.2670 -0.2322  2.0163
20938SOL    HW266731   6.620   5.650   0.930  0.3204  0.4994  0.3930
20939SOL     OW66732   2.593   8.485   2.240  0.0596  0.2085  0.5981
20939SOL    HW166733   2.520   8.543   2.218 -0.3832 -0.2470  0.8380
20939SOL    HW266734   2.630   8.459   2.156 -0.3152  0.1217  0.4568
20940SOL     OW66735   5.584   7.723   7.657 -0.0030 -0.3221  0.6098
20940SOL    HW166736   5.598   7.659   7.727 -1.1794 -1.3103 -0.0116
20940SOL    HW266737   5.567   7.669   7.579  1.3376  0.7518 -0.4629
20941SOL     OW66738   0.392   8.306   1.168 -0.3414 -0.5298  0.3656
20941SOL    HW166739   0.466   8.249   1.147  0.2366  0.3636 -0.1387
20941SOL    HW266740   0.400   8.379   1.106  0.4248  1.3762  2.5327
20942SOL     OW66741   2.559   4.444   9.437  0.0438  0.1826 -0.2187
20942SOL    HW166742   2.489   4.503   9.463 -1.5135 -0.6975 -2.0770
20942SOL    HW266743   2.546   4.366   9.490 -0.9525 -0.2906 -1.1172
20943SOL     OW66744   8.447   2.532   1.264  0.8356 -0.4382  0.4169
20943SOL    HW166745   8.531   2.578   1.268  0.0950  0.8496  1.5740
20943SOL    HW266746   8.407   2.546   1.349 -0.0818 -2.0208  0.2941
20944SOL     OW66747   2.699   8.415   0.142 -0.0755  0.6237 -0.9602
20944SOL    HW166748   2.746   8.498   0.139 -1.9006  1.7959  0.4971
20944SOL    HW266749   2.607   8.440   0.152 -0.8173 -1.5806 -1.6511
20945SOL     OW66750   4.972   2.021   7.826 -0.3189 -0.2584 -0.2624
20945SOL    HW166751   5.044   1.996   7.884 -0.2648  0.5662  0.0284
20945SOL    HW266752   4.903   1.959   7.847 -0.0436 -0.4273  0.1643
20946SOL     OW66753  10.135   6.856   0.548 -0.5631 -0.5421 -0.3848
20946SOL    HW166754  10.127   6.891   0.637  1.6121 -0.5013 -0.1407
20946SOL    HW266755  10.128   6.761   0.558  0.9227 -0.6314  0.0563
20947SOL     OW66756   5.178   3.685   0.045 -0.5237  0.4581 -0.7927
20947SOL    HW166757   5.232   3.759   0.072  0.5426 -0.1689 -1.1484
20947SOL    HW266758   5.201   3.615   0.106 -1.0136  0.2136 -0.8877
20948SOL     OW66759   2.935   9.107   9.106 -0.2132  0.4640 -0.6982
20948SOL    HW166760   2.992   9.184   9.107  0.2555  0.1408  1.7757
20948SOL    HW266761   2.895   9.109   9.019  1.5854  2.1476 -1.5644
20949SOL     OW66762   7.084   6.027   1.047 -0.8799  0.0799 -0.4910
20949SOL    HW166763   7.023   6.064   1.110 -0.0055  0.8910 -0.0992
20949SOL    HW266764   7.127   6.102   1.007  0.7047 -0.4516  0.1050
20950SOL     OW66765   8.177   3.203   2.395 -0.4222  0.5094 -0.1770
20950SOL    HW166766   8.171   3.141   2.469 -1.6433  0.2577 -0.4627
20950SOL    HW266767   8.091   3.245   2.393 -0.8865 -0.4015 -2.2323
20951SOL     OW66768   0.968  10.051   3.702 -1.0189  0.1323 -0.1401
20951SOL    HW166769   0.924  10.110   3.640 -0.2408 -0.7705 -1.6152
20951SOL    HW266770   0.925   9.967   3.689 -2.6508  0.4502  2.5059
20952SOL     OW66771   5.472   8.884   2.808 -0.7313 -0.3128 -0.1299
20952SOL    HW166772   5.514   8.921   2.731 -3.2022 -0.7240 -1.7670
20952SOL    HW266773   5.432   8.960   2.852  0.2435 -0.1539  0.5357
20953SOL     OW66774   4.986   3.638   2.521  0.1466 -0.2792 -0.8759
20953SOL    HW166775   4.999   3.677   2.435 -0.6816 -0.1504 -0.9555
20953SOL    HW266776   5.068   3.594   2.541  1.5054  2.3399 -0.3223
20954SOL     OW66777   7.926   1.440   9.205 -0.5656 -0.3742 -0.2691
20954SOL    HW166778   7.987   1.367   9.194  2.6467  1.8881  0.9502
20954SOL    HW266779   7.925   1.484   9.121  0.4573  0.2106  0.0058
20955SOL     OW66780   2.149   4.836   2.811  0.0912 -0.5236 -0.1515
20955SOL    HW166781   2.223   4.798   2.764  0.7743  0.3155  0.2307
20955SOL    HW266782   2.074   4.781   2.786  0.9549 -1.8136  0.0034
20956SOL     OW66783   6.962   7.650   4.238 -0.2574  0.2570 -0.2987
20956SOL    HW166784   6.938   7.674   4.149  0.4991  1.8880 -0.1039
20956SOL    HW266785   7.033   7.711   4.261  0.0282 -0.5765  1.1712
20957SOL     OW66786   5.432   3.056   2.263 -0.2491  0.0576  0.1206
20957SOL    HW166787   5.422   3.093   2.351 -1.4041 -0.2831  0.1486
20957SOL    HW266788   5.467   2.969   2.277  0.2613  0.2706  0.1920
20958SOL     OW66789   9.260   0.676   0.947 -0.2842 -0.3620 -0.2425
20958SOL    HW166790   9.236   0.708   1.034  1.8122  1.0402 -0.1266
20958SOL    HW266791   9.352   0.652   0.954 -0.3561 -1.2178 -1.8197
20959SOL     OW66792   7.087   7.892   4.380  0.1786 -0.0535  0.2732
20959SOL    HW166793   7.134   7.937   4.310 -1.8599 -0.2207 -1.2896
20959SOL    HW266794   7.050   7.962   4.434  0.1219  0.1063  0.0262
20960SOL     OW66795   4.001   6.331   9.677  0.5402  0.2676 -0.2054
20960SOL    HW166796   4.087   6.372   9.687 -0.6538  2.7325  0.7585
20960SOL    HW266797   3.981   6.296   9.764  0.2126  0.4319 -0.2138
20961SOL     OW66798   2.527   6.612   0.397  0.1251  0.2487 -0.7525
20961SOL    HW166799   2.529   6.704   0.370 -1.7306  0.4717 -0.2461
20961SOL    HW266800   2.488   6.613   0.484 -0.1521 -1.0573 -0.8414
20962SOL     OW66801   0.257   7.899   7.226  0.0259  0.0601 -0.5935
20962SOL    HW166802   0.162   7.893   7.233  0.0792 -0.2157 -0.0283
20962SOL    HW266803   0.278   7.989   7.249 -0.0806  0.0469 -0.4429
20963SOL     OW66804   3.074   6.406   9.734 -0.0415 -0.0901  0.1788
20963SOL    HW166805   3.125   6.333   9.770  2.2142  0.9760 -0.6403
20963SOL    HW266806   3.046   6.456   9.810  0.2591 -0.6179  0.6456
20964SOL     OW66807   1.306   1.829   8.381  0.3778 -0.4173  0.7516
20964SOL    HW166808   1.228   1.800   8.333  0.3431  0.3517  0.3330
20964SOL    HW266809   1.379   1.782   8.339  0.4233  0.6817 -0.4828
20965SOL     OW66810  10.124   3.056   0.062 -0.1218  0.0946  0.0983
20965SOL    HW166811  10.142   3.026   0.151 -1.3147 -0.2441  0.2396
20965SOL    HW266812  10.041   3.103   0.069 -0.3173 -0.0851 -0.8679
20966SOL     OW66813   4.453   9.588   4.286 -0.0187  0.1076 -0.5365
20966SOL    HW166814   4.512   9.512   4.288 -0.5558 -0.3169 -0.5194
20966SOL    HW266815   4.485   9.642   4.214  1.0878  0.4602  0.1828
20967SOL     OW66816   1.765   8.943   2.818 -0.4246 -0.3764 -0.3111
20967SOL    HW166817   1.827   8.976   2.885 -0.5032 -1.4880  0.3266
20967SOL    HW266818   1.694   9.007   2.818 -0.5593 -0.5012  0.8918
20968SOL     OW66819   4.288   8.147   5.518  0.8353 -0.0902  0.4756
20968SOL    HW166820   4.272   8.061   5.556  2.9670 -0.4006  0.7680
20968SOL    HW266821   4.231   8.150   5.441  0.2930 -1.5067  0.7845
20969SOL     OW66822   2.601   2.717   8.926  0.4572  0.1951  0.2491
20969SOL    HW166823   2.680   2.741   8.878  0.5206 -0.9196 -0.2281
20969SOL    HW266824   2.631   2.650   8.989 -0.2748 -1.0436 -0.6713
20970SOL     OW66825   5.149   0.481   8.695 -0.8401  0.1548  0.3105
20970SOL    HW166826   5.184   0.398   8.727 -0.6320  0.4676  0.9174
20970SOL    HW266827   5.057   0.462   8.675 -0.2823 -0.7579 -1.6354
20971SOL     OW66828   5.673   5.995   5.862 -0.0247  0.1565 -0.0334
20971SOL    HW166829   5.668   5.947   5.779 -0.2917 -0.8175  0.5301
20971SOL    HW266830   5.602   6.059   5.857 -2.1029 -1.9292  0.6677
20972SOL     OW66831   6.486   4.881   2.289 -0.1121 -1.0810 -0.0202
20972SOL    HW166832   6.543   4.809   2.261 -0.0667 -1.4779  1.0705
20972SOL    HW266833   6.526   4.913   2.369 -0.0202  0.3157 -0.6042
20973SOL     OW66834   2.672   8.594   9.050  0.2524  0.5782 -0.3385
20973SOL    HW166835   2.663   8.673   8.996 -1.2670  0.0742 -0.8779
20973SOL    HW266836   2.639   8.620   9.136  0.2844  0.6858 -0.3575
20974SOL     OW66837   8.796   1.728   8.586  0.6864  0.0991 -0.0100
20974SOL    HW166838   8.835   1.788   8.649 -2.0674 -0.0413  1.9936
20974SOL    HW266839   8.766   1.654   8.639 -1.0878 -0.3644 -1.5771
20975SOL     OW66840   5.404   9.049   5.587  0.0770  0.3103 -0.1086
20975SOL    HW166841   5.486   9.023   5.545  0.8720  1.4086  0.7101
20975SOL    HW266842   5.341   9.056   5.515  0.5748 -0.9507 -0.7010
20976SOL     OW66843   6.763   0.179   4.778 -0.0087  0.0397  0.3128
20976SOL    HW166844   6.805   0.147   4.698 -0.1977 -1.0494  0.6298
20976SOL    HW266845   6.792   0.118   4.846  0.8246  1.4376  1.2634
20977SOL     OW66846   6.822   9.978   2.009  0.0902  0.2320  0.4929
20977SOL    HW166847   6.870   9.938   1.936  0.6503  0.5370  0.6945
20977SOL    HW266848   6.889  10.013   2.067 -0.3492 -0.1373  1.2438
20978SOL     OW66849   3.955   1.072   3.358 -0.0879  0.0423  0.0925
20978SOL    HW166850   3.876   1.021   3.377  0.9867 -1.5465  0.5427
20978SOL    HW266851   4.017   1.047   3.426  1.3188  0.0480 -1.1273
20979SOL     OW66852   5.755   0.295   1.465  0.2651  0.4579  0.0528
20979SOL    HW166853   5.731   0.344   1.544 -1.2357 -0.2219  0.0662
20979SOL    HW266854   5.807   0.357   1.413  0.7716  1.1096  1.2970
20980SOL     OW66855   2.517   3.927   4.473 -0.3377  0.1398  0.1602
20980SOL    HW166856   2.586   3.866   4.500 -0.3210 -0.6353 -1.4911
20980SOL    HW266857   2.435   3.879   4.491 -0.4096  0.4788  0.7708
20981SOL     OW66858   6.437   7.694   1.132  0.1165 -0.2131  0.4035
20981SOL    HW166859   6.499   7.765   1.114 -0.5547  0.3102  0.0745
20981SOL    HW266860   6.362   7.738   1.173  0.7933 -1.1214  2.7688
20982SOL     OW66861   9.960   2.743   0.324  0.0390  0.2654 -0.2801
20982SOL    HW166862   9.943   2.649   0.323 -1.0863  0.4242  1.0291
20982SOL    HW266863   9.875   2.784   0.309  0.0957  1.0648  1.3118
20983SOL     OW66864   4.216   1.221   3.707 -0.2475  0.5570  0.2519
20983SOL    HW166865   4.176   1.286   3.649 -0.2815  1.5606  1.3504
20983SOL    HW266866   4.219   1.141   3.655  1.3431  1.8346 -1.7647
20984SOL     OW66867   4.584   5.796   0.425 -0.3568 -0.2788 -0.1801
20984SOL    HW166868   4.557   5.814   0.335 -1.2136  1.3603  0.3850
20984SOL    HW266869   4.595   5.882   0.465 -0.8642 -0.9761  1.5476
20985SOL     OW66870   7.289   9.953   7.223 -0.6019  0.2291 -0.1217
20985SOL    HW166871   7.228  10.012   7.267  2.0209  1.5264  2.0805
20985SOL    HW266872   7.323  10.004   7.149 -1.5417 -0.2025 -0.8704
20986SOL     OW66873   3.451   7.284   6.244 -0.4709 -0.4492 -0.5261
20986SOL    HW166874   3.457   7.336   6.324 -0.5337 -0.5657 -0.4471
20986SOL    HW266875   3.369   7.311   6.204  0.5734  1.2588 -1.6842
20987SOL     OW66876   3.395   2.727   7.852 -0.2497  0.4777 -0.2612
20987SOL    HW166877   3.482   2.745   7.814  0.1864 -0.3086  0.3537
20987SOL    HW266878   3.351   2.674   7.786  0.1263 -0.0148 -0.1176
20988SOL     OW66879   7.966   2.400   0.781  0.2805 -0.2067 -0.3808
20988SOL    HW166880   8.043   2.457   0.786 -0.5282  0.8983 -0.2489
20988SOL    HW266881   7.989   2.324   0.835  1.6638 -0.3785 -1.1589
20989SOL     OW66882   9.974   5.165   2.268  0.2614 -0.4792 -0.5769
20989SOL    HW166883   9.899   5.217   2.297 -0.9503 -2.9024  1.0129
20989SOL    HW266884   9.998   5.202   2.183 -2.3558  0.7790 -0.8618
20990SOL     OW66885   4.768   2.673   2.033 -0.5257 -0.1532  0.2395
20990SOL    HW166886   4.827   2.643   2.103  0.2019 -0.9528 -0.6798
20990SOL    HW266887   4.817   2.742   1.989  0.1343 -1.4138 -1.0762
20991SOL     OW66888   6.585   8.516   4.255  0.3689  0.0936 -0.0303
20991SOL    HW166889   6.662   8.459   4.252 -1.1807 -2.1099 -0.7040
20991SOL    HW266890   6.563   8.531   4.163 -1.1147 -1.0060  0.0976
20992SOL     OW66891   7.101   8.795   5.454  0.0945  0.2820  0.5588
20992SOL    HW166892   7.103   8.709   5.411 -0.0351  0.0215  1.0654
20992SOL    HW266893   7.022   8.793   5.509 -0.8454  1.3600 -0.6960
20993SOL     OW66894   4.008   2.371   8.220 -0.4103 -0.2570 -0.2085
20993SOL    HW166895   4.010   2.275   8.216 -0.0786 -0.3328  1.2577
20993SOL    HW266896   4.072   2.399   8.154 -1.2743 -0.9991 -1.3973
20994SOL     OW66897   6.719   1.665   9.551  0.0163 -0.5848 -0.3350
20994SOL    HW166898   6.756   1.729   9.612 -2.6198  0.7920 -0.0094
20994SOL    HW266899   6.766   1.680   9.469 -0.0586  1.3170 -0.0668
20995SOL     OW66900   1.720   4.015   9.880 -0.2993 -0.4500  0.1939
20995SOL    HW166901   1.708   3.978   9.967 -1.5519 -0.1170  0.1881
20995SOL    HW266902   1.665   4.093   9.879  0.9429  0.4529 -0.3727
20996SOL     OW66903   1.069   7.052   1.809  0.4328  0.3354  0.2908
20996SOL    HW166904   1.071   6.984   1.742  0.0812 -0.4854  1.0852
20996SOL    HW266905   1.007   7.117   1.775 -0.4138 -0.4899  0.1994
20997SOL     OW66906   5.334   6.592   5.451  0.8165 -0.4463  0.0596
20997SOL    HW166907   5.267   6.661   5.445  0.4872 -0.5869  1.7127
20997SOL    HW266908   5.320   6.540   5.372 -0.4925  0.0202 -0.0553
20998SOL     OW66909   9.731   7.399   0.907 -0.4241  0.3277 -0.4333
20998SOL    HW166910   9.820   7.365   0.905 -0.2474  0.4190  2.2709
20998SOL    HW266911   9.741   7.494   0.899  0.1380  0.7012  3.0714
20999SOL     OW66912   3.214   8.308   6.574  0.0056  0.0838 -0.4497
20999SOL    HW166913   3.280   8.254   6.530 -0.1845  0.2023 -0.8844
20999SOL    HW266914   3.235   8.300   6.667  0.2937 -0.3272 -0.5455
21000SOL     OW66915   0.509   3.111   4.425 -0.2225  0.0904  0.0813
21000SOL    HW166916   0.562   3.157   4.361  0.8286 -1.4060 -0.1717
21000SOL    HW266917   0.572   3.081   4.491 -0.7770 -1.3806 -0.0193
21001SOL     OW66918   5.497   1.741   8.765 -0.1508  0.3877  0.5052
21001SOL    HW166919   5.482   1.667   8.706 -1.0326  0.2620  0.8665
21001SOL    HW266920   5.411   1.762   8.800 -0.0252  2.0068 -0.0608
21002SOL     OW66921   6.494   6.905   6.738 -0.4293 -0.1309 -0.6161
21002SOL    HW166922   6.541   6.988   6.750 -0.6277  0.1849 -1.8713
21002SOL    HW266923   6.535   6.865   6.661 -0.9365 -0.7739 -0.5572
21003SOL     OW66924   5.381   9.280   8.203  0.0536  0.0030  0.6212
21003SOL    HW166925   5.422   9.366   8.207  0.3843 -0.1040 -0.2437
21003SOL    HW266926   5.309   9.290   8.141  1.7891 -0.9748 -1.7333
21004SOL     OW66927   9.362   1.467   6.306  0.6426  0.0400 -0.5209
21004SOL    HW166928   9.272   1.441   6.286  0.6063 -0.2149 -0.0430
21004SOL    HW266929   9.403   1.388   6.342  0.3707  0.7384  1.4572
21005SOL     OW66930   1.685   1.504   6.924 -0.0119 -0.2017  0.0729
21005SOL    HW166931   1.618   1.440   6.950  0.7907 -1.1511 -0.1230
21005SOL    HW266932   1.636   1.584   6.907 -0.8656 -0.2542  2.0027
21006SOL     OW66933   2.484   9.364   3.728 -0.4992 -0.5320  0.0104
21006SOL    HW166934   2.544   9.314   3.674  1.0271  2.7664 -1.6235
21006SOL    HW266935   2.500   9.334   3.817  0.1598 -2.9614 -0.8678
21007SOL     OW66936   1.716   3.938   5.220 -0.3436  0.3051 -0.0742
21007SOL    HW166937   1.666   3.859   5.243  1.4994 -1.0390 -0.4565
21007SOL    HW266938   1.688   3.959   5.132  0.4065 -1.0207 -0.6651
21008SOL     OW66939   0.388   4.372   0.841  0.4697  0.3407  0.5549
21008SOL    HW166940   0.459   4.373   0.777  0.2270  0.0384  0.2784
21008SOL    HW266941   0.405   4.295   0.895  0.5683  0.4895  0.7387
21009SOL     OW66942   4.185   0.867   5.832  0.2125 -0.7507  0.3025
21009SOL    HW166943   4.266   0.885   5.880  0.2457 -0.8189  0.2730
21009SOL    HW266944   4.189   0.773   5.813  1.6898 -0.2306 -2.4962
21010SOL     OW66945   6.221   4.816   7.583  0.1853  0.1564 -0.0738
21010SOL    HW166946   6.150   4.878   7.597  0.1394 -0.2313  1.5949
21010SOL    HW266947   6.300   4.870   7.580  0.0654  0.3840  0.5993
21011SOL     OW66948   6.116   9.907   8.703 -0.5610  0.4440 -0.5799
21011SOL    HW166949   6.200   9.871   8.674 -0.6615 -0.8225  0.5554
21011SOL    HW266950   6.080   9.839   8.761 -2.4400  0.8887 -1.1491
21012SOL     OW66951   4.454   1.138   1.042  0.0545  0.0413  0.0851
21012SOL    HW166952   4.382   1.196   1.065  0.8647  0.4846  1.6870
21012SOL    HW266953   4.485   1.104   1.126 -0.0371 -2.3237 -0.7695
21013SOL     OW66954   3.243   5.201   9.742  0.3889  0.5424 -0.2452
21013SOL    HW166955   3.209   5.230   9.826 -1.6786 -0.8922 -0.5074
21013SOL    HW266956   3.310   5.137   9.764 -1.2122 -1.0042  0.3972
21014SOL     OW66957  10.190   9.703   0.160  0.4631 -0.0764 -0.2778
21014SOL    HW166958  10.216   9.630   0.216 -0.4943  0.4825  0.9363
21014SOL    HW266959  10.165   9.663   0.077 -0.6886 -1.1908  0.5883
21015SOL     OW66960   0.418   1.345   8.151 -0.2919 -0.1911  0.0374
21015SOL    HW166961   0.386   1.308   8.233  1.5456  0.6927  1.2243
21015SOL    HW266962   0.513   1.332   8.154 -0.2722 -1.6583 -2.7619
21016SOL     OW66963   7.611   1.011   7.928  0.0641  0.4567  0.1846
21016SOL    HW166964   7.669   1.021   7.853  0.9658 -1.5764  0.5508
21016SOL    HW266965   7.661   1.045   8.002 -0.1697  0.9058  0.1421
21017SOL     OW66966   3.225   9.674   7.178  0.0938 -0.4383  0.3951
21017SOL    HW166967   3.230   9.640   7.089 -0.8292 -1.7752  0.8248
21017SOL    HW266968   3.143   9.722   7.180 -0.0003 -0.6088  0.5916
21018SOL     OW66969   5.742   5.697   0.009  0.3102  0.1318  0.1242
21018SOL    HW166970   5.735   5.782  -0.035 -1.2861 -0.6359 -1.2337
21018SOL    HW266971   5.757   5.634  -0.062  1.9830 -0.7148  1.1496
21019SOL     OW66972   0.159   2.087   3.858  0.1554  0.0863 -0.3168
21019SOL    HW166973   0.105   2.060   3.784 -0.7536  0.8500  0.0436
21019SOL    HW266974   0.128   2.175   3.879  1.4090  0.4612  0.0419
21020SOL     OW66975   0.506   0.588   8.338  0.5049 -0.8435 -0.2699
21020SOL    HW166976   0.561   0.583   8.260 -1.3324 -0.6926 -1.6655
21020SOL    HW266977   0.422   0.550   8.310 -0.6163  0.3718  1.2542
21021SOL     OW66978   5.637   4.697   0.763  0.0631  0.3584  0.1543
21021SOL    HW166979   5.565   4.653   0.718  0.9479 -0.0389 -0.9115
21021SOL    HW266980   5.678   4.628   0.814  0.7024  0.2084 -0.5536
21022SOL     OW66981   2.312   4.345   3.335 -0.3049  0.2213 -0.5922
21022SOL    HW166982   2.315   4.428   3.288  2.8632  1.7117  1.8516
21022SOL    HW266983   2.242   4.355   3.399 -0.9457  0.3699 -1.3071
21023SOL     OW66984   7.225   8.827   7.423  0.9881  0.2432  0.0828
21023SOL    HW166985   7.303   8.822   7.369  1.6011 -1.0198  1.0312
21023SOL    HW266986   7.221   8.919   7.450  0.1432  1.1337 -2.7452
21024SOL     OW66987   4.243   1.424   0.792 -0.2518  0.1473  0.0219
21024SOL    HW166988   4.265   1.463   0.877  0.1897  1.0568 -0.4974
21024SOL    HW266989   4.221   1.499   0.736 -1.5475 -0.5097 -0.3939
21025SOL     OW66990   7.451   5.112   3.439  0.2842 -0.2253 -0.0173
21025SOL    HW166991   7.400   5.123   3.519 -1.1809  1.2266 -1.0735
21025SOL    HW266992   7.404   5.164   3.374  0.3240 -2.8268 -2.3089
21026SOL     OW66993   5.934   1.729   8.458  0.1923  0.5382  0.5868
21026SOL    HW166994   5.882   1.761   8.385  0.4015  0.1093  0.2477
21026SOL    HW266995   5.999   1.672   8.419 -0.2624 -0.4192  1.1940
21027SOL     OW66996   2.903   3.803   0.705 -0.0893 -0.2817 -0.2733
21027SOL    HW166997   2.847   3.766   0.637 -1.0403 -0.2449  0.4672
21027SOL    HW266998   2.860   3.780   0.787 -1.1129  2.9921  0.2341
21028SOL     OW66999   6.336  10.125   1.873 -0.1238 -0.2854 -0.4879
21028SOL    HW167000   6.349  10.032   1.887 -0.8521 -0.2590  0.4904
21028SOL    HW267001   6.253  10.145   1.918 -0.2145  0.7359 -1.0682
21029SOL     OW67002   5.582   2.294   9.040 -0.2715 -0.9683  0.6106
21029SOL    HW167003   5.510   2.236   9.015 -0.7833  0.6455 -2.0399
21029SOL    HW267004   5.660   2.254   9.000 -0.5184 -0.2592 -0.6388
21030SOL     OW67005   2.235   4.550   5.218 -0.9530  0.3312  0.1656
21030SOL    HW167006   2.176   4.491   5.170 -0.0473 -0.5645  0.1393
21030SOL    HW267007   2.176   4.605   5.270 -1.8364 -0.2352 -0.2118
21031SOL     OW67008   6.878   4.320   6.581 -0.2619 -0.4015 -0.1827
21031SOL    HW167009   6.911   4.373   6.508  0.6346  0.6111  0.9133
21031SOL    HW267010   6.815   4.376   6.625  0.6602 -0.2381  0.9650
21032SOL     OW67011   8.030   1.322   8.534 -0.1262 -0.2137  0.2627
21032SOL    HW167012   8.098   1.350   8.473 -0.0279  0.8824  0.8362
21032SOL    HW267013   8.077   1.278   8.604 -0.1040 -0.2695  0.2132
21033SOL     OW67014   3.863   7.004   6.451 -0.1906 -0.2305 -0.0621
21033SOL    HW167015   3.789   7.064   6.443 -1.3636 -1.8327 -2.6237
21033SOL    HW267016   3.827   6.925   6.490  0.9242  0.0315  1.5760
21034SOL     OW67017   4.959   8.661   6.639 -0.2798  0.0187  0.3331
21034SOL    HW167018   4.908   8.706   6.707  0.2183  0.9297  0.1264
21034SOL    HW267019   4.914   8.684   6.557  0.4562  0.8368  0.1487
21035SOL     OW67020   0.760   3.501   5.806  0.5618 -0.0128  0.3707
21035SOL    HW167021   0.775   3.409   5.785  2.0416  0.3824 -0.4818
21035SOL    HW267022   0.740   3.542   5.721  0.6406  0.5605  0.6217
21036SOL     OW67023   2.988   4.595   8.494  0.4236 -0.7155 -0.0770
21036SOL    HW167024   3.070   4.545   8.498 -0.4050 -2.4676 -2.2939
21036SOL    HW267025   2.928   4.537   8.446 -2.0860  0.5608  1.3278
21037SOL     OW67026   8.590   0.456   0.210 -0.0425 -0.6923 -0.3068
21037SOL    HW167027   8.662   0.397   0.186  0.7984  0.0941  0.1830
21037SOL    HW267028   8.621   0.542   0.182 -0.6480 -0.2935  0.2511
21038SOL     OW67029   5.859   1.131   9.131 -0.4448  0.5511 -0.2683
21038SOL    HW167030   5.900   1.047   9.110 -1.8783 -0.1753 -0.2727
21038SOL    HW267031   5.849   1.130   9.226  1.4425  1.6641  0.0018
21039SOL     OW67032   5.737   7.882   9.207 -0.6076  0.3108  0.4164
21039SOL    HW167033   5.667   7.944   9.188 -0.1712  0.7113  0.0879
21039SOL    HW267034   5.703   7.797   9.177 -1.3432  0.3220  1.1873
21040SOL     OW67035   2.414   1.273   9.277  0.5811 -0.1537 -0.1421
21040SOL    HW167036   2.499   1.316   9.287  1.4805 -1.7530 -0.6835
21040SOL    HW267037   2.394   1.240   9.364 -0.8009  2.4381  0.6494
21041SOL     OW67038   7.982   9.151   4.018 -0.6505  0.3848 -0.5083
21041SOL    HW167039   7.911   9.142   4.081  0.7235 -0.3921  0.9877
21041SOL    HW267040   7.943   9.123   3.935 -1.7998 -1.1250  0.4902
21042SOL     OW67041   7.928   7.995   6.478 -0.2598 -0.1889 -0.0156
21042SOL    HW167042   8.010   8.044   6.479 -0.6120  0.4422 -1.0737
21042SOL    HW267043   7.890   8.011   6.565  0.6193 -0.3086  0.4013
21043SOL     OW67044  10.152   3.956   3.119 -0.3103 -0.1220 -0.2147
21043SOL    HW167045  10.086   3.989   3.179 -0.4076  0.1085 -0.4423
21043SOL    HW267046  10.190   4.036   3.081  1.5579 -0.1381  1.4485
21044SOL     OW67047   4.705   3.037   3.578  0.4728 -1.2151 -0.3237
21044SOL    HW167048   4.679   3.051   3.487  2.4413  0.4808 -0.7058
21044SOL    HW267049   4.735   3.123   3.607  1.1224 -2.0198  1.5158
21045SOL     OW67050   0.968   7.302   7.314 -0.2456  0.7251  0.1555
21045SOL    HW167051   0.974   7.398   7.316 -0.0772  0.7087  0.5633
21045SOL    HW267052   1.001   7.278   7.227  0.0942  1.0119  0.2014
21046SOL     OW67053   5.810   7.640   9.737 -0.1178 -0.2772  0.4812
21046SOL    HW167054   5.823   7.594   9.820  1.3326 -0.6272  0.0882
21046SOL    HW267055   5.752   7.713   9.759 -0.1478 -0.6402  1.6951
21047SOL     OW67056   5.148   1.398   7.266 -0.0666  0.2419 -0.6724
21047SOL    HW167057   5.098   1.365   7.191 -2.1777  0.5061  0.5425
21047SOL    HW267058   5.202   1.467   7.229 -0.0385 -0.5245 -2.1838
21048SOL     OW67059   2.285  10.063   9.043  0.0235 -0.4236  0.0113
21048SOL    HW167060   2.218   9.996   9.031 -0.6449  0.2498 -0.1116
21048SOL    HW267061   2.361  10.016   9.077 -0.3124 -1.2904 -0.4300
21049SOL     OW67062   0.213   4.293   0.651  0.3565  0.8363  0.1449
21049SOL    HW167063   0.296   4.326   0.686  0.0569  0.0843  1.6488
21049SOL    HW267064   0.147   4.323   0.713 -0.3036  0.0966 -0.1771
21050SOL     OW67065   3.358   3.729   3.343  0.4517  0.1911 -0.2583
21050SOL    HW167066   3.329   3.662   3.405 -0.8016 -0.6652 -1.7228
21050SOL    HW267067   3.344   3.812   3.389 -0.1615 -0.4273  0.7028
21051SOL     OW67068   0.454  10.191   5.242 -0.2210 -0.0415  0.4932
21051SOL    HW167069   0.406  10.236   5.311 -0.3818  1.2192 -0.4142
21051SOL    HW267070   0.451  10.251   5.168  2.2461 -0.1621  0.2086
21052SOL     OW67071   8.162   0.805   1.318  0.6461 -0.0210 -0.1009
21052SOL    HW167072   8.256   0.794   1.305  0.4092 -1.0144 -1.0901
21052SOL    HW267073   8.121   0.749   1.252 -0.6387 -0.6109  1.1279
21053SOL     OW67074   9.219   5.912   1.064  0.2016  0.0048  0.1564
21053SOL    HW167075   9.129   5.937   1.043  0.4319  0.3319 -0.4866
21053SOL    HW267076   9.267   5.926   0.982  1.2948  1.9905  1.0669
21054SOL     OW67077   9.029   7.309   3.641  0.0628 -0.2532 -0.5724
21054SOL    HW167078   9.009   7.225   3.598 -0.5292  0.4661 -1.7552
21054SOL    HW267079   9.020   7.374   3.572 -0.5442  0.9183  0.5715
21055SOL     OW67080   9.752   3.428   2.307  0.3446 -0.0601  0.3985
21055SOL    HW167081   9.685   3.457   2.368 -0.0631 -0.1751  0.0070
21055SOL    HW267082   9.803   3.507   2.288  1.0246 -0.1977  1.5598
21056SOL     OW67083   8.826   7.434   5.341 -0.0459  0.5107 -0.2028
21056SOL    HW167084   8.910   7.419   5.384  0.7467 -0.5544 -1.9952
21056SOL    HW267085   8.849   7.479   5.259 -1.3788  1.5167 -0.0638
21057SOL     OW67086   4.686   5.705   9.486  0.6440 -0.6964  0.1507
21057SOL    HW167087   4.591   5.714   9.482  0.7834  2.7932  1.0174
21057SOL    HW267088   4.712   5.683   9.396 -0.9253 -1.5655 -0.1299
21058SOL     OW67089   9.084   0.844   9.206 -0.2207 -0.0577 -0.1520
21058SOL    HW167090   9.023   0.917   9.193 -1.2275 -1.0720 -1.4721
21058SOL    HW267091   9.148   0.853   9.135  0.8036  0.6036  0.8190
21059SOL     OW67092   6.404   4.132   4.245  0.5238  0.1345 -0.9518
21059SOL    HW167093   6.433   4.048   4.281 -1.4516 -0.7130 -1.1733
21059SOL    HW267094   6.453   4.198   4.295  2.0125 -1.1217 -0.6726
21060SOL     OW67095   9.832   5.748   8.961  0.2950  0.4768 -0.2071
21060SOL    HW167096   9.861   5.815   8.900 -0.2978  2.1721  1.2986
21060SOL    HW267097   9.742   5.772   8.984  0.4970 -0.0778  1.3200
21061SOL     OW67098   1.418   7.920   1.425  0.3892  0.1359 -0.1444
21061SOL    HW167099   1.376   7.843   1.464 -0.2547  0.3576 -0.3958
21061SOL    HW267100   1.508   7.891   1.408  0.1066 -0.6275 -0.4024
21062SOL     OW67101   9.607   8.423   6.297  0.2886 -0.3194  0.2753
21062SOL    HW167102   9.661   8.346   6.280  0.4217 -0.2648  0.4397
21062SOL    HW267103   9.521   8.388   6.319 -0.2046 -0.3559 -1.6245
21063SOL     OW67104   3.422   6.602  10.179 -0.6984  0.2000  0.2700
21063SOL    HW167105   3.394   6.690  10.202 -2.3339  0.3111 -1.7690
21063SOL    HW267106   3.340   6.555  10.162  0.1180 -0.1248 -3.8251
21064SOL     OW67107   7.658   2.245   9.911 -0.4235  0.1596 -0.5450
21064SOL    HW167108   7.722   2.217   9.976 -0.5577  1.8801  0.3993
21064SOL    HW267109   7.621   2.164   9.877 -0.5437 -0.8235  1.7304
21065SOL     OW67110   6.101   4.292   1.182  0.7140 -0.3624  0.1786
21065SOL    HW167111   6.153   4.230   1.235  0.8167  0.3835  0.9749
21065SOL    HW267112   6.012   4.283   1.216  0.8852  0.5534  0.9338
21066SOL     OW67113   2.317   4.024   3.217  0.2106 -0.1357 -0.1635
21066SOL    HW167114   2.301   4.110   3.256 -0.7101 -0.6435  0.6280
21066SOL    HW267115   2.263   4.025   3.137 -3.1037 -1.3552  1.8364
21067SOL     OW67116   9.475   5.196   4.172 -0.3476  0.6044  0.3729
21067SOL    HW167117   9.413   5.225   4.105  1.0153  2.1684 -0.2803
21067SOL    HW267118   9.455   5.103   4.185 -2.0525  0.7900 -0.6239
21068SOL     OW67119   9.005   7.268   0.967 -0.6056  0.4470 -0.0606
21068SOL    HW167120   8.949   7.318   0.908  0.0290 -1.8475 -2.8680
21068SOL    HW267121   8.947   7.237   1.036 -2.2145  0.4509 -1.3490
21069SOL     OW67122   0.272   9.050   6.712  0.5807  0.6881  0.0017
21069SOL    HW167123   0.184   9.061   6.676  1.0125  1.8673 -0.7118
21069SOL    HW267124   0.262   9.070   6.805 -0.3421 -1.4465  0.4357
21070SOL     OW67125   0.407   1.702   7.084  0.0485 -0.2887  0.3259
21070SOL    HW167126   0.333   1.642   7.082 -0.5124  0.3862 -1.3687
21070SOL    HW267127   0.368   1.789   7.089  0.6796  0.0888 -0.7931
21071SOL     OW67128   5.586   2.212   2.383 -0.0567 -0.0265  0.2686
21071SOL    HW167129   5.511   2.186   2.437 -1.4426  1.8168 -0.6490
21071SOL    HW267130   5.547   2.245   2.302  1.8062  0.2639 -0.5553
21072SOL     OW67131   2.340   0.975   6.778 -0.7077  0.0729 -0.2118
21072SOL    HW167132   2.253   0.950   6.746 -1.3714  0.8169  0.9460
21072SOL    HW267133   2.332   1.068   6.800  0.2722  0.0627  0.2677
21073SOL     OW67134   6.954   7.462   3.784  0.2707  0.1825 -0.0803
21073SOL    HW167135   6.952   7.368   3.767 -0.4663 -0.1724  1.8196
21073SOL    HW267136   6.929   7.501   3.700  1.3619 -1.2473 -1.1291
21074SOL     OW67137   0.352   0.419   0.663  0.2885  0.5665  0.0243
21074SOL    HW167138   0.379   0.416   0.755 -0.1058 -2.4149  0.1387
21074SOL    HW267139   0.274   0.475   0.662  0.3626  0.7279  1.4852
21075SOL     OW67140   5.981   5.811   5.987  0.1028  0.9617  0.0495
21075SOL    HW167141   6.070   5.776   5.979  0.3871  1.6240  0.3127
21075SOL    HW267142   5.936   5.747   6.043  0.8186  1.3669  1.1134
21076SOL     OW67143   7.864   7.446   4.195  0.3619 -0.3789  0.4568
21076SOL    HW167144   7.883   7.366   4.145  0.6962 -0.1820  0.2661
21076SOL    HW267145   7.927   7.443   4.268  0.1621 -0.4497  0.6267
21077SOL     OW67146   7.665   2.122   1.391 -0.2470  0.8109  0.0247
21077SOL    HW167147   7.724   2.091   1.460  0.4228 -2.2286 -1.7542
21077SOL    HW267148   7.715   2.190   1.345  0.5453  0.6084  0.5667
21078SOL     OW67149   9.421   2.965   7.148  0.6914 -0.1876 -0.1858
21078SOL    HW167150   9.393   2.997   7.063  0.5559 -1.1230 -0.5107
21078SOL    HW267151   9.415   2.869   7.141 -0.5798 -0.2686  1.2817
21079SOL     OW67152   6.079   4.695   1.136 -0.2006 -0.6262 -0.0093
21079SOL    HW167153   6.142   4.738   1.195 -0.9942 -0.6248  0.8555
21079SOL    HW267154   6.112   4.714   1.048  0.6366 -0.0544  0.4138
21080SOL     OW67155   6.820   2.569   7.963 -0.6090 -0.2948  0.0123
21080SOL    HW167156   6.746   2.512   7.944 -0.6706 -0.3079  0.2978
21080SOL    HW267157   6.787   2.658   7.946 -1.1397 -0.1756  1.5254
21081SOL     OW67158   6.110   1.314   2.560 -0.1321 -0.7419 -0.1600
21081SOL    HW167159   6.081   1.352   2.477 -3.5387  0.8505  1.5396
21081SOL    HW267160   6.042   1.251   2.583  0.5003 -0.8321  1.6168
21082SOL     OW67161   5.559   6.556   4.238  0.2848  0.2625  0.6829
21082SOL    HW167162   5.548   6.628   4.175 -0.8811  0.9873  1.6779
21082SOL    HW267163   5.485   6.498   4.221  0.2444  0.2024  1.0734
21083SOL     OW67164   7.819   2.594   2.702 -0.6353 -0.0312 -0.2680
21083SOL    HW167165   7.724   2.582   2.709 -1.0347  3.1993  1.8735
21083SOL    HW267166   7.852   2.572   2.789  0.3178  0.6795 -0.4463
21084SOL     OW67167   2.596   9.872   8.606 -0.8837  0.7533  0.0865
21084SOL    HW167168   2.514   9.858   8.653 -1.2441  0.9313 -0.4878
21084SOL    HW267169   2.664   9.853   8.671 -1.3751  0.7382  0.6037
21085SOL     OW67170   3.418   0.185   4.228  0.1699  0.2833  0.1792
21085SOL    HW167171   3.412   0.248   4.155  1.7092  1.1645  0.7702
21085SOL    HW267172   3.426   0.239   4.306  1.8851 -0.6080  0.6777
21086SOL     OW67173   5.062   9.878   2.224 -0.4356  0.4400 -0.4957
21086SOL    HW167174   5.112   9.958   2.209  1.3853 -0.5370  0.0705
21086SOL    HW267175   5.101   9.840   2.303 -2.2985 -0.2280  0.1594
21087SOL     OW67176   4.261   2.277   5.420  0.5212  0.0954 -0.0704
21087SOL    HW167177   4.203   2.233   5.357 -0.2220  0.0392  0.6380
21087SOL    HW267178   4.344   2.230   5.413 -0.3162 -1.6408  0.8609
21088SOL     OW67179   4.748   4.010   8.171  0.3903  0.2868  0.1608
21088SOL    HW167180   4.795   3.950   8.112  0.4604  0.8992 -0.4248
21088SOL    HW267181   4.813   4.038   8.234  0.1635 -0.8634  0.9340
21089SOL     OW67182   2.598   7.610   7.569 -0.0663  0.0231  0.3095
21089SOL    HW167183   2.683   7.569   7.582 -0.7356 -1.0881  1.3396
21089SOL    HW267184   2.593   7.625   7.475  1.2314  0.0375  0.2254
21090SOL     OW67185   7.469   3.215   6.191 -0.0378 -0.1101  0.0710
21090SOL    HW167186   7.387   3.170   6.210  0.2406 -0.5097  0.3340
21090SOL    HW267187   7.484   3.270   6.268 -0.0182 -0.0952  0.0565
21091SOL     OW67188   8.869   8.235   6.693  0.3722 -0.1048  0.3738
21091SOL    HW167189   8.922   8.159   6.669  1.5495  0.8011 -0.0456
21091SOL    HW267190   8.879   8.243   6.788  0.9032 -0.0161  0.3138
21092SOL     OW67191   9.349   6.040   1.263  0.5374  0.2766 -0.2195
21092SOL    HW167192   9.294   5.986   1.207 -1.0224 -1.1807  2.5206
21092SOL    HW267193   9.370   6.116   1.209 -0.0569 -1.4161 -3.0513
21093SOL     OW67194   8.386  10.079   2.913  0.0802  0.4478 -0.4186
21093SOL    HW167195   8.343  10.150   2.867 -0.3513  0.1178 -0.5350
21093SOL    HW267196   8.428  10.120   2.988 -0.9603  0.6953  0.0411
21094SOL     OW67197   8.357  10.188   6.117  0.1624  0.2052 -0.2991
21094SOL    HW167198   8.411  10.119   6.156  2.5866  1.8768 -0.4349
21094SOL    HW267199   8.342  10.159   6.027  3.3335  0.8631 -1.1622
21095SOL     OW67200   2.089   8.343   1.295  0.5500 -0.4863  0.4705
21095SOL    HW167201   2.028   8.284   1.250  0.9468 -0.9330  0.5084
21095SOL    HW267202   2.128   8.290   1.364 -0.5339  0.3774  1.8058
21096SOL     OW67203   5.462   9.360   1.262 -0.5370  0.0210 -0.1561
21096SOL    HW167204   5.511   9.338   1.341 -1.2074 -0.5773  0.1001
21096SOL    HW267205   5.529   9.360   1.193 -0.2561 -1.4968  0.0694
21097SOL     OW67206   3.803   4.168   4.384 -0.1602 -0.1309 -0.0871
21097SOL    HW167207   3.789   4.258   4.413  0.3268  0.6231 -2.0134
21097SOL    HW267208   3.866   4.132   4.445 -1.0204  0.5392  1.2348
21098SOL     OW67209   8.329   9.061   5.857  0.5189  0.4453 -0.6969
21098SOL    HW167210   8.396   9.039   5.923 -1.4824  3.1252  2.5700
21098SOL    HW267211   8.273   8.984   5.853  0.0757  0.5540  1.7508
21099SOL     OW67212   4.091   6.154   3.106 -0.8118  0.3668 -0.7539
21099SOL    HW167213   4.169   6.207   3.086 -1.1048  0.9517 -0.3869
21099SOL    HW267214   4.122   6.089   3.169 -1.0590  2.0105  1.1952
21100SOL     OW67215   8.749   3.120   2.863  0.2958  0.3186  0.5777
21100SOL    HW167216   8.719   3.088   2.949  2.7371 -0.0368  1.3824
21100SOL    HW267217   8.764   3.214   2.876 -1.9069  0.8634 -0.3102
21101SOL     OW67218   3.913  10.012   9.602 -0.3654 -0.0398 -0.1467
21101SOL    HW167219   3.881   9.999   9.691 -1.7285 -1.7768 -0.8140
21101SOL    HW267220   3.868  10.091   9.572 -0.3131  0.2514  0.5287
21102SOL     OW67221   9.679   0.533   3.409  0.3556 -0.5108  0.4587
21102SOL    HW167222   9.713   0.545   3.321  0.2940 -0.9967  0.3656
21102SOL    HW267223   9.687   0.439   3.426 -1.1134 -0.6916  0.3564
21103SOL     OW67224   7.877   7.826   5.584 -0.2424  0.8148 -0.2934
21103SOL    HW167225   7.834   7.817   5.669 -0.3257 -1.6685 -0.5525
21103SOL    HW267226   7.806   7.841   5.522 -0.2247  2.0996 -0.0319
21104SOL     OW67227   6.478   8.581   0.561  0.0185 -0.4645 -0.0519
21104SOL    HW167228   6.405   8.574   0.499 -0.1728  0.7664  0.0016
21104SOL    HW267229   6.444   8.545   0.643 -0.9537  1.1114  0.2897
21105SOL     OW67230   4.447  10.040   6.410 -0.7822  0.5329 -0.3460
21105SOL    HW167231   4.467  10.131   6.431  0.9882  0.5562 -1.8325
21105SOL    HW267232   4.533   9.996   6.412 -1.7088 -1.3629  1.3728
21106SOL     OW67233   9.501   4.524   9.313 -0.1551  0.1606  0.5663
21106SOL    HW167234   9.490   4.594   9.249  1.9563  0.2594  0.2320
21106SOL    HW267235   9.413   4.507   9.346 -0.9701  1.6682 -0.7104
21107SOL     OW67236   5.546   2.593   3.341  0.2583  0.6468  0.1217
21107SOL    HW167237   5.470   2.645   3.368 -0.3831 -0.2798  0.1547
21107SOL    HW267238   5.524   2.504   3.366  0.8679  0.1886 -0.9021
21108SOL     OW67239   4.007   3.243   6.021  0.1003 -0.4559  0.1959
21108SOL    HW167240   3.969   3.174   6.075  1.1604 -0.6048  0.7715
21108SOL    HW267241   4.050   3.196   5.949  1.2447 -0.4508  0.8528
21109SOL     OW67242   4.627   5.043   7.896 -0.0709 -0.3987  0.6698
21109SOL    HW167243   4.685   5.078   7.828 -1.3339 -1.5679 -1.0900
21109SOL    HW267244   4.677   5.052   7.977  1.5211  0.9887 -0.4002
21110SOL     OW67245   8.094   2.317   9.520  0.0269 -0.3493 -0.1404
21110SOL    HW167246   8.173   2.372   9.519 -0.7578  0.8958 -2.3804
21110SOL    HW267247   8.040   2.355   9.590  0.7852 -0.2772  0.4221
21111SOL     OW67248   7.898   1.334   9.829 -0.2878 -0.6648  0.1162
21111SOL    HW167249   7.806   1.309   9.818 -1.7285  1.2237  5.2878
21111SOL    HW267250   7.944   1.251   9.839 -2.2795 -1.6541  1.9103
21112SOL     OW67251   4.137   3.221   0.176  0.2412 -0.6187  0.3517
21112SOL    HW167252   4.059   3.249   0.223  0.3211  1.3859 -0.6271
21112SOL    HW267253   4.110   3.144   0.126 -1.2631  0.3486 -0.3725
21113SOL     OW67254   8.231   8.031   0.508 -0.1002  0.4425  0.9280
21113SOL    HW167255   8.249   7.996   0.595  1.7204 -1.9239 -0.2910
21113SOL    HW267256   8.315   8.064   0.477 -0.9493  2.2674  0.4076
21114SOL     OW67257   6.243   3.217   6.338 -0.1886 -0.5000 -0.1035
21114SOL    HW167258   6.304   3.207   6.265  1.5785 -0.1783  1.2485
21114SOL    HW267259   6.288   3.276   6.398 -0.8373 -2.0667  2.0255
21115SOL     OW67260   4.457  10.169   0.332  0.8065  0.3840 -0.4960
21115SOL    HW167261   4.490  10.090   0.290  1.0308 -0.0043  0.3999
21115SOL    HW267262   4.516  10.238   0.301  2.6933 -0.3369  1.2712
21116SOL     OW67263   3.797   5.234   0.861  0.7673 -0.0279 -0.0358
21116SOL    HW167264   3.797   5.302   0.928  1.0181  0.8895 -0.9475
21116SOL    HW267265   3.704   5.223   0.839  0.2952 -2.4708  2.5060
21117SOL     OW67266   7.255   5.932   5.628  0.5743 -0.1978 -0.0573
21117SOL    HW167267   7.321   5.993   5.660 -0.5713  1.6971 -1.0850
21117SOL    HW267268   7.252   5.947   5.533 -1.1974 -0.2935 -0.0592
21118SOL     OW67269   3.381   3.622   8.886 -0.2797 -0.3535  0.7831
21118SOL    HW167270   3.442   3.608   8.814 -0.1014  2.4101  0.2994
21118SOL    HW267271   3.401   3.552   8.949  2.9082  0.0304  0.3473
21119SOL     OW67272   1.311   2.620   0.536 -0.7033 -0.2881  0.6796
21119SOL    HW167273   1.398   2.592   0.509 -0.6429  0.6453 -0.1672
21119SOL    HW267274   1.307   2.601   0.630  0.0684 -1.1657  0.5458
21120SOL     OW67275   5.383   1.789   9.051  0.1793 -0.3155 -1.0539
21120SOL    HW167276   5.348   1.702   9.030 -2.7655  0.1234  1.3867
21120SOL    HW267277   5.449   1.773   9.118 -1.2393 -0.6532  0.3101
21121SOL     OW67278   5.173   9.023   3.795 -0.0954 -0.2223  0.0214
21121SOL    HW167279   5.144   9.027   3.886  0.8407  1.0906  0.2890
21121SOL    HW267280   5.264   8.993   3.800 -0.3641 -1.1825 -0.5765
21122SOL     OW67281   1.706   1.436   1.098  0.2008  0.1088 -0.0513
21122SOL    HW167282   1.721   1.471   1.010  0.7123 -0.9747 -0.4154
21122SOL    HW267283   1.744   1.501   1.157 -0.9683  1.3024 -0.5592
21123SOL     OW67284   7.807   5.248   6.050  0.0257 -0.1241 -0.2512
21123SOL    HW167285   7.877   5.189   6.076 -0.3082 -0.4502 -0.0753
21123SOL    HW267286   7.829   5.331   6.092  0.6721 -0.0269 -0.7739
21124SOL     OW67287  10.176   0.352   9.220 -0.1397  0.2362  0.0731
21124SOL    HW167288  10.154   0.265   9.253 -0.7765  0.6489  0.7703
21124SOL    HW267289  10.123   0.361   9.140 -3.0220  1.3712  1.9430
21125SOL     OW67290   8.109   0.028   0.163  0.2333 -0.0034 -0.2369
21125SOL    HW167291   8.122  -0.052   0.214 -4.0277 -0.4497  0.5282
21125SOL    HW267292   8.098  -0.003   0.073 -0.0229 -0.1090 -0.1691
21126SOL     OW67293   4.698   0.182   0.618 -0.0120 -0.7492  0.1460
21126SOL    HW167294   4.696   0.182   0.522 -0.6618  1.8115  0.0986
21126SOL    HW267295   4.607   0.169   0.644 -0.1978  0.8442  0.3467
21127SOL     OW67296   4.092   3.084   7.375 -0.1071 -0.3586 -0.2277
21127SOL    HW167297   4.099   3.180   7.376 -1.5356 -0.2296 -0.4268
21127SOL    HW267298   4.015   3.066   7.320  0.8070 -1.6801 -1.1241
21128SOL     OW67299   6.575   3.687   8.353  0.2233  0.2649 -0.1585
21128SOL    HW167300   6.626   3.647   8.282  0.5449  0.9019 -0.2906
21128SOL    HW267301   6.486   3.653   8.340  0.5471 -0.6486 -0.0841
21129SOL     OW67302   7.798   5.330   8.697  0.7637  1.3860  0.4431
21129SOL    HW167303   7.744   5.335   8.776 -0.3773  0.2890 -0.2384
21129SOL    HW267304   7.759   5.394   8.637 -1.1855 -0.8636 -0.8290
21130SOL     OW67305   7.867   0.642   3.107 -0.3182  0.3397  0.6991
21130SOL    HW167306   7.848   0.736   3.113  2.0033  0.7860  1.9876
21130SOL    HW267307   7.782   0.602   3.088 -1.1883  2.7771 -1.0749
21131SOL     OW67308   4.425   4.099   3.097 -0.4587  0.1841  0.3899
21131SOL    HW167309   4.341   4.066   3.129 -0.0481  1.1160  2.6511
21131SOL    HW267310   4.433   4.065   3.008 -3.4259  0.4462 -0.0527
21132SOL     OW67311   2.292   0.482   3.899  0.0187  0.1335 -0.1256
21132SOL    HW167312   2.369   0.488   3.843  0.1665  2.0127  0.2097
21132SOL    HW267313   2.229   0.543   3.859 -0.5221  0.1618  0.7471
21133SOL     OW67314   5.414   7.953   0.779 -0.1078 -0.6706 -0.4704
21133SOL    HW167315   5.411   8.049   0.777  0.5566 -0.6525 -0.8497
21133SOL    HW267316   5.339   7.928   0.833  0.4752  0.1034  0.7363
21134SOL     OW67317   0.569   6.063   2.280 -0.0825  0.2426  0.6018
21134SOL    HW167318   0.532   6.112   2.207 -1.1264 -1.8707 -0.4013
21134SOL    HW267319   0.507   6.076   2.352 -1.1415 -0.6759 -0.0967
21135SOL     OW67320   5.066   9.265   3.060 -0.0464 -0.0869  0.0099
21135SOL    HW167321   5.096   9.216   2.983 -0.1060 -0.4849  0.2365
21135SOL    HW267322   5.020   9.200   3.113  0.0737  0.1649  0.4243
21136SOL     OW67323   5.386   4.085   9.279 -0.3368  0.1282  0.3133
21136SOL    HW167324   5.418   4.115   9.364  0.3815  0.3760 -0.0391
21136SOL    HW267325   5.399   4.160   9.220  1.0221 -0.6790 -0.4659
21137SOL     OW67326   9.582   2.290   1.047 -0.4151  0.1705  0.3204
21137SOL    HW167327   9.661   2.325   1.088 -0.9038 -0.0486  1.4965
21137SOL    HW267328   9.597   2.196   1.040 -0.4299  0.1754  0.2220
21138SOL     OW67329   5.984   4.462   9.932 -0.1106 -0.2788  0.3161
21138SOL    HW167330   6.065   4.513   9.925 -0.5809  0.6937  1.5139
21138SOL    HW267331   6.001   4.398  10.001 -0.6716  0.5963  1.2921
21139SOL     OW67332   9.947   2.955   0.734  0.5153  0.5579  0.1029
21139SOL    HW167333   9.989   2.928   0.816 -0.6843  1.1888  0.9726
21139SOL    HW267334  10.020   2.982   0.677  1.5910 -2.3903 -0.0680
21140SOL     OW67335   0.471   8.439   8.287 -0.0317 -0.1543 -0.0239
21140SOL    HW167336   0.460   8.531   8.260 -0.9244 -0.4789 -0.8540
21140SOL    HW267337   0.382   8.409   8.304  0.0871 -1.2849 -1.2442
21141SOL     OW67338   8.000   8.974   5.647  0.0960  0.2473  0.0821
21141SOL    HW167339   7.975   9.056   5.692  0.0023 -0.6987  1.8529
21141SOL    HW267340   8.040   9.003   5.566 -0.8228  2.0316  0.2067
21142SOL     OW67341   2.345   1.782   7.638 -0.2441  0.3691  0.1110
21142SOL    HW167342   2.250   1.778   7.626 -0.3123  1.3531  0.2110
21142SOL    HW267343   2.362   1.872   7.665  0.6951  0.1352  0.3521
21143SOL     OW67344   7.358   6.394   7.476 -0.0241  0.3783  0.1429
21143SOL    HW167345   7.302   6.341   7.418 -0.4238 -0.0063  0.8644
21143SOL    HW267346   7.296   6.447   7.527  0.2658  0.0340  0.8679
21144SOL     OW67347   4.891   0.980   4.678  0.3618  0.2364  0.1804
21144SOL    HW167348   4.940   0.958   4.598  1.5247  0.2997  0.8586
21144SOL    HW267349   4.956   1.020   4.735 -0.2125 -0.7949  1.5911
21145SOL     OW67350   1.729   8.284   8.449 -0.2235  0.1780  0.3259
21145SOL    HW167351   1.690   8.304   8.364 -0.8347 -2.5236 -0.1385
21145SOL    HW267352   1.820   8.262   8.428 -0.3180 -0.2734  0.3625
21146SOL     OW67353   4.770   1.011  10.184  0.0394 -0.4044  0.1180
21146SOL    HW167354   4.678   1.018  10.158  0.1885  0.0322 -0.3148
21146SOL    HW267355   4.815   1.076  10.129  0.6786 -0.9781 -0.0486
21147SOL     OW67356   1.746   9.551   5.508  0.0512  0.5726  0.4535
21147SOL    HW167357   1.743   9.460   5.479 -1.6681  0.6654  0.2039
21147SOL    HW267358   1.801   9.595   5.443 -0.5715  0.0363 -0.4628
21148SOL     OW67359   2.917   7.410   4.589  0.1716  0.0229  0.1331
21148SOL    HW167360   2.856   7.347   4.551 -1.1615  0.4362  1.4886
21148SOL    HW267361   2.917   7.483   4.527  1.1476 -0.9493 -1.0620
21149SOL     OW67362   6.440   5.633   0.634  0.0753 -0.2331  0.2838
21149SOL    HW167363   6.473   5.571   0.568  0.5071 -1.0334  1.2254
21149SOL    HW267364   6.517   5.684   0.660  0.4786 -1.5872  1.9267
21150SOL     OW67365   9.972   8.660   2.447 -0.7492  0.4122 -0.5762
21150SOL    HW167366  10.004   8.572   2.428 -1.6466  0.0890 -0.6194
21150SOL    HW267367   9.878   8.649   2.464 -1.4428  1.6883 -3.0940
21151SOL     OW67368   4.225   6.902   2.886 -0.1526  0.9671  0.6989
21151SOL    HW167369   4.182   6.960   2.824  0.6836  0.7719 -0.0842
21151SOL    HW267370   4.157   6.841   2.914 -0.7207  1.5349  0.5549
21152SOL     OW67371   6.300   5.927   9.774 -0.6035  0.0327 -0.2409
21152SOL    HW167372   6.259   5.841   9.781 -1.5373  0.5843  1.8805
21152SOL    HW267373   6.389   5.910   9.743 -0.3421 -1.8368  1.3768
21153SOL     OW67374  10.092   7.050   1.998 -0.0631 -0.1749 -0.5118
21153SOL    HW167375  10.078   6.956   2.010  2.0419 -0.8362 -2.5748
21153SOL    HW267376  10.131   7.079   2.081  0.1859 -1.3267 -0.2100
21154SOL     OW67377   5.118   4.042   6.805  0.6000 -0.0003  0.2145
21154SOL    HW167378   5.156   4.005   6.726  0.3454  0.6308 -0.2091
21154SOL    HW267379   5.030   4.005   6.811 -0.1235  1.4585 -0.8882
21155SOL     OW67380   6.775   1.891   8.803  0.6178  0.2088 -0.2216
21155SOL    HW167381   6.870   1.891   8.814  0.6306 -0.6785 -0.3079
21155SOL    HW267382   6.741   1.877   8.891  0.5454  1.0716 -0.1020
21156SOL     OW67383   2.340   0.494   2.477 -0.1287 -0.0908 -0.3901
21156SOL    HW167384   2.354   0.416   2.530  0.4155 -0.8132 -1.5762
21156SOL    HW267385   2.262   0.535   2.515 -0.5661 -1.3444  0.0862
21157SOL     OW67386   0.011   6.279   8.869  0.1467  0.7720 -0.2694
21157SOL    HW167387  -0.059   6.285   8.804  1.2162  1.4956 -1.4111
21157SOL    HW267388   0.065   6.357   8.853  0.9372  0.4968  0.9018
21158SOL     OW67389   3.972   0.802   4.480 -0.0298 -0.2707 -0.3169
21158SOL    HW167390   3.948   0.894   4.494 -0.9161 -0.1627 -2.2944
21158SOL    HW267391   4.068   0.803   4.476 -0.0673  0.8330 -1.7448
21159SOL     OW67392   5.307   0.881  10.051 -0.0133  0.2148 -0.0122
21159SOL    HW167393   5.289   0.914   9.962  0.0333 -0.3295 -0.2242
21159SOL    HW267394   5.265   0.795  10.053  1.9303 -0.7896 -0.2733
21160SOL     OW67395   3.592   6.640   2.763  0.3631 -0.3964 -0.2558
21160SOL    HW167396   3.556   6.668   2.847  0.6217  0.4638 -0.4171
21160SOL    HW267397   3.551   6.699   2.699  1.1159 -0.2201 -0.5835
21161SOL     OW67398   0.872   7.382   2.566  0.0211 -1.5871  0.0204
21161SOL    HW167399   0.845   7.473   2.560  1.7786 -0.7365  2.9871
21161SOL    HW267400   0.795   7.335   2.598 -0.1165 -0.5928  1.2094
21162SOL     OW67401   2.628   5.170   0.968 -0.8329 -0.3700 -0.0047
21162SOL    HW167402   2.694   5.203   1.028 -1.7233  0.7346  0.4131
21162SOL    HW267403   2.676   5.114   0.907  0.3416 -0.2196  0.7549
21163SOL     OW67404   1.647   8.744   7.788  0.1688 -0.1658  0.1956
21163SOL    HW167405   1.587   8.672   7.805  2.7123 -2.8980 -1.4255
21163SOL    HW267406   1.702   8.747   7.866 -1.1425  1.4586  1.1156
21164SOL     OW67407   0.962   2.531   4.963  0.5357 -0.4491 -0.3476
21164SOL    HW167408   0.931   2.547   5.052  3.0642  1.5439  0.3017
21164SOL    HW267409   0.982   2.437   4.962  0.9561 -0.4284  1.4044
21165SOL     OW67410   4.376   2.312   4.577 -0.3500 -0.8546  0.6359
21165SOL    HW167411   4.410   2.366   4.648  1.8401 -1.6342  0.2551
21165SOL    HW267412   4.283   2.335   4.572  0.2327  1.9526  1.2569
21166SOL     OW67413   6.022   5.177   2.459 -0.4818 -0.1536  0.3452
21166SOL    HW167414   6.024   5.260   2.412 -2.4038 -0.3971 -0.2711
21166SOL    HW267415   6.056   5.197   2.546  1.4191  0.7036 -0.5332
21167SOL     OW67416   4.573   8.670   0.018 -0.3023  0.0129  0.1066
21167SOL    HW167417   4.517   8.594   0.034 -0.5690  0.1312 -0.2616
21167SOL    HW267418   4.515   8.736  -0.019  0.2603 -0.2046 -1.2284
21168SOL     OW67419   6.765   7.004   4.962 -0.4201 -0.1780 -0.4642
21168SOL    HW167420   6.770   6.943   4.888 -1.3928 -2.5573  1.2880
21168SOL    HW267421   6.844   7.057   4.956  0.2863 -1.3542 -2.3162
21169SOL     OW67422   9.674   4.853   5.788  0.3902  0.0316  0.1071
21169SOL    HW167423   9.609   4.808   5.735  0.6746 -1.4287  0.9283
21169SOL    HW267424   9.647   4.944   5.789 -0.8123 -0.3020 -0.7561
21170SOL     OW67425   5.427   6.892   7.493 -0.0023  0.3305  0.9376
21170SOL    HW167426   5.352   6.950   7.507  0.0452  0.1401  2.0534
21170SOL    HW267427   5.459   6.872   7.581  1.7571  0.9220  0.4638
21171SOL     OW67428   8.366   2.359   1.882 -0.1151 -0.0090 -0.1764
21171SOL    HW167429   8.404   2.379   1.797 -0.1405  1.1623  0.0593
21171SOL    HW267430   8.394   2.270   1.902  0.4804 -0.0326 -1.0818
21172SOL     OW67431   3.058   2.743   7.838 -0.5215  0.1682  0.2612
21172SOL    HW167432   3.056   2.762   7.931  0.5939 -0.8243  0.5077
21172SOL    HW267433   2.981   2.788   7.802 -0.6771  0.9666  1.5648
21173SOL     OW67434   3.438   5.341   3.406 -0.4137 -0.6870 -0.1909
21173SOL    HW167435   3.506   5.296   3.458  0.6104 -0.2306 -1.1036
21173SOL    HW267436   3.475   5.427   3.387 -1.4645 -0.2475 -0.3009
21174SOL     OW67437   4.188   6.950   1.646 -0.0115 -0.6241  0.2727
21174SOL    HW167438   4.170   7.044   1.654  1.2594 -0.4357  1.3564
21174SOL    HW267439   4.273   6.946   1.602 -0.9128 -1.3582 -1.5023
21175SOL     OW67440   5.857   9.739   0.189  0.0503  0.1136 -0.5760
21175SOL    HW167441   5.811   9.770   0.267  1.1995 -0.2679  0.2821
21175SOL    HW267442   5.938   9.790   0.188 -0.0929  0.3541 -1.7227
21176SOL     OW67443   9.790   7.771   1.178 -0.5310  0.3786  0.2882
21176SOL    HW167444   9.763   7.786   1.269 -0.6395 -0.5353  0.4262
21176SOL    HW267445   9.885   7.766   1.182 -0.6150 -1.9963  0.7884
21177SOL     OW67446   7.573   4.193   8.661  0.1681 -0.0394 -0.2035
21177SOL    HW167447   7.609   4.158   8.580 -0.8453  1.1345 -1.2002
21177SOL    HW267448   7.520   4.121   8.696 -0.1105 -0.2671 -1.0674
21178SOL     OW67449   6.720   3.284   4.067 -0.4118 -0.1004 -0.7861
21178SOL    HW167450   6.641   3.287   4.014 -0.1185 -0.5667 -1.2613
21178SOL    HW267451   6.722   3.194   4.101 -0.5126  0.1458 -0.1071
21179SOL     OW67452   7.250   2.899   0.640 -0.3364 -0.4354  1.0309
21179SOL    HW167453   7.250   2.977   0.585 -2.6346 -0.6964  0.5604
21179SOL    HW267454   7.342   2.871   0.643  0.6420  2.5397  1.6494
21180SOL     OW67455   0.001   7.885   1.036  0.3093 -0.2723 -0.1505
21180SOL    HW167456  -0.020   7.792   1.027 -1.0977  0.1060 -1.2384
21180SOL    HW267457   0.069   7.901   0.971  2.5048 -1.0445  1.8455
21181SOL     OW67458   3.686   5.470   5.383  0.1654  0.3699  0.7994
21181SOL    HW167459   3.598   5.496   5.410  1.4633  3.3074  2.7950
21181SOL    HW267460   3.723   5.548   5.343  2.1775 -0.4532  0.9178
21182SOL     OW67461   1.359   8.547   4.185  0.1206  0.2366 -0.2266
21182SOL    HW167462   1.398   8.619   4.134  0.2771 -0.3259 -0.9248
21182SOL    HW267463   1.277   8.583   4.219  0.9308  1.2304  0.7239
21183SOL     OW67464   5.294   0.222   6.988  0.3249  0.1044 -0.1546
21183SOL    HW167465   5.377   0.268   6.999  1.0615 -0.9350 -1.1413
21183SOL    HW267466   5.245   0.276   6.925  0.7989  0.0499 -0.5828
21184SOL     OW67467   2.841   9.534   9.792  0.2064 -0.3036 -0.1655
21184SOL    HW167468   2.862   9.515   9.701 -0.7698 -0.3393 -0.3871
21184SOL    HW267469   2.745   9.535   9.796  0.2339  0.1216  0.7681
21185SOL     OW67470   6.752   3.737   3.427 -0.4854 -0.0981  0.6910
21185SOL    HW167471   6.800   3.689   3.495 -0.2676  0.9858  1.3332
21185SOL    HW267472   6.660   3.718   3.445 -0.4057 -0.1648  1.0405
21186SOL     OW67473   7.667   3.595   5.032 -0.5754 -0.1730 -0.2703
21186SOL    HW167474   7.586   3.641   5.053 -2.5623 -2.4543 -2.3273
21186SOL    HW267475   7.654   3.506   5.064  1.6337 -0.3707  0.3068
21187SOL     OW67476   9.012   0.205   7.594  0.1663  0.2261 -0.2586
21187SOL    HW167477   9.016   0.201   7.499 -0.2856  0.2432 -0.2792
21187SOL    HW267478   8.924   0.175   7.616  1.1664 -2.5872  0.3126
21188SOL     OW67479   7.840   0.274   2.061  0.3660 -1.0879  0.7609
21188SOL    HW167480   7.870   0.365   2.069 -0.4069 -0.9336  2.1761
21188SOL    HW267481   7.798   0.271   1.975  3.5571 -1.1013 -0.9502
21189SOL     OW67482   8.926   4.353   3.214 -0.2664  0.6934  0.1404
21189SOL    HW167483   8.938   4.313   3.127 -1.2586  0.1353  0.2481
21189SOL    HW267484   8.945   4.446   3.200  0.7910  0.4255 -0.4020
21190SOL     OW67485   1.700   6.426   0.853 -0.4153 -0.3725 -0.1486
21190SOL    HW167486   1.772   6.483   0.824 -2.5533  2.3657 -0.5568
21190SOL    HW267487   1.666   6.470   0.931 -0.8029 -2.3576  0.8394
21191SOL     OW67488   2.596   0.074   7.770  0.0385 -0.1226 -0.0435
21191SOL    HW167489   2.653   0.026   7.710  1.3955  0.7451  0.4963
21191SOL    HW267490   2.607   0.030   7.854 -1.7144 -1.2198 -0.3460
21192SOL     OW67491   9.891   2.266   2.058 -0.4603  0.1660 -0.3689
21192SOL    HW167492   9.899   2.210   2.135  0.7819  1.4061  0.4336
21192SOL    HW267493   9.972   2.249   2.008 -0.9360 -0.1141 -1.0614
21193SOL     OW67494   8.701   4.838   4.959  0.2778 -0.2999  0.1431
21193SOL    HW167495   8.644   4.835   4.882 -0.9137 -1.3705  1.0208
21193SOL    HW267496   8.657   4.782   5.023  1.3344  0.4138  1.5427
21194SOL     OW67497   7.721   2.877   1.802 -0.2313 -0.5449 -0.4630
21194SOL    HW167498   7.800   2.920   1.768 -0.0322 -0.7022 -0.2105
21194SOL    HW267499   7.675   2.946   1.850  0.0565 -0.5946 -0.1115
21195SOL     OW67500   6.035   2.506   6.772 -0.0442  0.4787  0.4979
21195SOL    HW167501   5.965   2.442   6.757  0.9441 -1.0718  2.0742
21195SOL    HW267502   6.115   2.454   6.774  0.8302  1.7952  1.6025
21196SOL     OW67503   9.179  10.191   1.616 -0.5099  0.4650  0.5255
21196SOL    HW167504   9.091  10.169   1.648 -0.4595 -0.5456  0.0030
21196SOL    HW267505   9.164  10.258   1.549 -1.1088 -1.2213 -1.1017
21197SOL     OW67506   7.724   0.016   2.572  0.0609 -0.0088 -0.0638
21197SOL    HW167507   7.653  -0.044   2.549  1.1656 -0.8868 -1.3194
21197SOL    HW267508   7.740   0.066   2.492 -0.0295  1.1419  0.6133
21198SOL     OW67509   0.967   0.089   5.891 -0.5201  0.1702 -0.4393
21198SOL    HW167510   1.036   0.093   5.825 -0.4989 -0.0742 -0.4352
21198SOL    HW267511   0.983   0.005   5.936 -2.1144 -0.9501 -1.8506
21199SOL     OW67512   5.578   0.478   8.267  0.4893 -0.4336  0.4360
21199SOL    HW167513   5.606   0.427   8.191  0.8792 -0.6241  0.7046
21199SOL    HW267514   5.493   0.514   8.242 -0.0773 -1.7095  0.4649
21200SOL     OW67515   0.455   3.371   9.717 -0.3248  0.2872 -0.0834
21200SOL    HW167516   0.451   3.372   9.621 -0.1946 -0.3487 -0.1058
21200SOL    HW267517   0.485   3.282   9.738  1.7421  1.0582  0.4646
21201SOL     OW67518   8.003   7.154   3.431  0.0125  0.3396 -0.4533
21201SOL    HW167519   8.083   7.161   3.483  0.3048  0.0857 -0.8566
21201SOL    HW267520   7.940   7.211   3.474  0.5647  0.9205 -0.4123
21202SOL     OW67521   6.814   9.670   1.910  0.6318 -0.2202  0.1775
21202SOL    HW167522   6.731   9.622   1.900 -1.0756  2.7511 -1.6016
21202SOL    HW267523   6.797   9.732   1.980  1.0588  0.8441 -0.6305
21203SOL     OW67524   2.126   9.265   3.281  0.9519 -0.4490 -0.1977
21203SOL    HW167525   2.165   9.218   3.207  2.4615  0.1517  0.1787
21203SOL    HW267526   2.199   9.316   3.318  0.0621 -0.1891  1.2660
21204SOL     OW67527   8.543   6.999   1.684  0.3469 -0.4991 -0.4522
21204SOL    HW167528   8.581   7.052   1.614  0.2555 -0.9391 -0.8472
21204SOL    HW267529   8.571   6.909   1.663  0.3129 -0.6337  0.0735
21205SOL     OW67530   0.474   3.123   1.498  0.3255  0.1584  0.0355
21205SOL    HW167531   0.425   3.115   1.580  0.7855  1.7791  0.5115
21205SOL    HW267532   0.562   3.148   1.526  0.8940 -0.7179 -0.9023
21206SOL     OW67533   5.144   2.499   1.890  0.4026  0.3536  0.1578
21206SOL    HW167534   5.139   2.591   1.864  0.7684  0.2403 -0.3142
21206SOL    HW267535   5.220   2.465   1.844  1.2034  0.1976  1.5456
21207SOL     OW67536   1.591   0.291   8.820 -0.4162 -0.2687  0.2181
21207SOL    HW167537   1.624   0.204   8.841  3.3105  0.3738 -1.9519
21207SOL    HW267538   1.541   0.280   8.740  1.8248 -0.2795 -1.2657
21208SOL     OW67539   0.218   7.152   2.881 -0.0021 -0.3598  0.0939
21208SOL    HW167540   0.272   7.226   2.909 -1.5495  0.3590  1.3278
21208SOL    HW267541   0.141   7.193   2.840  0.2963 -1.3571 -1.5706
21209SOL     OW67542   3.654   5.096   2.557 -0.5010 -0.0572 -0.5156
21209SOL    HW167543   3.627   5.012   2.594 -0.4837 -0.6806 -1.8336
21209SOL    HW267544   3.749   5.088   2.546 -0.5794 -0.1100 -1.2007
21210SOL     OW67545   5.324   8.259   2.498  0.7831  0.5745 -0.2604
21210SOL    HW167546   5.232   8.275   2.475  0.4199 -1.2978 -0.2823
21210SOL    HW267547   5.320   8.223   2.587  1.0331 -3.2923 -1.6334
21211SOL     OW67548   3.188   8.418   3.758  0.0688  0.0542  0.2700
21211SOL    HW167549   3.188   8.367   3.677  0.6133  2.4928 -1.3721
21211SOL    HW267550   3.280   8.428   3.780 -0.0705 -0.4283  1.1137
21212SOL     OW67551   2.526   0.963   3.728  0.5445 -0.3096 -1.1497
21212SOL    HW167552   2.547   1.053   3.704  1.9808 -0.3244 -0.0899
21212SOL    HW267553   2.611   0.918   3.726  0.5389 -0.6783  2.1737
21213SOL     OW67554   8.742   7.082   7.540 -0.2534 -0.3153 -0.1250
21213SOL    HW167555   8.792   7.077   7.622  1.0617  0.6128 -0.8109
21213SOL    HW267556   8.663   7.031   7.556 -0.5411  0.7103  2.0798
21214SOL     OW67557   6.630   7.847   3.128 -0.0127  0.7225  0.3525
21214SOL    HW167558   6.644   7.844   3.034  0.2551 -0.0704  0.4100
21214SOL    HW267559   6.698   7.790   3.165 -0.1374  0.9934  1.0181
21215SOL     OW67560   8.998   3.395   5.359  0.8484 -0.2853 -0.3915
21215SOL    HW167561   8.918   3.354   5.326 -0.3281 -0.8004  2.7532
21215SOL    HW267562   8.975   3.488   5.368  0.9833 -0.2445 -0.4568
21216SOL     OW67563   9.568   3.186   2.368 -0.3533  0.6848 -0.4610
21216SOL    HW167564   9.653   3.216   2.400  0.2419  0.0528 -1.4017
21216SOL    HW267565   9.516   3.171   2.447 -0.8338  4.4223  0.1427
21217SOL     OW67566   2.292   3.752   1.564 -0.0461  0.0690 -0.3287
21217SOL    HW167567   2.260   3.677   1.515  1.4739 -1.0718  0.3143
21217SOL    HW267568   2.324   3.813   1.498  0.9359 -0.9442 -0.8145
21218SOL     OW67569   5.361   4.811   5.234 -0.0971 -0.4918 -0.0669
21218SOL    HW167570   5.387   4.859   5.155  0.6637 -1.0363 -0.1574
21218SOL    HW267571   5.338   4.878   5.297 -2.6121 -0.0034 -1.3280
21219SOL     OW67572   0.576   0.428   5.265 -0.2227 -0.5330  0.0924
21219SOL    HW167573   0.628   0.409   5.187 -0.5163  1.8921 -0.7952
21219SOL    HW267574   0.631   0.403   5.338  1.1394 -0.4209 -0.8642
21220SOL     OW67575   4.090   5.954   0.035 -0.1472 -0.0710  0.3551
21220SOL    HW167576   4.031   5.881   0.051 -0.7820  0.1059 -1.0280
21220SOL    HW267577   4.073   5.979  -0.056  2.1756 -0.1330 -0.1680
21221SOL     OW67578   9.065   1.571   6.546  0.8082  0.0436 -0.0428
21221SOL    HW167579   9.133   1.526   6.495  0.4744 -0.2247 -0.2491
21221SOL    HW267580   9.026   1.502   6.600 -0.5512 -0.1909 -1.2593
21222SOL     OW67581   3.837   6.625   4.064  0.3353 -0.1463  0.0802
21222SOL    HW167582   3.783   6.574   4.123  2.8919 -0.0779  2.6690
21222SOL    HW267583   3.856   6.705   4.112 -1.5656  2.3806 -2.9086
21223SOL     OW67584   9.393   2.855   3.091 -0.2022  0.0547  0.3357
21223SOL    HW167585   9.407   2.921   3.158 -0.2505  0.4730 -0.0604
21223SOL    HW267586   9.304   2.822   3.108  1.1793 -2.8596  3.0660
21224SOL     OW67587   7.222   7.204   9.624 -0.1730  0.8826 -0.1531
21224SOL    HW167588   7.224   7.214   9.719  0.2399  0.4077 -0.1064
21224SOL    HW267589   7.298   7.253   9.593 -0.4637  1.2693 -0.2659
21225SOL     OW67590   6.209   6.863   7.262  0.6366  0.0017  0.4015
21225SOL    HW167591   6.166   6.815   7.192 -0.6846 -1.8868  2.3606
21225SOL    HW267592   6.291   6.815   7.277  1.4803  1.0922 -0.5588
21226SOL     OW67593   5.209   4.414   0.676  0.0491 -0.0663 -0.0513
21226SOL    HW167594   5.129   4.368   0.652 -0.7456  0.2431  1.8473
21226SOL    HW267595   5.180   4.497   0.712  1.2751  0.3741 -0.0304
21227SOL     OW67596   0.855   6.378   4.340 -0.5610 -0.5050 -0.4775
21227SOL    HW167597   0.860   6.430   4.420 -1.0664 -0.4865 -0.4545
21227SOL    HW267598   0.837   6.441   4.271 -0.0232 -0.5077 -0.6289
21228SOL     OW67599   8.063   7.462   5.328  0.0016 -0.4270  0.3264
21228SOL    HW167600   7.994   7.410   5.369  2.1070 -1.7261  2.4847
21228SOL    HW267601   8.019   7.506   5.255 -2.7564 -2.2421  0.7200
21229SOL     OW67602   2.847   3.617   5.692  0.0629  0.0135 -0.2302
21229SOL    HW167603   2.912   3.550   5.674 -1.5552 -1.6969  0.0093
21229SOL    HW267604   2.872   3.690   5.635  2.5593 -0.2712  0.3904
21230SOL     OW67605   3.024   5.944   1.377 -0.2712  0.2460  0.0058
21230SOL    HW167606   3.032   5.924   1.471  1.6316  1.5691  0.1836
21230SOL    HW267607   2.943   5.994   1.370 -1.5611 -1.6159  0.5645
21231SOL     OW67608   5.948   7.910   7.492 -0.4630 -0.3237  0.3703
21231SOL    HW167609   5.983   7.963   7.564  1.8105 -0.1607 -0.7688
21231SOL    HW267610   5.997   7.828   7.496  0.7700  0.2403 -1.8144
21232SOL     OW67611   8.643   0.343   5.884  0.2759 -0.1073 -0.0871
21232SOL    HW167612   8.687   0.309   5.962  1.6942  0.8190 -0.4438
21232SOL    HW267613   8.559   0.297   5.882  0.2700 -0.2731  1.8813
21233SOL     OW67614   0.333   7.910   0.616  0.7574 -0.0161  0.7914
21233SOL    HW167615   0.403   7.872   0.562 -0.9283  0.1377 -1.6527
21233SOL    HW267616   0.357   8.002   0.625  0.6961  0.1259 -0.3793
21234SOL     OW67617   3.830   6.091   3.824 -0.0052 -0.2715  0.5282
21234SOL    HW167618   3.912   6.125   3.788 -0.0627 -0.8863 -0.1898
21234SOL    HW267619   3.805   6.020   3.766 -0.0747 -1.3336  1.8106
21235SOL     OW67620   6.580   5.238   5.344 -0.0780  0.9519 -0.1072
21235SOL    HW167621   6.607   5.249   5.253  0.5176 -1.2226 -0.2462
21235SOL    HW267622   6.530   5.156   5.344  0.1974  0.7558  1.5841
21236SOL     OW67623   9.180   2.049   5.702 -0.5155 -0.1669  0.3679
21236SOL    HW167624   9.116   2.106   5.658  1.3250  1.0151 -0.9782
21236SOL    HW267625   9.262   2.098   5.695  0.6341 -1.8467  1.5856
21237SOL     OW67626   7.900   3.756   8.495  0.1627 -0.1425  0.3113
21237SOL    HW167627   7.934   3.842   8.473 -1.7487  0.3339 -1.0440
21237SOL    HW267628   7.859   3.724   8.414 -0.6284 -1.5894  1.2255
21238SOL     OW67629   0.587   2.763   5.006 -0.0209  0.5280  0.0213
21238SOL    HW167630   0.518   2.801   4.952  0.2396  1.1715  0.1430
21238SOL    HW267631   0.568   2.794   5.095  1.2183  1.8734 -0.1571
21239SOL     OW67632   7.117   5.190   7.748  0.0068  0.1970 -0.6966
21239SOL    HW167633   7.060   5.161   7.819 -1.8476  0.0700 -2.1658
21239SOL    HW267634   7.059   5.238   7.689  1.1273 -0.9853 -2.8813
21240SOL     OW67635   8.904   8.705  10.152 -0.8751 -0.2511 -0.1109
21240SOL    HW167636   8.868   8.696  10.240  0.1177  0.9655  0.4522
21240SOL    HW267637   8.994   8.733  10.166 -0.7193  0.0226 -1.5192
21241SOL     OW67638   8.033   3.205   6.958  0.3051 -0.1917  0.1519
21241SOL    HW167639   7.941   3.180   6.962  0.6292 -1.3702  0.9222
21241SOL    HW267640   8.037   3.289   7.003 -0.4137 -0.0584 -0.0243
21242SOL     OW67641   7.810   4.560   6.288 -0.2846 -0.1040  0.4144
21242SOL    HW167642   7.801   4.487   6.350 -0.1251 -1.7620 -1.4173
21242SOL    HW267643   7.840   4.633   6.342 -3.0096 -0.5824  2.7945
21243SOL     OW67644   0.044   0.769   4.602  0.4045  0.0736  0.1907
21243SOL    HW167645  -0.045   0.802   4.609  0.6140  0.3895  1.8415
21243SOL    HW267646   0.093   0.840   4.561  0.0455  0.1728 -0.0722
21244SOL     OW67647   8.357   4.267   5.288  0.7156  0.5214 -0.2205
21244SOL    HW167648   8.446   4.232   5.286  0.6115  0.2355  0.0125
21244SOL    HW267649   8.301   4.191   5.273  0.5279  0.7855 -0.8811
21245SOL     OW67650   7.543   7.485  10.105 -0.1868  0.1566 -0.1757
21245SOL    HW167651   7.482   7.461  10.035 -1.4318 -1.9835  1.5108
21245SOL    HW267652   7.606   7.413  10.108  0.4647  0.7290  0.2788
21246SOL     OW67653   4.699   7.829   2.270 -0.4208  0.0472  0.4151
21246SOL    HW167654   4.732   7.917   2.253  0.2611 -0.6498 -2.2507
21246SOL    HW267655   4.621   7.843   2.324  1.5126  2.0101  2.9880
21247SOL     OW67656   9.837  10.130   4.940 -0.2103  0.2561  0.5731
21247SOL    HW167657   9.874  10.198   4.883  1.7873 -1.0925  0.1750
21247SOL    HW267658   9.809  10.061   4.880 -1.6868  0.4256  1.0159
21248SOL     OW67659   7.519   3.928   3.581 -0.2991  0.0194 -0.1076
21248SOL    HW167660   7.486   3.988   3.514 -2.1792 -0.1756  0.6003
21248SOL    HW267661   7.487   3.842   3.555  1.6376 -0.6069 -0.6310
21249SOL     OW67662   1.635   5.316   2.577  0.2384  0.3838  0.4952
21249SOL    HW167663   1.661   5.230   2.545  2.1970  0.6942  1.0790
21249SOL    HW267664   1.592   5.299   2.661 -0.1370 -0.0724  0.2136
21250SOL     OW67665   5.113   5.601   3.815  0.4816  0.3203  0.4885
21250SOL    HW167666   5.088   5.693   3.810 -0.4494  0.2664  2.6000
21250SOL    HW267667   5.208   5.602   3.816  0.4871  1.2365  0.1669
21251SOL     OW67668   6.569   5.004   8.880 -0.3281  0.4999  0.0152
21251SOL    HW167669   6.560   5.095   8.908  1.7224  1.0847 -1.0404
21251SOL    HW267670   6.642   4.971   8.933  0.9856  0.4481 -1.7637
21252SOL     OW67671   0.756   1.917   7.285 -0.5605  0.0008  0.7107
21252SOL    HW167672   0.670   1.900   7.321  0.5155 -1.6620  2.7037
21252SOL    HW267673   0.764   1.857   7.211 -1.3630  0.7467 -0.0132
21253SOL     OW67674   6.127   7.995   1.543  0.6965 -0.2276 -0.3159
21253SOL    HW167675   6.036   8.018   1.525  0.2879 -0.0147  1.6920
21253SOL    HW267676   6.150   8.048   1.620  1.8725 -1.6940  0.3940
21254SOL     OW67677   4.129   5.755   9.764  0.5381  0.0644 -0.1021
21254SOL    HW167678   4.086   5.671   9.780  1.2220 -0.1992  0.3587
21254SOL    HW267679   4.058   5.813   9.735  0.2414 -0.9385 -1.4109
21255SOL     OW67680   3.026   4.367   2.823  0.1501 -0.2761 -0.1888
21255SOL    HW167681   3.017   4.462   2.832  0.7419 -0.2526  0.1939
21255SOL    HW267682   3.008   4.351   2.730  1.2017  0.3580 -0.5273
21256SOL     OW67683   4.436   9.748   7.145 -0.0279  0.2886  0.1109
21256SOL    HW167684   4.439   9.843   7.148  0.4622  0.3627 -1.7518
21256SOL    HW267685   4.488   9.724   7.069 -1.8995 -1.3648 -0.7459
21257SOL     OW67686   9.902   6.616   8.576 -0.6339 -0.1911 -0.0795
21257SOL    HW167687   9.911   6.610   8.671  1.6597 -1.3281 -0.3025
21257SOL    HW267688   9.870   6.705   8.561 -0.1947  0.3119  1.7135
21258SOL     OW67689   8.573   5.344   4.867  0.0258  0.3789 -0.1575
21258SOL    HW167690   8.609   5.256   4.880 -0.1355  0.5778  2.0490
21258SOL    HW267691   8.620   5.398   4.930 -2.4635  1.1268  1.1733
21259SOL     OW67692   8.221   2.876   3.522 -0.1032  0.1141  0.5206
21259SOL    HW167693   8.134   2.885   3.561 -0.5731  0.8907 -0.6465
21259SOL    HW267694   8.272   2.948   3.561 -0.0944 -0.0928  0.8965
21260SOL     OW67695   9.613  10.015   2.676 -0.2499  0.0494  0.2960
21260SOL    HW167696   9.589   9.994   2.766 -0.8746 -2.6555 -0.4136
21260SOL    HW267697   9.703  10.047   2.681 -0.5417  0.7041  1.9305
21261SOL     OW67698   0.719   2.313   5.884  0.2131 -0.0056  0.6558
21261SOL    HW167699   0.744   2.242   5.825  2.1436  1.6389 -0.6631
21261SOL    HW267700   0.705   2.388   5.826  1.0815  1.3921  2.1705
21262SOL     OW67701   9.660   6.721   7.849  0.1703  0.7128  0.2014
21262SOL    HW167702   9.728   6.750   7.910 -1.2616 -1.1260  2.8747
21262SOL    HW267703   9.671   6.626   7.844 -0.0898  0.7382 -2.1251
21263SOL     OW67704   4.326   8.798  10.203  0.2628 -0.2808  0.4037
21263SOL    HW167705   4.277   8.730  10.250  0.1277  0.4925  1.3960
21263SOL    HW267706   4.303   8.785  10.111 -2.8563  0.8590  0.9199
21264SOL     OW67707   4.825   4.133   0.899  0.1083  0.6334  0.5217
21264SOL    HW167708   4.771   4.171   0.829  0.5546  0.2153 -0.0570
21264SOL    HW267709   4.761   4.104   0.965 -0.6937 -2.4583 -1.3874
21265SOL     OW67710   0.152   9.184   6.959 -0.9744 -0.0631 -0.1567
21265SOL    HW167711   0.128   9.143   7.042 -0.7683 -0.7306 -0.4244
21265SOL    HW267712   0.234   9.231   6.978 -1.8645  1.3062  0.4714
21266SOL     OW67713   4.580   7.228   7.102  0.2796  0.0267  0.2492
21266SOL    HW167714   4.561   7.318   7.130  1.0554  0.1601  0.3795
21266SOL    HW267715   4.665   7.235   7.058 -0.9596 -0.1440 -2.3398
21267SOL     OW67716   3.443   3.950   8.300 -0.2359  0.0387 -0.1004
21267SOL    HW167717   3.474   4.022   8.246 -0.7213 -0.7881 -1.5478
21267SOL    HW267718   3.466   3.871   8.251 -0.5245 -0.7650  1.0053
21268SOL     OW67719   1.762   3.225   7.914  0.4167  0.1577  0.2612
21268SOL    HW167720   1.809   3.216   7.996  1.4065 -1.6059 -0.4475
21268SOL    HW267721   1.820   3.188   7.848 -0.2011  1.8377 -1.3232
21269SOL     OW67722  10.133   7.007   1.250  0.1530 -0.1681  0.6018
21269SOL    HW167723  10.058   7.057   1.219 -0.0526 -0.2347  0.9745
21269SOL    HW267724  10.099   6.959   1.326 -0.1879 -2.3131 -0.8068
21270SOL     OW67725   6.434   4.215   4.590 -0.0139 -0.0243 -0.3351
21270SOL    HW167726   6.489   4.258   4.525 -0.0203 -0.1444 -0.4209
21270SOL    HW267727   6.449   4.265   4.671 -0.1588  0.2453 -0.4753
21271SOL     OW67728   7.783   4.689   3.974 -0.1255  0.9301  0.1626
21271SOL    HW167729   7.760   4.730   4.058  2.3334  1.1782  0.7887
21271SOL    HW267730   7.856   4.742   3.941  0.0974 -0.2249 -1.2680
21272SOL     OW67731   2.956   6.432   8.402  0.1707 -0.4950 -0.1930
21272SOL    HW167732   2.967   6.428   8.307 -0.4745  2.8520 -0.5459
21272SOL    HW267733   3.039   6.470   8.434 -0.1184 -0.3428  0.4008
21273SOL     OW67734   3.845   6.414   1.738 -0.7516 -0.3175  0.2038
21273SOL    HW167735   3.808   6.459   1.663  0.2911 -0.6191 -0.5126
21273SOL    HW267736   3.938   6.402   1.716 -0.9294 -2.6637  0.3972
21274SOL     OW67737   2.241   6.433   1.142  0.0386 -0.3934  0.6301
21274SOL    HW167738   2.187   6.360   1.174  0.4477 -0.7609  0.4786
21274SOL    HW267739   2.246   6.493   1.217 -1.2039  0.0039  0.4154
21275SOL     OW67740   1.862   9.661   9.953 -1.1138 -0.2369  0.4239
21275SOL    HW167741   1.821   9.584   9.993 -1.3093 -0.0199  0.6389
21275SOL    HW267742   1.900   9.627   9.871 -3.2998 -0.0913 -0.7218
21276SOL     OW67743   7.726   6.068   6.740 -0.1446  0.1233 -0.3529
21276SOL    HW167744   7.782   6.037   6.669 -0.4789 -0.7448 -0.2438
21276SOL    HW267745   7.775   6.140   6.779  1.0373 -0.7978 -0.0819
21277SOL     OW67746   4.117   7.560   7.921 -0.1873  0.1425 -0.1244
21277SOL    HW167747   4.084   7.492   7.980 -0.3316  0.3937  0.0889
21277SOL    HW267748   4.208   7.571   7.946  0.6280 -1.8289 -1.9052
21278SOL     OW67749   1.376   6.587   8.414  0.3240  0.2547 -0.2762
21278SOL    HW167750   1.437   6.631   8.354 -0.1294  0.8553 -0.3054
21278SOL    HW267751   1.291   6.628   8.395  0.0235 -0.1641  0.1725
21279SOL     OW67752   0.690   7.638   8.408 -0.4958 -0.4265 -0.1484
21279SOL    HW167753   0.636   7.692   8.466  0.4578 -1.0173  1.3627
21279SOL    HW267754   0.628   7.600   8.345 -1.2369  2.1136 -1.0655
21280SOL     OW67755   4.745   6.034  10.049 -0.6916  0.4049 -0.0554
21280SOL    HW167756   4.733   5.994  10.135  2.5291  1.2537  0.8963
21280SOL    HW267757   4.665   6.086  10.036 -0.8284  1.1165  2.9263
21281SOL     OW67758   8.324   1.180   4.042  0.4290  0.6443  0.1186
21281SOL    HW167759   8.301   1.270   4.068  1.6890  1.1589 -0.4741
21281SOL    HW267760   8.402   1.160   4.093 -0.9033 -0.8607  1.6718
21282SOL     OW67761   2.406   7.958   7.707  0.2658  0.6147 -0.0056
21282SOL    HW167762   2.336   7.939   7.770  0.9665 -0.9377  0.3498
21282SOL    HW267763   2.364   8.010   7.639 -0.4327  2.7000  1.9141
21283SOL     OW67764   2.384   4.570   2.876  0.3818  0.8881 -0.4019
21283SOL    HW167765   2.447   4.642   2.883  0.6285  0.5569  1.4564
21283SOL    HW267766   2.419   4.502   2.935 -1.8721  0.8655  1.0391
21284SOL     OW67767   2.965   9.778   7.228 -0.0137  0.2760  0.2188
21284SOL    HW167768   2.897   9.772   7.160  0.2318  0.8076 -0.0761
21284SOL    HW267769   2.920   9.818   7.302 -0.5415 -1.1992  0.7257
21285SOL     OW67770   8.807   0.824   3.224  0.4547 -0.5706  0.8928
21285SOL    HW167771   8.779   0.805   3.313 -1.5190 -2.0251  0.0402
21285SOL    HW267772   8.864   0.901   3.232 -0.8463  0.2350  3.2402
21286SOL     OW67773   6.514   8.184   7.832 -0.4055  0.3153  0.6288
21286SOL    HW167774   6.587   8.133   7.867 -0.2226  0.3110  0.2532
21286SOL    HW267775   6.475   8.226   7.908  1.3169  2.0604  0.6258
21287SOL     OW67776   2.705   6.857   6.926 -0.6429  0.0258 -0.2180
21287SOL    HW167777   2.764   6.785   6.904  0.2527  1.0031 -1.0865
21287SOL    HW267778   2.623   6.813   6.951  0.3555 -1.3409  0.8115
21288SOL     OW67779  10.055   2.269   3.343  0.6516  0.4659  0.6424
21288SOL    HW167780  10.030   2.343   3.287  1.0332 -0.0381 -0.2192
21288SOL    HW267781  10.149   2.280   3.357  0.6648  0.2826  0.7008
21289SOL     OW67782   5.793   2.399   2.843  0.1350 -0.2695 -0.4490
21289SOL    HW167783   5.714   2.345   2.852 -0.0908  0.1052 -0.1344
21289SOL    HW267784   5.835   2.367   2.763 -0.2899 -0.5330 -0.5714
21290SOL     OW67785   6.370   6.299   2.102  0.1642 -0.0304  0.9657
21290SOL    HW167786   6.388   6.382   2.057 -0.4481  0.0531  0.8618
21290SOL    HW267787   6.289   6.267   2.062  0.1424 -0.4479  1.3309
21291SOL     OW67788   1.432   5.233   4.249  0.3000  0.0346 -0.2590
21291SOL    HW167789   1.427   5.270   4.337 -3.5269  0.2745 -0.3868
21291SOL    HW267790   1.523   5.204   4.240  0.5882 -1.3821  4.3394
21292SOL     OW67791   0.074   5.965   8.702 -0.4098  0.0101  0.1704
21292SOL    HW167792   0.040   6.046   8.663  0.0099  0.1701  0.1196
21292SOL    HW267793   0.033   5.961   8.788  0.4013  0.8761  0.6273
21293SOL     OW67794   6.951   8.728   4.479  0.2374  0.2446  0.0021
21293SOL    HW167795   6.917   8.679   4.554 -1.2263  1.4645  0.1982
21293SOL    HW267796   7.036   8.761   4.509 -0.1463  0.3707  1.0053
21294SOL     OW67797   6.583   9.718   1.284 -0.0563 -0.0460 -0.1567
21294SOL    HW167798   6.565   9.703   1.377  1.1137 -1.0456 -0.0685
21294SOL    HW267799   6.589   9.814   1.277  2.4711  0.0097  1.3792
21295SOL     OW67800   1.215   8.223   1.476 -0.9362 -0.1955  0.7563
21295SOL    HW167801   1.122   8.215   1.500 -0.6365 -0.0272  2.0213
21295SOL    HW267802   1.262   8.193   1.553  0.0774 -0.6040  0.0002
21296SOL     OW67803   7.277   9.772   1.137 -0.0843  0.3749  0.3664
21296SOL    HW167804   7.361   9.770   1.093 -0.5308 -3.6538 -0.6824
21296SOL    HW267805   7.293   9.731   1.222 -0.5173  2.2791  1.4445
21297SOL     OW67806   5.602   0.141   3.784 -0.3870 -0.6476 -0.2223
21297SOL    HW167807   5.566   0.226   3.808  0.5037 -0.6473  1.2932
21297SOL    HW267808   5.629   0.150   3.693 -2.1285  0.0258 -0.7155
21298SOL     OW67809   1.688   6.551   1.674  0.2487  0.1878 -0.3613
21298SOL    HW167810   1.691   6.638   1.635 -0.2159  0.4372  0.1589
21298SOL    HW267811   1.753   6.553   1.744  2.2930 -0.7686 -2.0992
21299SOL     OW67812   0.487   8.281   3.799  0.2702  0.2688  0.9020
21299SOL    HW167813   0.504   8.338   3.874 -1.6726  0.9111  0.8972
21299SOL    HW267814   0.437   8.335   3.738 -0.3596 -1.0095  0.2477
21300SOL     OW67815   9.168   7.068   9.966  0.0048  0.5024 -0.1352
21300SOL    HW167816   9.082   7.104   9.942  0.2662  2.5731  1.6730
21300SOL    HW267817   9.193   7.014   9.892 -2.2558  0.9486 -1.3145
21301SOL     OW67818   7.664   2.923   4.708  0.1350  0.2601  0.6752
21301SOL    HW167819   7.624   2.995   4.659  0.6112  0.4000  0.4853
21301SOL    HW267820   7.746   2.906   4.662 -0.0554 -0.5257  0.6114
21302SOL     OW67821   3.556   4.977   3.319  0.2333  0.2966 -0.6783
21302SOL    HW167822   3.494   4.975   3.392  0.6339  0.0293 -0.3382
21302SOL    HW267823   3.505   4.948   3.243 -0.2955  0.9833 -0.5975
21303SOL     OW67824   5.284   5.728   5.682 -0.4283 -0.2681 -1.0043
21303SOL    HW167825   5.247   5.642   5.663 -1.2959 -0.2792  0.5770
21303SOL    HW267826   5.350   5.710   5.750  1.4652 -0.0417 -2.7046
21304SOL     OW67827   1.254   3.377   1.737  0.0407  0.5781  1.0391
21304SOL    HW167828   1.162   3.393   1.760 -0.1824 -1.4505  1.8173
21304SOL    HW267829   1.281   3.456   1.691 -3.0080  0.0785 -2.0728
21305SOL     OW67830   7.273   8.611   2.471  0.0267 -0.3929 -0.1299
21305SOL    HW167831   7.201   8.663   2.437 -1.5419 -1.5186  1.2802
21305SOL    HW267832   7.282   8.539   2.409 -1.2813 -1.1957  0.5718
21306SOL     OW67833   5.825   2.693   5.701 -0.3383 -0.0790  0.0970
21306SOL    HW167834   5.819   2.600   5.720  0.3080  0.0799  1.1792
21306SOL    HW267835   5.837   2.698   5.606  1.1669 -1.1848  0.1982
21307SOL     OW67836   4.102   5.363   3.900  0.3504  0.2860 -0.6360
21307SOL    HW167837   4.078   5.270   3.899  1.5967 -0.0786  0.3744
21307SOL    HW267838   4.139   5.379   3.812  1.4972 -0.5840 -0.3367
21308SOL     OW67839   3.676   9.872   4.152 -0.2275  0.0861 -0.3778
21308SOL    HW167840   3.731   9.951   4.161  0.7770 -0.6646  0.3211
21308SOL    HW267841   3.614   9.878   4.225 -0.7629  0.6775 -0.8663
21309SOL     OW67842   9.698   6.046   0.381 -0.1859  0.0285 -0.3001
21309SOL    HW167843   9.794   6.046   0.388 -0.1956  0.9575  0.1013
21309SOL    HW267844   9.668   6.040   0.472 -0.4943  0.4390 -0.3721
21310SOL     OW67845   6.077   2.769   5.279  0.6394  0.0400 -0.5307
21310SOL    HW167846   6.040   2.836   5.336  1.2848  1.6765 -1.9426
21310SOL    HW267847   6.147   2.729   5.330 -0.8855 -0.8219  0.9668
21311SOL     OW67848   1.840   3.615   6.148 -0.8405 -0.2039 -0.1370
21311SOL    HW167849   1.920   3.663   6.167 -1.5961 -0.0977  3.4242
21311SOL    HW267850   1.864   3.523   6.157 -0.8767 -0.2328 -0.3177
21312SOL     OW67851   8.433   4.415   5.987 -0.0005 -0.0264 -0.7158
21312SOL    HW167852   8.421   4.385   5.897 -1.0156 -0.4515 -0.4483
21312SOL    HW267853   8.447   4.335   6.038 -0.4806  0.1166 -0.3440
21313SOL     OW67854   9.379   6.679   9.156 -0.6102 -0.4686  0.1815
21313SOL    HW167855   9.292   6.690   9.194 -1.3584 -0.8609 -1.3157
21313SOL    HW267856   9.382   6.743   9.085  0.5162 -0.1454  0.5016
21314SOL     OW67857   5.032   0.212   2.265 -0.1805  0.0937  0.2980
21314SOL    HW167858   4.960   0.171   2.313  0.4442 -0.4097  0.8160
21314SOL    HW267859   5.106   0.208   2.325  0.1134  1.2212  0.0329
21315SOL     OW67860   5.748   9.011   6.334 -0.2464 -0.0741 -0.5614
21315SOL    HW167861   5.668   8.962   6.316 -1.5650  1.9690 -0.6376
21315SOL    HW267862   5.754   9.075   6.262  0.4084  1.0298  0.4316
21316SOL     OW67863   6.213   1.122   3.690  0.1202  0.3150 -0.4133
21316SOL    HW167864   6.250   1.096   3.606  0.7960  2.5034 -0.8546
21316SOL    HW267865   6.283   1.105   3.753  1.5488  3.1988 -1.0578
21317SOL     OW67866   9.704   7.586   7.702  0.1101 -0.0775 -0.6333
21317SOL    HW167867   9.732   7.494   7.706  0.3298  0.0266  0.3282
21317SOL    HW267868   9.612   7.582   7.676  0.4835 -0.5021 -1.9973
21318SOL     OW67869   1.330  10.079   7.946 -0.3561  0.3908 -0.3557
21318SOL    HW167870   1.245  10.035   7.958  0.9519 -2.5055 -0.7240
21318SOL    HW267871   1.311  10.150   7.885 -2.8695  1.2150  1.2124
21319SOL     OW67872   3.267   2.887   3.293 -0.3265  0.1240  0.2711
21319SOL    HW167873   3.341   2.917   3.241  0.3403  0.5899  1.4527
21319SOL    HW267874   3.291   2.907   3.383 -1.6352 -0.2693  0.7339
21320SOL     OW67875   5.300   4.141   1.095 -0.2710  0.0794  0.7032
21320SOL    HW167876   5.352   4.076   1.049  0.0143  0.8983 -0.1751
21320SOL    HW267877   5.313   4.222   1.044 -1.1882  0.6445  1.3402
21321SOL     OW67878   4.756   7.985   0.993  0.1112 -0.0817  0.9074
21321SOL    HW167879   4.748   7.895   1.023  0.1069 -1.1105 -1.8884
21321SOL    HW267880   4.787   8.033   1.070  1.4440 -2.6915  2.1395
21322SOL     OW67881   8.047   3.211   3.094  0.3409  0.5183  0.3223
21322SOL    HW167882   8.091   3.186   3.013  0.0900 -0.0875  0.3724
21322SOL    HW267883   8.118   3.234   3.154  0.4873  3.5005 -0.8495
21323SOL     OW67884   4.448   1.864   8.586 -0.0413  0.1349 -0.3636
21323SOL    HW167885   4.469   1.791   8.644  1.8599  0.7951 -0.1471
21323SOL    HW267886   4.437   1.939   8.645 -0.9037  0.2672 -0.6718
21324SOL     OW67887   5.792   7.836   7.919  0.5413 -0.0853 -0.4228
21324SOL    HW167888   5.771   7.744   7.901  1.9393 -0.6796  0.7060
21324SOL    HW267889   5.887   7.835   7.935  0.2330  1.1513  1.8421
21325SOL     OW67890   2.288   3.538   2.453  0.3150 -1.0317  0.0178
21325SOL    HW167891   2.210   3.580   2.490  1.8865  1.0676  1.1616
21325SOL    HW267892   2.331   3.607   2.404  1.7015 -2.0121 -0.2002
21326SOL     OW67893   6.476   8.709   5.360  0.4242  0.1734  0.0646
21326SOL    HW167894   6.411   8.779   5.351  1.5525  1.3726  0.6980
21326SOL    HW267895   6.428   8.635   5.397 -0.6958  0.8137 -0.0639
21327SOL     OW67896   9.059   5.047   6.218 -0.1725  0.5237  0.7793
21327SOL    HW167897   9.008   4.972   6.189 -0.6646  0.1764  2.4143
21327SOL    HW267898   9.148   5.015   6.228  0.4358  1.1138 -2.0189
21328SOL     OW67899   7.572   5.631   8.055  0.3018  0.4806 -0.3250
21328SOL    HW167900   7.503   5.648   8.119 -0.2255  2.7626 -1.4222
21328SOL    HW267901   7.653   5.639   8.104 -0.1344  0.0370  0.4887
21329SOL     OW67902   0.616   5.647   7.516 -0.2235 -0.4782 -0.4723
21329SOL    HW167903   0.687   5.675   7.574 -0.0098 -0.1205 -0.9031
21329SOL    HW267904   0.634   5.554   7.500 -1.7428 -1.3223  2.1215
21330SOL     OW67905   7.613   2.432   2.874 -0.1080  0.4352  0.3121
21330SOL    HW167906   7.573   2.441   2.961  0.8698  1.3378  0.6874
21330SOL    HW267907   7.538   2.423   2.814 -0.8421  1.2147  1.0941
21331SOL     OW67908   9.160   9.668   6.845  0.0542 -0.2173  0.1357
21331SOL    HW167909   9.223   9.740   6.855  2.0456 -1.9814  0.9093
21331SOL    HW267910   9.161   9.648   6.751  1.5871 -0.9939  0.2939
21332SOL     OW67911   0.112   2.269   3.439 -0.3584  0.1971  0.2223
21332SOL    HW167912   0.094   2.361   3.422  1.7077  0.7574  0.8077
21332SOL    HW267913   0.171   2.269   3.514 -0.8010 -1.6523  0.6357
21333SOL     OW67914   0.291   6.881   1.470 -0.5584  0.0815 -0.0667
21333SOL    HW167915   0.323   6.817   1.406 -1.5003  0.5500 -1.0340
21333SOL    HW267916   0.219   6.926   1.426 -2.4275 -0.7734  1.9146
21334SOL     OW67917   2.194   7.480   1.838 -0.4564  0.3293 -0.0878
21334SOL    HW167918   2.134   7.415   1.873 -0.2630  0.9145  1.3949
21334SOL    HW267919   2.214   7.538   1.912  2.5449 -0.2876 -0.2651
21335SOL     OW67920   8.215   0.198   5.391 -0.3832 -0.3874  0.2501
21335SOL    HW167921   8.146   0.176   5.328 -1.4277 -0.8147  1.4934
21335SOL    HW267922   8.169   0.246   5.460  0.2815 -1.8873  1.8092
21336SOL     OW67923   3.480   1.988   8.102  0.5463 -0.5437  0.1497
21336SOL    HW167924   3.534   1.959   8.175  0.6746  0.2694  0.3851
21336SOL    HW267925   3.412   1.921   8.093 -0.2281 -0.0209  1.8208
21337SOL     OW67926   7.336   6.517   5.230  0.0014 -0.3272  0.3215
21337SOL    HW167927   7.314   6.453   5.297 -2.5245 -0.2068 -0.3151
21337SOL    HW267928   7.293   6.486   5.150 -2.1957  2.5684  0.2059
21338SOL     OW67929   3.117   5.939   0.429  0.4841 -0.3148  0.3446
21338SOL    HW167930   3.163   5.954   0.511  3.0319 -1.5303 -0.7423
21338SOL    HW267931   3.101   5.845   0.427 -0.6637 -0.1348 -0.0506
21339SOL     OW67932   2.386   1.197   4.732 -0.4251 -0.1551  0.2857
21339SOL    HW167933   2.455   1.171   4.670 -0.0844  1.1741  0.0851
21339SOL    HW267934   2.308   1.151   4.701 -0.1764  0.2078 -0.9266
21340SOL     OW67935  10.106   9.317   6.845  0.2776  0.5700  0.3987
21340SOL    HW167936  10.035   9.254   6.830 -1.2059  2.4214 -1.0158
21340SOL    HW267937  10.181   9.264   6.872 -0.7752 -1.8233 -1.0436
21341SOL     OW67938   5.039   3.292   0.129  0.1129 -0.3502  0.2518
21341SOL    HW167939   4.981   3.341   0.188 -0.5210 -0.1958 -0.4712
21341SOL    HW267940   4.995   3.208   0.117 -0.1374 -0.1111 -0.5570
21342SOL     OW67941   0.648   9.065   8.486  0.2789 -0.3502 -0.2110
21342SOL    HW167942   0.589   9.005   8.441  0.0034 -1.3761  1.4578
21342SOL    HW267943   0.690   9.012   8.553  2.9651  0.4009 -1.1703
21343SOL     OW67944   4.106   2.332   7.974  0.6209  0.0996  0.1185
21343SOL    HW167945   4.152   2.410   7.943 -0.2192  0.9200  0.8640
21343SOL    HW267946   4.173   2.282   8.020  1.3769 -0.0672 -1.1180
21344SOL     OW67947   7.503   3.939   2.501  0.3160 -0.1408  0.5797
21344SOL    HW167948   7.521   3.976   2.587  1.4190  1.9753 -0.4608
21344SOL    HW267949   7.412   3.965   2.482 -0.0486 -0.9241  1.2323
21345SOL     OW67950   4.868   5.083   8.365  0.2926  0.5899  0.4172
21345SOL    HW167951   4.833   5.099   8.453 -2.0413 -1.7670  0.0293
21345SOL    HW267952   4.946   5.028   8.380 -2.0421 -2.8758  1.0638
21346SOL     OW67953   2.201   9.173   8.935 -0.2293  0.2804 -0.1961
21346SOL    HW167954   2.180   9.222   8.855 -0.0227 -0.1799 -0.5365
21346SOL    HW267955   2.277   9.120   8.911 -1.4350 -1.4380 -0.3199
21347SOL     OW67956   2.926   5.456   2.186  0.4669  0.5409  0.2428
21347SOL    HW167957   2.971   5.464   2.270  1.1002  0.4071 -0.0788
21347SOL    HW267958   2.988   5.491   2.122 -0.1086  0.8721 -0.1437
21348SOL     OW67959   6.931   0.388   6.848  0.2913  0.1558 -0.2760
21348SOL    HW167960   6.955   0.449   6.918 -0.5982  1.0352 -0.7174
21348SOL    HW267961   6.839   0.368   6.864 -0.4881  1.8335 -2.2195
21349SOL     OW67962   0.752   8.545   7.030  0.5456  0.6778 -0.0282
21349SOL    HW167963   0.695   8.552   6.953  0.2020  1.3868  0.2798
21349SOL    HW267964   0.717   8.471   7.079 -0.1072  1.0928  0.1446
21350SOL     OW67965   6.474   1.721   9.668 -0.0215  0.1965  0.0450
21350SOL    HW167966   6.547   1.704   9.608  0.9058  0.2898  1.1025
21350SOL    HW267967   6.487   1.812   9.695 -0.8375  0.3747 -0.1585
21351SOL     OW67968   1.406   3.297   3.181  0.1585  0.1833  0.2990
21351SOL    HW167969   1.490   3.276   3.223  0.4648  2.4740  0.9982
21351SOL    HW267970   1.351   3.327   3.253 -1.1926 -0.9935 -0.2029
21352SOL     OW67971   5.121   9.864   9.842 -0.3812 -0.0490 -0.3821
21352SOL    HW167972   5.098   9.873   9.750 -0.7753  0.0040 -0.2800
21352SOL    HW267973   5.037   9.867   9.888 -0.0504  3.7003  0.3057
21353SOL     OW67974   4.700   5.423   4.641  0.4948 -0.7030 -0.0973
21353SOL    HW167975   4.784   5.468   4.641 -0.2354  0.7148  0.4297
21353SOL    HW267976   4.722   5.331   4.623  2.1036 -0.3043 -0.3110
21354SOL     OW67977   9.014   8.351   7.874  0.4636 -0.1340  0.0907
21354SOL    HW167978   8.971   8.266   7.875  2.0648 -1.0006 -0.7104
21354SOL    HW267979   8.975   8.398   7.800  0.4715 -0.6724 -0.2573
21355SOL     OW67980   6.783   7.078   9.443  0.0081 -0.4292  0.2518
21355SOL    HW167981   6.782   6.994   9.397  2.0089  0.5457 -1.7710
21355SOL    HW267982   6.862   7.074   9.498  0.2719  0.1860 -0.0658
21356SOL     OW67983   5.403   9.026   0.134  0.3788  0.1243 -0.2953
21356SOL    HW167984   5.411   8.986   0.048 -0.0133 -0.6183  0.0097
21356SOL    HW267985   5.377   8.955   0.192  0.8197  0.5740  0.4780
21357SOL     OW67986   5.272   8.817   3.571 -0.3110  0.0995 -0.6306
21357SOL    HW167987   5.367   8.824   3.563 -0.0821 -1.1628  0.6159
21357SOL    HW267988   5.258   8.784   3.660 -1.9195  0.2490 -0.8006
21358SOL     OW67989   7.175   4.009   9.080 -0.0218 -0.2826 -0.0984
21358SOL    HW167990   7.210   3.999   8.991  2.7439  0.2142  0.8204
21358SOL    HW267991   7.163   3.920   9.112  2.7145 -0.6121  0.2738
21359SOL     OW67992   3.670   6.641   1.961  0.1222 -0.1628  0.9313
21359SOL    HW167993   3.648   6.548   1.966  1.6098 -0.4928  2.5527
21359SOL    HW267994   3.762   6.643   1.933  0.0090  0.8397  0.5827
21360SOL     OW67995   4.604   4.533   6.488 -0.1399  0.2778 -0.3971
21360SOL    HW167996   4.563   4.472   6.427 -0.4709  0.6554 -0.5552
21360SOL    HW267997   4.533   4.589   6.518  0.1498  0.5521 -0.2067
21361SOL     OW67998   6.498   7.308   9.999  0.7574  0.1765  0.2611
21361SOL    HW167999   6.476   7.249   9.927  1.5314 -0.5689  0.6236
21361SOL    HW268000   6.556   7.373   9.959  0.3890  0.3525 -0.0008
21362SOL     OW68001   3.079  10.059   6.614 -0.2196  0.3255  0.0595
21362SOL    HW168002   3.088  10.076   6.521  3.5242  2.0655  0.5655
21362SOL    HW268003   3.114  10.137   6.657  2.0552 -1.9488  2.8069
21363SOL     OW68004  10.147   5.658   0.701 -0.5372  0.2153 -0.1064
21363SOL    HW168005  10.103   5.742   0.699 -1.6840 -0.3650 -0.0867
21363SOL    HW268006  10.239   5.679   0.720 -1.4619  1.2035  4.0600
21364SOL     OW68007   3.097   3.905   7.544  0.2325 -1.0544 -0.0324
21364SOL    HW168008   3.115   3.811   7.534  0.7510 -0.7445 -2.6715
21364SOL    HW268009   3.028   3.923   7.481  0.8017  0.5188 -0.2477
21365SOL     OW68010   8.494   6.394   4.787 -0.5848 -0.3730 -0.3737
21365SOL    HW168011   8.556   6.459   4.820 -0.3204 -1.1700  0.7772
21365SOL    HW268012   8.440   6.441   4.724 -1.1637  1.2765  1.2639
21366SOL     OW68013   0.450   4.604   2.853  0.3662 -0.0434  0.1982
21366SOL    HW168014   0.433   4.511   2.843  3.1207 -0.6462  0.4773
21366SOL    HW268015   0.505   4.628   2.778  2.9810  0.3745  2.1158
21367SOL     OW68016   5.412   4.482   1.272 -0.1472 -0.5805  0.2406
21367SOL    HW168017   5.321   4.496   1.297 -0.4873 -3.3357  0.8718
21367SOL    HW268018   5.430   4.549   1.207 -2.7407 -0.1912 -0.1688
21368SOL     OW68019   3.619   2.009   5.547  0.2400 -0.4270  0.3094
21368SOL    HW168020   3.619   1.973   5.458 -0.3384 -0.7986  0.4562
21368SOL    HW268021   3.542   1.971   5.589  2.1278 -2.7843  1.9730
21369SOL     OW68022   4.484   3.135   9.858  0.3164  0.4684  0.2776
21369SOL    HW168023   4.510   3.187   9.934 -0.5052  1.7065 -0.2588
21369SOL    HW268024   4.395   3.106   9.878  0.2852  0.3739  0.0118
21370SOL     OW68025   6.955   0.416   2.501  0.0838  0.2656 -0.5437
21370SOL    HW168026   6.916   0.330   2.515  0.4349  0.2300  0.2573
21370SOL    HW268027   6.888   0.478   2.531 -0.1285  0.2774 -1.0261
21371SOL     OW68028   3.016   5.263   7.822 -0.4338 -0.4520  0.2051
21371SOL    HW168029   2.958   5.305   7.886  0.0443 -0.2076  0.4831
21371SOL    HW268030   2.972   5.276   7.738 -0.3843  0.4494  0.3086
21372SOL     OW68031   5.001   9.211   1.396  0.1983 -0.4021 -0.4155
21372SOL    HW168032   4.978   9.121   1.372  2.1958 -0.7354 -1.2842
21372SOL    HW268033   5.003   9.259   1.313  1.4875 -0.1584 -0.2739
21373SOL     OW68034   3.940   5.611   1.920 -0.2526 -0.8767  0.4759
21373SOL    HW168035   4.000   5.641   1.988  0.7549  0.2829 -0.8624
21373SOL    HW268036   3.871   5.677   1.917  0.4140 -0.1902 -0.4872
21374SOL     OW68037   1.621   6.145   2.303  0.1255  0.0153  0.8861
21374SOL    HW168038   1.595   6.226   2.258 -0.1699  0.5600  2.0147
21374SOL    HW268039   1.716   6.154   2.315  0.2137 -0.1535  0.3448
21375SOL     OW68040   8.052   4.068   8.466 -0.4499 -0.3073 -0.4165
21375SOL    HW168041   8.038   4.124   8.390 -0.3412 -0.5977 -0.6560
21375SOL    HW268042   8.138   4.092   8.499 -0.1900 -0.6728 -0.8162
21376SOL     OW68043   6.253   7.858   7.562 -0.4925  0.5587  0.2207
21376SOL    HW168044   6.331   7.809   7.589 -0.6288 -0.1564 -0.6321
21376SOL    HW268045   6.248   7.931   7.624  0.1633 -0.0694  1.0415
21377SOL     OW68046   2.442   0.751   9.235  0.1779  0.5601 -0.3865
21377SOL    HW168047   2.486   0.826   9.276  1.6170 -1.1553  1.4072
21377SOL    HW268048   2.513   0.697   9.200 -0.7213 -0.6066 -0.4749
21378SOL     OW68049   7.506   6.568   7.345 -0.9386 -0.3166  0.1385
21378SOL    HW168050   7.568   6.496   7.337 -1.0023 -0.2688 -0.8954
21378SOL    HW268051   7.431   6.531   7.392  0.3517 -0.0384  2.5692
21379SOL     OW68052   7.448   8.664   5.205 -0.6859 -0.1464  0.7615
21379SOL    HW168053   7.372   8.641   5.151  0.8906 -1.1577 -1.1674
21379SOL    HW268054   7.494   8.730   5.153 -0.5677  0.9738  2.2253
21380SOL     OW68055   5.770   2.084  10.156 -0.5688  0.5042  0.0980
21380SOL    HW168056   5.780   2.072  10.251 -0.6252  0.5312  0.1073
21380SOL    HW268057   5.715   2.011  10.129  0.9170 -0.5555 -0.1946
21381SOL     OW68058   7.102  10.002   5.278 -0.1479  0.4792 -0.4957
21381SOL    HW168059   7.042  10.034   5.346  0.4854 -0.2587  0.4330
21381SOL    HW268060   7.045   9.984   5.203 -1.0337  0.2221  0.2183
21382SOL     OW68061   9.305   1.711   4.163 -0.1443 -0.0847  0.2027
21382SOL    HW168062   9.245   1.771   4.208 -0.4652 -1.1984  1.3529
21382SOL    HW268063   9.254   1.676   4.090 -0.4815 -0.0784  0.4303
21383SOL     OW68064   3.413   2.969   1.074  0.0444  0.1793  0.0614
21383SOL    HW168065   3.453   3.056   1.081 -0.1452  0.2748 -0.0263
21383SOL    HW268066   3.387   2.947   1.164 -2.4006  1.4053 -0.2470
21384SOL     OW68067   6.431   2.467   3.686 -0.6149 -0.0902 -0.3901
21384SOL    HW168068   6.453   2.380   3.718 -0.2261  0.3565  0.6091
21384SOL    HW268069   6.440   2.461   3.591  0.2397 -0.9155 -0.2687
21385SOL     OW68070   3.765   6.747   5.890  0.0289 -0.5595 -0.2611
21385SOL    HW168071   3.858   6.746   5.912  0.6222  4.2252 -1.3334
21385SOL    HW268072   3.720   6.747   5.975  1.4976  3.2217  0.7204
21386SOL     OW68073   1.206   8.373   0.735  0.3821  0.1436  0.2111
21386SOL    HW168074   1.187   8.424   0.814  1.6414  1.6930 -0.4222
21386SOL    HW268075   1.125   8.376   0.684  0.0395  0.4231  0.7659
21387SOL     OW68076   2.262   5.040   3.557 -0.2257  0.1906  0.0399
21387SOL    HW168077   2.324   4.982   3.601 -1.3768 -0.7173  0.5075
21387SOL    HW268078   2.194   5.056   3.622 -0.6199  0.9626 -0.5515
21388SOL     OW68079  10.158   6.197   5.865 -0.3890 -0.5127  0.1950
21388SOL    HW168080  10.166   6.270   5.803 -1.0033 -1.3834 -0.9610
21388SOL    HW268081  10.248   6.177   5.891 -0.1568  0.1343 -0.0909
21389SOL     OW68082   6.027   6.279   4.469  0.4343 -0.7842 -0.3704
21389SOL    HW168083   6.117   6.247   4.458 -0.3249 -2.8058 -1.1013
21389SOL    HW268084   6.000   6.247   4.555  0.3771 -0.2159 -0.1706
21390SOL     OW68085   8.414  10.080   8.956 -0.2405 -0.1341  0.1249
21390SOL    HW168086   8.436  10.083   9.049  0.9404 -1.8815 -0.0358
21390SOL    HW268087   8.497  10.063   8.913 -0.3681  2.8558 -1.5206
21391SOL     OW68088   9.731   0.706   8.670 -0.1758  0.2097 -0.0580
21391SOL    HW168089   9.823   0.700   8.646 -0.0752  0.2389  0.3093
21391SOL    HW268090   9.731   0.745   8.758 -0.5189 -0.0837  0.0778
21392SOL     OW68091   3.226   0.952   6.989 -0.3910  0.0905 -0.4830
21392SOL    HW168092   3.314   0.942   7.026 -0.1921 -0.5064 -1.0876
21392SOL    HW268093   3.239   1.002   6.909 -0.5195 -0.4473 -0.8487
21393SOL     OW68094   8.581   4.162   4.312 -0.6356 -0.0739 -0.1464
21393SOL    HW168095   8.566   4.256   4.326  1.1159  0.1297  0.5501
21393SOL    HW268096   8.674   4.149   4.331 -0.8273 -1.9488 -0.3195
21394SOL     OW68097   5.023   6.353   9.680 -0.0511  0.6800  0.1413
21394SOL    HW168098   5.009   6.310   9.764 -1.3577  2.2652  0.7999
21394SOL    HW268099   4.938   6.348   9.635  1.0941 -1.8720 -2.0257
21395SOL     OW68100   3.332   7.039   8.697 -0.6596  0.0648  0.5794
21395SOL    HW168101   3.360   7.131   8.692  0.5851 -0.3075  0.3890
21395SOL    HW268102   3.267   7.030   8.628  0.0984  0.5173 -0.2158
21396SOL     OW68103   1.225   2.307   2.923  0.7468 -0.0196  0.5099
21396SOL    HW168104   1.132   2.304   2.900  0.4079 -0.2991  1.8337
21396SOL    HW268105   1.260   2.224   2.891  0.9360  0.8003 -1.5098
21397SOL     OW68106   7.418   8.496   0.291  0.2089 -1.0392 -0.0572
21397SOL    HW168107   7.492   8.485   0.231  1.7760  0.0162  1.5837
21397SOL    HW268108   7.440   8.573   0.344 -2.3366 -0.3331  0.1487
21398SOL     OW68109   6.443   2.119   2.419 -0.4906  0.3437  0.2338
21398SOL    HW168110   6.487   2.059   2.359 -0.1802  1.8056 -1.0599
21398SOL    HW268111   6.494   2.200   2.415 -2.0466  1.3835  0.3372
21399SOL     OW68112   0.853   8.930   1.236  0.3509 -0.2888 -0.5155
21399SOL    HW168113   0.833   8.877   1.313 -0.8547  2.5558  1.3067
21399SOL    HW268114   0.890   8.868   1.173 -2.2004 -3.4752  0.8514
21400SOL     OW68115   2.761   7.057   0.734  0.2199  0.5241  0.0956
21400SOL    HW168116   2.829   7.121   0.713  1.4958 -1.0341 -0.6979
21400SOL    HW268117   2.798   7.006   0.806 -0.3421  0.0029  0.0201
21401SOL     OW68118   3.772   4.489   5.419 -0.2038  0.3232  0.2465
21401SOL    HW168119   3.840   4.541   5.377 -0.4897 -1.3459 -2.4931
21401SOL    HW268120   3.692   4.540   5.407 -0.1504  0.2259 -0.5841
21402SOL     OW68121   4.100   5.685   3.386  0.2062 -0.2273 -0.4438
21402SOL    HW168122   4.187   5.675   3.425 -0.5258 -0.1968  1.3146
21402SOL    HW268123   4.092   5.611   3.326  0.5407 -1.7339  1.2626
21403SOL     OW68124   4.730   2.335   6.734 -0.6027  0.3490 -0.4635
21403SOL    HW168125   4.747   2.427   6.714  0.0635  0.0707 -1.2452
21403SOL    HW268126   4.692   2.300   6.653 -2.0189  0.2240  0.2468
21404SOL     OW68127   5.735   1.458   6.482  0.3543  0.2831  0.4067
21404SOL    HW168128   5.818   1.412   6.482  0.3847  0.2120 -2.0666
21404SOL    HW268129   5.707   1.458   6.390 -0.4809  3.6795  0.5379
21405SOL     OW68130   2.104   9.754   0.454 -0.0578  0.1268 -0.0826
21405SOL    HW168131   2.081   9.827   0.511  1.3649 -0.3421  1.1626
21405SOL    HW268132   2.023   9.705   0.444 -0.5131  0.6577  0.8815
21406SOL     OW68133   7.963   3.213   3.700 -0.1679  0.6469  0.2343
21406SOL    HW168134   7.933   3.182   3.785  0.9746  1.3783  0.9266
21406SOL    HW268135   7.939   3.305   3.697 -0.5747  0.5256 -0.4178
21407SOL     OW68136   3.420   0.549   8.443 -0.1212  0.3201 -0.0590
21407SOL    HW168137   3.479   0.610   8.399 -0.0082  0.8680  0.8224
21407SOL    HW268138   3.420   0.471   8.388  1.2824  0.3847 -0.1735
21408SOL     OW68139   6.676   0.949  10.033 -0.4181 -0.8561 -0.3107
21408SOL    HW168140   6.729   0.973   9.957 -0.5183 -1.2373 -0.5011
21408SOL    HW268141   6.591   0.992  10.018  0.3786  1.3130  0.8818
21409SOL     OW68142   8.635   4.992   7.555  0.0273  0.2938  0.5560
21409SOL    HW168143   8.698   4.981   7.627  0.4362  0.3984  0.2208
21409SOL    HW268144   8.635   4.908   7.510  2.7442  1.3156 -1.6738
21410SOL     OW68145   1.079   3.330   2.775 -0.4482 -0.0087  0.3439
21410SOL    HW168146   1.126   3.312   2.856  2.0722  1.4362 -0.6934
21410SOL    HW268147   1.094   3.422   2.758 -0.2706 -0.4305 -2.1310
21411SOL     OW68148   7.101   8.924   1.498  0.1961 -0.6566 -0.2712
21411SOL    HW168149   7.071   8.835   1.479 -1.5649  0.0927 -1.2133
21411SOL    HW268150   7.174   8.938   1.438 -0.5266 -0.9320 -1.2353
21412SOL     OW68151   5.867  10.091   2.961 -0.4054  0.3941  0.0197
21412SOL    HW168152   5.852  10.064   2.871 -0.4152  1.5318 -0.3434
21412SOL    HW268153   5.818  10.028   3.014  0.4363 -0.8889 -0.7021
21413SOL     OW68154   4.423   1.445   1.655 -0.2160 -0.1563  0.3689
21413SOL    HW168155   4.394   1.361   1.617 -0.0803 -0.0350 -0.0034
21413SOL    HW268156   4.360   1.509   1.622 -0.3876 -0.1283  0.7465
21414SOL     OW68157   6.144   4.541   7.236 -0.2324  0.0370  0.0590
21414SOL    HW168158   6.163   4.451   7.211 -1.1430 -0.3859  0.8537
21414SOL    HW268159   6.064   4.536   7.288  1.0438  0.9908  2.2551
21415SOL     OW68160   4.199   5.046   3.634  0.1298 -0.2863  0.0977
21415SOL    HW168161   4.283   5.091   3.627 -0.4504  0.7642 -0.2460
21415SOL    HW268162   4.215   4.976   3.697  1.4366 -0.5210 -0.4674
21416SOL     OW68163   8.406   0.926   2.298  0.1266 -0.0051  0.0138
21416SOL    HW168164   8.422   0.947   2.206 -2.5722  3.0680  0.0634
21416SOL    HW268165   8.311   0.919   2.305  0.3315 -1.7377  2.3368
21417SOL     OW68166   4.294   8.114   7.059 -0.7258 -0.6941  0.4601
21417SOL    HW168167   4.321   8.101   7.150 -0.1316 -0.9838  0.2423
21417SOL    HW268168   4.363   8.074   7.007 -0.1082  1.0998 -0.1767
21418SOL     OW68169   6.859   3.894   3.956 -0.0515  0.4500 -0.7066
21418SOL    HW168170   6.927   3.931   4.013 -0.3607 -0.6308  0.4045
21418SOL    HW268171   6.827   3.969   3.906 -0.3436  1.6414  1.1413
21419SOL     OW68172   6.242   5.735   2.029 -0.3090  0.1248 -0.0760
21419SOL    HW168173   6.267   5.673   2.098  1.1971  1.1124  0.2980
21419SOL    HW268174   6.175   5.688   1.979  0.3509 -1.5863  0.5508
21420SOL     OW68175   0.876   5.115   6.953  0.1131  0.3029  0.1690
21420SOL    HW168176   0.927   5.195   6.962 -0.5942  0.8836 -0.8024
21420SOL    HW268177   0.865   5.105   6.858 -1.1435 -0.0815  0.3462
21421SOL     OW68178   8.641   1.541   3.016 -0.1078 -0.5579  0.2481
21421SOL    HW168179   8.720   1.494   3.044 -1.0038 -1.7633  0.8066
21421SOL    HW268180   8.667   1.633   3.016  1.3548 -0.9420  0.2335
21422SOL     OW68181   8.262   3.987   2.324 -0.2133  0.5072  0.5495
21422SOL    HW168182   8.295   3.941   2.247 -1.2590 -0.4305  0.6261
21422SOL    HW268183   8.257   3.920   2.392 -0.1186  1.1282  1.1831
21423SOL     OW68184   2.408   3.273   6.717 -0.3684  0.5392  0.2749
21423SOL    HW168185   2.488   3.293   6.668 -0.0799  0.0526  0.5388
21423SOL    HW268186   2.340   3.272   6.650 -0.2065  1.2654  0.0950
21424SOL     OW68187   9.611   4.168   7.806  0.1999  0.0459 -0.2232
21424SOL    HW168188   9.610   4.255   7.765  1.1253 -0.3047 -1.0511
21424SOL    HW268189   9.533   4.124   7.771 -0.7702  0.8274  0.8970
21425SOL     OW68190   8.556   2.596   0.333 -0.1840 -0.6520 -0.2853
21425SOL    HW168191   8.463   2.586   0.352 -0.1438 -1.4086 -0.4837
21425SOL    HW268192   8.576   2.686   0.359 -1.0343 -0.3900 -0.5144
21426SOL     OW68193   1.446   8.080   8.675 -0.0096  0.2538 -0.5636
21426SOL    HW168194   1.468   8.161   8.629 -0.1084  0.8211  0.3664
21426SOL    HW268195   1.354   8.065   8.654 -0.6945  1.7067  1.1603
21427SOL     OW68196   3.684   9.072   2.190  0.1790  0.3957  0.3707
21427SOL    HW168197   3.725   9.107   2.111 -1.3654  0.4732 -0.4212
21427SOL    HW268198   3.728   8.988   2.205 -0.9969 -0.6979 -1.8615
21428SOL     OW68199   7.318   9.787   0.702 -0.5713  0.1801  0.3546
21428SOL    HW168200   7.276   9.702   0.716  0.9341 -0.8286 -0.8361
21428SOL    HW268201   7.268   9.827   0.632 -1.3649  0.3515  1.0032
21429SOL     OW68202   8.201   3.420   4.982 -0.0077  0.0409  0.3010
21429SOL    HW168203   8.120   3.461   5.012  0.5359 -0.5276  2.7158
21429SOL    HW268204   8.253   3.408   5.061  2.6269  0.7051 -1.2132
21430SOL     OW68205   8.746   2.396   2.300 -0.0155  0.1341 -0.0815
21430SOL    HW168206   8.665   2.394   2.249 -0.2301 -0.4940  0.2725
21430SOL    HW268207   8.736   2.470   2.359 -0.4022 -0.0372  0.0705
21431SOL     OW68208   6.187   9.767   9.288 -0.3789 -0.2423 -0.4209
21431SOL    HW168209   6.264   9.770   9.231  0.7994  1.2748  1.1474
21431SOL    HW268210   6.216   9.719   9.365 -1.1148  0.0839  0.0654
21432SOL     OW68211   5.763   4.140   8.993 -0.0631 -0.1336  0.1320
21432SOL    HW168212   5.809   4.220   9.017  0.1176 -0.1281 -0.2308
21432SOL    HW268213   5.828   4.087   8.948 -0.4957  0.0259 -0.7064
21433SOL     OW68214   9.013   8.136   7.574  0.6114  0.0843 -0.5362
21433SOL    HW168215   8.946   8.075   7.543  1.8037 -0.9821 -1.1246
21433SOL    HW268216   9.066   8.155   7.496  3.0028 -1.7578  0.4941
21434SOL     OW68217   6.358   3.786  10.204 -0.4748 -0.2952  0.0093
21434SOL    HW168218   6.309   3.842  10.145 -0.8464 -0.3716  0.2443
21434SOL    HW268219   6.311   3.703  10.203 -0.9691 -0.0447  1.0459
21435SOL     OW68220   2.221   5.458   7.859 -0.1103 -0.3555 -0.2352
21435SOL    HW168221   2.165   5.528   7.892 -0.1560 -0.1253 -0.7853
21435SOL    HW268222   2.309   5.481   7.889 -0.2525 -0.5159  0.3067
21436SOL     OW68223   5.356   4.148   6.158  0.2426 -0.7039  0.1816
21436SOL    HW168224   5.421   4.214   6.183  0.8660 -1.5354  0.8027
21436SOL    HW268225   5.399   4.064   6.175 -0.9264 -1.2727  0.4084
21437SOL     OW68226   1.337   5.876   1.251  0.0283 -0.2318 -0.0005
21437SOL    HW168227   1.261   5.856   1.305  0.7758  0.6817  1.4779
21437SOL    HW268228   1.340   5.972   1.249  1.4314 -0.2449  0.4408
21438SOL     OW68229   8.056   8.525   3.684  0.3528 -0.2569  0.1877
21438SOL    HW168230   8.110   8.601   3.705 -2.0430  1.8244 -0.5588
21438SOL    HW268231   8.077   8.504   3.593  1.2041 -0.6625  0.4756
21439SOL     OW68232   1.862   1.630   1.267  0.0080  0.0294 -0.2388
21439SOL    HW168233   1.830   1.600   1.352 -1.9146 -0.2220 -0.9985
21439SOL    HW268234   1.957   1.634   1.276  0.0266 -2.3259  1.1743
21440SOL     OW68235   2.635   4.042   0.825 -0.0248  0.1768  0.5771
21440SOL    HW168236   2.634   3.968   0.886 -0.9824 -0.8726 -0.6365
21440SOL    HW268237   2.728   4.057   0.807  0.1873 -1.6196 -0.1271
21441SOL     OW68238   5.759   8.855   0.888  0.0292  0.4160 -0.3330
21441SOL    HW168239   5.837   8.903   0.914 -0.6764  1.6139 -0.3488
21441SOL    HW268240   5.784   8.763   0.894  1.0175  0.7473  0.9743
21442SOL     OW68241   4.541   3.540   0.756 -0.2459 -0.1955  0.0649
21442SOL    HW168242   4.566   3.616   0.809  0.7501  0.4032 -1.2157
21442SOL    HW268243   4.599   3.543   0.680  1.2019 -3.3352  0.8570
21443SOL     OW68244   8.347   1.840   0.312 -0.4021 -0.4007  0.8208
21443SOL    HW168245   8.443   1.844   0.314 -0.4129  0.1969  0.4705
21443SOL    HW268246   8.321   1.917   0.262 -1.0324 -1.1369 -0.0126
21444SOL     OW68247   9.679   8.563   3.649  0.3003  0.0605 -0.1359
21444SOL    HW168248   9.615   8.613   3.699  1.3154 -0.9967  2.3732
21444SOL    HW268249   9.756   8.620   3.646  0.7700 -0.5037  0.9261
21445SOL     OW68250   5.945   6.203   9.123 -0.0955 -0.8338  0.3580
21445SOL    HW168251   5.851   6.195   9.105  0.1827 -0.5072 -1.4010
21445SOL    HW268252   5.952   6.279   9.180 -0.9096 -0.9217  0.5902
21446SOL     OW68253   4.464   9.159   9.167 -0.1212 -0.0451  0.1852
21446SOL    HW168254   4.495   9.072   9.193  1.4906 -0.6005 -3.0876
21446SOL    HW268255   4.478   9.214   9.244  4.2191 -1.4704  0.6566
21447SOL     OW68256   4.564   8.267   6.852 -0.3653 -0.2057  0.4351
21447SOL    HW168257   4.546   8.175   6.868 -2.9452 -0.0234 -0.8659
21447SOL    HW268258   4.636   8.267   6.789 -1.1423 -1.4272 -0.5156
21448SOL     OW68259   0.635   8.061   1.957  0.7806  0.0576  0.5482
21448SOL    HW168260   0.650   8.019   2.042 -0.4965  0.2204  0.8789
21448SOL    HW268261   0.540   8.059   1.946  0.8429  1.0760 -0.3402
21449SOL     OW68262   3.352   7.700   1.920 -0.1145 -0.5452  0.2029
21449SOL    HW168263   3.314   7.626   1.968  1.3059  0.0908  2.4974
21449SOL    HW268264   3.446   7.683   1.920  0.4479  1.8877  2.2019
21450SOL     OW68265   5.315   8.439   1.601 -0.2834 -0.4435 -0.4805
21450SOL    HW168266   5.356   8.460   1.518 -0.7679  0.4064 -0.5139
21450SOL    HW268267   5.383   8.458   1.667  0.0969 -1.1124 -0.6744
21451SOL     OW68268   4.164   5.618   4.442  0.1665 -0.5525 -0.3430
21451SOL    HW168269   4.163   5.712   4.457 -0.4086 -0.4043 -1.2475
21451SOL    HW268270   4.148   5.580   4.529 -2.1795  0.2638 -0.3287
21452SOL     OW68271   5.075   6.069   6.930  0.0672 -0.1561 -0.3335
21452SOL    HW168272   5.148   6.022   6.970 -0.4851  1.5370  2.9792
21452SOL    HW268273   4.997   6.033   6.972 -0.8363 -0.0378 -1.8180
21453SOL     OW68274   6.913   7.027   1.159  0.2290  0.0431  0.2335
21453SOL    HW168275   6.854   7.094   1.193  0.1643  0.2548 -0.2775
21453SOL    HW268276   6.928   6.968   1.232  0.6255  0.8479  0.8216
21454SOL     OW68277   1.054   8.104   4.178  0.6761  0.5996  0.1747
21454SOL    HW168278   1.032   8.025   4.228  0.0324 -0.0994 -1.1331
21454SOL    HW268279   1.075   8.170   4.244  0.5575 -0.4731  1.3245
21455SOL     OW68280   0.146   0.374   1.242 -0.5695 -0.1782  0.0033
21455SOL    HW168281   0.204   0.301   1.220  0.0351 -0.1506  1.3891
21455SOL    HW268282   0.125   0.361   1.334 -1.1403  0.9358  0.0504
21456SOL     OW68283   9.762   5.006   7.020  0.2999 -0.3455  0.0929
21456SOL    HW168284   9.706   4.998   6.942  2.0339 -0.0567 -1.2556
21456SOL    HW268285   9.851   5.007   6.985  1.1975 -1.2682  2.1929
21457SOL     OW68286   5.216   1.258   5.556  0.2276  0.1789 -0.0902
21457SOL    HW168287   5.149   1.318   5.523 -0.5606 -0.0102  1.1208
21457SOL    HW268288   5.228   1.194   5.485  0.5134  1.2976 -1.0759
21458SOL     OW68289   9.622   8.821   9.150  0.2461  0.4848  0.7339
21458SOL    HW168290   9.702   8.783   9.115 -0.2583  0.0377  0.0275
21458SOL    HW268291   9.558   8.750   9.144 -1.1571  1.8241 -2.0914
21459SOL     OW68292   9.373   8.298   4.903  0.0215 -0.0913 -0.5232
21459SOL    HW168293   9.294   8.269   4.858  0.7906 -0.9828 -1.3464
21459SOL    HW268294   9.394   8.226   4.963  0.0683  0.2541 -0.1242
21460SOL     OW68295   2.192   4.832   3.073 -0.0396  0.4832 -0.2727
21460SOL    HW168296   2.102   4.856   3.052  0.1399  0.4826 -1.1037
21460SOL    HW268297   2.232   4.814   2.988  0.9664  1.2476  0.0118
21461SOL     OW68298   2.293   2.967   3.682 -0.1164 -0.8869  0.6913
21461SOL    HW168299   2.330   2.896   3.735  1.5418 -0.6975 -0.1429
21461SOL    HW268300   2.316   2.944   3.592 -0.6411  0.1010  0.2927
21462SOL     OW68301   0.760   6.818   2.374 -0.0822  0.0819  0.4284
21462SOL    HW168302   0.842   6.782   2.340  0.1072  0.3533  0.5975
21462SOL    HW268303   0.785   6.860   2.457  0.1192  2.6166 -0.8311
21463SOL     OW68304   3.654   0.547   9.274 -0.1353 -0.3089  0.1032
21463SOL    HW168305   3.742   0.580   9.293 -0.0892  0.0472 -0.7137
21463SOL    HW268306   3.664   0.494   9.195  0.0375 -3.4170  2.0418
21464SOL     OW68307   4.914   4.739   3.413 -0.4578  0.1384  0.4586
21464SOL    HW168308   4.995   4.719   3.366 -0.5791 -1.0603  0.7523
21464SOL    HW268309   4.900   4.833   3.397  2.2856  0.9979  2.3839
21465SOL     OW68310   3.624   7.173   6.464  0.0490  0.1420 -0.7592
21465SOL    HW168311   3.564   7.247   6.453  0.1209  0.2900 -0.2215
21465SOL    HW268312   3.621   7.126   6.381 -2.0702 -0.7841 -0.2255
21466SOL     OW68313   2.685   6.602   2.252  0.4160  0.2192  0.4191
21466SOL    HW168314   2.604   6.631   2.209  0.8248  1.8611  0.7073
21466SOL    HW268315   2.743   6.578   2.179  0.2650  0.6632  0.1520
21467SOL     OW68316   6.426   5.059  10.156 -0.3056 -0.1831 -0.2002
21467SOL    HW168317   6.484   4.985  10.138 -1.4550 -0.8495 -1.3557
21467SOL    HW268318   6.446   5.122  10.087  0.6670  0.6325  0.7782
21468SOL     OW68319   2.863   3.392   4.498 -0.0621 -0.2755 -0.1755
21468SOL    HW168320   2.849   3.450   4.423 -0.3068 -1.1178 -0.7972
21468SOL    HW268321   2.898   3.311   4.460  2.0552  0.0907  0.8664
21469SOL     OW68322   8.753   6.360   6.830 -0.3679 -0.8552 -0.1113
21469SOL    HW168323   8.694   6.409   6.888 -0.8600  0.1392 -1.4037
21469SOL    HW268324   8.812   6.427   6.795 -0.2064 -1.4072 -0.9039
21470SOL     OW68325   5.296   1.088   2.048  0.3276  0.2858  0.0875
21470SOL    HW168326   5.384   1.124   2.052 -0.4679  2.3286  0.8550
21470SOL    HW268327   5.276   1.062   2.138  0.0347  0.1207 -0.0234
21471SOL     OW68328   8.652   3.267   1.771 -0.0809  0.0760 -0.1699
21471SOL    HW168329   8.601   3.329   1.823  0.6090  0.6394 -0.1431
21471SOL    HW268330   8.623   3.281   1.681 -0.8757 -0.5036 -0.0115
21472SOL     OW68331   6.762   7.719  10.011  0.1365  0.1078 -0.0483
21472SOL    HW168332   6.704   7.779   9.963 -1.8263 -0.9172  0.9150
21472SOL    HW268333   6.836   7.705   9.952 -1.3262  0.2796 -2.0320
21473SOL     OW68334   6.513   5.661   6.624  0.5479  0.2319  0.1264
21473SOL    HW168335   6.438   5.617   6.663  0.2064  0.1124 -0.6506
21473SOL    HW268336   6.588   5.630   6.675  0.1031  0.1497  0.7385
21474SOL     OW68337   8.529   0.292   3.046 -1.4096  0.2428 -0.1588
21474SOL    HW168338   8.620   0.319   3.044 -1.2132 -0.4366 -0.7853
21474SOL    HW268339   8.484   0.360   3.097 -0.5516  0.5520  0.1932
21475SOL     OW68340   3.503   8.911   1.791  0.0958  0.1302 -0.2565
21475SOL    HW168341   3.493   8.887   1.699 -2.0075  1.8175 -0.5518
21475SOL    HW268342   3.417   8.896   1.829  0.7352  0.1634  1.2614
21476SOL     OW68343   1.827   3.848   9.666 -0.2278  0.4261  0.3354
21476SOL    HW168344   1.851   3.775   9.722 -2.4714 -1.4854 -1.0357
21476SOL    HW268345   1.785   3.911   9.725  1.2840  0.4300  1.4498
21477SOL     OW68346   9.046   9.422   6.179  0.6442 -0.3072  0.2379
21477SOL    HW168347   9.036   9.516   6.193 -1.1452 -0.5335  0.7083
21477SOL    HW268348   9.059   9.386   6.267 -0.0130 -0.6290  0.2096
21478SOL     OW68349   1.180   6.630   6.683  0.2657 -0.1415  0.0226
21478SOL    HW168350   1.123   6.617   6.607  0.6249  1.7488 -0.6360
21478SOL    HW268351   1.120   6.639   6.757 -0.2133  0.1884 -0.4015
21479SOL     OW68352   8.194   0.408   7.023  0.7748 -0.1880 -0.0316
21479SOL    HW168353   8.152   0.323   7.040  0.5745  0.2038  1.6636
21479SOL    HW268354   8.272   0.386   6.973 -0.2722 -1.1653 -1.3259
21480SOL     OW68355   6.897   0.570   8.282  0.5111 -0.0452 -0.8040
21480SOL    HW168356   6.964   0.503   8.266  0.6487  0.1537 -1.0681
21480SOL    HW268357   6.915   0.601   8.371 -0.1095 -0.9871 -0.3273
21481SOL     OW68358   0.023   2.540   5.105  0.0036  0.2062  0.2050
21481SOL    HW168359  -0.024   2.597   5.044 -2.2001 -1.0664  0.5934
21481SOL    HW268360   0.102   2.589   5.128 -1.1800  2.5343 -0.4133
21482SOL     OW68361   5.897   4.676   7.097 -0.0055  0.0284  0.2357
21482SOL    HW168362   5.882   4.609   7.032 -0.0845  0.2403  0.0337
21482SOL    HW268363   5.975   4.647   7.144  0.4008  0.1716 -0.3414
21483SOL     OW68364   7.739   6.120   2.931  0.1749  0.1356 -0.4073
21483SOL    HW168365   7.715   6.030   2.954  1.2255 -0.5052 -1.6899
21483SOL    HW268366   7.825   6.134   2.972  0.2734  0.3515 -0.6806
21484SOL     OW68367   8.122   6.145   1.334  0.2215 -0.1379 -0.1635
21484SOL    HW168368   8.073   6.227   1.342  0.9827  0.5522 -1.9207
21484SOL    HW268369   8.152   6.125   1.423 -1.6182  0.4202  0.6253
21485SOL     OW68370   7.088   2.437   0.077  0.1838 -0.1959  0.0905
21485SOL    HW168371   7.144   2.506   0.113  0.3480 -0.7076  0.8387
21485SOL    HW268372   7.146   2.360   0.071  0.2456 -0.0580 -1.5515
21486SOL     OW68373   6.279   3.319   5.791 -0.4491  0.1300  0.0806
21486SOL    HW168374   6.306   3.228   5.803 -1.3449 -0.3910 -1.5149
21486SOL    HW268375   6.361   3.366   5.774 -0.1636 -0.8416 -1.4851
21487SOL     OW68376   5.351   2.732   1.570  0.5322  0.1662  0.0442
21487SOL    HW168377   5.370   2.708   1.661 -0.1347 -0.6230 -0.0012
21487SOL    HW268378   5.303   2.814   1.576  0.9315  0.3735  0.3777
21488SOL     OW68379   5.000   4.285   2.937 -0.3545  0.3630 -0.2373
21488SOL    HW168380   5.078   4.281   2.991 -0.4442  1.9457  0.0621
21488SOL    HW268381   4.988   4.196   2.904  0.9585 -0.1259  0.5610
21489SOL     OW68382   8.243   0.196   7.726  0.1747 -0.2167  0.2360
21489SOL    HW168383   8.331   0.203   7.764 -0.3181  0.6290  1.2715
21489SOL    HW268384   8.229   0.281   7.684  0.3824 -0.8496 -1.1515
21490SOL     OW68385   7.438   9.588   5.016 -0.1865  0.6658  0.1929
21490SOL    HW168386   7.461   9.651   4.947 -0.6653  0.6310 -0.0005
21490SOL    HW268387   7.502   9.518   5.006  0.3560  1.1210  0.4133
21491SOL     OW68388   5.284   9.413   6.909  0.2516 -0.5496 -0.3628
21491SOL    HW168389   5.326   9.396   6.993  0.1045  2.0845  0.3348
21491SOL    HW268390   5.356   9.415   6.846  0.6752 -0.1091  0.1299
21492SOL     OW68391   8.276   6.465   3.605 -0.0823  0.1225  0.4205
21492SOL    HW168392   8.295   6.559   3.601 -1.7023  0.4650 -0.2479
21492SOL    HW268393   8.278   6.437   3.513  3.2475 -1.1945  0.7625
21493SOL     OW68394   1.707   7.453   9.189  0.3886 -0.2879 -0.4879
21493SOL    HW168395   1.668   7.514   9.252  1.1332  1.2645 -1.4582
21493SOL    HW268396   1.688   7.492   9.103  1.8163 -0.8341 -1.0835
21494SOL     OW68397   4.231   3.137   9.137 -0.5038 -0.0722  0.0603
21494SOL    HW168398   4.190   3.219   9.110  1.5277  0.9693 -0.0586
21494SOL    HW268399   4.279   3.106   9.060 -0.3674 -0.8070  0.4243
21495SOL     OW68400   7.363   8.081   0.308  0.4715 -0.2712 -0.1780
21495SOL    HW168401   7.370   8.053   0.216  1.9712 -1.3846  0.2283
21495SOL    HW268402   7.416   8.018   0.356 -1.1577 -0.3479  1.6281
21496SOL     OW68403   0.506   4.433   8.127  0.2137 -0.4812 -0.4347
21496SOL    HW168404   0.586   4.414   8.175 -0.2815 -0.7947  0.2879
21496SOL    HW268405   0.472   4.513   8.168 -0.2054 -0.7425 -0.2649
21497SOL     OW68406   4.794   3.956   2.264 -0.1872 -0.2246  0.4150
21497SOL    HW168407   4.880   3.919   2.285  0.1527  0.9322  1.1144
21497SOL    HW268408   4.734   3.881   2.269  0.6914 -0.9357  0.4704
21498SOL     OW68409   1.099  10.116   4.271  0.1514  0.4462 -0.2206
21498SOL    HW168410   1.093  10.172   4.349  1.6312 -0.0543  0.2773
21498SOL    HW268411   1.106  10.177   4.198 -1.0652  0.9198  0.0268
21499SOL     OW68412   0.987   5.786   5.627 -0.2277 -0.0236 -0.1301
21499SOL    HW168413   0.983   5.690   5.633 -0.1599  0.0267  0.8090
21499SOL    HW268414   0.990   5.803   5.533 -2.8861 -0.8564 -0.4680
21500SOL     OW68415   7.298   1.216   8.722  0.1159  0.1299 -0.2787
21500SOL    HW168416   7.320   1.154   8.792 -0.4938  1.2089  0.9026
21500SOL    HW268417   7.382   1.236   8.681  0.7255  0.6960  1.1929
21501SOL     OW68418   1.500   9.107   7.276 -0.5935  0.3797  0.2640
21501SOL    HW168419   1.438   9.180   7.273 -0.7877  0.2672  1.2743
21501SOL    HW268420   1.458   9.042   7.331  1.0613  0.9239  2.2878
21502SOL     OW68421   9.305   0.607   0.043  0.2326 -0.3200  0.2590
21502SOL    HW168422   9.294   0.576  -0.047 -0.4308  0.8912 -0.1061
21502SOL    HW268423   9.218   0.635   0.070  0.6430  0.4610  0.8279
21503SOL     OW68424   7.568   8.528   0.556 -0.0735  0.1593  0.4088
21503SOL    HW168425   7.545   8.475   0.632  0.5102 -0.1589  0.3676
21503SOL    HW268426   7.506   8.601   0.558 -1.6518 -1.1035 -0.1635
21504SOL     OW68427   7.831   9.710   4.403  0.1832 -0.2707 -0.0922
21504SOL    HW168428   7.764   9.763   4.360 -1.8999 -2.8817 -0.3626
21504SOL    HW268429   7.794   9.693   4.491  1.0796 -0.7271  0.2064
21505SOL     OW68430   9.989   6.328   3.426  0.4090  0.3761  0.0180
21505SOL    HW168431   9.900   6.304   3.400  1.1737 -0.2258 -2.2630
21505SOL    HW268432   9.976   6.389   3.499 -1.7380 -2.3194  2.1028
21506SOL     OW68433   9.741   3.776   3.203  0.0942 -0.0607 -0.5746
21506SOL    HW168434   9.677   3.840   3.171  0.7225  0.5242 -0.6804
21506SOL    HW268435   9.704   3.691   3.179  0.0786  0.3235 -2.0048
21507SOL     OW68436   0.608   2.569   5.739  0.3739  0.2318  0.0513
21507SOL    HW168437   0.521   2.531   5.753  0.2199  0.8435  0.8047
21507SOL    HW268438   0.595   2.663   5.749  1.3539  0.2419  1.4817
21508SOL     OW68439   1.342   6.374   8.936  0.1947 -0.2431 -0.5877
21508SOL    HW168440   1.360   6.380   8.842 -0.4155 -0.4654 -0.7194
21508SOL    HW268441   1.394   6.445   8.974  0.1791  0.0645 -1.1288
21509SOL     OW68442   0.104   0.867   6.290  0.2004  0.0872  0.2590
21509SOL    HW168443   0.106   0.878   6.386  0.1961 -0.5146  0.3294
21509SOL    HW268444   0.137   0.951   6.256  3.4895 -0.8165  0.8535
21510SOL     OW68445   7.566   9.759  10.117 -0.6938  0.2651  0.3057
21510SOL    HW168446   7.533   9.685  10.065 -2.4100  1.2357 -0.0538
21510SOL    HW268447   7.507   9.831  10.097  1.5177  2.0561 -0.1064
21511SOL     OW68448   4.385   9.741   7.401 -0.9006  0.3198 -0.3117
21511SOL    HW168449   4.411   9.715   7.312 -1.0334 -2.6223  0.4053
21511SOL    HW268450   4.309   9.686   7.420 -0.9226  0.9641  1.6099
21512SOL     OW68451   1.570   4.739   6.379 -0.0355  0.3575  0.1023
21512SOL    HW168452   1.645   4.693   6.417  0.4491  0.9568 -0.1168
21512SOL    HW268453   1.581   4.729   6.285 -1.3981 -1.3810  0.0781
21513SOL     OW68454   3.176   9.908   9.154 -0.2746  0.3052  0.9727
21513SOL    HW168455   3.084   9.917   9.131 -0.5313 -0.6418  1.5937
21513SOL    HW268456   3.178   9.844   9.225  0.9953 -0.9813 -0.1457
21514SOL     OW68457   2.161   5.056   5.733 -0.0370  0.2324  0.1219
21514SOL    HW168458   2.090   5.092   5.680 -0.0967  0.4579  0.3488
21514SOL    HW268459   2.208   4.996   5.674 -0.9900 -0.6582  0.2535
21515SOL     OW68460   3.258   8.914   9.798 -0.4873 -0.3430 -0.2397
21515SOL    HW168461   3.343   8.874   9.813  0.4276  2.2465  2.3209
21515SOL    HW268462   3.195   8.843   9.811  1.1608 -1.9605 -0.6945
21516SOL     OW68463   5.659   9.862   5.451  0.0778 -0.1034  0.4203
21516SOL    HW168464   5.741   9.850   5.499 -0.7331 -0.4049  1.7920
21516SOL    HW268465   5.642   9.956   5.456 -0.0470 -0.1451  0.8242
21517SOL     OW68466   4.406   8.764   1.060 -0.1873 -0.0923  0.0714
21517SOL    HW168467   4.480   8.752   1.119 -1.7029 -1.8683  1.7766
21517SOL    HW268468   4.405   8.858   1.041  2.9920 -0.1144 -0.8134
21518SOL     OW68469   8.858   4.871   6.772  0.0936  0.2114 -0.8441
21518SOL    HW168470   8.820   4.954   6.743 -0.2621 -0.1226 -1.3344
21518SOL    HW268471   8.953   4.887   6.772 -0.0195  1.0186  0.3104
21519SOL     OW68472   2.954   2.916   6.198 -0.2372 -0.1280 -0.4992
21519SOL    HW168473   2.930   2.852   6.265  0.7656  0.8205  0.7934
21519SOL    HW268474   2.884   2.981   6.201 -1.2748 -1.1142 -1.8362
21520SOL     OW68475   3.581   2.367   7.094  0.1161  0.1998  0.0091
21520SOL    HW168476   3.620   2.286   7.060  0.8149  0.4101  0.3007
21520SOL    HW268477   3.486   2.354   7.081  0.0846 -1.2844  1.3668
21521SOL     OW68478   6.771   7.005   9.756  0.2704  0.2402  0.6559
21521SOL    HW168479   6.690   6.959   9.778 -0.4872  1.0227 -0.4108
21521SOL    HW268480   6.802   6.962   9.676 -0.1511  1.2061 -0.0387
21522SOL     OW68481   0.908   1.233   6.346  0.3247  0.1641  1.1052
21522SOL    HW168482   0.950   1.287   6.414  1.7447  1.2722 -0.5543
21522SOL    HW268483   0.981   1.197   6.297 -0.6720 -0.8843  0.3564
21523SOL     OW68484   0.344   8.203   0.668 -0.5004  0.8837  1.1073
21523SOL    HW168485   0.434   8.234   0.659  0.1323 -1.1647 -0.4134
21523SOL    HW268486   0.315   8.239   0.751  1.8435  1.3544  1.8092
21524SOL     OW68487  10.161   7.275   0.481  0.5074 -0.5258 -0.3724
21524SOL    HW168488  10.170   7.366   0.451 -0.6089 -0.0786  0.5831
21524SOL    HW268489  10.251   7.246   0.496  0.8328  0.9060  0.6509
21525SOL     OW68490   1.076   4.858   4.310  0.2554  0.2459 -0.4617
21525SOL    HW168491   1.087   4.793   4.240  1.2350  0.7720 -0.8220
21525SOL    HW268492   1.126   4.934   4.280 -0.0103  0.7854  0.4290
21526SOL     OW68493   1.313   1.381   8.494 -0.5233  0.2743 -0.5156
21526SOL    HW168494   1.369   1.318   8.539 -0.5874  0.0058 -0.8092
21526SOL    HW268495   1.374   1.437   8.446 -0.5481 -1.1624 -2.3490
21527SOL     OW68496   1.586   4.054   0.871  0.1349 -0.6320 -0.3051
21527SOL    HW168497   1.505   4.093   0.837 -0.8039 -1.6942  0.6018
21527SOL    HW268498   1.629   4.018   0.794 -0.9060 -1.1697 -0.6631
21528SOL     OW68499   5.606   7.927   9.561  0.1098  0.3189 -0.1055
21528SOL    HW168500   5.623   8.020   9.569  0.0336  0.2718  0.7372
21528SOL    HW268501   5.564   7.917   9.476 -0.1383  1.0916 -0.0774
21529SOL     OW68502   9.015   7.678   9.491  0.4368 -0.1704 -0.0735
21529SOL    HW168503   9.024   7.749   9.427 -0.0549  0.6585  0.7459
21529SOL    HW268504   8.963   7.716   9.561 -1.0196 -1.7834 -0.2241
21530SOL     OW68505   8.784   6.457   0.087  0.7674 -0.0734 -0.3249
21530SOL    HW168506   8.879   6.446   0.073  0.4317 -0.9115 -2.3755
21530SOL    HW268507   8.762   6.538   0.041  0.7252  1.1457  1.7155
21531SOL     OW68508   9.785   2.385   2.304  0.3422 -0.0784 -0.2411
21531SOL    HW168509   9.727   2.376   2.379 -0.3363 -2.1094 -0.9470
21531SOL    HW268510   9.727   2.389   2.229  1.0625  0.0773 -0.8073
21532SOL     OW68511   6.099   5.206  10.167 -1.1652 -0.1442  0.0001
21532SOL    HW168512   6.128   5.293  10.140 -2.9648  0.7899  0.9066
21532SOL    HW268513   6.007   5.202  10.144 -1.2976 -1.5516  0.6103
21533SOL     OW68514   5.785   1.340  10.090  0.4525 -0.1817  0.0143
21533SOL    HW168515   5.757   1.426  10.123  0.1321  0.0330 -0.7926
21533SOL    HW268516   5.878   1.336  10.110  0.2294 -0.1590  1.1422
21534SOL     OW68517   3.856   0.690   3.129 -0.0317  0.0118  0.3284
21534SOL    HW168518   3.779   0.650   3.089 -0.1654 -1.3479  1.8763
21534SOL    HW268519   3.915   0.706   3.055 -0.8246 -1.1379 -0.5914
21535SOL     OW68520   0.461   4.286   8.722  0.0526 -0.1709 -0.0274
21535SOL    HW168521   0.468   4.374   8.760 -0.5616 -0.4076  0.6466
21535SOL    HW268522   0.408   4.237   8.785  2.8562 -1.9058  1.1670
21536SOL     OW68523   1.917   5.057   1.516  0.5622 -0.1184 -0.2048
21536SOL    HW168524   1.862   5.068   1.593  0.1935 -2.0633 -0.1399
21536SOL    HW268525   1.895   4.970   1.483  2.0454 -0.0712 -1.4292
21537SOL     OW68526   4.214   2.545   8.968  0.4666  0.0983 -0.2361
21537SOL    HW168527   4.187   2.508   8.884  1.3995 -0.9567 -0.0967
21537SOL    HW268528   4.307   2.564   8.958  0.3090  1.1354  0.1614
21538SOL     OW68529   5.876   3.068   1.975  0.1907  0.0070 -0.1677
21538SOL    HW168530   5.908   3.125   1.905 -1.6730  1.3325 -0.0127
21538SOL    HW268531   5.943   3.073   2.043 -0.0975  2.3855  0.0177
21539SOL     OW68532   0.017   4.489   3.383 -0.4221  0.6426 -0.5642
21539SOL    HW168533   0.004   4.580   3.358 -2.3028  0.6380  0.2496
21539SOL    HW268534  -0.046   4.474   3.454  0.8667 -0.8830  0.3155
21540SOL     OW68535   0.246   0.582   5.773  0.1608 -0.4478  0.1080
21540SOL    HW168536   0.199   0.665   5.763 -0.9621 -0.8133  1.9695
21540SOL    HW268537   0.338   0.606   5.766 -0.1644  0.8057 -0.2983
21541SOL     OW68538   2.489   8.719   9.247 -0.0958 -0.5220  0.1241
21541SOL    HW168539   2.414   8.705   9.304  0.0093 -2.6586 -0.2135
21541SOL    HW268540   2.453   8.760   9.168 -0.4679  0.9473  1.0214
21542SOL     OW68541   3.262   2.063   6.374  0.0830  0.2896 -0.4266
21542SOL    HW168542   3.229   1.974   6.384  0.9692 -0.0074 -0.1006
21542SOL    HW268543   3.332   2.056   6.310 -0.4400  0.9090 -1.0767
21543SOL     OW68544   0.967   0.289   0.941 -0.0984 -0.5945 -0.5413
21543SOL    HW168545   1.050   0.251   0.967 -0.1955  0.6847  1.9035
21543SOL    HW268546   0.989   0.376   0.908 -0.5164  0.2639  1.3299
21544SOL     OW68547   9.470   1.972   8.102 -0.4239  0.4112  0.1650
21544SOL    HW168548   9.492   2.013   8.186  0.8577  0.5720 -0.2371
21544SOL    HW268549   9.530   1.898   8.095 -1.8709 -0.8398  0.2967
21545SOL     OW68550   7.725   7.846   4.359 -0.4868 -0.5282  0.4646
21545SOL    HW168551   7.746   7.939   4.347 -1.1827 -0.4847 -0.5534
21545SOL    HW268552   7.694   7.817   4.273 -1.4699 -1.3838  1.0771
21546SOL     OW68553   9.486   2.429   5.307 -0.6637 -0.5858 -0.3726
21546SOL    HW168554   9.481   2.333   5.306 -1.9933 -0.6302  1.9124
21546SOL    HW268555   9.440   2.457   5.228 -1.8299 -1.8357 -0.1733
21547SOL     OW68556   2.033   2.764   0.152 -0.1491 -0.1246 -0.2347
21547SOL    HW168557   2.017   2.703   0.080 -1.5394 -1.7022  1.2950
21547SOL    HW268558   2.076   2.839   0.112  2.6966 -2.5318 -2.0856
21548SOL     OW68559   1.339   3.462   6.168 -0.7647  0.0161  0.0460
21548SOL    HW168560   1.271   3.450   6.234  0.1704  2.0064  1.4769
21548SOL    HW268561   1.358   3.556   6.170  0.7763 -0.2101 -1.5816
21549SOL     OW68562   8.282   3.218   8.381 -0.5711 -0.1702 -0.5823
21549SOL    HW168563   8.322   3.190   8.463  0.1559  0.9376 -0.5250
21549SOL    HW268564   8.204   3.164   8.372 -1.8478  1.0700  1.9212
21550SOL     OW68565   3.499   3.999   4.657  1.0134  0.2835 -0.0776
21550SOL    HW168566   3.543   4.059   4.718  2.2218  1.9136 -2.3865
21550SOL    HW268567   3.406   4.006   4.679  1.2963  1.7800  0.7741
21551SOL     OW68568   3.024   4.507   3.897 -0.3475  0.0855 -0.0110
21551SOL    HW168569   2.929   4.501   3.903 -0.1724 -2.9798  1.3485
21551SOL    HW268570   3.040   4.593   3.856 -3.6835 -0.0141 -1.8717
21552SOL     OW68571   9.263   0.458   4.027 -0.4687 -0.1453 -0.3626
21552SOL    HW168572   9.224   0.376   4.057  0.8303 -0.5738  0.2059
21552SOL    HW268573   9.335   0.431   3.970  0.7875  0.5442  0.8371
21553SOL     OW68574   7.673   8.554   8.679  0.3247  0.2235 -0.0841
21553SOL    HW168575   7.768   8.566   8.672  0.3863  0.0511  0.3812
21553SOL    HW268576   7.638   8.642   8.689  0.5066  0.2392  0.4606
21554SOL     OW68577   8.022   4.630   6.891 -0.6640  0.0693  0.0544
21554SOL    HW168578   8.017   4.567   6.963  0.7493 -0.9644 -0.7072
21554SOL    HW268579   7.940   4.679   6.897 -0.5007  0.1711  2.4861
21555SOL     OW68580   1.153   4.766   4.892  0.2226 -0.1887  0.7228
21555SOL    HW168581   1.227   4.705   4.895  0.3836 -0.0875 -0.8156
21555SOL    HW268582   1.078   4.713   4.866 -0.1189 -0.1491  1.5868
21556SOL     OW68583   2.730   6.942   2.078  0.2083  0.1228 -0.1934
21556SOL    HW168584   2.813   6.911   2.113  0.4785  0.4352 -0.5467
21556SOL    HW268585   2.702   7.010   2.140 -0.2917 -0.6834  0.4771
21557SOL     OW68586   2.711   8.031   6.588  0.8520 -0.1833  0.1632
21557SOL    HW168587   2.655   7.969   6.541 -0.5092  0.7106  0.5709
21557SOL    HW268588   2.787   7.979   6.613  0.3573 -1.3536 -0.6621
21558SOL     OW68589   8.949   1.291   2.064  0.4010  0.4808 -0.7508
21558SOL    HW168590   8.860   1.318   2.043  0.0155 -0.0719  0.0991
21558SOL    HW268591   8.964   1.212   2.012 -1.3106 -2.1332  2.2976
21559SOL     OW68592   3.968   4.423   8.503  0.0854 -0.1283  0.3629
21559SOL    HW168593   4.009   4.359   8.444  1.0691 -1.7570  2.6896
21559SOL    HW268594   4.000   4.400   8.590 -2.9055  0.9088  1.8635
21560SOL     OW68595   2.840   1.239   6.582  0.0967 -0.6492  0.1125
21560SOL    HW168596   2.846   1.273   6.492  1.5858 -0.2100  0.3559
21560SOL    HW268597   2.918   1.185   6.592  0.5694  0.2595  1.5324
21561SOL     OW68598   6.221   2.900   2.786  0.7565 -0.1127 -0.2399
21561SOL    HW168599   6.141   2.894   2.839 -0.8654 -0.2652 -2.5555
21561SOL    HW268600   6.266   2.977   2.820 -1.6772  1.5263 -0.4540
21562SOL     OW68601   4.916   9.790   3.244  0.4181 -0.3720  0.1839
21562SOL    HW168602   4.927   9.706   3.288 -0.7501 -0.4353  0.3938
21562SOL    HW268603   4.957   9.779   3.159  2.8979 -0.1929  1.2502
21563SOL     OW68604   1.575  10.091   6.841 -0.1635 -0.6437  0.1998
21563SOL    HW168605   1.670  10.093   6.829 -0.1487 -0.1356  0.3948
21563SOL    HW268606   1.561  10.027   6.911  0.1489  0.3863  1.2292
21564SOL     OW68607   8.393   8.247   8.109  0.2378  0.1730 -0.4677
21564SOL    HW168608   8.350   8.325   8.075  0.5515  0.9032  0.7352
21564SOL    HW268609   8.441   8.211   8.034  1.0476  1.8056 -0.7922
21565SOL     OW68610   6.872   6.103   7.685  0.3836 -0.3372 -0.1292
21565SOL    HW168611   6.782   6.118   7.712  0.2853  1.3681 -1.2240
21565SOL    HW268612   6.925   6.141   7.755  0.2110  0.2229 -0.3008
21566SOL     OW68613   8.378   7.216   6.329 -0.4072 -0.0903  0.0823
21566SOL    HW168614   8.355   7.198   6.420 -2.2700 -0.8618 -0.4852
21566SOL    HW268615   8.299   7.254   6.291 -0.5112 -1.9115 -1.7426
21567SOL     OW68616   7.033   9.864   3.770 -0.0410  0.4716 -0.5473
21567SOL    HW168617   7.075   9.780   3.788 -0.4566  0.2053 -0.8236
21567SOL    HW268618   6.945   9.856   3.805  0.2667  1.1985  0.4532
21568SOL     OW68619   4.376   3.453   8.022 -0.3510 -0.5665 -0.2111
21568SOL    HW168620   4.472   3.453   8.029 -0.4146  0.8020  1.3865
21568SOL    HW268621   4.352   3.361   8.033  0.7880 -0.9965 -1.0832
21569SOL     OW68622   0.485   3.343   4.607 -0.1512 -0.1191 -0.2216
21569SOL    HW168623   0.477   3.285   4.532 -0.0690 -0.9433  0.3895
21569SOL    HW268624   0.578   3.342   4.629 -0.0062  0.9659 -0.7567
21570SOL     OW68625   8.499   4.806   4.384 -0.2518  0.5358  0.4312
21570SOL    HW168626   8.518   4.869   4.454 -2.5458  1.5686  0.2384
21570SOL    HW268627   8.403   4.808   4.376 -0.2032 -1.1783 -1.2761
21571SOL     OW68628   2.376   9.867   8.781 -0.1561 -0.2908 -0.2402
21571SOL    HW168629   2.383   9.962   8.771  1.1921 -0.3793 -0.2880
21571SOL    HW268630   2.297   9.855   8.834 -0.8162  0.7976 -0.9228
21572SOL     OW68631   7.026   5.854   3.806  0.0619 -0.0616  0.0228
21572SOL    HW168632   7.027   5.846   3.901  0.2416  0.5750  0.0844
21572SOL    HW268633   6.952   5.801   3.778  0.5685 -1.0192  0.4365
21573SOL     OW68634   7.908   4.135   7.284 -0.0757  0.1757  0.4069
21573SOL    HW168635   7.967   4.062   7.301 -0.1788  0.1761  0.7616
21573SOL    HW268636   7.864   4.151   7.367 -1.1012 -0.2887 -0.0231
21574SOL     OW68637   2.110   7.886   0.605 -0.4442 -0.1239 -0.0263
21574SOL    HW168638   2.189   7.834   0.591 -0.3203 -0.1412  0.6930
21574SOL    HW268639   2.106   7.945   0.530  0.2261 -0.1561 -0.0928
21575SOL     OW68640   9.209   4.998   2.625 -0.1006 -0.1896 -0.1145
21575SOL    HW168641   9.193   5.053   2.547  1.0365 -0.6749 -0.7205
21575SOL    HW268642   9.211   5.060   2.698  1.1385  0.6047 -0.7847
21576SOL     OW68643   6.610   5.759   4.294 -0.2674  0.1480 -0.3285
21576SOL    HW168644   6.657   5.677   4.309  2.3089  1.0101 -2.7158
21576SOL    HW268645   6.554   5.741   4.218 -0.6477  0.2630 -0.0755
21577SOL     OW68646   2.892   2.410   0.931  0.0531 -0.2074  0.1794
21577SOL    HW168647   2.865   2.486   0.983 -1.2500 -0.3482 -0.2460
21577SOL    HW268648   2.984   2.426   0.911  0.3221  0.3113  1.7073
21578SOL     OW68649   2.467   1.446   0.833  0.0707  0.5908  0.0732
21578SOL    HW168650   2.554   1.411   0.811 -1.3992 -2.5035 -1.3210
21578SOL    HW268651   2.450   1.513   0.767  0.6163 -0.1543 -0.8402
21579SOL     OW68652   8.901   4.091   1.392 -0.1661 -0.1485 -0.3035
21579SOL    HW168653   8.938   4.176   1.416 -0.9679  0.3228 -0.6796
21579SOL    HW268654   8.870   4.054   1.475 -1.6394  0.8418 -0.3774
21580SOL     OW68655   7.138   5.692   1.941  0.0827 -0.0544  0.1587
21580SOL    HW168656   7.134   5.615   1.998  2.4542 -0.5747 -0.2577
21580SOL    HW268657   7.119   5.766   1.999 -3.6530 -0.9445  0.2834
21581SOL     OW68658   9.822   9.646   1.845 -0.3541 -0.1295 -1.0067
21581SOL    HW168659   9.745   9.639   1.789 -1.3662  3.0127 -0.2165
21581SOL    HW268660   9.844   9.739   1.845  0.7434 -0.2475  2.2520
21582SOL     OW68661   5.030   3.981   4.753  0.0317  0.1181 -0.1430
21582SOL    HW168662   5.104   3.933   4.715 -0.0009  0.5475 -0.7567
21582SOL    HW268663   4.954   3.951   4.704  0.0626  1.0762 -0.8149
21583SOL     OW68664   5.382   6.622   9.318  0.0652 -0.3868  0.1254
21583SOL    HW168665   5.364   6.539   9.274  3.1837 -1.3815  0.4733
21583SOL    HW268666   5.427   6.675   9.251  0.0963  0.1576  0.5686
21584SOL     OW68667   5.838   0.899   2.190 -0.6104 -0.1674  0.2661
21584SOL    HW168668   5.789   0.969   2.234 -0.6530  0.9280 -1.4357
21584SOL    HW268669   5.771   0.850   2.142 -0.3306 -0.1168 -0.1805
21585SOL     OW68670   0.747   7.828   5.891  0.0763 -0.1973 -0.2464
21585SOL    HW168671   0.819   7.764   5.893  0.3017  0.0646  0.3533
21585SOL    HW268672   0.670   7.778   5.920 -0.0582 -0.5606 -1.2078
21586SOL     OW68673   3.183   6.383   8.843 -0.3029 -0.1253  0.2038
21586SOL    HW168674   3.226   6.358   8.924  0.6974  0.3168 -0.1846
21586SOL    HW268675   3.100   6.422   8.872 -0.0282 -0.1045  0.9964
21587SOL     OW68676   2.398   6.601   3.694 -0.4288 -0.2122 -0.3360
21587SOL    HW168677   2.433   6.690   3.680 -0.5853 -0.1655 -0.4364
21587SOL    HW268678   2.349   6.607   3.776 -0.2803 -0.2547 -0.2433
21588SOL     OW68679   8.414   4.621   7.705  0.5931  0.0191  0.1973
21588SOL    HW168680   8.400   4.627   7.611 -0.3362  1.2518  0.3944
21588SOL    HW268681   8.401   4.528   7.726 -1.0863  0.0496 -0.5970
21589SOL     OW68682  10.092   1.141   1.876 -0.0825 -0.4673 -0.2780
21589SOL    HW168683  10.004   1.170   1.903 -0.2490 -0.6470 -0.6236
21589SOL    HW268684  10.123   1.210   1.818 -1.6438 -2.2380 -3.4662
21590SOL     OW68685   3.104   8.872   1.490  0.8610  0.2394  0.1702
21590SOL    HW168686   3.185   8.821   1.494 -0.0251 -1.6144 -2.4606
21590SOL    HW268687   3.047   8.831   1.555  1.1915 -0.1253  0.2334
21591SOL     OW68688   1.505   6.394   2.192  0.0905 -0.5299 -0.0036
21591SOL    HW168689   1.580   6.450   2.171 -0.1728 -0.1462  0.0861
21591SOL    HW268690   1.457   6.441   2.259  0.2823 -1.2136  0.6339
21592SOL     OW68691   9.062   0.037   9.845  0.0634 -0.1815 -0.0897
21592SOL    HW168692   9.143  -0.000   9.880 -0.9820 -0.0595  2.7508
21592SOL    HW268693   9.085   0.128   9.823  0.6536 -0.0326  1.0490
21593SOL     OW68694   3.762   1.702   2.989 -0.0681 -0.8015 -0.7079
21593SOL    HW168695   3.686   1.674   2.936 -1.0272 -0.7113  0.5785
21593SOL    HW268696   3.775   1.630   3.051 -0.1233 -0.1032  0.1243
21594SOL     OW68697   7.650   3.467   0.338  0.0686 -0.6241  0.5199
21594SOL    HW168698   7.578   3.516   0.299  0.3715 -0.0910  0.6191
21594SOL    HW268699   7.654   3.386   0.287  0.0864 -0.1959 -0.1769
21595SOL     OW68700   1.844   8.539   2.176  0.6301  0.1072  0.3074
21595SOL    HW168701   1.816   8.618   2.223  0.0991  0.5659 -0.7561
21595SOL    HW268702   1.819   8.555   2.085 -1.1708 -2.0586  0.3529
21596SOL     OW68703   0.554   6.195   2.705  0.0344  0.4100 -0.1781
21596SOL    HW168704   0.547   6.115   2.758 -0.0256  0.1220 -0.6133
21596SOL    HW268705   0.629   6.178   2.647  0.3229  0.8668  0.0559
21597SOL     OW68706   4.084   2.926   1.715  0.0806  0.2623  0.4256
21597SOL    HW168707   4.039   2.888   1.790  0.0486  1.4606  1.0252
21597SOL    HW268708   4.177   2.904   1.730 -0.0105 -0.1163  0.4426
21598SOL     OW68709   8.717   1.256   1.652  0.0246 -0.7664  0.1939
21598SOL    HW168710   8.722   1.164   1.675  1.6496 -0.9459 -0.7223
21598SOL    HW268711   8.637   1.288   1.695  0.5003 -2.1092  2.1711
21599SOL     OW68712   9.429   2.996   3.748  0.6945  0.2492 -0.1117
21599SOL    HW168713   9.345   2.963   3.717  1.3210  0.0714 -1.7764
21599SOL    HW268714   9.446   3.072   3.693  1.5592  0.3588  0.2925
21600SOL     OW68715   6.231   0.085   8.038 -0.3096  0.3816 -0.0501
21600SOL    HW168716   6.313   0.104   8.083  0.4064  0.2759 -1.2798
21600SOL    HW268717   6.256   0.069   7.947 -1.5720 -0.6438 -0.2520
21601SOL     OW68718   9.622   8.709   1.136 -0.1589  0.0093  0.6501
21601SOL    HW168719   9.666   8.786   1.173  2.6399 -0.2377 -1.7454
21601SOL    HW268720   9.568   8.744   1.065 -1.4903  0.0060  1.6275
21602SOL     OW68721   7.079   5.219   5.785  0.0131  0.5535 -0.2678
21602SOL    HW168722   7.127   5.149   5.740  0.1426 -1.7362  3.0315
21602SOL    HW268723   6.987   5.198   5.771  0.0367 -0.9116  1.3449
21603SOL     OW68724   4.274   6.577   9.064 -0.0831  0.0147 -0.1632
21603SOL    HW168725   4.277   6.484   9.044 -0.7246  0.2676 -1.5618
21603SOL    HW268726   4.329   6.587   9.141  1.5654 -1.2389 -1.1282
21604SOL     OW68727   9.974   4.663   2.549  0.2445 -0.6007 -0.5426
21604SOL    HW168728  10.006   4.576   2.524 -2.1820 -1.1408 -2.1360
21604SOL    HW268729   9.922   4.648   2.628  0.7801 -0.3759 -0.1420
21605SOL     OW68730   4.333   4.393   7.573  0.1830  0.1519  0.6783
21605SOL    HW168731   4.322   4.455   7.501  0.0236  0.6708  1.1409
21605SOL    HW268732   4.245   4.358   7.587  0.2846 -0.2320  0.3758
21606SOL     OW68733   1.849   6.857   3.106  0.4152 -0.8075 -0.5368
21606SOL    HW168734   1.868   6.828   3.017  1.3842 -0.0758 -0.5740
21606SOL    HW268735   1.825   6.949   3.097 -1.0145 -1.1277 -0.2140
21607SOL     OW68736   5.435   6.522   4.770 -0.5903 -0.6294  0.0145
21607SOL    HW168737   5.508   6.583   4.775 -1.3830  0.3839 -0.4937
21607SOL    HW268738   5.366   6.563   4.823 -0.1207 -2.6060  2.3700
21608SOL     OW68739   5.524   0.350   6.597 -0.4906  0.3159  0.7156
21608SOL    HW168740   5.563   0.330   6.511  0.8102  1.0990  1.1036
21608SOL    HW268741   5.504   0.264   6.634  0.6457 -0.1055  0.3886
21609SOL     OW68742   7.496   7.285   5.576  0.4313 -0.4389  0.1117
21609SOL    HW168743   7.570   7.244   5.532  1.1197 -0.1838  0.9992
21609SOL    HW268744   7.484   7.233   5.656 -1.0235 -1.1193 -0.5072
21610SOL     OW68745   4.010   3.606   3.679 -0.4040  0.2792  0.1693
21610SOL    HW168746   4.103   3.617   3.659 -0.2496 -1.2423 -0.0794
21610SOL    HW268747   3.995   3.512   3.668 -1.5777  0.2256  1.9152
21611SOL     OW68748   2.187   8.517   4.618  0.3412  0.2749 -0.6698
21611SOL    HW168749   2.141   8.447   4.663 -0.8681  1.6612  0.3743
21611SOL    HW268750   2.277   8.485   4.609  0.4052 -0.5077  1.8592
21612SOL     OW68751   9.305   8.861   2.168 -0.8388  0.6194  0.3733
21612SOL    HW168752   9.341   8.937   2.214  1.1581  0.4566 -0.8284
21612SOL    HW268753   9.223   8.894   2.130  0.4346  2.5216 -0.9351
21613SOL     OW68754   9.652   6.061   2.364 -0.3457  0.4599  0.2445
21613SOL    HW168755   9.579   6.047   2.304 -0.1985  1.5682 -0.2039
21613SOL    HW268756   9.729   6.064   2.308 -0.5057  4.9915 -0.0715
21614SOL     OW68757   6.139   3.409   1.360 -0.1821  0.4193 -0.4664
21614SOL    HW168758   6.184   3.366   1.288  1.5499  0.6143  0.4271
21614SOL    HW268759   6.106   3.491   1.323  0.5476  0.4450 -1.0815
21615SOL     OW68760   0.760   2.954   7.130  0.1311 -0.2460 -0.0416
21615SOL    HW168761   0.746   3.033   7.077  0.3505 -0.2317 -0.0768
21615SOL    HW268762   0.671   2.923   7.148  0.0526 -0.2667 -0.4421
21616SOL     OW68763   9.051   9.583   3.887  0.2855  0.2348 -0.2296
21616SOL    HW168764   9.087   9.554   3.971 -0.7344  0.4193  0.2920
21616SOL    HW268765   9.124   9.576   3.826  1.2828  0.9030  0.8473
21617SOL     OW68766   6.988   4.056   1.745 -0.0289 -0.3131 -0.1295
21617SOL    HW168767   7.071   4.096   1.773 -0.5145  1.1027 -0.6389
21617SOL    HW268768   6.992   3.966   1.779  1.3999 -0.0520  0.4606
21618SOL     OW68769   4.312   2.745   4.125  0.2510  0.2172  0.1402
21618SOL    HW168770   4.257   2.818   4.098  2.4222  0.6944 -3.7709
21618SOL    HW268771   4.394   2.785   4.152  0.0577 -0.6612  2.2504
21619SOL     OW68772   8.975   5.922   8.373 -0.2294  0.5618 -0.4308
21619SOL    HW168773   8.969   5.990   8.441 -2.2137 -0.4150  0.4475
21619SOL    HW268774   8.892   5.929   8.326 -1.4224 -2.4813  0.9624
21620SOL     OW68775   5.455   5.271   0.653  0.2158 -0.0558 -0.3093
21620SOL    HW168776   5.412   5.219   0.720 -0.9575  1.1348 -0.0899
21620SOL    HW268777   5.549   5.253   0.665 -0.1514 -2.7240 -0.8227
21621SOL     OW68778   4.363   5.170   9.181  0.0012 -0.0942 -0.8529
21621SOL    HW168779   4.334   5.157   9.271  0.8925 -0.8330 -0.6580
21621SOL    HW268780   4.422   5.096   9.164  2.0845  1.5351 -1.0780
21622SOL     OW68781   3.505   8.070   7.966 -0.2424  0.1259  0.3519
21622SOL    HW168782   3.550   7.986   7.975 -2.0280 -1.1805 -1.6773
21622SOL    HW268783   3.500   8.104   8.055  3.0750 -0.4618  0.8953
21623SOL     OW68784   1.717   0.724   0.446  0.4633  0.9167 -0.4575
21623SOL    HW168785   1.644   0.683   0.400  0.6591  1.3612 -1.1956
21623SOL    HW268786   1.765   0.770   0.377  1.5466  0.4798 -0.0160
21624SOL     OW68787   3.923   5.123   9.924 -0.4035 -0.4807 -0.6234
21624SOL    HW168788   4.013   5.137   9.896 -0.0835  0.8985  0.9465
21624SOL    HW268789   3.894   5.046   9.874  1.2496 -0.2811 -1.9812
21625SOL     OW68790   6.875   1.207   3.528 -0.1275  0.3172 -0.0267
21625SOL    HW168791   6.844   1.122   3.497  0.8397 -1.2120  2.8567
21625SOL    HW268792   6.801   1.244   3.577 -0.5057  1.1606 -1.1729
21626SOL     OW68793   2.311   5.881   7.381  0.2172 -0.7000 -1.2001
21626SOL    HW168794   2.316   5.905   7.288  0.0947 -0.9896 -1.2844
21626SOL    HW268795   2.241   5.815   7.384 -1.0119  0.5606 -0.6409
21627SOL     OW68796   3.618   2.354   2.662  0.1447 -0.2696 -0.4042
21627SOL    HW168797   3.551   2.391   2.720  0.8105  1.7395 -0.8458
21627SOL    HW268798   3.613   2.408   2.583  0.3347 -1.9574 -1.6023
21628SOL     OW68799   3.250   7.760   7.919  0.3716 -0.1775 -0.1181
21628SOL    HW168800   3.176   7.806   7.960 -0.5308 -0.1073 -1.7540
21628SOL    HW268801   3.314   7.751   7.990 -0.4744  1.3098  0.8993
21629SOL     OW68802   9.533   2.450   7.670  0.3092  0.0958 -0.4120
21629SOL    HW168803   9.556   2.524   7.614  0.7293 -0.3146 -0.7925
21629SOL    HW268804   9.536   2.374   7.612  0.0158 -0.2420  0.0042
21630SOL     OW68805   1.992   0.133   3.795 -0.0248  0.4850  0.0846
21630SOL    HW168806   2.038   0.161   3.874  1.4032 -0.3362 -0.4147
21630SOL    HW268807   2.030   0.047   3.774 -0.0841  0.8591 -1.7070
21631SOL     OW68808   3.768   1.847   6.797 -0.9893  0.3348 -0.4504
21631SOL    HW168809   3.741   1.924   6.847 -0.6463 -0.3173  0.7978
21631SOL    HW268810   3.689   1.820   6.750 -1.4743  0.6828  0.1457
21632SOL     OW68811   2.626   4.806   7.071 -0.4208 -0.2870 -0.3447
21632SOL    HW168812   2.708   4.855   7.079 -1.0501  0.7117  0.2903
21632SOL    HW268813   2.558   4.873   7.077 -1.2851 -1.1106 -0.7845
21633SOL     OW68814   6.190   1.523   8.972  0.8099 -0.0223 -0.2076
21633SOL    HW168815   6.131   1.469   9.024  1.3440 -0.7081 -0.2890
21633SOL    HW268816   6.175   1.612   9.004  2.9178 -0.6237  3.0501
21634SOL     OW68817   4.676   5.468   9.129  0.2873 -0.4940  0.3741
21634SOL    HW168818   4.716   5.381   9.125  0.1400 -0.5120 -1.5871
21634SOL    HW268819   4.586   5.455   9.100 -0.5652 -0.0754  2.6105
21635SOL     OW68820   2.348   5.938   5.182  0.7348 -0.1946  0.4491
21635SOL    HW168821   2.391   6.018   5.211 -0.0709  0.7805 -0.9700
21635SOL    HW268822   2.412   5.896   5.125 -0.0402  1.1484 -1.4891
21636SOL     OW68823   2.078   3.112   0.876 -0.2793  0.0338  0.3637
21636SOL    HW168824   1.987   3.093   0.900 -0.0857 -1.7418 -0.1466
21636SOL    HW268825   2.108   3.033   0.831  1.2299  0.9563 -0.3409
21637SOL     OW68826   9.870   0.549   9.147 -0.3460  0.2713 -0.1788
21637SOL    HW168827   9.929   0.502   9.088  0.6115 -0.4842  1.2934
21637SOL    HW268828   9.785   0.508   9.135  0.0981 -0.6571 -0.1880
21638SOL     OW68829   4.150   5.901   1.912 -0.1975  0.0881  0.0438
21638SOL    HW168830   4.171   5.833   1.848  0.0595 -0.9151  1.1497
21638SOL    HW268831   4.091   5.858   1.974 -2.0474  1.5986 -0.5568
21639SOL     OW68832   3.007   0.566   9.783  0.0169 -0.3155 -0.3984
21639SOL    HW168833   2.994   0.487   9.730 -0.9454 -0.8644  0.6147
21639SOL    HW268834   2.919   0.604   9.790  0.5093  1.0118 -1.1002
21640SOL     OW68835   5.051   9.420   9.386 -0.0329  0.1985  0.3708
21640SOL    HW168836   5.078   9.476   9.459 -0.2202 -0.3662  0.8684
21640SOL    HW268837   5.132   9.409   9.335 -0.0364  1.0903  0.1483
21641SOL     OW68838   7.944   0.273   0.557  0.0207 -0.0745 -0.7858
21641SOL    HW168839   7.948   0.358   0.513 -0.2725  0.7016  0.6106
21641SOL    HW268840   8.036   0.250   0.573  0.0814  0.3558 -0.5001
21642SOL     OW68841   0.902   9.121   4.827 -0.6190  0.3112  0.4002
21642SOL    HW168842   0.910   9.199   4.772 -1.1255  0.9704  1.2411
21642SOL    HW268843   0.818   9.082   4.803 -0.4734  0.1472  0.1482
21643SOL     OW68844   5.142   1.477   0.572  0.3032 -0.4949 -0.0645
21643SOL    HW168845   5.220   1.509   0.619  0.8861  0.0704 -1.3816
21643SOL    HW268846   5.077   1.546   0.586  0.3314 -0.5283  0.2553
21644SOL     OW68847   6.476   5.439   9.365 -0.7418  0.0594 -0.4753
21644SOL    HW168848   6.458   5.345   9.363 -0.4989 -0.0050  0.0719
21644SOL    HW268849   6.445   5.471   9.280  0.5149 -0.7636 -1.2850
21645SOL     OW68850   2.012   4.878   8.277 -0.5351 -0.3297  0.2282
21645SOL    HW168851   2.023   4.973   8.283 -0.2077 -0.2618 -1.0741
21645SOL    HW268852   1.965   4.854   8.357  0.5492  0.7387  1.2395
21646SOL     OW68853   5.982   7.563   4.284 -0.2608 -0.2448  0.3429
21646SOL    HW168854   5.992   7.560   4.189 -4.9744  0.7445 -0.4494
21646SOL    HW268855   6.014   7.478   4.314  1.3058 -0.6092 -2.1140
21647SOL     OW68856   7.888   8.958   1.987  0.8741 -0.2664 -0.2376
21647SOL    HW168857   7.919   8.899   2.056  0.3321 -0.0492  0.1991
21647SOL    HW268858   7.794   8.941   1.981  0.4532  1.4465  0.8047
21648SOL     OW68859   4.795   5.056   1.967 -0.2344  0.3927  0.1555
21648SOL    HW168860   4.704   5.064   1.997 -0.7668  1.2999 -1.5402
21648SOL    HW268861   4.810   4.961   1.961 -0.8214  0.2289  1.1168
21649SOL     OW68862   6.983   3.833   6.871  0.3138 -0.0818  0.0763
21649SOL    HW168863   6.935   3.868   6.946 -1.4009 -0.2551 -0.8785
21649SOL    HW268864   6.969   3.898   6.802 -0.8818 -1.4050 -1.0063
21650SOL     OW68865   2.316   2.969   6.139  0.6817 -0.3668 -0.0200
21650SOL    HW168866   2.291   2.877   6.133  1.7437 -0.6527 -0.1429
21650SOL    HW268867   2.406   2.972   6.107  0.7314  0.6813  0.1890
21651SOL     OW68868   8.139   5.520   4.890 -0.0604  0.5304  0.5874
21651SOL    HW168869   8.160   5.448   4.830  0.0265  1.5887 -0.7000
21651SOL    HW268870   8.105   5.477   4.969 -0.5167 -0.8977 -0.3502
21652SOL     OW68871   2.595   3.383   2.242 -0.1343 -0.4080  0.1753
21652SOL    HW168872   2.619   3.347   2.327 -2.4458 -1.0097  0.6167
21652SOL    HW268873   2.501   3.368   2.234 -0.1004  0.1771 -2.2353
21653SOL     OW68874   7.335   5.461   6.665  0.1516  1.0241 -0.4622
21653SOL    HW168875   7.347   5.397   6.595 -1.3222  0.4529 -0.2215
21653SOL    HW268876   7.328   5.408   6.745 -0.3539  1.5239 -0.1670
21654SOL     OW68877   5.567  10.003   7.805 -0.5159  0.1736  0.4458
21654SOL    HW168878   5.649   9.967   7.772 -2.3021  0.1012 -4.7678
21654SOL    HW268879   5.516   9.925   7.829 -0.0068  0.0905  1.3178
21655SOL     OW68880   4.515   3.805   9.561  0.3200 -0.4210 -0.3409
21655SOL    HW168881   4.570   3.862   9.615 -0.5550 -0.0570  0.1798
21655SOL    HW268882   4.428   3.843   9.566 -0.2212 -1.6192 -0.2486
21656SOL     OW68883   9.655   8.692   0.001  0.1494  0.2073 -0.4892
21656SOL    HW168884   9.648   8.622   0.066  0.9293  1.4307  0.9789
21656SOL    HW268885   9.695   8.650  -0.076 -2.8784 -1.8096 -1.1437
21657SOL     OW68886   0.879   4.673   5.507 -0.4884 -0.8705 -0.3348
21657SOL    HW168887   0.804   4.733   5.512  2.1561  2.8495 -1.2314
21657SOL    HW268888   0.890   4.642   5.597 -1.5028  0.6901  0.3830
21658SOL     OW68889   9.182  10.005   5.522  0.5329  0.0118 -0.2431
21658SOL    HW168890   9.113  10.071   5.516  0.0722 -0.4469 -0.1199
21658SOL    HW268891   9.139   9.929   5.563  1.0593 -0.3532 -0.3525
21659SOL     OW68892   7.531   9.581   9.840 -0.2624 -0.1407 -0.7203
21659SOL    HW168893   7.452   9.559   9.790 -0.1660 -0.2621 -0.8207
21659SOL    HW268894   7.552   9.501   9.888 -1.1161  0.3634  0.5582
21660SOL     OW68895   8.001   8.449   5.082 -0.8052 -0.6225  0.4038
21660SOL    HW168896   8.060   8.455   5.157 -0.6135 -1.9647  0.3800
21660SOL    HW268897   8.046   8.496   5.011  0.0044 -1.1942  0.5292
21661SOL     OW68898   8.630   3.259   1.492  0.1537  0.0246  0.1237
21661SOL    HW168899   8.679   3.176   1.496 -0.8481 -0.5342  2.3166
21661SOL    HW268900   8.547   3.235   1.451 -0.2020 -0.1160  0.9109
21662SOL     OW68901   4.175   8.504   8.329 -1.0911  0.7438 -0.5754
21662SOL    HW168902   4.120   8.578   8.304 -1.4976  0.4066 -0.7071
21662SOL    HW268903   4.146   8.433   8.271 -1.1894  0.2919  0.0158
21663SOL     OW68904   0.629   5.228   5.051  0.5248  0.2875  0.5517
21663SOL    HW168905   0.631   5.280   4.971 -0.5711 -0.6753 -0.1393
21663SOL    HW268906   0.721   5.205   5.067  0.8404  1.1602  0.0311
21664SOL     OW68907   6.419   9.640   8.422 -0.8526  0.4342  0.2246
21664SOL    HW168908   6.456   9.724   8.396 -0.9489  1.2377  2.4519
21664SOL    HW268909   6.324   9.650   8.410 -0.8370  0.5100  0.1687
21665SOL     OW68910   6.432   8.571   7.046  0.3202  0.3588 -0.0211
21665SOL    HW168911   6.358   8.594   6.990 -0.2866 -1.5006 -0.0357
21665SOL    HW268912   6.435   8.476   7.044  1.6460  0.3357  1.3839
21666SOL     OW68913   9.844   4.697   3.982  0.2676  1.0274 -0.3968
21666SOL    HW168914   9.756   4.733   3.981  0.2459  0.9566 -1.1973
21666SOL    HW268915   9.831   4.602   3.984  0.3277  1.0143  1.4050
21667SOL     OW68916   0.024   7.168   4.349 -0.2182 -0.3567  0.0245
21667SOL    HW168917   0.020   7.203   4.260  0.7931  0.9356  0.4600
21667SOL    HW268918   0.108   7.198   4.383  0.5023 -2.7952  0.6273
21668SOL     OW68919   4.707   1.344   9.688 -1.1401 -0.4903  0.0261
21668SOL    HW168920   4.768   1.274   9.667 -0.6650 -0.0604 -0.0582
21668SOL    HW268921   4.762   1.419   9.709 -1.6400 -0.0732 -0.1120
21669SOL     OW68922   7.886   6.752   8.795  0.0924  0.4876 -0.2669
21669SOL    HW168923   7.880   6.848   8.797  1.3887  0.6000 -0.8481
21669SOL    HW268924   7.911   6.731   8.706 -2.9603 -0.6334 -1.0017
21670SOL     OW68925   7.698   8.142   6.875  0.1002 -0.4854  0.6131
21670SOL    HW168926   7.787   8.168   6.850 -0.2847  0.1495 -0.1504
21670SOL    HW268927   7.708   8.107   6.963  0.9312  0.7331  1.0388
21671SOL     OW68928   5.958   4.234   3.757 -0.0734 -0.3819 -0.3095
21671SOL    HW168929   5.973   4.264   3.667 -0.2467 -0.9459 -0.5316
21671SOL    HW268930   6.039   4.188   3.781  0.9486  1.7956  0.6989
21672SOL     OW68931   6.492   1.927  10.003  0.1859  0.6217 -0.4806
21672SOL    HW168932   6.514   1.959   9.916  1.7151  0.4057 -0.1981
21672SOL    HW268933   6.478   2.007  10.055  0.5446  0.7722 -0.6132
21673SOL     OW68934   0.563   0.332   6.106 -0.2180  0.1993 -0.5509
21673SOL    HW168935   0.506   0.337   6.182  3.0039  0.6543  2.0591
21673SOL    HW268936   0.574   0.422   6.078 -0.7877  0.1065 -1.0900
21674SOL     OW68937   4.829   8.929   4.125  0.5005  0.4294  0.6719
21674SOL    HW168938   4.905   8.980   4.095 -0.1665  0.4398 -1.1749
21674SOL    HW268939   4.867   8.851   4.165  1.5098  0.2798 -0.4963
21675SOL     OW68940   8.271   8.244   6.266  0.2771 -0.3178  0.0342
21675SOL    HW168941   8.354   8.235   6.312 -0.5369 -1.3213  1.3620
21675SOL    HW268942   8.277   8.182   6.193  0.2801 -1.1708  0.7530
21676SOL     OW68943   8.072   7.664   0.665  0.0992  0.3770  0.4656
21676SOL    HW168944   8.077   7.569   0.669  2.0198  0.4209  0.2652
21676SOL    HW268945   8.014   7.683   0.591 -0.0009 -0.6332  0.2805
21677SOL     OW68946   7.722   3.411   6.336  0.0747  0.6493 -0.3082
21677SOL    HW168947   7.633   3.399   6.369  0.6490 -0.5821  0.8610
21677SOL    HW268948   7.779   3.375   6.403  1.4182  0.3126 -1.5585
21678SOL     OW68949   1.803   0.290  10.193 -0.4288  0.8721 -0.3426
21678SOL    HW168950   1.801   0.375  10.237  0.0737  0.2819  0.8615
21678SOL    HW268951   1.887   0.252  10.216 -2.0129 -1.4865  2.2435
21679SOL     OW68952   4.848   1.796   5.362  0.1549  0.3858  0.2672
21679SOL    HW168953   4.885   1.811   5.449  0.1411  0.0220  0.3360
21679SOL    HW268954   4.870   1.705   5.341 -0.7911  0.1245  0.3577
21680SOL     OW68955   3.277   2.306   3.335  0.1855 -0.2777  0.2862
21680SOL    HW168956   3.251   2.359   3.260  1.2825  3.0888  2.0738
21680SOL    HW268957   3.241   2.219   3.317 -1.5453  0.9574 -2.9922
21681SOL     OW68958   4.552   2.948   0.904  0.1536  0.3635  0.0895
21681SOL    HW168959   4.516   2.865   0.934 -1.6683  0.1167 -2.4535
21681SOL    HW268960   4.573   2.934   0.811 -1.3985  3.0290 -0.7806
21682SOL     OW68961   7.824   8.413   9.569 -0.1728  0.5388 -0.6033
21682SOL    HW168962   7.870   8.392   9.487  1.3437  4.1799 -0.9176
21682SOL    HW268963   7.741   8.452   9.541  0.2415  1.5671 -0.4508
21683SOL     OW68964   8.579   9.186   5.394 -0.2841  0.0757 -0.0278
21683SOL    HW168965   8.553   9.102   5.356 -0.2441  1.2706 -2.9342
21683SOL    HW268966   8.535   9.188   5.479 -0.9185 -2.5183 -0.2115
21684SOL     OW68967   3.950   4.683   3.749  0.1385 -0.4584 -0.1185
21684SOL    HW168968   3.976   4.596   3.718  1.9711 -0.6503  1.7168
21684SOL    HW268969   4.026   4.738   3.730  0.0687  0.1028  1.1772
21685SOL     OW68970   3.734   2.022   9.560 -0.1673 -0.2045 -0.1782
21685SOL    HW168971   3.807   1.995   9.505  1.1714  1.2998  0.7803
21685SOL    HW268972   3.681   2.078   9.503  1.8631  2.3553  0.2555
21686SOL     OW68973   0.071   9.576   5.654 -0.0856  0.6206  0.0783
21686SOL    HW168974   0.103   9.634   5.724 -1.0675  0.3053  0.8228
21686SOL    HW268975   0.143   9.572   5.591  0.0921  2.4966  0.0858
21687SOL     OW68976   4.100   0.351   8.186 -0.4626  0.6212 -0.5907
21687SOL    HW168977   4.070   0.441   8.201 -0.2533  0.8310 -1.3717
21687SOL    HW268978   4.072   0.332   8.097  1.9131  0.9161 -1.4535
21688SOL     OW68979   0.349   4.052   5.035 -0.0419 -0.1477 -0.2716
21688SOL    HW168980   0.265   4.017   5.006 -0.2402  0.5529 -0.5744
21688SOL    HW268981   0.343   4.147   5.019  0.7359 -0.0622 -0.1410
21689SOL     OW68982   0.038   8.170   7.900  0.1287 -0.0818 -0.1501
21689SOL    HW168983   0.021   8.146   7.809 -0.4427 -1.4980  0.2963
21689SOL    HW268984  -0.022   8.242   7.919 -1.8365 -1.6520 -0.0915
21690SOL     OW68985   1.021   9.024  10.039  0.3004 -0.3798  0.2957
21690SOL    HW168986   0.958   9.014  10.111 -0.1360  0.3520  0.0197
21690SOL    HW268987   1.078   9.095  10.068 -0.1348  0.2054 -0.2528
21691SOL     OW68988   0.515   5.520   2.463 -0.0334 -0.0015 -0.0590
21691SOL    HW168989   0.528   5.493   2.372  0.5481  0.7737 -0.2234
21691SOL    HW268990   0.524   5.615   2.461 -1.2228  0.1479  0.6176
21692SOL     OW68991   1.986   5.137   8.249  0.0210 -0.4053 -0.4335
21692SOL    HW168992   2.068   5.182   8.271 -1.0571  1.5409 -0.1619
21692SOL    HW268993   1.928   5.207   8.219 -0.9649 -1.9895 -2.4543
21693SOL     OW68994   5.391   2.216   8.176 -0.4535 -0.3482  0.0919
21693SOL    HW168995   5.339   2.273   8.233 -1.1210 -0.9322  0.0873
21693SOL    HW268996   5.478   2.255   8.175 -0.6212  0.0700  0.9432
21694SOL     OW68997   2.315   1.179   4.983  0.3685  0.4131 -0.3659
21694SOL    HW168998   2.374   1.197   4.910  1.8066  1.0758  0.8873
21694SOL    HW268999   2.265   1.260   4.993  1.6765  1.1470  0.6626
21695SOL     OW69000   6.752   7.848   9.705 -0.2962 -0.0192 -0.2529
21695SOL    HW169001   6.729   7.882   9.619  0.3103  0.5222 -0.2075
21695SOL    HW269002   6.697   7.899   9.766 -0.5995 -0.2833 -0.3002
21696SOL     OW69003   7.493   2.385   4.755 -0.4506  0.1797  0.8100
21696SOL    HW169004   7.537   2.465   4.784 -0.2165 -0.2738  1.7312
21696SOL    HW269005   7.536   2.315   4.804  0.2568 -0.6732 -0.9308
21697SOL     OW69006   4.056   2.792   6.867 -0.1314 -0.0282  0.0852
21697SOL    HW169007   4.089   2.881   6.858  0.1903 -0.0958  0.5509
21697SOL    HW269008   3.996   2.796   6.942  1.5309 -0.6307  1.5464
21698SOL     OW69009   6.096   6.617   6.898 -0.2940 -0.0722  0.9198
21698SOL    HW169010   6.004   6.644   6.897 -0.7160 -1.3599 -0.8736
21698SOL    HW269011   6.138   6.673   6.832  0.1765  0.3543  1.5692
21699SOL     OW69012   7.447   6.058   5.784 -0.5050  0.0848  0.0752
21699SOL    HW169013   7.527   6.007   5.778  0.3306  0.9994  2.1667
21699SOL    HW269014   7.389   6.007   5.841 -1.2649 -0.3572 -1.0572
21700SOL     OW69015   6.561   7.235   3.875 -0.5922 -0.0563  0.0141
21700SOL    HW169016   6.469   7.224   3.852 -0.4382 -0.1129 -0.6012
21700SOL    HW269017   6.570   7.192   3.960 -1.0557 -0.3461 -0.0819
21701SOL     OW69018   0.540   0.953   1.620  0.0354  0.1045 -0.0918
21701SOL    HW169019   0.478   0.894   1.577 -0.4058  1.3936 -1.3313
21701SOL    HW269020   0.508   0.962   1.709 -0.3718 -0.8408 -0.1335
21702SOL     OW69021   9.419   3.081   3.290 -0.1402  0.4511 -0.4876
21702SOL    HW169022   9.427   3.075   3.386 -0.5221 -0.3704 -0.4913
21702SOL    HW269023   9.333   3.118   3.276 -0.0177  0.7246 -0.5110
21703SOL     OW69024   3.961   4.964   7.538 -0.3011 -0.0469 -0.3887
21703SOL    HW169025   3.902   5.038   7.525 -0.8489 -0.5026 -0.5263
21703SOL    HW269026   3.984   4.935   7.449  0.3854  0.3173 -0.3423
21704SOL     OW69027   6.202   1.659   9.394  0.9304 -0.0066 -0.5782
21704SOL    HW169028   6.213   1.743   9.440  1.5519  0.3646 -1.3779
21704SOL    HW269029   6.272   1.659   9.329 -0.0533 -0.4378 -1.6487
21705SOL     OW69030   4.930   3.541   2.054  0.1892  0.1309  0.0886
21705SOL    HW169031   4.980   3.594   1.991 -1.6622  1.2227 -0.5383
21705SOL    HW269032   4.905   3.463   2.004 -1.3069  1.0119 -0.5982
21706SOL     OW69033   1.650   8.062   6.168 -0.0435  0.5425 -0.6140
21706SOL    HW169034   1.726   8.101   6.211  1.5556 -1.0021 -1.8617
21706SOL    HW269035   1.629   8.122   6.096  0.1611  0.8472 -0.4194
21707SOL     OW69036   2.964   8.805   3.023 -0.4636  0.2610  0.7677
21707SOL    HW169037   2.991   8.882   2.974  0.8107 -1.0518 -0.6899
21707SOL    HW269038   2.881   8.831   3.065  0.2434  2.5937  0.8679
21708SOL     OW69039   9.942   9.798   9.364 -0.0522 -0.2953  0.6253
21708SOL    HW169040   9.909   9.876   9.320 -0.2168 -0.1199  1.0634
21708SOL    HW269041   9.907   9.802   9.453  0.1984 -0.7004  0.7501
21709SOL     OW69042   2.730   7.406   0.563  0.0306  0.7103  0.0631
21709SOL    HW169043   2.774   7.452   0.635  1.9555 -0.7483 -0.1063
21709SOL    HW269044   2.801   7.369   0.511 -1.3965 -0.7914 -0.9151
21710SOL     OW69045   8.783   2.473   0.451  0.0835 -0.1903  0.0666
21710SOL    HW169046   8.690   2.495   0.445 -0.0926 -1.1409 -1.1896
21710SOL    HW269047   8.784   2.381   0.477  0.7107  0.0722  1.0346
21711SOL     OW69048   3.120   9.580   3.255 -0.2356 -0.1013 -0.4150
21711SOL    HW169049   3.050   9.564   3.319  0.4447 -2.8764 -0.2669
21711SOL    HW269050   3.134   9.675   3.259 -2.6173  0.2876  0.9658
21712SOL     OW69051   6.319   5.164   5.028  0.3223  0.3346 -0.1446
21712SOL    HW169052   6.409   5.141   5.009  0.2221 -0.7603  0.6379
21712SOL    HW269053   6.271   5.144   4.947  0.5505 -0.4166 -0.0955
21713SOL     OW69054   2.317   7.709   7.603 -0.3067  0.1201 -0.7679
21713SOL    HW169055   2.412   7.722   7.602 -0.3752  1.0055  0.8895
21713SOL    HW269056   2.305   7.622   7.565  1.1041  0.2327 -1.5691
21714SOL     OW69057   1.897   6.728   9.172 -0.1052  0.2395 -0.5168
21714SOL    HW169058   1.962   6.759   9.109  0.0515 -0.0996 -0.5264
21714SOL    HW269059   1.821   6.784   9.158  0.7685  1.8194  0.6800
21715SOL     OW69060   5.406   0.775   4.053 -0.3259  0.2463  0.2927
21715SOL    HW169061   5.380   0.839   4.119 -1.4989  0.1750 -0.0838
21715SOL    HW269062   5.500   0.764   4.067 -0.2179  1.5616  0.7801
21716SOL     OW69063   2.053   4.071   6.253 -0.8685 -0.4707 -0.4156
21716SOL    HW169064   2.110   4.080   6.329 -0.4880 -0.3329 -0.7112
21716SOL    HW269065   2.005   4.153   6.248 -0.4533 -0.2443 -0.6756
21717SOL     OW69066   2.865   0.869   7.586 -0.4872 -0.3632  0.2356
21717SOL    HW169067   2.815   0.818   7.523  0.2363  0.6864 -1.2576
21717SOL    HW269068   2.956   0.860   7.558 -0.4801  3.6156 -1.6775
21718SOL     OW69069   2.378   7.067   4.494 -0.0127  0.0267  0.3019
21718SOL    HW169070   2.319   7.115   4.436 -3.0794  0.4984  3.4780
21718SOL    HW269071   2.449   7.129   4.513 -0.6313  0.9891 -0.4448
21719SOL     OW69072   2.418   8.285   8.884 -0.3725  0.0748 -0.1539
21719SOL    HW169073   2.403   8.199   8.923  2.8425 -0.4024  0.2969
21719SOL    HW269074   2.357   8.289   8.810 -1.9487 -1.7501  0.9590
21720SOL     OW69075   6.572   8.980   3.146  0.1370 -0.1876 -0.6302
21720SOL    HW169076   6.622   8.967   3.226  1.0767  1.5633 -0.8921
21720SOL    HW269077   6.547   8.891   3.119  0.5555 -0.8732  1.0961
21721SOL     OW69078   7.487   6.223   1.514  0.2240 -0.2843  0.0698
21721SOL    HW169079   7.541   6.150   1.545  0.5859  0.6605  1.8097
21721SOL    HW269080   7.485   6.284   1.587 -1.9354  0.4433 -0.5138
21722SOL     OW69081   0.426   8.387   5.899 -0.1188  0.2568  0.2431
21722SOL    HW169082   0.427   8.461   5.959 -1.7603  0.2008  0.3679
21722SOL    HW269083   0.439   8.427   5.813  0.4719  0.5131  0.4392
21723SOL     OW69084   5.199   4.798   5.487  0.2600  0.0731 -0.6468
21723SOL    HW169085   5.271   4.860   5.503  0.7665 -0.0717 -2.2415
21723SOL    HW269086   5.231   4.715   5.522  0.5893  0.1699 -0.7087
21724SOL     OW69087   0.127   9.876   0.600  0.6681 -0.2157 -0.3677
21724SOL    HW169088   0.182   9.798   0.607  1.3579  0.2156 -0.8409
21724SOL    HW269089   0.115   9.888   0.506  0.2346  0.0230 -0.2843
21725SOL     OW69090   4.828  10.177   9.805  0.1301  0.3138  0.2530
21725SOL    HW169091   4.876  10.122   9.743  0.1892 -0.1109  0.6590
21725SOL    HW269092   4.736  10.163   9.783  0.1763  0.7168 -0.1897
21726SOL     OW69093   0.703   1.622   6.762 -0.4642 -0.0909 -0.1478
21726SOL    HW169094   0.634   1.596   6.823 -1.9677 -1.4463 -2.2487
21726SOL    HW269095   0.680   1.712   6.737 -0.1780  0.2555  0.8218
21727SOL     OW69096   4.933   9.524   3.348 -0.0417  0.3165 -0.4911
21727SOL    HW169097   4.912   9.511   3.441 -0.1367  1.3231 -0.3559
21727SOL    HW269098   4.998   9.457   3.328 -0.5997 -0.4111  0.0951
21728SOL     OW69099   5.527   3.175   7.224  0.5677  0.0808 -0.5342
21728SOL    HW169100   5.515   3.269   7.242 -0.0887  0.2509 -1.7485
21728SOL    HW269101   5.618   3.168   7.194 -0.0641  0.7617 -2.7849
21729SOL     OW69102   7.621   5.477   5.550 -0.1555 -0.7370  0.1159
21729SOL    HW169103   7.645   5.435   5.632  0.2806 -1.0982 -0.1884
21729SOL    HW269104   7.683   5.441   5.486  0.3681  0.5211 -0.1229
21730SOL     OW69105   8.537   6.242   2.074  0.2421 -0.3027  0.0953
21730SOL    HW169106   8.576   6.327   2.091  0.5674 -0.0787 -1.6537
21730SOL    HW269107   8.606   6.179   2.095  1.0149  0.0161 -1.3966
21731SOL     OW69108   9.288   9.934   2.277  0.3394  0.0825  0.0626
21731SOL    HW169109   9.326   9.924   2.364  0.9143 -0.3193 -0.2285
21731SOL    HW269110   9.224  10.005   2.287  2.7168  2.3834  0.0910
21732SOL     OW69111   6.340   8.417   1.259 -0.3205  0.0921 -0.0805
21732SOL    HW169112   6.398   8.487   1.228 -1.2363  0.2819 -1.4655
21732SOL    HW269113   6.296   8.454   1.336  0.2794  0.4938  0.0709
21733SOL     OW69114   5.710   2.156   8.353 -0.3958  0.0453 -0.1363
21733SOL    HW169115   5.742   2.229   8.300 -1.5765  0.3997 -0.4042
21733SOL    HW269116   5.615   2.156   8.338 -0.7074 -0.1161  1.6561
21734SOL     OW69117   0.416   1.267   0.740 -0.1304  0.2307 -0.0396
21734SOL    HW169118   0.438   1.239   0.829 -0.1413 -0.1024 -0.1405
21734SOL    HW269119   0.473   1.215   0.683 -1.7505 -1.3029 -0.3670
21735SOL     OW69120   1.822   5.576   0.874  0.1501  0.0597  0.6225
21735SOL    HW169121   1.798   5.664   0.902 -1.5435 -0.9054  2.4525
21735SOL    HW269122   1.787   5.519   0.942 -0.3191 -2.1815 -1.3557
21736SOL     OW69123   6.591   0.251   0.707  0.0800 -0.2028 -0.2892
21736SOL    HW169124   6.523   0.267   0.641  1.0845  1.4707 -0.9767
21736SOL    HW269125   6.549   0.193   0.771 -2.6698  2.2125  0.3182
21737SOL     OW69126   5.786   3.016   7.463  0.0925 -0.1393 -0.2756
21737SOL    HW169127   5.825   3.088   7.511  0.8479 -0.3643 -0.5470
21737SOL    HW269128   5.787   3.045   7.372 -0.8632  0.0702 -0.2350
21738SOL     OW69129   2.566   2.821   0.764  0.1280  0.4105 -0.3903
21738SOL    HW169130   2.584   2.752   0.700 -0.0214 -0.2844  0.3008
21738SOL    HW269131   2.563   2.902   0.712  0.4587 -0.0763 -1.1905
21739SOL     OW69132   3.082   7.804   1.629  0.8075  0.3586  0.3924
21739SOL    HW169133   3.082   7.834   1.537  2.7493 -1.2395 -0.1871
21739SOL    HW269134   3.035   7.721   1.626 -1.0688  1.3236  1.3014
21740SOL     OW69135   5.175   3.738   0.819  0.1733  0.8106  0.4633
21740SOL    HW169136   5.195   3.675   0.888  1.2976  0.5313 -0.0837
21740SOL    HW269137   5.081   3.728   0.804  0.3313 -0.8208  0.3187
21741SOL     OW69138   4.054   2.046   8.749  0.7637  0.3708 -0.1051
21741SOL    HW169139   4.109   2.085   8.682 -1.0562 -0.1803 -2.0163
21741SOL    HW269140   4.096   1.962   8.768  0.6907  0.0253 -1.4110
21742SOL     OW69141   9.171   4.588   4.966 -0.2036 -0.3947  0.1027
21742SOL    HW169142   9.227   4.573   4.889  1.1706 -0.7312  1.1405
21742SOL    HW269143   9.173   4.683   4.978 -0.2671 -0.3593 -0.1599
21743SOL     OW69144   1.865   0.472   2.516  0.4057  0.2189 -0.3291
21743SOL    HW169145   1.911   0.388   2.511 -0.4648 -0.5279  2.5130
21743SOL    HW269146   1.935   0.537   2.521  1.0886 -0.3773 -1.5294
21744SOL     OW69147   1.242   1.323   3.194 -0.3014 -0.1992 -0.5206
21744SOL    HW169148   1.217   1.287   3.279 -0.2187  0.6865 -0.1081
21744SOL    HW269149   1.219   1.255   3.131 -2.9272  0.2065 -0.0897
21745SOL     OW69150   7.141   6.424   3.087  0.3841 -0.0111  0.8303
21745SOL    HW169151   7.183   6.465   3.163  1.1326  0.2159  0.3065
21745SOL    HW269152   7.149   6.489   3.017 -0.4785 -0.1394  0.6004
21746SOL     OW69153   2.774   3.175   0.505  0.5241 -0.2235  0.1201
21746SOL    HW169154   2.788   3.270   0.501 -1.8947  0.3868  2.9169
21746SOL    HW269155   2.862   3.138   0.492  1.4718  2.3347 -1.5184
21747SOL     OW69156   8.298   3.616   9.310 -0.6249  0.3868  0.1266
21747SOL    HW169157   8.341   3.560   9.375  0.7667  0.9968 -0.2151
21747SOL    HW269158   8.275   3.557   9.239  1.2920  0.2629 -0.4582
21748SOL     OW69159   7.214   3.099   6.319 -0.0385  0.0940  0.0471
21748SOL    HW169160   7.249   3.020   6.278 -0.8895 -0.2143 -0.1168
21748SOL    HW269161   7.164   3.067   6.394  0.7261  0.5867  0.7823
21749SOL     OW69162   9.417   0.613   3.349  0.5581 -0.0089  1.1219
21749SOL    HW169163   9.506   0.630   3.380  0.8615 -0.1744  0.3828
21749SOL    HW269164   9.393   0.530   3.390  1.2153 -0.5757  0.4071
21750SOL     OW69165   8.521   8.940   8.576  0.8027 -0.5069 -0.5354
21750SOL    HW169166   8.440   8.952   8.526  0.5752  2.4974  0.3904
21750SOL    HW269167   8.588   8.983   8.523  1.4648 -1.3913 -0.4335
21751SOL     OW69168   0.389   7.702   7.364  0.2241 -0.1929  0.4616
21751SOL    HW169169   0.339   7.774   7.325  0.7925  0.6927  1.3234
21751SOL    HW269170   0.386   7.719   7.458 -0.1725 -1.6673  0.7396
21752SOL     OW69171   5.573   5.848   3.430 -0.5147 -0.3137 -0.1594
21752SOL    HW169172   5.588   5.942   3.436 -0.5733 -0.3686  1.0017
21752SOL    HW269173   5.660   5.809   3.440 -0.4400 -0.3838 -0.9946
21753SOL     OW69174   1.822  10.084   1.087 -0.1553  0.3284  0.5271
21753SOL    HW169175   1.796  10.099   0.996  0.9967  0.5549  0.2119
21753SOL    HW269176   1.754  10.027   1.123 -1.5382  1.6075  0.0384
21754SOL     OW69177   2.873   5.877   2.943 -0.0925  0.0252  0.3470
21754SOL    HW169178   2.957   5.837   2.966 -0.3547 -2.2782 -2.0884
21754SOL    HW269179   2.875   5.882   2.847 -1.6703  2.5441  0.3559
21755SOL     OW69180   8.050   9.225  10.155  0.4397  0.8493 -0.1882
21755SOL    HW169181   8.040   9.133  10.132 -1.2405  1.2825 -1.3602
21755SOL    HW269182   8.117   9.225  10.224  0.9244 -1.1649 -0.5889
21756SOL     OW69183   1.427   4.495   7.763 -0.4680  0.2746  0.2981
21756SOL    HW169184   1.482   4.516   7.839 -0.1567 -2.0607  0.7897
21756SOL    HW269185   1.339   4.522   7.789  0.0597  2.0941  0.3347
21757SOL     OW69186   0.690   5.496   6.294 -0.4113  0.5527  0.0807
21757SOL    HW169187   0.615   5.512   6.236  0.3911 -1.8308 -1.8063
21757SOL    HW269188   0.766   5.512   6.238  0.4288 -0.3400  0.9511
21758SOL     OW69189   6.507   5.296   8.445 -0.0468 -0.4442  0.3102
21758SOL    HW169190   6.434   5.328   8.499  0.2497 -1.2332  1.2092
21758SOL    HW269191   6.476   5.214   8.407  0.9738 -1.7923  2.2159
21759SOL     OW69192   1.305   7.652   3.942  0.8178  0.0049 -0.4049
21759SOL    HW169193   1.288   7.739   3.980  2.7354  0.4269 -0.4254
21759SOL    HW269194   1.299   7.667   3.847  0.7623  0.0280 -0.3980
21760SOL     OW69195   8.822   2.000   3.885 -0.1762 -0.4537 -0.2150
21760SOL    HW169196   8.861   2.028   3.968  0.2944 -1.0165 -0.2396
21760SOL    HW269197   8.786   1.913   3.904 -0.4652 -0.3914 -0.4811
21761SOL     OW69198   1.791   4.370  10.032 -0.2903  0.5773 -0.0944
21761SOL    HW169199   1.849   4.408   9.966 -2.1345  0.1003 -2.0866
21761SOL    HW269200   1.743   4.444  10.068 -0.0656  0.7137 -0.0698
21762SOL     OW69201   1.545   0.768   1.874 -0.3633  0.0483 -0.1817
21762SOL    HW169202   1.631   0.767   1.916 -0.2463 -2.0757 -0.3731
21762SOL    HW269203   1.483   0.759   1.947 -0.3195 -0.3373 -0.1895
21763SOL     OW69204   9.258   0.754   3.765  0.0051 -0.1553  0.6826
21763SOL    HW169205   9.277   0.661   3.776  0.4541 -0.1375  0.1357
21763SOL    HW269206   9.170   0.757   3.727  0.6498 -0.4445 -0.9055
21764SOL     OW69207   3.367   2.704   7.199  0.0590 -0.4618  0.0938
21764SOL    HW169208   3.433   2.639   7.224  1.0108  0.3927 -0.0897
21764SOL    HW269209   3.418   2.782   7.177 -1.0593  0.4610  0.6470
21765SOL     OW69210   5.495   6.759   4.077 -0.1604  0.0284 -0.3916
21765SOL    HW169211   5.437   6.717   4.015 -0.2299  0.1078 -0.3798
21765SOL    HW269212   5.538   6.828   4.027 -0.5892  0.4205 -0.2245
21766SOL     OW69213   5.786   0.870   1.249 -0.9594  0.0276 -0.3085
21766SOL    HW169214   5.748   0.922   1.179 -1.1084 -0.4877 -0.6188
21766SOL    HW269215   5.757   0.781   1.231  2.9698 -1.0531 -2.4175
21767SOL     OW69216   0.352   7.709   6.669 -0.3772 -0.1398 -0.5649
21767SOL    HW169217   0.329   7.734   6.579 -0.6712  0.7447 -0.2574
21767SOL    HW269218   0.330   7.787   6.721  0.7766 -0.2653  0.1240
21768SOL     OW69219   1.561   7.370   6.261 -0.0170  0.1445  0.4940
21768SOL    HW169220   1.573   7.374   6.356 -1.3620 -1.5358  0.7987
21768SOL    HW269221   1.627   7.308   6.231 -1.0473 -1.0945  0.6972
21769SOL     OW69222   9.421   0.273   7.524  0.1262  0.7242  0.3454
21769SOL    HW169223   9.393   0.351   7.572  1.8044  0.6652  1.4996
21769SOL    HW269224   9.479   0.227   7.584 -1.1832 -1.7069 -0.1169
21770SOL     OW69225   5.045   0.214   5.619 -0.6607  1.0825  0.2240
21770SOL    HW169226   4.987   0.184   5.550  1.1918  1.1016 -1.4241
21770SOL    HW269227   4.987   0.252   5.685 -2.4973  0.8179 -1.1748
21771SOL     OW69228   7.920   6.897   0.416  0.4040  1.1549  0.7955
21771SOL    HW169229   7.891   6.857   0.334  2.7503  0.7058  0.1115
21771SOL    HW269230   7.849   6.881   0.477  0.0739 -1.6654 -0.1896
21772SOL     OW69231   1.756   7.263   8.092 -0.5977  0.4030 -0.2008
21772SOL    HW169232   1.660   7.266   8.099 -0.6777 -1.5265  0.1090
21772SOL    HW269233   1.777   7.170   8.100  1.4834  0.9719  2.3424
21773SOL     OW69234   3.493   6.845   7.654 -0.2187  0.7735  0.2790
21773SOL    HW169235   3.521   6.823   7.743 -0.6880  1.4630  0.6071
21773SOL    HW269236   3.400   6.868   7.663 -0.3675  0.4929 -0.4528
21774SOL     OW69237   8.896   8.041   5.230 -0.8580  0.2297  0.4488
21774SOL    HW169238   8.905   8.131   5.199 -1.2495 -0.4970 -2.0163
21774SOL    HW269239   8.819   8.008   5.184  0.7604 -2.1141 -0.7543
21775SOL     OW69240   2.525   0.249   4.668  0.2997  0.1161 -0.0298
21775SOL    HW169241   2.486   0.335   4.676 -0.2327 -0.1242  0.0082
21775SOL    HW269242   2.453   0.188   4.686  0.1721 -0.3693 -1.9832
21776SOL     OW69243   1.823   6.375   6.164  0.4945  0.1134 -0.2835
21776SOL    HW169244   1.858   6.463   6.147  2.8172 -0.9816 -1.6999
21776SOL    HW269245   1.813   6.336   6.078  0.6672 -1.4342  0.3681
21777SOL     OW69246   1.081   1.060   8.140  0.7926  0.3690 -0.3989
21777SOL    HW169247   1.096   0.968   8.120 -1.4165 -0.3333  0.8767
21777SOL    HW269248   1.163   1.089   8.180  1.8375 -0.7460 -1.6010
21778SOL     OW69249   6.871   8.508   8.623  0.1363 -0.2493  0.2931
21778SOL    HW169250   6.879   8.462   8.706 -1.0125  1.3405  1.3316
21778SOL    HW269251   6.923   8.588   8.634 -0.0222 -0.0225 -0.5143
21779SOL     OW69252  10.005   5.724   1.849  0.3006 -0.5700 -0.2157
21779SOL    HW169253  10.033   5.634   1.866 -0.0960 -0.6695 -0.0825
21779SOL    HW269254   9.982   5.724   1.756 -0.3807 -0.7979 -0.0580
21780SOL     OW69255   4.302   6.591   3.533  0.9647  0.3082 -0.3693
21780SOL    HW169256   4.288   6.681   3.561 -0.7337  0.5463 -1.7854
21780SOL    HW269257   4.330   6.598   3.441  0.7215 -0.5869 -0.5237
21781SOL     OW69258   4.830   0.820   3.766  0.1604 -0.1751 -0.2553
21781SOL    HW169259   4.827   0.913   3.744 -0.9878 -0.5960 -2.1501
21781SOL    HW269260   4.921   0.803   3.788  0.5406  1.2323 -0.6354
21782SOL     OW69261   3.672   4.769   4.637  0.6254  0.7324  0.7685
21782SOL    HW169262   3.605   4.827   4.673 -0.4790  1.8599 -2.6645
21782SOL    HW269263   3.636   4.681   4.647  0.4287  0.9601  2.3291
21783SOL     OW69264   5.585   0.819   2.050  0.2492 -0.4105  1.0209
21783SOL    HW169265   5.563   0.727   2.040  1.5747 -0.8837  2.2735
21783SOL    HW269266   5.630   0.842   1.969 -1.1908 -0.4819  0.1551
21784SOL     OW69267   1.460   4.055   5.476 -0.1323 -0.2911 -0.5680
21784SOL    HW169268   1.434   4.060   5.568  1.5226 -1.6603  0.0135
21784SOL    HW269269   1.382   4.021   5.431 -1.2132  1.0979  0.1518
21785SOL     OW69270   6.279   2.406   4.510 -0.1621 -0.1959 -0.0346
21785SOL    HW169271   6.363   2.378   4.476  0.4795  0.9115  0.5643
21785SOL    HW269272   6.266   2.494   4.473  0.3181  0.8352  2.0828
21786SOL     OW69273   1.699   7.596   6.558 -0.1326  0.1737  0.2227
21786SOL    HW169274   1.628   7.584   6.621  0.6856 -0.2019  1.0922
21786SOL    HW269275   1.708   7.512   6.515 -0.5318  0.3623 -0.2382
21787SOL     OW69276   5.159   3.841   4.114  0.0640 -0.1050  0.8427
21787SOL    HW169277   5.151   3.859   4.020  1.0713  0.6262  0.8824
21787SOL    HW269278   5.115   3.757   4.126  1.0740 -0.8758 -0.5188
21788SOL     OW69279   3.602   4.202   0.698 -0.1462 -0.4197 -0.0156
21788SOL    HW169280   3.575   4.294   0.695 -1.3623 -0.7488  0.2965
21788SOL    HW269281   3.521   4.153   0.690  0.4746 -1.4719 -0.0122
21789SOL     OW69282   7.159   1.871   4.763  0.6371  0.0772 -0.5612
21789SOL    HW169283   7.192   1.960   4.767  1.5280 -0.0886 -2.8132
21789SOL    HW269284   7.069   1.881   4.732  0.4061  0.2254  0.1387
21790SOL     OW69285   6.756   5.934   8.420  0.1575 -0.1202  0.2678
21790SOL    HW169286   6.834   5.986   8.439  0.3538  0.3746 -1.6298
21790SOL    HW269287   6.724   5.905   8.505  3.6897 -2.2548  1.0789
21791SOL     OW69288   3.190   9.029   0.808 -0.1123 -0.3338  0.2573
21791SOL    HW169289   3.242   8.964   0.855  1.3205  0.0001 -0.7974
21791SOL    HW269290   3.223   9.113   0.839  0.2648 -0.1191 -0.7012
21792SOL     OW69291   9.399   2.363   4.520 -0.4243 -0.3404 -0.3150
21792SOL    HW169292   9.416   2.418   4.444 -3.0340 -1.3639 -1.7692
21792SOL    HW269293   9.307   2.380   4.542 -0.0410 -0.8854  1.9526
21793SOL     OW69294   8.492   3.547   6.150  0.0034 -0.2508 -0.0242
21793SOL    HW169295   8.564   3.593   6.107  0.3594 -1.4500 -0.8001
21793SOL    HW269296   8.435   3.519   6.077 -1.0294  0.3111  0.5457
21794SOL     OW69297   9.921   9.480   7.107  0.1637  0.1864  0.2192
21794SOL    HW169298   9.964   9.531   7.039 -0.2211 -0.3824 -0.4687
21794SOL    HW269299   9.954   9.516   7.190 -0.8803  2.2210 -0.1992
21795SOL     OW69300   4.394   9.842   5.178  0.1658 -1.0749  0.0937
21795SOL    HW169301   4.481   9.846   5.140 -0.2393 -1.6973 -0.9708
21795SOL    HW269302   4.408   9.811   5.268  1.1684  0.6529  0.5716
21796SOL     OW69303   6.945   5.263   3.658  0.2173  0.2759  0.9093
21796SOL    HW169304   6.895   5.344   3.668 -0.5278 -0.2141  1.2484
21796SOL    HW269305   7.007   5.265   3.731  1.1465  1.1931  0.1173
21797SOL     OW69306   4.663   3.418   6.686 -0.1046  0.0785 -0.3761
21797SOL    HW169307   4.584   3.376   6.651 -0.4458 -0.2380  0.7329
21797SOL    HW269308   4.720   3.429   6.609 -1.2827  0.4824 -1.2243
21798SOL     OW69309   8.975   3.968   5.503 -0.2582  0.6312 -0.0630
21798SOL    HW169310   8.920   4.038   5.536  1.5963  1.4993  1.3595
21798SOL    HW269311   8.996   3.915   5.580 -0.3597 -0.6080 -0.8522
21799SOL     OW69312   1.152   5.794   1.050  0.3022  0.1610  0.6923
21799SOL    HW169313   1.153   5.825   1.140  1.9927  1.4809  0.2737
21799SOL    HW269314   1.242   5.764   1.033  0.0896  0.1907 -0.6289
21800SOL     OW69315   6.748   9.439   4.713 -0.2122 -0.6255 -0.7643
21800SOL    HW169316   6.678   9.500   4.689  0.5862  1.3004  1.4656
21800SOL    HW269317   6.745   9.435   4.809  1.8591 -1.5369 -0.6767
21801SOL     OW69318   3.555   0.720   4.437 -0.3894 -0.4903  0.2146
21801SOL    HW169319   3.462   0.741   4.430 -0.4139 -0.9240 -0.9259
21801SOL    HW269320   3.597   0.806   4.447 -0.9601 -0.3473  1.5674
21802SOL     OW69321   5.158   8.298   3.656 -0.3337  0.2154 -0.3060
21802SOL    HW169322   5.169   8.393   3.655 -0.2567  0.2063 -0.8396
21802SOL    HW269323   5.092   8.280   3.589  0.2040 -0.1653 -0.7456
21803SOL     OW69324  10.124   6.919   6.134  0.0620 -0.0841 -0.6095
21803SOL    HW169325  10.149   6.912   6.042  1.2442  2.7809 -0.6014
21803SOL    HW269326  10.204   6.899   6.183 -0.7831 -2.5196 -0.0807
21804SOL     OW69327   1.537   5.466   0.252 -0.5250 -0.3402  0.0575
21804SOL    HW169328   1.571   5.447   0.340 -0.7338 -0.7444  0.0538
21804SOL    HW269329   1.616   5.474   0.198  0.0859  5.4520  1.2126
21805SOL     OW69330   2.121   9.184   1.204  0.0264  0.8631 -0.3748
21805SOL    HW169331   2.205   9.138   1.197 -0.4320  0.1513 -1.4148
21805SOL    HW269332   2.057   9.115   1.221 -0.8827  0.8627 -3.3507
21806SOL     OW69333   2.907   9.940   6.812 -1.0815 -0.1747 -0.4785
21806SOL    HW169334   2.954   9.993   6.747 -0.3334 -1.6725 -1.2225
21806SOL    HW269335   2.883   9.860   6.765 -0.2580 -1.4406  1.1512
21807SOL     OW69336   2.689  10.127   4.308  0.0220 -0.1522 -0.5970
21807SOL    HW169337   2.612  10.126   4.251 -0.7229 -2.2839  0.3806
21807SOL    HW269338   2.664  10.184   4.381 -0.1571  0.1270 -0.8703
21808SOL     OW69339   5.384   7.818   3.875  0.2818  0.3568 -0.2537
21808SOL    HW169340   5.385   7.727   3.905  3.1545  0.2456 -0.4542
21808SOL    HW269341   5.327   7.863   3.938  0.9500 -1.0948  1.4734
21809SOL     OW69342   5.750   2.398   6.485 -0.2718  0.1981  0.5072
21809SOL    HW169343   5.678   2.367   6.429 -1.3232  1.3124  1.2018
21809SOL    HW269344   5.707   2.427   6.565  0.8740  1.5289  0.6748
21810SOL     OW69345   0.887  10.182   8.566  0.0267  0.0057 -0.1632
21810SOL    HW169346   0.821  10.140   8.621  0.2678 -0.3242 -0.1271
21810SOL    HW269347   0.970  10.143   8.593  0.4417  1.4940  0.8606
21811SOL     OW69348   7.000   3.830   6.057 -0.0223  0.1269  0.1848
21811SOL    HW169349   6.992   3.899   5.990  0.4411  0.8517  0.8575
21811SOL    HW269350   6.947   3.862   6.130  1.2907  0.4365  1.0266
21812SOL     OW69351   6.597   1.498   0.686 -0.4460  0.1285 -0.4026
21812SOL    HW169352   6.602   1.432   0.755 -1.1576 -0.2124 -0.6742
21812SOL    HW269353   6.554   1.573   0.727  0.9756  0.7075  0.1073
21813SOL     OW69354   7.846   0.695   6.272 -0.2610  0.4590 -0.1860
21813SOL    HW169355   7.871   0.610   6.235 -1.6585  0.6553 -1.7249
21813SOL    HW269356   7.885   0.759   6.213  0.3809  0.9027  0.6949
21814SOL     OW69357   6.032   1.838   2.431 -0.0322 -0.5526  0.2008
21814SOL    HW169358   6.107   1.793   2.469 -0.4459  0.0795  1.8342
21814SOL    HW269359   6.070   1.911   2.382  0.4994 -1.3136 -0.5545
21815SOL     OW69360   2.950   5.471   6.233  0.1814  0.6931 -0.2099
21815SOL    HW169361   2.987   5.509   6.153  0.3937 -0.6384 -0.7777
21815SOL    HW269362   2.879   5.415   6.202 -0.9509  1.5697  0.7071
21816SOL     OW69363   6.156   1.480   2.917  0.1136  1.0017 -0.4277
21816SOL    HW169364   6.114   1.397   2.938 -1.1231  1.3061 -1.5391
21816SOL    HW269365   6.117   1.543   2.979  1.3467  0.7097  0.6830
21817SOL     OW69366   0.037   8.884   7.670  0.2067  0.3914 -0.1232
21817SOL    HW169367  -0.039   8.939   7.653 -1.4468 -1.3728  1.1970
21817SOL    HW269368   0.022   8.805   7.618  0.5611 -0.4405  0.9982
21818SOL     OW69369   5.637   3.700   4.441 -0.0183 -0.3196  0.4686
21818SOL    HW169370   5.659   3.607   4.437 -0.4429 -0.4086  0.0860
21818SOL    HW269371   5.715   3.745   4.410 -0.4971 -0.6470 -1.2785
21819SOL     OW69372   3.019   5.819   8.015  0.4850  0.4747 -0.0828
21819SOL    HW169373   3.022   5.752   8.084 -1.4011  1.0720  0.6391
21819SOL    HW269374   3.077   5.785   7.947 -0.5278 -2.0170  0.1660
21820SOL     OW69375   4.528   4.913   3.677 -0.2119 -0.6756 -0.3229
21820SOL    HW169376   4.482   4.890   3.759 -0.4517  2.5975  0.5972
21820SOL    HW269377   4.613   4.871   3.685  0.1460  0.3401  2.1648
21821SOL     OW69378   6.670   8.866   6.270 -0.6321  0.1746  0.4257
21821SOL    HW169379   6.706   8.852   6.183  0.7270 -2.3895  1.2848
21821SOL    HW269380   6.672   8.961   6.282  1.3036  0.4562 -1.4550
21822SOL     OW69381   9.038   0.197   5.688  0.6063 -0.3901  0.2824
21822SOL    HW169382   9.056   0.287   5.659 -1.6156 -0.4827 -1.7044
21822SOL    HW269383   9.011   0.206   5.779 -0.4154  1.1272 -0.1253
21823SOL     OW69384   8.080   5.658   2.556 -0.7954 -0.2011  0.4733
21823SOL    HW169385   8.101   5.572   2.521 -2.4848 -0.8214  0.8989
21823SOL    HW269386   8.066   5.713   2.479 -2.3576 -1.0144  0.1372
21824SOL     OW69387   9.528   0.608   5.261 -0.3087 -0.2013  0.3975
21824SOL    HW169388   9.624   0.613   5.257 -0.3276 -0.2034 -0.0884
21824SOL    HW269389   9.504   0.667   5.333  0.0026  0.4490 -0.0211
21825SOL     OW69390   7.828  10.190   2.143  0.7985 -0.6414  0.0162
21825SOL    HW169391   7.845  10.277   2.181 -1.1156 -0.3030  0.2030
21825SOL    HW269392   7.786  10.141   2.213  2.2185 -1.8961  0.0359
21826SOL     OW69393   3.569   3.150   6.947 -0.3464  0.0252  0.2689
21826SOL    HW169394   3.525   3.205   7.012  0.6002 -0.0514  1.0128
21826SOL    HW269395   3.498   3.109   6.898 -1.0870  0.3964  0.9996
21827SOL     OW69396   4.438   1.373   4.753 -0.0635  0.1415 -0.0925
21827SOL    HW169397   4.351   1.337   4.736  0.2883  0.3176 -2.6003
21827SOL    HW269398   4.437   1.460   4.714  1.1173  0.3068  0.1797
21828SOL     OW69399   9.654   3.168   6.829  0.1694 -0.2673 -0.1459
21828SOL    HW169400   9.667   3.261   6.812 -0.6855 -0.1531 -0.2131
21828SOL    HW269401   9.563   3.161   6.857  0.3345 -1.0344  0.2327
21829SOL     OW69402   3.622   0.633   4.861  0.4572 -0.6221 -0.0596
21829SOL    HW169403   3.715   0.653   4.870 -0.0260  1.8471  0.1314
21829SOL    HW269404   3.612   0.612   4.768  0.7863  1.9028 -0.7196
21830SOL     OW69405   7.737   6.363   0.350  0.0687  0.0383  0.1715
21830SOL    HW169406   7.774   6.309   0.280  0.1990  0.4561 -0.0845
21830SOL    HW269407   7.811   6.413   0.384 -0.2205  0.7589 -0.2373
21831SOL     OW69408   5.486   2.332   1.958 -0.0298  0.5746 -0.0764
21831SOL    HW169409   5.534   2.404   1.999  2.0576 -0.4877 -0.5069
21831SOL    HW269410   5.430   2.298   2.028  1.7609  0.2557  1.2720
21832SOL     OW69411   3.015   8.420   1.752  0.0409  0.8032  0.2651
21832SOL    HW169412   2.964   8.339   1.751 -0.7017  1.1959 -2.7863
21832SOL    HW269413   2.949   8.489   1.763  0.5174  1.0994  1.3980
21833SOL     OW69414   6.403   1.690   1.619 -0.4071 -0.3793  0.1037
21833SOL    HW169415   6.488   1.652   1.598  0.0280 -0.3664  1.7358
21833SOL    HW269416   6.353   1.617   1.656 -0.7597 -0.1420  0.0993
21834SOL     OW69417   2.157   6.358   7.642 -0.1735 -0.3636  0.5771
21834SOL    HW169418   2.131   6.450   7.652  2.3014  0.4421  0.1441
21834SOL    HW269419   2.148   6.341   7.549 -0.0202 -0.3687  0.5639
21835SOL     OW69420   1.762   2.674   5.504 -0.1997 -0.4580  0.6457
21835SOL    HW169421   1.755   2.583   5.475 -0.8783  0.1130 -1.1407
21835SOL    HW269422   1.852   2.699   5.485 -0.2906 -0.4711  0.1817
21836SOL     OW69423   6.986   7.737   9.826 -0.0642  0.1809 -0.4299
21836SOL    HW169424   7.026   7.656   9.795 -1.5866 -0.6582 -0.2868
21836SOL    HW269425   6.916   7.754   9.763 -1.3422  0.0196  0.9166
21837SOL     OW69426   6.706   7.357   9.003  0.0966  0.3006 -0.3200
21837SOL    HW169427   6.613   7.337   9.018 -0.1714  0.5384 -1.5843
21837SOL    HW269428   6.742   7.371   9.091 -1.2100  0.8477  0.1465
21838SOL     OW69429   3.575   9.067   6.844 -0.2106  0.3408 -0.1402
21838SOL    HW169430   3.512   9.132   6.875 -0.0888 -0.5395  2.0920
21838SOL    HW269431   3.522   8.989   6.826  0.1414 -0.2392  1.2425
21839SOL     OW69432   1.910   3.053   2.478  0.3937 -0.0736 -0.2019
21839SOL    HW169433   1.857   3.133   2.485 -1.3032 -1.1442 -0.4573
21839SOL    HW269434   1.875   3.007   2.402  0.7936 -1.4572  0.4296
21840SOL     OW69435   5.167   1.968   1.837 -0.1617  1.1247 -0.4238
21840SOL    HW169436   5.203   2.057   1.842  1.1618  0.6740 -1.4749
21840SOL    HW269437   5.080   1.980   1.800  0.1848  1.9446 -0.9905
21841SOL     OW69438   6.200   8.629   6.080  0.5856  0.6239 -0.0607
21841SOL    HW169439   6.295   8.640   6.080  0.5731  0.7604 -0.7283
21841SOL    HW269440   6.170   8.674   6.001 -0.1595  1.5860  0.7266
21842SOL     OW69441   7.412   9.335   7.477  0.0909  0.1939  0.2987
21842SOL    HW169442   7.465   9.403   7.436 -0.0085 -1.1115 -2.1951
21842SOL    HW269443   7.322   9.363   7.462  0.0215  0.8030  1.6830
21843SOL     OW69444   5.656   7.918   8.816 -0.2468  0.6867  0.5583
21843SOL    HW169445   5.581   7.860   8.815  0.6650 -0.5440  0.8116
21843SOL    HW269446   5.686   7.921   8.725  0.6190 -0.5135  0.7783
21844SOL     OW69447   2.660   9.559   1.373  0.0272 -0.0908 -0.3334
21844SOL    HW169448   2.686   9.484   1.320  0.6653 -0.0417 -0.0973
21844SOL    HW269449   2.708   9.633   1.334  0.3080 -0.0115  0.1514
21845SOL     OW69450   6.641   8.884   7.588 -0.3604  0.2070  0.0283
21845SOL    HW169451   6.652   8.915   7.498 -2.8046 -0.3894 -0.5520
21845SOL    HW269452   6.636   8.789   7.580 -2.0502  0.2196  0.5576
21846SOL     OW69453   3.855   5.426   0.260  0.2996 -0.4816  0.2195
21846SOL    HW169454   3.890   5.361   0.322  0.7449  0.1190  0.6146
21846SOL    HW269455   3.869   5.386   0.174  1.8600 -0.3317  0.3712
21847SOL     OW69456   6.431   9.286   4.183  0.2464  0.2246 -0.1846
21847SOL    HW169457   6.406   9.212   4.238  0.1736 -0.7622 -1.4884
21847SOL    HW269458   6.507   9.255   4.134 -0.5396  0.5251 -1.6683
21848SOL     OW69459   4.077   3.743   2.521  0.0968  0.5250  0.2408
21848SOL    HW169460   4.040   3.720   2.606  0.4520 -0.6457  0.0912
21848SOL    HW269461   4.006   3.789   2.476 -1.3249 -1.8709 -0.1282
21849SOL     OW69462   5.167   7.472   5.858 -0.0854 -0.0559 -0.1353
21849SOL    HW169463   5.144   7.381   5.872  0.0538 -0.2672 -1.2092
21849SOL    HW269464   5.096   7.522   5.900 -1.5662 -0.6790 -1.7913
21850SOL     OW69465   4.618   3.979   9.750  0.0086 -0.5891  0.1674
21850SOL    HW169466   4.705   3.991   9.789 -0.0671 -0.2491  0.2326
21850SOL    HW269467   4.560   4.031   9.805  0.0132  0.5079 -0.8390
21851SOL     OW69468   6.971   4.497   7.260 -0.1939  0.1587  0.2493
21851SOL    HW169469   7.044   4.450   7.220 -0.2024 -0.5847  1.0736
21851SOL    HW269470   7.005   4.586   7.276  0.4429 -0.1005  0.3658
21852SOL     OW69471   2.460   9.062   1.742 -0.2446  0.5854  0.0250
21852SOL    HW169472   2.383   9.036   1.691 -0.1516  0.0772  0.1392
21852SOL    HW269473   2.499   9.134   1.692 -0.3883  0.3653 -0.4057
21853SOL     OW69474   8.720   7.064   9.035  0.9208  0.0825  0.5747
21853SOL    HW169475   8.783   7.124   9.076  1.1141  0.4918 -0.3003
21853SOL    HW269476   8.635   7.093   9.066  0.7901  2.2829 -1.5682
21854SOL     OW69477   4.193   7.688   1.454  0.0227  0.5842 -0.0214
21854SOL    HW169478   4.153   7.694   1.367  0.6804  1.0161 -0.3060
21854SOL    HW269479   4.134   7.738   1.511 -1.4441 -1.2862  0.1910
21855SOL     OW69480   1.474   8.984   1.341  0.3166 -0.4769 -0.3351
21855SOL    HW169481   1.543   8.934   1.385  0.0102 -1.1968 -0.6472
21855SOL    HW269482   1.476   8.953   1.250 -0.3759 -0.4685 -0.3609
21856SOL     OW69483   8.287   6.136   3.330 -0.5968 -0.6925  0.0306
21856SOL    HW169484   8.266   6.228   3.349  0.3836 -0.8151  1.8396
21856SOL    HW269485   8.366   6.141   3.276  0.1467 -0.4813  1.1125
21857SOL     OW69486   6.100   4.663   4.275  0.2550  0.6684 -0.3959
21857SOL    HW169487   6.071   4.638   4.362 -0.1535 -0.1622 -0.7601
21857SOL    HW269488   6.051   4.742   4.254 -0.0905  0.5281 -0.1155
21858SOL     OW69489   4.444   6.160   7.303 -0.0141 -0.3306  0.4616
21858SOL    HW169490   4.498   6.118   7.370 -1.3611 -1.4178  0.9225
21858SOL    HW269491   4.464   6.114   7.222  0.3688 -0.1592  0.4600
21859SOL     OW69492   3.729   8.562   6.563 -0.1140  0.5395  0.0501
21859SOL    HW169493   3.685   8.648   6.560 -0.2405  0.4398 -2.5925
21859SOL    HW269494   3.821   8.583   6.581  0.3147  1.4962 -2.8275
21860SOL     OW69495   1.344   6.866   0.593  0.2848 -0.0515 -0.8883
21860SOL    HW169496   1.436   6.839   0.591 -0.0518 -1.5292  1.0166
21860SOL    HW269497   1.320   6.874   0.500  2.5333  1.3020 -1.4589
21861SOL     OW69498   4.980   6.491   1.400 -0.2081  0.6488 -0.1527
21861SOL    HW169499   4.954   6.460   1.487 -0.5349 -1.5217 -0.9611
21861SOL    HW269500   4.900   6.488   1.348 -0.7558  4.8418  0.1087
21862SOL     OW69501   5.411   2.338   0.340 -0.6578  0.1423 -0.1984
21862SOL    HW169502   5.320   2.333   0.309 -0.3392 -0.1023 -1.1132
21862SOL    HW269503   5.404   2.373   0.429 -1.6140  0.5764 -0.4333
21863SOL     OW69504   9.753   2.645   6.961 -0.7948  0.3233 -0.1053
21863SOL    HW169505   9.677   2.587   6.966 -1.0876  0.6268 -0.9324
21863SOL    HW269506   9.815   2.598   6.906 -1.2505  1.0108 -1.2466
21864SOL     OW69507   0.292   8.948   3.530  0.1149  0.0417 -0.0236
21864SOL    HW169508   0.308   8.884   3.460  0.4762 -0.1241  0.2055
21864SOL    HW269509   0.368   8.939   3.588  0.6413  1.3435 -0.4841
21865SOL     OW69510   3.638   8.933   9.288  0.0495 -0.1720  0.0508
21865SOL    HW169511   3.586   8.969   9.360  0.7356 -1.3361  1.1906
21865SOL    HW269512   3.600   8.846   9.272 -1.3115  0.7709 -2.3470
21866SOL     OW69513   0.392   5.030   0.560 -0.2864 -0.2058 -0.6531
21866SOL    HW169514   0.474   5.068   0.530 -0.3658 -0.3185 -1.0192
21866SOL    HW269515   0.378   5.068   0.647  0.8142 -1.1951 -0.0260
21867SOL     OW69516   6.972   6.361   2.816  0.7632 -0.4788  0.5771
21867SOL    HW169517   6.935   6.299   2.879  1.7988 -1.5264  0.2074
21867SOL    HW269518   7.054   6.320   2.788 -0.2017 -0.7017 -2.3739
21868SOL     OW69519   4.827   5.226   5.297 -0.3955 -0.6547  0.0974
21868SOL    HW169520   4.767   5.240   5.370 -1.0477  2.9888 -0.9406
21868SOL    HW269521   4.908   5.268   5.325 -0.8278  1.2975 -1.3757
21869SOL     OW69522   0.133   7.976   8.286 -0.1891  0.2167 -0.0829
21869SOL    HW169523   0.219   7.978   8.244 -0.9218  0.5787 -1.6398
21869SOL    HW269524   0.081   7.917   8.231 -2.0389  2.9717 -1.5489
21870SOL     OW69525   7.974   9.012   5.312 -0.0827  0.0089 -0.2558
21870SOL    HW169526   7.982   8.930   5.264 -0.3245  0.3037 -0.8059
21870SOL    HW269527   7.899   9.056   5.273  2.4833  2.4147 -2.9076
21871SOL     OW69528   1.093   4.596   0.033  0.2893  0.9204 -0.6197
21871SOL    HW169529   1.038   4.647   0.092 -1.6590  0.4840 -1.9535
21871SOL    HW269530   1.182   4.609   0.066 -0.6607  0.9388  2.1680
21872SOL     OW69531   3.063   2.497   4.876 -0.1017 -0.2773  0.2988
21872SOL    HW169532   3.106   2.471   4.795 -0.3281  2.5051 -0.8211
21872SOL    HW269533   2.996   2.560   4.849 -0.9751 -0.1354  2.5458
21873SOL     OW69534   3.307   8.283   7.542 -0.2207 -0.1598  0.1647
21873SOL    HW169535   3.372   8.223   7.579  2.3269  1.1299 -1.8310
21873SOL    HW269536   3.244   8.226   7.498 -0.0498 -1.4607  1.5269
21874SOL     OW69537   3.877   6.448   2.476 -0.2252 -0.6521  0.2714
21874SOL    HW169538   3.910   6.530   2.441  0.6696 -0.9187  0.4454
21874SOL    HW269539   3.786   6.443   2.446 -0.3439  0.4650  0.3939
21875SOL     OW69540   7.232   5.933   9.084 -0.2175 -0.2743  0.2139
21875SOL    HW169541   7.254   6.025   9.070 -1.6086  0.0540  0.0559
21875SOL    HW269542   7.162   5.916   9.022 -1.3718 -0.8709  1.6384
21876SOL     OW69543   3.428   3.342   8.528  0.1738  0.4626 -0.1196
21876SOL    HW169544   3.404   3.343   8.621 -1.3751  0.0536 -0.4967
21876SOL    HW269545   3.490   3.269   8.521 -0.5399 -0.2121  0.4054
21877SOL     OW69546   2.689   5.505   8.899  0.0365  0.0249 -0.1862
21877SOL    HW169547   2.750   5.567   8.937  0.4625  0.4216 -1.4635
21877SOL    HW269548   2.736   5.422   8.898  1.4816  0.7222 -3.0688
21878SOL     OW69549   6.299   2.212   1.433 -0.5324  0.3335 -0.0452
21878SOL    HW169550   6.218   2.167   1.411 -1.4138  1.8210  0.0414
21878SOL    HW269551   6.359   2.192   1.361 -0.9549 -0.8013 -0.0893
21879SOL     OW69552   6.086   5.016   8.743  0.2797 -0.5091 -0.7315
21879SOL    HW169553   6.081   4.920   8.739 -1.4996 -0.5881  1.4542
21879SOL    HW269554   6.178   5.036   8.724  0.5178 -2.5593 -2.0619
21880SOL     OW69555   6.049   4.038   7.710 -0.1928 -0.0569 -0.3164
21880SOL    HW169556   6.145   4.039   7.714 -0.2129 -0.6038  0.9314
21880SOL    HW269557   6.026   3.947   7.728 -0.9602  0.1731 -0.1198
21881SOL     OW69558   7.431  10.068   4.798 -0.1247 -0.4580 -0.3343
21881SOL    HW169559   7.452  10.144   4.852  0.3311 -0.2075 -0.8557
21881SOL    HW269560   7.336  10.060   4.805 -0.2158  0.3439 -0.5228
21882SOL     OW69561   6.577   5.153   4.361  0.5700  0.1490  0.1773
21882SOL    HW169562   6.663   5.173   4.324  0.3371  1.6719  0.3954
21882SOL    HW269563   6.516   5.204   4.309 -0.1396 -0.4228  0.4367
21883SOL     OW69564   1.302   9.886  10.015  0.3359 -0.1326  0.0198
21883SOL    HW169565   1.357   9.963  10.024  0.5076 -0.2663  0.1300
21883SOL    HW269566   1.334   9.842   9.936  1.2777 -0.9162  0.8041
21884SOL     OW69567   8.972   1.230   2.810  0.1905  0.0312 -0.0208
21884SOL    HW169568   8.972   1.278   2.893 -2.2459 -1.3882  0.8900
21884SOL    HW269569   8.936   1.291   2.746 -0.0185  0.4070  0.4549
21885SOL     OW69570   0.892   8.893   3.313  0.2855 -0.2835  0.2531
21885SOL    HW169571   0.882   8.965   3.251 -1.4904  0.0620  0.8838
21885SOL    HW269572   0.940   8.826   3.265  2.2230  1.3686 -0.2795
21886SOL     OW69573   4.261   5.635   4.703  0.0477  0.4340  0.3827
21886SOL    HW169574   4.273   5.648   4.798 -2.3821 -3.1698  1.4055
21886SOL    HW269575   4.349   5.613   4.671  0.7710  0.8730  1.9541
21887SOL     OW69576   7.053   5.213   1.467 -0.0275 -0.3607 -1.2512
21887SOL    HW169577   6.961   5.218   1.493  0.0272 -0.0236 -1.1116
21887SOL    HW269578   7.090   5.145   1.523 -0.2806 -0.7710 -1.5820
21888SOL     OW69579   1.852   9.153   9.206  0.2259 -0.6144 -0.2271
21888SOL    HW169580   1.943   9.174   9.222 -0.3674  2.4935 -0.3841
21888SOL    HW269581   1.825   9.101   9.282  1.2389  1.4293  1.6009
21889SOL     OW69582   7.948   8.063   9.522  0.2999 -0.2758  0.5920
21889SOL    HW169583   7.997   8.130   9.568 -1.1685 -0.1486  2.0572
21889SOL    HW269584   8.008   8.030   9.455  2.4428 -0.3116  2.4521
21890SOL     OW69585   4.132   5.361   7.829  0.1301 -0.3312 -0.3445
21890SOL    HW169586   4.103   5.447   7.799  1.7439  0.1655 -0.6078
21890SOL    HW269587   4.127   5.305   7.752 -0.5799 -0.3922 -0.2610
21891SOL     OW69588   3.303   1.029   9.388  0.2687  0.5301  0.7006
21891SOL    HW169589   3.254   1.112   9.390  0.8228  0.9469 -1.2201
21891SOL    HW269590   3.282   0.991   9.303  2.9445  0.5377 -0.0509
21892SOL     OW69591   5.778   0.878   9.332 -0.2695  0.4392 -0.1751
21892SOL    HW169592   5.736   0.864   9.248  1.3626  1.0801 -1.1438
21892SOL    HW269593   5.723   0.831   9.395 -2.7504  1.7569 -1.2350
21893SOL     OW69594   7.774   5.930   6.301 -0.0948 -0.7569  0.1768
21893SOL    HW169595   7.752   5.890   6.217 -1.0307  0.1780 -0.0450
21893SOL    HW269596   7.694   5.973   6.329  1.1870  2.3577 -0.4102
21894SOL     OW69597   8.085   2.338   0.431  0.5023  1.1720 -0.1896
21894SOL    HW169598   8.029   2.363   0.505  0.0615  0.6401 -0.3363
21894SOL    HW269599   8.057   2.395   0.360 -0.5064  0.2994 -0.5256
21895SOL     OW69600   5.787   3.445   0.313 -0.8137  0.1669  0.6516
21895SOL    HW169601   5.877   3.423   0.337  0.2368  1.2842 -1.8872
21895SOL    HW269602   5.765   3.385   0.242  0.1529  3.3711 -2.6729
21896SOL     OW69603   6.486   2.946   8.503 -0.1071  0.1458  0.3301
21896SOL    HW169604   6.501   2.873   8.444 -1.7324  0.5166 -0.6172
21896SOL    HW269605   6.552   3.011   8.478  1.5802 -1.0829  1.4201
21897SOL     OW69606   2.411   8.583   6.784 -0.0544 -0.6951 -0.6210
21897SOL    HW169607   2.353   8.650   6.821  0.5894 -0.3209 -0.2829
21897SOL    HW269608   2.494   8.594   6.830  0.1397 -1.5583 -0.7464
21898SOL     OW69609   7.387   5.092   2.170 -0.5351  0.2072 -0.2094
21898SOL    HW169610   7.468   5.142   2.180 -0.5567  0.2937 -0.4721
21898SOL    HW269611   7.407   5.025   2.106 -0.1623 -0.8514  0.9651
21899SOL     OW69612   5.192   0.541   9.129 -0.7887 -0.0588  0.1066
21899SOL    HW169613   5.202   0.447   9.119  0.2274 -0.1107  1.3645
21899SOL    HW269614   5.246   0.563   9.205 -1.8588  1.3789  0.4925
21900SOL     OW69615   0.768   4.373   7.558 -0.1167  0.0386  0.3730
21900SOL    HW169616   0.749   4.461   7.590  1.2147 -0.2811  2.1746
21900SOL    HW269617   0.764   4.382   7.462 -3.7695  1.1307  0.4885
21901SOL     OW69618   8.846   4.978   4.390  0.3008  0.1372  0.3772
21901SOL    HW169619   8.799   4.977   4.473 -0.2280 -2.7094  0.1734
21901SOL    HW269620   8.796   5.037   4.334  0.1484  1.3904  1.7807
21902SOL     OW69621  10.191   0.270   0.189  0.1027 -0.1132 -0.4726
21902SOL    HW169622  10.218   0.201   0.249 -0.1270 -0.4439 -0.7509
21902SOL    HW269623  10.240   0.253   0.109 -0.7624 -0.5918 -0.9090
21903SOL     OW69624   3.336   0.394   3.261  0.0506 -0.2115 -0.0128
21903SOL    HW169625   3.250   0.425   3.231  0.9771  1.4421 -1.0957
21903SOL    HW269626   3.341   0.423   3.353 -1.9059 -3.3887  1.2586
21904SOL     OW69627   4.233   1.298   7.062  0.1034  0.3310 -0.2086
21904SOL    HW169628   4.296   1.311   7.134  0.3763 -0.0348 -0.3768
21904SOL    HW269629   4.210   1.387   7.035  0.8618  0.4772 -0.4133
21905SOL     OW69630   4.534   4.280   7.915  0.0290  0.2775 -0.3203
21905SOL    HW169631   4.445   4.261   7.885 -0.1781  0.4899  0.1543
21905SOL    HW269632   4.557   4.361   7.870 -0.3666  0.7169  0.2556
21906SOL     OW69633   5.312   1.033   5.387 -0.3907  0.1588 -0.6657
21906SOL    HW169634   5.389   1.077   5.352  0.8900 -1.0426  0.5168
21906SOL    HW269635   5.278   0.982   5.314 -0.4562  1.1762 -1.3636
21907SOL     OW69636   2.443   6.942   2.073 -0.0814 -0.0657 -0.5739
21907SOL    HW169637   2.532   6.924   2.103 -0.4657 -0.8155  0.1813
21907SOL    HW269638   2.412   6.858   2.039 -0.5777  0.1302 -0.6169
21908SOL     OW69639   2.278   3.029   5.812 -0.3394  0.0944 -0.6386
21908SOL    HW169640   2.299   3.001   5.901  0.7666  0.9299 -0.6053
21908SOL    HW269641   2.293   2.951   5.758  0.3817 -0.0432 -0.2607
21909SOL     OW69642   5.747   8.576   8.521 -0.3148  0.5224 -0.0429
21909SOL    HW169643   5.654   8.596   8.532 -0.5651 -1.3772  1.8940
21909SOL    HW269644   5.792   8.639   8.577 -0.8678 -1.6730  3.1673
21910SOL     OW69645   1.605   0.415   1.166  0.2146  0.6651 -0.7972
21910SOL    HW169646   1.686   0.459   1.190  0.2790  0.5821 -0.8619
21910SOL    HW269647   1.613   0.328   1.203 -0.2504  0.9566  0.0027
21911SOL     OW69648   2.419   3.518   7.343  0.1534 -0.6210  0.6877
21911SOL    HW169649   2.391   3.429   7.366 -0.6780 -0.9272 -1.2606
21911SOL    HW269650   2.514   3.511   7.334  0.2601 -0.9572  1.9139
21912SOL     OW69651   6.152   5.136   3.916  0.7466 -0.1163  0.3036
21912SOL    HW169652   6.132   5.069   3.981  1.0570 -0.9104 -0.3932
21912SOL    HW269653   6.073   5.190   3.911 -0.7628 -2.2786 -1.3079
21913SOL     OW69654   5.280   5.823   3.536 -0.6355 -0.1421  0.0781
21913SOL    HW169655   5.279   5.906   3.488  1.8409  1.4779  2.5451
21913SOL    HW269656   5.271   5.848   3.628  1.5375 -2.4579  1.0186
21914SOL     OW69657   1.305   8.672   9.183  0.1100  0.8929  0.3615
21914SOL    HW169658   1.227   8.717   9.217 -0.0150  0.8252  0.1689
21914SOL    HW269659   1.271   8.616   9.113  0.1587 -0.0531  1.0724
21915SOL     OW69660   4.246   0.784   4.554  0.0107 -0.2543  0.0818
21915SOL    HW169661   4.254   0.698   4.594  1.5213  0.7517  2.1242
21915SOL    HW269662   4.204   0.838   4.621  1.1255  1.1233 -0.2863
21916SOL     OW69663   6.224   6.399   8.626 -0.2817  0.1348  0.1050
21916SOL    HW169664   6.196   6.393   8.717 -0.5513 -2.4268 -0.0856
21916SOL    HW269665   6.283   6.325   8.614  0.7428  1.1391 -1.5010
21917SOL     OW69666   0.151   5.255   2.039  0.0065  0.1250 -0.3223
21917SOL    HW169667   0.056   5.241   2.031 -0.0249  0.6933 -1.0501
21917SOL    HW269668   0.180   5.188   2.101 -0.9358  0.1900  0.2158
21918SOL     OW69669   2.925   2.410   7.897  0.4483 -0.1645  0.3049
21918SOL    HW169670   2.851   2.435   7.953  0.5290  1.4299 -0.2362
21918SOL    HW269671   2.973   2.492   7.884 -0.2633 -0.1661 -3.1216
21919SOL     OW69672   6.200   0.623   4.824  0.2436  0.3518 -0.0798
21919SOL    HW169673   6.266   0.661   4.766  0.6767 -2.2237 -1.4378
21919SOL    HW269674   6.119   0.669   4.802  0.7442  0.6025 -1.5327
21920SOL     OW69675   6.817   9.084   3.847 -0.0836 -0.8055  0.5539
21920SOL    HW169676   6.803   9.013   3.784  2.6548 -0.8593 -0.0995
21920SOL    HW269677   6.894   9.057   3.897  0.4200  1.2536  0.9734
21921SOL     OW69678   4.125   9.603   8.776  0.3170  0.0307 -0.1551
21921SOL    HW169679   4.145   9.656   8.699 -0.4885  0.3261 -0.1657
21921SOL    HW269680   4.037   9.569   8.759 -0.3938  1.1179  1.1822
21922SOL     OW69681   7.293   2.041   6.547 -0.5016  0.1473 -0.2668
21922SOL    HW169682   7.332   2.123   6.579 -0.4961  0.5695 -1.3227
21922SOL    HW269683   7.320   1.975   6.612  0.4880  0.7553 -0.0279
21923SOL     OW69684   8.229   3.699   6.321  0.2763 -0.2785  0.6746
21923SOL    HW169685   8.153   3.650   6.291  0.8242  0.0291 -1.3860
21923SOL    HW269686   8.303   3.661   6.272  0.9429  1.5243  0.1868
21924SOL     OW69687   4.419   0.201   7.532  0.1342  0.1288 -0.4475
21924SOL    HW169688   4.478   0.276   7.532 -0.7968  0.9167 -2.3410
21924SOL    HW269689   4.382   0.200   7.620  2.0176  0.3439  0.3906
21925SOL     OW69690   3.359   6.294   0.476 -0.4015  0.1056  0.1999
21925SOL    HW169691   3.309   6.248   0.408 -2.1090  0.7370  0.9802
21925SOL    HW269692   3.449   6.290   0.445 -0.7434 -1.9961 -0.7544
21926SOL     OW69693   5.801   6.745   3.044 -0.2286  0.2976  0.1813
21926SOL    HW169694   5.735   6.754   2.975 -0.8615  0.7165  0.8265
21926SOL    HW269695   5.854   6.670   3.017 -2.0239 -1.1589  0.5237
21927SOL     OW69696   2.590   8.258   5.458  0.4422  0.4992 -0.6317
21927SOL    HW169697   2.537   8.300   5.526  0.0028  0.7006 -1.0944
21927SOL    HW269698   2.538   8.182   5.431  0.2941  0.8099 -1.2285
21928SOL     OW69699   3.054   1.487   1.520 -0.1180  0.3352 -0.7768
21928SOL    HW169700   3.017   1.405   1.489  0.3498  0.1452 -0.8281
21928SOL    HW269701   3.018   1.497   1.609 -0.3043  0.1621 -0.8325
21929SOL     OW69702   4.500   4.253   3.749 -0.0319  0.1596  0.2156
21929SOL    HW169703   4.500   4.322   3.816  0.3003  1.4580 -1.0898
21929SOL    HW269704   4.584   4.262   3.704 -1.2137  0.9491 -1.9751
21930SOL     OW69705   1.917   0.061   3.253 -0.0525  0.0353 -0.2599
21930SOL    HW169706   1.880   0.005   3.184 -1.0487 -0.6784  0.8054
21930SOL    HW269707   1.966   0.001   3.308  2.2262  0.8733 -1.2645
21931SOL     OW69708   5.534   1.664   2.666  0.4098 -0.1296 -0.1866
21931SOL    HW169709   5.472   1.730   2.696 -0.2568 -0.0808 -1.6138
21931SOL    HW269710   5.504   1.582   2.706 -0.5012 -0.0765 -0.7377
21932SOL     OW69711   8.756   7.400   9.498  0.2719 -0.3874 -0.0840
21932SOL    HW169712   8.713   7.450   9.568  0.1797  2.8399 -2.2138
21932SOL    HW269713   8.686   7.346   9.460 -0.2405 -0.3483  0.7702
21933SOL     OW69714   1.247   1.652   4.636  0.8948 -0.2433  0.3661
21933SOL    HW169715   1.270   1.718   4.701 -0.3545  1.1734 -0.5578
21933SOL    HW269716   1.318   1.656   4.572  0.9377  0.0426  0.4313
21934SOL     OW69717   8.736   9.499   1.358  0.1567 -0.5161  0.4856
21934SOL    HW169718   8.810   9.527   1.303  1.2326 -0.4794  1.9075
21934SOL    HW269719   8.670   9.468   1.295  1.1042  0.0818 -0.8484
21935SOL     OW69720   3.406   5.442   7.812  0.7736 -0.4562 -0.2011
21935SOL    HW169721   3.354   5.404   7.742  0.2752 -0.4320  0.1552
21935SOL    HW269722   3.426   5.368   7.870 -2.5201  0.1869  1.9912
21936SOL     OW69723   6.381   6.692   6.006 -0.4481  0.1616  0.7988
21936SOL    HW169724   6.297   6.648   5.994  0.8247 -1.9078 -1.2509
21936SOL    HW269725   6.381   6.762   5.940 -0.5742  0.2323  0.8718
21937SOL     OW69726   6.114   6.807   4.595  0.0818  0.0491  0.2870
21937SOL    HW169727   6.058   6.745   4.643 -0.2778  0.0299 -0.1448
21937SOL    HW269728   6.054   6.874   4.564  0.1414 -0.4262 -0.9242
21938SOL     OW69729  10.154   6.629   2.146 -0.2901 -0.1134 -0.3357
21938SOL    HW169730  10.086   6.694   2.127 -0.2846  0.3483  1.1098
21938SOL    HW269731  10.235   6.670   2.115 -0.6482 -0.7178 -2.1789
21939SOL     OW69732   5.497   7.774   1.026  0.4901 -0.0119 -0.4668
21939SOL    HW169733   5.427   7.716   0.997  0.3446  0.4548 -1.0597
21939SOL    HW269734   5.548   7.721   1.087  0.4694 -0.8242 -1.1382
21940SOL     OW69735   4.168   1.315   5.527  0.3145 -0.1478  0.4718
21940SOL    HW169736   4.132   1.248   5.585  1.8565 -0.6300  0.9199
21940SOL    HW269737   4.149   1.283   5.439  1.9676 -1.7806  0.6540
21941SOL     OW69738   4.407   0.103   1.993 -0.7398 -0.4426 -0.4596
21941SOL    HW169739   4.380   0.045   2.064  0.5578  1.3837  1.6687
21941SOL    HW269740   4.340   0.172   1.991 -1.1625 -0.8527 -1.5674
21942SOL     OW69741   8.066   0.581   2.171 -0.2111 -0.0638  0.0347
21942SOL    HW169742   8.078   0.598   2.078  0.6811 -1.7057 -0.1823
21942SOL    HW269743   7.973   0.599   2.187 -0.8319 -1.5287 -1.5890
21943SOL     OW69744   3.683   3.450   7.367  0.7096 -0.1084  0.3177
21943SOL    HW169745   3.703   3.356   7.362 -1.1155 -0.4677 -1.7929
21943SOL    HW269746   3.591   3.453   7.393  0.7480  1.1191  0.3547
21944SOL     OW69747   1.159   0.687   3.857 -0.0479  0.0871 -0.0646
21944SOL    HW169748   1.141   0.596   3.834 -0.2495  0.3485 -1.0290
21944SOL    HW269749   1.078   0.734   3.834 -0.3682  0.3501  1.4988
21945SOL     OW69750   9.281   8.862   9.483 -0.3400 -0.0291  0.5093
21945SOL    HW169751   9.240   8.803   9.419 -1.3209  1.2957 -0.1340
21945SOL    HW269752   9.342   8.806   9.531  0.3389 -1.1186 -1.4866
21946SOL     OW69753   5.538   9.895   4.638 -0.5080  0.0055 -0.0934
21946SOL    HW169754   5.604   9.934   4.696 -1.3563  0.8756  0.3179
21946SOL    HW269755   5.456   9.902   4.688 -0.9839 -0.6529 -0.7766
21947SOL     OW69756   5.292   4.260   4.504 -0.4157  0.6593 -0.3788
21947SOL    HW169757   5.328   4.172   4.498 -1.3668  0.1255  1.3047
21947SOL    HW269758   5.368   4.315   4.524 -0.1828 -0.1845  1.2242
21948SOL     OW69759   0.496   7.243   3.693  0.0680 -0.1913 -0.7231
21948SOL    HW169760   0.561   7.286   3.637  0.0698  1.0401  0.1882
21948SOL    HW269761   0.413   7.258   3.648  0.2420 -0.5695 -1.1828
21949SOL     OW69762   4.748   4.674   2.069 -0.3155 -0.4680 -0.0033
21949SOL    HW169763   4.818   4.718   2.021 -0.8565  0.0062 -0.3588
21949SOL    HW269764   4.793   4.606   2.120  0.5697  0.6318  0.7304
21950SOL     OW69765   8.436   4.052   5.866  0.6898 -0.2418 -0.3179
21950SOL    HW169766   8.445   4.110   5.942  0.2994 -0.2724 -0.2452
21950SOL    HW269767   8.511   3.993   5.872  2.0408  1.2806 -1.3070
21951SOL     OW69768   7.233   6.960   3.980 -0.3690  0.1542  0.1828
21951SOL    HW169769   7.238   7.053   3.962  0.2151 -0.1032 -1.1044
21951SOL    HW269770   7.177   6.953   4.057  2.2549  1.8032  2.4594
21952SOL     OW69771   2.672   3.055   9.736  0.2283  0.3719 -0.0821
21952SOL    HW169772   2.598   3.059   9.796  0.7142 -1.0020  0.6506
21952SOL    HW269773   2.736   2.998   9.780  0.9573  0.0452 -1.5065
21953SOL     OW69774   0.899   5.065   9.506  0.1746  0.6986  0.3489
21953SOL    HW169775   0.885   5.088   9.414  0.8981  0.4584  0.1768
21953SOL    HW269776   0.864   5.140   9.554 -0.2452  0.8129 -0.1132
21954SOL     OW69777   1.016   4.356   5.758 -0.1490  0.0214 -0.6415
21954SOL    HW169778   1.079   4.343   5.828  1.8396 -1.9254 -2.6380
21954SOL    HW269779   0.933   4.370   5.803  1.1074 -0.6614  2.0805
21955SOL     OW69780   9.902   7.358   4.924  0.3317  0.1771  0.3685
21955SOL    HW169781   9.992   7.330   4.908  0.2444 -0.2924  0.6799
21955SOL    HW269782   9.884   7.422   4.856  0.7243 -0.1246 -0.0237
21956SOL     OW69783   1.435   6.229   3.760 -0.5956  0.4189  0.3649
21956SOL    HW169784   1.441   6.167   3.687  2.1490  1.3432 -0.3029
21956SOL    HW269785   1.431   6.173   3.838 -1.8308 -0.5592 -0.3439
21957SOL     OW69786   6.908   1.797   7.232 -0.6396 -0.6146 -0.3653
21957SOL    HW169787   6.819   1.827   7.252 -0.6186 -0.4012 -0.5795
21957SOL    HW269788   6.960   1.877   7.233 -0.5041 -0.7009 -0.5174
21958SOL     OW69789   9.652   7.969   8.783 -0.0085 -0.3173 -0.7568
21958SOL    HW169790   9.701   8.033   8.731  1.2719 -0.9532 -0.3720
21958SOL    HW269791   9.658   8.001   8.873 -1.4254  0.2820 -0.8472
21959SOL     OW69792   4.632   6.010   7.439 -0.6505 -0.6697 -0.1067
21959SOL    HW169793   4.718   6.046   7.420 -1.0371 -0.0549 -0.7177
21959SOL    HW269794   4.646   5.915   7.443  0.2347 -0.5152  0.7985
21960SOL     OW69795   8.923   2.823   4.756 -0.1300 -0.3977  0.4068
21960SOL    HW169796   8.904   2.730   4.739  0.8562 -0.7307  1.0758
21960SOL    HW269797   8.993   2.845   4.695  1.1496 -0.7031  1.7331
21961SOL     OW69798   3.904   0.662   1.041  0.2565 -0.0717  0.3917
21961SOL    HW169799   3.945   0.659   1.127  0.9766  1.6340  0.1349
21961SOL    HW269800   3.811   0.676   1.059  0.2341 -0.8299  0.9020
21962SOL     OW69801   2.798   7.847   2.365  0.4361  0.3369 -0.2397
21962SOL    HW169802   2.892   7.831   2.368  0.5582  0.9457  2.4872
21962SOL    HW269803   2.759   7.765   2.396  0.0678  0.1556 -1.1662
21963SOL     OW69804   3.884   1.015   0.898  0.4062 -0.1215 -0.1923
21963SOL    HW169805   3.799   1.027   0.939  0.7471  3.0504 -0.1757
21963SOL    HW269806   3.864   0.984   0.810 -0.6088 -1.2694  0.4101
21964SOL     OW69807   5.102   8.295   8.177 -0.4060 -0.3093  0.2420
21964SOL    HW169808   5.042   8.233   8.218 -0.2837 -1.4393 -1.2105
21964SOL    HW269809   5.091   8.376   8.227 -2.8217 -0.5933  0.2838
21965SOL     OW69810   6.501   2.401   6.586 -0.5760 -0.1275 -0.2465
21965SOL    HW169811   6.492   2.495   6.602  0.3150 -0.2444  1.1572
21965SOL    HW269812   6.522   2.364   6.672 -0.1313 -1.5070 -0.9136
21966SOL     OW69813   4.919   4.851   5.838  0.0672  0.0448 -0.0669
21966SOL    HW169814   4.967   4.843   5.756  0.6684  0.9559  0.1870
21966SOL    HW269815   4.831   4.881   5.812  0.3018  0.4736 -0.3774
21967SOL     OW69816   2.636   2.278   4.247  0.0110 -0.5969 -0.0583
21967SOL    HW169817   2.682   2.253   4.167 -1.9930 -0.3596 -1.3473
21967SOL    HW269818   2.705   2.308   4.306  1.3783  1.7446 -2.6313
21968SOL     OW69819   2.476   6.414   1.853  0.2578  0.1357 -0.7678
21968SOL    HW169820   2.424   6.359   1.795  0.0590 -0.0487 -0.4203
21968SOL    HW269821   2.441   6.397   1.941  0.4547  0.5201 -0.6094
21969SOL     OW69822   9.167   3.204   2.617 -0.1975  0.0396  0.3280
21969SOL    HW169823   9.122   3.267   2.674  0.3419 -0.3746  1.2417
21969SOL    HW269824   9.102   3.135   2.602 -0.9012  0.9426 -0.9410
21970SOL     OW69825   6.032   1.248   2.274  0.8712  0.1808 -0.2165
21970SOL    HW169826   6.035   1.343   2.289 -0.4463 -0.0870  2.5129
21970SOL    HW269827   5.938   1.228   2.268  1.1148 -0.9994 -0.3620
21971SOL     OW69828   3.439   8.127   0.462 -0.1611 -0.3904  0.4696
21971SOL    HW169829   3.387   8.204   0.485 -0.0499 -0.4426  0.9044
21971SOL    HW269830   3.377   8.055   0.465 -0.0944 -0.4324  0.8492
21972SOL     OW69831   7.740   5.531   2.905  0.0370  0.4378 -0.2525
21972SOL    HW169832   7.726   5.509   2.997  0.5791 -0.2469 -0.3279
21972SOL    HW269833   7.779   5.618   2.907 -0.1784  0.5268  0.1528
21973SOL     OW69834   9.208   6.651   5.425  0.0948 -0.1719 -0.1635
21973SOL    HW169835   9.283   6.638   5.367  0.4856  1.7388 -0.1702
21973SOL    HW269836   9.174   6.737   5.400 -0.5719  0.0852  1.5011
21974SOL     OW69837   1.851   1.176   6.277 -0.1692 -0.0186 -0.1625
21974SOL    HW169838   1.884   1.265   6.270  0.2254 -0.0613  0.8997
21974SOL    HW269839   1.894   1.128   6.206 -0.1240  0.5633 -0.5280
21975SOL     OW69840   2.017   9.220   3.706  0.0531 -0.6486 -0.0845
21975SOL    HW169841   1.927   9.251   3.716  0.6866  1.3056  0.0533
21975SOL    HW269842   2.059   9.241   3.789  0.6747 -1.4068 -0.2026
21976SOL     OW69843   2.618   9.708   3.924 -0.3759 -0.6449 -0.0410
21976SOL    HW169844   2.594   9.790   3.881 -1.0943 -1.0710 -0.4870
21976SOL    HW269845   2.711   9.717   3.944 -0.0614 -0.3452 -1.5301
21977SOL     OW69846   3.438   0.201   7.737 -0.0661  0.2578 -0.7087
21977SOL    HW169847   3.449   0.140   7.809  0.0388  1.2408  0.1261
21977SOL    HW269848   3.505   0.176   7.673  0.9660  0.4248  0.2768
21978SOL     OW69849   1.261   4.877  10.171 -0.2800 -0.2664 -0.5745
21978SOL    HW169850   1.304   4.809  10.223 -2.2308 -0.3537  1.0801
21978SOL    HW269851   1.315   4.955  10.184  0.0093 -0.6318  0.5140
21979SOL     OW69852   0.738   5.252   2.340  0.2276 -0.3154  0.8763
21979SOL    HW169853   0.744   5.159   2.363  2.7623 -0.0471  1.5958
21979SOL    HW269854   0.731   5.253   2.245  1.1405 -1.2435  0.7833
21980SOL     OW69855   2.870  10.073   7.065  0.0689  0.2684 -0.3507
21980SOL    HW169856   2.885  10.159   7.025 -0.3274  0.4043 -0.2198
21980SOL    HW269857   2.898  10.010   6.999  1.7189  0.4971  0.0976
21981SOL     OW69858   4.985   0.748   2.345  0.4013 -0.2600  0.5469
21981SOL    HW169859   5.026   0.703   2.418  2.3460 -0.2623 -0.4807
21981SOL    HW269860   4.984   0.841   2.371 -1.0209 -0.5065  1.4826
21982SOL     OW69861   4.762   9.697   4.240 -0.1164  0.1927 -0.5556
21982SOL    HW169862   4.690   9.724   4.298 -0.2615  1.3237 -1.2299
21982SOL    HW269863   4.742   9.740   4.157  0.3095 -1.0725 -1.3358
21983SOL     OW69864   1.801   4.286   2.214  0.2773  0.0254 -0.1078
21983SOL    HW169865   1.835   4.197   2.224  1.3422  0.2709 -1.2528
21983SOL    HW269866   1.866   4.330   2.159 -0.5318  1.3391 -0.0466
21984SOL     OW69867  10.046   8.025   4.688 -0.0941 -0.1775  0.2772
21984SOL    HW169868   9.954   8.028   4.714  0.0329  2.0687  0.6225
21984SOL    HW269869  10.080   7.946   4.730 -1.9075 -1.2247 -0.1210
21985SOL     OW69870   2.149   7.581   6.309  0.1033 -0.0932  0.2958
21985SOL    HW169871   2.198   7.499   6.302 -0.2032 -0.2957  0.4977
21985SOL    HW269872   2.200   7.635   6.369  1.1570  0.4894 -1.0602
21986SOL     OW69873   7.631   2.370   1.577 -0.1217 -0.3556  1.2091
21986SOL    HW169874   7.665   2.308   1.513  0.8968  0.4658  0.9384
21986SOL    HW269875   7.701   2.380   1.642 -0.2507  0.5227  1.2321
21987SOL     OW69876   0.483   9.966   0.617  0.3660 -0.7088 -0.0012
21987SOL    HW169877   0.486  10.007   0.531  1.6047 -0.4861  0.1396
21987SOL    HW269878   0.470   9.872   0.598  1.2544 -0.7444 -0.4488
21988SOL     OW69879   7.522   1.642   6.064  0.1065 -0.5605  0.1176
21988SOL    HW169880   7.504   1.729   6.027 -3.0075 -1.2352 -0.2478
21988SOL    HW269881   7.602   1.614   6.019 -0.2742  1.0640 -1.7517
21989SOL     OW69882   3.899   2.771   8.830 -0.0877  0.4931 -0.1986
21989SOL    HW169883   3.829   2.726   8.782  0.2373  0.6025 -0.7861
21989SOL    HW269884   3.970   2.779   8.766  0.5075  0.2724  0.4236
21990SOL     OW69885   1.897   1.062   9.922  0.4669 -0.4334  0.7572
21990SOL    HW169886   1.923   1.123   9.991  0.0813 -1.0049  1.4319
21990SOL    HW269887   1.972   1.004   9.911  0.6271 -0.1793  0.5083
21991SOL     OW69888   9.463   0.255   6.597 -0.0478 -0.0544 -0.0373
21991SOL    HW169889   9.377   0.221   6.622  0.1826 -0.3238  0.4078
21991SOL    HW269890   9.501   0.287   6.679  0.9893 -1.5554  0.1306
21992SOL     OW69891   4.570   4.528   3.070  0.2926  0.3938  0.1497
21992SOL    HW169892   4.579   4.557   3.161  1.2842 -0.9872  0.5352
21992SOL    HW269893   4.511   4.453   3.075  1.6653 -0.7530 -0.0544
21993SOL     OW69894   6.057   3.146   5.248 -0.5172 -0.0530  0.4784
21993SOL    HW169895   6.135   3.105   5.210 -1.1456 -1.7554  0.9209
21993SOL    HW269896   6.072   3.240   5.240  1.6274 -0.3439  0.6619
21994SOL     OW69897   7.184   8.597   1.075  0.2728  0.6499  0.0186
21994SOL    HW169898   7.268   8.629   1.107 -0.6594  1.5477  1.7236
21994SOL    HW269899   7.179   8.628   0.985  1.4197  1.2476  0.1339
21995SOL     OW69900   5.935   3.470   4.383 -0.3503  0.3217  0.1230
21995SOL    HW169901   5.976   3.520   4.454  0.0586  0.1614  0.0055
21995SOL    HW269902   5.919   3.535   4.315  0.7532  0.1973 -0.2777
21996SOL     OW69903   0.551   5.116   7.500 -0.1374  0.6021 -0.6675
21996SOL    HW169904   0.618   5.076   7.445  0.6145 -0.0589  0.6768
21996SOL    HW269905   0.554   5.065   7.581 -1.9892  0.8211 -0.4172
21997SOL     OW69906   7.304   6.385   2.400  0.0331 -0.4572 -0.1934
21997SOL    HW169907   7.215   6.368   2.431 -0.8122  3.1184 -0.1846
21997SOL    HW269908   7.346   6.430   2.473  1.1531 -0.2773 -0.9282
21998SOL     OW69909   1.093   2.302   3.711  0.0301  0.4185  0.5000
21998SOL    HW169910   1.136   2.219   3.688  0.0466  0.7005 -0.5290
21998SOL    HW269911   1.000   2.281   3.711 -0.1017  0.7651 -1.5186
21999SOL     OW69912   8.493   5.290   7.249 -0.3297  0.0134  0.0287
21999SOL    HW169913   8.451   5.335   7.323 -0.9326 -0.4453 -0.0302
21999SOL    HW269914   8.554   5.355   7.214  1.0569 -0.2240  1.8169
22000SOL     OW69915   7.291   2.278   4.615  0.6957  0.0231 -0.3429
22000SOL    HW169916   7.366   2.303   4.669 -0.0288  1.5660  0.0209
22000SOL    HW269917   7.294   2.338   4.541  0.4834 -0.6823 -0.9275
22001SOL     OW69918   4.561   1.774   7.387  0.0326  0.0277  0.4256
22001SOL    HW169919   4.594   1.735   7.468  0.4020 -0.5950 -0.0097
22001SOL    HW269920   4.476   1.811   7.410 -0.5642 -1.4808  0.7627
22002SOL     OW69921   5.882   1.683   6.556 -0.1221  0.7266  0.2197
22002SOL    HW169922   5.846   1.595   6.568 -1.4278  1.4305  1.7933
22002SOL    HW269923   5.934   1.676   6.475 -2.4860 -0.7820 -1.3246
22003SOL     OW69924   0.735   8.649   7.635 -0.2959 -0.2026 -0.3668
22003SOL    HW169925   0.764   8.726   7.684 -2.0635 -0.8781  1.8996
22003SOL    HW269926   0.758   8.575   7.691 -3.1489 -0.9664 -0.0554
22004SOL     OW69927   8.588   7.072   3.113  0.0022 -0.2063  0.4702
22004SOL    HW169928   8.510   7.029   3.149  0.4281 -0.1624  1.4770
22004SOL    HW269929   8.587   7.159   3.153 -0.5184  0.5296 -1.0788
22005SOL     OW69930   5.008   8.889   5.649 -0.2704 -0.0778 -0.5267
22005SOL    HW169931   5.074   8.834   5.692  0.1061  0.8693  0.1440
22005SOL    HW269932   4.925   8.846   5.669 -0.6711  2.2994  4.8220
22006SOL     OW69933   3.126   0.121   9.661  0.5792  0.6172 -0.1929
22006SOL    HW169934   3.047   0.174   9.679 -0.3700 -0.6436 -0.5085
22006SOL    HW269935   3.162   0.161   9.582 -1.4490 -0.5514 -1.8180
22007SOL     OW69936   4.622   1.360   2.152 -0.0367  0.0335 -0.1156
22007SOL    HW169937   4.591   1.367   2.243 -0.9626 -0.8142 -0.3539
22007SOL    HW269938   4.583   1.279   2.119  0.8741 -0.0429 -1.0564
22008SOL     OW69939   4.148   8.625   6.224 -0.3025 -0.1533 -0.1108
22008SOL    HW169940   4.064   8.630   6.179  0.9827  0.2669 -2.6770
22008SOL    HW269941   4.190   8.547   6.187 -0.1901 -1.3911  2.4242
22009SOL     OW69942   8.346   2.453   9.555 -0.2534 -0.0298 -0.0227
22009SOL    HW169943   8.326   2.545   9.575  1.4475  0.2247  0.7029
22009SOL    HW269944   8.435   2.455   9.521 -0.6561 -1.2981 -1.2351
22010SOL     OW69945   9.877   2.844   4.263  0.2280 -0.1432 -0.1173
22010SOL    HW169946   9.880   2.916   4.326  2.1237  0.9956 -1.4001
22010SOL    HW269947   9.850   2.885   4.181  1.1955 -0.8782 -0.8353
22011SOL     OW69948   5.743   2.569   0.634 -0.5067 -0.3974  0.5589
22011SOL    HW169949   5.709   2.503   0.574 -2.6029  0.9954  0.1286
22011SOL    HW269950   5.708   2.652   0.602  0.7632  0.7589  1.9953
22012SOL     OW69951   6.205   4.760   1.634 -0.4617 -0.0346 -0.6179
22012SOL    HW169952   6.132   4.710   1.597 -0.5539 -0.8383  0.5766
22012SOL    HW269953   6.165   4.840   1.668 -0.5460  0.2020 -1.2687
22013SOL     OW69954   6.955   0.217   9.001 -0.6686  0.4611 -0.5375
22013SOL    HW169955   6.949   0.192   9.094 -0.2728 -0.0648 -0.6498
22013SOL    HW269956   6.894   0.159   8.957 -0.5474  0.4259 -0.6595
22014SOL     OW69957   1.120   9.756   1.835 -0.5966  0.0510  0.5252
22014SOL    HW169958   1.077   9.716   1.760 -1.2391  0.2777  0.7680
22014SOL    HW269959   1.208   9.778   1.804 -1.0509  0.6888 -0.3350
22015SOL     OW69960   2.987   0.441   4.051  0.0721  0.0286 -0.1413
22015SOL    HW169961   3.010   0.367   4.106  0.2667  1.0894  1.2706
22015SOL    HW269962   2.905   0.475   4.088  0.1719  0.7364 -0.5362
22016SOL     OW69963   2.631   5.393   6.792 -0.0868 -0.4267  0.4806
22016SOL    HW169964   2.550   5.442   6.788 -0.4940 -1.1654 -0.7077
22016SOL    HW269965   2.652   5.372   6.701  2.1470  0.8590  0.6164
22017SOL     OW69966   9.270   3.000   1.969  0.3585 -0.7242 -0.0128
22017SOL    HW169967   9.273   3.032   1.879  0.4383 -0.1749  0.1810
22017SOL    HW269968   9.284   3.078   2.023  0.6518 -1.0994  0.4674
22018SOL     OW69969   6.949   0.711   1.799  0.5313  0.5787 -0.1837
22018SOL    HW169970   6.938   0.622   1.831  0.1337  0.7337  0.1183
22018SOL    HW269971   6.969   0.701   1.706  0.1292  0.1880 -0.2304
22019SOL     OW69972   8.911   3.438   7.981 -0.2399  0.3896 -0.3274
22019SOL    HW169973   8.871   3.410   8.063  1.7275 -2.8246 -0.2854
22019SOL    HW269974   8.842   3.431   7.916 -0.9512 -0.4270  0.4937
22020SOL     OW69975   7.633   1.645   4.781  0.0007 -0.5575  0.3308
22020SOL    HW169976   7.719   1.603   4.785 -0.8451 -2.4468 -0.2440
22020SOL    HW269977   7.599   1.638   4.870 -0.2388 -1.3588  0.1830
22021SOL     OW69978   7.350   8.621   8.586  0.0797 -0.1626 -0.1845
22021SOL    HW169979   7.404   8.684   8.634 -0.3095  1.1683 -1.4149
22021SOL    HW269980   7.407   8.592   8.514 -0.7762  1.2355 -1.4780
22022SOL     OW69981   9.206   1.070   7.888  0.5365 -0.1741  0.5007
22022SOL    HW169982   9.210   1.083   7.982  1.2349  0.0764  0.4383
22022SOL    HW269983   9.126   1.117   7.861  0.3206 -0.2723  0.9619
22023SOL     OW69984   3.026   8.591   2.868 -0.0850 -0.4011  0.6272
22023SOL    HW169985   2.955   8.567   2.808  0.8327  0.4495 -0.8618
22023SOL    HW269986   2.997   8.674   2.907 -0.6402 -0.9056  1.3016
22024SOL     OW69987   6.158   4.035   3.792  0.1305 -0.0645  0.1740
22024SOL    HW169988   6.188   3.982   3.866 -0.3601 -0.2744  0.2257
22024SOL    HW269989   6.238   4.074   3.757  0.3453  0.1880  0.9339
22025SOL     OW69990   5.975   4.030   6.837  0.7992  0.4509 -0.2487
22025SOL    HW169991   5.903   4.036   6.774  0.8793  1.6012 -0.2500
22025SOL    HW269992   5.970   4.111   6.887  0.3330 -0.7164  1.6991
22026SOL     OW69993   2.308   6.852   7.422 -0.1547  0.0658 -0.5514
22026SOL    HW169994   2.343   6.840   7.510  0.0711 -0.1437 -0.6675
22026SOL    HW269995   2.371   6.807   7.365  0.1834  0.9604 -0.9033
22027SOL     OW69996   5.035   8.585   3.190  0.2335  0.4037  0.0381
22027SOL    HW169997   5.026   8.587   3.094  0.5185  2.0249  0.0106
22027SOL    HW269998   4.964   8.641   3.222 -0.8012 -1.3232  0.9036
22028SOL     OW69999   2.725   3.727   3.776  0.0321  0.5645 -0.2275
22028SOL    HW170000   2.811   3.751   3.810 -0.0980  0.6683  0.0300
22028SOL    HW270001   2.685   3.677   3.846 -0.2283  0.7575 -0.2370
22029SOL     OW70002  10.002  10.076   5.737  0.2500  0.1524 -0.2711
22029SOL    HW170003   9.970  10.103   5.651 -1.6143 -3.6094 -0.9673
22029SOL    HW270004  10.074  10.016   5.718  0.2817 -0.1702  0.7959
22030SOL     OW70005   2.153   5.587   5.290 -0.4254 -0.1898  0.5177
22030SOL    HW170006   2.069   5.633   5.293 -1.1375 -1.3631 -0.2205
22030SOL    HW270007   2.129   5.495   5.299  0.7967 -0.5402  0.3121
22031SOL     OW70008   1.103   4.147   5.607 -0.3267  0.1698  0.5609
22031SOL    HW170009   1.060   4.214   5.659  0.3459  0.2312  1.0566
22031SOL    HW270010   1.194   4.147   5.638 -0.0286 -0.1320 -0.2728
22032SOL     OW70011   4.733   2.564   8.611 -0.1395 -0.4450 -0.0551
22032SOL    HW170012   4.712   2.495   8.674  1.7426 -1.6496 -0.6768
22032SOL    HW270013   4.688   2.537   8.531  0.6229 -0.9849 -0.3075
22033SOL     OW70014   7.121   9.625   7.593  0.0427  0.4919 -0.0751
22033SOL    HW170015   7.167   9.701   7.629 -0.7456  1.6621 -1.4600
22033SOL    HW270016   7.030   9.638   7.618 -0.0306 -0.2359  0.0543
22034SOL     OW70017  10.188   3.710   1.919  0.3927 -0.0541 -0.3596
22034SOL    HW170018  10.100   3.736   1.891 -0.8950 -2.7674  0.8250
22034SOL    HW270019  10.210   3.637   1.862  0.9012 -0.8271  0.7942
22035SOL     OW70020   4.413   3.328   4.446 -0.0827  0.1580  0.2293
22035SOL    HW170021   4.433   3.236   4.467 -1.4668  0.0290  1.0823
22035SOL    HW270022   4.492   3.376   4.471  0.8554 -0.8375 -0.6824
22036SOL     OW70023   6.065   7.061   3.622  0.0909  0.1443 -0.3900
22036SOL    HW170024   6.055   6.981   3.673  0.2600  0.3803  0.0253
22036SOL    HW270025   6.049   7.131   3.685  1.4998  0.4773 -0.3585
22037SOL     OW70026   9.874   2.633   9.789 -0.1811  0.4903 -0.2462
22037SOL    HW170027   9.841   2.692   9.721  0.5957  0.3171 -0.7850
22037SOL    HW270028   9.854   2.678   9.872  1.6352  2.2110 -0.6676
22038SOL     OW70029   5.061   4.302   9.165  0.1975 -0.3209 -0.2209
22038SOL    HW170030   4.974   4.342   9.169  0.1212 -0.3387 -1.3292
22038SOL    HW270031   5.070   4.255   9.248 -0.4006  0.5858  0.3724
22039SOL     OW70032   8.358   8.594   1.235 -0.2240  0.3161 -0.1551
22039SOL    HW170033   8.311   8.528   1.184 -0.6384  0.5206 -0.0473
22039SOL    HW270034   8.292   8.628   1.296 -0.2736  1.4810 -0.8313
22040SOL     OW70035   8.126   0.875   2.597  0.1765  0.0452  0.4240
22040SOL    HW170036   8.082   0.850   2.678  1.0246 -1.4091  0.4751
22040SOL    HW270037   8.101   0.807   2.534  0.8581  0.2198 -0.0501
22041SOL     OW70038   4.610   3.624   5.346 -0.0879 -0.4596 -0.7304
22041SOL    HW170039   4.539   3.645   5.285 -0.2034  0.5100 -0.2763
22041SOL    HW270040   4.688   3.616   5.290 -0.2683  0.0098 -1.0525
22042SOL     OW70041   5.812   1.990   1.449  0.0440  0.0885  0.3431
22042SOL    HW170042   5.787   1.952   1.364 -0.3350  0.0794  0.4574
22042SOL    HW270043   5.772   2.078   1.448 -0.4108 -0.1079  0.7276
22043SOL     OW70044   4.642   3.283   5.369 -0.2531 -0.0684  0.6027
22043SOL    HW170045   4.636   3.376   5.347 -0.7509 -0.2535 -0.0792
22043SOL    HW270046   4.601   3.238   5.295 -2.0710 -0.7154  1.9234
22044SOL     OW70047   0.159   3.803   3.803 -0.0434  0.2516  0.1400
22044SOL    HW170048   0.171   3.827   3.895 -0.3687  0.2567  0.1835
22044SOL    HW270049   0.075   3.756   3.802 -0.2016  0.5405 -0.2057
22045SOL     OW70050   1.933   6.489   2.269  0.1245 -1.0216  0.2448
22045SOL    HW170051   1.926   6.584   2.268  1.2083 -0.8960  1.7341
22045SOL    HW270052   1.949   6.467   2.361 -1.4706 -2.7611  0.1782
22046SOL     OW70053   0.142   2.167   7.167  0.0133  0.2362  0.0007
22046SOL    HW170054   0.089   2.117   7.105  0.0339 -1.3652  1.2372
22046SOL    HW270055   0.127   2.259   7.142 -0.5778 -0.3210 -1.8569
22047SOL     OW70056   9.198   8.806   8.944  0.4282 -0.2516 -0.1968
22047SOL    HW170057   9.234   8.882   8.989  0.8090 -0.1755 -0.6260
22047SOL    HW270058   9.118   8.784   8.993  1.4774 -0.9149  1.2707
22048SOL     OW70059   2.941   8.399   7.648  0.2415 -0.4225 -0.1109
22048SOL    HW170060   2.928   8.305   7.635  3.0416 -0.9367  0.2626
22048SOL    HW270061   3.032   8.407   7.676  0.0848  2.4263 -0.1545
22049SOL     OW70062   1.993  10.197  10.040 -0.0058  0.6082  0.2392
22049SOL    HW170063   2.016  10.264  10.105  1.8491  0.4139 -0.1527
22049SOL    HW270064   1.901  10.178  10.057 -0.1967  2.2401  1.2745
22050SOL     OW70065   5.776   1.128   0.667 -0.4126  0.1234  0.2610
22050SOL    HW170066   5.856   1.108   0.618 -0.6283  0.8040 -0.3959
22050SOL    HW270067   5.714   1.060   0.640  0.1885 -0.9371  1.4462
22051SOL     OW70068   6.227   5.273   1.822 -0.5909  0.3544  0.3540
22051SOL    HW170069   6.278   5.350   1.797  2.4404 -1.8372 -0.7764
22051SOL    HW270070   6.157   5.269   1.757  0.5036  1.0013 -0.9215
22052SOL     OW70071   9.587   2.341   1.664 -0.1972  0.2829 -0.1006
22052SOL    HW170072   9.599   2.296   1.581 -0.7920 -0.3552  0.1476
22052SOL    HW270073   9.599   2.433   1.644 -0.7196  0.1725 -0.9740
22053SOL     OW70074   7.882   4.809   5.295  0.1173  0.2262  0.2558
22053SOL    HW170075   7.974   4.833   5.284 -0.1898  1.8030  0.9031
22053SOL    HW270076   7.883   4.746   5.367  0.5226  1.7644  1.6535
22054SOL     OW70077   7.126   3.248   4.753  0.1921 -0.0026 -0.2903
22054SOL    HW170078   7.219   3.230   4.737  0.1001 -0.9723  0.1796
22054SOL    HW270079   7.099   3.304   4.681  0.8110 -0.8147 -1.1758
22055SOL     OW70080   5.797   0.138   6.350  0.2604 -0.5586 -0.3810
22055SOL    HW170081   5.729   0.070   6.354 -1.4914  1.0662 -0.8216
22055SOL    HW270082   5.835   0.129   6.263 -1.2110  0.0988 -1.1307
22056SOL     OW70083   6.782   7.220   7.846  0.2763 -0.1696 -0.2295
22056SOL    HW170084   6.771   7.141   7.899  1.0742 -0.0540  0.1163
22056SOL    HW270085   6.696   7.261   7.847 -0.3524 -1.3973 -1.0087
22057SOL     OW70086   9.503   6.751   5.405 -0.0704  0.4342  0.1175
22057SOL    HW170087   9.563   6.779   5.474  0.3255  2.5440 -1.0117
22057SOL    HW270088   9.450   6.828   5.386 -0.2866 -0.1367 -1.8102
22058SOL     OW70089   6.344   7.436   9.208  0.1015 -0.1716  0.5019
22058SOL    HW170090   6.423   7.487   9.224  0.2170  0.2236 -1.1382
22058SOL    HW270091   6.373   7.360   9.159 -0.5354  0.0603 -0.2613
22059SOL     OW70092   5.694   8.192   1.007  0.1518 -0.5356 -0.3717
22059SOL    HW170093   5.720   8.161   0.921 -0.3145 -0.3324 -0.5864
22059SOL    HW270094   5.627   8.259   0.990  0.2166 -0.3394  0.1345
22060SOL     OW70095   3.795   2.985   4.220 -0.6467 -0.2685 -0.8883
22060SOL    HW170096   3.818   3.013   4.308 -1.0307  0.5556 -1.0432
22060SOL    HW270097   3.879   2.970   4.177 -0.4519 -0.3265 -0.4954
22061SOL     OW70098   9.508   5.311   1.602 -0.1284 -0.5839 -0.4936
22061SOL    HW170099   9.458   5.244   1.647 -0.1847 -0.2872 -0.1068
22061SOL    HW270100   9.446   5.352   1.541  0.1132 -1.4228 -1.3305
22062SOL     OW70101   5.672   2.182   1.833  0.2669 -0.9208  0.0152
22062SOL    HW170102   5.663   2.090   1.858  0.2951 -0.9153  0.0448
22062SOL    HW270103   5.603   2.227   1.883  0.9366 -0.7637  0.8247
22063SOL     OW70104   3.347   0.972   6.312 -0.2081 -0.1907  0.0007
22063SOL    HW170105   3.372   0.888   6.274  0.1973  0.9859 -2.4811
22063SOL    HW270106   3.427   1.004   6.354  0.8062  0.6859 -2.4624
22064SOL     OW70107   4.219   3.311   6.218  0.3991  0.1188 -0.1462
22064SOL    HW170108   4.170   3.288   6.140  2.3675 -0.7145 -1.2127
22064SOL    HW270109   4.296   3.358   6.185  2.5337 -2.3174  0.9783
22065SOL     OW70110   3.440   5.410   1.470  0.2257  0.5631 -0.1696
22065SOL    HW170111   3.523   5.451   1.493 -0.2436  1.0905  0.6516
22065SOL    HW270112   3.433   5.334   1.527  0.6239 -0.0989 -0.9813
22066SOL     OW70113   0.259   4.801   4.567 -0.0624 -0.0100  0.3538
22066SOL    HW170114   0.174   4.836   4.591 -0.0281 -0.0524  0.5366
22066SOL    HW270115   0.294   4.864   4.504  0.1028  0.4091  0.8645
22067SOL     OW70116   4.367   5.325   8.681  0.6953  0.3318 -0.6367
22067SOL    HW170117   4.394   5.238   8.710  1.3961  0.2453 -1.5260
22067SOL    HW270118   4.311   5.357   8.752  1.1972 -0.4565  0.1349
22068SOL     OW70119   8.390   2.916   1.780  0.1588 -0.5207 -0.5093
22068SOL    HW170120   8.318   2.950   1.727 -0.2473 -2.2497 -1.1156
22068SOL    HW270121   8.457   2.892   1.717  0.7071 -0.2533 -0.0405
22069SOL     OW70122   5.672   9.462   0.389 -0.3291  0.0065 -0.0091
22069SOL    HW170123   5.634   9.480   0.303  1.5969 -1.2309 -1.2239
22069SOL    HW270124   5.677   9.366   0.393 -0.7225  0.0233  1.6740
22070SOL     OW70125   4.586   7.094   7.342  0.1574  0.2193  0.1525
22070SOL    HW170126   4.590   7.136   7.256  1.9365  0.3340  0.2504
22070SOL    HW270127   4.645   7.019   7.334  1.5607  1.0861  1.6960
22071SOL     OW70128   7.746   4.559   7.983  0.5626  0.1517 -0.4464
22071SOL    HW170129   7.733   4.556   7.888  0.2855 -3.4828 -0.4306
22071SOL    HW270130   7.661   4.533   8.020  1.2704 -0.6865  0.6715
22072SOL     OW70131   5.604   2.314   4.576  0.2635  0.3130 -0.4651
22072SOL    HW170132   5.530   2.374   4.577 -0.0908 -0.0915 -1.6828
22072SOL    HW270133   5.658   2.342   4.651 -0.0464  1.9355 -0.8117
22073SOL     OW70134   9.400   1.949   9.275  0.2705 -0.3113  0.1970
22073SOL    HW170135   9.353   1.882   9.323 -0.8338  0.2586 -0.0545
22073SOL    HW270136   9.355   1.955   9.190  2.0707 -1.1807 -0.8820
22074SOL     OW70137   8.685   4.619   3.888  0.3298 -0.3533 -0.5079
22074SOL    HW170138   8.775   4.595   3.866  0.7046 -0.3332  0.9411
22074SOL    HW270139   8.686   4.635   3.982 -1.2223 -0.4740 -0.4395
22075SOL     OW70140   4.582   3.615   5.695 -0.3391  0.0323 -0.1440
22075SOL    HW170141   4.639   3.648   5.765  0.2291  1.0870 -1.0628
22075SOL    HW270142   4.579   3.686   5.632 -0.9451 -0.8495 -1.1384
22076SOL     OW70143   2.164   5.903   6.162 -0.4969  0.6717 -0.3268
22076SOL    HW170144   2.159   5.977   6.223  2.1135  0.5903  0.1152
22076SOL    HW270145   2.130   5.937   6.080  0.0073  2.1743  0.0497
22077SOL     OW70146   2.484   0.593   7.496 -0.3985 -0.3731  0.0087
22077SOL    HW170147   2.411   0.652   7.481  0.5043  0.7339 -0.1848
22077SOL    HW270148   2.465   0.515   7.444 -0.8137  0.4315 -1.0581
22078SOL     OW70149   9.448   9.359   6.112  0.0664  0.1663 -0.1640
22078SOL    HW170150   9.382   9.308   6.065  2.1814 -1.1779 -1.8955
22078SOL    HW270151   9.474   9.427   6.050  0.2744  0.7187  0.5163
22079SOL     OW70152   3.276   8.621   9.440  0.0602  0.0987  0.0524
22079SOL    HW170153   3.365   8.651   9.460  1.7053 -0.2722 -5.1317
22079SOL    HW270154   3.221   8.697   9.458  1.7265  1.0567  1.4486
22080SOL     OW70155   1.473   0.226   0.902 -0.2253  0.3018  0.2675
22080SOL    HW170156   1.426   0.303   0.934 -0.8291  0.1803 -0.3088
22080SOL    HW270157   1.564   0.254   0.895 -0.3812  0.8516  0.4082
22081SOL     OW70158   8.178   7.995   6.110 -0.2694  0.6635 -0.2606
22081SOL    HW170159   8.239   7.926   6.138 -1.9714 -0.5358  0.6194
22081SOL    HW270160   8.094   7.969   6.147 -1.3731  2.1990 -1.5935
22082SOL     OW70161   4.879   8.178   7.529 -1.0610  0.3248 -0.2464
22082SOL    HW170162   4.921   8.214   7.450 -1.0331 -0.5418 -0.6409
22082SOL    HW270163   4.949   8.176   7.594 -0.3840 -1.3122 -0.9632
22083SOL     OW70164   2.638   8.855   7.194  0.1539  0.6055 -0.6205
22083SOL    HW170165   2.678   8.942   7.191 -0.9356  1.1975  0.6991
22083SOL    HW270166   2.642   8.831   7.287 -0.5064 -0.2894 -0.8199
22084SOL     OW70167   8.372   3.074   3.621 -0.9382 -0.2394 -0.0266
22084SOL    HW170168   8.375   3.140   3.691 -0.2726  0.4484 -0.6823
22084SOL    HW270169   8.422   3.000   3.657 -0.1313  0.3183  0.0258
22085SOL     OW70170   5.400   0.715   5.159  0.7119 -0.1555 -0.1668
22085SOL    HW170171   5.361   0.645   5.108 -1.4789  0.8502  0.0161
22085SOL    HW270172   5.396   0.684   5.250  0.6478 -0.1859 -0.1802
22086SOL     OW70173   0.739   5.427   1.537  0.1348  0.0250  0.1594
22086SOL    HW170174   0.790   5.389   1.465 -0.6673 -0.0883 -0.3625
22086SOL    HW270175   0.777   5.513   1.550  0.3659  0.0031 -0.3308
22087SOL     OW70176   8.203   4.591   1.537 -0.1854 -0.0341  0.2478
22087SOL    HW170177   8.124   4.629   1.500  0.3901  0.6089 -0.3585
22087SOL    HW270178   8.223   4.517   1.480 -0.2448 -0.0888  0.2974
22088SOL     OW70179   9.647   4.734   9.164 -0.8978 -0.7328  0.0075
22088SOL    HW170180   9.641   4.827   9.140 -1.4951 -0.9927 -0.8862
22088SOL    HW270181   9.715   4.731   9.232 -2.3136  0.6502  1.5816
22089SOL     OW70182   3.556   9.164   0.432 -0.3852  0.0613  0.0335
22089SOL    HW170183   3.481   9.206   0.475 -0.3108  1.2042 -0.9066
22089SOL    HW270184   3.532   9.072   0.426 -0.8932  0.0831  1.4529
22090SOL     OW70185   2.491   2.906  10.121 -0.1401 -0.2005  0.2792
22090SOL    HW170186   2.576   2.862  10.118 -0.2165 -0.4049  1.1540
22090SOL    HW270187   2.431   2.842  10.159 -0.6818 -0.0362 -0.2805
22091SOL     OW70188   4.427   0.711   5.721  0.8028  0.2930  0.2467
22091SOL    HW170189   4.390   0.794   5.691 -1.4595 -0.3695  0.9627
22091SOL    HW270190   4.453   0.728   5.812 -1.5636 -0.1959  1.1138
22092SOL     OW70191   7.652   9.729   0.432  0.3364 -0.3400  0.3679
22092SOL    HW170192   7.681   9.738   0.342 -1.5875  1.0850 -0.1735
22092SOL    HW270193   7.710   9.663   0.470  0.8211 -1.4134 -2.0660
22093SOL     OW70194   7.009   8.446   3.187  0.2325  0.0931  0.4657
22093SOL    HW170195   7.000   8.494   3.105  2.8670  0.3498  0.2293
22093SOL    HW270196   6.941   8.379   3.184 -0.5639  0.9170 -1.3091
22094SOL     OW70197   6.582   1.515   0.121 -0.7136 -0.2915 -0.4276
22094SOL    HW170198   6.640   1.450   0.082  2.0556  1.3814  0.6314
22094SOL    HW270199   6.581   1.588   0.058 -0.1379  0.4339  0.3773
22095SOL     OW70200   4.393   9.512   2.464  0.2376  1.0881 -0.2972
22095SOL    HW170201   4.333   9.552   2.526 -2.0071 -0.8026 -1.0934
22095SOL    HW270202   4.430   9.437   2.511 -1.2358 -0.1661 -1.0415
22096SOL     OW70203   3.779  10.060   3.378  0.6146 -0.4294 -0.4673
22096SOL    HW170204   3.873  10.050   3.389  0.6398 -0.0413 -0.3005
22096SOL    HW270205   3.763  10.153   3.394  0.3539 -0.2631 -1.5730
22097SOL     OW70206   7.832   6.836   6.739 -0.2330 -0.0384 -0.1037
22097SOL    HW170207   7.785   6.902   6.789 -0.9023  0.0237 -0.7903
22097SOL    HW270208   7.799   6.753   6.774 -0.4806  0.0031 -0.2326
22098SOL     OW70209   3.635   3.142   4.621  0.1345  0.4735 -0.2357
22098SOL    HW170210   3.547   3.177   4.608  0.5934  1.7794  0.0181
22098SOL    HW270211   3.623   3.071   4.684 -0.8463  0.0769 -0.8508
22099SOL     OW70212   5.422   7.419   9.530  0.2621  0.0152  0.0673
22099SOL    HW170213   5.385   7.447   9.447  0.5983 -0.0612 -0.1082
22099SOL    HW270214   5.499   7.368   9.507 -0.7537 -1.7430  0.3454
22100SOL     OW70215   5.423   5.532   0.713  0.2799  0.7222 -0.0775
22100SOL    HW170216   5.458   5.450   0.679  0.5072  1.0829 -0.7347
22100SOL    HW270217   5.328   5.524   0.703  0.2726  0.3732  0.2548
22101SOL     OW70218   4.709   9.702   2.076 -0.2631  0.4594 -0.0865
22101SOL    HW170219   4.758   9.637   2.125 -1.1008  0.9447  1.4468
22101SOL    HW270220   4.721   9.677   1.984 -0.5839 -1.8636  0.4460
22102SOL     OW70221   6.942   6.093   4.559 -0.7338  0.4150  0.0801
22102SOL    HW170222   6.970   6.043   4.636  0.4757 -1.1345 -1.2789
22102SOL    HW270223   6.850   6.070   4.548 -0.4159 -0.8923 -0.0205
22103SOL     OW70224   5.987   9.745   0.930  0.4183 -0.6644 -0.4881
22103SOL    HW170225   5.972   9.800   1.007  1.5704 -2.0293  0.7809
22103SOL    HW270226   5.901   9.736   0.890 -0.4087 -0.6336  1.1703
22104SOL     OW70227   6.846   2.941   6.594 -0.1343  0.3213 -0.1405
22104SOL    HW170228   6.846   2.857   6.640  2.1685 -0.0967 -0.7428
22104SOL    HW270229   6.759   2.977   6.609 -0.7824 -1.6113  1.1563
22105SOL     OW70230   9.970   0.390   6.040 -0.1718  0.1878 -0.8236
22105SOL    HW170231   9.904   0.334   6.080  1.4807 -0.8525  0.5647
22105SOL    HW270232  10.041   0.331   6.016  1.1914  1.5324 -0.2368
22106SOL     OW70233   0.611   6.696   0.686  0.0134  0.9667 -0.0716
22106SOL    HW170234   0.540   6.632   0.682 -0.1078  1.0994 -0.0344
22106SOL    HW270235   0.604   6.745   0.604  0.6026  0.4046 -0.4663
22107SOL     OW70236   0.809   6.411   9.459 -0.1605 -0.2751  0.2909
22107SOL    HW170237   0.820   6.499   9.425 -0.1951  0.4715  2.0968
22107SOL    HW270238   0.790   6.357   9.382 -0.3306  1.3110 -0.8142
22108SOL     OW70239   1.831   2.897   9.188 -0.2019  0.1900  0.4356
22108SOL    HW170240   1.791   2.862   9.108  0.5618 -1.4992  0.7473
22108SOL    HW270241   1.767   2.878   9.257 -1.1162  2.1583  0.1839
22109SOL     OW70242   0.494   2.316   1.129  0.1400 -0.7439  0.8212
22109SOL    HW170243   0.549   2.357   1.196  0.7595 -1.9240  1.0738
22109SOL    HW270244   0.480   2.384   1.064 -3.0649  1.4820  3.5492
22110SOL     OW70245   8.398   8.035   9.273  0.2227  0.5858  0.3957
22110SOL    HW170246   8.408   8.031   9.368  2.1047 -0.3306  0.2152
22110SOL    HW270247   8.372   8.125   9.255 -2.2468  0.2452  1.9046
22111SOL     OW70248   4.895   8.702   0.342 -0.6241  0.2787  0.3896
22111SOL    HW170249   4.870   8.707   0.434  0.6689 -0.1373  0.7989
22111SOL    HW270250   4.827   8.750   0.295 -0.9613  1.0554  1.6299
22112SOL     OW70251   4.585   7.471   6.153  0.1148  0.0330 -0.1584
22112SOL    HW170252   4.563   7.496   6.243 -0.3952  0.7490 -0.4725
22112SOL    HW270253   4.635   7.390   6.163  1.1637  0.7711  0.8518
22113SOL     OW70254   8.205   0.876   8.911  0.0352 -0.0907  0.0790
22113SOL    HW170255   8.253   0.811   8.860 -0.5489  0.2830 -0.9835
22113SOL    HW270256   8.269   0.946   8.927 -0.3034  0.7317 -1.9387
22114SOL     OW70257   0.370   0.337   0.055 -0.0796  0.1682  0.5546
22114SOL    HW170258   0.308   0.383   0.112 -1.4828 -0.5028 -0.3715
22114SOL    HW270259   0.318   0.267   0.015  1.0049  0.2429 -1.0780
22115SOL     OW70260   4.337   2.764   0.168 -0.2331 -0.3104  0.0719
22115SOL    HW170261   4.265   2.719   0.123 -0.4511  1.3436 -1.3375
22115SOL    HW270262   4.405   2.773   0.102 -0.8777  2.9206 -0.3107
22116SOL     OW70263   9.640   8.854   6.992 -0.2550  0.0965  0.2512
22116SOL    HW170264   9.613   8.926   7.048  1.1050  0.8335  0.0104
22116SOL    HW270265   9.591   8.778   7.025 -0.2968  0.7278  1.7309
22117SOL     OW70266   9.398   0.758   5.066 -0.1252 -0.6788 -0.0483
22117SOL    HW170267   9.435   0.718   5.144 -0.1779  0.1262  0.3975
22117SOL    HW270268   9.315   0.711   5.051 -1.7117  1.1658  2.2172
22118SOL     OW70269   1.911   2.213   6.032  0.5421  0.0063  0.8221
22118SOL    HW170270   1.999   2.234   6.001 -0.0205 -0.0093 -0.8885
22118SOL    HW270271   1.859   2.289   6.010 -0.1475 -0.5270  0.5751
22119SOL     OW70272   3.854   8.348   4.783 -0.4832 -0.2426 -0.2413
22119SOL    HW170273   3.910   8.293   4.837  0.1842  1.4311  0.8646
22119SOL    HW270274   3.862   8.435   4.822 -0.3869  0.9379 -2.7168
22120SOL     OW70275   7.105  10.191   2.642  0.4019  0.0295  0.3785
22120SOL    HW170276   7.139  10.239   2.717 -0.3153  1.7244 -0.3312
22120SOL    HW270277   7.157  10.222   2.568 -0.3268 -0.0005 -0.1624
22121SOL     OW70278   7.598   1.746   1.977 -0.0468 -0.0163  0.5154
22121SOL    HW170279   7.584   1.830   1.932 -0.4020 -0.4580 -0.2285
22121SOL    HW270280   7.678   1.758   2.027 -0.3968  0.9544  0.8646
22122SOL     OW70281   3.335  10.084   2.534  0.4098  0.4539  0.1515
22122SOL    HW170282   3.279  10.142   2.483 -1.0663 -1.1989 -0.1812
22122SOL    HW270283   3.417  10.079   2.484  0.2801  1.6125 -0.1985
22123SOL     OW70284   4.344   5.700   7.903  0.3497  0.0623 -0.0450
22123SOL    HW170285   4.291   5.682   7.825  0.0721 -0.0431  0.1684
22123SOL    HW270286   4.286   5.683   7.976  0.4068  0.8146  0.1790
22124SOL     OW70287   9.946   8.911  10.071  0.3454 -0.2440  0.5874
22124SOL    HW170288  10.002   8.879  10.000 -0.0140  1.1354 -0.3499
22124SOL    HW270289   9.857   8.887  10.045  0.3234 -0.8713  1.2129
22125SOL     OW70290   2.850   8.724   9.485  0.1918  0.1144  0.3321
22125SOL    HW170291   2.762   8.760   9.473 -0.1294 -0.9544 -0.6448
22125SOL    HW270292   2.840   8.657   9.552  0.5678  0.9757  1.2856
22126SOL     OW70293   6.763   5.290   2.011 -0.6014  0.2459 -0.4227
22126SOL    HW170294   6.713   5.240   2.074  0.2065 -1.2155 -0.9044
22126SOL    HW270295   6.699   5.315   1.944 -1.0489  0.0215 -0.0806
22127SOL     OW70296   3.551   6.767   2.315 -0.0261 -0.1406  0.0524
22127SOL    HW170297   3.559   6.779   2.220  0.4804 -4.3639 -0.6399
22127SOL    HW270298   3.462   6.735   2.328  0.0157  0.0973  1.0001
22128SOL     OW70299   5.691   7.847   5.072 -0.4298  0.5953  0.0237
22128SOL    HW170300   5.778   7.808   5.071 -1.9794 -3.3972 -0.6510
22128SOL    HW270301   5.657   7.833   4.983 -2.7588 -0.8882  1.0308
22129SOL     OW70302   6.508   2.795   5.166 -0.3151  0.1843  0.0505
22129SOL    HW170303   6.437   2.780   5.103  0.4046  0.6494 -0.8904
22129SOL    HW270304   6.583   2.749   5.128  0.2155  0.7556  0.4005
22130SOL     OW70305   6.646   0.091   5.555 -0.3233  0.2311 -0.0889
22130SOL    HW170306   6.619   0.001   5.540 -0.2981  0.4065 -1.2919
22130SOL    HW270307   6.657   0.128   5.467 -0.6167  1.4864  0.3777
22131SOL     OW70308   3.028   9.826   6.423 -0.2903 -0.0313 -0.2046
22131SOL    HW170309   2.957   9.805   6.363 -1.9342  2.0916  0.8378
22131SOL    HW270310   3.040   9.747   6.476 -0.9337 -0.8631 -1.2775
22132SOL     OW70311   2.689   8.149   3.829 -0.1012 -0.4538 -0.1190
22132SOL    HW170312   2.734   8.069   3.858  0.5413  0.7934  2.6121
22132SOL    HW270313   2.749   8.220   3.852 -0.9269  0.9298 -1.9323
22133SOL     OW70314   6.174   4.391   0.940  0.2242  0.6898 -0.1936
22133SOL    HW170315   6.140   4.387   1.030 -0.9408  1.4986 -0.5683
22133SOL    HW270316   6.225   4.472   0.937 -1.6459  1.9159 -0.8380
22134SOL     OW70317   4.852   0.492   8.586  0.0367 -0.2935 -0.1334
22134SOL    HW170318   4.840   0.424   8.652  0.1807 -0.0634  0.1303
22134SOL    HW270319   4.794   0.563   8.613 -0.1124 -0.3072 -0.4074
22135SOL     OW70320   2.105   0.227   1.631 -0.2079  0.1277 -0.1355
22135SOL    HW170321   2.084   0.321   1.631 -1.0764 -0.0204  1.7228
22135SOL    HW270322   2.121   0.206   1.723  0.5428 -1.4518 -0.5922
22136SOL     OW70323   0.437   9.746   6.204 -0.1907  0.0558 -0.5765
22136SOL    HW170324   0.348   9.778   6.219 -0.4129 -1.4602  1.7730
22136SOL    HW270325   0.428   9.652   6.190  1.0602 -0.2362  0.3359
22137SOL     OW70326   6.961   2.052   0.133 -0.0513  0.0451 -0.4172
22137SOL    HW170327   7.046   2.025   0.099 -0.4695 -0.5413 -1.0217
22137SOL    HW270328   6.900   1.986   0.100 -0.5605 -0.2673  1.0639
22138SOL     OW70329   3.092   5.864   9.028 -0.2107 -0.3986  0.1843
22138SOL    HW170330   3.108   5.930   8.960  1.7240  0.3831  1.3268
22138SOL    HW270331   3.055   5.914   9.101  3.2275 -0.0397  1.8644
22139SOL     OW70332   1.756   7.188  10.173  0.4623  0.0117 -0.0499
22139SOL    HW170333   1.733   7.103  10.212  0.5403 -0.9053 -1.9005
22139SOL    HW270334   1.678   7.214  10.125  1.4993 -0.6817 -2.2299
22140SOL     OW70335   0.370   1.349   7.589  0.1049 -0.0277  0.3564
22140SOL    HW170336   0.416   1.359   7.672 -2.2351 -0.1202  1.7760
22140SOL    HW270337   0.281   1.381   7.607 -0.7150 -0.8214 -1.8806
22141SOL     OW70338   7.571   7.594   7.297 -0.5123  0.4478 -0.4318
22141SOL    HW170339   7.512   7.538   7.246  0.0520 -0.7271  0.1668
22141SOL    HW270340   7.560   7.565   7.387 -0.6105  1.6981 -0.0163
22142SOL     OW70341   5.814   9.953   8.787 -0.0321  0.0755  0.8477
22142SOL    HW170342   5.873   9.938   8.861 -0.2763  0.6620  1.1634
22142SOL    HW270343   5.826  10.045   8.765  0.6448 -0.2719 -0.3723
22143SOL     OW70344   4.087   1.288   1.930  0.6900 -0.3827 -0.2303
22143SOL    HW170345   4.152   1.338   1.979 -0.3053  1.7025 -0.9091
22143SOL    HW270346   4.107   1.197   1.950  2.5135  0.2597  1.1981
22144SOL     OW70347   5.982   4.759   9.877  0.4801  0.4784  0.0256
22144SOL    HW170348   5.964   4.690   9.942 -2.9129  2.8796  1.9054
22144SOL    HW270349   6.024   4.829   9.928 -0.7795  1.7786 -0.6745
22145SOL     OW70350   7.213   9.001   2.177 -0.2926  0.0874  0.2246
22145SOL    HW170351   7.220   8.997   2.082 -1.4135  0.3931  0.1145
22145SOL    HW270352   7.301   8.981   2.209 -0.1367 -1.0485 -0.8435
22146SOL     OW70353   7.068   8.649   1.486  0.4924  0.2077 -0.0027
22146SOL    HW170354   7.119   8.581   1.530  0.2252 -0.0350 -0.0649
22146SOL    HW270355   7.010   8.601   1.428 -0.7522  0.3955  1.0421
22147SOL     OW70356   6.618   7.005   0.349  0.1711  0.0423 -0.5288
22147SOL    HW170357   6.683   7.008   0.419  0.3894 -0.8789 -0.6886
22147SOL    HW270358   6.647   6.935   0.291 -1.4239 -0.9744 -0.1638
22148SOL     OW70359   3.949   8.263   9.320 -0.7561 -0.0282 -0.2020
22148SOL    HW170360   4.008   8.336   9.300 -1.0612  0.0432 -0.8503
22148SOL    HW270361   3.894   8.254   9.242  0.4502 -2.1060 -0.8912
22149SOL     OW70362   4.093   9.359   1.709 -0.2393  0.0202 -0.2879
22149SOL    HW170363   4.177   9.321   1.681  0.1670 -0.7403  1.7945
22149SOL    HW270364   4.079   9.432   1.650  0.6461 -1.3290 -2.2799
22150SOL     OW70365   2.018   7.643   5.195  0.1242  0.3972 -0.0570
22150SOL    HW170366   1.995   7.569   5.251 -0.2786 -0.4432 -1.3026
22150SOL    HW270367   1.991   7.720   5.245  0.5558 -0.2733  1.2641
22151SOL     OW70368   8.829   3.797   6.507  0.2808 -0.1220 -0.2178
22151SOL    HW170369   8.838   3.746   6.587 -0.1689  0.4655  0.2142
22151SOL    HW270370   8.770   3.745   6.452 -0.1022 -0.1167  0.1818
22152SOL     OW70371   3.455   4.054   7.382 -0.2843 -0.2876 -0.5284
22152SOL    HW170372   3.461   4.069   7.288 -1.1982 -0.8388 -0.6898
22152SOL    HW270373   3.542   4.024   7.408  0.6543  1.9870 -0.7776
22153SOL     OW70374   9.374   9.456   4.862  0.0069  0.2302 -0.1135
22153SOL    HW170375   9.279   9.470   4.860 -0.0635 -0.1859  0.1592
22153SOL    HW270376   9.386   9.385   4.925  0.5506  0.6936  0.3156
22154SOL     OW70377   6.206   6.657   4.024  0.1584 -0.4079  0.4489
22154SOL    HW170378   6.151   6.587   4.058 -0.4961 -0.4225 -0.5978
22154SOL    HW270379   6.182   6.734   4.075 -1.7257 -0.1310 -0.7326
22155SOL     OW70380   9.620   2.030   2.112 -0.2451  0.0067  0.4667
22155SOL    HW170381   9.646   2.104   2.056  0.9052  0.0188  0.9759
22155SOL    HW270382   9.530   2.049   2.137 -0.0921  1.0521  0.2798
22156SOL     OW70383   3.650   0.939   4.542 -0.4997  0.2911 -0.4618
22156SOL    HW170384   3.565   0.966   4.577 -2.5493 -4.1226 -1.3896
22156SOL    HW270385   3.709   0.944   4.616 -1.5544  3.1310  0.3136
22157SOL     OW70386   6.256   6.470   5.801 -0.2140  0.2560  0.4959
22157SOL    HW170387   6.305   6.425   5.733  0.6425  1.7619  0.0657
22157SOL    HW270388   6.284   6.429   5.882 -0.5691 -0.9536  0.0291
22158SOL     OW70389   0.761   5.830   5.869 -0.3797  0.2260  0.0543
22158SOL    HW170390   0.767   5.809   5.776  0.5157 -1.1122  0.3899
22158SOL    HW270391   0.836   5.887   5.886  0.5975 -1.1043  0.3328
22159SOL     OW70392   0.379   3.864   5.517 -0.3457 -0.4202  0.3777
22159SOL    HW170393   0.453   3.924   5.514  1.0546 -2.0175  1.5453
22159SOL    HW270394   0.387   3.812   5.437  0.2763 -1.1059  0.8726
22160SOL     OW70395   5.450   2.453   2.559 -0.1494  0.1436  0.2131
22160SOL    HW170396   5.396   2.444   2.637  0.4903  0.6350  0.7309
22160SOL    HW270397   5.463   2.363   2.528 -2.0841  0.0829 -0.5265
22161SOL     OW70398   4.788   5.215   4.490 -0.5363  0.0826  0.2030
22161SOL    HW170399   4.793   5.125   4.523 -1.2074  0.1081  0.3851
22161SOL    HW270400   4.858   5.220   4.424  0.6560 -0.0483  1.4093
22162SOL     OW70401   3.812   0.012   7.549 -0.0132  0.0382 -0.2914
22162SOL    HW170402   3.873  -0.060   7.565 -0.5826 -0.1522  1.1435
22162SOL    HW270403   3.867   0.083   7.517  0.3935 -1.4219 -3.2275
22163SOL     OW70404   7.959   1.406   6.445  0.2038  0.3894 -0.0250
22163SOL    HW170405   7.885   1.451   6.403  0.2373  0.0357 -0.4690
22163SOL    HW270406   7.966   1.323   6.398  0.8581  0.4016  0.0470
22164SOL     OW70407   6.676   6.725   3.060  0.1172  0.3732 -0.4125
22164SOL    HW170408   6.766   6.753   3.045  0.6570 -1.3416 -0.5858
22164SOL    HW270409   6.660   6.659   2.993 -0.8483 -0.2176  0.3689
22165SOL     OW70410   1.570   4.971   1.026  0.4210  0.1170  0.1374
22165SOL    HW170411   1.631   4.961   1.099  0.8691  0.8802 -0.1219
22165SOL    HW270412   1.484   4.954   1.064  0.8531 -1.9854  0.2966
22166SOL     OW70413   3.826   7.162   0.077  0.2173 -0.2231 -0.3667
22166SOL    HW170414   3.839   7.254   0.052 -0.8143 -0.1815 -0.8078
22166SOL    HW270415   3.881   7.113   0.016 -0.5541  0.0090 -1.2657
22167SOL     OW70416   5.389   0.722   3.266 -0.9121  0.5357  0.6148
22167SOL    HW170417   5.428   0.643   3.229 -0.8858  0.2490  1.2342
22167SOL    HW270418   5.377   0.781   3.191 -0.8796 -0.0319  0.1578
22168SOL     OW70419   8.879   3.011   3.224 -0.3271  0.2256  0.3110
22168SOL    HW170420   8.811   3.055   3.173  1.4746  2.4508 -0.3457
22168SOL    HW270421   8.863   3.041   3.314  0.4110  1.6674 -0.0129
22169SOL     OW70422   2.428   9.567   5.007 -0.3678 -0.0505  0.5628
22169SOL    HW170423   2.461   9.597   5.092 -1.6831  1.4123  0.5966
22169SOL    HW270424   2.475   9.621   4.944 -1.2923  0.7306  0.5195
22170SOL     OW70425   4.927   7.920   5.684  0.6166 -0.5972  0.0641
22170SOL    HW170426   4.929   7.830   5.650  0.2131 -0.6113  0.0753
22170SOL    HW270427   4.861   7.917   5.754 -1.9785  0.4817 -2.1656
22171SOL     OW70428   4.154   3.429   6.934  0.0197  0.2425 -0.7173
22171SOL    HW170429   4.145   3.524   6.945  2.2332  0.4102  0.3077
22171SOL    HW270430   4.185   3.418   6.844 -0.9953  0.3936 -1.1012
22172SOL     OW70431   1.915   7.431   2.218 -0.3955 -0.8608  0.0162
22172SOL    HW170432   1.955   7.499   2.271 -0.7362 -0.3444 -0.3770
22172SOL    HW270433   1.843   7.398   2.272 -1.1984  0.1627 -0.3898
22173SOL     OW70434   0.147  10.116   6.704 -0.2189  0.3242  0.4210
22173SOL    HW170435   0.176  10.061   6.777  0.9526 -0.6600 -0.7257
22173SOL    HW270436   0.069  10.073   6.670  0.4790 -0.4429 -0.2376
22174SOL     OW70437   6.350   6.870   5.779  0.5652 -0.4228 -0.0123
22174SOL    HW170438   6.383   6.888   5.691  0.5452 -0.6759 -0.0709
22174SOL    HW270439   6.403   6.926   5.836 -1.4299  2.1131 -0.4525
22175SOL     OW70440   7.357   4.618   4.035  0.1263  0.0343  0.1228
22175SOL    HW170441   7.328   4.573   3.956 -0.2837 -0.6462  0.6474
22175SOL    HW270442   7.396   4.549   4.089 -1.4674  0.0706  1.3952
22176SOL     OW70443   6.040   2.921   4.062  0.4888 -0.2685  0.4206
22176SOL    HW170444   6.108   2.958   4.118  0.2792  1.1482 -0.2197
22176SOL    HW270445   5.958   2.941   4.107  0.4184 -0.9599  0.6181
22177SOL     OW70446   2.139   9.765   6.880  0.0312  0.2831  0.0110
22177SOL    HW170447   2.114   9.683   6.924  1.0749  1.1173  2.3270
22177SOL    HW270448   2.218   9.793   6.927  1.0430  1.4525 -2.2567
22178SOL     OW70449   4.765   2.210   1.091  0.0690 -0.1260 -0.1674
22178SOL    HW170450   4.809   2.258   1.161  0.6507  0.4188 -0.8811
22178SOL    HW270451   4.806   2.123   1.092  0.8844  0.2366 -0.5361
22179SOL     OW70452   2.351   6.646   9.174 -0.3989  0.3975  0.0010
22179SOL    HW170453   2.407   6.620   9.247 -0.8185  0.0943  0.2187
22179SOL    HW270454   2.274   6.589   9.181  0.3832 -0.9835 -1.7922
22180SOL     OW70455   6.362   0.205   5.293 -0.3473  0.2585 -0.1936
22180SOL    HW170456   6.454   0.224   5.310  0.3434 -0.7086 -2.4869
22180SOL    HW270457   6.331   0.279   5.241 -0.7923  0.4275  0.3026
22181SOL     OW70458   1.633   5.890   2.958 -0.2454  0.4958 -0.0303
22181SOL    HW170459   1.582   5.878   3.038 -0.4338  1.7284  0.0503
22181SOL    HW270460   1.712   5.839   2.972  0.3564  1.7737  1.5365
22182SOL     OW70461   1.736   8.112   1.845  0.2648 -0.3081  0.4124
22182SOL    HW170462   1.746   8.041   1.908 -1.5553 -1.5918 -0.6415
22182SOL    HW270463   1.709   8.068   1.764 -3.1974  1.6952  0.2935
22183SOL     OW70464   0.161   9.519   3.776  0.1648  0.3212  0.1868
22183SOL    HW170465   0.208   9.439   3.751 -0.6860  0.1450 -0.9547
22183SOL    HW270466   0.227   9.587   3.776  0.1116  0.6191 -3.9808
22184SOL     OW70467   6.378   3.864   1.403 -0.1727 -0.5906 -0.1634
22184SOL    HW170468   6.431   3.902   1.334  1.1691  0.2703  1.2851
22184SOL    HW270469   6.336   3.788   1.362  0.7043 -0.2068 -1.8531
22185SOL     OW70470   6.016   5.093   7.308  0.0193 -0.1206  0.5181
22185SOL    HW170471   5.960   5.053   7.375 -1.3031  1.1991  0.2784
22185SOL    HW270472   5.954   5.120   7.239  1.1593 -0.0478 -0.5031
22186SOL     OW70473   4.809   5.490   3.119 -0.2747  0.1343 -0.0408
22186SOL    HW170474   4.890   5.477   3.168  1.6840  1.3038 -2.7646
22186SOL    HW270475   4.740   5.489   3.187  2.0703  0.3634  2.5272
22187SOL     OW70476   9.081   0.977   1.082  0.0089  0.1649  0.0166
22187SOL    HW170477   9.067   0.886   1.108  1.0559 -0.0285 -0.0537
22187SOL    HW270478   9.017   1.026   1.133  0.9203 -0.3775  1.7652
22188SOL     OW70479   3.421   5.173   5.459  0.6077 -0.3853 -0.4083
22188SOL    HW170480   3.471   5.136   5.532  1.6647  1.8765  0.1202
22188SOL    HW270481   3.471   5.149   5.381  0.4585 -1.2915 -0.2346
22189SOL     OW70482   3.897   7.078   7.298  0.5198 -0.3529  0.3818
22189SOL    HW170483   3.854   7.017   7.239 -2.7562  0.9437  1.1630
22189SOL    HW270484   3.947   7.136   7.241 -1.9604  0.4296 -1.1354
22190SOL     OW70485   7.861   1.144   8.337  0.3413 -0.1080 -0.0453
22190SOL    HW170486   7.939   1.193   8.364 -1.4196  1.8473  1.8488
22190SOL    HW270487   7.890   1.053   8.335  2.1311  0.2646  2.9479
22191SOL     OW70488   0.133   1.523   7.280 -0.2896 -0.6682  0.2155
22191SOL    HW170489   0.114   1.561   7.194 -1.4114 -1.4354  0.1041
22191SOL    HW270490   0.052   1.479   7.306 -0.2664  0.2968  2.0906
22192SOL     OW70491   3.939   6.518   3.118  0.2164 -0.1088  0.1878
22192SOL    HW170492   3.974   6.466   3.191 -0.8670  0.8198  1.3969
22192SOL    HW270493   3.848   6.533   3.141  0.2130  1.3719 -0.6880
22193SOL     OW70494   7.320   2.051   4.402  0.1664  0.1431  0.1011
22193SOL    HW170495   7.362   1.991   4.341  1.1469 -1.1298  1.9249
22193SOL    HW270496   7.385   2.119   4.418  0.7360 -0.6473  1.2616
22194SOL     OW70497   4.284   7.022   1.060 -0.0731 -0.1160  0.5958
22194SOL    HW170498   4.296   6.936   1.019 -1.8199 -0.2952  0.3872
22194SOL    HW270499   4.364   7.071   1.038  1.0721 -1.7576  0.9593
22195SOL     OW70500   9.357   1.101   1.180 -0.5103  0.2791  0.2969
22195SOL    HW170501   9.390   1.157   1.110 -1.7723 -0.0910 -0.6351
22195SOL    HW270502   9.275   1.065   1.146  0.3825 -2.4159  0.7137
22196SOL     OW70503   0.517   6.887   9.541  0.2252  0.3977 -0.7129
22196SOL    HW170504   0.581   6.938   9.491 -0.5200  0.2758 -1.8110
22196SOL    HW270505   0.564   6.807   9.564  1.5391  1.6613  1.3536
22197SOL     OW70506   3.968   1.573   6.224 -0.0418  0.3537 -0.0821
22197SOL    HW170507   3.971   1.641   6.156  0.7174 -1.2580 -1.7685
22197SOL    HW270508   3.896   1.516   6.197  0.5101 -0.5126  0.2289
22198SOL     OW70509   5.645   9.773   1.176  0.0320  0.4026  0.0172
22198SOL    HW170510   5.555   9.804   1.185 -1.1360 -2.3027 -1.0731
22198SOL    HW270511   5.657   9.713   1.250  0.0173 -1.0698 -1.1114
22199SOL     OW70512   3.337   8.428   9.793 -0.2466  0.7426  0.5218
22199SOL    HW170513   3.253   8.409   9.835 -0.1522  0.9905  0.8252
22199SOL    HW270514   3.399   8.371   9.838 -0.0538  1.3827  1.0795
22200SOL     OW70515   3.181   6.396   4.409 -0.3110  0.1809 -0.1647
22200SOL    HW170516   3.129   6.366   4.483  0.5463  0.4690  0.5674
22200SOL    HW270517   3.254   6.334   4.404  0.6911  1.2720  0.4643
22201SOL     OW70518   8.593   5.412   5.230 -0.0782  0.1100  0.0666
22201SOL    HW170519   8.538   5.461   5.290 -0.7624 -0.4009 -0.1238
22201SOL    HW270520   8.614   5.473   5.160 -1.7054 -0.1095 -0.6532
22202SOL     OW70521   0.269   9.233   9.690  0.2961 -0.0383  0.5708
22202SOL    HW170522   0.315   9.177   9.626  0.2253  1.3272 -0.7300
22202SOL    HW270523   0.306   9.207   9.774  0.6381 -1.6712 -0.0263
22203SOL     OW70524   9.067   2.661   2.053 -0.1727 -0.1901 -0.2900
22203SOL    HW170525   9.039   2.573   2.030 -0.6899 -0.2665  0.5731
22203SOL    HW270526   9.023   2.719   1.991  0.8261 -0.5846 -1.4007
22204SOL     OW70527   0.589   6.798   8.580  0.4735 -0.3551 -0.0407
22204SOL    HW170528   0.524   6.867   8.566  0.2885 -0.5127  0.0320
22204SOL    HW270529   0.611   6.804   8.673  0.6912 -0.1887 -0.1055
22205SOL     OW70530   0.156   0.371   2.358 -0.3541  0.3336 -0.8249
22205SOL    HW170531   0.243   0.369   2.397 -0.1675  2.9384 -0.9022
22205SOL    HW270532   0.106   0.306   2.407  1.1143  0.1692  0.5415
22206SOL     OW70533   0.938   2.718   8.545 -0.3472  0.6599 -0.5289
22206SOL    HW170534   0.882   2.648   8.510  1.1927 -0.4729 -0.8443
22206SOL    HW270535   0.926   2.714   8.639  0.2352 -0.5456 -0.4793
22207SOL     OW70536   3.995   8.023   0.509  0.1393 -0.4033  0.0536
22207SOL    HW170537   3.939   8.068   0.573  3.3878  1.9460  1.5116
22207SOL    HW270538   4.010   8.088   0.441 -0.6835 -1.8199 -1.5504
22208SOL     OW70539   4.340   8.089   6.582 -0.4888 -0.7587  0.2414
22208SOL    HW170540   4.341   8.138   6.665 -2.0591 -1.5465  0.7703
22208SOL    HW270541   4.423   8.111   6.540 -1.2940  2.7766  0.1750
22209SOL     OW70542   1.698   6.549   2.048  0.4369  0.4245  0.1263
22209SOL    HW170543   1.753   6.567   2.125  0.0211  1.8067  0.1256
22209SOL    HW270544   1.753   6.494   1.992  0.4858 -1.2071  1.7024
22210SOL     OW70545   1.607   1.455   5.726 -0.2174 -0.2414  0.6984
22210SOL    HW170546   1.521   1.442   5.685 -0.6259  1.1505  1.0655
22210SOL    HW270547   1.644   1.531   5.681  1.7308 -2.0186 -0.8565
22211SOL     OW70548   9.110   2.069   2.970 -0.6617  0.3380  0.5039
22211SOL    HW170549   9.076   2.037   2.886  0.0985 -0.3934  0.4661
22211SOL    HW270550   9.201   2.039   2.972 -0.0869  1.9922  0.7400
22212SOL     OW70551   0.104   5.585   5.485 -0.0619  1.1166 -0.0622
22212SOL    HW170552   0.141   5.498   5.472 -2.9741 -0.3470  0.7229
22212SOL    HW270553   0.151   5.620   5.561  3.1515  1.5615 -2.0548
22213SOL     OW70554   3.252   7.322   6.049  0.2101  0.1514  0.4931
22213SOL    HW170555   3.210   7.296   5.967 -0.2290  0.1883  0.7032
22213SOL    HW270556   3.203   7.400   6.077  0.0080 -0.1737  1.0635
22214SOL     OW70557   1.321   6.909   5.990  0.1677 -0.3481 -0.7258
22214SOL    HW170558   1.238   6.877   5.953 -0.8803 -0.1738  1.3253
22214SOL    HW270559   1.308   7.003   6.000  0.6042 -0.3201 -0.4084
22215SOL     OW70560   1.757   9.331   7.351  0.2127 -0.6459 -0.3956
22215SOL    HW170561   1.696   9.393   7.312  0.3983 -0.0458  0.2620
22215SOL    HW270562   1.729   9.324   7.443  1.5112  0.1311  0.0822
22216SOL     OW70563   2.975   7.658   2.139 -0.1771  0.3948 -0.0324
22216SOL    HW170564   3.051   7.699   2.181 -0.0367 -0.6957  0.8190
22216SOL    HW270565   3.011   7.594   2.078 -0.3700 -0.9397  1.1930
22217SOL     OW70566   0.869   4.937   2.800  0.7668 -0.0176 -0.0194
22217SOL    HW170567   0.924   4.987   2.738  0.9955  0.1444  0.3090
22217SOL    HW270568   0.785   4.982   2.798  0.6778 -0.2016 -0.4483
22218SOL     OW70569   8.759   6.821   6.604 -0.3115 -0.0075 -0.2728
22218SOL    HW170570   8.780   6.849   6.694  1.4958 -1.4503 -0.1802
22218SOL    HW270571   8.776   6.899   6.551 -0.4391  0.5859  0.5241
22219SOL     OW70572   2.904   1.741   6.807  0.5412  0.3462  0.2681
22219SOL    HW170573   2.830   1.729   6.747  1.6859  2.0550 -1.6234
22219SOL    HW270574   2.865   1.770   6.889 -0.9573 -0.0459 -0.2833
22220SOL     OW70575   3.259   1.446   0.890  0.9439  0.0501  0.1011
22220SOL    HW170576   3.281   1.539   0.880 -0.4445  0.2498 -1.5627
22220SOL    HW270577   3.180   1.434   0.838 -2.2399 -0.8696  4.5319
22221SOL     OW70578   0.746   7.459   0.099  0.1378 -0.4018  0.7934
22221SOL    HW170579   0.801   7.427   0.170 -1.3430 -1.9546  1.2955
22221SOL    HW270580   0.779   7.416   0.021  0.6127 -0.0986  0.8211
22222SOL     OW70581   5.643   2.555   4.786 -0.2931  0.0274  0.1629
22222SOL    HW170582   5.644   2.538   4.880  1.6430 -0.4043  0.1028
22222SOL    HW270583   5.552   2.578   4.767 -0.4582  1.5499  2.3882
22223SOL     OW70584   6.472   9.293   3.343  0.2016  0.1997  0.1427
22223SOL    HW170585   6.563   9.266   3.347  0.6107  0.5425 -3.6803
22223SOL    HW270586   6.475   9.388   3.330 -0.6829  0.1465 -0.5562
22224SOL     OW70587   5.864   3.192   8.704 -0.1034  0.2799  0.5105
22224SOL    HW170588   5.852   3.262   8.640 -0.2782 -0.0574  0.1686
22224SOL    HW270589   5.777   3.156   8.718 -0.2498  1.0826  1.8047
22225SOL     OW70590   2.378   7.898   0.282 -0.4248 -0.0535  0.0526
22225SOL    HW170591   2.286   7.889   0.258  0.0513  0.0274 -2.0112
22225SOL    HW270592   2.426   7.872   0.204  1.2540  2.8275 -0.0415
22226SOL     OW70593   7.669   9.512   3.819  0.2878  0.4579  0.6691
22226SOL    HW170594   7.614   9.547   3.890 -2.4029  0.5615 -1.2961
22226SOL    HW270595   7.703   9.590   3.775 -1.7608  0.5980 -0.7951
22227SOL     OW70596   3.557   1.150  10.176  0.1288 -0.3615  0.3998
22227SOL    HW170597   3.565   1.207  10.253 -0.8810 -0.7701  0.8199
22227SOL    HW270598   3.497   1.081  10.204 -0.7866 -0.1537 -0.9713
22228SOL     OW70599   2.008   9.017   0.081  0.2197  0.2167  0.0532
22228SOL    HW170600   1.926   9.044   0.124  0.4491  0.6032  0.2500
22228SOL    HW270601   2.069   9.088   0.098  0.6757 -0.1831  0.1180
22229SOL     OW70602   0.323   9.463   6.145  0.4043 -0.3348  0.1177
22229SOL    HW170603   0.391   9.403   6.116  1.3546  0.0773  1.3769
22229SOL    HW270604   0.257   9.460   6.076  1.1335 -1.6576 -0.5622
22230SOL     OW70605   3.869   6.038   9.152 -0.1215 -0.6843 -0.3196
22230SOL    HW170606   3.813   6.004   9.221 -0.7180 -0.5649 -0.7316
22230SOL    HW270607   3.812   6.098   9.103  0.2423 -0.8925 -1.0098
22231SOL     OW70608   4.882   2.324   5.189 -0.0410  0.3027 -0.0589
22231SOL    HW170609   4.966   2.351   5.152 -1.1099  1.7065 -1.6349
22231SOL    HW270610   4.849   2.258   5.128 -0.0399 -0.3375  0.6243
22232SOL     OW70611   1.388   7.859   0.698  0.9358  0.4902  0.1998
22232SOL    HW170612   1.350   7.815   0.623  1.5208 -1.4258  0.9712
22232SOL    HW270613   1.321   7.921   0.727 -0.5588 -0.9716 -0.0203
22233SOL     OW70614   8.227   3.830   3.035 -0.4109 -0.3525 -0.0623
22233SOL    HW170615   8.252   3.882   3.112  1.1634  0.7353 -1.2335
22233SOL    HW270616   8.132   3.840   3.029 -0.5920 -0.5706  1.7868
22234SOL     OW70617   0.046   8.762   8.076  0.0244  0.5695 -0.1256
22234SOL    HW170618   0.117   8.781   8.014 -0.1998 -1.0843 -0.9424
22234SOL    HW270619  -0.019   8.831   8.061  0.6477  1.0510 -0.6512
22235SOL     OW70620   7.271   1.801   5.857 -0.4745  0.6053 -0.0868
22235SOL    HW170621   7.225   1.722   5.827 -3.3268  2.0856 -0.0045
22235SOL    HW270622   7.330   1.823   5.785  0.1859 -1.3955 -0.2245
22236SOL     OW70623   5.725   6.061   2.134  0.5044 -0.6029  0.4584
22236SOL    HW170624   5.798   6.078   2.075 -1.6844  1.3208 -1.8909
22236SOL    HW270625   5.698   5.971   2.113  1.5387 -1.0017  0.7223
22237SOL     OW70626   7.881   2.391   9.698 -0.0489  0.2384  0.2962
22237SOL    HW170627   7.850   2.302   9.715  0.1457  0.0964 -0.0568
22237SOL    HW270628   7.822   2.447   9.747 -1.5575  0.0531 -1.2117
22238SOL     OW70629   2.990  10.207   2.369  0.2149 -0.4565 -0.1257
22238SOL    HW170630   3.026  10.296   2.375  1.3218 -0.9273  0.5723
22238SOL    HW270631   3.050  10.161   2.311 -0.7489 -0.5892 -1.0598
22239SOL     OW70632   3.584   2.468   8.426 -0.0717  0.0750  0.1482
22239SOL    HW170633   3.647   2.441   8.493 -0.4211  0.4707  0.6436
22239SOL    HW270634   3.501   2.475   8.472 -0.5727 -0.7945 -0.5719
22240SOL     OW70635   5.136   2.535   6.733 -0.4351 -0.1817  0.0773
22240SOL    HW170636   5.194   2.461   6.750  0.6692  0.5822 -0.2614
22240SOL    HW270637   5.072   2.531   6.804  0.6569 -0.4341  1.0883
22241SOL     OW70638   2.459   0.499   4.403  0.4374 -0.3712  0.0131
22241SOL    HW170639   2.451   0.472   4.495  0.9217 -1.0710 -0.1369
22241SOL    HW270640   2.387   0.454   4.358 -0.1321  0.4051  0.1333
22242SOL     OW70641   1.606   9.998   1.519 -0.0653  0.3159 -0.0446
22242SOL    HW170642   1.581   9.973   1.608  1.3481  1.8245  0.8489
22242SOL    HW270643   1.572  10.087   1.508 -1.5280 -0.3776 -1.6289
22243SOL     OW70644   1.738   5.425   2.111  0.7445 -0.5558  0.6496
22243SOL    HW170645   1.789   5.358   2.157 -1.3439 -2.1865  0.7167
22243SOL    HW270646   1.755   5.506   2.160  0.9091 -1.6411  2.4878
22244SOL     OW70647   5.749   2.584   7.608  0.3771 -0.9004  0.7075
22244SOL    HW170648   5.736   2.634   7.527  1.6287 -1.3429  0.2018
22244SOL    HW270649   5.789   2.502   7.579 -1.3144 -2.0648  1.5553
22245SOL     OW70650   4.620   5.390   7.023  0.1326  0.7661 -0.2714
22245SOL    HW170651   4.692   5.393   6.960  1.1288 -1.7629  0.5919
22245SOL    HW270652   4.548   5.350   6.976  0.5486 -0.1828 -0.1226
22246SOL     OW70653   9.923   4.669   2.138 -0.8596 -0.2600  0.3214
22246SOL    HW170654   9.830   4.684   2.151 -0.9253  0.2871 -0.6780
22246SOL    HW270655   9.966   4.740   2.187 -1.0620  1.0062 -1.2551
22247SOL     OW70656   3.105   0.646   1.027  0.1236 -0.2962  0.2415
22247SOL    HW170657   3.045   0.693   0.969  0.4954  0.3201  0.3511
22247SOL    HW270658   3.192   0.659   0.988  0.4567  0.6394  1.2477
22248SOL     OW70659   5.979   2.953   9.581 -0.0351  0.0681  0.0769
22248SOL    HW170660   5.892   2.986   9.600 -0.7174 -1.3582 -0.4281
22248SOL    HW270661   5.964   2.869   9.538  1.6090 -0.8559  1.2025
22249SOL     OW70662   2.766   2.169   8.358 -0.8167  0.1398  0.4733
22249SOL    HW170663   2.704   2.097   8.360 -2.1772  1.2530 -0.3616
22249SOL    HW270664   2.716   2.244   8.328  1.1047  0.9169 -1.0310
22250SOL     OW70665   5.108   8.565   1.964 -0.6682  0.0877  0.2319
22250SOL    HW170666   5.064   8.522   1.890 -1.1764  0.9715  0.0106
22250SOL    HW270667   5.201   8.560   1.942 -0.8898  2.1400 -1.5274
22251SOL     OW70668   6.739   5.204   2.908  0.3839 -0.2084 -0.3632
22251SOL    HW170669   6.718   5.110   2.909  2.4682 -0.7492  1.6970
22251SOL    HW270670   6.664   5.245   2.951 -0.8370 -0.8006 -1.8320
22252SOL     OW70671   3.741   9.345   4.583 -0.3438 -0.6511 -0.4243
22252SOL    HW170672   3.774   9.423   4.627 -0.4914 -1.4607  1.1879
22252SOL    HW270673   3.774   9.353   4.493  3.5178 -0.8915  0.7569
22253SOL     OW70674   3.385   9.312   3.747  0.0802 -0.6576 -0.0569
22253SOL    HW170675   3.326   9.340   3.677  1.2056  3.6620  0.3944
22253SOL    HW270676   3.328   9.296   3.822 -0.7944  1.5941 -0.1533
22254SOL     OW70677   3.619   0.490   4.613 -0.3031 -0.0146 -0.5719
22254SOL    HW170678   3.711   0.505   4.639  0.1628 -0.9044 -1.6442
22254SOL    HW270679   3.591   0.575   4.578 -0.2328  0.5615  0.7019
22255SOL     OW70680   1.978   3.793   6.867  0.1428  0.1529  0.1836
22255SOL    HW170681   1.982   3.883   6.899 -1.9280 -0.0486  1.2042
22255SOL    HW270682   2.049   3.787   6.803  0.5382  2.3990  0.3167
22256SOL     OW70683   8.823  10.190  10.119  0.2896 -0.1914 -0.7899
22256SOL    HW170684   8.917  10.196  10.105  0.4583  0.2754  0.4460
22256SOL    HW270685   8.785  10.242  10.047  1.0338  0.7268 -0.5388
22257SOL     OW70686   8.422   5.515   1.305  0.5591  0.4299 -0.1183
22257SOL    HW170687   8.373   5.447   1.352  1.2685 -0.2398 -0.3355
22257SOL    HW270688   8.376   5.525   1.222  0.8909 -0.3302 -0.3976
22258SOL     OW70689   8.480   9.967   9.938 -0.3645  0.1196 -0.0651
22258SOL    HW170690   8.515   9.970  10.027  1.2020 -0.4035 -0.6203
22258SOL    HW270691   8.421   9.893   9.937 -1.1497  0.7149  0.7799
22259SOL     OW70692   0.052   1.734   0.551  0.3917  0.2889 -0.0663
22259SOL    HW170693   0.072   1.765   0.639  1.8794 -0.5809 -0.0576
22259SOL    HW270694   0.128   1.761   0.499  0.1829 -0.4425 -0.7626
22260SOL     OW70695   9.544   0.534   5.679 -0.2203  0.1738  0.1993
22260SOL    HW170696   9.580   0.517   5.766 -1.1157  2.8421  1.2096
22260SOL    HW270697   9.554   0.452   5.632  0.8780 -1.1787  2.6153
22261SOL     OW70698   9.482   5.682   2.399  0.1011  0.2294  0.0628
22261SOL    HW170699   9.539   5.705   2.325  0.3609 -1.8937 -0.4550
22261SOL    HW270700   9.402   5.648   2.358  0.1998 -0.8608  0.7349
22262SOL     OW70701   2.290   2.606   3.179 -0.2087  0.2461  0.3466
22262SOL    HW170702   2.372   2.638   3.216 -0.4236  1.7133 -0.3612
22262SOL    HW270703   2.317   2.551   3.105  0.1690 -1.4109  1.6548
22263SOL     OW70704   4.373   8.590   7.557 -0.3162 -0.2166  0.2074
22263SOL    HW170705   4.320   8.668   7.539 -0.6163 -0.3083  0.6718
22263SOL    HW270706   4.447   8.597   7.497 -0.1086  0.6543  0.5512
22264SOL     OW70707   4.240   0.704   4.269 -0.1740 -0.0588  0.0619
22264SOL    HW170708   4.219   0.771   4.334 -0.6914 -1.0750  0.9719
22264SOL    HW270709   4.336   0.701   4.268 -0.1505  0.5438  0.1552
22265SOL     OW70710   8.200   0.714   4.813 -0.3176 -0.4001  0.5899
22265SOL    HW170711   8.123   0.752   4.854 -0.4480 -0.5008  0.4402
22265SOL    HW270712   8.245   0.788   4.773 -0.5994 -0.4080  0.2545
22266SOL     OW70713   5.747   0.668   3.098 -0.8772  0.2675  0.1657
22266SOL    HW170714   5.689   0.739   3.073 -2.1700 -0.0547  2.0092
22266SOL    HW270715   5.776   0.691   3.187 -1.0161 -1.2810  0.6504
22267SOL     OW70716   7.851   2.185   2.551  0.5395  0.4793 -0.7156
22267SOL    HW170717   7.916   2.243   2.590 -1.1167  0.1870  2.8476
22267SOL    HW270718   7.794   2.242   2.500  2.2983  1.0142 -2.1777
22268SOL     OW70719   8.579   5.644   6.441 -0.4276 -0.5061 -0.2628
22268SOL    HW170720   8.651   5.692   6.400  0.1142 -1.2360 -0.1738
22268SOL    HW270721   8.551   5.582   6.375 -0.9708 -0.2373 -0.2891
22269SOL     OW70722   7.831   7.283   4.938  0.2600  0.0535 -0.1860
22269SOL    HW170723   7.784   7.211   4.981  1.1088 -0.2281  0.2922
22269SOL    HW270724   7.833   7.353   5.004 -2.0651  1.2048 -1.2311
22270SOL     OW70725   0.748   1.933   5.931  0.5610 -0.3522  0.0110
22270SOL    HW170726   0.741   1.940   6.026  0.2908  0.4477 -0.0644
22270SOL    HW270727   0.678   1.873   5.906 -0.6331  0.9521  0.1314
22271SOL     OW70728   4.260   5.440   2.777  0.0008  0.2400 -0.4171
22271SOL    HW170729   4.284   5.348   2.768 -0.2203 -0.0452  1.4130
22271SOL    HW270730   4.325   5.487   2.726  1.1993 -0.8385  0.0639
22272SOL     OW70731   4.318   6.133   3.850  0.7096  0.3276 -0.0385
22272SOL    HW170732   4.411   6.113   3.839  0.9231  1.2779 -0.0823
22272SOL    HW270733   4.287   6.153   3.762  0.1366 -1.2474 -0.2164
22273SOL     OW70734   8.839   0.340   4.127 -0.2359 -0.1092  0.1319
22273SOL    HW170735   8.919   0.380   4.161  0.0359 -1.2595  0.8855
22273SOL    HW270736   8.870   0.273   4.065 -0.6689  0.3644 -0.6152
22274SOL     OW70737   4.436   6.808   7.329  0.2705 -0.0174 -0.2757
22274SOL    HW170738   4.408   6.800   7.420  0.7054  0.6465 -0.0766
22274SOL    HW270739   4.501   6.739   7.317  1.4979  0.9648  0.4374
22275SOL     OW70740   1.511   8.219  10.199 -0.5616 -0.4249  0.5815
22275SOL    HW170741   1.550   8.136  10.171 -0.2065  0.2275 -0.9662
22275SOL    HW270742   1.585   8.278  10.213 -0.8622  0.1753 -0.2233
22276SOL     OW70743   3.664   6.590   5.213 -0.1931 -0.4223 -0.3692
22276SOL    HW170744   3.670   6.529   5.286  3.3033  0.1325 -0.0083
22276SOL    HW270745   3.688   6.538   5.136 -1.8113 -0.5090 -0.8592
22277SOL     OW70746   9.404   4.589   5.227 -0.2346 -0.3046  0.6052
22277SOL    HW170747   9.409   4.593   5.132 -0.2634  0.2375  0.6257
22277SOL    HW270748   9.351   4.510   5.244 -1.2693  0.2619  0.1404
22278SOL     OW70749   0.868   2.066   0.043 -0.7317 -0.4787  0.0610
22278SOL    HW170750   0.898   1.980   0.072  0.3637 -0.0444  0.2919
22278SOL    HW270751   0.810   2.096   0.113  0.3700 -0.2494  0.9027
22279SOL     OW70752   2.684   0.109   3.989  0.6453  0.7581  0.1535
22279SOL    HW170753   2.769   0.066   3.980 -0.4404 -1.3111 -0.8544
22279SOL    HW270754   2.627   0.042   4.025 -0.5748  2.1349  0.8794
22280SOL     OW70755   8.029   9.734   1.560  0.2536 -0.0701 -0.2650
22280SOL    HW170756   7.961   9.707   1.623 -3.0859 -0.3563 -3.6217
22280SOL    HW270757   8.093   9.663   1.562  0.2828 -0.0657  2.6837
22281SOL     OW70758   2.983   2.823   2.835 -0.0695  0.4047  0.1552
22281SOL    HW170759   2.890   2.835   2.851 -0.0795  0.2151  0.2345
22281SOL    HW270760   2.996   2.856   2.746 -0.1656  0.6674  0.2366
22282SOL     OW70761   6.293   5.764   0.318 -0.0723  0.5066  0.8280
22282SOL    HW170762   6.284   5.853   0.352  0.0999  1.0955 -0.6020
22282SOL    HW270763   6.204   5.738   0.297 -0.0075  0.8046  0.1539
22283SOL     OW70764   0.254   7.626   7.855  0.1152 -0.0627  0.0268
22283SOL    HW170765   0.167   7.597   7.826  0.6146 -1.6589  0.0810
22283SOL    HW270766   0.235   7.684   7.929 -0.9011 -0.7632  0.3479
22284SOL     OW70767   9.392   0.929   3.926  0.4035  0.2574 -0.2875
22284SOL    HW170768   9.361   0.846   3.888 -1.7761  0.4796  0.8444
22284SOL    HW270769   9.479   0.908   3.961 -0.4926 -1.8594  0.8670
22285SOL     OW70770   7.760   9.603   1.081  0.3422 -0.0170 -0.3844
22285SOL    HW170771   7.823   9.532   1.097  1.7651  1.4416  0.9330
22285SOL    HW270772   7.795   9.649   1.005  0.8602  0.7359  0.2890
22286SOL     OW70773   4.538   1.102   9.635  0.5282  0.1563  0.2288
22286SOL    HW170774   4.581   1.182   9.665  0.5973  0.5474 -0.8823
22286SOL    HW270775   4.460   1.095   9.691  0.4958  1.0237  0.3078
22287SOL     OW70776   0.964   1.824   0.139  0.2091 -0.1367 -0.4182
22287SOL    HW170777   0.993   1.759   0.202 -1.2916 -0.1671  0.2846
22287SOL    HW270778   0.973   1.781   0.054 -0.1938 -1.0529 -0.0070
22288SOL     OW70779   8.077   9.455   2.717  0.3650 -0.1213 -0.5433
22288SOL    HW170780   8.119   9.436   2.633  0.3226 -1.2981 -0.3143
22288SOL    HW270781   8.084   9.374   2.767  0.6446  0.6426  0.7133
22289SOL     OW70782   9.588   4.992   6.825 -0.0649  0.4349  0.4993
22289SOL    HW170783   9.496   5.007   6.803  0.1704  0.3226 -0.6509
22289SOL    HW270784   9.626   4.958   6.744  0.7042 -0.7685  1.3331
22290SOL     OW70785   8.375   4.901   4.999 -0.0323 -0.2399  0.4063
22290SOL    HW170786   8.449   4.860   5.043  0.1617 -1.0572 -0.6657
22290SOL    HW270787   8.370   4.989   5.039  2.0240  0.1468 -0.0728
22291SOL     OW70788   3.462   7.851   2.828 -0.1203 -0.4502  0.3779
22291SOL    HW170789   3.510   7.858   2.910  0.7318 -3.1904  0.2125
22291SOL    HW270790   3.530   7.848   2.760 -0.8129  2.0556 -0.5540
22292SOL     OW70791  10.036   2.428   0.039 -0.2873 -0.1915 -0.3202
22292SOL    HW170792  10.089   2.436  -0.041 -0.9193 -0.5016 -0.7730
22292SOL    HW270793   9.955   2.475   0.019 -0.6027 -0.5907  0.0048
22293SOL     OW70794   2.622   1.510   3.129  0.1153 -0.3935 -0.4945
22293SOL    HW170795   2.612   1.601   3.101  0.5054  0.2367  1.2782
22293SOL    HW270796   2.713   1.488   3.107  0.1282 -0.2360 -0.6020
22294SOL     OW70797   5.866  10.034   1.960  0.1762  0.7565 -0.2140
22294SOL    HW170798   5.828  10.026   2.047 -0.5135 -1.3515 -0.6607
22294SOL    HW270799   5.814  10.101   1.917  0.8005  2.1488  1.0841
22295SOL     OW70800   1.987   5.390   1.028  0.2913  0.0441  0.3906
22295SOL    HW170801   2.045   5.467   1.033  2.2055 -1.3426  1.0279
22295SOL    HW270802   1.950   5.382   1.116  0.0538  0.2596  0.3107
22296SOL     OW70803   4.630   0.751   2.596  0.1101 -0.1367  0.0482
22296SOL    HW170804   4.606   0.730   2.506  0.4179  0.6293 -0.2191
22296SOL    HW270805   4.646   0.666   2.637 -1.0986 -0.5710 -0.3097
22297SOL     OW70806   1.576   7.276   6.900  0.0541  0.3142 -0.4926
22297SOL    HW170807   1.649   7.254   6.842 -0.2813  1.4982 -1.4026
22297SOL    HW270808   1.568   7.371   6.894  0.4426  0.5930  2.0453
22298SOL     OW70809   5.271   2.195   3.266  0.1944 -0.1326  0.3917
22298SOL    HW170810   5.199   2.181   3.204  1.1545  0.3425 -0.8587
22298SOL    HW270811   5.272   2.115   3.319 -1.8248  0.2310  1.0615
22299SOL     OW70812   2.994   2.679   5.820  0.2267  0.3961 -0.2817
22299SOL    HW170813   3.052   2.628   5.877  0.1376  1.6774  1.0101
22299SOL    HW270814   2.953   2.614   5.763  0.4262 -0.9233  1.0227
22300SOL     OW70815   3.587   3.730   2.567  0.2176  0.4509  0.6000
22300SOL    HW170816   3.636   3.648   2.560  1.2855  1.1828 -1.6080
22300SOL    HW270817   3.505   3.706   2.611  1.1151 -1.4847  1.3152
22301SOL     OW70818   3.618   9.528   0.811  0.1974 -0.0618  0.0217
22301SOL    HW170819   3.609   9.469   0.736 -0.7207 -0.4952  0.4555
22301SOL    HW270820   3.685   9.590   0.784  1.6361 -1.6489 -0.2003
22302SOL     OW70821   5.343  10.166   6.914  0.3619  0.2761 -0.0208
22302SOL    HW170822   5.257  10.149   6.875 -0.8297 -1.5279  3.0689
22302SOL    HW270823   5.333  10.251   6.957 -0.5275 -0.7199  1.8189
22303SOL     OW70824   9.321   9.641   1.064  0.0598  0.3300  0.1735
22303SOL    HW170825   9.282   9.554   1.069 -0.3448  0.4433 -0.8139
22303SOL    HW270826   9.328   9.670   1.155  0.3632 -0.8017  0.5204
22304SOL     OW70827   6.361   1.641   1.199  0.1132  0.2493  0.1559
22304SOL    HW170828   6.318   1.561   1.168  0.4077  0.2357 -0.2208
22304SOL    HW270829   6.383   1.622   1.290  0.5398 -0.2472 -0.0482
22305SOL     OW70830   3.068   0.611   7.586 -0.2587  0.2363 -0.1214
22305SOL    HW170831   3.065   0.622   7.491  0.0999 -0.7550 -0.2621
22305SOL    HW270832   3.115   0.528   7.599  1.9792  1.5993  1.0188
22306SOL     OW70833   3.834   9.776   7.653 -0.4160  0.3609 -0.3698
22306SOL    HW170834   3.805   9.686   7.665 -0.3767  0.1942 -1.4176
22306SOL    HW270835   3.924   9.777   7.686  0.1327 -0.3847 -1.7662
22307SOL     OW70836   9.691   3.898   2.897  0.0846 -0.2494  0.3654
22307SOL    HW170837   9.625   3.939   2.954  1.1948 -0.1670  1.6493
22307SOL    HW270838   9.641   3.848   2.834 -1.2081 -0.1992  1.3162
22308SOL     OW70839   9.327   1.583   4.656 -0.7140  0.0768 -0.4143
22308SOL    HW170840   9.378   1.659   4.629 -1.2997  0.8514  0.6151
22308SOL    HW270841   9.335   1.522   4.583  0.1680  0.9250 -1.0466
22309SOL     OW70842   0.314   6.419   1.900 -0.0825 -0.0360  0.1923
22309SOL    HW170843   0.236   6.459   1.939 -0.1216  0.4069 -0.3263
22309SOL    HW270844   0.318   6.456   1.811  1.6643  1.2812  0.7489
22310SOL     OW70845   9.609   2.426   1.353  0.0447  0.5421 -0.0444
22310SOL    HW170846   9.556   2.425   1.273  1.1843  0.9509 -0.8332
22310SOL    HW270847   9.619   2.333   1.376 -2.9985  0.5101  1.5229
22311SOL     OW70848   7.076   6.953   4.179 -0.1605  0.2227 -0.2537
22311SOL    HW170849   7.088   7.047   4.190 -0.7393  0.2125  0.5378
22311SOL    HW270850   6.988   6.935   4.213  0.7969 -0.9417  1.8456
22312SOL     OW70851   1.308   7.828   5.602 -0.0402  0.0184  0.5364
22312SOL    HW170852   1.346   7.813   5.688 -0.8840  2.4810  1.3972
22312SOL    HW270853   1.367   7.891   5.560 -0.1011 -0.5127 -0.3930
22313SOL     OW70854   5.444   5.333   5.309  0.2433  0.6911 -0.3232
22313SOL    HW170855   5.513   5.269   5.327 -0.7812 -0.3492  0.0994
22313SOL    HW270856   5.447   5.347   5.215  0.8939  0.5045 -0.3334
22314SOL     OW70857   1.160   6.143   0.494 -0.3579 -0.1546 -0.3127
22314SOL    HW170858   1.095   6.185   0.550  1.6723 -0.6028  2.5997
22314SOL    HW270859   1.208   6.215   0.453 -0.6755  0.2205 -0.0220
22315SOL     OW70860   6.032   6.115   1.636 -0.1401  0.0735 -0.4417
22315SOL    HW170861   6.127   6.109   1.630 -0.2850 -1.6816 -1.7972
22315SOL    HW270862   6.011   6.203   1.603  0.9366  0.0712 -1.1903
22316SOL     OW70863   2.247   4.375   0.721  0.4167  0.3099 -0.3645
22316SOL    HW170864   2.211   4.390   0.634  2.2146  2.1866 -0.8973
22316SOL    HW270865   2.293   4.292   0.714 -0.2068  0.0064 -0.9459
22317SOL     OW70866   7.262   6.408   2.153  0.2286 -0.0195 -0.0119
22317SOL    HW170867   7.326   6.469   2.115  0.2718  0.5352  0.9166
22317SOL    HW270868   7.271   6.420   2.248 -2.0089  0.8953  0.1554
22318SOL     OW70869   5.778   4.795   4.870 -0.2571  0.3249 -0.5750
22318SOL    HW170870   5.846   4.734   4.840  1.1786  0.9909  1.0943
22318SOL    HW270871   5.696   4.750   4.852  0.6816 -1.2225 -1.2305
22319SOL     OW70872   1.825   8.044   5.557 -0.7979  0.7137  0.1650
22319SOL    HW170873   1.911   8.041   5.597 -0.8606  1.7766  0.4211
22319SOL    HW270874   1.821   8.129   5.514 -0.7522 -0.3559 -2.1143
22320SOL     OW70875   4.020   9.081   6.098 -0.3782 -0.1348 -0.1722
22320SOL    HW170876   3.941   9.102   6.148 -0.8368 -1.4755 -0.3134
22320SOL    HW270877   4.064   9.166   6.087 -2.5278  0.8907 -1.4033
22321SOL     OW70878   6.510   0.818   1.329  0.4327 -0.2848  0.2513
22321SOL    HW170879   6.599   0.796   1.303  0.9933  2.2921 -0.2006
22321SOL    HW270880   6.519   0.857   1.416  0.1268  2.1759 -0.7401
22322SOL     OW70881   7.959   8.068   1.646  0.4543 -0.0010  0.6141
22322SOL    HW170882   8.015   8.129   1.693  2.2867 -2.3853  1.7489
22322SOL    HW270883   7.893   8.042   1.709 -1.1682  1.7291 -0.2867
22323SOL     OW70884   4.248   6.368   4.068  0.2167  0.2095  0.0802
22323SOL    HW170885   4.167   6.354   4.116 -0.2745 -0.7763 -0.9921
22323SOL    HW270886   4.303   6.292   4.091 -0.0754 -0.3387 -0.9890
22324SOL     OW70887   1.613   1.308   3.739  1.0587  0.6236 -0.2583
22324SOL    HW170888   1.648   1.223   3.766  1.3878  0.9215  0.2634
22324SOL    HW270889   1.622   1.363   3.816  1.0351  1.1928 -0.6594
22325SOL     OW70890   9.111   6.714   9.212 -0.5037 -0.6098 -0.0475
22325SOL    HW170891   9.049   6.783   9.237 -0.9400 -0.4108 -1.5222
22325SOL    HW270892   9.092   6.641   9.271  0.3878  0.7140  1.9605
22326SOL     OW70893   5.700   5.536   2.085  0.4306 -0.9372 -0.1927
22326SOL    HW170894   5.727   5.497   2.002  0.2314 -0.5655 -0.4367
22326SOL    HW270895   5.763   5.504   2.149  0.7467 -1.0109 -0.5402
22327SOL     OW70896   9.015   0.723   7.192  0.4185  0.1386  0.0298
22327SOL    HW170897   9.110   0.730   7.202  0.6226 -0.4951 -1.2916
22327SOL    HW270898   8.994   0.633   7.216  0.3095 -0.0458 -0.7228
22328SOL     OW70899   4.381   1.831   6.819  0.2049  0.7345 -0.0982
22328SOL    HW170900   4.348   1.892   6.753 -0.0344  1.0274  0.2865
22328SOL    HW270901   4.318   1.758   6.816  0.7658  0.2687 -0.9009
22329SOL     OW70902   5.567   1.091   6.590  0.4403 -0.9202  0.2185
22329SOL    HW170903   5.514   1.013   6.607  0.9799 -1.4994 -0.6671
22329SOL    HW270904   5.520   1.138   6.521  1.2610 -1.6686 -0.8952
22330SOL     OW70905   7.411   1.896  10.007 -0.3633 -0.5052  0.3530
22330SOL    HW170906   7.434   1.933   9.922  2.3788  2.3710  2.1210
22330SOL    HW270907   7.442   1.806  10.004  1.1036  0.0048 -1.2226
22331SOL     OW70908   5.451   4.098   3.783 -0.0271 -0.2072  0.1397
22331SOL    HW170909   5.373   4.151   3.766 -0.4646 -0.7095  0.5265
22331SOL    HW270910   5.474   4.118   3.874  0.3284 -0.0219  0.0108
22332SOL     OW70911   0.849   6.113   3.780 -0.3916  0.4712  0.2071
22332SOL    HW170912   0.940   6.118   3.751 -0.4491 -3.8087 -1.3928
22332SOL    HW270913   0.852   6.140   3.872  2.3262  1.2402 -0.0089
22333SOL     OW70914   3.806   7.200   9.976  0.5868 -0.6486  0.2232
22333SOL    HW170915   3.726   7.210   9.925  0.5237  0.0866  0.4499
22333SOL    HW270916   3.805   7.108  10.004  1.8252 -1.8029 -3.0315
22334SOL     OW70917   3.788   7.449   0.417  0.1068 -0.8185 -0.0658
22334SOL    HW170918   3.880   7.436   0.392  0.0727  0.7586 -1.1225
22334SOL    HW270919   3.743   7.472   0.336 -1.1773 -1.2490  0.4951
22335SOL     OW70920   2.878   5.024   0.533  0.3280 -0.0602  0.0937
22335SOL    HW170921   2.843   5.029   0.622 -0.8936 -0.6505 -0.3398
22335SOL    HW270922   2.972   5.007   0.546  0.5403  1.7227  1.2717
22336SOL     OW70923   3.599   3.637   7.982  0.4002 -0.3577  0.2106
22336SOL    HW170924   3.690   3.638   8.010  0.6425  0.2579 -0.5597
22336SOL    HW270925   3.549   3.624   8.063  1.1849 -1.3892  0.5634
22337SOL     OW70926   3.472  10.146   8.684  0.3314 -0.1858 -0.6903
22337SOL    HW170927   3.448  10.233   8.715  1.4574  0.0228 -0.3567
22337SOL    HW270928   3.420  10.085   8.736  1.7338  0.1816  1.2249
22338SOL     OW70929   9.342   6.484   2.424  0.2334  0.0553  0.2199
22338SOL    HW170930   9.400   6.555   2.396 -1.0608  1.3016  0.5965
22338SOL    HW270931   9.286   6.524   2.491 -0.9600 -1.1386 -0.0253
22339SOL     OW70932   1.389   9.402   5.482  0.4209  0.1649  0.5342
22339SOL    HW170933   1.411   9.389   5.390  0.3436  0.6106  0.4503
22339SOL    HW270934   1.364   9.315   5.513  0.1880  0.0597  0.0675
22340SOL     OW70935  10.090   0.802   7.132 -0.2870  0.3442 -0.1528
22340SOL    HW170936  10.049   0.796   7.218  0.4526  0.3928  0.2112
22340SOL    HW270937  10.171   0.850   7.147 -1.1494  2.2652 -1.2519
22341SOL     OW70938   1.476   7.755   9.839 -0.2659  0.2114 -0.0048
22341SOL    HW170939   1.473   7.850   9.853 -0.3682  0.2295 -0.1451
22341SOL    HW270940   1.554   7.741   9.785 -0.9559  0.3612 -1.0666
22342SOL     OW70941   1.003   8.071   7.609  0.0048 -0.0101  0.1045
22342SOL    HW170942   1.066   8.122   7.559 -1.2778  1.3013 -0.2738
22342SOL    HW270943   0.921   8.080   7.561 -0.5244 -1.5360  0.6525
22343SOL     OW70944   0.291   0.774   6.992  0.1675 -0.4636 -0.1717
22343SOL    HW170945   0.331   0.687   6.987  1.3613 -0.1480  2.3428
22343SOL    HW270946   0.295   0.797   7.085  1.3470  2.9345 -0.9140
22344SOL     OW70947   4.110   3.809   2.905 -0.1523  0.4749  0.0947
22344SOL    HW170948   4.100   3.877   2.971  1.9061  0.0910  0.8723
22344SOL    HW270949   4.203   3.812   2.880 -0.3326 -1.0600 -0.9308
22345SOL     OW70950   0.480   8.659   3.592  0.4066  0.5868 -0.3007
22345SOL    HW170951   0.560   8.699   3.557 -0.1704 -0.0215 -2.5138
22345SOL    HW270952   0.485   8.672   3.686  2.5720  1.5403 -0.4956
22346SOL     OW70953   7.917   2.186   9.011 -0.4404 -1.0290 -0.7032
22346SOL    HW170954   7.838   2.237   8.994  0.2703  0.2181 -0.3451
22346SOL    HW270955   7.916   2.171   9.106  1.0477  1.2644 -0.2542
22347SOL     OW70956   7.948   9.320   7.106  0.2106  0.7602  0.0635
22347SOL    HW170957   7.913   9.365   7.029  3.0301  2.3080 -0.4648
22347SOL    HW270958   7.930   9.379   7.179  2.0792  1.8733 -0.3069
22348SOL     OW70959   4.449   2.740   9.146 -0.4120  0.2612 -0.1170
22348SOL    HW170960   4.511   2.764   9.077  2.0749  2.2673  2.5363
22348SOL    HW270961   4.371   2.792   9.128  0.6164  1.6232 -0.8040
22349SOL     OW70962   7.204   8.653  10.133  0.1532 -0.1328 -0.3096
22349SOL    HW170963   7.176   8.596  10.204  1.0505 -0.5381 -0.2779
22349SOL    HW270964   7.264   8.715  10.173  0.6526 -0.3546 -0.7048
22350SOL     OW70965   4.785   9.058   7.657  0.1550 -0.5022  0.3244
22350SOL    HW170966   4.813   9.075   7.747  0.1727  1.3349  0.0063
22350SOL    HW270967   4.858   9.012   7.617  0.0295 -1.6003  1.3157
22351SOL     OW70968   7.329   2.366   9.832 -0.1331  0.7755  0.2421
22351SOL    HW170969   7.408   2.324   9.865  0.0145  0.7154 -0.1900
22351SOL    HW270970   7.257   2.324   9.880  0.0361  0.2510  0.0369
22352SOL     OW70971   6.826   5.677   7.054 -0.0773  0.5975  0.3650
22352SOL    HW170972   6.791   5.728   7.126 -0.1505  1.1944 -0.0861
22352SOL    HW270973   6.863   5.741   6.994 -0.1686  0.1259 -0.2088
22353SOL     OW70974   7.276   9.417   7.716  0.0157  0.2211 -0.2030
22353SOL    HW170975   7.277   9.345   7.652 -1.4221 -0.1851  0.1876
22353SOL    HW270976   7.216   9.481   7.679 -1.3216 -0.2898  0.9692
22354SOL     OW70977   4.667   7.789   4.028 -0.3329 -0.1988  0.3002
22354SOL    HW170978   4.626   7.859   4.079  1.5662  2.4476 -1.4690
22354SOL    HW270979   4.723   7.744   4.091 -0.2553  1.0501  1.1802
22355SOL     OW70980   9.350   7.410   9.780  0.4905  1.3322 -0.0744
22355SOL    HW170981   9.258   7.391   9.800  0.1889  1.1647 -1.5238
22355SOL    HW270982   9.397   7.388   9.861 -0.4904 -0.5129  0.0410
22356SOL     OW70983   5.736   2.588   2.523 -0.9307  0.3716 -0.2818
22356SOL    HW170984   5.725   2.629   2.437 -3.1231  1.5876  0.4794
22356SOL    HW270985   5.649   2.555   2.545 -0.1726 -0.8585  1.0273
22357SOL     OW70986   3.301   3.217   8.029  0.0106  0.0262  0.3717
22357SOL    HW170987   3.312   3.294   7.974 -1.1134  0.2359  0.4044
22357SOL    HW270988   3.352   3.149   7.986 -0.1477  0.4162 -0.4576
22358SOL     OW70989   4.573   1.243   4.939  0.1025 -0.0827  0.5669
22358SOL    HW170990   4.534   1.300   4.872 -0.4873  2.7146  3.0444
22358SOL    HW270991   4.667   1.247   4.922 -0.1046 -0.3800 -0.7456
22359SOL     OW70992   0.638   6.454   3.790 -0.0600 -0.8394 -0.0125
22359SOL    HW170993   0.687   6.520   3.741 -0.4322 -1.5489 -1.3873
22359SOL    HW270994   0.678   6.454   3.877  0.5871  0.4950 -0.2876
22360SOL     OW70995   9.354   9.955   0.520  0.3709 -0.0701  0.1896
22360SOL    HW170996   9.335   9.955   0.614  0.7211  0.4252  0.2654
22360SOL    HW270997   9.427   9.894   0.510 -0.0211 -0.5470  0.1536
22361SOL     OW70998   8.567   9.333   7.488  0.7014 -0.5235 -0.3505
22361SOL    HW170999   8.641   9.392   7.473 -0.3018  0.9098  0.1831
22361SOL    HW271000   8.587   9.256   7.434  2.0669  0.2693 -1.0281
22362SOL     OW71001   6.378   3.329   7.373  0.0720  0.1364 -0.0128
22362SOL    HW171002   6.306   3.392   7.370 -1.1031 -1.1999 -0.8022
22362SOL    HW271003   6.416   3.332   7.285  0.7374  0.5376  0.2790
22363SOL     OW71004   8.612  10.101   9.732  0.1442  0.4242  0.0548
22363SOL    HW171005   8.590  10.022   9.781 -0.4719  0.5910  0.0578
22363SOL    HW271006   8.547  10.165   9.760  0.9402  1.0849  0.4271
22364SOL     OW71007   6.947   5.364   4.426 -0.2339  0.3479  0.4426
22364SOL    HW171008   6.973   5.275   4.447  0.0748  0.8704  2.4299
22364SOL    HW271009   6.886   5.389   4.496 -0.0548  1.8156  0.1128
22365SOL     OW71010   3.075   8.523   9.002  0.1617  0.5439 -0.1035
22365SOL    HW171011   3.025   8.555   9.077  1.4987  1.7693  0.2952
22365SOL    HW271012   3.058   8.587   8.933 -0.9588 -0.5079 -0.8469
22366SOL     OW71013   1.588   1.441   8.381  0.0970  0.1999 -0.2862
22366SOL    HW171014   1.633   1.424   8.464 -0.4046  0.9479  0.1481
22366SOL    HW271015   1.597   1.359   8.333  0.2819 -0.2949  0.5572
22367SOL     OW71016   3.107   1.659   3.727 -0.3346  0.2158  0.4301
22367SOL    HW171017   3.116   1.652   3.632 -1.1983 -2.1845  0.4704
22367SOL    HW271018   3.177   1.604   3.762  0.0192  1.1356  1.2059
22368SOL     OW71019   4.272   0.186   8.351 -0.5092  0.0150  0.1229
22368SOL    HW171020   4.343   0.146   8.300 -0.6532 -1.5167  1.0650
22368SOL    HW271021   4.220   0.233   8.286  0.3280 -0.3849 -0.8693
22369SOL     OW71022   4.324   3.011   8.502 -0.3483 -0.0131  0.0552
22369SOL    HW171023   4.234   3.026   8.531 -0.7889 -1.6844 -0.3770
22369SOL    HW271024   4.329   2.918   8.483  2.1965 -0.5171  2.5292
22370SOL     OW71025   6.759   3.250   7.012 -0.3204 -0.8152 -0.2396
22370SOL    HW171026   6.812   3.271   7.089  0.0347 -1.0293 -0.4188
22370SOL    HW271027   6.669   3.260   7.041 -0.1787 -0.1952  0.0017
22371SOL     OW71028   3.091   4.735   3.757  0.3729 -0.7063 -0.2962
22371SOL    HW171029   3.122   4.826   3.755  0.6364 -0.8028 -1.2438
22371SOL    HW271030   3.094   4.707   3.665 -3.0991 -0.5303 -0.6038
22372SOL     OW71031   6.078   8.831   3.848 -0.4603  0.2534 -0.1077
22372SOL    HW171032   6.098   8.912   3.895 -1.5649 -0.2781  1.3677
22372SOL    HW271033   6.151   8.819   3.788  0.7154  1.2863  1.0721
22373SOL     OW71034   6.609   1.179   9.358 -0.4157  0.5074  0.3394
22373SOL    HW171035   6.667   1.209   9.287  0.7850  2.1899  1.9315
22373SOL    HW271036   6.642   1.224   9.436 -1.7677 -1.1789  1.9598
22374SOL     OW71037   6.236   7.720   9.072  0.2366  0.2792  0.1360
22374SOL    HW171038   6.160   7.773   9.097 -0.3960 -0.7863  0.5073
22374SOL    HW271039   6.199   7.641   9.033  1.1771  0.2256 -0.7007
22375SOL     OW71040   7.398   7.498   5.142  0.6594 -0.5740 -0.1488
22375SOL    HW171041   7.378   7.581   5.186 -0.2430 -1.2123  0.6670
22375SOL    HW271042   7.484   7.474   5.176  0.8712 -0.0508 -0.2897
22376SOL     OW71043   1.401   6.896   9.815 -0.4905 -0.5236 -0.2849
22376SOL    HW171044   1.486   6.930   9.841 -0.9153  1.0249 -0.8144
22376SOL    HW271045   1.420   6.838   9.741  0.1477 -0.5311 -0.1160
22377SOL     OW71046   9.222   7.163   0.492  0.4489  0.0841  0.8995
22377SOL    HW171047   9.282   7.148   0.419 -0.5550 -0.3292  0.1479
22377SOL    HW271048   9.173   7.081   0.499 -1.3354  1.0610  0.2815
22378SOL     OW71049   9.497   7.919   4.716 -0.1376 -0.5493  0.2635
22378SOL    HW171050   9.476   7.898   4.625 -0.8270 -0.4242  0.3916
22378SOL    HW271051   9.420   7.966   4.749  1.5339  2.8210 -0.1855
22379SOL     OW71052   4.898   0.061   6.683  0.0881  0.3370  0.3662
22379SOL    HW171053   4.974   0.116   6.701  0.4405 -0.3018  0.8414
22379SOL    HW271054   4.835   0.120   6.642  1.2412  0.6392 -1.0510
22380SOL     OW71055   9.654   9.833   5.114 -0.4754  0.2217 -0.3346
22380SOL    HW171056   9.723   9.785   5.161  0.0934  0.1588 -1.2102
22380SOL    HW271057   9.649   9.791   5.029 -1.6647  0.1850 -0.2620
22381SOL     OW71058   9.744   3.496   5.876 -0.8022 -0.2471  0.4537
22381SOL    HW171059   9.735   3.458   5.788 -0.8489 -0.5960  0.6074
22381SOL    HW271060   9.698   3.580   5.871  0.0882  0.2161 -0.1504
22382SOL     OW71061   2.695   4.573   4.993  0.5342 -0.2004  0.0294
22382SOL    HW171062   2.790   4.583   4.985  0.7062 -0.9711  0.9247
22382SOL    HW271063   2.681   4.554   5.086 -0.6128  1.0418  0.1251
22383SOL     OW71064   6.080   9.065   0.868 -0.2120 -0.1372  0.3862
22383SOL    HW171065   6.058   8.987   0.816  0.8581  0.1450 -0.5440
22383SOL    HW271066   6.023   9.134   0.833 -0.1532 -0.1691  0.2269
22384SOL     OW71067   7.273   4.392   6.850  0.0929  0.6352 -0.0552
22384SOL    HW171068   7.367   4.386   6.833  0.0819 -1.4837  0.3319
22384SOL    HW271069   7.233   4.397   6.763  0.5540  1.5237 -0.2217
22385SOL     OW71070   4.701   2.569   4.047 -0.1065 -0.9074  0.1813
22385SOL    HW171071   4.705   2.585   4.142 -0.4804  2.1620 -0.2013
22385SOL    HW271072   4.609   2.546   4.031 -0.5490  0.5937  0.3783
22386SOL     OW71073   8.982   9.192   2.363 -0.8142 -0.2916  0.0024
22386SOL    HW171074   8.890   9.171   2.384 -0.8440 -0.6447 -0.4615
22386SOL    HW271075   8.987   9.182   2.268 -0.9327  2.2986 -0.3450
22387SOL     OW71076   1.780   5.637   6.940 -0.6177  0.6319  0.3848
22387SOL    HW171077   1.750   5.570   6.879 -0.9242 -0.0853  1.3060
22387SOL    HW271078   1.822   5.588   7.010 -1.1326  1.3886  1.2364
22388SOL     OW71079   6.710   5.237   0.848 -0.3992 -0.2907  0.2298
22388SOL    HW171080   6.714   5.268   0.758  0.9354 -0.2092  0.3059
22388SOL    HW271081   6.626   5.271   0.881 -0.7471 -0.0495 -0.8722
22389SOL     OW71082   0.303   0.014   0.881  0.0966  0.0702 -0.7250
22389SOL    HW171083   0.273   0.067   0.807 -0.3765  0.2676 -0.3924
22389SOL    HW271084   0.392  -0.014   0.856  0.7893  1.8985 -0.4391
22390SOL     OW71085   3.032   8.916   0.605  0.5970  0.0730  0.1493
22390SOL    HW171086   3.094   8.968   0.657  0.6708  1.3111 -1.1138
22390SOL    HW271087   3.069   8.828   0.607 -0.2827 -0.3622  3.5296
22391SOL     OW71088   3.022   1.476   4.369  0.7600 -0.0403  0.2840
22391SOL    HW171089   2.971   1.509   4.444 -0.5204 -2.4018  0.5438
22391SOL    HW271090   3.111   1.466   4.404  0.0399 -1.7819  1.7822
22392SOL     OW71091   5.099   4.627   3.697 -0.3035  0.4093 -0.4456
22392SOL    HW171092   5.046   4.552   3.670 -2.1426  1.5216 -0.1269
22392SOL    HW271093   5.082   4.637   3.790  0.7508  0.6014 -0.2638
22393SOL     OW71094   8.193   4.342   9.984  0.6838 -1.0079  0.7206
22393SOL    HW171095   8.241   4.423  10.001 -0.7324  0.0047  0.1077
22393SOL    HW271096   8.247   4.294   9.922  0.1604  0.9250 -1.3624
22394SOL     OW71097   7.003   7.006   9.605 -0.2698  0.1152  0.6120
22394SOL    HW171098   7.017   6.918   9.639 -0.3470 -0.0880  0.1199
22394SOL    HW271099   7.049   7.063   9.667  1.3541 -0.4029 -0.0521
22395SOL     OW71100   6.791   6.264   8.796 -0.5087 -0.7300  0.7728
22395SOL    HW171101   6.702   6.279   8.827 -1.3396 -2.8065 -0.4193
22395SOL    HW271102   6.787   6.282   8.702  0.8124  0.8774  0.9632
22396SOL     OW71103   2.441   4.905   9.235 -0.0478 -0.5065 -0.2914
22396SOL    HW171104   2.382   4.964   9.188 -1.2832 -1.1413  0.4156
22396SOL    HW271105   2.515   4.960   9.259 -1.8011  1.1710  1.6111
22397SOL     OW71106   0.413   7.388   7.538 -0.1101  0.0441 -0.3352
22397SOL    HW171107   0.473   7.402   7.612 -0.2512 -0.8040 -0.0494
22397SOL    HW271108   0.463   7.333   7.477  0.2095  1.1962 -1.1452
22398SOL     OW71109   5.977   3.098   0.189 -0.0258  0.3765 -0.0639
22398SOL    HW171110   6.033   3.041   0.242 -0.8240 -1.4654 -1.1038
22398SOL    HW271111   5.889   3.086   0.225 -0.4999 -0.5472 -1.4685
22399SOL     OW71112   0.814   2.600   4.679 -0.1189 -0.3743 -0.3363
22399SOL    HW171113   0.732   2.650   4.685  0.6898  0.8847  1.0595
22399SOL    HW271114   0.800   2.524   4.737 -0.7177 -0.8188 -1.0559
22400SOL     OW71115   6.077   6.561   9.102 -0.0955  0.2070 -0.0051
22400SOL    HW171116   6.114   6.636   9.147  0.4227 -0.5324  0.8368
22400SOL    HW271117   6.021   6.518   9.167  0.3653 -0.6574 -0.1573
22401SOL     OW71118   5.832   7.616   4.999 -0.0628  0.3653  0.0160
22401SOL    HW171119   5.746   7.614   5.042 -1.3539 -1.1197 -2.4363
22401SOL    HW271120   5.882   7.547   5.043 -0.3359  0.7580  0.9791
22402SOL     OW71121   4.876   6.717   1.562 -0.3274  0.5161 -0.0166
22402SOL    HW171122   4.795   6.677   1.592 -0.9026  1.1009 -0.7375
22402SOL    HW271123   4.851   6.807   1.539  0.7194  0.9963  0.6348
22403SOL     OW71124   3.115   2.555   0.521  0.1219 -0.6451  0.3056
22403SOL    HW171125   3.082   2.465   0.517 -1.1764 -0.1566 -0.3616
22403SOL    HW271126   3.201   2.546   0.563 -0.4045 -2.0698  1.1809
22404SOL     OW71127   6.951   6.422   1.084 -0.4879 -0.4427  0.1754
22404SOL    HW171128   6.919   6.501   1.127  2.6737  0.8975  0.3848
22404SOL    HW271129   6.985   6.453   1.000  0.7467 -1.5634  0.2319
22405SOL     OW71130   8.351   9.157   9.766  0.7756 -0.4358 -0.7123
22405SOL    HW171131   8.366   9.249   9.789  0.0875 -0.6169  0.5549
22405SOL    HW271132   8.365   9.109   9.848 -1.2385 -1.1937 -0.7636
22406SOL     OW71133   9.523   9.888   3.882 -0.2087  0.4322 -0.3481
22406SOL    HW171134   9.576   9.956   3.924 -0.4680  0.8795 -0.7320
22406SOL    HW271135   9.481   9.842   3.954  0.2113  0.4815 -0.0706
22407SOL     OW71136   8.689   1.531   8.775  0.4533  0.2626  0.6254
22407SOL    HW171137   8.633   1.455   8.788  0.9711 -0.0177  1.3216
22407SOL    HW271138   8.774   1.505   8.811  0.8908  0.8560  0.0581
22408SOL     OW71139   3.544   6.120   2.982 -0.2354  0.2367 -0.0679
22408SOL    HW171140   3.586   6.105   2.897 -0.9545 -0.2503 -0.3570
22408SOL    HW271141   3.450   6.112   2.963 -0.4627  1.2070  0.5670
22409SOL     OW71142   7.670   4.066   6.835 -0.4384 -0.0071 -0.1256
22409SOL    HW171143   7.615   4.013   6.893  0.9234 -0.0177  1.2410
22409SOL    HW271144   7.644   4.156   6.853  0.6602  0.0709  1.3691
22410SOL     OW71145   2.503   0.371   4.119  0.3702  0.5488  0.0068
22410SOL    HW171146   2.466   0.318   4.190  1.1777 -1.3578 -0.9051
22410SOL    HW271147   2.429   0.419   4.084 -0.5848 -0.5549  0.4299
22411SOL     OW71148   8.123   5.804   2.043 -0.1898  0.5831  0.0791
22411SOL    HW171149   8.071   5.766   2.113  0.1870 -0.0686  0.0142
22411SOL    HW271150   8.069   5.875   2.009  0.1363  1.7492  1.8466
22412SOL     OW71151   1.037   6.428   7.630 -0.3421  0.2864  0.9031
22412SOL    HW171152   1.099   6.492   7.666  1.7798 -1.2277  0.1448
22412SOL    HW271153   1.050   6.432   7.536 -1.4744 -0.0314  0.7192
22413SOL     OW71154   0.462   2.097   3.886  0.4327  0.6513 -0.6751
22413SOL    HW171155   0.428   2.009   3.901  1.7562  0.0861 -0.7853
22413SOL    HW271156   0.395   2.140   3.833 -0.8879  0.1939  0.5741
22414SOL     OW71157   2.195   2.667  10.004  0.1104 -0.1172  0.1183
22414SOL    HW171158   2.109   2.700  10.029  0.3568  0.3617  0.3420
22414SOL    HW271159   2.205   2.692   9.912  0.1686  0.1687  0.2011
22415SOL     OW71160   9.689   4.959   2.153  0.0700  0.0857 -0.6318
22415SOL    HW171161   9.655   4.872   2.175 -3.8128  1.8726  1.6608
22415SOL    HW271162   9.770   4.966   2.203 -1.3618 -1.0591  2.0954
22416SOL     OW71163   9.898   2.621   5.795 -0.6670  0.0355  0.2500
22416SOL    HW171164   9.914   2.708   5.758 -1.3176  0.3991  0.7883
22416SOL    HW271165   9.969   2.567   5.761 -2.0538 -0.0827 -2.8677
22417SOL     OW71166   7.539   8.974   2.787  0.1817  0.2657 -0.1956
22417SOL    HW171167   7.492   8.926   2.855  0.0320 -0.9038 -1.0869
22417SOL    HW271168   7.475   8.981   2.715  0.8727 -0.0051 -0.8449
22418SOL     OW71169   3.395   0.053   0.566 -0.4844  0.2923 -0.2625
22418SOL    HW171170   3.343   0.093   0.496  1.7508 -0.0798 -2.2763
22418SOL    HW271171   3.482   0.092   0.557  0.1275 -0.4998  1.7190
22419SOL     OW71172   9.890   5.951   6.736  0.1706 -0.5086 -0.6405
22419SOL    HW171173   9.841   5.990   6.663  1.3114  0.1870 -1.0469
22419SOL    HW271174   9.822   5.908   6.789 -0.8798  0.3547 -1.2291
22420SOL     OW71175   2.875   0.427   7.795  0.0083  0.1294  0.1326
22420SOL    HW171176   2.912   0.339   7.801 -0.1685  0.0364 -0.1335
22420SOL    HW271177   2.811   0.431   7.867  0.9492  0.4956  0.9716
22421SOL     OW71178   1.507   2.798   5.956  0.2561  0.2043 -0.1530
22421SOL    HW171179   1.539   2.800   5.865  1.5867 -0.7131  0.2622
22421SOL    HW271180   1.414   2.818   5.949  0.4669  0.7935 -1.6568
22422SOL     OW71181   8.652   9.379   9.719  0.2936  0.0378  0.1372
22422SOL    HW171182   8.572   9.428   9.735 -0.0220 -0.4810  0.1627
22422SOL    HW271183   8.716   9.417   9.780  0.6399  1.7914 -1.2233
22423SOL     OW71184  10.175   8.417   7.150  0.1136  0.2510  0.1926
22423SOL    HW171185  10.197   8.332   7.187 -1.6995 -0.2030  0.2938
22423SOL    HW271186  10.128   8.463   7.220 -1.1097  0.3515 -0.6637
22424SOL     OW71187   1.885   5.354   3.787 -0.7693  0.0486  0.0467
22424SOL    HW171188   1.821   5.404   3.737  0.0377  0.0026 -1.0615
22424SOL    HW271189   1.858   5.366   3.878 -2.4584 -0.1143 -0.3859
22425SOL     OW71190   3.582   1.252   4.369  0.1547 -0.2233  0.7423
22425SOL    HW171191   3.497   1.214   4.389  0.1869 -1.1134 -0.7091
22425SOL    HW271192   3.645   1.185   4.396  0.2207 -1.1792 -1.5849
22426SOL     OW71193   6.278   0.039   8.932  0.6414 -0.6013  0.3221
22426SOL    HW171194   6.295   0.018   9.024  2.8743 -0.7461 -0.0690
22426SOL    HW271195   6.299   0.132   8.925 -1.8399  0.0210  0.4205
22427SOL     OW71196   7.440   2.051   0.030 -0.0654 -0.4994  0.1786
22427SOL    HW171197   7.435   1.971   0.082 -0.4148 -1.1974 -0.8852
22427SOL    HW271198   7.475   2.022  -0.055  1.2283  0.7278  0.2558
22428SOL     OW71199   3.493   1.308   9.952  0.0029 -0.1758 -0.0072
22428SOL    HW171200   3.503   1.254  10.030 -0.2030 -0.1693  0.0222
22428SOL    HW271201   3.512   1.248   9.879  1.6877  0.1670  0.0976
22429SOL     OW71202   2.401   5.636   0.447  0.1275  0.3548 -0.1057
22429SOL    HW171203   2.381   5.610   0.537  1.7613 -2.0944 -0.3474
22429SOL    HW271204   2.378   5.728   0.443 -0.9347  0.2863  2.5304
22430SOL     OW71205   8.093   3.855   4.370  0.5873 -0.4948 -0.0920
22430SOL    HW171206   8.040   3.785   4.333 -0.0098  0.9747 -2.2729
22430SOL    HW271207   8.085   3.927   4.307  3.0154  0.7461  0.8486
22431SOL     OW71208   7.230   5.783   9.782 -0.1332 -0.0470 -0.2592
22431SOL    HW171209   7.213   5.791   9.688 -2.0043 -1.3564 -0.0816
22431SOL    HW271210   7.215   5.871   9.817  0.1059  0.3420 -1.1052
22432SOL     OW71211   6.803   0.139   3.740  0.8535 -0.2692  0.6616
22432SOL    HW171212   6.722   0.124   3.787  0.5233  0.8805  0.5051
22432SOL    HW271213   6.863   0.071   3.771  1.0366  1.1120  3.6281
22433SOL     OW71214   2.985   9.715   8.190  0.6569  0.2997  0.1275
22433SOL    HW171215   2.912   9.776   8.195 -0.2997 -0.6147 -1.4668
22433SOL    HW271216   2.955   9.638   8.239  0.3518 -0.2088 -0.8133
22434SOL     OW71217   3.446   4.640   4.965  0.1268 -0.2616 -0.5023
22434SOL    HW171218   3.533   4.660   5.000 -0.1877  1.0556 -0.4365
22434SOL    HW271219   3.461   4.629   4.871  0.2557  0.7271 -0.6068
22435SOL     OW71220   6.241   2.961   7.838  0.7883 -0.3801 -0.5563
22435SOL    HW171221   6.174   2.918   7.892  1.5951 -2.2190 -0.9537
22435SOL    HW271222   6.243   3.051   7.870 -1.4110 -0.4303 -0.0909
22436SOL     OW71223   1.556   5.340   6.308 -0.0486  0.5033  0.0477
22436SOL    HW171224   1.508   5.259   6.291  1.0976 -0.5211  1.3984
22436SOL    HW271225   1.564   5.382   6.223 -3.5753  0.9247 -0.2070
22437SOL     OW71226   3.522   1.879   5.304 -0.4005  0.5680  0.5683
22437SOL    HW171227   3.483   1.950   5.253  1.6167  1.2879 -0.0854
22437SOL    HW271228   3.470   1.802   5.282 -0.9580  1.3157 -0.8430
22438SOL     OW71229   2.522   2.705   1.089 -0.1500 -0.2901  0.0859
22438SOL    HW171230   2.480   2.716   1.175 -2.1843 -0.9028 -0.7735
22438SOL    HW271231   2.525   2.794   1.053 -3.3233 -0.4910 -0.9367
22439SOL     OW71232   5.352   8.428   1.896  0.8777  0.6179 -0.1837
22439SOL    HW171233   5.392   8.430   1.983  0.2704  3.8358  0.1325
22439SOL    HW271234   5.363   8.338   1.867  4.7656  0.3331  1.5222
22440SOL     OW71235   5.940   5.852   1.278 -0.0312  0.4891 -0.0512
22440SOL    HW171236   5.926   5.941   1.310 -1.3339  1.0487 -1.9797
22440SOL    HW271237   5.990   5.863   1.197  0.6123 -0.6172  0.1705
22441SOL     OW71238   2.003   8.889   2.121  0.1603  0.0653 -0.2180
22441SOL    HW171239   1.963   8.834   2.189  1.7013 -0.1936  0.5150
22441SOL    HW271240   2.031   8.968   2.168  0.7038  0.1489 -0.6804
22442SOL     OW71241   3.143   1.449   5.994  0.5183  0.4315  0.5887
22442SOL    HW171242   3.079   1.504   6.040  0.6187  1.1659 -0.1207
22442SOL    HW271243   3.094   1.371   5.968  0.4015  0.1089  1.7219
22443SOL     OW71244   6.697   5.837   2.687  0.2022  0.2941  0.0861
22443SOL    HW171245   6.689   5.819   2.593 -2.1245  1.0195  0.1068
22443SOL    HW271246   6.727   5.754   2.725  2.5366  0.3576 -1.3991
22444SOL     OW71247   5.677   8.820   1.547  0.0324 -0.3701 -0.0571
22444SOL    HW171248   5.677   8.916   1.541  1.3663 -0.4397 -1.7299
22444SOL    HW271249   5.618   8.791   1.478 -1.3322 -0.7726  1.2204
22445SOL     OW71250   2.118   5.336   0.171  1.2362 -0.1816 -0.1618
22445SOL    HW171251   2.209   5.332   0.201  1.3875 -0.0282 -0.5890
22445SOL    HW271252   2.087   5.246   0.178  1.9880 -0.6009 -1.7028
22446SOL     OW71253   8.426   9.496   6.768 -0.3866 -0.1649  0.1886
22446SOL    HW171254   8.501   9.445   6.736 -1.0699 -0.9429 -0.2047
22446SOL    HW271255   8.397   9.546   6.692 -0.3301  0.0616  0.3155
22447SOL     OW71256   0.785   7.539   1.258  0.3705  0.1257 -0.1057
22447SOL    HW171257   0.756   7.457   1.218 -0.7908  0.6504 -0.3497
22447SOL    HW271258   0.787   7.602   1.186  1.4084  0.2895  0.0489
22448SOL     OW71259   0.271   0.226   2.879 -0.4031 -0.2894 -0.1080
22448SOL    HW171260   0.252   0.160   2.946 -0.2094 -1.2241 -0.9496
22448SOL    HW271261   0.259   0.309   2.924  0.3429 -0.8889  1.2698
22449SOL     OW71262   0.089   4.855   2.535 -0.1668  0.4731  0.6296
22449SOL    HW171263   0.174   4.891   2.562 -0.3416  0.0806  1.7238
22449SOL    HW271264   0.039   4.931   2.507  0.6501  0.6775 -0.3747
22450SOL     OW71265   1.378   0.519   8.790  1.0084  0.0662  0.1727
22450SOL    HW171266   1.426   0.558   8.864 -0.0834  1.0132  0.4201
22450SOL    HW271267   1.438   0.528   8.716  2.1932 -1.0478  0.9529
22451SOL     OW71268   2.850   8.628   0.068 -0.2769 -0.0013 -0.0960
22451SOL    HW171269   2.822   8.647  -0.022  0.8002 -1.2057 -0.7057
22451SOL    HW271270   2.940   8.659   0.072  0.3317 -1.6991 -0.0450
22452SOL     OW71271   0.499   2.315   6.767  0.1941  0.1083  0.2516
22452SOL    HW171272   0.520   2.397   6.812  0.4923 -0.4757  1.2004
22452SOL    HW271273   0.569   2.306   6.702  0.2639  0.5206  0.2663
22453SOL     OW71274   3.822   9.619   1.689  0.3465  0.6429  0.4631
22453SOL    HW171275   3.739   9.636   1.645 -0.0556  1.2674  1.4314
22453SOL    HW271276   3.886   9.612   1.618 -0.6300 -0.5565 -0.3374
22454SOL     OW71277   6.527   8.274   2.240  0.4304 -0.3414 -0.1516
22454SOL    HW171278   6.485   8.301   2.322  1.0812  0.5811 -0.1127
22454SOL    HW271279   6.476   8.319   2.172  0.9065  0.2160 -0.1461
22455SOL     OW71280   2.667   2.629  10.088  0.3643  0.0693  0.5832
22455SOL    HW171281   2.580   2.647  10.124  0.7283  2.4680  0.4081
22455SOL    HW271282   2.716   2.591  10.161 -0.9325 -1.8665  0.5256
22456SOL     OW71283   4.066   1.079   4.214 -0.1454 -0.6401  0.1099
22456SOL    HW171284   4.138   1.120   4.263  0.4017 -0.1759 -1.0480
22456SOL    HW271285   4.107   1.051   4.132 -1.3786 -0.0129 -0.7373
22457SOL     OW71286   4.050   0.741   2.959  0.1727  0.2736 -0.7703
22457SOL    HW171287   4.100   0.662   2.937 -0.4001 -0.0642 -0.8627
22457SOL    HW271288   4.108   0.813   2.935 -0.6053 -0.0314 -3.9903
22458SOL     OW71289   9.881   7.808   7.486 -0.7648 -0.4923  0.4976
22458SOL    HW171290   9.898   7.716   7.504 -1.4399 -0.5088  1.1033
22458SOL    HW271291   9.890   7.851   7.571 -2.1867 -0.2716  0.5575
22459SOL     OW71292   2.918   6.749   7.425 -0.5470 -0.2144  0.1823
22459SOL    HW171293   2.945   6.797   7.504  1.4093  2.2341 -1.7958
22459SOL    HW271294   2.966   6.666   7.430 -2.5037 -1.3271  2.7483
22460SOL     OW71295   1.977   4.112   3.859 -0.7371  0.2652 -0.0948
22460SOL    HW171296   1.935   4.159   3.931 -1.2965 -0.4543  0.0558
22460SOL    HW271297   1.945   4.156   3.780 -0.2104  0.9843  0.0846
22461SOL     OW71298   1.439  10.120   8.195 -0.5392 -0.4628 -0.3205
22461SOL    HW171299   1.396  10.103   8.111 -0.4107 -2.6157  0.0083
22461SOL    HW271300   1.459  10.214   8.192  1.2613 -0.7652 -3.5918
22462SOL     OW71301   2.971   3.470   7.881  0.0981 -0.0998 -0.6760
22462SOL    HW171302   3.013   3.394   7.840  2.8159  1.7143 -1.5446
22462SOL    HW271303   3.036   3.502   7.944 -1.6083  0.6525  0.7750
22463SOL     OW71304   7.055   7.363   9.428 -0.0846 -0.5546 -0.0886
22463SOL    HW171305   7.066   7.302   9.501  1.1284 -0.6808 -0.3489
22463SOL    HW271306   7.136   7.355   9.378  0.8907  2.4654  0.7704
22464SOL     OW71307   2.161   7.482   8.160 -0.4184  0.0414  0.2197
22464SOL    HW171308   2.147   7.469   8.066  0.3759  0.2236  0.0683
22464SOL    HW271309   2.111   7.412   8.201 -2.4837  1.2025 -0.2308
22465SOL     OW71310   4.553   1.397   7.984 -0.0247 -0.4020 -0.7896
22465SOL    HW171311   4.501   1.463   7.938 -0.5339  0.7022  1.2067
22465SOL    HW271312   4.644   1.422   7.969 -0.0954  3.4502  3.1252
22466SOL     OW71313   8.685   4.714   7.774  0.1372 -0.2364 -0.6598
22466SOL    HW171314   8.737   4.636   7.755  0.0176 -0.3947 -0.3379
22466SOL    HW271315   8.594   4.686   7.761  0.1665  0.2857 -2.1116
22467SOL     OW71316   0.965   2.645   6.192  0.0877 -0.2365  0.7047
22467SOL    HW171317   0.877   2.627   6.160  0.8520 -2.0940 -0.5079
22467SOL    HW271318   1.015   2.671   6.115  1.3264 -2.2390  0.7647
22468SOL     OW71319   2.559   6.676   0.968  0.2673  0.4438 -0.4981
22468SOL    HW171320   2.621   6.664   1.039  1.2667 -0.5995 -1.4960
22468SOL    HW271321   2.571   6.767   0.941 -1.0805  1.2799  1.4718
22469SOL     OW71322   1.452   8.927   2.578 -0.0740 -0.0937  0.5142
22469SOL    HW171323   1.364   8.903   2.548 -0.0467 -0.0014  0.3604
22469SOL    HW271324   1.508   8.912   2.502 -0.1397  1.0073  0.2268
22470SOL     OW71325   1.948   6.186   0.973  0.5809  0.1326  0.1274
22470SOL    HW171326   1.984   6.239   0.902  1.1116 -1.0488 -0.5175
22470SOL    HW271327   1.950   6.096   0.939  0.0889 -0.3519  1.3363
22471SOL     OW71328   4.595   7.809   7.725  0.4716  0.4466  0.2207
22471SOL    HW171329   4.504   7.809   7.695  0.7548  0.5454 -0.6535
22471SOL    HW271330   4.626   7.898   7.709  0.1570  0.9945  2.3434
22472SOL     OW71331   3.112   0.662   3.155 -0.3978 -0.3098 -0.0867
22472SOL    HW171332   3.159   0.680   3.236  1.1180  1.5997 -1.3208
22472SOL    HW271333   3.034   0.717   3.160  0.8374  1.6164 -0.8532
22473SOL     OW71334   4.816   2.139   4.969 -0.1495 -0.0255  0.4220
22473SOL    HW171335   4.732   2.144   4.923  0.2266 -1.6289 -0.5285
22473SOL    HW271336   4.877   2.105   4.903  0.5406 -1.8323  1.9041
22474SOL     OW71337   7.920   3.469   0.122  0.2556  0.2174 -0.2075
22474SOL    HW171338   7.913   3.393   0.180  0.0802  1.0173  0.8479
22474SOL    HW271339   7.880   3.440   0.040 -0.7071 -0.5143  0.4959
22475SOL     OW71340   7.650   3.193   5.000 -0.1659  0.0551 -0.0852
22475SOL    HW171341   7.614   3.113   5.040 -1.3852  0.9879  0.7578
22475SOL    HW271342   7.615   3.264   5.053  1.3483  1.1453 -0.4935
22476SOL     OW71343   6.698   2.461   9.886 -0.2727  0.1998 -0.4192
22476SOL    HW171344   6.633   2.392   9.873 -0.6981  0.5524 -0.1749
22476SOL    HW271345   6.693   2.515   9.808  0.3173 -0.2501 -0.7742
22477SOL     OW71346   3.253   1.746   6.115  0.6261 -0.1515 -0.5133
22477SOL    HW171347   3.163   1.713   6.122  0.8272 -1.1347 -2.1449
22477SOL    HW271348   3.300   1.700   6.185 -0.3158  1.1970  1.0934
22478SOL     OW71349   5.334   3.516   8.455 -0.0762 -0.4915 -0.9093
22478SOL    HW171350   5.392   3.455   8.410 -0.1421  0.0596 -1.7669
22478SOL    HW271351   5.295   3.465   8.525 -2.1142 -2.2166 -3.1438
22479SOL     OW71352   8.653   2.202   4.520  0.0092 -0.3369 -0.0740
22479SOL    HW171353   8.654   2.295   4.541  1.5281 -0.9340  3.0111
22479SOL    HW271354   8.561   2.176   4.534 -0.4427  0.6747 -1.0412
22480SOL     OW71355   6.032   0.935   2.005 -0.0944  0.1631  0.8342
22480SOL    HW171356   5.950   0.912   2.047 -0.8449  1.6120  0.1974
22480SOL    HW271357   6.095   0.943   2.077 -0.7983  0.2879  1.4445
22481SOL     OW71358   4.213   6.969   8.985 -0.2771 -0.7839  0.0640
22481SOL    HW171359   4.195   7.062   8.973 -0.1276 -0.6815  0.6209
22481SOL    HW271360   4.217   6.957   9.080  0.4706 -1.2088 -0.0134
22482SOL     OW71361   8.220   8.852   1.771 -0.4694 -0.1062  0.3471
22482SOL    HW171362   8.132   8.824   1.745  0.4432 -1.0867 -2.0073
22482SOL    HW271363   8.278   8.803   1.713  1.5303  2.1985  0.2557
22483SOL     OW71364   9.079   7.164   8.017 -0.1801 -0.0336  0.4060
22483SOL    HW171365   9.108   7.083   8.059 -0.6597 -0.0105  0.7907
22483SOL    HW271366   9.078   7.143   7.924  1.4262  0.0852  0.3382
22484SOL     OW71367   4.108   3.778   1.806  0.4770  0.2817 -0.3892
22484SOL    HW171368   4.028   3.728   1.825 -0.3703  1.7539  0.0715
22484SOL    HW271369   4.160   3.720   1.750 -1.4870 -0.2124 -1.8038
22485SOL     OW71370   1.935   7.108   7.200 -0.1923 -0.2174  0.0547
22485SOL    HW171371   2.007   7.059   7.160  0.9463  1.5929 -0.2383
22485SOL    HW271372   1.973   7.147   7.278 -1.2644 -0.3344  0.6554
22486SOL     OW71373   7.699   9.389   8.985 -0.1639  0.2296  0.3475
22486SOL    HW171374   7.754   9.467   8.994  2.5149 -1.5197  0.1865
22486SOL    HW271375   7.615   9.423   8.954  0.9425  3.0144  0.0820
22487SOL     OW71376   5.126   9.235   9.986 -0.4903  0.1035  0.1091
22487SOL    HW171377   5.103   9.216   9.895 -3.5225 -0.3409  0.8749
22487SOL    HW271378   5.116   9.330   9.994 -1.0602  0.0404  0.1758
22488SOL     OW71379   7.169   9.205   6.085  0.0102 -0.2520 -0.0020
22488SOL    HW171380   7.089   9.208   6.032 -0.3191  0.8290  0.5259
22488SOL    HW271381   7.212   9.123   6.059 -0.5594 -0.1648 -1.3180
22489SOL     OW71382   9.650   2.025   1.057 -0.4624 -0.0048 -0.0976
22489SOL    HW171383   9.686   1.954   1.004  2.1343  0.6023  0.7247
22489SOL    HW271384   9.574   1.987   1.100 -0.1622 -1.7421 -1.0339
22490SOL     OW71385   6.063   3.583   9.440  0.3942 -0.0732 -0.3371
22490SOL    HW171386   6.008   3.511   9.472  0.4249  0.2805  0.5209
22490SOL    HW271387   6.125   3.599   9.510  0.9244  0.2422 -0.8715
22491SOL     OW71388   0.599   5.150   0.284 -0.1106  0.0823 -0.1761
22491SOL    HW171389   0.624   5.150   0.376 -0.6304 -2.4741  0.0149
22491SOL    HW271390   0.678   5.122   0.237 -0.2414  0.0744 -0.3942
22492SOL     OW71391   2.239   5.360   7.611  0.0509 -0.1104  0.3689
22492SOL    HW171392   2.216   5.392   7.698 -0.0417  0.4832  0.1312
22492SOL    HW271393   2.171   5.395   7.554  0.4216 -0.0327 -0.0293
22493SOL     OW71394   7.806   1.067   3.829  0.1481  0.2045 -0.0339
22493SOL    HW171395   7.790   1.001   3.896  2.1618  2.0001  2.3962
22493SOL    HW271396   7.723   1.071   3.780 -1.5898 -0.9668  2.5703
22494SOL     OW71397   4.361   3.514   5.818 -0.2294  0.4293 -0.4831
22494SOL    HW171398   4.285   3.488   5.767  0.4618 -0.7729 -0.9467
22494SOL    HW271399   4.422   3.551   5.754  0.0600  0.2606 -0.3091
22495SOL     OW71400   4.663   3.169   2.817 -0.6041  0.5211 -0.0771
22495SOL    HW171401   4.684   3.260   2.840 -1.7645  1.5784 -2.8035
22495SOL    HW271402   4.600   3.141   2.883 -0.7110  1.9278  0.4429
22496SOL     OW71403   9.670   2.050   8.287  0.2158  0.6615 -0.2221
22496SOL    HW171404   9.699   2.005   8.208  0.4650  0.5073 -0.0446
22496SOL    HW271405   9.733   2.121   8.299 -0.1943  1.0813 -0.5171
22497SOL     OW71406   6.848   2.352   4.348  0.0776  0.3208  0.0191
22497SOL    HW171407   6.932   2.366   4.393  0.0914 -0.3134  0.1976
22497SOL    HW271408   6.822   2.440   4.319  0.3521  0.6604  0.7583
22498SOL     OW71409   0.816   7.180   2.881  0.1884 -0.4503 -0.8273
22498SOL    HW171410   0.776   7.199   2.966 -1.7235 -1.9082 -1.3174
22498SOL    HW271411   0.773   7.241   2.820 -0.8864 -1.5841 -1.2489
22499SOL     OW71412   6.465   0.673   6.688 -0.3739 -0.8425  0.2521
22499SOL    HW171413   6.437   0.582   6.687 -0.7512 -0.7323 -0.7774
22499SOL    HW271414   6.384   0.723   6.691 -0.1776 -0.5337  0.5168
22500SOL     OW71415   8.987   4.028   0.232 -0.0743 -0.2278 -0.0743
22500SOL    HW171416   8.920   4.096   0.228  0.1635  0.0485  0.5352
22500SOL    HW271417   8.955   3.966   0.296  0.2874 -0.0536  0.2779
22501SOL     OW71418   3.682   3.986   9.830  0.2229  0.4000  0.1031
22501SOL    HW171419   3.690   3.928   9.755 -1.3136 -0.7409  0.7622
22501SOL    HW271420   3.715   3.934   9.904 -1.2500  0.3056  0.7158
22502SOL     OW71421   0.737   2.606   2.286  0.3078  0.3468 -0.8382
22502SOL    HW171422   0.666   2.669   2.286 -0.0902  0.0202  1.6419
22502SOL    HW271423   0.759   2.594   2.194 -1.4027  2.0406 -1.5382
22503SOL     OW71424   9.147   0.479   8.084 -0.1316  0.0846 -0.4435
22503SOL    HW171425   9.239   0.453   8.088  0.2677  1.4634  0.5445
22503SOL    HW271426   9.128   0.488   7.991  1.3137  1.5230 -0.6576
22504SOL     OW71427   7.267   8.193   3.619 -0.2181  0.1425  0.1321
22504SOL    HW171428   7.328   8.184   3.545 -1.0981 -0.0411 -0.5929
22504SOL    HW271429   7.227   8.279   3.606 -1.3399 -0.4442 -0.3633
22505SOL     OW71430   6.165   1.416   3.648 -0.0260 -0.4638  0.5507
22505SOL    HW171431   6.243   1.462   3.680 -1.3501  2.5328 -0.1224
22505SOL    HW271432   6.184   1.324   3.664  3.4383  0.1296  0.8406
22506SOL     OW71433   6.259   6.451   0.832  0.2682 -0.0657  0.3868
22506SOL    HW171434   6.342   6.500   0.831 -0.6800  1.6182  0.4283
22506SOL    HW271435   6.240   6.436   0.739  0.9234 -1.0590  0.3921
22507SOL     OW71436   3.454   9.030   9.463 -0.0912  0.5769 -0.2481
22507SOL    HW171437   3.454   9.031   9.559  0.3817 -0.1482 -0.2348
22507SOL    HW271438   3.363   9.047   9.439 -0.2575  0.5286  0.3302
22508SOL     OW71439   3.492   9.096   5.237 -0.8915  0.2422 -0.4626
22508SOL    HW171440   3.472   9.076   5.328 -1.8473  1.3780 -0.3998
22508SOL    HW271441   3.550   9.173   5.242  2.4933 -2.0468 -0.6961
22509SOL     OW71442   8.708   1.156   3.552  0.1958 -0.6953  0.1792
22509SOL    HW171443   8.630   1.186   3.599  0.2399  0.2261 -0.3228
22509SOL    HW271444   8.755   1.236   3.529  0.0960 -1.0975 -1.5788
22510SOL     OW71445   7.301   1.030   0.603  0.2670 -0.3793  0.1411
22510SOL    HW171446   7.357   1.037   0.680 -0.1065  1.7772  0.2805
22510SOL    HW271447   7.232   1.095   0.617  0.1186 -0.0027 -1.9509
22511SOL     OW71448   0.737   9.015   6.325 -0.0550  0.0473  0.3807
22511SOL    HW171449   0.653   9.059   6.335  0.1897  0.3165  1.3162
22511SOL    HW271450   0.714   8.925   6.301 -0.5549  1.0747 -3.7105
22512SOL     OW71451   6.255   6.066   5.738  0.2362 -0.1624  0.3463
22512SOL    HW171452   6.306   5.986   5.742  0.0954 -0.2619  0.1683
22512SOL    HW271453   6.308   6.131   5.784  0.4068 -0.3273  0.3820
22513SOL     OW71454   3.809   1.588  10.083 -0.0361 -0.6277 -0.1113
22513SOL    HW171455   3.750   1.655  10.120  0.1121 -1.4270  1.6719
22513SOL    HW271456   3.758   1.549  10.012 -0.7723  0.2404 -0.0877
22514SOL     OW71457   1.740   0.607   9.310  0.5843 -0.2624  0.2196
22514SOL    HW171458   1.735   0.511   9.310 -0.7836 -0.2068 -0.3958
22514SOL    HW271459   1.688   0.634   9.385  0.0446  0.0313 -0.2555
22515SOL     OW71460   1.008   8.825   6.624  0.1862  0.2418 -0.2914
22515SOL    HW171461   0.923   8.865   6.604 -0.6415 -0.6637  1.2173
22515SOL    HW271462   0.990   8.731   6.625  2.0103 -0.2597 -3.3737
22516SOL     OW71463   4.509   6.927   8.648 -0.1231 -0.1619 -0.3398
22516SOL    HW171464   4.433   6.894   8.696 -0.2199  1.0191  0.3782
22516SOL    HW271465   4.557   6.979   8.713  1.3404 -0.9347 -0.7658
22517SOL     OW71466   8.495   3.653   0.674 -0.1700 -0.7502  0.1344
22517SOL    HW171467   8.511   3.613   0.589 -0.5051  0.1285 -0.3478
22517SOL    HW271468   8.490   3.579   0.734 -0.0528 -1.3859 -0.6204
22518SOL     OW71469   5.118   6.212   1.893 -0.4705 -0.2840 -0.1342
22518SOL    HW171470   5.105   6.138   1.833 -1.9709  0.6178 -0.9717
22518SOL    HW271471   5.102   6.175   1.980  0.7998 -1.3922 -0.3304
22519SOL     OW71472   6.618   1.132   1.966  0.7575 -0.2086  0.4212
22519SOL    HW171473   6.528   1.104   1.949  0.9886 -2.3894  2.2931
22519SOL    HW271474   6.610   1.191   2.041  0.9440 -1.7205  1.7025
22520SOL     OW71475   9.856   6.553   3.247  0.2080 -0.1214  0.2484
22520SOL    HW171476   9.881   6.608   3.173  1.4442 -2.8948 -1.5506
22520SOL    HW271477   9.938   6.538   3.295 -0.5062  1.3156  2.0734
22521SOL     OW71478   7.797   2.055   4.001 -0.0253  0.0949 -0.2297
22521SOL    HW171479   7.786   2.085   3.911 -2.1078  1.5241  0.4572
22521SOL    HW271480   7.744   2.114   4.054  0.3516 -1.3168  1.8525
22522SOL     OW71481   8.400   2.250   7.565  0.0177  0.4653 -0.2983
22522SOL    HW171482   8.443   2.296   7.638 -0.9958  0.3091  0.4133
22522SOL    HW271483   8.468   2.192   7.531  0.3693  0.1530  0.8684
22523SOL     OW71484   6.582   5.888   0.712  0.4804 -0.1744  0.3409
22523SOL    HW171485   6.535   5.971   0.702  0.8652 -0.0167 -0.2544
22523SOL    HW271486   6.586   5.873   0.806 -2.0205 -0.9358  0.3926
22524SOL     OW71487   4.209   5.118   4.247 -0.0949  0.1656  0.7103
22524SOL    HW171488   4.246   5.043   4.295  0.8384 -1.1431 -1.8399
22524SOL    HW271489   4.277   5.141   4.184 -0.9545  2.3053  0.4919
22525SOL     OW71490   0.147   3.904   1.754  0.0768  0.2615  0.8267
22525SOL    HW171491   0.115   3.848   1.824  0.8800 -1.3030  0.0046
22525SOL    HW271492   0.069   3.929   1.704 -0.1193 -2.0153 -0.1058
22526SOL     OW71493   5.703   5.349   7.676  0.1600 -0.2873  0.4732
22526SOL    HW171494   5.767   5.414   7.646  0.2762 -1.2410 -1.4627
22526SOL    HW271495   5.618   5.389   7.658  0.2252 -0.1371  0.4991
22527SOL     OW71496   8.430   7.175   3.792 -0.0351  0.3326  0.2767
22527SOL    HW171497   8.342   7.137   3.791 -0.3896  1.1321 -1.2316
22527SOL    HW271498   8.481   7.120   3.733  1.5278 -2.2624  3.6585
22528SOL     OW71499   9.364   6.523   1.046 -0.2306  0.3658  0.3964
22528SOL    HW171500   9.372   6.599   1.105 -1.4426  1.0830 -0.3264
22528SOL    HW271501   9.322   6.558   0.968  0.4803 -0.7810 -0.5263
22529SOL     OW71502   5.379   6.471   9.687 -0.0770  0.6026  0.3553
22529SOL    HW171503   5.448   6.468   9.754 -2.5313  1.7352  3.1572
22529SOL    HW271504   5.354   6.379   9.675  1.0368  0.2956  0.2446
22530SOL     OW71505   2.202   8.212   1.494 -0.2332  0.3607 -0.1639
22530SOL    HW171506   2.268   8.171   1.437 -0.0420  0.8811 -0.3244
22530SOL    HW271507   2.175   8.143   1.553 -1.0135 -0.4249 -1.3941
22531SOL     OW71508   4.848   1.592   5.635  0.4427 -0.7480  0.4646
22531SOL    HW171509   4.880   1.682   5.642  0.4289 -0.7379  0.3933
22531SOL    HW271510   4.810   1.586   5.548 -0.5347 -0.5051  0.8695
22532SOL     OW71511   3.292   7.626   5.973 -0.7427  0.7903  0.4934
22532SOL    HW171512   3.288   7.615   6.068 -0.1471  1.3375  0.5886
22532SOL    HW271513   3.235   7.701   5.955 -1.2248  0.3930  0.3658
22533SOL     OW71514   5.966   4.839   3.048  0.6067  0.2480 -0.3656
22533SOL    HW171515   5.983   4.783   2.972  2.6936  0.1854  0.0935
22533SOL    HW271516   6.035   4.817   3.110 -0.7178  0.7115  1.3538
22534SOL     OW71517   3.310   5.990   5.609 -0.4242 -0.7473 -0.2615
22534SOL    HW171518   3.319   5.932   5.684  1.3445  1.1271  1.1130
22534SOL    HW271519   3.234   6.044   5.630  0.3924  0.1438  0.5201
22535SOL     OW71520   6.948   2.187   0.647  0.2803  0.2026 -0.3857
22535SOL    HW171521   6.864   2.142   0.634  2.4953 -5.0360  1.0682
22535SOL    HW271522   6.994   2.176   0.564  1.4801 -2.0022  0.5062
22536SOL     OW71523   7.444   8.745   7.571  0.1299  0.1282 -0.6007
22536SOL    HW171524   7.445   8.767   7.478 -1.2874 -1.6210 -1.0992
22536SOL    HW271525   7.393   8.664   7.576  0.3628  0.0411  1.6837
22537SOL     OW71526   7.652   4.350   0.659 -0.5374  0.1094 -0.0971
22537SOL    HW171527   7.579   4.377   0.604 -0.8313  0.8727  0.6312
22537SOL    HW271528   7.656   4.417   0.728 -0.2629 -0.8807  0.8802
22538SOL     OW71529   3.547   4.026   0.252 -0.0352  0.3653  0.0718
22538SOL    HW171530   3.543   4.121   0.248  0.5082  0.3394 -1.7375
22538SOL    HW271531   3.632   4.003   0.215 -0.0061 -0.8249  0.8073
22539SOL     OW71532   4.014   4.275   9.529 -0.4143 -0.1990 -0.2545
22539SOL    HW171533   4.010   4.182   9.548  0.3431 -0.2071 -0.0916
22539SOL    HW271534   4.108   4.294   9.523 -0.5273  0.7479  0.7191
22540SOL     OW71535   2.383   2.803   1.751  0.2111 -0.2558 -0.1309
22540SOL    HW171536   2.357   2.724   1.799 -2.9326  1.1604  0.7536
22540SOL    HW271537   2.418   2.861   1.819 -1.1053  0.5039 -0.0768
22541SOL     OW71538   1.410   6.476   1.671  0.0843  0.0876 -0.2994
22541SOL    HW171539   1.400   6.418   1.746 -0.3774  0.4954 -0.0361
22541SOL    HW271540   1.499   6.509   1.678  0.3689 -0.6272 -0.4847
22542SOL     OW71541   0.595   6.477   2.623 -0.9640  0.2789 -0.7852
22542SOL    HW171542   0.684   6.504   2.646 -1.1398  0.9357 -0.8621
22542SOL    HW271543   0.584   6.392   2.666 -1.4526  1.6282  1.9607
22543SOL     OW71544   3.186   1.789   8.677 -0.0216  0.5388 -0.8172
22543SOL    HW171545   3.187   1.790   8.773  0.1271  0.8124 -0.8172
22543SOL    HW271546   3.224   1.874   8.653 -0.6175  0.7237 -1.1167
22544SOL     OW71547   1.545   7.622   4.589 -0.1415 -0.0504  0.1438
22544SOL    HW171548   1.605   7.696   4.582 -0.8105  0.7284  1.9873
22544SOL    HW271549   1.461   7.657   4.560 -0.4566 -0.0769  1.0113
22545SOL     OW71550   9.948   6.489   6.023  0.0745 -0.1695  0.0944
22545SOL    HW171551  10.030   6.523   5.989  0.1183  0.7013  1.0227
22545SOL    HW271552   9.904   6.565   6.061 -0.2871 -0.9600  1.3231
22546SOL     OW71553   0.487   1.728   4.457  0.3257  0.9086  0.0643
22546SOL    HW171554   0.393   1.730   4.475  0.2319  0.8438 -0.4065
22546SOL    HW271555   0.497   1.776   4.375  0.5414 -0.1990 -0.5783
22547SOL     OW71556   6.572   5.944   9.797  0.3110  0.4541  0.1019
22547SOL    HW171557   6.604   5.934   9.707 -2.8988 -2.5158 -0.9608
22547SOL    HW271558   6.650   5.963   9.848  2.4689  1.1800 -3.1280
22548SOL     OW71559   4.528   7.524   2.148 -0.4760 -0.0449  0.2643
22548SOL    HW171560   4.444   7.478   2.153 -1.2441  1.3910  2.5075
22548SOL    HW271561   4.580   7.487   2.220 -0.6766  1.6276  1.3530
22549SOL     OW71562   5.807   0.760   3.363  0.1392  0.2011  0.2316
22549SOL    HW171563   5.805   0.847   3.402  0.9597  0.9454 -1.2925
22549SOL    HW271564   5.835   0.702   3.434  0.5616  1.3319  1.0113
22550SOL     OW71565   1.583   3.575  10.151 -0.1155 -0.0274  0.1529
22550SOL    HW171566   1.562   3.663  10.120  0.0825 -0.4098 -1.1264
22550SOL    HW271567   1.679   3.571  10.149 -0.1367 -1.0265 -2.1481
22551SOL     OW71568   3.347   0.192   0.795  0.0864  0.5743 -0.4882
22551SOL    HW171569   3.330   0.158   0.707 -0.2494  2.5446 -1.2460
22551SOL    HW271570   3.264   0.231   0.822  0.2148  0.0804  0.6772
22552SOL     OW71571   4.705   0.864   6.340 -0.2523  0.1583 -0.0015
22552SOL    HW171572   4.747   0.946   6.366  0.0327  0.3679 -1.0952
22552SOL    HW271573   4.751   0.797   6.390  1.0616  0.4341 -0.8029
22553SOL     OW71574   6.122   1.709   3.604  0.4586  0.0500 -0.1160
22553SOL    HW171575   6.138   1.719   3.510 -0.9118  1.2853 -0.2415
22553SOL    HW271576   6.114   1.614   3.617  1.4895 -0.1895 -1.0728
22554SOL     OW71577   2.969   0.305   4.699  0.5232 -0.0669  0.0159
22554SOL    HW171578   2.946   0.241   4.766  0.1622 -0.6201 -0.6188
22554SOL    HW271579   2.895   0.366   4.698  1.0926  0.6764  0.9672
22555SOL     OW71580   4.400   6.518   1.099  0.1303  0.3206 -0.4191
22555SOL    HW171581   4.457   6.453   1.059 -0.2928  0.4195 -1.2128
22555SOL    HW271582   4.312   6.494   1.070 -0.2696  0.0798  0.9074
22556SOL     OW71583   2.516   8.674  10.131  0.5071 -0.2314  0.4131
22556SOL    HW171584   2.509   8.633  10.218  2.5232  1.3183  1.3866
22556SOL    HW271585   2.448   8.631  10.079 -1.5707 -0.4043  3.0562
22557SOL     OW71586   3.935   8.517   1.167 -0.3998 -0.3622  0.2874
22557SOL    HW171587   3.961   8.563   1.087  2.0672 -2.2650 -0.1464
22557SOL    HW271588   3.868   8.572   1.206  1.6528  3.0793 -0.6311
22558SOL     OW71589   2.727   5.260   2.999  0.0328  0.6550  0.6051
22558SOL    HW171590   2.688   5.242   2.913  0.6913 -1.7224  0.7191
22558SOL    HW271591   2.810   5.303   2.980 -0.5305  1.5744  0.1535
22559SOL     OW71592   0.243   7.093   7.142  0.6393 -0.3555 -0.2828
22559SOL    HW171593   0.253   7.036   7.066  0.2018 -0.5604 -0.1928
22559SOL    HW271594   0.209   7.175   7.105  0.5423 -0.4141 -0.3264
22560SOL     OW71595   6.406   0.706   4.657  0.0496 -0.0099 -0.1161
22560SOL    HW171596   6.468   0.647   4.699  0.0486 -0.1915 -0.3655
22560SOL    HW271597   6.442   0.793   4.671  0.4208 -0.1250 -0.3616
22561SOL     OW71598   8.594   7.689   3.694 -0.6709 -0.0524  0.0942
22561SOL    HW171599   8.638   7.676   3.778 -0.9958  0.3293  0.3303
22561SOL    HW271600   8.569   7.601   3.666 -3.3658 -0.0248  1.9458
22562SOL     OW71601   0.785   8.124   8.813  0.0815 -0.1259 -0.4223
22562SOL    HW171602   0.796   8.129   8.908  1.7309  1.9569 -0.6243
22562SOL    HW271603   0.734   8.202   8.791  0.7900  0.1075 -1.3248
22563SOL     OW71604   8.135   8.243   7.414  0.9124  0.0504 -0.1695
22563SOL    HW171605   8.188   8.170   7.382 -0.1770 -1.2515  0.8384
22563SOL    HW271606   8.192   8.289   7.475  1.1804 -0.8325  0.2743
22564SOL     OW71607   6.631   5.180   6.479 -0.4732 -0.0407 -0.6823
22564SOL    HW171608   6.661   5.154   6.566  0.7253  2.7466 -0.1840
22564SOL    HW271609   6.710   5.182   6.425 -1.1262 -1.2099 -1.7681
22565SOL     OW71610   0.208   8.783   9.576  0.5476 -0.3381  0.6295
22565SOL    HW171611   0.260   8.763   9.654  1.9418 -0.0056 -0.1753
22565SOL    HW271612   0.131   8.727   9.583  1.0039 -0.8326  1.8855
22566SOL     OW71613   4.463   1.723   4.523 -0.1867  0.2872 -0.4509
22566SOL    HW171614   4.498   1.758   4.442  0.7774  0.9411  0.2208
22566SOL    HW271615   4.498   1.780   4.591 -1.3847  0.0676  0.3939
22567SOL     OW71616   5.574  10.099   1.116 -0.2080  0.1853  0.2691
22567SOL    HW171617   5.493  10.101   1.167 -0.4483 -1.4596 -0.0127
22567SOL    HW271618   5.642  10.119   1.180 -0.4790 -2.0620  1.3592
22568SOL     OW71619   0.694   8.557   3.169 -0.5215  0.2040 -0.0243
22568SOL    HW171620   0.685   8.540   3.262  0.0460  0.4776  0.0877
22568SOL    HW271621   0.745   8.484   3.135 -0.4892  0.2471 -0.0688
22569SOL     OW71622   5.760   9.165   8.561  0.3293  0.2932  0.0441
22569SOL    HW171623   5.746   9.192   8.471  0.9837  0.1947 -0.0913
22569SOL    HW271624   5.751   9.245   8.612 -0.2079  0.3185 -0.0898
22570SOL     OW71625   0.243   1.854   2.813  0.1944  0.1127 -0.2758
22570SOL    HW171626   0.196   1.780   2.852 -0.9382  1.7873  1.7418
22570SOL    HW271627   0.242   1.835   2.719 -1.5268 -1.6317  0.0162
22571SOL     OW71628   1.254   2.197   6.687  0.2624  0.1143 -0.1947
22571SOL    HW171629   1.166   2.234   6.694  0.3007  0.3202 -0.7956
22571SOL    HW271630   1.310   2.272   6.667  0.6979  0.1160  0.9556
22572SOL     OW71631   4.189   1.752   4.593 -0.4159 -0.1463  0.4008
22572SOL    HW171632   4.279   1.735   4.566 -0.6670 -1.8027  0.5265
22572SOL    HW271633   4.189   1.844   4.621  1.9010 -0.8269  3.0832
22573SOL     OW71634   7.206   4.141   7.656 -0.4669  0.1653 -0.1119
22573SOL    HW171635   7.195   4.047   7.637 -1.4986  0.1666  0.4098
22573SOL    HW271636   7.298   4.158   7.636  0.0114 -1.1952  0.7657
22574SOL     OW71637   6.277   7.969   2.936 -0.3397  0.4751 -0.2478
22574SOL    HW171638   6.196   7.959   2.887 -1.0157  0.0098  0.9325
22574SOL    HW271639   6.316   7.882   2.939 -0.2639  0.5128 -0.0423
22575SOL     OW71640   8.324   9.135   8.932 -0.1141  0.2841  0.3136
22575SOL    HW171641   8.312   9.146   9.026 -0.9690  2.7250  0.0102
22575SOL    HW271642   8.245   9.089   8.903  0.1727 -0.5136  0.7849
22576SOL     OW71643   8.284   7.660  10.169 -0.1196  0.7458  0.0623
22576SOL    HW171644   8.191   7.639  10.178 -0.1555  1.4842  1.8111
22576SOL    HW271645   8.286   7.752  10.143  0.1214  0.6976 -0.0934
22577SOL     OW71646   9.193   5.772   0.711  0.2266 -0.3991  0.1629
22577SOL    HW171647   9.248   5.750   0.635  0.2444 -1.0377  0.3550
22577SOL    HW271648   9.248   5.827   0.766 -0.4645  1.8378 -1.2616
22578SOL     OW71649   4.640   6.232   8.182 -0.3800 -0.2725 -0.3869
22578SOL    HW171650   4.606   6.205   8.096  1.1084  0.6216 -1.3006
22578SOL    HW271651   4.657   6.150   8.227 -1.4575 -0.7570 -0.8426
22579SOL     OW71652   2.949   7.187   7.854 -0.5818 -0.7812 -0.1394
22579SOL    HW171653   2.885   7.231   7.798  0.1217  0.4348 -0.0372
22579SOL    HW271654   3.034   7.218   7.822 -0.1330 -0.7058  1.0585
22580SOL     OW71655   4.434   2.481   9.947  0.5075 -0.1840  0.2419
22580SOL    HW171656   4.463   2.514   9.862  1.8680 -0.5130  0.5594
22580SOL    HW271657   4.508   2.430   9.979  0.0991  0.1138  1.7183
22581SOL     OW71658   0.587   3.560   0.583  0.2010  0.0918 -0.0162
22581SOL    HW171659   0.638   3.522   0.655  0.8013 -1.0084 -0.9877
22581SOL    HW271660   0.636   3.638   0.558  1.2081 -0.6971 -0.6290
22582SOL     OW71661   7.609   2.013   0.800  0.2427  0.3356 -0.0402
22582SOL    HW171662   7.567   2.084   0.848 -1.2219  0.2754 -1.1684
22582SOL    HW271663   7.537   1.965   0.759  1.3020 -0.8890 -0.5536
22583SOL     OW71664   4.561   9.168   0.454  0.2641  0.2227  0.2715
22583SOL    HW171665   4.656   9.180   0.454  0.3699 -0.5191  1.0081
22583SOL    HW271666   4.526   9.255   0.433  1.0552  1.2530  2.8123
22584SOL     OW71667   1.168   9.332   6.843  0.2884 -0.2984 -0.7888
22584SOL    HW171668   1.110   9.379   6.902  0.4142 -0.2787 -0.6803
22584SOL    HW271669   1.112   9.266   6.801 -0.1011  0.5234 -1.6026
22585SOL     OW71670   9.620   0.279   2.420 -0.0923 -0.6258  0.2966
22585SOL    HW171671   9.592   0.370   2.411 -1.6423 -0.9323  1.4588
22585SOL    HW271672   9.633   0.248   2.331  1.4733  0.9849 -0.1060
22586SOL     OW71673   1.258   2.894   3.197  0.3683  0.7311  0.5894
22586SOL    HW171674   1.237   2.920   3.287 -2.0868 -1.2177  0.6885
22586SOL    HW271675   1.283   2.802   3.204 -1.6904 -0.0074 -0.8549
22587SOL     OW71676   9.152   2.926   5.530 -0.1572 -0.3550  0.3984
22587SOL    HW171677   9.217   2.947   5.463  0.1785 -0.6347  0.6305
22587SOL    HW271678   9.112   3.010   5.552  0.4817 -0.0959  0.6101
22588SOL     OW71679   3.804   4.372   1.983  0.2981  0.1033 -0.5391
22588SOL    HW171680   3.732   4.318   1.951 -0.7034  1.4200 -0.6041
22588SOL    HW271681   3.799   4.452   1.930  0.5778  1.0238  0.7773
22589SOL     OW71682   1.961   9.975   3.966 -0.8196 -0.4421 -0.1848
22589SOL    HW171683   2.004   9.997   3.883 -0.5350  0.6053  0.2226
22589SOL    HW271684   1.930   9.885   3.954  2.2920 -1.6526 -0.1758
22590SOL     OW71685   1.576   8.680   0.516 -0.5814 -0.0058 -0.4376
22590SOL    HW171686   1.518   8.650   0.586  0.2247  0.8260  0.6352
22590SOL    HW271687   1.527   8.750   0.473 -0.0854  1.2982  1.0264
22591SOL     OW71688   7.942   7.191   4.682 -0.2567 -0.4660 -0.1435
22591SOL    HW171689   8.013   7.255   4.677 -1.1289  0.4490 -1.2485
22591SOL    HW271690   7.893   7.214   4.760  1.0637 -1.5860  1.0835
22592SOL     OW71691   5.633   8.919   4.723 -0.1790 -0.0578  0.1756
22592SOL    HW171692   5.549   8.959   4.700  0.4416  1.1435 -0.0333
22592SOL    HW271693   5.697   8.961   4.666  0.6775 -0.4852  0.7955
22593SOL     OW71694  10.132   6.484   5.016 -0.3846 -0.1791 -0.0959
22593SOL    HW171695  10.092   6.562   5.054  0.2254  1.0605 -1.8663
22593SOL    HW271696  10.061   6.441   4.968 -0.2915  0.3729 -0.7402
22594SOL     OW71697   0.622   1.182   4.872 -0.0328 -0.1107 -0.0890
22594SOL    HW171698   0.613   1.264   4.921 -1.5549 -0.7389  0.7923
22594SOL    HW271699   0.565   1.193   4.796  0.8345  0.1513 -0.7069
22595SOL     OW71700   4.765   3.349   3.098  0.1496  0.1017 -0.6499
22595SOL    HW171701   4.678   3.328   3.132  0.6612  0.3535  0.8783
22595SOL    HW271702   4.768   3.445   3.099  0.7455  0.0780  0.0981
22596SOL     OW71703   4.191   5.847   9.039 -0.4412 -0.0168 -0.0910
22596SOL    HW171704   4.205   5.872   8.947 -0.2427 -1.0335 -0.3523
22596SOL    HW271705   4.103   5.809   9.039 -0.6329  0.4268  0.2409
22597SOL     OW71706   9.847  10.119   0.602 -0.4740 -0.3594  0.0983
22597SOL    HW171707   9.815  10.082   0.520 -1.3113 -0.5079  0.4814
22597SOL    HW271708   9.941  10.099   0.602 -0.4836 -0.4389 -0.7699
22598SOL     OW71709   2.995   6.225   5.385 -0.1440 -0.1806  0.2639
22598SOL    HW171710   3.085   6.217   5.352  0.0365  1.6634  0.2399
22598SOL    HW271711   2.998   6.297   5.447 -1.1959 -1.4594  1.8905
22599SOL     OW71712   9.164   9.577   8.926  0.6689 -0.3614 -0.0008
22599SOL    HW171713   9.193   9.487   8.937 -0.1579 -0.7406 -0.7496
22599SOL    HW271714   9.071   9.569   8.902  0.4201  0.7152  0.5519
22600SOL     OW71715   8.304   6.262   2.840  0.7968 -0.1019  0.1128
22600SOL    HW171716   8.302   6.171   2.871 -2.2799  0.1345  0.9151
22600SOL    HW271717   8.273   6.257   2.750  1.5209  0.0726 -0.1495
22601SOL     OW71718   5.114   8.900   8.650  0.2382  0.4372 -0.6046
22601SOL    HW171719   5.085   8.986   8.619  0.9102  0.6384 -0.6946
22601SOL    HW271720   5.137   8.852   8.570 -1.3055 -0.2811 -0.6499
22602SOL     OW71721   8.139   7.607   4.897 -0.6553 -0.0663 -0.2150
22602SOL    HW171722   8.048   7.630   4.879 -0.3271  0.9940 -0.5790
22602SOL    HW271723   8.134   7.523   4.943 -1.8886  0.5244  0.7975
22603SOL     OW71724   4.864   8.937   4.558 -0.0198  0.7356 -0.1137
22603SOL    HW171725   4.783   8.897   4.592 -0.2450  0.7752 -0.5923
22603SOL    HW271726   4.840   9.029   4.543 -1.0112  0.0270 -3.6701
22604SOL     OW71727   6.715   9.457   4.985 -0.5824  0.2731  0.3830
22604SOL    HW171728   6.787   9.474   5.046 -0.8527  0.6777  0.5893
22604SOL    HW271729   6.645   9.514   5.014 -0.8715  0.1320 -0.0324
22605SOL     OW71730   8.967   0.481   9.998  0.5426  0.3255 -0.4736
22605SOL    HW171731   8.891   0.513   9.949 -0.0984  0.0002  0.2754
22605SOL    HW271732   8.946   0.500  10.090  1.6657  0.8348 -0.3019
22606SOL     OW71733   8.994   5.448   8.796 -0.3961 -0.0084  0.5535
22606SOL    HW171734   8.967   5.381   8.858 -0.1626 -1.5005 -0.8901
22606SOL    HW271735   9.073   5.486   8.835 -1.8183  1.1120  2.5034
22607SOL     OW71736   0.290   0.871   3.913  0.1333 -0.5074  0.1706
22607SOL    HW171737   0.363   0.890   3.854  0.5039 -1.1554  0.4154
22607SOL    HW271738   0.246   0.795   3.874 -1.2036  0.6495 -0.6782
22608SOL     OW71739   0.552   4.599   9.276 -0.6063 -0.2476 -0.1459
22608SOL    HW171740   0.457   4.601   9.282 -0.8026 -2.4416 -1.5103
22608SOL    HW271741   0.582   4.594   9.367 -1.6754  1.6796  0.3741
22609SOL     OW71742   6.617   5.493   7.625 -0.2266  0.1436  0.3932
22609SOL    HW171743   6.567   5.411   7.618  0.1615 -0.0824  0.2361
22609SOL    HW271744   6.587   5.545   7.551  1.1693 -0.7650 -0.8637
22610SOL     OW71745   1.591   0.877   5.705  0.1436 -0.5220  0.2896
22610SOL    HW171746   1.686   0.885   5.704  0.1185 -0.2212  0.1500
22610SOL    HW271747   1.560   0.962   5.736 -0.1136 -0.2397 -0.7066
22611SOL     OW71748   1.390   2.559   1.118  0.0187  0.1743  0.1227
22611SOL    HW171749   1.333   2.507   1.175 -0.0490 -0.4961 -0.5508
22611SOL    HW271750   1.368   2.650   1.139 -0.1841 -0.0629  0.9827
22612SOL     OW71751   0.678   9.206   8.103  0.2144 -0.2927  0.3878
22612SOL    HW171752   0.612   9.136   8.106  0.5151 -0.5438  1.4084
22612SOL    HW271753   0.687   9.226   8.010  0.1179 -1.6059  0.0784
22613SOL     OW71754   2.420   2.478   0.192 -0.2636 -0.0047  0.3909
22613SOL    HW171755   2.361   2.505   0.262 -0.5466  0.5800 -0.0589
22613SOL    HW271756   2.492   2.434   0.236 -1.0945 -0.8331  0.9345
22614SOL     OW71757   3.872   9.586   1.296  0.4882  0.4256  0.5342
22614SOL    HW171758   3.926   9.561   1.222  1.4349  0.4723  1.2001
22614SOL    HW271759   3.816   9.510   1.312  1.1387 -0.0535  0.5475
22615SOL     OW71760   2.517   0.428   3.077 -0.5475 -0.4718  0.0893
22615SOL    HW171761   2.435   0.414   3.030  0.0516 -2.3980 -0.4617
22615SOL    HW271762   2.564   0.493   3.024 -1.3874  0.1151  0.0364
22616SOL     OW71763   0.382   2.508   5.105  0.2951  0.1398  0.4568
22616SOL    HW171764   0.440   2.483   5.033  0.8395 -0.8941  1.2496
22616SOL    HW271765   0.408   2.453   5.178 -1.9865 -0.6995  0.7157
22617SOL     OW71766  10.043   0.109   6.374  0.2299  0.3068  0.6782
22617SOL    HW171767   9.975   0.157   6.422 -0.8156 -0.6701  0.2337
22617SOL    HW271768  10.107   0.176   6.350 -1.7944  1.7807 -1.0241
22618SOL     OW71769   2.936   3.951   0.128  0.0469 -0.1006  0.3858
22618SOL    HW171770   2.918   3.864   0.094 -1.9098  0.0025  1.0317
22618SOL    HW271771   2.991   3.936   0.205 -0.1631 -0.7540  0.4152
22619SOL     OW71772   8.455   7.580   5.974 -0.1021  0.1533 -0.2592
22619SOL    HW171773   8.505   7.511   6.018  0.6802 -0.7289 -2.3878
22619SOL    HW271774   8.520   7.646   5.951 -0.6484  1.0360  0.6418
22620SOL     OW71775   6.173   5.260   0.605 -0.4988  0.8916  0.4950
22620SOL    HW171776   6.125   5.217   0.534  0.9230  1.1015 -0.6334
22620SOL    HW271777   6.252   5.207   0.616 -0.2776  1.3767  1.3427
22621SOL     OW71778   2.822   7.252   6.332 -0.4254  0.2359 -0.4935
22621SOL    HW171779   2.878   7.324   6.305  0.6010  0.2720  1.5536
22621SOL    HW271780   2.847   7.179   6.274 -0.8825  1.2439 -2.0113
22622SOL     OW71781   8.244   5.045   5.693  0.0982  0.1167  0.5925
22622SOL    HW171782   8.308   5.113   5.673 -0.3122 -0.5695 -4.4609
22622SOL    HW271783   8.291   4.984   5.749  2.8427  1.2106 -0.3195
22623SOL     OW71784   2.241  10.135   5.505 -0.0188 -0.6841 -0.2820
22623SOL    HW171785   2.297  10.212   5.507  0.0871 -0.7719  1.1606
22623SOL    HW271786   2.289  10.071   5.454 -0.6739  0.5863 -2.6415
22624SOL     OW71787   7.070   3.585   2.904  0.4728 -0.2867 -0.0977
22624SOL    HW171788   6.989   3.561   2.948  1.1905  0.7164  1.8914
22624SOL    HW271789   7.119   3.503   2.899  1.3508 -0.1108  3.2574
22625SOL     OW71790   7.208   3.607   3.209  0.4841 -0.0419 -0.5559
22625SOL    HW171791   7.228   3.513   3.208  2.2429  0.2920  0.1107
22625SOL    HW271792   7.219   3.635   3.119 -1.4300 -0.7015 -1.0461
22626SOL     OW71793   3.513   1.482   9.233  0.2352 -0.1995  0.0500
22626SOL    HW171794   3.512   1.409   9.296 -1.2691  1.0281  1.5425
22626SOL    HW271795   3.582   1.539   9.265 -1.2937  0.9993  1.3581
22627SOL     OW71796   2.871   1.719   1.087  0.2098 -0.4362 -0.0444
22627SOL    HW171797   2.967   1.727   1.087  0.1641  0.0863 -0.0139
22627SOL    HW271798   2.856   1.630   1.054  0.6772 -0.1473 -1.0958
22628SOL     OW71799  10.082   9.933   7.597 -0.3327  0.1381  0.1509
22628SOL    HW171800  10.148   9.909   7.533 -1.8637 -4.6943 -0.0013
22628SOL    HW271801  10.000   9.900   7.561 -1.9067  0.8340  2.7980
22629SOL     OW71802   4.336   7.054   4.309 -0.4305 -0.0444 -0.3858
22629SOL    HW171803   4.415   7.092   4.272  0.7805 -1.0738  1.0299
22629SOL    HW271804   4.362   6.967   4.339 -2.8836 -1.7641 -2.7499
22630SOL     OW71805   7.608   6.809   7.264 -0.3532 -0.2388  0.4944
22630SOL    HW171806   7.576   6.720   7.282  0.9238 -0.4929  1.6256
22630SOL    HW271807   7.552   6.866   7.316  0.0287 -0.5530  1.2631
22631SOL     OW71808   6.463   0.649   8.386  0.0490  0.0625 -0.8738
22631SOL    HW171809   6.510   0.658   8.469  0.9712 -1.5451 -1.1734
22631SOL    HW271810   6.431   0.737   8.367  0.5107  0.6321  0.7683
22632SOL     OW71811   9.863   3.020   6.794  0.7423  0.2482 -0.2882
22632SOL    HW171812   9.778   3.059   6.813  0.5366 -0.2840 -0.1187
22632SOL    HW271813   9.886   3.055   6.707  0.6145  0.8257 -0.0964
22633SOL     OW71814   7.005   5.600  10.084 -0.5712  0.2554  0.6135
22633SOL    HW171815   6.956   5.567  10.008  0.2371  1.0027 -0.2463
22633SOL    HW271816   6.938   5.613  10.151 -1.6122  1.5032 -0.6237
22634SOL     OW71817   3.259   8.650   4.679 -0.0487 -0.2609 -0.6824
22634SOL    HW171818   3.180   8.680   4.634 -1.5019  0.2184  2.0150
22634SOL    HW271819   3.317   8.726   4.677 -0.7205  0.2677 -0.3688
22635SOL     OW71820   8.433   5.251   5.599 -0.1112 -0.2539  0.1176
22635SOL    HW171821   8.446   5.279   5.690 -2.2650  0.4143  0.2772
22635SOL    HW271822   8.426   5.333   5.550  2.4401 -0.5872 -0.9603
22636SOL     OW71823   2.530   5.831   9.693 -0.0897  0.3811 -0.1348
22636SOL    HW171824   2.498   5.901   9.751  0.2542 -0.3734  0.9911
22636SOL    HW271825   2.625   5.834   9.703 -0.1326 -1.3753  1.3280
22637SOL     OW71826   2.785   5.725   5.856 -0.3536 -0.1037 -0.2245
22637SOL    HW171827   2.761   5.807   5.813 -1.0147 -0.3225 -0.2954
22637SOL    HW271828   2.856   5.690   5.803 -1.1469 -0.3656 -1.1558
22638SOL     OW71829   6.154   8.063   9.285  0.0113  0.0892  0.0383
22638SOL    HW171830   6.060   8.063   9.302 -0.1869 -0.4165 -0.9508
22638SOL    HW271831   6.187   7.988   9.334 -0.1013  0.2676  0.3896
22639SOL     OW71832   7.103   0.955   1.193 -0.0479 -0.1555  0.3469
22639SOL    HW171833   7.130   0.933   1.282 -0.8134  0.3572  0.7159
22639SOL    HW271834   7.184   0.952   1.142  0.7049  1.2010  1.3891
22640SOL     OW71835   0.641   1.552   7.490 -0.0496 -0.0623  0.4305
22640SOL    HW171836   0.649   1.549   7.586 -1.2676  1.3974  0.6199
22640SOL    HW271837   0.569   1.613   7.474  0.0185 -0.4103 -1.4285
22641SOL     OW71838   2.695   7.557   3.356 -0.1644  0.1923  0.0460
22641SOL    HW171839   2.761   7.591   3.416 -0.8934  2.7569 -0.5003
22641SOL    HW271840   2.736   7.562   3.269 -0.5483  0.4254 -0.1273
22642SOL     OW71841   6.843   0.634   4.301  0.3231 -0.1423 -0.0347
22642SOL    HW171842   6.818   0.583   4.377  0.6349 -0.0464  0.1335
22642SOL    HW271843   6.925   0.677   4.326 -0.7245  1.7104  0.4055
22643SOL     OW71844   5.294   8.707   0.021  0.4061 -0.1507  0.3550
22643SOL    HW171845   5.245   8.788   0.003  1.4490  0.5022  0.3770
22643SOL    HW271846   5.241   8.661   0.086 -0.7372 -0.0033 -0.4407
22644SOL     OW71847   8.658   9.148   7.779  0.2267 -0.0117 -0.0542
22644SOL    HW171848   8.612   9.162   7.862 -1.4716 -1.6458 -0.6551
22644SOL    HW271849   8.601   9.189   7.714  0.4498 -0.6294 -0.6411
22645SOL     OW71850   4.599   9.245   8.930 -0.8617  0.2790  0.0093
22645SOL    HW171851   4.551   9.212   9.006 -1.4741 -0.3115 -0.6274
22645SOL    HW271852   4.666   9.178   8.914  1.4108  1.8996  1.9659
22646SOL     OW71853   7.493   7.102   5.323  0.9252 -0.4796 -0.0274
22646SOL    HW171854   7.415   7.091   5.377  0.9727  2.9975  1.0014
22646SOL    HW271855   7.464   7.079   5.234 -1.1202  0.0635  0.4426
22647SOL     OW71856   8.061   1.385   3.103  0.3498  0.3890  0.0868
22647SOL    HW171857   8.135   1.361   3.159 -0.0398  0.5371  0.6768
22647SOL    HW271858   7.996   1.420   3.164  0.0613  0.8958 -0.5061
22648SOL     OW71859   2.620   0.722   0.369  0.0748  0.1455  0.2853
22648SOL    HW171860   2.706   0.750   0.338  0.3881 -1.4238 -0.3352
22648SOL    HW271861   2.573   0.804   0.385  1.6142  1.0363  0.4787
22649SOL     OW71862   7.240   0.486   9.213  0.1702 -0.1487  0.6818
22649SOL    HW171863   7.147   0.494   9.192  0.5487  3.5212 -0.3609
22649SOL    HW271864   7.243   0.490   9.309 -0.7099  2.6514  0.6753
22650SOL     OW71865   7.174   4.355   1.971 -0.9314  0.4159  0.3749
22650SOL    HW171866   7.148   4.447   1.965 -0.7111  0.4669  0.1920
22650SOL    HW271867   7.092   4.308   1.985 -1.1452  0.5577 -0.3955
22651SOL     OW71868   6.270   4.759   7.280  0.1686 -0.5203 -0.1721
22651SOL    HW171869   6.243   4.771   7.371  1.2208  0.3763  0.0550
22651SOL    HW271870   6.252   4.667   7.261  0.1823 -0.7909  1.0405
22652SOL     OW71871   6.654   9.290   9.797 -0.1214  0.4085  0.0726
22652SOL    HW171872   6.741   9.312   9.765 -0.8006  0.2812 -1.9820
22652SOL    HW271873   6.655   9.195   9.807 -0.1147  0.3697 -0.2806
22653SOL     OW71874   8.301   5.990   2.896 -0.1010 -0.6071  0.1361
22653SOL    HW171875   8.331   5.899   2.895  0.9051 -0.3380  1.6817
22653SOL    HW271876   8.235   5.992   2.965 -0.2868 -0.2139 -0.0545
22654SOL     OW71877   1.510   0.495   9.853 -1.0740  0.0124  0.2525
22654SOL    HW171878   1.519   0.467   9.944  0.1968  1.3464  0.5810
22654SOL    HW271879   1.528   0.417   9.801 -1.8295 -0.7668  1.1364
22655SOL     OW71880   7.653   5.009   9.848 -0.2991  0.8036  0.3192
22655SOL    HW171881   7.681   4.976   9.762 -1.3445  0.2205  0.1986
22655SOL    HW271882   7.727   5.063   9.877  2.0007 -2.4016  1.0136
22656SOL     OW71883   6.326   0.776   9.158 -0.0660 -0.1293 -0.9341
22656SOL    HW171884   6.351   0.781   9.250  1.1965  2.0870 -1.3203
22656SOL    HW271885   6.231   0.788   9.158 -0.0589 -0.0210  0.0849
22657SOL     OW71886   4.702   9.596   1.008 -0.2822  0.3259 -0.5636
22657SOL    HW171887   4.725   9.686   1.031 -2.0491  0.8259 -0.5959
22657SOL    HW271888   4.638   9.605   0.937  0.8574 -1.0275 -1.8142
22658SOL     OW71889   4.272   7.813   1.864  0.1544  0.0519  0.3893
22658SOL    HW171890   4.298   7.761   1.788 -0.8604 -0.4918  0.3968
22658SOL    HW271891   4.326   7.780   1.936  0.3672 -0.1531  0.1364
22659SOL     OW71892   4.193   3.886   6.745 -0.2705 -0.4818 -0.1603
22659SOL    HW171893   4.258   3.825   6.709 -0.6618 -0.0329 -1.7102
22659SOL    HW271894   4.112   3.863   6.700 -1.4087 -1.4749  2.2304
22660SOL     OW71895   5.096   9.945   4.361 -0.5497 -0.2383 -0.3759
22660SOL    HW171896   5.190   9.951   4.375 -0.2610 -1.4501 -1.6235
22660SOL    HW271897   5.085   9.950   4.266 -1.5359 -2.2478 -0.4077
22661SOL     OW71898   6.414   6.101   2.550  0.1951  0.2391 -0.0691
22661SOL    HW171899   6.478   6.141   2.609 -0.2279  0.0862  0.4952
22661SOL    HW271900   6.410   6.160   2.475 -1.5379  2.1122  1.3944
22662SOL     OW71901   1.145   0.288   5.204 -0.2628 -0.5034 -0.5756
22662SOL    HW171902   1.077   0.229   5.236 -1.8687  1.7709  0.4917
22662SOL    HW271903   1.110   0.325   5.123 -0.6541  1.1374  0.2889
22663SOL     OW71904   7.158   3.958   9.391 -0.0422  0.4264  0.6351
22663SOL    HW171905   7.119   4.022   9.450  0.4984  1.4241 -0.0689
22663SOL    HW271906   7.128   3.983   9.304 -0.2817 -0.6242  0.4034
22664SOL     OW71907   2.318   2.415   6.339 -0.4299 -0.9151 -0.8197
22664SOL    HW171908   2.238   2.448   6.379 -0.2021 -1.6041  0.2605
22664SOL    HW271909   2.289   2.363   6.264 -0.9970 -1.1276 -0.4586
22665SOL     OW71910   4.331   8.131   4.132  0.2063  0.3423 -0.3421
22665SOL    HW171911   4.282   8.202   4.173  1.1206  0.1638  1.1176
22665SOL    HW271912   4.340   8.158   4.040  0.2370  1.9453  0.1010
22666SOL     OW71913   6.607   9.398   4.406  0.3880 -0.5528  0.0463
22666SOL    HW171914   6.521   9.430   4.436 -0.5765 -0.6503 -2.3463
22666SOL    HW271915   6.592   9.306   4.385  0.2961 -0.0095 -2.7224
22667SOL     OW71916   3.860   2.491   6.109 -0.0729  0.2372 -0.0191
22667SOL    HW171917   3.915   2.538   6.171  1.6508 -0.4103 -0.9658
22667SOL    HW271918   3.861   2.545   6.030 -0.0050 -0.2173 -0.3403
22668SOL     OW71919   7.297   6.733   9.913 -0.3026 -0.0662  0.2691
22668SOL    HW171920   7.372   6.697   9.867 -0.3576  1.8008 -1.4309
22668SOL    HW271921   7.333   6.800   9.970 -0.5679 -0.0512  0.4238
22669SOL     OW71922   4.029   7.115   1.052 -0.1396 -0.0839  0.3012
22669SOL    HW171923   4.030   7.210   1.050 -0.2435 -0.0249  1.8346
22669SOL    HW271924   4.121   7.089   1.047 -0.1858 -0.0467 -2.5750
22670SOL     OW71925   4.948   9.124   6.877 -0.2111  0.3410 -0.1748
22670SOL    HW171926   5.030   9.125   6.926 -0.9795  0.9792  1.1578
22670SOL    HW271927   4.925   9.216   6.867 -1.0655  0.1526 -0.0027
22671SOL     OW71928   3.790  10.083   5.392 -0.0159 -0.2435 -0.7805
22671SOL    HW171929   3.858  10.123   5.445 -1.0919  0.4124  0.1572
22671SOL    HW271930   3.802   9.989   5.405 -1.7034 -0.1501  2.7358
22672SOL     OW71931   8.355   4.787   6.105  0.4231  0.1277 -0.0159
22672SOL    HW171932   8.288   4.720   6.099  2.2653 -2.2446  3.0209
22672SOL    HW271933   8.307   4.868   6.123 -1.6852 -1.0729  0.0040
22673SOL     OW71934   8.326   3.757   0.943 -0.4372  1.1623 -0.3808
22673SOL    HW171935   8.251   3.811   0.966  0.2726  1.4474  1.4747
22673SOL    HW271936   8.400   3.818   0.941  0.0911  0.5535  0.0323
22674SOL     OW71937   3.044   2.404   3.556  0.2483 -0.2208 -0.3851
22674SOL    HW171938   3.070   2.489   3.591  0.3767 -1.1063  1.7809
22674SOL    HW271939   3.000   2.425   3.473 -0.7814  2.0524  0.6618
22675SOL     OW71940   8.333   7.906   4.659  0.0335  0.0011 -0.0525
22675SOL    HW171941   8.250   7.939   4.693 -0.0884 -0.4080  0.0557
22675SOL    HW271942   8.333   7.928   4.566 -0.6751 -0.9332 -0.2904
22676SOL     OW71943   4.343   0.836   8.801 -0.0893  0.0485  0.0913
22676SOL    HW171944   4.279   0.904   8.823  0.8923  1.3480 -0.8534
22676SOL    HW271945   4.346   0.837   8.705  2.9494  1.6929  0.0770
22677SOL     OW71946   8.883   1.889   5.056  0.8374 -0.5800 -0.3223
22677SOL    HW171947   8.885   1.984   5.053 -2.1404 -0.4120  0.1285
22677SOL    HW271948   8.974   1.863   5.042  1.8921  2.3139  0.4426
22678SOL     OW71949   4.983   4.619   5.384  0.0510 -0.7748 -0.7294
22678SOL    HW171950   5.018   4.563   5.453  0.0119 -1.1154 -0.9852
22678SOL    HW271951   5.055   4.679   5.363 -0.3426  0.1508  0.4642
22679SOL     OW71952   2.422   9.941   5.149 -0.0090  0.0498  0.3004
22679SOL    HW171953   2.511   9.975   5.145 -0.6689  2.0409  1.2746
22679SOL    HW271954   2.410   9.914   5.240 -0.0521 -1.2833 -0.0838
22680SOL     OW71955   1.069   5.778   0.780 -0.2019 -0.0571  0.0377
22680SOL    HW171956   1.114   5.813   0.858  0.6636 -0.1810 -0.3992
22680SOL    HW271957   1.135   5.725   0.736 -0.2313  1.1669 -1.5586
22681SOL     OW71958   6.329   2.832   4.282 -0.1719  0.1507  0.4062
22681SOL    HW171959   6.359   2.923   4.279  0.1329  0.0256 -1.0639
22681SOL    HW271960   6.314   2.815   4.375  2.3783  0.8607  1.0388
22682SOL     OW71961   1.725   3.986   4.684  0.0613  1.4390 -0.1589
22682SOL    HW171962   1.758   3.938   4.608  0.1928  2.9138 -1.0646
22682SOL    HW271963   1.632   3.999   4.666  0.0038  1.4609  0.1363
22683SOL     OW71964   5.760   5.643   7.743  0.3958 -0.7954 -0.6830
22683SOL    HW171965   5.769   5.629   7.837  1.0942 -2.3405 -0.9481
22683SOL    HW271966   5.787   5.734   7.730 -0.7370 -0.2268  0.7182
22684SOL     OW71967   0.255   1.449   3.166  0.5006 -0.0815 -0.4861
22684SOL    HW171968   0.255   1.368   3.217  0.8990  0.8549  1.0414
22684SOL    HW271969   0.345   1.458   3.135  0.9766  0.7521  1.0143
22685SOL     OW71970   3.720   2.325   1.227 -0.4679 -0.6780  0.0763
22685SOL    HW171971   3.725   2.232   1.248  1.3316 -0.2513  1.9020
22685SOL    HW271972   3.810   2.349   1.203 -1.0790  0.4303 -1.2502
22686SOL     OW71973   1.239   0.344   3.885  0.3405  0.4389 -0.0563
22686SOL    HW171974   1.282   0.370   3.804 -2.0754 -0.9844 -1.9403
22686SOL    HW271975   1.146   0.341   3.863 -0.4947  0.5210  2.9580
22687SOL     OW71976   2.197   6.310   3.881  1.0954  0.2826 -0.0356
22687SOL    HW171977   2.152   6.233   3.847  1.7300  0.0722 -0.4095
22687SOL    HW271978   2.290   6.291   3.870  1.2580  1.2400 -0.4420
22688SOL     OW71979   6.878   0.118   2.299 -0.0287  0.4666 -0.3376
22688SOL    HW171980   6.904   0.129   2.390  1.5444  0.3473 -0.7468
22688SOL    HW271981   6.794   0.072   2.303  0.9835 -1.3517  1.0145
22689SOL     OW71982   7.718   5.758   5.390 -0.0390 -0.1079  0.0251
22689SOL    HW171983   7.626   5.739   5.371  0.4155 -1.0296 -1.5032
22689SOL    HW271984   7.751   5.800   5.310  1.2236 -1.1810 -0.0549
22690SOL     OW71985   3.711   8.621   2.822 -0.2044  0.1398 -0.3946
22690SOL    HW171986   3.725   8.713   2.846 -0.3008 -0.1948  0.9984
22690SOL    HW271987   3.798   8.587   2.804 -0.1511  0.4384 -0.7235
22691SOL     OW71988   1.471   9.183   8.625 -0.4248 -0.4483 -0.3585
22691SOL    HW171989   1.394   9.164   8.678  0.4724 -2.3526  0.3767
22691SOL    HW271990   1.465   9.276   8.605 -2.3779 -0.3500  0.5118
22692SOL     OW71991   7.225   2.354   6.369 -0.6076  0.1047  0.5573
22692SOL    HW171992   7.172   2.311   6.436 -2.9333 -0.0350 -1.1937
22692SOL    HW271993   7.188   2.443   6.362 -0.3445  0.1575 -0.4005
22693SOL     OW71994   0.398   9.707   2.276 -0.8505  0.2310 -0.1682
22693SOL    HW171995   0.325   9.654   2.244 -0.5505 -0.5545  0.4409
22693SOL    HW271996   0.441   9.739   2.196 -2.2071  1.2203 -0.5377
22694SOL     OW71997   7.017   6.783   1.691 -0.6907 -0.1522  0.4572
22694SOL    HW171998   6.941   6.742   1.732 -0.1475 -0.5008  1.1265
22694SOL    HW271999   6.996   6.876   1.690 -1.2661 -0.2800  0.3438
22695SOL     OW72000   5.716   5.189   3.532  0.1236  0.1243 -0.4434
22695SOL    HW172001   5.632   5.232   3.517 -0.4080  0.9310  3.6276
22695SOL    HW272002   5.780   5.260   3.537  0.2282 -0.0320  0.7715
22696SOL     OW72003   3.061   4.830   6.155 -0.5487 -0.1921  0.1189
22696SOL    HW172004   3.072   4.919   6.190  1.3935  0.1353 -1.1548
22696SOL    HW272005   3.017   4.782   6.225 -2.9719  2.0883  0.3124
22697SOL     OW72006   1.849   5.718   3.013  0.2915  0.0530 -0.0046
22697SOL    HW172007   1.941   5.742   3.014  1.2131 -2.8435  2.3564
22697SOL    HW272008   1.822   5.724   3.105 -1.3883 -0.7083 -0.4060
22698SOL     OW72009   4.472   4.273   2.771  0.1239  0.7906  0.0937
22698SOL    HW172010   4.434   4.185   2.773  1.9882 -0.0517  0.3353
22698SOL    HW272011   4.513   4.279   2.685 -1.5652  2.1720 -0.6688
22699SOL     OW72012   7.603   9.077   3.741 -0.0885 -0.2728 -0.5585
22699SOL    HW172013   7.537   9.024   3.786 -1.0500  0.7261 -0.7320
22699SOL    HW272014   7.556   9.157   3.716  1.5112  1.0812  0.4955
22700SOL     OW72015   4.926   9.006   2.682 -0.1509 -0.2238  0.0750
22700SOL    HW172016   4.895   8.979   2.769 -0.2538 -1.1734 -0.2509
22700SOL    HW272017   4.961   8.926   2.643  0.9318  0.4298 -0.3332
22701SOL     OW72018  10.161   6.839   0.038 -0.0210  0.0967 -0.1263
22701SOL    HW172019  10.137   6.921   0.081 -2.3476 -0.0803 -0.9476
22701SOL    HW272020  10.144   6.855  -0.055  1.4312 -0.7040 -0.5650
22702SOL     OW72021   9.148   8.150   7.347 -0.1480  0.8916 -0.6002
22702SOL    HW172022   9.185   8.164   7.260 -2.7404  0.7785 -1.7931
22702SOL    HW272023   9.119   8.059   7.347  1.0308  0.4619  0.9307
22703SOL     OW72024   6.198   6.171   1.382  0.2884  0.3230 -1.0014
22703SOL    HW172025   6.223   6.099   1.324  0.4211 -0.2569 -0.2532
22703SOL    HW272026   6.199   6.132   1.470 -4.1693 -0.0609 -0.9031
22704SOL     OW72027   6.283   8.844   4.793 -0.7160 -0.6826 -0.3933
22704SOL    HW172028   6.191   8.820   4.791 -0.8832 -0.1308  0.2290
22704SOL    HW272029   6.330   8.761   4.783 -1.2716 -0.8955 -1.3001
22705SOL     OW72030   5.008   9.650   5.927 -0.1676 -0.3980 -0.2836
22705SOL    HW172031   5.049   9.659   5.841 -0.1132 -0.8903 -0.3144
22705SOL    HW272032   4.914   9.649   5.908 -0.1642 -0.2029 -0.3089
22706SOL     OW72033   3.584   2.741   6.913  0.5794  0.6794  0.3560
22706SOL    HW172034   3.618   2.712   6.997  1.1845 -0.1825 -0.1684
22706SOL    HW272035   3.602   2.668   6.853 -0.2377  1.0940 -0.4237
22707SOL     OW72036   4.449   2.269   2.234 -0.1738  0.2970 -0.1420
22707SOL    HW172037   4.518   2.292   2.297 -0.8786 -0.0896  0.7909
22707SOL    HW272038   4.402   2.351   2.220  0.4899  0.5765 -0.8261
22708SOL     OW72039   0.814   7.127   9.940 -0.3987 -0.3930  0.3085
22708SOL    HW172040   0.830   7.045   9.894  0.9333 -0.0554  0.1387
22708SOL    HW272041   0.767   7.101  10.019 -0.7587 -1.2159 -0.1620
22709SOL     OW72042   3.106   4.197   3.019 -0.5733  0.2784  0.8582
22709SOL    HW172043   3.015   4.196   3.048 -1.1728 -1.4145 -0.8400
22709SOL    HW272044   3.109   4.265   2.952  0.2239  2.4871  3.0148
22710SOL     OW72045   1.148   4.894   5.142  0.2266 -0.2801 -0.1216
22710SOL    HW172046   1.121   4.812   5.182 -0.3114  0.7841  1.8338
22710SOL    HW272047   1.097   4.900   5.061  0.2633 -1.8340 -0.2812
22711SOL     OW72048   4.320   1.104   9.816 -0.3647 -0.4036 -0.0617
22711SOL    HW172049   4.255   1.040   9.845 -1.2939 -0.0552 -1.3346
22711SOL    HW272050   4.270   1.175   9.777  0.7723 -0.1943 -1.2171
22712SOL     OW72051   0.353   6.089   1.750 -0.2871  0.8547 -0.7848
22712SOL    HW172052   0.334   6.051   1.836 -0.1938 -0.7918 -1.4505
22712SOL    HW272053   0.283   6.153   1.736  0.2031  1.8070  0.8782
22713SOL     OW72054   1.683   6.877   5.453 -0.5159  0.0588  0.1812
22713SOL    HW172055   1.644   6.789   5.453 -2.0957  0.7271  0.1769
22713SOL    HW272056   1.608   6.936   5.455  0.3872  1.4770 -2.6479
22714SOL     OW72057   9.216   2.245   4.845 -0.6263  0.9064  0.4097
22714SOL    HW172058   9.217   2.256   4.940  0.0342  0.4378  0.4603
22714SOL    HW272059   9.281   2.177   4.827 -1.8361 -0.1201 -0.2459
22715SOL     OW72060   4.041   8.592   7.948  0.6579  0.5862 -0.2017
22715SOL    HW172061   4.099   8.656   7.907 -1.4234  1.9311 -1.1930
22715SOL    HW272062   3.983   8.644   8.003  0.9249 -0.8271  1.5297
22716SOL     OW72063   1.407   6.669   9.616  0.0019 -0.3985 -0.4615
22716SOL    HW172064   1.460   6.648   9.539 -1.1713  0.0359 -1.4147
22716SOL    HW272065   1.318   6.643   9.593 -0.5971  0.9039  0.2524
22717SOL     OW72066   5.553   0.277   6.959  0.0366 -0.1856 -0.3495
22717SOL    HW172067   5.614   0.260   7.031  1.0807  1.4285 -0.7890
22717SOL    HW272068   5.601   0.252   6.880  0.1821  1.1164 -0.7033
22718SOL     OW72069   5.152   5.337   9.651  0.1959  0.1534  0.6602
22718SOL    HW172070   5.169   5.376   9.566  1.0827 -0.5209  0.5088
22718SOL    HW272071   5.174   5.245   9.640  0.1498  0.0220  1.5716
22719SOL     OW72072   3.348   0.122   8.236 -0.7325 -0.1704 -0.1898
22719SOL    HW172073   3.326   0.061   8.306 -0.2766  0.3041  0.3731
22719SOL    HW272074   3.371   0.203   8.281 -1.6515  0.5329 -0.9348
22720SOL     OW72075   2.974  10.029   3.772 -0.0628 -0.0702 -0.0653
22720SOL    HW172076   2.987  10.055   3.681  1.7662 -1.0827 -0.1461
22720SOL    HW272077   2.967  10.111   3.820  0.9272  0.5234 -0.8878
22721SOL     OW72078   7.606   4.305   9.190 -0.2252  0.0702 -0.2802
22721SOL    HW172079   7.535   4.241   9.195  0.6199 -0.8209  0.6766
22721SOL    HW272080   7.657   4.279   9.114  1.0614 -1.4498  1.0359
22722SOL     OW72081   1.132   6.936   9.403  0.6154  0.8813 -0.5471
22722SOL    HW172082   1.099   6.922   9.314  1.0535  0.1758 -0.6132
22722SOL    HW272083   1.207   6.994   9.392  0.6533  0.8158 -0.6377
22723SOL     OW72084   8.812   7.556   1.249  0.2819 -0.0064 -0.2380
22723SOL    HW172085   8.803   7.622   1.318  3.7581 -0.6891  1.0906
22723SOL    HW272086   8.840   7.606   1.172  0.6714  0.3178  0.1066
22724SOL     OW72087  10.043   4.474   0.628  0.1323 -0.8105 -0.5593
22724SOL    HW172088   9.981   4.505   0.562  1.2080 -1.0168 -1.7055
22724SOL    HW272089   9.996   4.405   0.675 -1.4166  0.7817  0.3745
22725SOL     OW72090   6.080   4.906   2.600  0.0374 -0.1999  0.3241
22725SOL    HW172091   6.013   4.963   2.639  1.4130  0.8845  1.1896
22725SOL    HW272092   6.092   4.836   2.665 -0.0793 -0.2706  0.2710
22726SOL     OW72093   0.162   5.810   7.029  0.8158 -0.2761 -0.0552
22726SOL    HW172094   0.138   5.740   6.969 -1.6451  0.1881  0.2920
22726SOL    HW272095   0.184   5.884   6.973 -0.5478 -0.1316 -0.4247
22727SOL     OW72096   7.658   6.492   3.932  0.8647 -0.1276  0.1393
22727SOL    HW172097   7.693   6.572   3.890  0.6417  0.0398  0.2722
22727SOL    HW272098   7.733   6.455   3.978  0.7936  0.4154  0.7035
22728SOL     OW72099   5.657   5.744   1.212  0.3440  0.7628 -0.0165
22728SOL    HW172100   5.633   5.676   1.149 -0.1147  1.1193 -0.2260
22728SOL    HW272101   5.624   5.825   1.174 -1.0617  0.8367  1.2734
22729SOL     OW72102   4.465  10.125   7.650 -0.5829 -0.0568 -0.2632
22729SOL    HW172103   4.430  10.196   7.703  0.6100  0.7151 -0.4682
22729SOL    HW272104   4.443  10.149   7.560 -0.4282 -0.0902 -0.3106
22730SOL     OW72105   1.989   7.253   0.444  0.3503  0.0929  0.1181
22730SOL    HW172106   1.954   7.222   0.361 -2.3364  2.3124  0.2764
22730SOL    HW272107   2.066   7.304   0.420 -0.2576  0.5212 -1.0111
22731SOL     OW72108   1.587   8.316   0.729 -0.4994  0.1779  0.5510
22731SOL    HW172109   1.669   8.360   0.752 -1.0485  1.2223  0.5867
22731SOL    HW272110   1.613   8.228   0.704  0.5902  0.3709  0.9476
22732SOL     OW72111   1.979   5.670   7.609  0.0355  0.2507 -0.6206
22732SOL    HW172112   1.947   5.736   7.547 -2.4124  0.8522  1.1268
22732SOL    HW272113   2.050   5.713   7.656 -0.9685  1.4014 -0.0897
22733SOL     OW72114   6.491   0.014   6.754  0.2045  0.0327  0.2910
22733SOL    HW172115   6.552  -0.034   6.810  0.6849  1.7445  1.2885
22733SOL    HW272116   6.547   0.070   6.700 -0.3308 -0.7232 -1.1100
22734SOL     OW72117   7.219   6.316   3.435  0.1758 -0.1035  0.7580
22734SOL    HW172118   7.167   6.372   3.493 -1.9570 -0.1729 -0.9504
22734SOL    HW272119   7.160   6.244   3.412  0.0298  1.0314 -3.1514
22735SOL     OW72120   7.078   5.220   7.383 -0.7301 -0.6454 -0.2216
22735SOL    HW172121   7.126   5.294   7.344  0.7833 -0.9006  1.0364
22735SOL    HW272122   7.015   5.194   7.316 -0.8237  1.3339 -0.9641
22736SOL     OW72123   6.232   7.969   7.334 -0.3636  0.1072  0.3578
22736SOL    HW172124   6.217   7.926   7.418  0.0594 -1.2139 -0.2179
22736SOL    HW272125   6.215   8.062   7.351  0.0741 -0.0886  1.9851
22737SOL     OW72126   2.387   0.228   4.322  0.1242 -0.0605  0.0979
22737SOL    HW172127   2.312   0.257   4.374 -0.9607 -0.9241 -0.9487
22737SOL    HW272128   2.388   0.133   4.333  1.4913 -0.0038  0.6344
22738SOL     OW72129   4.117   5.763   7.149 -0.1046 -0.2838  0.2894
22738SOL    HW172130   4.046   5.707   7.180  1.4600 -1.8808  1.1948
22738SOL    HW272131   4.122   5.746   7.055 -0.9482 -0.0889  0.1979
22739SOL     OW72132   4.604   8.322   0.469 -0.1048 -0.1285  0.3065
22739SOL    HW172133   4.538   8.363   0.525  0.1693  0.9659 -0.1318
22739SOL    HW272134   4.688   8.354   0.504  0.2859 -2.2680  1.4663
22740SOL     OW72135   3.586   2.635   2.140  0.1944 -0.0722  0.0035
22740SOL    HW172136   3.498   2.633   2.177  0.3095 -2.5613  0.3217
22740SOL    HW272137   3.573   2.635   2.045 -0.1288  0.8381  0.0439
22741SOL     OW72138   0.775   3.479   4.045  0.3504 -0.0501  0.0940
22741SOL    HW172139   0.855   3.447   4.004  1.2382 -0.5291  2.1152
22741SOL    HW272140   0.704   3.436   3.997  1.3279 -0.5752 -0.9160
22742SOL     OW72141   1.292   7.418   9.904 -0.0246 -0.4086  0.3931
22742SOL    HW172142   1.263   7.482   9.969 -0.7263 -1.2373  0.9203
22742SOL    HW272143   1.215   7.363   9.889  0.4286 -0.8462 -0.3990
22743SOL     OW72144   7.741   7.399   7.022 -0.5111  0.2409  0.8058
22743SOL    HW172145   7.824   7.355   7.003  0.2769  2.0684 -0.2576
22743SOL    HW272146   7.684   7.375   6.949 -0.0593  0.9431  0.1920
22744SOL     OW72147   4.686   9.489   2.818 -0.2019  0.3282  0.0653
22744SOL    HW172148   4.646   9.574   2.837  1.3796  0.6151  2.6887
22744SOL    HW272149   4.688   9.444   2.903  0.2215 -1.8074 -0.9991
22745SOL     OW72150   5.726   1.141   4.593 -0.3195 -0.0023  0.8203
22745SOL    HW172151   5.753   1.231   4.578  2.1710 -1.0806 -2.2849
22745SOL    HW272152   5.799   1.100   4.638 -0.0310 -1.1342 -0.5868
22746SOL     OW72153   8.329   9.878   1.470 -0.1732 -0.7728  0.0098
22746SOL    HW172154   8.292   9.812   1.528 -2.8562  2.4769  2.4022
22746SOL    HW272155   8.419   9.888   1.499 -0.7379 -1.0130  1.9851
22747SOL     OW72156   9.075   3.942   2.440  0.5371  0.0451 -0.3956
22747SOL    HW172157   9.030   3.967   2.360  3.0007  3.9995 -0.8371
22747SOL    HW272158   9.007   3.940   2.507 -1.0394  0.5416 -1.9127
22748SOL     OW72159   0.450   5.849   4.724  0.5749  0.1622  0.3248
22748SOL    HW172160   0.396   5.887   4.793 -0.5484 -0.6153 -0.1096
22748SOL    HW272161   0.407   5.874   4.642  0.4348 -1.0804  0.0019
22749SOL     OW72162   8.560   5.056   9.212 -0.0698  0.1802 -0.0922
22749SOL    HW172163   8.527   5.032   9.126 -0.0577 -1.8517  0.4341
22749SOL    HW272164   8.488   5.037   9.272  0.1258  1.0236  0.4221
22750SOL     OW72165  10.193   9.241   9.704 -0.4406  0.1545 -0.2749
22750SOL    HW172166  10.177   9.155   9.742  0.7905  0.3270  0.6868
22750SOL    HW272167  10.265   9.227   9.642  0.4924  0.6647  0.6674
22751SOL     OW72168   3.907   8.894   9.266  0.6053  0.1607 -0.4281
22751SOL    HW172169   3.812   8.904   9.272  0.7311  0.7739  0.6572
22751SOL    HW272170   3.932   8.846   9.345  1.0420 -1.4203 -1.4611
22752SOL     OW72171   7.284   7.938   3.052  0.0951  0.3961 -0.2492
22752SOL    HW172172   7.201   7.977   3.025  0.6312  2.5394  0.9412
22752SOL    HW272173   7.318   7.897   2.972 -1.9056 -0.2438 -0.8385
22753SOL     OW72174   2.151   9.373   9.406 -0.1051 -0.1284  0.1667
22753SOL    HW172175   2.139   9.327   9.324  0.1318  0.1450 -0.0240
22753SOL    HW272176   2.063   9.384   9.441 -0.2661  0.3338 -0.3712
22754SOL     OW72177   2.377   0.310   9.641 -0.3274  0.0787 -0.1506
22754SOL    HW172178   2.396   0.265   9.558  0.4050 -2.2010  1.1607
22754SOL    HW272179   2.296   0.270   9.672 -0.4388  0.7021  0.3902
22755SOL     OW72180   2.740   1.735   3.847  0.1074 -0.0113  0.0516
22755SOL    HW172181   2.665   1.710   3.793 -0.1131  2.4580 -0.8820
22755SOL    HW272182   2.706   1.800   3.908  1.6429  1.8766 -1.0142
22756SOL     OW72183   1.825   9.194   1.377  0.1685 -0.2399  0.3708
22756SOL    HW172184   1.750   9.251   1.396 -0.3154 -1.1512  1.3193
22756SOL    HW272185   1.894   9.225   1.436  1.5384  2.3610 -2.3514
22757SOL     OW72186   4.892   3.881   6.803 -0.0361  0.2017  0.2936
22757SOL    HW172187   4.970   3.825   6.797 -0.0049  0.0053  1.9755
22757SOL    HW272188   4.836   3.852   6.730  1.3993  0.2809 -0.8816
22758SOL     OW72189   1.919   7.038   4.045  0.0105  0.4907 -0.1016
22758SOL    HW172190   1.847   7.006   3.990  0.2685  1.6724 -1.1804
22758SOL    HW272191   1.879   7.056   4.130 -0.3338 -1.7187  0.2552
22759SOL     OW72192   8.898   8.014   4.619 -0.0624  0.1262 -0.0080
22759SOL    HW172193   8.885   8.085   4.555  0.2237  0.7742  0.6306
22759SOL    HW272194   8.941   7.945   4.569  1.6812  1.2634 -0.1839
22760SOL     OW72195   3.039   8.791   8.041  0.3538  0.1393  0.3983
22760SOL    HW172196   2.975   8.757   8.103  0.1862 -0.9735 -0.3521
22760SOL    HW272197   3.018   8.884   8.032 -0.6206 -0.0345  0.8000
22761SOL     OW72198   6.190   1.965   9.874 -0.0569  0.1662  0.4905
22761SOL    HW172199   6.226   2.035   9.820  0.1658  0.3513  0.8760
22761SOL    HW272200   6.166   2.008   9.956 -3.1552  0.5002 -0.4677
22762SOL     OW72201   8.555   8.334   7.722  0.4695 -0.4583  0.1003
22762SOL    HW172202   8.615   8.309   7.652  0.2549 -1.5043  0.2684
22762SOL    HW272203   8.583   8.422   7.747  0.8730 -0.2749 -0.9394
22763SOL     OW72204   4.002   3.361   0.691 -0.0170  0.5853  0.2300
22763SOL    HW172205   3.981   3.361   0.598  0.2380  0.2495  0.1704
22763SOL    HW272206   4.095   3.387   0.695  0.7471 -1.8606  0.1934
22764SOL     OW72207   5.978   5.591   2.464 -0.0826 -0.0374 -0.1236
22764SOL    HW172208   6.049   5.535   2.494 -2.0834 -2.0460  1.1135
22764SOL    HW272209   5.940   5.543   2.390 -1.3848  0.0300  0.4930
22765SOL     OW72210   1.461   0.558   5.845  0.2451  0.0663 -0.0082
22765SOL    HW172211   1.396   0.536   5.778  1.7421 -0.4531 -1.3697
22765SOL    HW272212   1.414   0.615   5.906 -1.3104  0.2302 -1.2810
22766SOL     OW72213   8.430   6.981   8.453  0.7368 -0.4473 -0.0744
22766SOL    HW172214   8.359   6.938   8.406  1.2951 -0.4287 -0.9713
22766SOL    HW272215   8.429   6.943   8.540 -0.1953 -0.6401 -0.1664
22767SOL     OW72216   6.207   8.238   6.937 -0.4977  0.1555  0.1853
22767SOL    HW172217   6.156   8.266   7.013  0.0483  1.6448  0.0317
22767SOL    HW272218   6.286   8.292   6.940 -0.3986  0.1348 -1.3563
22768SOL     OW72219   5.151   4.305   6.886 -0.3430  0.5580 -0.0663
22768SOL    HW172220   5.212   4.308   6.960 -0.2624 -0.4753 -0.0731
22768SOL    HW272221   5.149   4.213   6.860 -0.1261  0.9419 -1.5571
22769SOL     OW72222   4.684   3.331   6.093  0.6731 -0.0466  0.8099
22769SOL    HW172223   4.750   3.400   6.102  1.1630 -0.5992  1.5646
22769SOL    HW272224   4.670   3.299   6.182 -2.4225  1.6708  1.1117
22770SOL     OW72225   3.854   5.378   9.906 -0.1849  0.6973 -0.5461
22770SOL    HW172226   3.788   5.371   9.837  0.6802  1.6132 -1.5042
22770SOL    HW272227   3.889   5.289   9.914 -0.0999  0.6304 -1.5043
22771SOL     OW72228   0.534   4.753   4.115  0.5276 -0.1481 -0.0308
22771SOL    HW172229   0.471   4.713   4.175  1.5037 -2.6182 -0.5427
22771SOL    HW272230   0.613   4.765   4.168  0.6906 -0.2672 -0.2439
22772SOL     OW72231   5.227   3.193   1.699 -0.0663 -0.5743  0.0862
22772SOL    HW172232   5.218   3.257   1.770  0.7203 -0.7529  0.3580
22772SOL    HW272233   5.220   3.108   1.743  1.3270 -0.6977  0.0908
22773SOL     OW72234   4.333   7.239   8.335 -0.0604  0.1659  0.2423
22773SOL    HW172235   4.345   7.148   8.361 -0.9824 -0.3183 -0.9051
22773SOL    HW272236   4.238   7.252   8.337  0.0169  0.8759 -0.3239
22774SOL     OW72237   8.526   9.919   7.954  0.2630 -0.3178  0.2301
22774SOL    HW172238   8.551   9.838   7.910 -0.3231  0.1390 -1.0105
22774SOL    HW272239   8.529   9.898   8.047  1.0387 -1.4833 -0.0350
22775SOL     OW72240   4.144   3.691   7.114  0.4586  0.0439 -0.2634
22775SOL    HW172241   4.149   3.703   7.209 -1.6241 -0.9483  0.0390
22775SOL    HW272242   4.157   3.779   7.078  2.3974  0.2522  0.8457
22776SOL     OW72243   4.504   5.932   1.446  0.0573 -0.4980  0.3337
22776SOL    HW172244   4.493   5.837   1.452 -0.1250 -0.4818  0.2771
22776SOL    HW272245   4.515   5.961   1.537 -1.7899 -0.3553  0.5662
22777SOL     OW72246   2.340   9.645  10.073 -0.4964 -0.1399 -0.2734
22777SOL    HW172247   2.267   9.623  10.130 -1.6270 -0.0495 -1.6175
22777SOL    HW272248   2.304   9.709  10.012  0.9207  0.4560 -0.5210
22778SOL     OW72249   9.181   4.725   2.664  0.1185  0.3283 -0.2204
22778SOL    HW172250   9.184   4.820   2.664 -0.2027  0.3451  0.1319
22778SOL    HW272251   9.096   4.704   2.626 -0.2849  0.2196  0.6987
22779SOL     OW72252   8.378   9.808   1.779 -0.1670 -0.1022 -0.3302
22779SOL    HW172253   8.372   9.864   1.856  0.1214  0.3769 -0.6494
22779SOL    HW272254   8.408   9.723   1.812  4.7190  1.2931 -0.3905
22780SOL     OW72255   3.798   0.282   1.199 -0.1065  0.1522  0.5626
22780SOL    HW172256   3.721   0.248   1.244  0.3498  0.1326  1.3538
22780SOL    HW272257   3.765   0.354   1.146 -0.9247 -0.8674 -0.3748
22781SOL     OW72258   1.899   1.419   2.836 -0.1622  0.2171  0.0844
22781SOL    HW172259   1.898   1.492   2.774  0.7688 -0.7199 -1.0824
22781SOL    HW272260   1.910   1.341   2.781  1.3875 -0.5910  1.4674
22782SOL     OW72261   8.994   4.645   3.188  0.8404  0.0873 -0.8082
22782SOL    HW172262   8.913   4.680   3.151  0.9414  0.8499 -0.3318
22782SOL    HW272263   9.055   4.719   3.185  0.3767  0.7312  2.4067
22783SOL     OW72264   3.796   3.659   1.691  0.1131  0.2504  0.9684
22783SOL    HW172265   3.852   3.611   1.752  0.6645  1.2916  1.3044
22783SOL    HW272266   3.763   3.592   1.631  1.6524 -0.3899  0.8115
22784SOL     OW72267   3.246   7.297   3.375 -0.1913  0.2935 -0.5699
22784SOL    HW172268   3.279   7.210   3.351  1.5665  1.2094 -1.6811
22784SOL    HW272269   3.153   7.294   3.352 -0.7204 -1.9371  1.3762
22785SOL     OW72270   5.860   3.438   0.995  0.1908  0.8003  0.4769
22785SOL    HW172271   5.918   3.486   0.935  1.0003  0.6492  1.1187
22785SOL    HW272272   5.812   3.506   1.042 -0.8343  0.9136 -0.6928
22786SOL     OW72273   6.432   5.002   7.561 -0.2230 -0.6247 -0.4872
22786SOL    HW172274   6.384   5.084   7.562  1.4348  0.3923  0.2047
22786SOL    HW272275   6.485   5.005   7.482 -1.2706 -1.7594 -1.2743
22787SOL     OW72276   2.796   6.727   8.672  0.2075  0.3323  0.1638
22787SOL    HW172277   2.774   6.797   8.611 -0.3361  0.6250  0.6848
22787SOL    HW272278   2.755   6.753   8.754  1.7590  0.4383  0.9449
22788SOL     OW72279   8.010   5.637   9.052 -0.0358  0.3911  0.7155
22788SOL    HW172280   8.092   5.630   9.005 -0.6098  0.7769 -0.3659
22788SOL    HW272281   8.019   5.575   9.124  0.6328 -0.6576 -0.2382
22789SOL     OW72282   0.518   1.149   9.734  0.6267 -0.4507 -0.0763
22789SOL    HW172283   0.463   1.137   9.657  1.1596  0.2558 -0.5768
22789SOL    HW272284   0.573   1.071   9.737 -0.9493 -1.6012  0.9269
22790SOL     OW72285   3.248   9.790   4.318  0.0989 -0.3464  0.4541
22790SOL    HW172286   3.160   9.760   4.296  0.5786 -0.8203 -0.9971
22790SOL    HW272287   3.235   9.859   4.382 -1.4235  0.5956 -0.8013
22791SOL     OW72288   1.783   4.777   6.930 -0.2817  0.1633 -0.3311
22791SOL    HW172289   1.702   4.825   6.944 -0.1055  0.2922  0.2672
22791SOL    HW272290   1.760   4.707   6.869 -0.6882  0.6050 -0.6947
22792SOL     OW72291   3.303   7.714   7.631 -0.2498  0.0888 -0.0190
22792SOL    HW172292   3.337   7.632   7.666 -0.5929 -0.4393 -0.8980
22792SOL    HW272293   3.302   7.773   7.706  2.6030  0.1712  0.0657
22793SOL     OW72294   2.054   2.130   8.511 -0.0670 -0.9103 -0.9284
22793SOL    HW172295   2.061   2.184   8.433 -1.2645 -1.4058 -1.4126
22793SOL    HW272296   1.965   2.094   8.507 -0.8181  0.4281  1.5659
22794SOL     OW72297   0.738   3.608   1.895  0.3187  0.1744 -0.3377
22794SOL    HW172298   0.646   3.611   1.921  0.7634 -0.7057  1.5538
22794SOL    HW272299   0.783   3.660   1.962  1.5732 -2.4352  1.0310
22795SOL     OW72300   6.656   6.716   5.459 -0.3644  0.0448 -0.0090
22795SOL    HW172301   6.748   6.708   5.485 -0.8234 -1.2379  1.3116
22795SOL    HW272302   6.660   6.729   5.364  1.1149 -2.4177 -0.3709
22796SOL     OW72303   0.520   9.978   2.977  0.0281  0.4817 -0.1335
22796SOL    HW172304   0.477  10.057   3.010 -0.8521 -0.8294  2.0919
22796SOL    HW272305   0.528   9.921   3.054 -0.9844 -2.3257 -1.9365
22797SOL     OW72306   0.232   8.850   7.167 -0.5663 -0.2705  0.1434
22797SOL    HW172307   0.211   8.797   7.090  2.1761  0.7358 -1.4012
22797SOL    HW272308   0.323   8.831   7.187 -0.6440  0.9404  2.0091
22798SOL     OW72309   1.916   1.058   6.031  0.4159 -0.1988  0.0416
22798SOL    HW172310   1.950   0.972   6.053 -0.0891 -0.3762  0.1376
22798SOL    HW272311   1.975   1.090   5.962  1.8260  0.2277  1.3714
22799SOL     OW72312   5.250   7.652   2.104  0.0694  0.1743 -0.2054
22799SOL    HW172313   5.310   7.662   2.178  0.0395 -0.2498 -0.1209
22799SOL    HW272314   5.213   7.739   2.091 -1.1108 -0.0803  1.2864
22800SOL     OW72315   2.278   1.455   5.597 -0.2861  0.6101 -0.0595
22800SOL    HW172316   2.200   1.502   5.569 -0.4115  0.0366 -0.6951
22800SOL    HW272317   2.259   1.363   5.578  0.3258  0.4055  0.2879
22801SOL     OW72318   3.794   1.167   6.826  0.1347 -0.4925 -0.4034
22801SOL    HW172319   3.843   1.245   6.852 -0.4935 -0.2110 -0.0238
22801SOL    HW272320   3.819   1.100   6.890 -0.6107 -0.1018  0.3230
22802SOL     OW72321   5.637   8.205   5.489  0.8293 -0.7028  0.0393
22802SOL    HW172322   5.624   8.269   5.559 -1.4191 -1.6513  0.5788
22802SOL    HW272323   5.716   8.235   5.443 -0.5465  2.9730 -0.2765
22803SOL     OW72324   0.052   2.876   6.709 -0.7362 -0.4050 -0.5574
22803SOL    HW172325   0.029   2.964   6.742  1.1652  0.8420 -2.3590
22803SOL    HW272326  -0.017   2.820   6.744 -2.3596  1.8864  0.2103
22804SOL     OW72327   1.517   4.787   6.916 -0.1107  0.2710 -0.5610
22804SOL    HW172328   1.433   4.834   6.921 -0.3204 -0.1178 -0.4219
22804SOL    HW272329   1.503   4.719   6.851 -0.4516 -0.8839  0.6726
22805SOL     OW72330   9.344   4.976   6.708  0.2375 -0.3373 -0.0035
22805SOL    HW172331   9.262   5.024   6.696  0.4508 -0.0614 -0.3860
22805SOL    HW272332   9.335   4.900   6.649  0.3470 -0.1876 -0.2157
22806SOL     OW72333   9.202   2.749   1.829  0.4491  0.6932  0.3005
22806SOL    HW172334   9.229   2.817   1.890  0.7552  1.2009 -0.3955
22806SOL    HW272335   9.163   2.681   1.884  1.7766  0.6162  1.1763
22807SOL     OW72336   4.417   3.150   1.057  0.3022 -0.6900  0.6513
22807SOL    HW172337   4.473   3.096   1.003  1.2018  1.2287 -0.4561
22807SOL    HW272338   4.434   3.240   1.027 -2.8737  0.0510  0.7027
22808SOL     OW72339   4.966   8.920   9.122  0.3920 -0.3185  0.0673
22808SOL    HW172340   5.016   9.001   9.134  1.4645 -1.0125  0.4106
22808SOL    HW272341   5.027   8.860   9.080 -0.5572 -0.7966 -0.6731
22809SOL     OW72342   7.791   7.041   7.251  0.1571 -0.3930 -0.3280
22809SOL    HW172343   7.849   7.073   7.182  0.6369 -1.1277 -0.2790
22809SOL    HW272344   7.848   6.990   7.309 -0.0679  0.9253  1.1026
22810SOL     OW72345   8.000   8.185   6.944  0.0745 -0.2572  0.2725
22810SOL    HW172346   8.033   8.242   6.875  0.3484 -1.2876 -0.4737
22810SOL    HW272347   7.983   8.244   7.018  0.6036  0.7383 -0.3772
22811SOL     OW72348   7.847   9.786   9.585  0.3011 -0.2607  0.1827
22811SOL    HW172349   7.775   9.846   9.569 -0.9722 -2.0190 -0.9885
22811SOL    HW272350   7.911   9.805   9.516 -0.0096 -0.1279 -0.0672
22812SOL     OW72351   7.464   8.095   7.367 -0.3136  0.5593 -0.1724
22812SOL    HW172352   7.402   8.032   7.331  0.0034 -0.4581  0.9744
22812SOL    HW272353   7.458   8.171   7.309 -1.3052 -0.2059 -1.1185
22813SOL     OW72354   3.297   4.144   3.379  0.0105 -0.4785  0.3833
22813SOL    HW172355   3.227   4.166   3.440  0.1076 -0.7237  0.5870
22813SOL    HW272356   3.329   4.228   3.347  1.0077 -0.2490  1.8654
22814SOL     OW72357   5.368   4.336   7.748 -0.0814  0.0650 -0.2731
22814SOL    HW172358   5.416   4.295   7.820 -2.1741 -0.4600  0.9049
22814SOL    HW272359   5.291   4.281   7.736 -0.3031  0.7275 -2.2661
22815SOL     OW72360  10.179   4.942   4.266  0.2208 -0.1688  0.2438
22815SOL    HW172361  10.163   4.856   4.306 -0.2777  0.4740  1.4922
22815SOL    HW272362  10.110   4.950   4.199  1.0439 -1.2465 -0.7655
22816SOL     OW72363   1.946   8.919   7.729 -0.6642  0.1574  0.0424
22816SOL    HW172364   1.987   8.916   7.816  1.7479  0.6428 -0.9984
22816SOL    HW272365   1.923   8.828   7.710 -0.8634 -0.0059  1.0379
22817SOL     OW72366   2.590   8.646   7.649  0.4666 -0.2445  0.0799
22817SOL    HW172367   2.659   8.630   7.585  0.7932 -0.3990  0.4636
22817SOL    HW272368   2.602   8.579   7.715 -1.6503 -1.9068 -1.0992
22818SOL     OW72369   4.486   1.074   2.517 -0.4598  0.6353 -0.1097
22818SOL    HW172370   4.400   1.060   2.477  0.1949 -0.7232 -1.1238
22818SOL    HW272371   4.471   1.063   2.611 -1.3200  0.0078 -0.3054
22819SOL     OW72372   4.410   1.105   8.673 -0.3393  0.2879 -0.1393
22819SOL    HW172373   4.394   1.181   8.728 -1.1000  1.3874 -1.8290
22819SOL    HW272374   4.504   1.088   8.684  0.0766  2.1179 -0.5183
22820SOL     OW72375   7.106   2.148   7.533 -0.8413 -0.3108 -0.6089
22820SOL    HW172376   7.039   2.133   7.600 -0.9715  0.9648 -0.4363
22820SOL    HW272377   7.146   2.062   7.521 -1.1275 -0.6697  0.7684
22821SOL     OW72378   0.007   4.073   4.053 -0.2569 -0.4305 -0.2885
22821SOL    HW172379  -0.061   4.131   4.018  1.5111  1.4250 -0.8543
22821SOL    HW272380   0.089   4.109   4.019  1.0582 -2.3781  0.6402
22822SOL     OW72381   8.641   8.036   4.798 -0.7856 -0.7421  0.3881
22822SOL    HW172382   8.639   8.058   4.891  1.8654 -0.4049  0.4215
22822SOL    HW272383   8.584   8.101   4.757 -0.1828  0.5489  1.5219
22823SOL     OW72384   7.151   3.188   3.519  0.3620  0.5433  0.9673
22823SOL    HW172385   7.216   3.203   3.588  1.4173  2.4967 -0.3715
22823SOL    HW272386   7.201   3.152   3.446 -0.7694 -1.6398  1.1948
22824SOL     OW72387   1.190   3.056   1.887  0.2980  0.2351 -0.1653
22824SOL    HW172388   1.249   2.981   1.880 -0.2622 -0.2503  0.2869
22824SOL    HW272389   1.232   3.113   1.952  1.7487  1.2910 -1.9245
22825SOL     OW72390   5.331   3.946   3.259 -0.2698 -0.2226 -0.7987
22825SOL    HW172391   5.310   3.853   3.255 -4.0851  0.4012  0.4850
22825SOL    HW272392   5.308   3.972   3.349  2.5785  1.6574 -0.4834
22826SOL     OW72393   1.187   0.816   4.916 -0.0144  0.0694 -0.2619
22826SOL    HW172394   1.119   0.881   4.935  1.0692  1.3963 -0.7545
22826SOL    HW272395   1.184   0.807   4.820 -0.0087 -0.4611 -0.2161
22827SOL     OW72396   0.655   0.745  10.103 -0.3078 -0.1328 -0.4478
22827SOL    HW172397   0.735   0.702  10.074  0.1332 -1.2436  2.1173
22827SOL    HW272398   0.684   0.833  10.129  0.0677 -0.4309  0.1856
22828SOL     OW72399   8.544   4.512   6.231 -0.1812  0.7473  0.0317
22828SOL    HW172400   8.493   4.500   6.150 -1.0655  2.9145  0.1979
22828SOL    HW272401   8.510   4.593   6.268  1.3698  0.6623  1.7421
22829SOL     OW72402  10.181   1.373   0.898  0.0633 -0.2415 -0.3721
22829SOL    HW172403  10.250   1.314   0.870  1.4986  0.7774  0.8113
22829SOL    HW272404  10.107   1.354   0.841  1.7630 -0.4351 -2.6389
22830SOL     OW72405   3.448   5.994   0.093 -0.4642  0.0607  0.3198
22830SOL    HW172406   3.434   5.917   0.148 -1.0014 -0.2714 -0.2557
22830SOL    HW272407   3.457   5.958   0.004  1.1811  0.5187  0.2707
22831SOL     OW72408   6.697   4.802   6.671 -0.4953 -0.6111  1.0364
22831SOL    HW172409   6.745   4.876   6.633 -1.9367 -1.0018 -1.7572
22831SOL    HW272410   6.642   4.842   6.738 -0.8925  0.8199 -0.0917
22832SOL     OW72411   1.842   0.219   4.139  0.4912  0.6446  0.0062
22832SOL    HW172412   1.868   0.273   4.064 -1.7922  0.2879 -1.1247
22832SOL    HW272413   1.763   0.261   4.173 -1.4250 -1.9320 -0.9671
22833SOL     OW72414   9.740   9.123   4.220 -0.1426  0.1130  0.0241
22833SOL    HW172415   9.784   9.101   4.138 -0.4594 -0.7962  0.0880
22833SOL    HW272416   9.672   9.057   4.230  1.0329 -0.8923  1.9239
22834SOL     OW72417   4.000   0.257   7.490 -0.1637 -0.1150 -0.8229
22834SOL    HW172418   3.948   0.304   7.424  1.2522 -0.3904 -2.1839
22834SOL    HW272419   3.989   0.309   7.569 -0.2617  1.3986 -1.7792
22835SOL     OW72420   5.703   7.287   6.075 -0.2060  0.1070 -0.2370
22835SOL    HW172421   5.640   7.268   6.005  0.1383 -0.2975 -0.4408
22835SOL    HW272422   5.779   7.233   6.054  0.2663  0.7062 -0.0680
22836SOL     OW72423   5.057   6.881   6.698 -0.1274  0.1126 -0.2717
22836SOL    HW172424   5.100   6.809   6.745  1.2891  1.0448 -0.0767
22836SOL    HW272425   4.983   6.906   6.755 -0.3016 -0.8151 -0.0810
22837SOL     OW72426   9.819   6.035   7.162 -0.0117  0.4209  0.1765
22837SOL    HW172427   9.826   6.126   7.134  0.1933  0.6064  0.8089
22837SOL    HW272428   9.727   6.012   7.148  0.3954 -0.0407 -2.2174
22838SOL     OW72429  10.174   0.752   2.667 -0.1159 -0.1128 -0.2910
22838SOL    HW172430  10.175   0.664   2.631 -1.3831 -0.0345 -0.5543
22838SOL    HW272431  10.243   0.751   2.733  0.6760 -0.9422 -1.0950
22839SOL     OW72432   0.721   1.851  10.028  0.3104  0.2815  0.4985
22839SOL    HW172433   0.757   1.799   9.956  2.3801  0.5120  1.2819
22839SOL    HW272434   0.774   1.825  10.105  1.4912  3.4755  0.9189
22840SOL     OW72435   8.088   8.414   0.138  0.0189 -0.1046 -0.1073
22840SOL    HW172436   8.046   8.331   0.114 -1.5490  1.1697 -2.0628
22840SOL    HW272437   8.020   8.461   0.188  0.8602  0.0785  0.8978
22841SOL     OW72438   0.262   6.604   9.774  0.1628  0.3589 -0.6452
22841SOL    HW172439   0.321   6.628   9.845 -0.3641 -0.6910  0.1684
22841SOL    HW272440   0.251   6.685   9.724  0.5348  1.1238  0.4701
22842SOL     OW72441   4.420   1.750   0.867  0.3224  0.0946  0.0554
22842SOL    HW172442   4.339   1.802   0.872 -0.3736 -1.0799  1.9691
22842SOL    HW272443   4.421   1.716   0.777 -2.2239 -1.1714  0.4065
22843SOL     OW72444  10.173   6.489   3.288 -0.3704 -0.2561  0.5243
22843SOL    HW172445  10.184   6.475   3.194  0.8455 -0.7678  0.7318
22843SOL    HW272446  10.126   6.411   3.318  0.9865 -1.0454  0.6553
22844SOL     OW72447   1.705   9.437   7.700 -0.1722 -0.1532 -0.0263
22844SOL    HW172448   1.629   9.494   7.692  0.8870  1.2884 -0.3542
22844SOL    HW272449   1.670   9.353   7.728 -1.8890  0.4203 -0.3367
22845SOL     OW72450   8.704   9.922   4.119 -0.1689  0.0421  0.4438
22845SOL    HW172451   8.737   9.898   4.033 -1.0286  0.3667  0.0158
22845SOL    HW272452   8.625   9.869   4.130 -0.3869  0.4352  0.7854
22846SOL     OW72453   6.250   8.505   0.437  0.3433 -0.0580  0.0257
22846SOL    HW172454   6.256   8.423   0.486  0.9597 -0.0457 -0.0270
22846SOL    HW272455   6.220   8.479   0.350 -1.6936  0.0115  0.6563
22847SOL     OW72456   7.744   8.512   4.791  0.5377  0.1041 -0.0835
22847SOL    HW172457   7.654   8.485   4.772  0.0932  0.8531  0.8429
22847SOL    HW272458   7.798   8.441   4.757 -0.4457 -0.6713 -0.0805
22848SOL     OW72459   9.621   0.170   5.298 -1.0664  0.6351 -0.0564
22848SOL    HW172460   9.679   0.147   5.226 -2.0050 -2.2032 -0.0362
22848SOL    HW272461   9.587   0.256   5.275  0.9106  1.0906 -1.4920
22849SOL     OW72462   0.918   2.203   4.931 -0.3126  0.0637  0.0721
22849SOL    HW172463   0.961   2.206   5.016  1.2169 -0.2244 -0.6457
22849SOL    HW272464   0.826   2.220   4.949 -0.2024 -1.0781  1.8903
22850SOL     OW72465   3.322   8.777   5.514  0.5528 -0.0052 -0.2819
22850SOL    HW172466   3.399   8.725   5.535  1.4513  0.5302 -2.1283
22850SOL    HW272467   3.356   8.863   5.492 -0.6288  0.4121 -0.5491
22851SOL     OW72468   0.612   5.976   1.933 -1.1604 -0.5604  0.4195
22851SOL    HW172469   0.696   5.933   1.951 -0.6829 -0.1063 -0.6563
22851SOL    HW272470   0.623   6.015   1.846 -1.4299  2.1253  1.5069
22852SOL     OW72471   2.271   7.623   2.051 -0.5221 -0.4340  0.0104
22852SOL    HW172472   2.322   7.699   2.079  0.4560 -0.9580 -0.3293
22852SOL    HW272473   2.294   7.554   2.113 -0.1244 -0.9315 -0.6900
22853SOL     OW72474   4.899   7.513   1.019  0.4095  0.0311 -0.2511
22853SOL    HW172475   4.834   7.451   1.054 -1.0093  1.0412 -1.0028
22853SOL    HW272476   4.923   7.567   1.094  2.8397 -2.2908  0.8152
22854SOL     OW72477   2.951   2.708   4.737  0.1560 -0.5031 -0.1093
22854SOL    HW172478   2.976   2.742   4.652  0.1474  1.7909  0.7271
22854SOL    HW272479   2.926   2.786   4.787  1.2624 -1.6187  2.3532
22855SOL     OW72480   3.516   6.117   6.819 -0.6337  0.3973 -0.2224
22855SOL    HW172481   3.500   6.168   6.740  0.0623  1.7509  0.4580
22855SOL    HW272482   3.571   6.174   6.873 -1.0800 -0.4895  1.2311
22856SOL     OW72483   4.179   1.731   1.792 -0.3346 -0.3126  0.0512
22856SOL    HW172484   4.215   1.731   1.704  1.4999 -1.5842  0.7421
22856SOL    HW272485   4.248   1.693   1.846 -2.2331 -1.6335  1.6911
22857SOL     OW72486   1.478   3.832   0.666  0.1402 -0.1397 -0.6050
22857SOL    HW172487   1.554   3.872   0.623  0.2448  0.3333  0.0068
22857SOL    HW272488   1.403   3.858   0.613  0.2094  0.8812 -0.2121
22858SOL     OW72489   0.718   0.117   6.101  0.3149  0.5588  0.5933
22858SOL    HW172490   0.654   0.183   6.074  0.7262  0.3133 -1.0773
22858SOL    HW272491   0.794   0.167   6.129  0.7655  0.8327 -1.0237
22859SOL     OW72492   0.827  10.086   1.471 -0.4293  0.2935 -0.4476
22859SOL    HW172493   0.771  10.016   1.437 -0.0817 -0.5592  0.6777
22859SOL    HW272494   0.908  10.042   1.496  0.3145  1.3333 -0.9990
22860SOL     OW72495   0.612   9.523   3.396  0.0610  0.1833  0.7755
22860SOL    HW172496   0.647   9.610   3.414 -0.6413  0.3835  1.2124
22860SOL    HW272497   0.657   9.466   3.459 -0.2325  0.4045  1.1911
22861SOL     OW72498   5.502   3.835   1.277  0.1577  0.2475  0.5972
22861SOL    HW172499   5.569   3.774   1.247 -1.0881  0.0738 -2.1332
22861SOL    HW272500   5.421   3.784   1.277 -0.2558  0.8294  2.4431
22862SOL     OW72501   4.956   2.613   9.656  0.3001 -0.1051 -0.5553
22862SOL    HW172502   4.897   2.599   9.582  0.8077 -2.1209 -0.6367
22862SOL    HW272503   4.983   2.705   9.648 -1.1205  0.2508 -1.7528
22863SOL     OW72504   7.374   1.835   2.601 -0.2940  0.1651 -0.2101
22863SOL    HW172505   7.383   1.746   2.636  0.1571 -0.1435 -1.0907
22863SOL    HW272506   7.280   1.851   2.601 -0.3167  0.2753  1.3530
22864SOL     OW72507   4.069   7.367   1.656 -0.0015 -0.7614 -0.0326
22864SOL    HW172508   4.038   7.447   1.615  0.8199 -0.4403 -0.0446
22864SOL    HW272509   3.992   7.310   1.659 -0.8050  0.3179  0.7256
22865SOL     OW72510   9.455   0.439   9.390 -0.2404  0.1343 -0.3459
22865SOL    HW172511   9.447   0.344   9.377 -0.5702  0.4249 -2.8164
22865SOL    HW272512   9.404   0.477   9.318  0.4428  2.1929  0.1931
22866SOL     OW72513   7.159   4.652   1.198 -0.2604  0.1784  0.0054
22866SOL    HW172514   7.148   4.662   1.103 -0.2407  0.4094  0.0272
22866SOL    HW272515   7.173   4.741   1.230  0.8896 -0.0006  0.0716
22867SOL     OW72516   3.106   7.856   2.322 -0.4544  0.1008 -0.5958
22867SOL    HW172517   3.167   7.905   2.377 -1.0949 -0.0702  0.2824
22867SOL    HW272518   3.151   7.849   2.237  0.8571 -0.2367  0.0989
22868SOL     OW72519   6.826   9.109   5.448  0.0022 -0.4570  0.5910
22868SOL    HW172520   6.825   9.027   5.398  1.7581  0.6923 -1.4976
22868SOL    HW272521   6.735   9.121   5.477 -0.6515 -2.2317 -0.5856
22869SOL     OW72522   3.333  10.107   5.506  0.0040 -0.2282  0.2695
22869SOL    HW172523   3.330  10.050   5.429 -2.6434 -0.7194  0.6331
22869SOL    HW272524   3.376  10.053   5.573  3.6682  0.6967 -1.0655
22870SOL     OW72525   7.018   9.948   2.757  0.1868 -0.6794  0.5976
22870SOL    HW172526   7.052  10.034   2.731 -0.4347 -0.3785  0.7773
22870SOL    HW272527   7.030   9.893   2.679  0.8938 -0.5278  0.5902
22871SOL     OW72528   0.127   4.912   6.702 -0.2852  0.0745  0.6332
22871SOL    HW172529   0.140   4.820   6.677  0.5870  0.3046  0.2017
22871SOL    HW272530   0.191   4.960   6.650 -0.8107  0.9450  0.7748
22872SOL     OW72531   1.065   5.162   5.290 -0.0627 -0.3483  0.3073
22872SOL    HW172532   1.053   5.234   5.228 -0.4468  2.5623  3.5010
22872SOL    HW272533   1.150   5.125   5.267  0.6492  1.8157 -0.8225
22873SOL     OW72534   9.493   8.671   2.963  0.5631 -0.4886 -0.2784
22873SOL    HW172535   9.436   8.596   2.945 -1.1319  0.5265  0.6639
22873SOL    HW272536   9.509   8.667   3.057  2.6171 -1.0934 -0.6044
22874SOL     OW72537   2.568   2.436   3.206 -0.0832  0.1543 -0.0321
22874SOL    HW172538   2.556   2.342   3.223 -1.4189  0.2115 -0.5630
22874SOL    HW272539   2.633   2.440   3.135 -0.7931 -0.4168 -0.7266
22875SOL     OW72540   2.085   7.484   2.988  0.2730  0.1118  0.0630
22875SOL    HW172541   2.049   7.452   3.071 -0.4109  1.4869  0.3074
22875SOL    HW272542   2.014   7.474   2.925  0.9123 -1.2899 -0.4818
22876SOL     OW72543   5.543   9.160   2.916 -0.3022  1.0856  0.3471
22876SOL    HW172544   5.569   9.133   3.004 -1.3098  0.1295  0.3718
22876SOL    HW272545   5.625   9.184   2.873  0.9162 -2.8938  0.0581
22877SOL     OW72546   1.697   2.191  10.165  0.5726 -0.1176 -0.2312
22877SOL    HW172547   1.740   2.151  10.240  0.1063  0.0978  0.1573
22877SOL    HW272548   1.644   2.120  10.127 -0.5069  0.1861  0.6482
22878SOL     OW72549   3.548   5.335   0.146 -0.0938 -0.7147  0.2625
22878SOL    HW172550   3.552   5.240   0.154  0.7087 -1.1732 -3.5102
22878SOL    HW272551   3.637   5.360   0.121 -0.8394  0.6806 -1.1196
22879SOL     OW72552   3.468   6.721   3.029 -0.5943  0.5210 -0.1469
22879SOL    HW172553   3.520   6.673   3.093  0.7038  0.4804 -1.1872
22879SOL    HW272554   3.385   6.739   3.073  0.7245  1.6390  2.0157
22880SOL     OW72555   5.444   6.819   8.430  0.7182  0.2209 -0.3102
22880SOL    HW172556   5.378   6.776   8.485  1.5519 -0.6548  0.0469
22880SOL    HW272557   5.402   6.899   8.400 -0.7799 -0.6704 -0.7096
22881SOL     OW72558   0.641   5.010   8.437 -0.0197  0.2974  0.1345
22881SOL    HW172559   0.663   5.039   8.526  0.5218 -2.0408  0.8205
22881SOL    HW272560   0.547   4.991   8.441 -0.0296  0.3505  0.1574
22882SOL     OW72561   1.047   8.652   6.914 -0.1799  0.0222 -0.1608
22882SOL    HW172562   1.075   8.626   6.826  0.7012 -1.0501  0.4164
22882SOL    HW272563   0.959   8.618   6.923  0.6664 -2.1940  0.2975
22883SOL     OW72564   1.285   6.038   5.974 -0.2426 -0.2627 -0.0755
22883SOL    HW172565   1.364   5.985   5.972 -1.0269 -1.5408  0.9895
22883SOL    HW272566   1.316   6.128   5.977  1.1338 -0.6714 -1.1857
22884SOL     OW72567   6.101   8.873   7.751 -0.4177 -0.4342 -0.2492
22884SOL    HW172568   6.022   8.832   7.787  0.7364 -1.8068  0.8856
22884SOL    HW272569   6.126   8.817   7.678  0.0619 -0.5965  0.0377
22885SOL     OW72570   1.186   6.685   6.249  0.4128 -0.4232 -0.0862
22885SOL    HW172571   1.210   6.777   6.260  1.6081 -0.6272 -0.8460
22885SOL    HW272572   1.270   6.639   6.239 -0.2246 -1.3527 -1.4677
22886SOL     OW72573   7.843   2.715   0.249 -0.4635  0.0125  0.3615
22886SOL    HW172574   7.815   2.738   0.160  1.1388  0.7626  0.0225
22886SOL    HW272575   7.840   2.797   0.297 -0.5517 -0.2468  0.8091
22887SOL     OW72576   5.701   3.145   4.513 -0.1501  0.3317  0.3575
22887SOL    HW172577   5.710   3.226   4.462  0.5308  1.8352  2.6981
22887SOL    HW272578   5.614   3.113   4.492 -1.6010  3.2298  1.3355
22888SOL     OW72579   2.522   7.159   7.729 -0.8019  0.5124 -0.3428
22888SOL    HW172580   2.504   7.168   7.823  0.8499 -3.1255  0.5100
22888SOL    HW272581   2.442   7.118   7.694 -0.7795  0.2900 -0.1403
22889SOL     OW72582   8.317   2.560   8.632 -0.0514 -0.0221  0.0072
22889SOL    HW172583   8.363   2.637   8.666  0.0994  0.5244 -1.3781
22889SOL    HW272584   8.294   2.510   8.710  1.2164  0.6429  0.8557
22890SOL     OW72585   6.647   4.626  10.120  0.6932 -0.3622  0.8846
22890SOL    HW172586   6.637   4.575  10.201 -0.9569 -0.6296  0.5439
22890SOL    HW272587   6.727   4.594  10.081 -0.3963 -2.9163  0.5712
22891SOL     OW72588   6.627   3.593   1.564 -0.1740  0.0089 -0.4756
22891SOL    HW172589   6.622   3.506   1.526 -0.4468 -0.6051  0.8991
22891SOL    HW272590   6.671   3.646   1.497  0.1525 -1.2138 -1.2639
22892SOL     OW72591   6.500   8.744   3.022  0.5564 -0.2055  0.4418
22892SOL    HW172592   6.426   8.685   3.014  0.0565  0.2300  1.6156
22892SOL    HW272593   6.577   8.687   3.018  0.1397 -0.7476 -0.0098
22893SOL     OW72594   0.258   6.260   4.007 -0.3269  0.8148  0.7280
22893SOL    HW172595   0.195   6.209   4.058 -1.2698  0.4451 -0.7190
22893SOL    HW272596   0.208   6.337   3.978 -1.1049 -0.7998 -2.7361
22894SOL     OW72597   5.997   0.525   9.893  0.2265  0.0949 -0.2066
22894SOL    HW172598   5.945   0.478   9.957  0.3748  1.3540  0.8719
22894SOL    HW272599   5.936   0.542   9.821 -0.0234 -1.0468 -0.2847
22895SOL     OW72600   5.954   1.967   0.459 -0.1438  0.6163 -0.1025
22895SOL    HW172601   6.009   1.907   0.511 -0.1803 -1.2409 -2.0430
22895SOL    HW272602   6.016   2.015   0.405 -0.2822 -0.6178 -1.4257
22896SOL     OW72603   0.580   4.973   3.944 -0.8140 -0.0770 -0.5793
22896SOL    HW172604   0.576   4.901   4.007 -2.4431 -0.0245 -0.5767
22896SOL    HW272605   0.642   4.943   3.877 -0.2619 -0.7946  0.2383
22897SOL     OW72606   8.124   7.811   2.552  0.2603  0.3172 -0.2148
22897SOL    HW172607   8.034   7.840   2.562 -0.4649 -1.7128 -0.3360
22897SOL    HW272608   8.145   7.768   2.635  0.6026 -0.4824 -0.7027
22898SOL     OW72609   1.163   5.398   0.223 -0.0556  0.0881  0.6319
22898SOL    HW172610   1.226   5.420   0.155 -0.5935  0.7341  0.3285
22898SOL    HW272611   1.215   5.354   0.291  0.8140  1.0963  0.6420
22899SOL     OW72612   7.086   2.264   2.052 -0.1193  0.3587 -0.4262
22899SOL    HW172613   7.098   2.169   2.054  1.9749  0.5593 -1.4755
22899SOL    HW272614   7.171   2.301   2.076 -1.0991  2.0043  0.7560
22900SOL     OW72615   3.314  10.165   1.082  0.0103  0.6955  0.0393
22900SOL    HW172616   3.341  10.079   1.115 -1.2178 -1.1829 -3.2580
22900SOL    HW272617   3.223  10.152   1.054  0.8910  1.7485 -4.0354
22901SOL     OW72618   5.098   4.629   5.818  0.1877 -0.1608  0.5263
22901SOL    HW172619   5.052   4.706   5.850 -0.0733  0.5246 -1.3495
22901SOL    HW272620   5.054   4.555   5.860 -2.1888  0.5107 -0.6317
22902SOL     OW72621   5.452   3.283   1.537  0.2631 -0.0072 -0.6780
22902SOL    HW172622   5.496   3.211   1.492 -0.5280 -0.3492 -0.9095
22902SOL    HW272623   5.423   3.247   1.620 -0.1654  0.0294 -0.8084
22903SOL     OW72624   3.382   5.437   0.397  0.3100 -0.5343  0.5830
22903SOL    HW172625   3.412   5.347   0.411 -0.2885 -1.0677 -1.2469
22903SOL    HW272626   3.382   5.448   0.302 -3.8501 -0.1523  0.4197
22904SOL     OW72627   4.199   8.302   0.751  0.5598 -0.1895  0.0364
22904SOL    HW172628   4.109   8.314   0.721  0.2718 -1.9583  0.1398
22904SOL    HW272629   4.197   8.325   0.844 -0.4563 -2.9155  0.7618
22905SOL     OW72630   6.560   3.686   0.340 -0.3995  0.0983  0.0874
22905SOL    HW172631   6.505   3.739   0.283 -0.5319  1.6118  1.5468
22905SOL    HW272632   6.538   3.596   0.318 -0.6078  0.6323 -2.0432
22906SOL     OW72633   2.292   1.831   0.376 -0.4611  0.5433 -0.3746
22906SOL    HW172634   2.362   1.896   0.387 -0.1571  0.2948 -0.7944
22906SOL    HW272635   2.244   1.861   0.299 -2.0231  1.7815  1.0283
22907SOL     OW72636   8.455   4.893   6.824 -0.4702  0.4112 -0.2704
22907SOL    HW172637   8.430   4.835   6.751  0.2055 -0.1645 -0.0564
22907SOL    HW272638   8.474   4.977   6.782 -2.2429  0.7408 -0.4953
22908SOL     OW72639   9.620   4.418   7.690 -0.2832 -0.8215 -0.2300
22908SOL    HW172640   9.637   4.495   7.745 -0.6186 -0.7487 -0.2259
22908SOL    HW272641   9.602   4.455   7.603  1.8461 -1.0069 -0.8095
22909SOL     OW72642   4.413   0.203   1.473  0.2890 -0.4759 -0.1650
22909SOL    HW172643   4.374   0.116   1.473 -1.6675  0.3340 -1.1092
22909SOL    HW272644   4.370   0.249   1.545 -0.0242  0.2293 -0.7785
22910SOL     OW72645   7.847   1.115   8.898 -0.1807 -0.3056 -0.4777
22910SOL    HW172646   7.899   1.044   8.936  1.3942  0.7505 -0.6010
22910SOL    HW272647   7.907   1.161   8.840 -2.0012 -0.7479 -2.9155
22911SOL     OW72648   9.323   3.877   5.051  0.1216  0.3174  0.6655
22911SOL    HW172649   9.349   3.913   5.136 -2.1297  0.0197  1.5432
22911SOL    HW272650   9.373   3.795   5.044 -0.1205  0.0340  2.0020
22912SOL     OW72651   3.245   6.788   7.055  0.1860 -0.0752  0.0374
22912SOL    HW172652   3.264   6.756   7.143 -0.7798 -1.9948 -0.3958
22912SOL    HW272653   3.200   6.715   7.012 -1.2928  1.5698 -1.3653
22913SOL     OW72654   7.279   5.238   3.681  0.0586  0.0426 -0.2125
22913SOL    HW172655   7.302   5.322   3.721 -0.8912  0.2812 -0.1371
22913SOL    HW272656   7.282   5.175   3.752 -1.3064  0.4079  0.2009
22914SOL     OW72657   1.163   5.078   2.861  0.1743 -0.0020 -0.1724
22914SOL    HW172658   1.126   5.062   2.947  1.0932 -1.2234  0.0264
22914SOL    HW272659   1.094   5.124   2.813 -0.2615  0.9078  1.2646
22915SOL     OW72660   0.518   3.163   5.881  0.4494 -0.3104  0.1572
22915SOL    HW172661   0.539   3.077   5.845  0.2189 -0.3837  0.1953
22915SOL    HW272662   0.590   3.182   5.941  0.5157 -0.4654  0.1278
22916SOL     OW72663   1.383   6.804   9.355  0.5346  0.4115 -0.1733
22916SOL    HW172664   1.418   6.885   9.393 -0.2752  0.5849  0.2401
22916SOL    HW272665   1.298   6.830   9.319  0.2339 -0.2704  0.0359
22917SOL     OW72666   9.211   0.778   2.751  0.2831  0.3907  0.1873
22917SOL    HW172667   9.116   0.771   2.742  0.2311 -1.7202  1.4949
22917SOL    HW272668   9.224   0.850   2.813 -0.6650 -0.7624  1.8206
22918SOL     OW72669   4.846   6.930   3.636 -0.1585  0.4434 -0.0299
22918SOL    HW172670   4.798   7.005   3.602  2.5388  1.0009 -2.9600
22918SOL    HW272671   4.893   6.894   3.561 -0.2626 -3.4363  1.5125
22919SOL     OW72672   5.122   6.189   8.183 -0.1911  0.0325 -0.7918
22919SOL    HW172673   5.173   6.111   8.205 -0.5875  0.0758  0.3266
22919SOL    HW272674   5.031   6.160   8.188 -0.3097 -0.0047 -2.6222
22920SOL     OW72675   5.967   0.724   8.929 -0.6314 -0.6084 -0.4453
22920SOL    HW172676   5.973   0.708   9.023  1.3237  0.9088 -0.2302
22920SOL    HW272677   5.886   0.773   8.918 -0.3794  0.0948  0.6348
22921SOL     OW72678   3.031   2.980   2.593 -0.2097 -0.5598  1.2178
22921SOL    HW172679   3.034   3.074   2.612  1.0016  0.0743 -1.6095
22921SOL    HW272680   3.013   2.975   2.499  1.2943 -3.0815  0.9706
22922SOL     OW72681   2.584   0.078   0.131 -0.0837 -1.0232 -0.1334
22922SOL    HW172682   2.562   0.070   0.039  0.4659 -1.9212 -0.1949
22922SOL    HW272683   2.499   0.087   0.175 -0.3796 -1.2349 -0.6567
22923SOL     OW72684   1.729   2.462   2.351  0.3887  0.1594  0.2609
22923SOL    HW172685   1.666   2.533   2.357  0.9103  0.5816  0.9060
22923SOL    HW272686   1.701   2.398   2.416 -1.1340 -1.1146 -1.5521
22924SOL     OW72687   5.967   9.546   7.019  0.4711  0.1121 -0.1746
22924SOL    HW172688   6.063   9.545   7.016  0.4824 -1.7108 -0.2692
22924SOL    HW272689   5.940   9.485   6.950 -0.7617  0.3973  0.0241
22925SOL     OW72690   3.810   1.883   5.270  0.0479  0.2520 -0.0890
22925SOL    HW172691   3.717   1.865   5.285 -0.5969  2.3510 -1.2022
22925SOL    HW272692   3.842   1.807   5.222 -1.5122  0.2062 -1.1060
22926SOL     OW72693   6.341   9.501   4.529  0.6325 -0.0343  0.2930
22926SOL    HW172694   6.275   9.531   4.468 -0.0740 -2.6389 -0.3594
22926SOL    HW272695   6.304   9.422   4.568  2.9688 -1.1058  0.5498
22927SOL     OW72696   1.242   0.943   1.879 -0.1408 -0.1012  0.1344
22927SOL    HW172697   1.253   0.875   1.813  1.3540  0.0359  0.2144
22927SOL    HW272698   1.244   1.025   1.829  2.6551  0.1043  0.4287
22928SOL     OW72699   1.057   1.359   8.600  0.3474  0.8218  0.1576
22928SOL    HW172700   1.150   1.337   8.595  0.2873  0.4519  0.6193
22928SOL    HW272701   1.055   1.455   8.602  0.6841  0.8440 -0.4394
22929SOL     OW72702   3.731   3.327   2.073 -0.0408 -0.1641 -0.4888
22929SOL    HW172703   3.687   3.245   2.049 -0.8432  0.1909 -0.2843
22929SOL    HW272704   3.661   3.393   2.069  0.1842  0.2057  1.0721
22930SOL     OW72705   7.305   6.616   3.194 -0.1859 -0.7704 -0.4676
22930SOL    HW172706   7.275   6.670   3.267  3.2634 -0.7325  1.1235
22930SOL    HW272707   7.320   6.679   3.123 -0.2841 -0.2777 -0.0614
22931SOL     OW72708   7.300   1.415   1.053  0.5651 -0.1048  0.0183
22931SOL    HW172709   7.261   1.383   1.133  0.9977  0.8472  0.6297
22931SOL    HW272710   7.280   1.348   0.987  0.2062 -0.8866  0.9101
22932SOL     OW72711   7.746   7.506   0.579  0.3904  0.2485 -0.0003
22932SOL    HW172712   7.722   7.597   0.559  0.5736  0.6970  1.6947
22932SOL    HW272713   7.702   7.487   0.661  0.1669 -1.3019 -0.4581
22933SOL     OW72714   8.105   6.157   5.813 -0.5445 -0.2708  0.4028
22933SOL    HW172715   8.162   6.173   5.737  0.0964 -0.3565  0.8599
22933SOL    HW272716   8.121   6.066   5.837 -1.3087 -0.4704  0.1889
22934SOL     OW72717   2.701   5.403   3.455  0.3638  0.4194  0.7684
22934SOL    HW172718   2.658   5.328   3.414 -0.8064  0.3939  1.9468
22934SOL    HW272719   2.664   5.479   3.410  1.0877  0.3319 -0.0041
22935SOL     OW72720   2.565   2.070   7.981  0.0984  0.1219 -0.4116
22935SOL    HW172721   2.527   2.093   8.066 -1.6199  1.0180 -1.3618
22935SOL    HW272722   2.495   2.088   7.918  0.8195 -1.9141 -1.8934
22936SOL     OW72723   3.429   3.476   9.950  0.2043 -0.1159  0.0659
22936SOL    HW172724   3.416   3.407  10.016  0.2358 -2.2978 -2.0656
22936SOL    HW272725   3.341   3.502   9.925  0.1774 -0.3324 -0.0633
22937SOL     OW72726   0.459   2.787   4.294 -0.3121 -0.2193  0.5282
22937SOL    HW172727   0.537   2.825   4.254 -0.3929  0.1142  0.6816
22937SOL    HW272728   0.397   2.777   4.221  0.2966 -1.6369  0.1723
22938SOL     OW72729   4.986   5.668   6.596  0.0848 -0.1390 -0.3554
22938SOL    HW172730   4.952   5.661   6.506 -1.8098  1.6198  0.1462
22938SOL    HW272731   5.065   5.720   6.588  0.4461 -0.7718 -1.0826
22939SOL     OW72732   0.509  10.031   6.568  0.3803  0.3385 -0.4088
22939SOL    HW172733   0.570   9.977   6.519  1.6425  0.5859  0.8341
22939SOL    HW272734   0.442   9.970   6.599  0.8502 -0.2105 -0.4669
22940SOL     OW72735   7.746   5.771   8.573 -0.5175  0.4133  0.3073
22940SOL    HW172736   7.730   5.863   8.595 -0.1436  0.2372  1.4004
22940SOL    HW272737   7.817   5.745   8.632  0.7526 -0.0340 -1.3417
22941SOL     OW72738   6.057   4.976   1.695  0.2603  0.0192 -0.1824
22941SOL    HW172739   5.964   4.974   1.673 -0.1827  1.9751  1.2137
22941SOL    HW272740   6.059   4.990   1.790  2.0033 -1.0840 -0.0233
22942SOL     OW72741   4.912   8.651   4.224  0.4409  0.5235 -0.0375
22942SOL    HW172742   4.842   8.640   4.289 -1.3022  0.6243 -1.8011
22942SOL    HW272743   4.870   8.634   4.140  2.2503  1.8614 -1.2940
22943SOL     OW72744   8.106   2.783   8.164 -0.1976  0.3717  0.6185
22943SOL    HW172745   8.069   2.808   8.080 -1.3934 -0.3015  0.9236
22943SOL    HW272746   8.157   2.704   8.147  0.5427  0.8949  0.3309
22944SOL     OW72747   7.306   7.874   0.772  0.4393 -0.6003 -0.4970
22944SOL    HW172748   7.224   7.857   0.818 -0.0212  0.3628 -0.9329
22944SOL    HW272749   7.340   7.953   0.813  2.0314 -1.8958  0.8340
22945SOL     OW72750   6.989   8.074   8.814 -0.6854 -0.2460 -0.3367
22945SOL    HW172751   6.996   7.994   8.865 -0.8431  0.9688  1.7086
22945SOL    HW272752   7.053   8.133   8.854 -0.5090  0.6297 -1.8523
22946SOL     OW72753  10.121   6.971   5.861  0.0600 -0.0286  0.2852
22946SOL    HW172754  10.106   7.046   5.804 -3.5119  0.9593  2.2049
22946SOL    HW272755  10.089   6.896   5.811 -2.7221  0.7731  0.6602
22947SOL     OW72756   5.829   3.783   1.478  0.0861 -0.8384 -0.2340
22947SOL    HW172757   5.787   3.736   1.406  0.1673 -1.2687  0.0011
22947SOL    HW272758   5.919   3.751   1.478  0.2232 -0.4580 -0.2687
22948SOL     OW72759   5.769   7.926   3.720 -0.3573 -0.3910 -0.3280
22948SOL    HW172760   5.690   7.965   3.759 -1.0078 -1.5002 -0.4759
22948SOL    HW272761   5.739   7.888   3.638  0.2451 -1.2025 -0.1823
22949SOL     OW72762   9.552   3.749   2.683 -0.3813  0.0200 -0.0533
22949SOL    HW172763   9.505   3.754   2.599  0.6361  0.9583 -0.5925
22949SOL    HW272764   9.627   3.692   2.665 -0.0662  0.3612  0.1633
22950SOL     OW72765   3.838   7.221   3.844  0.2942 -0.0749 -0.3507
22950SOL    HW172766   3.877   7.284   3.905 -2.5639  0.2827  1.2475
22950SOL    HW272767   3.835   7.268   3.760  1.5117  0.5516 -0.0650
22951SOL     OW72768   7.410   7.605   2.545  0.0382 -0.0068  0.6765
22951SOL    HW172769   7.413   7.679   2.484  0.2758 -0.7075 -0.1761
22951SOL    HW272770   7.502   7.589   2.567 -0.0076 -0.0943  0.8017
22952SOL     OW72771   0.133   7.765   9.898 -0.2992  0.2701  0.3965
22952SOL    HW172772   0.181   7.844   9.873  0.2595 -0.1971 -0.0488
22952SOL    HW272773   0.077   7.746   9.822  0.9750 -0.8254 -0.3276
22953SOL     OW72774   2.113   8.019   9.203  0.2791 -0.2149 -0.7449
22953SOL    HW172775   2.074   7.935   9.229  1.3497 -0.4637  0.1209
22953SOL    HW272776   2.178   7.997   9.137 -0.1445  0.0596 -1.2638
22954SOL     OW72777   5.938   6.620   4.768 -0.3390  0.2612 -0.1603
22954SOL    HW172778   5.953   6.528   4.747  1.2809  0.8819 -2.1666
22954SOL    HW272779   5.843   6.628   4.773 -0.6726 -1.0849 -2.5269
22955SOL     OW72780   9.545   7.653   1.769  0.0544  0.2621 -0.4190
22955SOL    HW172781   9.560   7.602   1.690  3.4286 -0.7215  0.6987
22955SOL    HW272782   9.608   7.724   1.765 -0.8152  1.1398  0.6637
22956SOL     OW72783   8.241   6.725   1.349 -0.0654 -0.0089  0.1280
22956SOL    HW172784   8.192   6.696   1.426  0.5225 -1.3150  0.0270
22956SOL    HW272785   8.176   6.725   1.278 -0.2236 -0.4560  0.2688
22957SOL     OW72786   1.908   8.697   4.734  0.4069  0.5388 -0.5729
22957SOL    HW172787   1.891   8.657   4.649 -1.1587 -1.4564  0.5842
22957SOL    HW272788   1.998   8.730   4.728  0.3867  0.2885 -2.9142
22958SOL     OW72789   0.601   7.798   8.679 -0.5006  0.0273  1.0158
22958SOL    HW172790   0.547   7.843   8.744 -2.8988 -0.1847 -0.6873
22958SOL    HW272791   0.573   7.836   8.595  1.4404 -0.7293 -0.0294
22959SOL     OW72792   3.043   0.906   3.890  0.3974  0.1281 -0.2826
22959SOL    HW172793   3.111   0.861   3.839 -0.3449 -0.4469 -0.7878
22959SOL    HW272794   3.077   0.908   3.979  0.4811 -1.3984 -0.2556
22960SOL     OW72795   2.127   8.375   6.247 -0.3957 -0.0742 -0.6111
22960SOL    HW172796   2.186   8.306   6.280  1.3646  1.2716 -0.7710
22960SOL    HW272797   2.173   8.456   6.268 -2.2988  1.0565 -0.6796
22961SOL     OW72798   1.661   9.946   7.805 -0.1361  0.1262 -0.8151
22961SOL    HW172799   1.585   9.943   7.748 -0.8336 -1.2431  0.1162
22961SOL    HW272800   1.654  10.029   7.851 -1.1111 -0.0030 -0.7077
22962SOL     OW72801   3.161   9.311   9.656 -0.3468  0.0028 -0.1662
22962SOL    HW172802   3.078   9.357   9.641 -1.0467 -1.0216  0.4386
22962SOL    HW272803   3.225   9.381   9.666 -1.2036  0.8297 -0.2591
22963SOL     OW72804   3.245   0.672   6.489  0.5039 -0.4778 -0.0440
22963SOL    HW172805   3.302   0.600   6.461 -0.3008 -1.2945  0.3760
22963SOL    HW272806   3.161   0.653   6.449  0.0531 -0.2357  0.7700
22964SOL     OW72807   7.657   3.727   6.828 -0.5385  0.2491  0.3989
22964SOL    HW172808   7.595   3.740   6.899 -0.1606 -2.0149  1.2011
22964SOL    HW272809   7.625   3.650   6.781  1.8873 -1.3840  1.1995
22965SOL     OW72810   7.966   7.879   7.150  0.8030 -0.7879 -0.0207
22965SOL    HW172811   7.907   7.950   7.124  0.2006 -1.5346 -0.7486
22965SOL    HW272812   7.914   7.799   7.140  1.8495 -1.4513 -0.4279
22966SOL     OW72813   3.360   6.298   0.872  0.4092 -0.0552 -0.1800
22966SOL    HW172814   3.271   6.311   0.838 -0.3041 -0.6915  1.3637
22966SOL    HW272815   3.416   6.343   0.809 -1.0249  0.6028 -1.0427
22967SOL     OW72816   6.997   3.560   6.990 -0.4499 -0.4205 -0.1166
22967SOL    HW172817   6.992   3.632   6.928 -0.5221  1.5802  2.0719
22967SOL    HW272818   7.086   3.525   6.982  0.1629  1.0732 -0.0334
22968SOL     OW72819   2.018   4.108   0.753 -0.0761 -0.0411  0.2886
22968SOL    HW172820   1.943   4.074   0.704  0.7954  0.2514 -1.3183
22968SOL    HW272821   2.074   4.147   0.687  2.4651 -1.9415  1.1365
22969SOL     OW72822   1.125   1.930   7.168  0.2327  0.1093  0.0419
22969SOL    HW172823   1.164   1.891   7.247  1.0482  0.1381 -0.3376
22969SOL    HW272824   1.087   2.012   7.199  0.4960  0.0904  0.4282
22970SOL     OW72825   9.105   3.276   8.697 -0.3637  0.2320 -0.2262
22970SOL    HW172826   9.181   3.275   8.638  0.7865 -1.9242  1.1519
22970SOL    HW272827   9.132   3.333   8.770  0.6625 -1.7732  1.0407
22971SOL     OW72828   9.586   9.195   8.114  0.2524 -0.2089 -0.4025
22971SOL    HW172829   9.545   9.277   8.141  0.8522 -0.4917  1.5422
22971SOL    HW272830   9.530   9.127   8.151  1.0022 -0.6338 -0.0263
22972SOL     OW72831   4.379   8.473   0.589  0.7476  0.0728 -0.1091
22972SOL    HW172832   4.424   8.520   0.659  1.1080 -1.1726  0.5094
22972SOL    HW272833   4.324   8.409   0.633  0.1164  0.0234 -0.9376
22973SOL     OW72834   8.501   7.254   6.972  0.2135 -0.2808  0.1572
22973SOL    HW172835   8.544   7.262   7.057 -0.0639 -0.5258  0.3235
22973SOL    HW272836   8.507   7.342   6.934  1.2684 -0.4231 -0.0272
22974SOL     OW72837   0.384   7.809   1.857 -0.2000 -0.8737 -0.3568
22974SOL    HW172838   0.464   7.802   1.909 -0.7057 -1.4940  0.3589
22974SOL    HW272839   0.350   7.897   1.876  0.1252 -0.7447 -0.3791
22975SOL     OW72840   1.200   9.679   5.991  0.3499  0.5973  0.5258
22975SOL    HW172841   1.208   9.756   6.047 -1.4006  1.6556 -0.5865
22975SOL    HW272842   1.285   9.635   5.998 -0.0514  0.0918  4.7460
22976SOL     OW72843   5.985   3.526   7.743 -0.6096  0.1731 -0.3366
22976SOL    HW172844   5.960   3.497   7.831 -2.1621  1.4167 -0.3256
22976SOL    HW272845   5.914   3.495   7.687 -0.4483  0.7805 -0.8867
22977SOL     OW72846   9.708   1.189   0.511 -0.0848  0.0436 -0.0039
22977SOL    HW172847   9.776   1.126   0.533 -0.6737 -0.0041  1.8690
22977SOL    HW272848   9.643   1.139   0.461 -0.4860 -0.8479  1.3466
22978SOL     OW72849   3.561   3.489   6.911 -0.0325  0.0166 -0.3945
22978SOL    HW172850   3.611   3.560   6.951  2.2843 -1.1210 -1.1097
22978SOL    HW272851   3.527   3.439   6.985 -0.5443  1.0796  0.1081
22979SOL     OW72852   2.066   6.120   3.345  0.3314  0.3163  0.1706
22979SOL    HW172853   2.159   6.103   3.358 -0.0017 -1.6135  0.3858
22979SOL    HW272854   2.062   6.207   3.304  2.2041  0.4479  0.1998
22980SOL     OW72855   0.007   8.372   0.404  0.4554 -0.6135 -0.1596
22980SOL    HW172856  -0.078   8.327   0.409  0.7549 -1.4312 -1.7749
22980SOL    HW272857   0.068   8.305   0.375  1.6104  0.0530  0.6462
22981SOL     OW72858   9.508  10.021   6.035  0.5018  0.4304  0.0665
22981SOL    HW172859   9.502  10.107   5.992 -0.2428  0.7434  0.7698
22981SOL    HW272860   9.436  10.021   6.098  0.1935 -0.9183 -0.2603
22982SOL     OW72861   0.858   2.956   0.517  0.1999 -0.0220  0.1983
22982SOL    HW172862   0.946   2.976   0.485 -0.0865 -0.5679 -1.0088
22982SOL    HW272863   0.827   3.037   0.557  1.0567  0.3214  0.1826
22983SOL     OW72864   1.057   9.880   7.485  0.0657 -0.0487 -0.2598
22983SOL    HW172865   1.095   9.890   7.398 -2.3448  0.0838 -1.3978
22983SOL    HW272866   1.105   9.943   7.540  2.5513 -1.1006 -1.0963
22984SOL     OW72867   5.215   8.983   8.913  0.2722 -0.2331  0.1007
22984SOL    HW172868   5.280   8.914   8.931  1.5827  0.5664 -1.2778
22984SOL    HW272869   5.181   8.961   8.826 -1.2686 -0.5663  0.7530
22985SOL     OW72870   1.490   3.586   0.777 -0.4371  0.2927 -1.0183
22985SOL    HW172871   1.538   3.623   0.851 -1.7671  0.6100 -0.2826
22985SOL    HW272872   1.514   3.642   0.703  2.9686 -1.5517 -1.5416
22986SOL     OW72873   2.937   4.372   4.934 -0.0193  0.3708 -0.1923
22986SOL    HW172874   2.983   4.383   4.850  0.8760  2.0902  0.4762
22986SOL    HW272875   2.958   4.451   4.983 -1.7644  0.0941  1.0953
22987SOL     OW72876   5.815   3.206   5.504 -0.7849  0.6009 -0.3229
22987SOL    HW172877   5.895   3.228   5.550 -1.1044  0.1402  0.4775
22987SOL    HW272878   5.844   3.153   5.430 -0.1310  2.5677 -1.5483
22988SOL     OW72879   1.057   0.848   2.232 -0.1267 -0.4420  0.5056
22988SOL    HW172880   0.984   0.786   2.239  0.6149 -1.2747  1.1344
22988SOL    HW272881   1.112   0.829   2.308 -0.2973  1.5909  1.1876
22989SOL     OW72882   2.669   5.924   8.012 -0.7958  0.0055 -0.7781
22989SOL    HW172883   2.707   6.004   7.974 -0.0452 -0.6887 -1.5440
22989SOL    HW272884   2.720   5.909   8.092 -1.0809  0.4047 -0.5192
22990SOL     OW72885   0.632   4.363   3.126  0.2202  0.2002  0.5231
22990SOL    HW172886   0.573   4.438   3.137 -0.7474 -0.6187  1.1513
22990SOL    HW272887   0.703   4.379   3.188  0.5557  1.0844 -0.0717
22991SOL     OW72888   6.233   9.463   7.678 -0.5512 -0.4154  0.1332
22991SOL    HW172889   6.139   9.469   7.660 -0.7598 -1.3311  0.8414
22991SOL    HW272890   6.247   9.371   7.700  0.5132 -0.2796  0.0750
22992SOL     OW72891   4.614   9.339   4.221  0.2460 -0.5221 -0.0153
22992SOL    HW172892   4.708   9.327   4.234  0.2058 -0.3628  0.4807
22992SOL    HW272893   4.604   9.359   4.128  0.8189  0.4606  0.1172
22993SOL     OW72894   0.673   7.625   0.655  0.1206  0.3294  0.0890
22993SOL    HW172895   0.616   7.548   0.653  0.3954  0.1009  1.0325
22993SOL    HW272896   0.632   7.683   0.718  0.1735  0.7691 -0.2738
22994SOL     OW72897   7.415   0.228   5.519 -0.3111 -0.0353  0.0048
22994SOL    HW172898   7.406   0.304   5.576  0.9374 -0.0677  0.2669
22994SOL    HW272899   7.331   0.223   5.473 -0.4160  1.5139 -0.0339
22995SOL     OW72900   8.705   5.119   4.990  0.3046 -0.4248 -0.5400
22995SOL    HW172901   8.707   5.024   4.979 -0.8234 -0.5967  0.5627
22995SOL    HW272902   8.708   5.133   5.085  1.2657  0.6776 -0.7086
22996SOL     OW72903   0.094   9.268   0.789 -0.1241 -0.6522 -0.0157
22996SOL    HW172904   0.156   9.336   0.815 -0.4190 -0.3193 -0.1739
22996SOL    HW272905   0.057   9.236   0.871 -0.1967 -0.4163  0.0457
22997SOL     OW72906   5.231   3.983   2.688 -0.4354 -0.1870 -0.6169
22997SOL    HW172907   5.285   3.905   2.687  0.4818  0.4320 -0.4542
22997SOL    HW272908   5.254   4.028   2.769 -0.3374  0.6598 -1.0943
22998SOL     OW72909   1.161   8.153   2.652 -0.2048 -0.5661  0.2053
22998SOL    HW172910   1.190   8.244   2.651 -0.4331 -0.4160  2.4650
22998SOL    HW272911   1.144   8.132   2.560  0.7899  1.3492 -0.4642
22999SOL     OW72912   6.590   3.100   6.559  0.3297 -0.3503  0.9645
22999SOL    HW172913   6.578   3.172   6.497  1.5584 -1.8427 -1.1184
22999SOL    HW272914   6.588   3.142   6.645 -2.1981  1.7100  0.0355
23000SOL     OW72915   0.243   1.090   6.904  0.3443  0.4487 -0.0732
23000SOL    HW172916   0.196   1.007   6.911 -0.2707  0.7927 -0.0164
23000SOL    HW272917   0.268   1.095   6.812  0.0442  0.3776 -0.1615
23001SOL     OW72918   8.846   9.901  10.103  0.2144  0.5516 -0.0816
23001SOL    HW172919   8.930   9.947  10.102  0.6394 -0.0519  1.9461
23001SOL    HW272920   8.780   9.970  10.097  0.8605  1.2678  0.7492
23002SOL     OW72921   1.051   6.451   3.857 -0.3427 -0.5220  0.2975
23002SOL    HW172922   1.116   6.517   3.832  0.7386 -1.6718  0.0152
23002SOL    HW272923   1.035   6.401   3.777 -1.7774 -0.1275  0.2981
23003SOL     OW72924   2.883   7.997   9.292  0.1138  0.3080 -0.3727
23003SOL    HW172925   2.831   8.068   9.253 -0.2223  1.0363  1.3196
23003SOL    HW272926   2.823   7.923   9.296 -0.3805  0.7316  0.2885
23004SOL     OW72927   6.299   1.901   9.505  0.6194 -0.5388  1.0609
23004SOL    HW172928   6.355   1.971   9.537  0.1821 -0.5328  1.8341
23004SOL    HW272929   6.333   1.822   9.547 -0.1195 -0.4936  1.7759
23005SOL     OW72930   9.787   0.455   4.859 -0.4842  0.4171  0.1982
23005SOL    HW172931   9.773   0.540   4.901 -1.4315  0.4671 -0.1949
23005SOL    HW272932   9.699   0.426   4.833 -0.0073  0.0805 -1.1364
23006SOL     OW72933   4.231   6.932   5.113  0.0860 -0.1352  0.0992
23006SOL    HW172934   4.176   6.898   5.184  1.3547 -0.4876  0.9434
23006SOL    HW272935   4.319   6.934   5.150  0.6586  0.3684 -1.2443
23007SOL     OW72936   1.414   5.480   6.954  0.2169 -0.2653  0.2038
23007SOL    HW172937   1.498   5.439   6.971 -0.5552 -2.5597 -1.1075
23007SOL    HW272938   1.368   5.477   7.038  0.5778 -1.1353  0.3754
23008SOL     OW72939   9.674   0.183   2.137 -0.0294  0.1243  0.2020
23008SOL    HW172940   9.605   0.210   2.077 -1.4774 -1.5791  1.0203
23008SOL    HW272941   9.733   0.130   2.084  1.6082  2.7953 -0.8699
23009SOL     OW72942   5.505   0.409   5.203  0.2166 -0.0028  0.0234
23009SOL    HW172943   5.518   0.357   5.282  3.5618 -2.1001 -1.6944
23009SOL    HW272944   5.467   0.348   5.140 -2.4795  1.6569 -0.1155
23010SOL     OW72945   5.283   5.792   7.860 -0.0948  0.0049 -0.0346
23010SOL    HW172946   5.257   5.773   7.769  1.5296 -1.6366 -0.2175
23010SOL    HW272947   5.323   5.711   7.891  1.5358  1.2609  1.3561
23011SOL     OW72948   6.364   1.690   4.696  0.3255 -0.0578 -0.2839
23011SOL    HW172949   6.425   1.740   4.750  0.3174  1.1121 -1.3284
23011SOL    HW272950   6.334   1.752   4.630 -0.4407 -1.1842 -1.0184
23012SOL     OW72951   3.137   6.865   2.434 -0.1307 -0.0331  0.2456
23012SOL    HW172952   3.116   6.772   2.439 -0.3921  0.0366  0.4450
23012SOL    HW272953   3.052   6.909   2.439 -0.1101  0.1783 -0.9498
23013SOL     OW72954   6.649   8.120   4.025 -0.1475 -0.2552 -0.0156
23013SOL    HW172955   6.688   8.033   4.020 -1.2575 -0.7258 -1.0884
23013SOL    HW272956   6.605   8.121   4.110  1.1839 -0.1465  0.6854
23014SOL     OW72957   6.299   6.828   3.802 -0.2448 -0.4587  0.3442
23014SOL    HW172958   6.207   6.833   3.777 -0.2933 -0.2612  0.5515
23014SOL    HW272959   6.304   6.753   3.862 -0.0384 -1.2321 -0.6138
23015SOL     OW72960   0.136   0.612   4.352  0.1527 -0.3462  0.0280
23015SOL    HW172961   0.192   0.577   4.421 -0.3231  0.1889  0.6988
23015SOL    HW272962   0.133   0.542   4.286  1.1030 -0.6195  0.2602
23016SOL     OW72963   2.229   8.763   6.884  0.3982 -0.1704  0.0969
23016SOL    HW172964   2.273   8.846   6.904  0.6053 -0.7899  2.4444
23016SOL    HW272965   2.140   8.774   6.919  0.4076 -0.9079  0.3638
23017SOL     OW72966   7.576   7.266   7.628 -0.1453 -0.7866 -1.0465
23017SOL    HW172967   7.517   7.196   7.658 -0.7004  0.1660  0.1886
23017SOL    HW272968   7.641   7.273   7.697  0.2339 -0.4646 -1.4332
23018SOL     OW72969   5.828   1.528   0.845 -0.7454  0.1744  0.6986
23018SOL    HW172970   5.914   1.553   0.879  0.2932 -1.1763 -0.7842
23018SOL    HW272971   5.826   1.563   0.756 -0.0588 -3.0159 -0.7066
23019SOL     OW72972   6.850   5.076   5.473 -0.1917  0.2842  0.4738
23019SOL    HW172973   6.904   5.000   5.451  1.4253  0.9934  1.7730
23019SOL    HW272974   6.764   5.056   5.436  0.7493 -1.2143 -1.0494
23020SOL     OW72975   9.637   0.850   7.935  0.4107 -0.2687 -0.5777
23020SOL    HW172976   9.652   0.761   7.906 -0.1138 -0.0072 -1.6856
23020SOL    HW272977   9.583   0.890   7.867  0.3240  0.7872  0.0722
23021SOL     OW72978   2.538   0.121   5.598 -0.5923 -0.5212 -0.2333
23021SOL    HW172979   2.476   0.178   5.552  1.0637  1.2966 -0.3294
23021SOL    HW272980   2.527   0.143   5.690 -0.1479 -0.2637 -0.2420
23022SOL     OW72981   2.993   2.412   8.962  0.2066  0.1767 -0.8618
23022SOL    HW172982   2.998   2.316   8.964 -1.8832 -0.0352 -2.0946
23022SOL    HW272983   3.028   2.436   8.876 -1.2547  0.2813 -1.4615
23023SOL     OW72984   9.923   5.119   8.627  0.6084  0.0617  0.3417
23023SOL    HW172985   9.959   5.161   8.549  0.8319  0.1860  0.5085
23023SOL    HW272986   9.942   5.026   8.616 -2.1122 -0.4047 -1.2347
23024SOL     OW72987   7.085   2.151   9.034 -0.2850 -0.3855 -0.1940
23024SOL    HW172988   7.113   2.068   8.995  2.0102  0.7044 -1.0431
23024SOL    HW272989   7.113   2.217   8.971  2.8618  1.4270  2.7878
23025SOL     OW72990   3.279   7.230   9.024 -0.2267  0.1534  0.3046
23025SOL    HW172991   3.320   7.295   8.966 -0.8453  0.8408  0.6122
23025SOL    HW272992   3.350   7.196   9.077 -0.1852  2.2993  1.7712
23026SOL     OW72993   1.377   3.694   5.400 -0.7642 -0.0286 -0.2866
23026SOL    HW172994   1.399   3.697   5.493 -0.9113 -2.5356 -0.1096
23026SOL    HW272995   1.302   3.634   5.395  1.4347 -2.8522 -2.3232
23027SOL     OW72996   1.974   3.500   4.015  0.3460  0.1673 -0.1531
23027SOL    HW172997   2.016   3.418   4.040  0.4419 -0.2533 -1.5587
23027SOL    HW272998   1.974   3.499   3.919 -0.8499  1.1952 -0.2090
23028SOL     OW72999   2.692   3.711   0.582 -0.2642  0.2784  0.1779
23028SOL    HW173000   2.661   3.625   0.610 -1.1859 -0.4833 -2.8114
23028SOL    HW273001   2.626   3.772   0.615  1.0496  0.1199  3.4158
23029SOL     OW73002   5.454   5.515  10.108  0.3961  0.6297 -0.1767
23029SOL    HW173003   5.382   5.569  10.140 -0.0005 -0.3296  0.6193
23029SOL    HW273004   5.490   5.474  10.187  2.0472  1.3479 -0.5134
23030SOL     OW73005   7.177   7.828   9.986  0.1744 -0.4317 -0.3321
23030SOL    HW173006   7.094   7.814   9.941  0.6874 -0.2487 -1.3613
23030SOL    HW273007   7.205   7.740  10.013 -0.6174 -0.4329  0.5195
23031SOL     OW73008   3.198   3.998   4.020 -0.3428  0.1165  0.4341
23031SOL    HW173009   3.279   3.964   3.981  0.1568  0.5488  1.0942
23031SOL    HW273010   3.129   3.960   3.966  0.3392  0.8896 -1.0335
23032SOL     OW73011   4.344   3.034   1.511 -0.0617  0.1045  0.1343
23032SOL    HW173012   4.393   2.977   1.570 -1.1006  0.5286  1.4673
23032SOL    HW273013   4.394   3.035   1.430  0.5800 -1.7784  0.4714
23033SOL     OW73014   8.426   7.673   7.113 -0.0931 -0.3161  0.4000
23033SOL    HW173015   8.389   7.748   7.067  0.9877  0.6205  0.9854
23033SOL    HW273016   8.354   7.611   7.122 -0.7752  0.2715 -0.8900
23034SOL     OW73017   8.471   1.367   6.099  0.2340 -0.2098  0.1558
23034SOL    HW173018   8.556   1.411   6.089 -0.0870  0.4980  0.4927
23034SOL    HW273019   8.486   1.301   6.166  0.8935 -1.0759 -0.8171
23035SOL     OW73020   9.090   9.409   4.929 -0.2432 -0.3057  0.2058
23035SOL    HW173021   9.043   9.326   4.935  0.4931 -0.6475  4.3368
23035SOL    HW273022   9.028   9.474   4.964 -0.1778  0.5905 -1.2881
23036SOL     OW73023   5.387   4.348   6.729 -0.4029 -0.3450  0.4158
23036SOL    HW173024   5.394   4.443   6.717 -2.6915 -0.1198  0.4753
23036SOL    HW273025   5.304   4.335   6.775  0.3753 -2.3275  1.3953
23037SOL     OW73026   3.389   0.799   9.544 -0.5906 -0.6003  0.2630
23037SOL    HW173027   3.369   0.892   9.537  2.1724  0.0299 -0.7323
23037SOL    HW273028   3.360   0.762   9.460  1.7368  0.2152 -1.0053
23038SOL     OW73029   1.516   5.225   3.104  0.1124 -0.0367  0.5575
23038SOL    HW173030   1.482   5.195   3.188 -1.1487 -0.3535 -0.0331
23038SOL    HW273031   1.492   5.318   3.100  1.3832  0.3346  1.1128
23039SOL     OW73032   4.858   3.101   6.530 -0.9520 -0.4876  0.1973
23039SOL    HW173033   4.924   3.124   6.595  0.6346 -1.6914 -0.9344
23039SOL    HW273034   4.844   3.007   6.542  0.0593 -0.9228 -1.7729
23040SOL     OW73035   2.156   0.601   5.666 -0.2722  0.4858  0.5903
23040SOL    HW173036   2.238   0.609   5.616 -0.4113 -0.6576  0.1508
23040SOL    HW273037   2.178   0.633   5.754  0.5902  0.3692  0.4247
23041SOL     OW73038   1.939   7.528   4.691 -0.4311 -0.0533 -0.4940
23041SOL    HW173039   1.848   7.504   4.673  0.1390 -1.4061 -1.8003
23041SOL    HW273040   1.949   7.616   4.654 -1.7008  0.9871  1.4671
23042SOL     OW73041   3.808   7.448   6.217 -0.6297  0.4057  0.2543
23042SOL    HW173042   3.809   7.521   6.279  1.9343  1.6884 -1.1260
23042SOL    HW273043   3.847   7.375   6.266  1.9483  1.5690  0.1212
23043SOL     OW73044   6.973   2.931   9.288  0.0436 -0.0318  0.0620
23043SOL    HW173045   7.062   2.949   9.259  0.3561 -0.2190  0.8679
23043SOL    HW273046   6.971   2.961   9.379 -1.4122  2.1966 -0.6215
23044SOL     OW73047   2.104   5.694   4.645 -0.3156  0.7700  0.5311
23044SOL    HW173048   2.067   5.780   4.665 -0.9493  0.1818  1.9634
23044SOL    HW273049   2.079   5.639   4.719 -1.7746 -1.2224 -1.3298
23045SOL     OW73050   6.396   4.151   5.391 -0.0503  0.4960 -0.1124
23045SOL    HW173051   6.395   4.080   5.455  0.2153  0.2468 -0.3834
23045SOL    HW273052   6.351   4.223   5.435 -2.1645 -0.4721 -0.5833
23046SOL     OW73053   3.518   1.721   8.532 -0.1627  0.7747  0.0787
23046SOL    HW173054   3.523   1.779   8.607 -1.1345  1.4279 -0.3474
23046SOL    HW273055   3.459   1.765   8.471  0.7652  0.3665 -1.1597
23047SOL     OW73056   1.018   1.224   7.765 -0.6172  0.5126  0.2917
23047SOL    HW173057   1.114   1.217   7.757 -0.6062  0.4543  0.4684
23047SOL    HW273058   0.985   1.151   7.712 -0.5304 -0.1685  1.1474
23048SOL     OW73059   6.370   4.145   6.992  0.3269  0.0464  0.3179
23048SOL    HW173060   6.348   4.143   6.899 -0.7417 -1.0516  0.5605
23048SOL    HW273061   6.298   4.195   7.033  0.4640 -0.0049  0.6242
23049SOL     OW73062   9.660   9.588   7.148  0.1627  0.3549  0.2552
23049SOL    HW173063   9.751   9.562   7.133 -0.4880 -1.3708 -0.9244
23049SOL    HW273064   9.608   9.518   7.111 -1.6861  1.3026  0.9192
23050SOL     OW73065   0.878   6.898   1.131 -0.2726  0.4990 -0.2995
23050SOL    HW173066   0.938   6.964   1.096 -0.2060  0.9121  0.5579
23050SOL    HW273067   0.931   6.819   1.137  0.1898  0.8495  0.4167
23051SOL     OW73068   2.552   8.602   4.450  0.1227  0.2495  0.6980
23051SOL    HW173069   2.520   8.630   4.536  1.6572  0.4994  1.2190
23051SOL    HW273070   2.518   8.513   4.440  0.0611  0.1577  1.6368
23052SOL     OW73071   7.236   5.114   0.485 -0.2240 -0.3985 -0.2742
23052SOL    HW173072   7.198   5.080   0.566 -1.0557 -1.0371 -0.9172
23052SOL    HW273073   7.251   5.207   0.503 -1.1764 -0.3504  0.3292
23053SOL     OW73074   6.378   1.117   6.772 -0.1037 -0.2107  0.2932
23053SOL    HW173075   6.304   1.137   6.715 -0.0841  1.9005  0.9214
23053SOL    HW273076   6.402   1.201   6.811  1.5681 -1.1312  1.3903
23054SOL     OW73077   2.390   8.175   2.842  0.0827 -0.0692  0.1978
23054SOL    HW173078   2.425   8.173   2.931 -1.6758  1.2258  0.9688
23054SOL    HW273079   2.426   8.255   2.803 -0.3928  0.1901  0.2884
23055SOL     OW73080   5.994   1.402   6.388  0.0207 -0.0701  0.3733
23055SOL    HW173081   6.049   1.453   6.330 -2.3621  1.0208 -1.0947
23055SOL    HW273082   6.053   1.369   6.456  2.1034  2.4746 -0.0760
23056SOL     OW73083   6.662   4.832   4.504 -0.5123  0.3529 -0.3365
23056SOL    HW173084   6.758   4.826   4.506 -0.5626 -0.5580  1.3321
23056SOL    HW273085   6.640   4.827   4.411  1.1130  2.0868 -0.8840
23057SOL     OW73086   7.213   5.811   5.230  0.1765  0.1498  0.0573
23057SOL    HW173087   7.244   5.852   5.150 -2.0495 -0.6207 -1.2985
23057SOL    HW273088   7.187   5.885   5.286 -0.2739  0.6791 -0.8256
23058SOL     OW73089   7.833   3.071   7.467 -0.1745  0.1179 -0.0918
23058SOL    HW173090   7.852   3.112   7.383  0.9007  0.2087  0.1816
23058SOL    HW273091   7.902   3.005   7.478  0.2721  0.7491  1.1370
23059SOL     OW73092   9.801   6.304   2.539 -0.0642  0.5021  0.0211
23059SOL    HW173093   9.741   6.356   2.485 -0.2336  0.1953 -0.0875
23059SOL    HW273094   9.750   6.227   2.564  0.4440 -0.0030 -0.4915
23060SOL     OW73095   0.187   7.073   3.585  0.1318 -0.1982  0.5809
23060SOL    HW173096   0.117   7.115   3.534  0.4909 -0.2275  0.0522
23060SOL    HW273097   0.261   7.133   3.579 -0.2155  0.4326  2.1934
23061SOL     OW73098   5.199   2.794   8.572 -0.0060 -0.0715  0.1005
23061SOL    HW173099   5.150   2.717   8.603  0.5612 -0.4077  0.1752
23061SOL    HW273100   5.198   2.786   8.477 -0.2968  0.0511  0.0920
23062SOL     OW73101   5.600   1.936   0.301  0.8862  0.5023  0.0205
23062SOL    HW173102   5.513   1.896   0.297  1.2307 -0.2527 -0.1102
23062SOL    HW273103   5.592   2.018   0.253  0.9764 -0.9191 -2.5880
23063SOL     OW73104   9.708   4.734   1.444  0.7584  0.2589 -0.0494
23063SOL    HW173105   9.690   4.707   1.534 -0.1142  1.4197  0.1515
23063SOL    HW273106   9.750   4.820   1.452  0.2806  0.5698 -0.7481
23064SOL     OW73107   5.051   3.551   1.629 -0.0853  0.2674 -0.0603
23064SOL    HW173108   5.114   3.560   1.558 -0.8923 -0.0863 -0.8307
23064SOL    HW273109   5.009   3.466   1.614 -0.0966  0.0711  0.9803
23065SOL     OW73110   5.054   4.465   7.733  0.2063 -0.4617 -0.4225
23065SOL    HW173111   4.977   4.420   7.696 -0.0442 -1.1634  0.8987
23065SOL    HW273112   5.020   4.513   7.808  0.9752 -0.3785 -0.1222
23066SOL     OW73113   2.205   0.559   9.331  0.0220 -0.0478 -0.2831
23066SOL    HW173114   2.267   0.629   9.356  0.4258 -0.2785 -0.6176
23066SOL    HW273115   2.175   0.584   9.244 -1.6220  0.9188  0.5156
23067SOL     OW73116   4.379   4.934   7.642  0.2262  0.5898  0.6498
23067SOL    HW173117   4.374   4.939   7.737  2.7173  0.5435  0.8385
23067SOL    HW273118   4.314   4.867   7.618 -0.8646  1.0217  2.2150
23068SOL     OW73119   1.864   1.633   2.642 -0.0949  0.0688  0.1244
23068SOL    HW173120   1.885   1.682   2.563  2.0091  1.5574  1.5046
23068SOL    HW273121   1.804   1.690   2.691  2.4768  1.5170  1.8042
23069SOL     OW73122   4.790   4.611   6.821  0.1311  0.6975 -0.5131
23069SOL    HW173123   4.765   4.524   6.787 -1.0337  0.9955 -0.4671
23069SOL    HW273124   4.758   4.611   6.911 -0.0945  1.2632 -0.5931
23070SOL     OW73125  10.084   3.933   4.253 -0.1230 -0.4361  0.2813
23070SOL    HW173126  10.120   3.989   4.184 -0.1740 -1.6073 -0.7330
23070SOL    HW273127  10.161   3.908   4.305  0.2517 -1.2320 -0.6218
23071SOL     OW73128   1.749   8.252   1.228 -0.1601 -0.2949  0.1965
23071SOL    HW173129   1.778   8.191   1.296 -1.1810 -0.7372  0.2532
23071SOL    HW273130   1.659   8.226   1.210 -0.0105  0.0293 -1.1040
23072SOL     OW73131   7.283   0.170   8.302  0.1407 -0.4887  0.1279
23072SOL    HW173132   7.279   0.083   8.263  0.5782 -0.3136 -0.3274
23072SOL    HW273133   7.372   0.200   8.285 -0.1053  0.1790 -0.0224
23073SOL     OW73134   4.157   5.965   3.328  0.1431  0.4789  0.2711
23073SOL    HW173135   4.113   5.883   3.352 -2.0088  1.2139 -0.8314
23073SOL    HW273136   4.169   6.011   3.411 -0.5198 -0.0803  0.6895
23074SOL     OW73137   2.658   7.786   4.179  0.2207  0.3114  0.2215
23074SOL    HW173138   2.731   7.799   4.118  0.8902  0.7525  1.0950
23074SOL    HW273139   2.696   7.735   4.251 -0.1235  1.2094  1.0540
23075SOL     OW73140   0.821   6.894   3.026 -0.1291  0.4642  0.4189
23075SOL    HW173141   0.748   6.838   3.001 -0.0756  0.6277 -0.1131
23075SOL    HW273142   0.798   6.981   2.993  0.3061  0.5158  0.2466
23076SOL     OW73143   7.087   3.814   3.368  0.2339  0.3706  0.7550
23076SOL    HW173144   7.051   3.886   3.316 -0.7240 -0.1602  0.6585
23076SOL    HW273145   7.096   3.742   3.305  0.1188  0.0646  1.0862
23077SOL     OW73146   0.957   5.953   1.430 -0.3058 -0.6423  0.2456
23077SOL    HW173147   1.016   5.879   1.418  0.6732  0.4378 -2.4831
23077SOL    HW273148   1.015   6.029   1.433 -1.4444  0.2871 -0.4781
23078SOL     OW73149   7.342   8.035   8.624  0.7263 -0.2606  0.4096
23078SOL    HW173150   7.357   8.124   8.655 -0.3648 -0.1332  0.5986
23078SOL    HW273151   7.350   7.981   8.703  4.4030 -0.7593 -0.1311
23079SOL     OW73152   9.819   1.222   8.827  0.3058  0.1251  0.7525
23079SOL    HW173153   9.811   1.312   8.795  0.0858 -0.0229  0.3777
23079SOL    HW273154   9.906   1.194   8.797 -0.2418 -0.3090 -0.5184
23080SOL     OW73155   1.453   0.005   4.648 -1.2805  0.0104  0.0479
23080SOL    HW173156   1.548   0.012   4.650 -1.3145  1.4844 -1.3788
23080SOL    HW273157   1.423   0.072   4.709 -1.4112  0.7172 -0.7801
23081SOL     OW73158   2.016   0.321   9.686 -0.7397  0.7409 -0.0384
23081SOL    HW173159   2.053   0.319   9.598  0.3237  1.3264  0.3827
23081SOL    HW273160   2.002   0.229   9.708 -1.4471  0.6028 -0.9785
23082SOL     OW73161   5.655   4.615  10.117 -0.6493  0.6274  0.6023
23082SOL    HW173162   5.736   4.622  10.167 -0.0020  1.3170 -0.5057
23082SOL    HW273163   5.634   4.705  10.094 -0.2133  0.2318 -1.4714
23083SOL     OW73164   3.992   2.618   5.259  0.0021 -0.2794 -0.1597
23083SOL    HW173165   3.899   2.614   5.236 -0.3401  0.7465  0.9832
23083SOL    HW273166   3.994   2.615   5.355  1.1614 -0.3715 -0.1687
23084SOL     OW73167   5.676   8.085   1.252 -0.4287  0.6033 -0.2040
23084SOL    HW173168   5.679   8.176   1.283  2.4297  0.0062  1.7585
23084SOL    HW273169   5.697   8.091   1.158  0.0284  1.9723 -0.0423
23085SOL     OW73170   4.481   3.616   1.908 -0.7430  0.7275 -0.0981
23085SOL    HW173171   4.437   3.539   1.871 -0.3446  0.8116 -0.7624
23085SOL    HW273172   4.436   3.691   1.869 -0.8143  0.8289  0.1751
23086SOL     OW73173   5.142   7.269   4.046  0.4728  0.0175 -0.3136
23086SOL    HW173174   5.187   7.188   4.068 -0.2485 -0.8077 -1.7990
23086SOL    HW273175   5.135   7.268   3.951 -0.6186  1.2488 -0.2725
23087SOL     OW73176   4.946   1.391   9.349 -0.2904 -0.4910  0.5470
23087SOL    HW173177   5.023   1.420   9.399 -1.3037  1.2056  1.2003
23087SOL    HW273178   4.872   1.409   9.406 -1.2668 -1.3257 -0.4097
23088SOL     OW73179   8.227   4.610   6.726  0.2829  0.3029 -0.3230
23088SOL    HW173180   8.190   4.654   6.649 -1.4708 -0.2152  0.1702
23088SOL    HW273181   8.164   4.629   6.795  1.3120 -0.1017  0.7432
23089SOL     OW73182   1.009   8.098   4.481  0.4542 -0.5358 -0.4681
23089SOL    HW173183   0.922   8.078   4.448 -0.5940 -0.7135  2.1926
23089SOL    HW273184   1.035   8.020   4.530  0.6346  0.7545  1.5919
23090SOL     OW73185  10.107   1.459   1.991  0.0755  0.6959 -0.0994
23090SOL    HW173186  10.012   1.468   1.985 -0.0321 -0.2683 -0.0582
23090SOL    HW273187  10.142   1.512   1.920 -0.4189  2.1925  0.7319
23091SOL     OW73188   2.908   8.504   8.586  0.0340 -0.7223 -0.0509
23091SOL    HW173189   2.889   8.417   8.622  1.4267 -0.7486  0.6941
23091SOL    HW273190   2.991   8.529   8.627 -0.3887  1.0053 -0.1866
23092SOL     OW73191   1.213   9.863   5.466 -0.1759  0.5867  0.1964
23092SOL    HW173192   1.224   9.769   5.479 -0.5317  0.7389  1.8553
23092SOL    HW273193   1.186   9.896   5.552 -1.3150  2.0160 -0.6614
23093SOL     OW73194   2.747   8.049   1.477  0.3558  0.1524  0.0363
23093SOL    HW173195   2.789   8.071   1.560  0.8206 -2.2208  0.4889
23093SOL    HW273196   2.727   7.956   1.483 -0.1118  0.0259 -2.3110
23094SOL     OW73197   3.357   1.455   5.256  0.4696  0.3131  0.1166
23094SOL    HW173198   3.452   1.457   5.269  0.3628  0.1466  0.9749
23094SOL    HW273199   3.336   1.541   5.219  1.0783 -0.0143 -1.0396
23095SOL     OW73200   1.884   3.541   1.992 -0.0251 -0.6514 -0.2336
23095SOL    HW173201   1.861   3.604   2.060 -0.2836  0.3971 -1.2636
23095SOL    HW273202   1.978   3.527   2.004 -0.1068 -0.6211  0.4575
23096SOL     OW73203   6.647   1.645   2.599 -0.5153  0.0796  0.3934
23096SOL    HW173204   6.629   1.562   2.554 -0.4964  0.1927  0.1820
23096SOL    HW273205   6.674   1.618   2.687 -1.9519 -0.0960  0.8035
23097SOL     OW73206   0.437   7.132   5.270 -0.0224 -0.1521  0.2177
23097SOL    HW173207   0.489   7.063   5.229 -0.6851 -0.0366 -0.8551
23097SOL    HW273208   0.502   7.186   5.316  0.5674 -1.1431  0.5693
23098SOL     OW73209   1.179   1.089   0.168  0.0092 -0.0127  0.1132
23098SOL    HW173210   1.083   1.079   0.164 -0.1400  1.5947 -1.7374
23098SOL    HW273211   1.212   1.021   0.109 -0.3580  2.4367 -3.1767
23099SOL     OW73212   1.762   8.720   8.039 -0.4126 -0.3183 -0.0544
23099SOL    HW173213   1.756   8.815   8.038  1.0054 -0.2117 -0.6311
23099SOL    HW273214   1.774   8.697   8.131 -3.4587 -0.1881  0.4709
23100SOL     OW73215   6.587   9.375   2.954 -0.1126 -0.3278  0.1499
23100SOL    HW173216   6.502   9.336   2.933  0.0966 -0.5541 -0.3135
23100SOL    HW273217   6.567   9.448   3.012 -0.8127  0.7671 -1.3962
23101SOL     OW73218   5.461   9.378   9.982 -0.5213 -0.5008 -0.0538
23101SOL    HW173219   5.530   9.312   9.990 -0.0199  0.0281 -0.0207
23101SOL    HW273220   5.411   9.350   9.906  1.2820  0.5138 -1.7081
23102SOL     OW73221   2.059   3.783   6.186 -0.1474 -0.1876 -0.3155
23102SOL    HW173222   2.145   3.752   6.213  1.4979  1.3878 -3.2531
23102SOL    HW273223   2.051   3.870   6.226 -0.8871 -0.7108  0.7462
23103SOL     OW73224   8.291   4.489   2.327 -0.2997 -0.3655 -0.3143
23103SOL    HW173225   8.344   4.543   2.269 -0.0164  0.8577  1.0373
23103SOL    HW273226   8.201   4.519   2.312 -0.0727  1.1481  1.0165
23104SOL     OW73227   6.932   5.198   9.696  0.3092 -0.0927 -0.1556
23104SOL    HW173228   6.869   5.177   9.627  0.9499 -1.5614 -0.3237
23104SOL    HW273229   6.914   5.290   9.717 -1.1271 -0.1478 -0.9794
23105SOL     OW73230   7.374   5.486   0.256 -0.1038 -0.2546 -0.4411
23105SOL    HW173231   7.450   5.532   0.222  1.2075 -1.5861  0.5413
23105SOL    HW273232   7.409   5.402   0.287 -1.4832  0.1259  2.4724
23106SOL     OW73233   8.064   4.257   6.323 -0.2957 -0.0971 -0.1435
23106SOL    HW173234   8.102   4.333   6.280 -2.1846  0.5102 -0.8837
23106SOL    HW273235   8.134   4.192   6.326  1.3082  1.5779  0.3342
23107SOL     OW73236   5.533   2.181   5.019 -0.1836 -0.3279 -0.3239
23107SOL    HW173237   5.492   2.167   5.104 -1.4258 -0.4113 -0.9198
23107SOL    HW273238   5.623   2.209   5.040 -0.7610  0.6435  1.0271
23108SOL     OW73239   3.498   5.637   8.014 -0.6216 -0.1973  0.4475
23108SOL    HW173240   3.541   5.620   7.930 -1.2462 -1.4612  0.3604
23108SOL    HW273241   3.420   5.687   7.991 -0.2004  0.4512  0.4066
23109SOL     OW73242   0.941   9.597   3.215 -0.3186  0.3311 -0.3651
23109SOL    HW173243   0.879   9.636   3.276 -0.0579  0.8683 -0.4422
23109SOL    HW273244   0.886   9.555   3.149 -0.7420 -3.2797  1.9804
23110SOL     OW73245   8.978   6.703   1.671 -0.2846 -0.5920 -0.2762
23110SOL    HW173246   9.063   6.747   1.676  0.0448 -1.2776  0.4102
23110SOL    HW273247   8.926   6.757   1.612  0.1330  0.6862  0.4772
23111SOL     OW73248   8.971   5.501   8.356 -0.3423 -0.2821  0.1939
23111SOL    HW173249   8.918   5.466   8.427  0.8575 -0.5770  0.9805
23111SOL    HW273250   8.984   5.428   8.296 -0.5979 -0.2749  0.1277
23112SOL     OW73251   8.776   4.810   9.672 -0.3094 -0.3859  0.0597
23112SOL    HW173252   8.858   4.860   9.676 -0.4344 -0.1846  0.0977
23112SOL    HW273253   8.765   4.791   9.579 -0.0124 -0.7568  0.0972
23113SOL     OW73254   6.489   2.552   1.285  0.7700 -0.1381  0.9603
23113SOL    HW173255   6.548   2.627   1.288  0.3668  0.2610 -0.2528
23113SOL    HW273256   6.540   2.480   1.320  2.0977  0.1401 -0.2931
23114SOL     OW73257   9.675   8.098   5.251  0.0618  0.0165 -0.0379
23114SOL    HW173258   9.594   8.146   5.235 -0.4621  0.4489  3.1624
23114SOL    HW273259   9.728   8.158   5.304  1.1540 -1.3776  0.5234
23115SOL     OW73260   0.171   1.389   8.485  0.2316 -0.4294  0.2922
23115SOL    HW173261   0.260   1.355   8.493  1.3074  1.8936 -0.7486
23115SOL    HW273262   0.137   1.347   8.406  2.0164  1.6426 -1.7583
23116SOL     OW73263   5.649   6.507   6.589 -0.0902  0.3326 -0.1930
23116SOL    HW173264   5.635   6.589   6.638  0.3928 -0.6446  1.6750
23116SOL    HW273265   5.730   6.521   6.541  0.8632  0.4136  1.3846
23117SOL     OW73266   6.949   9.286   7.316  0.1734  0.1083 -0.2853
23117SOL    HW173267   7.016   9.349   7.287  0.4092  0.2471  0.5333
23117SOL    HW273268   6.873   9.340   7.337  0.0544  0.0240 -0.4988
23118SOL     OW73269   8.431   5.267   1.893 -0.2157  0.6463  0.1302
23118SOL    HW173270   8.485   5.188   1.892  1.1055  1.5261  0.2504
23118SOL    HW273271   8.447   5.308   1.807 -2.5864 -0.2954 -0.8424
23119SOL     OW73272   5.297   2.218   1.799  0.1566 -0.1015  0.7883
23119SOL    HW173273   5.342   2.222   1.715 -0.4987  2.3305  0.4606
23119SOL    HW273274   5.357   2.260   1.861 -0.6177  0.9668  0.8457
23120SOL     OW73275   0.413   8.407   9.295  0.1758  0.4884  0.3420
23120SOL    HW173276   0.475   8.334   9.292 -0.1266  0.2229  0.4211
23120SOL    HW273277   0.421   8.449   9.209  0.5796  0.5574  0.4100
23121SOL     OW73278   4.075   3.347   6.431  0.0864  0.3294  0.5225
23121SOL    HW173279   4.073   3.255   6.460 -0.8089  0.1700 -0.0147
23121SOL    HW273280   4.135   3.346   6.356 -0.7318 -0.0376 -0.1506
23122SOL     OW73281   6.162   5.562   1.063 -0.3476 -0.5523  0.0379
23122SOL    HW173282   6.084   5.592   1.111  0.2289  0.4858  0.3616
23122SOL    HW273283   6.235   5.609   1.105  0.1535  0.5931 -1.9933
23123SOL     OW73284   8.632   4.818   3.392  0.0311 -0.2162 -0.0463
23123SOL    HW173285   8.590   4.784   3.471  0.1382 -1.5977 -0.5530
23123SOL    HW273286   8.561   4.827   3.329 -0.0975  1.1316  0.2620
23124SOL     OW73287   9.555   5.110   6.481  0.1704  0.2057  0.6398
23124SOL    HW173288   9.495   5.144   6.547 -0.8028 -1.0851  0.4651
23124SOL    HW273289   9.501   5.101   6.402  1.1977  1.2884 -0.2164
23125SOL     OW73290   5.470   1.695   2.330 -0.2022 -0.2357  0.0580
23125SOL    HW173291   5.559   1.727   2.343 -0.1933  0.5498 -1.6407
23125SOL    HW273292   5.478   1.631   2.259 -0.8189 -1.1546  0.7912
23126SOL     OW73293   5.088   9.647   7.749 -0.5666  0.2687 -0.1457
23126SOL    HW173294   5.048   9.718   7.698  0.5018  1.0829  0.1160
23126SOL    HW273295   5.062   9.665   7.839 -2.3965 -1.1287 -0.3466
23127SOL     OW73296   0.855   4.320   4.310  0.5100 -0.5703  0.8273
23127SOL    HW173297   0.908   4.377   4.253 -1.8897  0.7233 -0.2363
23127SOL    HW273298   0.856   4.364   4.395  1.5521 -0.8548  0.9768
23128SOL     OW73299   5.565   8.429   6.554  0.4044  0.0608 -0.1860
23128SOL    HW173300   5.528   8.518   6.553  1.7036  0.6161 -0.4747
23128SOL    HW273301   5.625   8.427   6.479  1.8843 -0.4070  0.9662
23129SOL     OW73302   8.751   3.022   1.762 -0.2036 -0.3539  0.1397
23129SOL    HW173303   8.683   3.089   1.773 -2.5370 -2.4209 -0.8577
23129SOL    HW273304   8.830   3.072   1.740 -1.8144  2.0692 -0.5198
23130SOL     OW73305   3.472   8.512   5.368  0.5325  0.0873  0.3778
23130SOL    HW173306   3.463   8.418   5.354 -1.1813  0.2575  0.1040
23130SOL    HW273307   3.469   8.523   5.463  2.3519 -0.2371  0.5081
23131SOL     OW73308   5.180   2.371   7.513  0.4072  0.5122 -0.1161
23131SOL    HW173309   5.175   2.448   7.457  1.7868  1.3410  0.8410
23131SOL    HW273310   5.273   2.359   7.529  0.1735 -0.9772  0.2841
23132SOL     OW73311   6.353   1.238   2.627  0.7581 -0.7299  0.6731
23132SOL    HW173312   6.286   1.280   2.574  0.3776 -1.7281  0.3345
23132SOL    HW273313   6.308   1.164   2.669  1.4311 -0.8860  1.1457
23133SOL     OW73314   3.678   1.513   8.494  0.2307 -0.1893 -0.5427
23133SOL    HW173315   3.611   1.575   8.520  0.5022  0.0026 -0.2935
23133SOL    HW273316   3.745   1.521   8.562  0.7978  0.0824 -1.1290
23134SOL     OW73317   7.094   1.993   2.033  0.7624  0.0466  1.1020
23134SOL    HW173318   7.047   1.916   2.067  0.2729 -0.5944 -0.8829
23134SOL    HW273319   7.060   2.004   1.944  0.0054  3.2686  1.6852
23135SOL     OW73320   3.449   5.026   9.214  0.3220 -0.1293  0.1814
23135SOL    HW173321   3.544   5.016   9.220  0.3376  0.5245  1.2062
23135SOL    HW273322   3.414   4.976   9.288 -0.2640 -1.8138 -1.1762
23136SOL     OW73323   7.186   1.488   4.523 -0.1770  0.0392  0.1260
23136SOL    HW173324   7.215   1.469   4.612  0.3878 -0.2982 -0.1208
23136SOL    HW273325   7.222   1.574   4.503 -1.7253  0.8778  0.8157
23137SOL     OW73326   1.190   1.157   6.546  0.3821 -0.0462 -0.3874
23137SOL    HW173327   1.174   1.116   6.461 -1.4446  0.1255 -0.1707
23137SOL    HW273328   1.192   1.083   6.607 -0.7116  0.0058 -0.2798
23138SOL     OW73329   8.552   0.010   1.311 -0.0290  0.4039 -0.2008
23138SOL    HW173330   8.613   0.031   1.382 -2.8040  1.4065  2.0592
23138SOL    HW273331   8.562   0.082   1.249  1.6693  0.0761 -0.3582
23139SOL     OW73332   8.472   8.722   2.245  0.2638  0.3394 -0.0895
23139SOL    HW173333   8.439   8.809   2.267  1.7595  0.2087  3.4372
23139SOL    HW273334   8.547   8.738   2.187 -0.0386  1.3105 -0.2208
23140SOL     OW73335   4.607   5.571   7.222 -0.0116 -0.0410  0.1844
23140SOL    HW173336   4.589   5.522   7.142 -1.0915  1.7477 -0.7396
23140SOL    HW273337   4.637   5.505   7.285 -1.4350 -1.8799 -0.9583
23141SOL     OW73338   6.041   6.445   1.862 -0.3222 -0.0121 -0.1175
23141SOL    HW173339   6.063   6.532   1.893  0.3632 -0.6035  1.1275
23141SOL    HW273340   5.960   6.457   1.813  0.0677  1.4038 -0.4511
23142SOL     OW73341   7.827   5.269   2.946 -0.7016  0.1410 -0.2357
23142SOL    HW173342   7.811   5.351   2.900 -1.1356  0.1991  0.0131
23142SOL    HW273343   7.774   5.274   3.025  1.8822  1.0804  1.5642
23143SOL     OW73344   7.528   2.618   4.174 -0.0787  0.1120 -0.2130
23143SOL    HW173345   7.572   2.683   4.228  1.4447 -0.0805 -1.1656
23143SOL    HW273346   7.597   2.554   4.153 -1.4926 -1.8308  0.6767
23144SOL     OW73347   9.457   5.485   3.171 -0.5385  0.3623 -0.1321
23144SOL    HW173348   9.449   5.465   3.264 -0.3019  1.4960  0.1496
23144SOL    HW273349   9.545   5.455   3.147 -0.3619  0.6373  0.1666
23145SOL     OW73350   3.602  10.066   8.042  0.1439  0.0009  0.0810
23145SOL    HW173351   3.641  10.056   8.129  1.8392  0.6007 -0.5683
23145SOL    HW273352   3.635   9.991   7.992 -0.5963 -0.1900 -0.1259
23146SOL     OW73353   2.925   8.528   2.117  1.1576  0.0685 -0.0705
23146SOL    HW173354   2.921   8.611   2.069 -0.0054 -0.2609 -0.5965
23146SOL    HW273355   2.848   8.479   2.086  1.5286 -0.9903  0.6226
23147SOL     OW73356   1.895   2.387   2.874  0.4819 -0.0152 -0.3440
23147SOL    HW173357   1.882   2.480   2.855 -0.1336 -0.2642 -1.1721
23147SOL    HW273358   1.807   2.351   2.881  0.6439 -0.1134  2.3403
23148SOL     OW73359   6.738   3.143   3.788  0.0955  0.0366 -0.8119
23148SOL    HW173360   6.788   3.202   3.731  0.6579  3.5120  2.8419
23148SOL    HW273361   6.650   3.180   3.790 -0.2051 -0.6771 -0.2395
23149SOL     OW73362   0.792   6.023   5.236  0.1681  0.2602 -0.3753
23149SOL    HW173363   0.881   6.045   5.206 -0.4160  0.1205 -2.3295
23149SOL    HW273364   0.735   6.055   5.166 -1.0767 -2.7548 -0.8630
23150SOL     OW73365   7.555   5.660   4.309  0.2636 -0.2478 -0.9449
23150SOL    HW173366   7.555   5.569   4.278 -0.9476 -0.5255 -0.2221
23150SOL    HW273367   7.601   5.655   4.394  2.8602  0.3701 -2.2070
23151SOL     OW73368   5.282   6.429   8.491 -0.4070 -0.0632 -0.2782
23151SOL    HW173369   5.367   6.431   8.447 -0.7350  0.7914 -0.9147
23151SOL    HW273370   5.218   6.431   8.419 -1.0062 -2.6049  0.1056
23152SOL     OW73371   8.478   9.715   6.238  0.1272 -0.9377 -0.3838
23152SOL    HW173372   8.415   9.681   6.175 -0.8295  0.1113 -0.0086
23152SOL    HW273373   8.451   9.677   6.321 -0.1803 -0.2602 -0.1756
23153SOL     OW73374   0.308   2.176   5.819 -0.3384  0.0268 -0.1165
23153SOL    HW173375   0.247   2.178   5.893  1.9038 -2.7497  2.0937
23153SOL    HW273376   0.311   2.083   5.795  3.1377 -0.0425  0.1585
23154SOL     OW73377   2.655   4.405   6.525 -0.2064 -0.1045  0.3376
23154SOL    HW173378   2.733   4.457   6.506 -0.7895  0.4839 -0.5240
23154SOL    HW273379   2.585   4.469   6.535 -0.4028 -0.5481  2.1938
23155SOL     OW73380   8.053   0.082   9.962  0.1659 -0.0814 -0.3261
23155SOL    HW173381   7.996   0.038   9.900 -1.2419 -0.1389  0.9451
23155SOL    HW273382   8.062   0.020  10.035  1.3605  0.1804 -0.2267
23156SOL     OW73383   3.225   5.564   6.974 -0.0776 -0.0411 -0.6413
23156SOL    HW173384   3.279   5.504   6.923  0.8934  0.2067  0.0668
23156SOL    HW273385   3.214   5.640   6.916 -0.5271 -0.4979 -1.1754
23157SOL     OW73386   7.399   1.482   5.857  0.2453 -0.1896 -0.0046
23157SOL    HW173387   7.429   1.511   5.943 -0.1459 -0.5865  0.2680
23157SOL    HW273388   7.308   1.513   5.852 -0.2092 -1.4295  0.3254
23158SOL     OW73389   6.366   5.873   6.086 -0.3128 -0.4218 -0.4563
23158SOL    HW173390   6.334   5.963   6.094 -0.1116 -0.3589 -0.3526
23158SOL    HW273391   6.426   5.862   6.159 -2.1741 -1.4351  0.9902
23159SOL     OW73392   2.212   0.068   8.079  0.2938  0.5545  0.1227
23159SOL    HW173393   2.240   0.037   7.993  2.2667 -0.1009  0.9557
23159SOL    HW273394   2.257   0.011   8.141 -0.8278  1.2186  1.6245
23160SOL     OW73395   5.471   1.169   3.461 -0.1913  0.6397 -0.0205
23160SOL    HW173396   5.519   1.103   3.411  0.2804 -0.9370  2.3717
23160SOL    HW273397   5.511   1.252   3.436  0.1422 -0.0755 -2.0544
23161SOL     OW73398   8.603   2.429   5.597  0.1886  0.2432 -0.0827
23161SOL    HW173399   8.583   2.354   5.541  0.5991  1.0372 -1.3179
23161SOL    HW273400   8.696   2.418   5.618 -0.2051 -0.6392  1.3939
23162SOL     OW73401   4.386   8.630   9.310 -0.0013 -0.1159  0.0129
23162SOL    HW173402   4.481   8.632   9.307 -0.0073 -0.1399 -0.1946
23162SOL    HW273403   4.362   8.702   9.368 -0.0046  2.2574 -2.7182
23163SOL     OW73404   1.396   7.441   6.610 -0.2307 -0.2542  0.2381
23163SOL    HW173405   1.342   7.382   6.663  1.2305 -1.8841  0.0190
23163SOL    HW273406   1.479   7.394   6.599  0.2011  0.8593 -1.8767
23164SOL     OW73407   6.584   3.277   9.639  0.4484  0.0755 -0.1472
23164SOL    HW173408   6.513   3.215   9.623 -0.8878  1.7172 -0.8226
23164SOL    HW273409   6.551   3.334   9.708  1.5079  0.3022  0.2014
23165SOL     OW73410   5.240   9.540   7.513  0.3268 -0.0904 -0.2572
23165SOL    HW173411   5.199   9.581   7.589  1.6019  1.5885 -0.4180
23165SOL    HW273412   5.311   9.487   7.549 -0.6890 -1.4290 -0.1291
23166SOL     OW73413   6.009   5.574   2.762 -0.0616  0.1875 -0.4905
23166SOL    HW173414   6.078   5.639   2.778  0.1328 -0.0319 -0.4282
23166SOL    HW273415   5.930   5.613   2.800 -0.0040  0.5005 -0.6808
23167SOL     OW73416   2.104   2.741   5.894 -0.3596 -0.1229 -0.3672
23167SOL    HW173417   2.181   2.716   5.843  0.0399  1.4716 -0.6096
23167SOL    HW273418   2.134   2.738   5.985 -0.3390 -0.5827 -0.3890
23168SOL     OW73419   3.135   8.929   2.652  0.7504 -0.0384 -0.0322
23168SOL    HW173420   3.213   8.878   2.674 -0.5043 -1.9122  0.2940
23168SOL    HW273421   3.110   8.899   2.565 -0.8132 -1.1194  0.7307
23169SOL     OW73422   4.508   5.344   5.216  0.1384 -0.3678 -0.4729
23169SOL    HW173423   4.513   5.435   5.245  1.2698 -0.3372 -0.6904
23169SOL    HW273424   4.596   5.325   5.183  0.6909 -2.3276  1.8745
23170SOL     OW73425   4.085   6.567   5.149 -0.4705  0.6163 -0.0767
23170SOL    HW173426   4.073   6.549   5.242  1.0502  0.9530  0.2142
23170SOL    HW273427   4.032   6.645   5.133 -0.4444  0.7828  0.6122
23171SOL     OW73428   2.849   8.271   8.663  0.3443  0.1464 -0.3722
23171SOL    HW173429   2.765   8.238   8.633 -0.1570 -1.0437  2.0478
23171SOL    HW273430   2.914   8.214   8.622 -0.1478 -0.1546 -0.7393
23172SOL     OW73431   6.152   0.869   9.484  0.1861 -0.0714  0.6805
23172SOL    HW173432   6.152   0.816   9.563  0.3548  1.3638  1.6903
23172SOL    HW273433   6.243   0.896   9.473  0.4065 -1.2855 -0.7538
23173SOL     OW73434   6.352   0.595   1.380 -0.4502 -0.6742 -0.2548
23173SOL    HW173435   6.410   0.667   1.354 -1.1781  0.3127  0.7584
23173SOL    HW273436   6.411   0.527   1.413  0.2263 -0.4100 -0.8876
23174SOL     OW73437   9.197   8.121   6.753 -0.3959 -0.0913  0.1239
23174SOL    HW173438   9.241   8.201   6.783  1.4998 -0.7570 -0.7453
23174SOL    HW273439   9.223   8.111   6.662 -0.9074 -1.5024  0.1032
23175SOL     OW73440   9.794   8.338   5.298 -0.1254 -0.4053 -0.3377
23175SOL    HW173441   9.865   8.386   5.257  2.1068 -1.6368  1.8202
23175SOL    HW273442   9.747   8.403   5.351 -0.9981  0.5029 -2.1202
23176SOL     OW73443   5.557   8.458   7.036 -0.4313  0.3489  0.3605
23176SOL    HW173444   5.576   8.408   7.115  0.0360 -0.5333 -0.2824
23176SOL    HW273445   5.641   8.493   7.008 -0.4526  0.0003 -0.1657
23177SOL     OW73446   2.451   0.927   4.150 -0.2476 -0.3160 -0.7881
23177SOL    HW173447   2.521   0.875   4.111 -0.4287 -0.0472 -1.4847
23177SOL    HW273448   2.375   0.910   4.096 -0.5994 -0.2168 -0.3313
23178SOL     OW73449   2.477   4.209   5.600 -0.7908 -0.2837 -0.0997
23178SOL    HW173450   2.517   4.124   5.617 -0.3719 -0.2160 -0.7369
23178SOL    HW273451   2.509   4.235   5.514  0.0647  1.0728  0.5818
23179SOL     OW73452   4.238   2.605   7.579 -0.2515 -0.1456 -0.8483
23179SOL    HW173453   4.237   2.512   7.555  0.9329  0.2250 -2.5201
23179SOL    HW273454   4.326   2.634   7.557 -0.3340  1.2013  0.4519
23180SOL     OW73455   6.597   1.463   4.379 -0.0782  0.1326  0.0956
23180SOL    HW173456   6.614   1.399   4.310  1.5648 -0.5318  1.0479
23180SOL    HW273457   6.684   1.495   4.403 -0.5998  0.2505  1.9323
23181SOL     OW73458   4.637   0.948   4.747  0.4692  0.3309  0.1206
23181SOL    HW173459   4.638   0.945   4.843  2.1595  1.9226  0.2150
23181SOL    HW273460   4.719   0.991   4.724 -0.4642  1.1032 -2.0155
23182SOL     OW73461   7.701   1.919   0.476 -0.0960 -0.3310 -0.7736
23182SOL    HW173462   7.767   1.949   0.538  0.0783  0.8604 -1.5231
23182SOL    HW273463   7.621   1.966   0.501 -0.0754  0.0008 -1.3160
23183SOL     OW73464   2.432   7.461   0.844 -0.3989 -0.0897 -0.5804
23183SOL    HW173465   2.375   7.521   0.893 -2.9118 -2.7860  0.1490
23183SOL    HW273466   2.379   7.434   0.769 -0.0568 -2.4672 -0.0536
23184SOL     OW73467   2.156   8.816   4.755  0.0230  0.2169  0.5954
23184SOL    HW173468   2.178   8.908   4.745 -1.2127  0.4225 -0.4925
23184SOL    HW273469   2.222   8.770   4.703 -1.5138  0.7740 -2.0183
23185SOL     OW73470   3.253   6.854   2.686  0.3458  0.1399 -0.3491
23185SOL    HW173471   3.218   6.868   2.598  0.1303 -0.2410 -0.3217
23185SOL    HW273472   3.343   6.825   2.671 -0.4484 -2.4329 -0.5435
23186SOL     OW73473   6.977  10.016   1.309  0.0411  0.1737  0.5577
23186SOL    HW173474   6.931  10.100   1.317 -0.0578  0.1329  0.4140
23186SOL    HW273475   7.059  10.029   1.358 -0.3471  0.0800  1.2514
23187SOL     OW73476   5.530   7.597   3.984 -0.1243 -0.3493  1.1577
23187SOL    HW173477   5.606   7.625   3.932 -1.9404  1.4973 -0.7606
23187SOL    HW273478   5.495   7.522   3.936 -1.7072  1.2555 -0.3602
23188SOL     OW73479   2.952   8.807   2.038  0.0353 -0.2404 -0.1586
23188SOL    HW173480   3.020   8.866   2.069  0.3437 -0.2346 -0.8224
23188SOL    HW273481   2.892   8.799   2.112 -0.9368  2.2503 -0.5558
23189SOL     OW73482   9.298   0.902   9.703  0.2629  1.2450 -0.1092
23189SOL    HW173483   9.228   0.878   9.643  1.5670 -0.5078 -0.9997
23189SOL    HW273484   9.375   0.915   9.647  1.5332 -0.5156  1.0967
23190SOL     OW73485   1.572   7.661   1.150  0.0791  0.2129  0.4689
23190SOL    HW173486   1.484   7.688   1.124 -0.8775  0.1800  3.2526
23190SOL    HW273487   1.566   7.565   1.156  0.0758  0.2496  1.2236
23191SOL     OW73488   8.046   2.906   5.405  0.0569  0.3747 -0.2061
23191SOL    HW173489   7.989   2.897   5.329  0.5226 -0.9829 -0.4167
23191SOL    HW273490   7.996   2.869   5.478 -0.8858  2.7786  0.4568
23192SOL     OW73491   6.927   2.288   9.888  0.1937  0.0536 -0.1526
23192SOL    HW173492   6.861   2.339   9.840  1.2023  1.4814 -0.1247
23192SOL    HW273493   6.920   2.200   9.852 -0.8417  0.4805 -1.0767
23193SOL     OW73494   8.967   7.177   5.619  0.3446  0.2425 -0.0218
23193SOL    HW173495   8.872   7.187   5.620  0.3354  0.6529 -1.8224
23193SOL    HW273496   8.982   7.082   5.620 -0.0630  0.1802  0.5524
23194SOL     OW73497  10.008   0.567   0.975 -0.3852  0.0871 -0.3481
23194SOL    HW173498   9.950   0.537   0.905  0.0199 -0.3404 -0.5086
23194SOL    HW273499  10.082   0.506   0.973 -0.6521 -0.3024  0.8495
23195SOL     OW73500   7.165   3.925   2.966 -0.0712 -0.0805  0.0897
23195SOL    HW173501   7.231   3.856   2.967  0.3131  0.2370 -1.3492
23195SOL    HW273502   7.201   3.993   3.024  1.5090  0.6181 -1.6021
23196SOL     OW73503   1.787   8.374   4.527 -0.0889 -0.4608  0.2330
23196SOL    HW173504   1.860   8.359   4.588  0.7385 -0.5727 -0.7456
23196SOL    HW273505   1.792   8.467   4.505  0.1516 -0.5946 -0.3040
23197SOL     OW73506   5.329   2.474   1.165  0.0301  0.2873  0.4344
23197SOL    HW173507   5.255   2.492   1.108  0.8510  1.7789 -0.2066
23197SOL    HW273508   5.369   2.560   1.182  0.3197 -0.2024  2.5702
23198SOL     OW73509   4.104   8.692   9.169 -0.1769 -0.3487  0.4624
23198SOL    HW173510   4.164   8.762   9.194 -0.6217 -0.2627  1.3255
23198SOL    HW273511   4.039   8.690   9.239 -2.0967  0.5843 -1.2190
23199SOL     OW73512   6.919   0.138   9.689 -0.5738 -0.2919  0.1276
23199SOL    HW173513   6.980   0.069   9.665  0.6211  0.9456 -0.5631
23199SOL    HW273514   6.837   0.093   9.708  0.6923 -2.0708  1.6672
23200SOL     OW73515   2.268   4.344   1.403 -0.6023 -0.5964  0.1977
23200SOL    HW173516   2.351   4.305   1.431  0.6076  1.4078 -0.3204
23200SOL    HW273517   2.243   4.402   1.475 -1.5345 -1.1376  0.3203
23201SOL     OW73518  10.027   7.909   2.629  0.3164  0.3359  0.1801
23201SOL    HW173519   9.951   7.967   2.629 -0.2369 -0.3796 -0.3583
23201SOL    HW273520  10.097   7.962   2.668 -0.5265  0.8948  0.9728
23202SOL     OW73521   9.621   0.807   1.439 -0.0758 -0.1392  0.4023
23202SOL    HW173522   9.621   0.871   1.510  0.6657  1.2562 -0.7909
23202SOL    HW273523   9.601   0.858   1.360  0.0089 -1.4708 -0.5228
23203SOL     OW73524   7.408  10.205   1.331 -0.0709  1.1558 -0.3350
23203SOL    HW173525   7.337  10.249   1.377  0.1617  1.3511 -0.1605
23203SOL    HW273526   7.419  10.255   1.250 -0.1057  1.1489 -0.3439
23204SOL     OW73527   0.683   5.444   8.369  0.1880 -0.2398 -0.0330
23204SOL    HW173528   0.750   5.511   8.358  0.1776 -0.3030 -0.5019
23204SOL    HW273529   0.732   5.362   8.379  0.1824 -0.4919 -1.7611
23205SOL     OW73530   8.948   1.594   5.309 -0.1237 -0.1633 -0.3648
23205SOL    HW173531   9.001   1.607   5.230  0.4107 -0.8227 -0.1295
23205SOL    HW273532   9.005   1.619   5.381 -0.7783  0.9119 -0.2027
23206SOL     OW73533   3.646   6.450   5.972 -0.0236  0.6317 -0.0090
23206SOL    HW173534   3.651   6.523   5.911 -1.0637  0.3123 -0.5007
23206SOL    HW273535   3.681   6.375   5.924 -0.4318  0.4722 -0.0596
23207SOL     OW73536   1.205   5.770   4.735 -0.0025  0.2536 -0.3368
23207SOL    HW173537   1.259   5.710   4.788 -0.1190  1.3095  1.0441
23207SOL    HW273538   1.206   5.852   4.785 -1.5448  0.7826 -1.1306
23208SOL     OW73539   5.119   3.071   9.769 -0.1732 -0.2356  0.3226
23208SOL    HW173540   5.181   3.069   9.842  0.2805 -0.6796 -0.0628
23208SOL    HW273541   5.137   3.153   9.725  0.1009 -0.3288  0.2533
23209SOL     OW73542   3.070   0.324   9.961 -0.3081  0.3383  0.0924
23209SOL    HW173543   3.054   0.345  10.053 -1.2294  1.7169 -0.3508
23209SOL    HW273544   3.042   0.402   9.913 -0.1583 -0.4739 -1.3856
23210SOL     OW73545   0.685   9.832   6.194  0.1985  0.2504 -0.0364
23210SOL    HW173546   0.594   9.803   6.190 -0.2808  1.5650  0.7854
23210SOL    HW273547   0.714   9.808   6.282  0.4896  0.2605 -0.1312
23211SOL     OW73548   0.787   4.092   7.379 -0.2742 -0.6661 -0.0444
23211SOL    HW173549   0.732   4.155   7.331 -0.3010  0.0472  0.8854
23211SOL    HW273550   0.874   4.104   7.343 -0.0628  0.6888  0.8281
23212SOL     OW73551   1.896   6.617   0.723  0.1306 -1.0089 -0.0670
23212SOL    HW173552   1.917   6.668   0.801 -0.6566 -0.2516 -0.3371
23212SOL    HW273553   1.931   6.668   0.650 -0.5363 -0.9185 -0.3296
23213SOL     OW73554   0.469   8.042   3.309 -0.1864 -0.0754  0.7112
23213SOL    HW173555   0.499   8.016   3.396 -2.8827 -2.3431  1.1215
23213SOL    HW273556   0.514   7.982   3.250 -0.1520 -0.1221  0.7834
23214SOL     OW73557   4.884   5.487   5.524 -0.0148  0.4662  0.4609
23214SOL    HW173558   4.869   5.396   5.549  0.3283  0.5411  0.9360
23214SOL    HW273559   4.853   5.538   5.599 -0.8355  0.7786 -0.0689
23215SOL     OW73560   3.197   7.337   9.551  0.3529 -0.0788 -0.4765
23215SOL    HW173561   3.142   7.409   9.518 -0.0737 -0.5311 -0.7772
23215SOL    HW273562   3.213   7.283   9.474  1.1584  0.0019 -0.3680
23216SOL     OW73563   1.320   9.082  10.019  0.4971  0.4743 -0.0639
23216SOL    HW173564   1.334   8.989  10.003  1.1217  0.4313  0.6671
23216SOL    HW273565   1.408   9.118  10.028  0.2828  1.2616 -0.9711
23217SOL     OW73566   1.400   8.365   1.279 -0.5671 -0.4022 -0.2965
23217SOL    HW173567   1.345   8.303   1.327 -1.6709  0.6575 -0.1419
23217SOL    HW273568   1.434   8.315   1.205 -1.3454 -1.2190 -0.1169
23218SOL     OW73569   9.987   0.469   5.060  0.1050 -0.9367 -0.1260
23218SOL    HW173570   9.929   0.475   4.984 -1.3149 -0.0892  0.9752
23218SOL    HW273571  10.060   0.528   5.038 -0.5099 -0.3453 -0.6569
23219SOL     OW73572   2.850   0.795   2.645  0.4961 -0.2525 -0.7166
23219SOL    HW173573   2.912   0.799   2.572 -0.4466  1.4037 -1.4869
23219SOL    HW273574   2.885   0.857   2.709  2.1545 -2.8022  1.0261
23220SOL     OW73575   9.244   1.041   4.475 -0.1226 -0.1236 -0.4141
23220SOL    HW173576   9.340   1.046   4.472 -0.0916 -0.9417 -1.6959
23220SOL    HW273577   9.217   1.046   4.383 -1.3306  0.3275 -0.0548
23221SOL     OW73578   8.214   3.235   9.126 -0.3178 -0.3663 -0.2343
23221SOL    HW173579   8.264   3.153   9.116 -0.1413 -0.2471 -0.3313
23221SOL    HW273580   8.255   3.295   9.064 -0.1307 -0.0546  0.1869
23222SOL     OW73581   1.090   4.659   5.318  0.3098 -0.3836 -0.3250
23222SOL    HW173582   1.157   4.631   5.380  0.6061  1.3977  0.2139
23222SOL    HW273583   1.017   4.689   5.373 -1.0083 -2.3002 -0.8970
23223SOL     OW73584   2.123   2.994   8.998 -0.2385 -0.3943 -0.1050
23223SOL    HW173585   2.098   2.947   9.078  0.8536 -1.0226 -0.1075
23223SOL    HW273586   2.123   3.086   9.023  0.0457 -0.5805  0.6215
23224SOL     OW73587   1.966   0.229   8.930 -0.1164 -0.2981 -0.0534
23224SOL    HW173588   1.989   0.265   8.845 -0.4511  0.3125  0.1105
23224SOL    HW273589   1.928   0.143   8.910 -2.7082  0.9118 -0.7822
23225SOL     OW73590   3.865   1.804   3.415 -0.1312  0.4635 -1.0735
23225SOL    HW173591   3.832   1.889   3.447 -0.8852  0.3498 -1.5244
23225SOL    HW273592   3.786   1.753   3.399  0.3019 -0.0825 -1.4826
23226SOL     OW73593   7.261   6.493   8.436 -0.4454 -0.2454 -0.2147
23226SOL    HW173594   7.235   6.581   8.410 -0.1787 -0.2137 -0.3798
23226SOL    HW273595   7.235   6.486   8.528  1.1151  0.6279  0.3215
23227SOL     OW73596   3.151   5.366   5.576  0.2144  0.0677 -0.5757
23227SOL    HW173597   3.072   5.405   5.538  0.6726  0.2159 -1.3931
23227SOL    HW273598   3.164   5.286   5.526 -1.2625 -1.7435  1.6905
23228SOL     OW73599   1.024   1.347   3.805  0.9796 -0.4650 -0.3274
23228SOL    HW173600   0.991   1.327   3.718 -0.3257  2.1308 -0.5044
23228SOL    HW273601   0.947   1.342   3.862  1.0153  1.6143 -0.0273
23229SOL     OW73602   7.197   5.869   2.200  0.1071  0.2017 -0.0529
23229SOL    HW173603   7.103   5.852   2.208  0.4096 -0.9502  1.5011
23229SOL    HW273604   7.212   5.947   2.254 -0.2174  1.6031 -1.8763
23230SOL     OW73605   9.885   4.030   8.279  0.0834 -0.2045  0.1961
23230SOL    HW173606   9.852   3.969   8.214 -0.0150  0.6230 -0.5556
23230SOL    HW273607   9.818   4.098   8.285  0.6374  0.3451  0.2901
23231SOL     OW73608   4.698   9.186   4.542  0.5526  0.1208  0.0023
23231SOL    HW173609   4.641   9.173   4.467  0.9850  0.8612 -0.4716
23231SOL    HW273610   4.725   9.278   4.535  0.5297  0.2236  1.1084
23232SOL     OW73611   3.102   0.582   5.908 -0.6014 -0.0528 -0.0064
23232SOL    HW173612   3.182   0.533   5.889 -0.5387 -1.2109  2.7769
23232SOL    HW273613   3.036   0.514   5.923 -1.3337  0.7826  0.6564
23233SOL     OW73614   4.301   6.420   0.419 -0.3342 -0.3033 -0.7306
23233SOL    HW173615   4.303   6.337   0.468 -1.0555 -0.2817 -0.6541
23233SOL    HW273616   4.264   6.483   0.481  3.0636  0.8707  0.3405
23234SOL     OW73617   7.954   4.000   3.610  0.1687  0.6292  0.1196
23234SOL    HW173618   7.968   4.076   3.667 -1.6250  0.8661  0.3026
23234SOL    HW273619   8.008   3.931   3.649  0.6231  1.3841  0.8627
23235SOL     OW73620   5.641   1.240   6.821 -0.1860 -0.6067  0.3784
23235SOL    HW173621   5.611   1.191   6.744  0.2187  0.4474 -0.4730
23235SOL    HW273622   5.718   1.192   6.852 -0.2701 -0.9622  0.0444
23236SOL     OW73623   1.016   6.312   2.573 -1.1346  0.1460 -0.0690
23236SOL    HW173624   1.101   6.267   2.568 -0.3409  1.3881  1.4728
23236SOL    HW273625   0.956   6.253   2.528  0.6359 -0.4998 -1.7685
23237SOL     OW73626   9.391   7.500   3.467 -0.0217  0.0484  0.2646
23237SOL    HW173627   9.434   7.506   3.552 -2.7024 -0.7986  1.7867
23237SOL    HW273628   9.352   7.412   3.466 -2.0742  0.9109 -0.7726
23238SOL     OW73629   1.590   8.050   0.295 -0.3515 -0.0464  0.3484
23238SOL    HW173630   1.634   8.129   0.266  0.5134 -0.5438  0.2755
23238SOL    HW273631   1.529   8.080   0.363  0.8250  0.5357  1.1922
23239SOL     OW73632   5.075   4.569   8.137  0.3612 -0.2103  0.3679
23239SOL    HW173633   5.004   4.572   8.073  2.5064  0.2968 -2.1686
23239SOL    HW273634   5.063   4.485   8.182 -0.9048 -0.8786 -1.1077
23240SOL     OW73635   0.641   4.464   2.484 -0.0254 -0.2398 -0.2812
23240SOL    HW173636   0.629   4.512   2.402  1.7490 -0.5432 -0.7645
23240SOL    HW273637   0.641   4.531   2.552  0.1945  0.2133 -0.7195
23241SOL     OW73638   2.620   8.710   6.934  0.2240 -0.3179  0.1304
23241SOL    HW173639   2.633   8.769   7.008  0.6006  0.7178 -0.7349
23241SOL    HW273640   2.678   8.636   6.953  0.5264  0.0589  0.7378
23242SOL     OW73641   4.758   2.516   4.689 -0.1157 -0.0298  0.5566
23242SOL    HW173642   4.831   2.454   4.692  1.2188  1.3853 -0.8045
23242SOL    HW273643   4.707   2.489   4.613  0.5416  0.5643 -0.1181
23243SOL     OW73644   9.034   7.321   6.097  0.0357  0.4567 -0.0533
23243SOL    HW173645   8.996   7.338   6.183 -1.5234  2.2992 -1.0201
23243SOL    HW273646   8.968   7.353   6.035  0.1582 -2.7404 -2.0356
23244SOL     OW73647   1.062   8.901   0.322 -0.5112  0.0929  0.1320
23244SOL    HW173648   1.108   8.903   0.238  3.8475 -0.6351  2.2171
23244SOL    HW273649   1.087   8.818   0.361 -3.0003  0.0793  1.9648
23245SOL     OW73650   0.331  10.097   8.861 -0.1432  0.1472  0.5721
23245SOL    HW173651   0.267  10.168   8.868  0.0252  0.3320  0.2656
23245SOL    HW273652   0.412  10.136   8.896  0.1974  0.4278 -0.4920
23246SOL     OW73653   7.566   9.005   6.306  0.0576  0.7298  0.9538
23246SOL    HW173654   7.578   9.100   6.306 -0.2170  0.7651 -0.0148
23246SOL    HW273655   7.475   8.992   6.332  0.1932  0.7112  1.4335
23247SOL     OW73656   4.563   2.490   8.388  0.2632  0.1681  0.5280
23247SOL    HW173657   4.626   2.440   8.336  0.9319  0.9558  0.5722
23247SOL    HW273658   4.480   2.480   8.341  0.9304  1.1906 -0.9327
23248SOL     OW73659   0.421   0.536   6.989  0.7736  0.7843 -0.1889
23248SOL    HW173660   0.398   0.451   6.950  0.0358  1.3236 -0.9697
23248SOL    HW273661   0.492   0.569   6.934  1.1143  0.6409  0.1628
23249SOL     OW73662   1.364   8.849   5.205 -0.1558 -0.3092 -0.1415
23249SOL    HW173663   1.307   8.785   5.248  1.7867 -1.2016  1.2093
23249SOL    HW273664   1.364   8.822   5.113 -2.6942  0.3575 -0.4099
23250SOL     OW73665   7.315   0.488   9.485  0.8027 -0.1430  0.2383
23250SOL    HW173666   7.383   0.535   9.535  0.9171  0.7201 -0.6960
23250SOL    HW273667   7.362   0.417   9.441  1.2863  0.9154 -1.0247
23251SOL     OW73668   7.833   1.789  10.030  0.7061  0.2669 -0.2931
23251SOL    HW173669   7.875   1.795   9.945  0.8450  0.6647 -0.1992
23251SOL    HW273670   7.835   1.696  10.052 -1.0967 -0.1357 -1.6061
23252SOL     OW73671   5.178   2.484   9.429  0.5588 -0.0961  0.0438
23252SOL    HW173672   5.220   2.563   9.462  1.9395 -0.5304 -0.5865
23252SOL    HW273673   5.108   2.516   9.373  0.9178  0.6833  0.0248
23253SOL     OW73674   5.319   1.898   6.853  0.0840  0.2381 -0.2981
23253SOL    HW173675   5.382   1.962   6.819  0.7776  0.8519  1.9649
23253SOL    HW273676   5.350   1.814   6.820  1.8139  0.5938  0.3065
23254SOL     OW73677   8.639   6.832   0.005  0.1557 -0.1276 -0.4786
23254SOL    HW173678   8.572   6.764   0.008 -0.3984  0.4055 -0.7505
23254SOL    HW273679   8.714   6.789  -0.035 -0.6509 -0.1975 -1.9550
23255SOL     OW73680   5.184   5.987   3.159 -0.2282 -0.0637  0.9180
23255SOL    HW173681   5.105   6.024   3.201 -0.9555  1.4083 -1.5619
23255SOL    HW273682   5.256   6.021   3.211 -1.0282  2.8426  0.3147
23256SOL     OW73683   9.090   5.451   2.741  0.8476  0.1101 -0.1402
23256SOL    HW173684   9.002   5.486   2.752  0.2850 -1.1991 -0.2587
23256SOL    HW273685   9.143   5.526   2.714 -0.2055  0.9348  0.0337
23257SOL     OW73686   7.238   8.225   3.240 -0.0664 -0.5134  0.5350
23257SOL    HW173687   7.260   8.152   3.181 -0.6410 -1.1047  1.0418
23257SOL    HW273688   7.164   8.268   3.198  0.2167 -0.2666  0.2810
23258SOL     OW73689   1.501   7.073   7.616  0.1443  0.2846  0.0587
23258SOL    HW173690   1.451   7.142   7.574 -1.5065 -1.4506 -0.9823
23258SOL    HW273691   1.464   7.067   7.705  0.3560  0.7852  0.1812
23259SOL     OW73692   3.035   5.258   4.751 -0.0390 -0.0083  0.2019
23259SOL    HW173693   3.018   5.326   4.686  1.1457 -0.2623 -0.4147
23259SOL    HW273694   3.066   5.305   4.828  0.4337  0.1774 -0.0991
23260SOL     OW73695   3.522   2.746   0.343 -0.1556 -0.1986 -0.6109
23260SOL    HW173696   3.615   2.767   0.351  0.2826 -2.2536  0.2160
23260SOL    HW273697   3.487   2.752   0.432 -0.7295  0.1744 -0.8538
23261SOL     OW73698   7.104   6.446   4.748 -0.1055 -0.4043  0.2190
23261SOL    HW173699   7.134   6.452   4.658 -0.9546 -0.7299 -0.0914
23261SOL    HW273700   7.027   6.390   4.745 -0.9488  0.6570  0.9414
23262SOL     OW73701  10.098   8.443   2.096 -0.6280 -0.0042  0.1636
23262SOL    HW173702  10.053   8.405   2.172  0.9118  0.0115  1.1115
23262SOL    HW273703  10.077   8.383   2.024 -0.5826 -1.0589  1.0056
23263SOL     OW73704   3.519   3.089   7.526  0.5089 -0.4462 -0.2562
23263SOL    HW173705   3.562   3.004   7.516  0.3891 -0.6618  0.9013
23263SOL    HW273706   3.430   3.068   7.556  0.5584  0.0824  0.2911
23264SOL     OW73707   6.278   8.867   7.998  0.4591  0.2083  0.1882
23264SOL    HW173708   6.246   8.862   7.907 -0.5081 -1.9706  0.5629
23264SOL    HW273709   6.215   8.923   8.042 -1.0899 -1.4322  0.1905
23265SOL     OW73710   2.599   6.893   4.742 -0.1728  0.0301  0.1819
23265SOL    HW173711   2.632   6.815   4.786 -1.0350  0.0882  0.9429
23265SOL    HW273712   2.676   6.949   4.734  0.5524 -1.0564 -0.7614
23266SOL     OW73713  10.132   8.880   0.406 -0.1658  0.2695  0.1663
23266SOL    HW173714  10.068   8.920   0.347  0.2527  0.8670  0.1117
23266SOL    HW273715  10.098   8.791   0.421 -1.4115  0.8098  0.7306
23267SOL     OW73716   6.295   5.432   4.999 -0.3686 -0.2458 -0.1045
23267SOL    HW173717   6.319   5.346   5.035  0.7936 -0.0358 -0.3188
23267SOL    HW273718   6.323   5.495   5.066  1.0267  0.0911 -0.9534
23268SOL     OW73719   2.017   3.150   5.745  0.1442 -0.6292  0.0160
23268SOL    HW173720   2.029   3.213   5.816  1.6582  1.0401 -1.6283
23268SOL    HW273721   2.085   3.084   5.760 -0.1491 -0.7982  0.6232
23269SOL     OW73722   8.799   0.832   9.368 -0.4673  0.0032 -0.2632
23269SOL    HW173723   8.882   0.794   9.398 -0.5248 -0.0491 -0.1707
23269SOL    HW273724   8.816   0.926   9.365 -1.6277  0.4935  3.7243
23270SOL     OW73725   3.289   1.798   4.445 -0.0593 -0.2304  0.7824
23270SOL    HW173726   3.351   1.744   4.494  1.0146  0.5811  0.3672
23270SOL    HW273727   3.225   1.826   4.511  1.8585  1.5867  2.0130
23271SOL     OW73728   3.784   5.201   0.434  0.1970  0.2915  0.2953
23271SOL    HW173729   3.719   5.164   0.375  1.4405  0.9431 -1.5955
23271SOL    HW273730   3.842   5.128   0.455  0.6057  0.3704 -0.5306
23272SOL     OW73731   5.442   1.864  10.152 -0.6267  0.1879 -0.4920
23272SOL    HW173732   5.436   1.956  10.125 -1.4717  0.8333  1.6510
23272SOL    HW273733   5.509   1.864  10.221  0.5188 -1.1222 -1.5657
23273SOL     OW73734   4.615   5.086   6.685 -0.3563 -0.3681 -0.1533
23273SOL    HW173735   4.665   5.069   6.606 -0.9344 -0.2822 -0.5444
23273SOL    HW273736   4.532   5.123   6.654 -1.1762 -1.6535  0.3781
23274SOL     OW73737   4.421   8.850   3.047 -0.2630  0.1505 -0.6537
23274SOL    HW173738   4.328   8.858   3.067 -0.7361  0.0992 -2.5977
23274SOL    HW273739   4.447   8.765   3.083 -0.7106  0.5929  0.7468
23275SOL     OW73740  10.051   5.844   6.446 -0.5928  0.3744  0.2647
23275SOL    HW173741  10.129   5.899   6.452 -0.2258  0.3249 -2.7055
23275SOL    HW273742   9.979   5.902   6.469 -0.2723  2.4018 -3.1501
23276SOL     OW73743  10.131   0.684   0.324 -0.0766  0.0606 -0.0081
23276SOL    HW173744  10.051   0.688   0.376 -0.9667 -1.6538 -1.1288
23276SOL    HW273745  10.196   0.646   0.383 -1.4842 -3.3941 -0.4462
23277SOL     OW73746   5.353   6.008   3.751  0.3470 -0.6882  0.0267
23277SOL    HW173747   5.356   6.086   3.696  0.6350 -0.8079 -0.1283
23277SOL    HW273748   5.291   6.030   3.821  1.7874  0.3641  1.0204
23278SOL     OW73749   2.345   8.049   9.978 -0.3062  0.2638  0.0154
23278SOL    HW173750   2.327   7.957   9.958  0.3488 -0.0404  0.7881
23278SOL    HW273751   2.433   8.064   9.945  0.3175  0.0867  1.5178
23279SOL     OW73752   8.342   6.818   5.942  0.4096  0.1383  0.4520
23279SOL    HW173753   8.276   6.773   5.889  0.2915 -0.8721  1.4243
23279SOL    HW273754   8.426   6.790   5.906  0.3426  1.0508 -0.4784
23280SOL     OW73755   5.579   5.078   9.000 -0.3890  0.3035 -0.0936
23280SOL    HW173756   5.544   4.989   9.011  0.3332 -0.0558 -0.6483
23280SOL    HW273757   5.644   5.086   9.070 -2.3457  1.4094  1.7224
23281SOL     OW73758   0.571   9.882   3.667 -0.0832 -0.1876  0.0508
23281SOL    HW173759   0.597   9.815   3.604  1.8447  2.2877 -2.0286
23281SOL    HW273760   0.539   9.954   3.613  0.0376  1.4470  2.0355
23282SOL     OW73761   8.404   7.885   3.738  0.1585 -0.3959  0.1820
23282SOL    HW173762   8.425   7.957   3.679  0.4014 -1.2416 -0.7904
23282SOL    HW273763   8.487   7.838   3.751 -0.2156 -1.1699 -0.1321
23283SOL     OW73764   3.889   3.837   0.857  0.0349  0.1608 -0.0430
23283SOL    HW173765   3.891   3.889   0.777  1.9198 -0.8424 -0.7057
23283SOL    HW273766   3.820   3.772   0.842  0.0116  0.3148 -0.6235
23284SOL     OW73767   4.079   0.991   0.330  0.3212 -0.0819 -0.5808
23284SOL    HW173768   4.127   0.979   0.411  0.6062  0.7798 -0.6144
23284SOL    HW273769   4.048   1.081   0.333 -1.0405 -0.5217 -0.7021
23285SOL     OW73770   1.179   6.652   2.101 -0.2726 -0.1334  0.3576
23285SOL    HW173771   1.144   6.571   2.064  0.7278 -0.0930 -0.7371
23285SOL    HW273772   1.141   6.721   2.047  2.5691 -0.1531 -1.9668
23286SOL     OW73773   6.142   1.613   5.900  0.4912 -0.3073  0.0773
23286SOL    HW173774   6.236   1.632   5.890  0.1130  0.4067 -3.3833
23286SOL    HW273775   6.136   1.518   5.889  0.7966 -0.3881  0.5534
23287SOL     OW73776   3.148   2.659   2.471  0.0944  0.2504 -0.2307
23287SOL    HW173777   3.213   2.636   2.405  0.0224 -0.2623 -0.1268
23287SOL    HW273778   3.064   2.656   2.424  0.1522  1.1129 -0.4161
23288SOL     OW73779   6.409   3.129   0.329  0.1825  0.6503 -0.4388
23288SOL    HW173780   6.340   3.169   0.383  1.9936  1.9315  1.0427
23288SOL    HW273781   6.392   3.162   0.241 -0.8357  1.2936 -0.0239
23289SOL     OW73782   8.499   5.095   2.198 -0.0159 -0.4813 -0.2292
23289SOL    HW173783   8.437   5.086   2.270  0.7057 -0.8783  0.3527
23289SOL    HW273784   8.510   5.190   2.187 -0.0170 -0.4236  0.2751
23290SOL     OW73785   0.723   8.762   0.157 -0.3336 -0.6330 -0.2267
23290SOL    HW173786   0.685   8.763   0.245  0.6795  2.4360  0.3198
23290SOL    HW273787   0.649   8.744   0.099 -1.1336 -2.1270  1.1941
23291SOL     OW73788   6.671   6.759   6.907  0.2100  0.0426 -0.2867
23291SOL    HW173789   6.731   6.828   6.937  1.1752 -0.9029  0.0388
23291SOL    HW273790   6.644   6.787   6.820  0.3850  0.9636 -0.0551
23292SOL     OW73791   9.154   8.897   8.207 -0.0877 -0.5339 -0.1502
23292SOL    HW173792   9.144   8.882   8.300 -0.1161 -0.9594 -0.2222
23292SOL    HW273793   9.111   8.823   8.165  1.8109 -1.5265 -0.4724
23293SOL     OW73794   0.061   4.276   2.232 -0.1401  0.1842  0.1635
23293SOL    HW173795   0.031   4.360   2.199  1.6295  0.4206 -1.0078
23293SOL    HW273796   0.025   4.212   2.171  0.7161  0.3646 -0.5573
23294SOL     OW73797   7.382   0.557   0.353 -0.3364 -0.2053  0.4267
23294SOL    HW173798   7.348   0.511   0.276  0.8552 -1.2125  0.4674
23294SOL    HW273799   7.358   0.648   0.338 -1.2837 -0.5725 -0.4899
23295SOL     OW73800   9.495   8.639   6.033  0.2009 -0.1653 -0.1061
23295SOL    HW173801   9.541   8.589   6.101  0.5146 -0.0465 -0.2306
23295SOL    HW273802   9.564   8.680   5.982 -0.0597  1.5391  0.8438
23296SOL     OW73803   6.523   9.468   7.226  0.5131  0.4466 -0.4136
23296SOL    HW173804   6.577   9.445   7.302  0.5722  0.6065 -0.4074
23296SOL    HW273805   6.462   9.395   7.217  0.9102  0.1320 -0.5871
23297SOL     OW73806   3.120   5.040   5.159  0.5709  0.5062 -0.4308
23297SOL    HW173807   3.195   4.981   5.148  0.8011  0.7403 -0.1349
23297SOL    HW273808   3.049   4.996   5.113  0.9280  0.3554 -0.8513
23298SOL     OW73809   8.561   2.891   5.232 -0.5350  0.3296  0.1163
23298SOL    HW173810   8.568   2.811   5.284  1.2755 -0.7092 -1.5849
23298SOL    HW273811   8.645   2.897   5.186 -0.3991  3.5337  0.5701
23299SOL     OW73812   7.604   8.633   4.234 -0.0405 -0.0632  0.4366
23299SOL    HW173813   7.691   8.623   4.194 -0.7669  0.5860 -1.4370
23299SOL    HW273814   7.590   8.550   4.279  0.4361 -1.3354 -1.6044
23300SOL     OW73815   2.440   4.413   2.458 -0.2382 -0.0298  0.1009
23300SOL    HW173816   2.524   4.458   2.469  0.1499 -0.1979 -1.8584
23300SOL    HW273817   2.406   4.445   2.375 -3.6411  2.2964  2.1866
23301SOL     OW73818   6.720   4.370   1.428  0.0270  0.0816  0.3344
23301SOL    HW173819   6.784   4.426   1.383  0.9350 -1.7864 -0.8676
23301SOL    HW273820   6.678   4.321   1.358 -0.5664 -0.8912  1.3358
23302SOL     OW73821   6.157   0.679  10.082 -0.1973  0.3785 -0.6263
23302SOL    HW173822   6.245   0.650  10.057 -0.4152 -1.1198  0.2339
23302SOL    HW273823   6.099   0.630  10.025 -0.5444 -0.1970  0.2059
23303SOL     OW73824   5.392   5.256   3.613 -0.5808 -0.7242 -0.4986
23303SOL    HW173825   5.320   5.301   3.657 -1.3874 -1.0485 -1.4550
23303SOL    HW273826   5.384   5.165   3.642 -0.2377 -0.6657 -0.2119
23304SOL     OW73827   5.544   8.510   2.208  0.1522  0.2386  0.7248
23304SOL    HW173828   5.584   8.439   2.159 -1.7725  0.6034 -1.5398
23304SOL    HW273829   5.579   8.500   2.297  0.8991 -2.7335  0.2101
23305SOL     OW73830   5.405   8.350   8.349 -0.6626 -0.1439 -1.2450
23305SOL    HW173831   5.326   8.403   8.354 -0.8715 -0.3041 -2.3810
23305SOL    HW273832   5.373   8.260   8.341 -0.3073 -0.5054  0.9281
23306SOL     OW73833   7.974   0.476   8.524 -0.3114  0.6914  0.3859
23306SOL    HW173834   8.021   0.547   8.482 -1.7216  1.4032 -0.0115
23306SOL    HW273835   8.022   0.461   8.606  3.0989 -1.3997 -1.7453
23307SOL     OW73836   5.726   7.742  10.170 -0.0344  0.0302  0.2850
23307SOL    HW173837   5.717   7.768  10.261  1.2466 -0.1992  0.4859
23307SOL    HW273838   5.714   7.824  10.121  1.1601  0.5031  0.7606
23308SOL     OW73839   8.586   6.428   5.955 -0.0543  0.3443  0.0799
23308SOL    HW173840   8.514   6.365   5.953 -0.5415  0.8996 -0.3707
23308SOL    HW273841   8.665   6.375   5.957 -0.4349 -0.3075 -1.0594
23309SOL     OW73842   2.417   9.489   8.477 -0.2933  0.2686 -0.0592
23309SOL    HW173843   2.490   9.526   8.428 -1.0483  2.7107  0.5153
23309SOL    HW273844   2.381   9.563   8.527 -2.8585 -0.9184  0.0341
23310SOL     OW73845   3.933   2.305   9.145 -0.4046  0.2524  0.5709
23310SOL    HW173846   3.945   2.210   9.151  0.8096  0.4048  0.6847
23310SOL    HW273847   3.983   2.331   9.068  1.0361  1.0707  1.7466
23311SOL     OW73848   5.999   2.346   3.667 -0.2894  0.1963 -0.6534
23311SOL    HW173849   6.066   2.406   3.699  0.8370 -1.6902  0.7178
23311SOL    HW273850   6.044   2.293   3.601  0.0328 -1.8910  1.1185
23312SOL     OW73851   7.600   9.688   2.480 -0.0588 -0.1023 -0.4332
23312SOL    HW173852   7.641   9.606   2.508 -0.1765  0.1842  0.6074
23312SOL    HW273853   7.621   9.695   2.387  0.9417 -0.7347 -0.2666
23313SOL     OW73854   2.702   2.015   4.445 -0.3616 -0.2707 -0.2972
23313SOL    HW173855   2.648   2.077   4.396 -1.0639  0.4319  1.3166
23313SOL    HW273856   2.640   1.953   4.482 -0.0476  0.2657  1.1857
23314SOL     OW73857   0.193   0.322   3.676 -0.0567 -0.5619 -0.0655
23314SOL    HW173858   0.281   0.314   3.638  0.8544  0.5083  1.6792
23314SOL    HW273859   0.189   0.251   3.740  0.2959  0.4988  1.1745
23315SOL     OW73860   3.653   7.470   7.503  0.3886  0.0452  0.5580
23315SOL    HW173861   3.580   7.460   7.442 -1.9228  0.0346  3.1377
23315SOL    HW273862   3.703   7.389   7.494 -0.4177 -0.3501 -0.6426
23316SOL     OW73863   2.507   7.558   9.321 -0.2735 -0.0550 -0.2128
23316SOL    HW173864   2.450   7.507   9.379 -0.9819  1.0915  0.1378
23316SOL    HW273865   2.456   7.637   9.302  1.2507  1.0527  0.1854
23317SOL     OW73866  10.068   8.764   4.898  0.4263 -0.5516  0.3386
23317SOL    HW173867  10.128   8.827   4.858 -1.5171  1.0606 -0.2592
23317SOL    HW273868  10.077   8.685   4.846  0.9509  0.1561 -0.6699
23318SOL     OW73869   3.754   4.829   4.388  0.5565 -0.1252 -0.0814
23318SOL    HW173870   3.822   4.896   4.380 -0.5507  1.3792  2.2289
23318SOL    HW273871   3.758   4.801   4.479 -3.2074  1.5566  0.7959
23319SOL     OW73872   3.575   8.681   4.728  0.2290  0.4325  0.2979
23319SOL    HW173873   3.558   8.594   4.766  0.9604  0.8408  1.5900
23319SOL    HW273874   3.501   8.734   4.758  0.4944  0.6030  0.6502
23320SOL     OW73875   6.664   5.165   5.957  0.0067 -0.1556  0.1757
23320SOL    HW173876   6.701   5.158   5.869  1.7022  1.0205  0.7395
23320SOL    HW273877   6.581   5.211   5.944  0.8894  1.2770 -0.7155
23321SOL     OW73878   1.515   5.721   8.447  0.5061 -0.2072  0.8208
23321SOL    HW173879   1.541   5.813   8.454 -0.0763 -0.0136  0.5154
23321SOL    HW273880   1.419   5.724   8.440  0.5061 -0.8209  0.5335
23322SOL     OW73881   0.934   9.258   3.742  0.2046 -0.5750 -0.6148
23322SOL    HW173882   0.956   9.197   3.811  0.9091  1.1513  0.7579
23322SOL    HW273883   0.895   9.204   3.673  1.3603 -2.6123  0.2632
23323SOL     OW73884   8.483   5.403   4.480 -0.8031  0.3919 -0.1220
23323SOL    HW173885   8.465   5.473   4.417  0.2733  0.6836 -0.1263
23323SOL    HW273886   8.578   5.403   4.489 -0.7420 -1.3342 -0.4063
23324SOL     OW73887   2.812   2.206   3.571 -0.0013  0.0086 -0.5611
23324SOL    HW173888   2.784   2.211   3.480  1.9307 -0.0500 -1.2038
23324SOL    HW273889   2.893   2.258   3.574 -0.6237  0.9593  1.3824
23325SOL     OW73890   3.659   9.334   2.464  0.4184  0.4174  0.0534
23325SOL    HW173891   3.596   9.403   2.486  0.2672 -0.2482  1.9363
23325SOL    HW273892   3.711   9.370   2.393 -0.9736  1.6622 -0.3695
23326SOL     OW73893   0.800   6.000   8.382  1.0173 -0.5467 -0.1526
23326SOL    HW173894   0.774   5.939   8.314  0.0819 -0.4614  0.1170
23326SOL    HW273895   0.824   6.080   8.335  1.6937 -0.9233 -0.4639
23327SOL     OW73896   5.936   8.136   2.050  0.2692  0.4738 -0.2982
23327SOL    HW173897   6.017   8.115   2.003  1.1664  1.4068  0.7664
23327SOL    HW273898   5.866   8.115   1.988  1.3589  0.5018 -1.5854
23328SOL     OW73899   3.422   8.076   4.393  0.3488  0.6794 -0.0411
23328SOL    HW173900   3.402   7.987   4.423  1.3189  0.5818  0.3424
23328SOL    HW273901   3.339   8.107   4.357  0.3123 -0.8578 -1.4039
23329SOL     OW73902   7.968   4.336   6.616 -0.2571  0.3461 -0.4133
23329SOL    HW173903   8.033   4.321   6.685 -1.0699 -1.1349  0.0779
23329SOL    HW273904   8.004   4.291   6.539 -0.7709 -0.6400 -0.0882
23330SOL     OW73905   5.649   7.850   5.581 -0.0444 -0.3016 -0.2270
23330SOL    HW173906   5.567   7.856   5.630  0.5823 -1.7686  1.0955
23330SOL    HW273907   5.623   7.830   5.492 -1.1257 -1.7476  0.3818
23331SOL     OW73908   5.038   1.003   5.846 -0.2511 -0.2429 -0.0832
23331SOL    HW173909   5.126   1.026   5.815 -0.5042  1.7162  0.5707
23331SOL    HW273910   4.992   0.974   5.767  0.8381 -0.8710 -0.5062
23332SOL     OW73911   5.021   4.782   0.483 -0.1248 -0.1738  0.1918
23332SOL    HW173912   5.110   4.752   0.470 -0.4343 -0.4367 -1.4994
23332SOL    HW273913   5.000   4.757   0.573  1.3146 -0.5496  0.4450
23333SOL     OW73914   0.288   1.915   1.189 -0.5400 -0.7035  0.6017
23333SOL    HW173915   0.302   1.995   1.139  1.0859 -1.3510 -0.0472
23333SOL    HW273916   0.312   1.938   1.278 -0.2189 -0.4240  0.4453
23334SOL     OW73917   0.319   8.327   8.976  0.0614  0.3886 -0.2785
23334SOL    HW173918   0.307   8.339   8.882  0.3099 -0.0109 -0.3655
23334SOL    HW273919   0.394   8.382   8.997  1.3414 -1.1294 -0.7160
23335SOL     OW73920   9.086   6.311   9.690  0.0386  0.3612 -0.1553
23335SOL    HW173921   9.076   6.344   9.601 -0.2433  0.3619 -0.1251
23335SOL    HW273922   9.165   6.353   9.723 -1.2738  2.4826  0.5183
23336SOL     OW73923   3.688   7.561   1.736  0.1109  0.0313 -0.0204
23336SOL    HW173924   3.619   7.599   1.681  1.4276  1.6930 -0.6066
23336SOL    HW273925   3.669   7.593   1.824 -0.0123  0.2727 -0.1328
23337SOL     OW73926   2.790   9.972   6.541  0.1171 -0.7741  0.1904
23337SOL    HW173927   2.881   9.942   6.535 -0.0170 -1.1872  0.2532
23337SOL    HW273928   2.763   9.985   6.450  0.0432 -1.2309  0.1470
23338SOL     OW73929   3.626   4.659   3.471 -0.1962  0.4463 -0.2702
23338SOL    HW173930   3.543   4.698   3.497 -0.4573 -0.3999  0.1962
23338SOL    HW273931   3.685   4.734   3.461 -0.7813  0.9924  0.2355
23339SOL     OW73932   9.981   3.664   3.340  0.3528  0.2579  0.0785
23339SOL    HW173933  10.077   3.663   3.330  0.2307  0.8532 -1.6017
23339SOL    HW273934   9.951   3.718   3.267 -1.2095  1.0968  1.3089
23340SOL     OW73935   7.050   0.754   9.795  0.8252  0.4517  0.4681
23340SOL    HW173936   7.034   0.743   9.889  0.0762  1.4245  0.4757
23340SOL    HW273937   7.131   0.705   9.778  0.3044 -0.7589  1.3707
23341SOL     OW73938   0.711   1.946   5.491  0.2783 -0.5550  0.3896
23341SOL    HW173939   0.645   2.010   5.462  2.6041  1.7850 -0.0469
23341SOL    HW273940   0.703   1.874   5.428 -0.4300  0.6538 -0.9534
23342SOL     OW73941   0.641   6.928   0.970 -0.0969 -0.4944  0.2198
23342SOL    HW173942   0.572   6.977   1.015 -0.9462 -0.0721 -1.4772
23342SOL    HW273943   0.718   6.940   1.026 -0.0844  3.2968 -0.3420
23343SOL     OW73944   4.429   8.124   1.203  0.0823 -0.5034  0.1185
23343SOL    HW173945   4.474   8.206   1.183  1.0321 -1.1239 -0.3523
23343SOL    HW273946   4.397   8.136   1.292 -0.8156  0.8196 -0.3461
23344SOL     OW73947   2.215  10.154   6.498  0.6664  0.1434  0.4376
23344SOL    HW173948   2.242  10.243   6.522 -3.0548  2.2856 -2.0790
23344SOL    HW273949   2.253  10.140   6.411  1.4398 -0.8904  0.9238
23345SOL     OW73950   3.908   8.064   1.376  0.1960 -0.7646  0.3109
23345SOL    HW173951   3.943   8.086   1.290  0.0348  1.0241  0.6483
23345SOL    HW273952   3.825   8.113   1.382  0.6585 -0.0811  1.8087
23346SOL     OW73953   1.747   8.343   6.109  0.4867 -0.1691 -0.0243
23346SOL    HW173954   1.743   8.381   6.021  1.9610 -1.0794 -0.5289
23346SOL    HW273955   1.814   8.275   6.102 -0.9427 -1.7865  1.2438
23347SOL     OW73956   0.021   1.869   1.969  0.8434  0.3026  0.5513
23347SOL    HW173957   0.101   1.817   1.962 -0.0665 -1.1449  0.6654
23347SOL    HW273958  -0.044   1.810   2.007  0.3136  2.1204  2.6855
23348SOL     OW73959   4.490   2.661   7.485 -0.0476  0.0129 -0.5302
23348SOL    HW173960   4.488   2.752   7.454 -1.1259 -0.1406 -0.9754
23348SOL    HW273961   4.555   2.618   7.430  0.0333  0.3744 -0.7216
23349SOL     OW73962   4.657   9.578   9.653 -0.5071  0.5569  0.4125
23349SOL    HW173963   4.716   9.639   9.608  0.7283 -0.3612  0.7212
23349SOL    HW273964   4.585   9.565   9.592 -0.1075  1.2604 -0.2352
23350SOL     OW73965   7.355   3.377   3.423 -0.1676 -0.5132 -0.1540
23350SOL    HW173966   7.395   3.376   3.510 -1.3317  0.6558  0.4351
23350SOL    HW273967   7.271   3.332   3.434 -0.9278  0.7917 -0.3193
23351SOL     OW73968   3.909   7.938   7.874 -0.4943  0.2821  0.3930
23351SOL    HW173969   3.973   7.926   7.804  0.4036  0.5989  1.1409
23351SOL    HW273970   3.886   8.031   7.870 -1.5987  0.0043 -0.4304
23352SOL     OW73971   4.832   5.833   4.603 -0.3176  0.6603 -0.8298
23352SOL    HW173972   4.924   5.815   4.619 -0.4523  2.0240  2.2490
23352SOL    HW273973   4.818   5.921   4.639 -2.9644  0.1498 -0.4045
23353SOL     OW73974   2.273   8.986   0.761  0.2422  0.1742 -0.4293
23353SOL    HW173975   2.343   9.005   0.824 -0.1616  1.1093 -0.2481
23353SOL    HW273976   2.313   8.925   0.699  0.5544 -1.0542  0.9048
23354SOL     OW73977   7.691   9.970   5.485  0.3394  0.2563  0.0526
23354SOL    HW173978   7.628   9.989   5.415  0.5891 -1.5492 -0.6987
23354SOL    HW273979   7.638   9.973   5.566 -0.8589 -1.6193 -0.5962
23355SOL     OW73980   4.216   0.277   0.177  0.2506 -0.7916  0.1937
23355SOL    HW173981   4.299   0.286   0.132  0.0720 -1.4457 -0.2921
23355SOL    HW273982   4.158   0.340   0.134  0.3020 -0.8527  0.0315
23356SOL     OW73983   5.968   3.755   5.235 -0.3950 -0.4386 -0.1973
23356SOL    HW173984   6.026   3.784   5.165  0.3953 -2.1082 -0.2944
23356SOL    HW273985   5.887   3.730   5.191 -0.8278  0.8630 -0.1895
23357SOL     OW73986   0.258   2.654   1.220  0.2284 -0.2216 -0.0190
23357SOL    HW173987   0.349   2.666   1.250 -0.2128  0.8933  0.9650
23357SOL    HW273988   0.206   2.654   1.301 -0.9516  2.3634 -0.6491
23358SOL     OW73989   6.580   7.090   6.335 -0.5205 -0.6073 -0.1048
23358SOL    HW173990   6.596   7.122   6.424 -0.7443  0.1451 -0.3312
23358SOL    HW273991   6.587   7.167   6.280 -0.7616 -1.0045 -0.7007
23359SOL     OW73992   4.718   7.018   0.386  0.3581 -0.3452 -0.1716
23359SOL    HW173993   4.813   7.023   0.370  0.3115 -1.4367 -0.9694
23359SOL    HW273994   4.690   7.109   0.391  1.3885  0.0028 -0.3366
23360SOL     OW73995   7.163   7.453   5.499  0.0771 -0.0388 -0.7071
23360SOL    HW173996   7.094   7.439   5.564 -0.4289  0.4083 -1.1285
23360SOL    HW273997   7.127   7.416   5.418  0.3902  0.0760 -0.8995
23361SOL     OW73998   8.911   9.859   9.371  0.6796 -0.1028  0.4588
23361SOL    HW173999   8.943   9.948   9.354 -2.2289  0.5848 -2.5328
23361SOL    HW274000   8.842   9.871   9.436 -0.5379  0.1215 -0.8147
23362SOL     OW74001   0.038   1.724   7.831  0.5263  0.5356  0.4976
23362SOL    HW174002   0.088   1.805   7.841  1.1890  0.1138  0.6641
23362SOL    HW274003  -0.018   1.740   7.755  0.7662  1.0908  0.4337
23363SOL     OW74004   0.004   7.623   2.679  0.1889 -0.0633 -0.1253
23363SOL    HW174005   0.080   7.676   2.704 -0.0813 -0.1312  0.8814
23363SOL    HW274006  -0.062   7.687   2.652  0.1101  0.0778  0.3949
23364SOL     OW74007   4.941   1.271   6.326 -0.3561 -0.0793 -0.4516
23364SOL    HW174008   4.949   1.182   6.291 -0.2431  0.3639 -1.5620
23364SOL    HW274009   4.847   1.285   6.334 -0.3988  0.0817 -1.2487
23365SOL     OW74010   2.972   2.263   1.346 -0.7449 -0.3871  0.1576
23365SOL    HW174011   2.964   2.178   1.389  0.6267 -1.2880 -1.2719
23365SOL    HW274012   2.932   2.251   1.260 -1.5538  0.7708  0.3439
23366SOL     OW74013   7.353   3.408   5.340  0.3232  0.2362 -0.4683
23366SOL    HW174014   7.373   3.315   5.341  0.3916  0.2276 -1.6223
23366SOL    HW274015   7.269   3.415   5.294  1.4144  0.9032 -2.5105
23367SOL     OW74016   2.354   6.964   9.439 -0.5034 -0.0833 -0.0967
23367SOL    HW174017   2.322   6.887   9.485 -1.7053 -0.5573 -1.6486
23367SOL    HW274018   2.445   6.943   9.418 -0.8213 -1.0950 -0.5133
23368SOL     OW74019   5.488   0.209   5.578  0.3562  0.3588 -0.7017
23368SOL    HW174020   5.562   0.193   5.638  1.6238 -0.3900 -2.3804
23368SOL    HW274021   5.528   0.216   5.492 -1.3983  1.6436 -1.4762
23369SOL     OW74022   6.227   2.258   3.092 -0.9163  0.2437  0.5742
23369SOL    HW174023   6.299   2.245   3.154 -1.0405  0.5781  0.7899
23369SOL    HW274024   6.242   2.345   3.055 -0.4580 -0.2288 -0.3789
23370SOL     OW74025   9.482   8.045   5.817  0.0378 -0.1313 -0.4989
23370SOL    HW174026   9.443   7.971   5.863 -2.9851  1.4705 -0.2559
23370SOL    HW274027   9.551   8.075   5.877  0.3198 -1.7736  0.0701
23371SOL     OW74028   2.642   7.230   6.827 -0.0919  0.0649 -0.5355
23371SOL    HW174029   2.729   7.264   6.849 -1.2337  2.4753  0.6003
23371SOL    HW274030   2.621   7.270   6.743  0.0691 -0.9286 -1.0668
23372SOL     OW74031   0.544   0.460   3.111  0.0030 -0.6970  0.0849
23372SOL    HW174032   0.457   0.457   3.073  0.7523 -1.9336 -1.6610
23372SOL    HW274033   0.586   0.535   3.068  1.3550 -2.9756 -2.9190
23373SOL     OW74034   5.606  10.199   9.013 -0.1337 -0.0582 -0.2364
23373SOL    HW174035   5.686  10.195   9.065 -1.0413  3.0751  1.6425
23373SOL    HW274036   5.637  10.212   8.923  1.4978  0.8926  0.4219
23374SOL     OW74037   6.323   6.128   9.302 -0.2812  0.3109  0.3287
23374SOL    HW174038   6.296   6.193   9.367 -2.2822 -0.9405  0.8459
23374SOL    HW274039   6.247   6.071   9.293 -0.2873  0.7036 -3.5070
23375SOL     OW74040   5.361   4.806   4.637  0.7563 -0.2234  0.2358
23375SOL    HW174041   5.436   4.861   4.657 -0.2044  1.5841 -0.7750
23375SOL    HW274042   5.306   4.811   4.715  1.7222 -1.6543  1.0242
23376SOL     OW74043   9.610   2.700   9.446  0.3500 -0.5049  0.2880
23376SOL    HW174044   9.623   2.741   9.532  0.0554 -0.9951  0.5725
23376SOL    HW274045   9.696   2.664   9.424  0.6956  0.5294 -0.1144
23377SOL     OW74046   3.041   2.826   4.508 -0.0175 -0.2715 -0.6994
23377SOL    HW174047   3.070   2.916   4.522 -0.5648 -0.1883 -0.0170
23377SOL    HW274048   3.018   2.822   4.416  2.0779 -0.3350 -1.2727
23378SOL     OW74049   5.673   2.415   0.381  0.3462  0.9144  0.6382
23378SOL    HW174050   5.707   2.431   0.293  0.5744  1.4809  0.8247
23378SOL    HW274051   5.582   2.386   0.367  0.9117 -0.7337  0.1296
23379SOL     OW74052   6.672   8.734   7.045 -0.3186 -0.7967  0.4149
23379SOL    HW174053   6.597   8.675   7.050 -0.6124 -0.5496 -0.7317
23379SOL    HW274054   6.743   8.679   7.013 -1.0691 -0.2246 -2.6411
23380SOL     OW74055   8.529   7.364   4.343  0.5489  0.2199  0.2776
23380SOL    HW174056   8.566   7.382   4.256 -1.1042  2.1478 -0.1315
23380SOL    HW274057   8.568   7.431   4.399 -1.5013  1.7177  0.0250
23381SOL     OW74058   3.402   7.136   8.194  0.1343  0.1626 -0.2460
23381SOL    HW174059   3.320   7.135   8.243  0.1374 -2.2447 -0.1885
23381SOL    HW274060   3.463   7.183   8.252 -0.3717 -0.9185  1.2382
23382SOL     OW74061   0.245   7.756   3.777 -0.5317  0.5040  0.5559
23382SOL    HW174062   0.209   7.710   3.853 -1.0199  0.7919  0.4999
23382SOL    HW274063   0.194   7.836   3.771 -1.2586 -0.0384 -0.7706
23383SOL     OW74064   7.914   9.518   6.021  0.2000  0.1651  0.1769
23383SOL    HW174065   7.953   9.431   6.021  0.7502  0.4042 -0.6710
23383SOL    HW274066   7.875   9.528   5.934  0.2846  0.8285  0.2069
23384SOL     OW74067   8.631   3.667   2.097  1.2656  0.2842  0.0367
23384SOL    HW174068   8.633   3.746   2.043  0.7867 -0.5529 -1.2400
23384SOL    HW274069   8.723   3.638   2.100  1.4364  0.8575  0.4773
23385SOL     OW74070   7.835   6.529   1.821 -0.2266  0.5125 -0.4238
23385SOL    HW174071   7.832   6.607   1.876 -0.6818 -1.1505  2.0973
23385SOL    HW274072   7.918   6.487   1.843 -1.4679 -1.4093  0.9589
23386SOL     OW74073   1.555   3.691   5.193  0.2480 -0.4571  0.3692
23386SOL    HW174074   1.486   3.701   5.258 -1.1578 -3.7823 -0.3980
23386SOL    HW274075   1.625   3.644   5.238  0.0883 -1.0506  0.0117
23387SOL     OW74076   4.605   3.129   0.112  0.2280  1.0109 -0.3732
23387SOL    HW174077   4.573   3.062   0.053  1.7168  0.2876 -0.4041
23387SOL    HW274078   4.526   3.174   0.144 -0.9016 -1.4966  0.5781
23388SOL     OW74079   4.404   6.612   3.260  0.1754  0.0512 -0.7871
23388SOL    HW174080   4.424   6.695   3.217  2.0621 -1.0785 -2.2990
23388SOL    HW274081   4.438   6.546   3.199 -0.2023 -1.7795  0.9052
23389SOL     OW74082   8.278   1.709   4.724 -0.4208  0.2946  0.2804
23389SOL    HW174083   8.225   1.631   4.710 -1.5640  1.1566 -0.3814
23389SOL    HW274084   8.241   1.774   4.664  2.0529  0.6331 -1.0082
23390SOL     OW74085   5.429   8.664   5.462 -0.4529 -0.0553  0.0294
23390SOL    HW174086   5.423   8.733   5.529  1.8020 -0.0610  0.3216
23390SOL    HW274087   5.385   8.589   5.501 -1.6062  0.7537  0.3432
23391SOL     OW74088   2.343   8.511   0.743 -0.4004  0.4268  0.1947
23391SOL    HW174089   2.416   8.508   0.806 -0.5395 -0.1308  0.3390
23391SOL    HW274090   2.269   8.474   0.792 -1.1407  2.2373  0.5081
23392SOL     OW74091   6.343   4.451   5.736  0.1420  0.7190  0.1038
23392SOL    HW174092   6.259   4.476   5.772 -0.7646 -0.2387 -1.2456
23392SOL    HW274093   6.338   4.356   5.726  1.0255  0.7528 -0.8329
23393SOL     OW74094   3.388   8.517   4.422  0.9407 -0.1095 -0.6500
23393SOL    HW174095   3.336   8.562   4.489  2.6457 -0.1968  0.7883
23393SOL    HW274096   3.475   8.556   4.429  1.6014 -1.3438 -1.6487
23394SOL     OW74097   3.668   6.401   7.944 -0.0354 -0.6010 -0.5832
23394SOL    HW174098   3.752   6.409   7.989 -1.2221 -1.9411  2.1495
23394SOL    HW274099   3.677   6.323   7.889  0.4141 -0.9272 -0.0546
23395SOL     OW74100   5.488   4.648   2.387 -0.7114  0.3142  0.1339
23395SOL    HW174101   5.537   4.687   2.314  1.0454 -4.1454 -1.4440
23395SOL    HW274102   5.553   4.640   2.457  0.9787 -4.3635 -1.5067
23396SOL     OW74103   7.729   3.824   4.421 -0.0586  0.2928  0.3797
23396SOL    HW174104   7.765   3.810   4.508  1.0812 -2.2266 -0.4013
23396SOL    HW274105   7.788   3.777   4.362 -2.8051 -1.3452 -1.3227
23397SOL     OW74106   1.326   4.303   8.026 -0.3526 -0.3376  0.5786
23397SOL    HW174107   1.309   4.217   8.064 -0.1261 -0.8257 -0.4123
23397SOL    HW274108   1.360   4.285   7.939 -1.0722  0.7757  0.0491
23398SOL     OW74109   3.527   8.846  10.026 -0.4853 -0.1350  0.3500
23398SOL    HW174110   3.513   8.801   9.943 -0.5427  0.1320  0.2143
23398SOL    HW274111   3.611   8.812  10.058 -0.6300 -0.4948  0.3530
23399SOL     OW74112   3.777   9.885   2.311  0.0663 -0.0387  0.3034
23399SOL    HW174113   3.795   9.906   2.219  0.0721  0.4599  0.4139
23399SOL    HW274114   3.827   9.950   2.360 -0.8126  0.4009  0.6384
23400SOL     OW74115   7.255   3.763   7.315  0.1771  0.2048  0.3525
23400SOL    HW174116   7.324   3.721   7.264  0.0677  0.5532 -0.0876
23400SOL    HW274117   7.213   3.823   7.254  0.5977  1.2770  1.0795
23401SOL     OW74118   7.913   7.313   1.607  0.7589  0.0809 -0.0825
23401SOL    HW174119   7.868   7.256   1.545  1.0203 -1.0270  0.7141
23401SOL    HW274120   8.005   7.288   1.599  0.7846 -0.1460  0.8037
23402SOL     OW74121   5.928   2.073   2.138 -0.0854  0.9139  0.0121
23402SOL    HW174122   5.929   2.117   2.053  0.3314 -0.8107 -0.9255
23402SOL    HW274123   6.020   2.049   2.153 -0.1244  1.4009  1.0667
23403SOL     OW74124   2.496   0.544   9.701 -0.4613 -0.7253  0.0009
23403SOL    HW174125   2.453   0.459   9.694 -0.4877 -0.6462 -0.9359
23403SOL    HW274126   2.426   0.608   9.690 -0.6850 -0.5232  2.0585
23404SOL     OW74127   6.567   6.337   7.487  0.4311  0.3442  0.4370
23404SOL    HW174128   6.651   6.382   7.479  0.2799  0.4803 -0.6009
23404SOL    HW274129   6.565   6.276   7.413 -0.2846  0.1760  0.5819
23405SOL     OW74130   4.919   6.918   6.079 -0.3868 -0.2746 -0.1735
23405SOL    HW174131   4.878   6.840   6.115 -0.9892  0.1911  0.1785
23405SOL    HW274132   4.852   6.957   6.023  0.0354 -0.2047 -0.6370
23406SOL     OW74133   7.889   6.834   8.534 -0.0101  0.2518 -0.7914
23406SOL    HW174134   7.802   6.825   8.495  0.4651  0.7727 -1.9925
23406SOL    HW274135   7.941   6.880   8.469  0.3144  2.9225  1.1538
23407SOL     OW74136   6.214  10.185   8.505  0.2281  0.8625  0.6009
23407SOL    HW174137   6.193  10.249   8.437  0.5272  1.3297  0.9433
23407SOL    HW274138   6.208  10.100   8.461  0.9337  1.1861 -0.1361
23408SOL     OW74139   4.232   0.684   8.313 -0.1451 -0.1371 -0.2623
23408SOL    HW174140   4.265   0.764   8.354 -0.1277  0.2774 -1.0735
23408SOL    HW274141   4.310   0.639   8.282 -0.2880  0.8078 -2.1163
23409SOL     OW74142   0.117   7.986   6.041  0.0373 -0.0184  0.1547
23409SOL    HW174143   0.100   7.899   6.004  1.6819 -0.1168 -0.4374
23409SOL    HW274144   0.185   8.023   5.985  0.4373  1.0594  1.3079
23410SOL     OW74145   4.627   5.733   0.125  0.0541  0.9329  0.2772
23410SOL    HW174146   4.681   5.657   0.145  2.4138  2.0155 -1.4712
23410SOL    HW274147   4.538   5.699   0.119  0.7677 -1.3028  1.3852
23411SOL     OW74148   4.761   9.651   1.532 -0.0364  0.2696  0.5675
23411SOL    HW174149   4.718   9.568   1.513  1.9110 -0.8614  0.8799
23411SOL    HW274150   4.798   9.679   1.448 -0.1966  0.5409  0.5849
23412SOL     OW74151   0.900   8.977   4.540 -0.7709 -1.1048 -0.8668
23412SOL    HW174152   0.858   9.058   4.512  0.4434 -0.7021 -1.6299
23412SOL    HW274153   0.828   8.918   4.561 -1.6776  0.0616 -0.6186
23413SOL     OW74154  10.046   7.729   7.801  0.0314 -0.2705 -0.0402
23413SOL    HW174155  10.094   7.648   7.815 -0.7496 -0.9536 -1.0904
23413SOL    HW274156  10.035   7.766   7.888  0.2286 -1.4041  0.4846
23414SOL     OW74157   4.898   5.656   2.076  0.1233 -0.0275 -0.4837
23414SOL    HW174158   4.842   5.630   2.149  1.3989 -2.0283 -0.1117
23414SOL    HW274159   4.942   5.575   2.051  2.6386  1.3548 -0.8972
23415SOL     OW74160   0.156   7.784   5.813 -0.3743  0.0204 -0.6961
23415SOL    HW174161   0.250   7.784   5.828 -0.6571  0.8557  1.4074
23415SOL    HW274162   0.120   7.731   5.884 -1.4893 -0.8986 -1.8748
23416SOL     OW74163   0.166   8.362   5.737 -0.2321  0.9992 -0.1834
23416SOL    HW174164   0.238   8.422   5.760  0.0826  0.8293 -0.7034
23416SOL    HW274165   0.192   8.326   5.652  0.2848 -0.9792  0.7721
23417SOL     OW74166   4.839   9.102   6.616 -0.1685  0.0322 -0.0417
23417SOL    HW174167   4.875   9.111   6.704 -0.8718  1.4516  0.1382
23417SOL    HW274168   4.756   9.057   6.629 -1.3906  2.2521  0.3766
23418SOL     OW74169   1.938   9.777   1.916 -0.4260 -0.2194 -0.3756
23418SOL    HW174170   2.007   9.832   1.952  0.0186 -0.0589 -1.4358
23418SOL    HW274171   1.935   9.701   1.975 -0.0588  0.2486  0.2604
23419SOL     OW74172   1.115   7.931   5.249  0.2880  0.0179 -0.3629
23419SOL    HW174173   1.044   7.941   5.186  0.7715  0.7990 -0.8036
23419SOL    HW274174   1.193   7.916   5.196  0.7547  0.9940  0.0153
23420SOL     OW74175   6.097   9.429   9.483 -0.1499  0.4787 -0.2246
23420SOL    HW174176   6.188   9.456   9.495 -0.1490  1.0769 -1.4620
23420SOL    HW274177   6.063   9.421   9.572  1.6466 -1.7448  0.3539
23421SOL     OW74178   4.958   3.169   4.545  0.4360  0.0514 -0.1251
23421SOL    HW174179   4.898   3.163   4.620  0.9129  2.6272  0.5748
23421SOL    HW274180   4.928   3.247   4.497  2.0283  0.2539 -0.8613
23422SOL     OW74181   3.587   4.941   7.584 -0.2566  0.5101 -0.6047
23422SOL    HW174182   3.562   4.937   7.677 -1.3222 -1.4932 -0.9233
23422SOL    HW274183   3.585   4.850   7.555  0.0507  1.1039 -2.6210
23423SOL     OW74184   4.188   8.858   6.717 -0.0586 -0.2965 -0.2531
23423SOL    HW174185   4.237   8.776   6.723 -0.6801 -0.7235 -0.9333
23423SOL    HW274186   4.249   8.919   6.676  0.5265 -0.3101  0.5703
23424SOL     OW74187   5.335   9.902   0.123 -0.7459  0.0934 -0.1632
23424SOL    HW174188   5.390   9.872   0.050  0.3325  0.2664  0.5631
23424SOL    HW274189   5.386   9.883   0.201 -1.4106  0.9532  0.4972
23425SOL     OW74190   6.545   3.521   5.727  0.0319 -0.6456 -0.2534
23425SOL    HW174191   6.599   3.445   5.706 -0.1922 -1.0617  0.6272
23425SOL    HW274192   6.600   3.575   5.784  0.5026  0.2927 -1.5451
23426SOL     OW74193   6.525   3.960   4.679 -0.5075  0.3785  0.5234
23426SOL    HW174194   6.525   4.035   4.620  0.0465  1.7754  2.2004
23426SOL    HW274195   6.433   3.936   4.688 -0.7314  1.1385  0.2931
23427SOL     OW74196   3.338   8.133   2.025 -0.1010  0.3254 -0.1051
23427SOL    HW174197   3.342   8.175   1.939  0.0683 -0.0731 -0.2926
23427SOL    HW274198   3.299   8.200   2.082  0.6349  0.9214 -0.2847
23428SOL     OW74199   7.888   2.084   1.919 -1.0968 -0.4209 -0.3498
23428SOL    HW174200   7.823   2.014   1.910 -0.1615 -1.4967  0.8653
23428SOL    HW274201   7.889   2.103   2.013 -0.1770  0.0993 -0.4604
23429SOL     OW74202   3.060   2.640   7.561 -0.0927 -0.3934 -0.4819
23429SOL    HW174203   3.033   2.724   7.525 -1.0832 -0.9143 -1.0024
23429SOL    HW274204   3.128   2.661   7.624  0.5501  0.6877 -1.5115
23430SOL     OW74205   5.151   4.232   1.324  0.2696 -0.1510  0.6037
23430SOL    HW174206   5.102   4.311   1.301  0.7695  0.1881  0.6895
23430SOL    HW274207   5.187   4.201   1.241 -1.1715 -1.1550  0.3204
23431SOL     OW74208   0.766   6.900   1.707  0.8272 -0.1775 -0.4012
23431SOL    HW174209   0.723   6.985   1.705 -1.0773 -1.0686  0.3087
23431SOL    HW274210   0.733   6.854   1.630  1.0019 -0.6473 -0.2055
23432SOL     OW74211   3.212   9.242   4.212 -0.4888  0.0878  0.0446
23432SOL    HW174212   3.207   9.238   4.308  1.0733  1.8936  0.2835
23432SOL    HW274213   3.249   9.329   4.195  0.8410 -0.8361 -2.1144
23433SOL     OW74214   0.515   5.910   3.118  0.7327 -0.1487 -0.2319
23433SOL    HW174215   0.525   5.967   3.194  2.0239 -2.6696  1.6365
23433SOL    HW274216   0.429   5.869   3.131  0.5824  0.0497 -0.5994
23434SOL     OW74217   5.036   6.751   6.426 -0.0195  0.3887  0.0609
23434SOL    HW174218   5.058   6.661   6.452  0.5655  0.4893 -0.0682
23434SOL    HW274219   5.034   6.800   6.508 -0.0679  0.3099  0.1062
23435SOL     OW74220   7.765   0.588   2.113  0.5346 -0.4741 -0.2202
23435SOL    HW174221   7.695   0.555   2.057  0.8492 -0.4842 -0.6075
23435SOL    HW274222   7.725   0.594   2.200 -1.0137  2.7306 -1.0046
23436SOL     OW74223   7.544   3.943   3.047  0.0918  0.5036  0.0508
23436SOL    HW174224   7.627   3.911   3.012  0.3335  0.9410  0.2210
23436SOL    HW274225   7.566   3.979   3.133 -0.4146 -0.1446  0.4660
23437SOL     OW74226   8.759   0.270   6.133  0.2793  0.1464 -0.3313
23437SOL    HW174227   8.777   0.347   6.188 -0.5380  0.1193 -0.0073
23437SOL    HW274228   8.688   0.224   6.179  0.1206 -0.2987 -1.0055
23438SOL     OW74229   7.811   1.676   2.578  0.4900  0.3568  0.7243
23438SOL    HW174230   7.789   1.769   2.588  0.3107  0.5457 -1.0555
23438SOL    HW274231   7.734   1.630   2.612  0.1390  0.8885  0.6710
23439SOL     OW74232   8.432   2.889  10.059 -0.1408 -0.1995  0.0586
23439SOL    HW174233   8.365   2.929  10.004 -1.1120 -0.5746  0.9325
23439SOL    HW274234   8.385   2.860  10.137  0.9126 -1.1676  0.3604
23440SOL     OW74235   6.062   5.499   1.455  0.4642  0.1704  0.6734
23440SOL    HW174236   6.035   5.476   1.543 -2.2725  2.0039  0.4345
23440SOL    HW274237   6.103   5.584   1.463 -0.4467  0.6834  0.1465
23441SOL     OW74238   3.656   2.225   4.591 -0.4348 -0.2658  0.2376
23441SOL    HW174239   3.628   2.167   4.662 -1.0700 -1.4554 -0.9363
23441SOL    HW274240   3.603   2.199   4.516  1.0888  0.0743 -1.0246
23442SOL     OW74241   0.836   0.861   7.837  0.3788 -0.1078 -0.2976
23442SOL    HW174242   0.895   0.786   7.831  0.0101 -0.2688 -2.8349
23442SOL    HW274243   0.792   0.851   7.922  0.7652 -2.4227 -0.3246
23443SOL     OW74244   2.197   1.777   3.426  0.4020  0.2321 -0.5974
23443SOL    HW174245   2.128   1.839   3.402  0.4311  1.1798  1.5319
23443SOL    HW274246   2.150   1.701   3.461  0.4112  0.3726 -0.2768
23444SOL     OW74247   2.952   6.387   8.131 -0.5037  0.1297 -0.6623
23444SOL    HW174248   2.994   6.308   8.097  1.0781  0.3252  0.7224
23444SOL    HW274249   2.986   6.457   8.076  0.4105  0.1839 -0.0562
23445SOL     OW74250   4.787   8.986   8.931 -0.2107 -0.6007  0.3250
23445SOL    HW174251   4.835   8.948   9.005 -0.4024 -1.2586  0.1210
23445SOL    HW274252   4.856   9.016   8.871  0.0782  3.1889  2.2577
23446SOL     OW74253   9.164   4.385   6.572 -0.8609  0.0333 -0.4196
23446SOL    HW174254   9.153   4.476   6.598 -3.3903 -0.7098  1.5448
23446SOL    HW274255   9.092   4.368   6.511 -1.4895 -1.0226  0.5612
23447SOL     OW74256   2.991   2.457   1.734 -0.4684  0.2768  0.1208
23447SOL    HW174257   2.945   2.503   1.805 -0.5402 -1.4495  1.2588
23447SOL    HW274258   3.036   2.526   1.686  0.2857  1.4701  2.3791
23448SOL     OW74259   6.205   7.472   6.428  0.1578 -0.4421  0.2213
23448SOL    HW174260   6.133   7.423   6.390 -0.5528  0.2240  0.6686
23448SOL    HW274261   6.270   7.479   6.358  0.4321 -2.2953  0.2557
23449SOL     OW74262   6.494   6.880   0.807 -0.2257  0.0250 -0.2523
23449SOL    HW174263   6.445   6.956   0.776  0.1725 -0.4030 -2.0718
23449SOL    HW274264   6.557   6.916   0.869 -0.0148  1.2093 -1.1148
23450SOL     OW74265   1.018   3.060   3.475 -0.3822  1.3589 -0.5359
23450SOL    HW174266   0.998   2.968   3.458  1.9817  0.9496 -1.5703
23450SOL    HW274267   0.966   3.108   3.411  0.1967  0.5465 -1.6502
23451SOL     OW74268   2.149   1.931   8.130  0.3746 -0.2281  0.4595
23451SOL    HW174269   2.184   1.847   8.101 -1.0864 -1.1495  1.2530
23451SOL    HW274270   2.209   1.960   8.199 -0.2035 -1.6202  1.5888
23452SOL     OW74271   8.634   7.460   4.097  0.3236 -0.3862  0.3613
23452SOL    HW174272   8.704   7.408   4.059 -0.4995 -0.4861 -1.0851
23452SOL    HW274273   8.556   7.435   4.048 -0.2474  1.5738  0.1816
23453SOL     OW74274   6.579   1.295   2.197  0.4349  0.2271  0.4516
23453SOL    HW174275   6.616   1.218   2.240  2.8782  0.3050 -1.3261
23453SOL    HW274276   6.525   1.336   2.265  0.8949 -1.7935  2.1405
23454SOL     OW74277   6.275   5.387   4.471 -0.2161  0.1191 -0.6920
23454SOL    HW174278   6.242   5.435   4.547  0.7586 -2.0856  1.2461
23454SOL    HW274279   6.245   5.298   4.484  0.9285 -0.5502 -2.3186
23455SOL     OW74280   9.053   5.185   4.525  0.0470 -0.1061 -0.3691
23455SOL    HW174281   9.020   5.147   4.443  0.2669 -0.3107 -0.3646
23455SOL    HW274282   8.976   5.188   4.582 -0.2123  0.4665 -0.7347
23456SOL     OW74283   9.954   8.171   7.367  0.6555  0.4467 -0.0513
23456SOL    HW174284   9.932   8.264   7.358  0.1190  0.2385 -0.9789
23456SOL    HW274285  10.047   8.167   7.346  0.4881  0.6551 -0.8515
23457SOL     OW74286   7.665   2.760   5.793  0.3224 -0.0629 -0.2138
23457SOL    HW174287   7.594   2.695   5.803  0.8300 -0.4941  0.7824
23457SOL    HW274288   7.625   2.843   5.820 -0.3193  0.0467 -1.4493
23458SOL     OW74289   4.081   2.977   0.076 -0.1114 -0.1644  0.0952
23458SOL    HW174290   4.104   2.994  -0.016  1.1567 -1.2411  0.1888
23458SOL    HW274291   4.096   2.884   0.087  0.8726  0.1583  1.7026
23459SOL     OW74292   0.594   8.345   0.712 -0.1941 -0.3019 -0.2599
23459SOL    HW174293   0.546   8.423   0.743  2.2414  0.9666  0.5504
23459SOL    HW274294   0.651   8.321   0.785 -0.5839 -2.6529 -0.6565
23460SOL     OW74295   6.183   1.941   4.832  0.0053 -0.0435  0.1506
23460SOL    HW174296   6.278   1.941   4.846 -0.1190 -1.1868  1.1925
23460SOL    HW274297   6.172   1.950   4.738  1.2791 -3.3152 -0.4479
23461SOL     OW74298   3.490   8.482   0.634  0.7693 -0.3052 -0.3129
23461SOL    HW174299   3.509   8.513   0.723  1.5513  1.1652 -0.9559
23461SOL    HW274300   3.427   8.411   0.646 -0.2902  0.8404  1.3260
23462SOL     OW74301   3.355   3.359   3.150  0.3463  0.1288  0.0213
23462SOL    HW174302   3.401   3.421   3.093  1.7138 -0.8615  0.0168
23462SOL    HW274303   3.302   3.415   3.207  0.9930  1.2628 -0.4482
23463SOL     OW74304   5.298   2.149   2.812  0.0830 -0.1544  0.4627
23463SOL    HW174305   5.344   2.227   2.843 -1.2654  0.9465 -0.1927
23463SOL    HW274306   5.206   2.167   2.832 -0.4979 -0.6059 -1.6384
23464SOL     OW74307   6.254   2.530   2.661 -0.4276  0.2183  0.1139
23464SOL    HW174308   6.302   2.573   2.591 -0.2322  2.0483  1.2987
23464SOL    HW274309   6.162   2.546   2.641 -0.5490 -1.9099 -1.3016
23465SOL     OW74310   2.840   5.278   5.770  0.1438  0.6204  0.2188
23465SOL    HW174311   2.760   5.297   5.818  1.0402 -0.3471  2.2239
23465SOL    HW274312   2.813   5.270   5.679 -2.4062 -1.6745  1.0644
23466SOL     OW74313   5.419   3.801   7.817 -0.1577 -0.4810  0.6184
23466SOL    HW174314   5.492   3.857   7.792 -1.2108  0.5486 -0.2690
23466SOL    HW274315   5.431   3.721   7.765  0.0118 -0.0727  0.0234
23467SOL     OW74316   9.402   6.300   0.224 -0.1061  0.5007  0.0760
23467SOL    HW174317   9.370   6.390   0.221 -0.8233  0.2413 -0.1561
23467SOL    HW274318   9.419   6.284   0.317 -1.0459  0.5151  0.2617
23468SOL     OW74319   9.763   3.630   5.613  0.3995 -0.1677  0.0540
23468SOL    HW174320   9.846   3.668   5.584  1.9384 -1.8249  1.9222
23468SOL    HW274321   9.766   3.540   5.579  0.1245 -0.7142  1.4342
23469SOL     OW74322   9.123   0.158   3.286  0.0514  0.0186  0.4242
23469SOL    HW174323   9.077   0.205   3.355 -0.3122 -0.6653  0.6474
23469SOL    HW274324   9.145   0.226   3.222  0.7708  0.7358  1.4032
23470SOL     OW74325   2.747   2.554   9.460  0.4663 -0.0911  0.3404
23470SOL    HW174326   2.663   2.509   9.461  0.4270 -0.0104  0.8767
23470SOL    HW274327   2.732   2.636   9.508  0.6890  0.2212 -0.1079
23471SOL     OW74328   9.463   8.715   2.442 -0.7517  0.2632 -0.0415
23471SOL    HW174329   9.476   8.808   2.459  1.8241 -0.2311  1.3284
23471SOL    HW274330   9.445   8.709   2.348  1.0722  2.0410 -0.5814
23472SOL     OW74331   0.747   6.491   1.813  0.0446  0.1629 -0.0529
23472SOL    HW174332   0.775   6.494   1.721  1.3305 -1.1197  0.2623
23472SOL    HW274333   0.673   6.431   1.814  1.3409 -1.5264  0.0004
23473SOL     OW74334   2.826   9.201   8.830  0.1367  0.1328  0.3930
23473SOL    HW174335   2.875   9.256   8.769  1.2100  0.3624  1.4232
23473SOL    HW274336   2.742   9.246   8.841  0.0449  0.2352 -0.6815
23474SOL     OW74337   3.854   6.950  10.065 -0.1896  0.0589 -0.3529
23474SOL    HW174338   3.824   6.895   9.993  0.4474 -0.1686 -0.4456
23474SOL    HW274339   3.908   6.892  10.119  0.0973  0.4682 -0.1970
23475SOL     OW74340   9.247   4.544   4.662 -0.0013  0.0272  0.1958
23475SOL    HW174341   9.206   4.630   4.666 -0.1458  0.0201 -0.9124
23475SOL    HW274342   9.268   4.531   4.570  1.2908 -0.5397  0.5388
23476SOL     OW74343   8.120   4.731   6.495 -0.1610  0.1636  0.4932
23476SOL    HW174344   8.027   4.717   6.516 -0.1453  0.5544  0.8525
23476SOL    HW274345   8.127   4.826   6.484  0.1546  0.1115  0.2558
23477SOL     OW74346   0.807   0.860   2.488  0.4110  0.1243  0.4683
23477SOL    HW174347   0.844   0.945   2.463  0.4919  0.0353  0.2755
23477SOL    HW274348   0.825   0.804   2.412  1.2826 -0.3455  1.0045
23478SOL     OW74349   2.231   6.698   9.975 -0.0364 -0.0126 -0.1300
23478SOL    HW174350   2.309   6.719   9.924  0.0583  2.9382  1.0231
23478SOL    HW274351   2.264   6.674  10.062 -0.3597 -1.3583 -0.3464
23479SOL     OW74352   0.952   9.523   9.840 -0.1928 -0.2165 -0.5751
23479SOL    HW174353   0.997   9.493   9.919  1.1254  1.2986 -0.6724
23479SOL    HW274354   0.958   9.450   9.779 -0.8200 -1.2378  0.5578
23480SOL     OW74355   1.837   0.955   5.680  0.1626  0.1858  0.0094
23480SOL    HW174356   1.800   1.043   5.670  0.9197  0.7711  1.7978
23480SOL    HW274357   1.897   0.946   5.606 -1.5279  0.2483 -1.4473
23481SOL     OW74358   6.110   7.664   1.339  0.6588  0.2903  0.3154
23481SOL    HW174359   6.136   7.677   1.430 -1.3452  0.2258  0.9546
23481SOL    HW274360   6.015   7.679   1.339  0.2139 -1.9765 -1.2946
23482SOL     OW74361   1.921   9.316   1.602 -0.0841 -0.1703  0.1695
23482SOL    HW174362   1.964   9.393   1.564 -1.6617  1.4499  1.4943
23482SOL    HW274363   1.856   9.352   1.663 -1.3446 -2.5466  0.3559
23483SOL     OW74364   5.287   8.172   1.479  0.1432  0.0927  0.0424
23483SOL    HW174365   5.295   8.152   1.386 -1.5503 -0.9720  0.0929
23483SOL    HW274366   5.304   8.266   1.485  2.4133 -0.1817 -1.0082
23484SOL     OW74367   3.067   7.713   9.990  0.1032  0.3066  0.0691
23484SOL    HW174368   3.111   7.701   9.905 -0.3596 -0.4693 -0.0679
23484SOL    HW274369   2.990   7.766   9.970 -0.4515 -0.5609 -0.1462
23485SOL     OW74370   2.844   9.931   4.472  0.0844 -0.0460 -0.0911
23485SOL    HW174371   2.769   9.978   4.435  0.2408 -0.1781 -0.5732
23485SOL    HW274372   2.844   9.846   4.428  0.4077 -0.1223  0.0487
23486SOL     OW74373   4.895   2.413   2.752 -0.8163 -0.1727  0.0393
23486SOL    HW174374   4.837   2.391   2.679 -1.3955  2.0623 -0.2786
23486SOL    HW274375   4.843   2.474   2.805  0.1209 -0.6174  1.5151
23487SOL     OW74376   7.190   2.480   9.590  0.2522  0.4139 -0.4434
23487SOL    HW174377   7.136   2.559   9.593 -0.0045  0.2053  1.3945
23487SOL    HW274378   7.225   2.472   9.678  0.0542 -1.6885 -0.5143
23488SOL     OW74379   8.872   2.733   6.117  0.0004  0.4092 -0.0191
23488SOL    HW174380   8.867   2.659   6.056  1.0312  0.0728  0.2746
23488SOL    HW274381   8.889   2.809   6.062 -2.2042  0.6589 -0.4463
23489SOL     OW74382   4.060   2.213   5.220  0.0000  0.0518 -0.0978
23489SOL    HW174383   4.066   2.278   5.150  0.7634  1.7644  1.4864
23489SOL    HW274384   3.970   2.181   5.215 -0.0592  0.3855 -1.6304
23490SOL     OW74385   1.290   3.321   6.533 -0.0670  0.4193 -0.1521
23490SOL    HW174386   1.223   3.331   6.466 -0.3276  0.3620  0.0990
23490SOL    HW274387   1.258   3.251   6.590  0.0914  0.5531  0.1061
23491SOL     OW74388   9.872   4.333   0.862  0.1846  0.1042  0.2287
23491SOL    HW174389   9.851   4.426   0.870 -0.8708 -0.1947  1.2175
23491SOL    HW274390   9.938   4.318   0.931  0.8010  0.2333 -0.3246
23492SOL     OW74391   3.110   3.749   7.216  0.0141 -0.3884 -0.4043
23492SOL    HW174392   3.161   3.810   7.162 -0.1722  0.2810  0.1622
23492SOL    HW274393   3.121   3.664   7.172  2.6775 -0.5572  0.3620
23493SOL     OW74394   1.626   8.400   8.228  0.1354 -0.5793  0.6000
23493SOL    HW174395   1.652   8.357   8.146  0.6622 -1.1139  1.0381
23493SOL    HW274396   1.570   8.472   8.200  1.1276 -0.1218 -0.3079
23494SOL     OW74397   8.328   5.563   8.439 -0.1448 -0.3907 -0.5420
23494SOL    HW174398   8.253   5.543   8.495 -0.6495  1.1141 -0.6536
23494SOL    HW274399   8.403   5.563   8.498 -0.0801 -2.5492 -0.5302
23495SOL     OW74400   0.911   7.421   6.693 -0.0386 -0.0075 -0.3678
23495SOL    HW174401   0.871   7.370   6.623 -0.1144 -1.7288  0.8599
23495SOL    HW274402   1.002   7.391   6.696  0.3385  1.0874 -0.6507
23496SOL     OW74403   8.364   5.779   1.390 -0.2361 -0.0746 -0.2523
23496SOL    HW174404   8.428   5.767   1.461 -1.0841 -0.4714  0.4573
23496SOL    HW274405   8.358   5.693   1.349 -0.1468  0.0249 -0.4779
23497SOL     OW74406   3.407   9.264   6.409  0.2189  0.8532 -0.3673
23497SOL    HW174407   3.369   9.243   6.495  1.7599 -0.0754  0.1237
23497SOL    HW274408   3.367   9.348   6.385 -3.0250 -0.5914 -0.4668
23498SOL     OW74409   0.781   1.302   0.153  0.7015  0.3869  0.0331
23498SOL    HW174410   0.754   1.360   0.082  1.9810 -0.0177 -0.8177
23498SOL    HW274411   0.793   1.216   0.111 -0.6007 -0.3816  1.1586
23499SOL     OW74412   1.586   5.659   6.599  0.3485  0.8125 -0.5082
23499SOL    HW174413   1.577   5.564   6.608  0.6126  0.7414 -0.9471
23499SOL    HW274414   1.521   5.695   6.659  2.1857  0.4006  1.8829
23500SOL     OW74415   0.351   0.831   0.730  0.6241  0.1005  0.0114
23500SOL    HW174416   0.408   0.898   0.692  1.1625 -1.1779 -1.5407
23500SOL    HW274417   0.408   0.782   0.790  0.5445  0.2327  0.1992
23501SOL     OW74418   8.716   6.409   5.603 -0.8499 -0.0965 -0.2478
23501SOL    HW174419   8.776   6.386   5.532 -0.7293  0.9739 -0.5053
23501SOL    HW274420   8.773   6.427   5.678 -0.9343 -0.4238 -0.1024
23502SOL     OW74421   4.915   1.924   4.371  0.6335  0.0882 -0.5033
23502SOL    HW174422   4.850   1.987   4.402 -0.8925 -1.1965 -0.9406
23502SOL    HW274423   4.948   1.882   4.450 -0.3435 -0.4174 -0.3400
23503SOL     OW74424   3.958   8.871   4.415  0.1361 -0.1885 -0.3153
23503SOL    HW174425   3.887   8.925   4.381 -0.6699 -1.7072 -1.1511
23503SOL    HW274426   4.006   8.843   4.337 -0.3298 -1.8150 -0.0532
23504SOL     OW74427   5.055   1.728   4.878  0.3590 -0.2507 -0.3934
23504SOL    HW174428   5.104   1.646   4.870  0.1825 -0.6076  1.5304
23504SOL    HW274429   4.993   1.712   4.949  0.2181  1.5026 -0.0672
23505SOL     OW74430   1.258   6.872   1.438 -0.1326  0.8181 -0.0094
23505SOL    HW174431   1.193   6.850   1.505  1.5011  0.6054  1.5894
23505SOL    HW274432   1.210   6.926   1.375 -1.9134  0.4508  0.9549
23506SOL     OW74433   0.291   6.068   1.042  0.1614  0.2007 -0.1522
23506SOL    HW174434   0.364   6.012   1.069  2.1140  0.8360 -3.5264
23506SOL    HW274435   0.221   6.007   1.018  0.8260 -0.6061 -0.0668
23507SOL     OW74436   8.265   0.743  10.085  0.2673 -0.1880  0.4975
23507SOL    HW174437   8.183   0.783  10.114  1.2275  2.0476  0.3082
23507SOL    HW274438   8.240   0.689  10.010 -0.9628  0.9219  0.0729
23508SOL     OW74439   9.859   2.814  10.004 -0.2126 -0.2190 -0.3983
23508SOL    HW174440   9.790   2.869  10.041 -0.5715 -0.1194 -1.1786
23508SOL    HW274441   9.931   2.875   9.987 -0.6520  0.0571 -1.3705
23509SOL     OW74442   1.284   3.238   2.951 -0.0819 -0.2342 -0.0956
23509SOL    HW174443   1.230   3.159   2.952 -1.8494  0.9264 -0.3854
23509SOL    HW274444   1.311   3.250   3.042 -0.0558 -0.9877  0.0025
23510SOL     OW74445   0.869   2.194   7.204 -0.2321 -0.2920 -0.4407
23510SOL    HW174446   0.794   2.238   7.161 -0.3784  1.3157  1.3187
23510SOL    HW274447   0.833   2.111   7.235 -0.5814 -0.6883 -1.8087
23511SOL     OW74448   2.960   9.820   4.204  0.5786 -0.1305 -0.5053
23511SOL    HW174449   2.891   9.770   4.247  1.0676  0.5307  1.1523
23511SOL    HW274450   2.971   9.778   4.119 -1.1519 -0.8681 -0.4017
23512SOL     OW74451   1.037   8.841   3.568  0.2635 -0.5479 -0.0991
23512SOL    HW174452   0.997   8.860   3.484 -0.4969 -0.3805  0.2914
23512SOL    HW274453   1.071   8.752   3.559  1.7916  0.0956 -1.1644
23513SOL     OW74454   2.970   3.667   2.157 -0.1803 -0.2877 -0.4717
23513SOL    HW174455   3.049   3.616   2.141 -1.1621 -2.2861  0.6058
23513SOL    HW274456   2.904   3.628   2.099 -1.0294 -0.4790  0.5885
23514SOL     OW74457   7.003   9.580   8.345 -0.1928 -0.3459 -0.2286
23514SOL    HW174458   6.974   9.544   8.261 -2.0539 -1.0711  0.6712
23514SOL    HW274459   6.956   9.529   8.411 -1.7830  2.6090  1.1505
23515SOL     OW74460   5.940   7.027   0.951  0.2990 -0.2494  0.0656
23515SOL    HW174461   5.986   6.943   0.961 -0.9185 -1.0611 -0.8433
23515SOL    HW274462   5.935   7.039   0.856  1.5475  1.5066  0.1625
23516SOL     OW74463   0.747   9.961   1.193  1.0263 -0.0490  0.1041
23516SOL    HW174464   0.701  10.015   1.128  2.5027  0.4866 -0.5463
23516SOL    HW274465   0.757   9.876   1.150  1.6093  0.1689 -0.1967
23517SOL     OW74466   6.945   6.276   4.023 -0.3047  0.8253  0.0976
23517SOL    HW174467   6.973   6.212   3.958 -1.2319 -0.0488  0.5327
23517SOL    HW274468   6.989   6.250   4.103 -1.1042  0.3996  0.4035
23518SOL     OW74469   3.152   7.397   0.034 -0.0333  0.3438  0.7286
23518SOL    HW174470   3.204   7.326  -0.004  0.4707  0.5643  0.9972
23518SOL    HW274471   3.199   7.477   0.010  0.0836  0.5084  1.4732
23519SOL     OW74472   4.937   3.870   7.118  0.0423  0.1482  0.5017
23519SOL    HW174473   4.989   3.948   7.138  0.2549  0.0414  0.3742
23519SOL    HW274474   4.875   3.863   7.191  0.3774  0.1309  0.7892
23520SOL     OW74475   9.849   3.277   5.113 -0.0509  0.9070 -0.0331
23520SOL    HW174476   9.842   3.201   5.056  0.5775  0.5933  0.2893
23520SOL    HW274477   9.897   3.342   5.062  0.9337  0.4553  0.2868
23521SOL     OW74478   5.524   5.002   8.280 -0.4520 -0.0011 -0.1929
23521SOL    HW174479   5.492   4.917   8.310 -0.9486  0.1991 -0.1496
23521SOL    HW274480   5.579   4.982   8.204 -0.4925 -0.3642 -0.1256
23522SOL     OW74481   9.357   2.149   8.440  0.2616 -0.4817  0.5082
23522SOL    HW174482   9.282   2.190   8.396  1.0890 -1.3990 -1.9094
23522SOL    HW274483   9.331   2.057   8.451  0.5506 -0.5311  0.7901
23523SOL     OW74484   5.768   2.270   2.583 -0.4351 -0.5448  0.3895
23523SOL    HW174485   5.788   2.178   2.600  1.3261 -0.4171 -0.7013
23523SOL    HW274486   5.729   2.270   2.495 -0.0054 -0.2230  0.1925
23524SOL     OW74487   5.433   8.419   0.164 -0.4589  0.1863 -0.4896
23524SOL    HW174488   5.517   8.425   0.119  0.8431  0.2601  1.8000
23524SOL    HW274489   5.428   8.499   0.217 -0.8663 -0.8596  1.1352
23525SOL     OW74490   1.509   6.720   2.623  0.1357 -0.2990  0.4210
23525SOL    HW174491   1.601   6.694   2.618 -0.3940 -1.9794 -1.9576
23525SOL    HW274492   1.494   6.773   2.545 -1.2721 -1.3101 -0.0324
23526SOL     OW74493   8.932   3.040   7.897  0.5655  0.1670 -0.3181
23526SOL    HW174494   9.004   3.092   7.863  0.3659 -0.2249 -1.4016
23526SOL    HW274495   8.946   2.953   7.859 -1.8144  0.6781 -2.6767
23527SOL     OW74496   6.403   5.319   6.355 -0.4072  0.1170 -0.4385
23527SOL    HW174497   6.345   5.348   6.426 -0.3608  0.6092 -0.5978
23527SOL    HW274498   6.475   5.275   6.400 -1.1260 -0.9010 -0.2626
23528SOL     OW74499   7.196   7.520   1.045 -0.0562  0.2754  0.4941
23528SOL    HW174500   7.189   7.524   1.140 -1.1361  0.1924  0.4272
23528SOL    HW274501   7.248   7.597   1.021 -0.1404  0.5255  1.1169
23529SOL     OW74502   8.623   6.558   8.495  0.0594  0.4036 -0.4165
23529SOL    HW174503   8.612   6.564   8.400  0.5564  0.6651 -0.4611
23529SOL    HW274504   8.692   6.621   8.515  0.1349  0.1636  0.0872
23530SOL     OW74505   2.121   9.556   2.319 -0.6636  0.2254 -0.0386
23530SOL    HW174506   2.191   9.580   2.380 -0.4065  1.9906 -0.9723
23530SOL    HW274507   2.048   9.531   2.375  0.4133 -0.8282  0.9604
23531SOL     OW74508   5.396   5.169   4.144  0.0131  0.3304  0.0711
23531SOL    HW174509   5.474   5.180   4.197  1.3541 -0.8849 -1.5580
23531SOL    HW274510   5.349   5.252   4.154  1.4682  1.0664  1.1395
23532SOL     OW74511   3.420   2.959   6.854 -0.0954  0.2181  0.1280
23532SOL    HW174512   3.485   2.890   6.869  1.1558  0.9979 -1.3836
23532SOL    HW274513   3.344   2.914   6.820  0.7229 -0.4336 -0.8926
23533SOL     OW74514   4.694   1.786   7.971  0.7612  0.0077  0.2608
23533SOL    HW174515   4.763   1.812   8.031  0.7280  0.2059  0.2143
23533SOL    HW274516   4.612   1.803   8.018  0.7338  0.1984  0.1458
23534SOL     OW74517   2.111   6.452   6.454  0.1356  0.0128 -0.3433
23534SOL    HW174518   2.027   6.406   6.455 -0.1960  0.6126  0.4877
23534SOL    HW274519   2.131   6.463   6.361 -0.3309 -0.7976 -0.5520
23535SOL     OW74520   5.294   2.508   3.568  0.6175  0.1633 -0.3185
23535SOL    HW174521   5.230   2.442   3.592  1.9136 -0.7495  0.7882
23535SOL    HW274522   5.259   2.590   3.603  0.0805 -0.3223  0.2897
23536SOL     OW74523   1.257   2.479   4.163  0.3378  0.0227  0.5618
23536SOL    HW174524   1.334   2.534   4.178 -1.0762  2.1945  0.2000
23536SOL    HW274525   1.250   2.473   4.068 -0.3547  0.4876  0.5767
23537SOL     OW74526   5.803   7.408   2.048 -0.2789  0.1160  0.1306
23537SOL    HW174527   5.726   7.456   2.079 -0.3633 -0.5183  0.9275
23537SOL    HW274528   5.772   7.360   1.971 -0.4240  0.6200 -0.1301
23538SOL     OW74529   2.252   1.329   8.040  0.1914 -0.8118 -0.1362
23538SOL    HW174530   2.256   1.313   8.134  0.2352 -0.5166 -0.0865
23538SOL    HW274531   2.304   1.258   8.001  0.8144 -0.4979  0.1128
23539SOL     OW74532   0.523   8.997   3.695 -0.2899 -0.0265  0.1928
23539SOL    HW174533   0.564   8.953   3.769  0.0435  1.3339  0.8487
23539SOL    HW274534   0.482   9.075   3.732 -2.0737 -0.4673 -0.7090
23540SOL     OW74535   7.687   6.375   0.946  0.2378  0.3485 -0.1129
23540SOL    HW174536   7.746   6.323   1.000  0.2125 -1.7376 -1.9348
23540SOL    HW274537   7.611   6.391   1.001  1.4939  1.1407  1.5019
23541SOL     OW74538   1.981   1.255   6.815  0.2325  0.4060 -0.1294
23541SOL    HW174539   1.904   1.199   6.811 -0.7365  1.6967 -0.4503
23541SOL    HW274540   2.001   1.263   6.909  0.4075 -0.4873 -0.0879
23542SOL     OW74541   2.710   6.204   8.383  0.3606  0.2669  0.1531
23542SOL    HW174542   2.734   6.290   8.418 -1.5267  1.2425 -0.8124
23542SOL    HW274543   2.688   6.221   8.291 -3.9362 -0.3802  0.8571
23543SOL     OW74544   8.442   1.087   7.034  0.2063 -0.2425  0.3357
23543SOL    HW174545   8.405   1.132   6.959 -1.3345 -0.9582  0.6395
23543SOL    HW274546   8.427   0.994   7.018 -1.3655 -0.3594  2.0913
23544SOL     OW74547   4.628   1.669   6.036  0.2053  0.1417 -0.9103
23544SOL    HW174548   4.698   1.636   5.980 -0.4402  0.3234 -1.8388
23544SOL    HW274549   4.606   1.755   6.000 -0.1146  0.3323 -0.2820
23545SOL     OW74550   0.478  10.101   3.471 -0.5645  0.0487 -0.3176
23545SOL    HW174551   0.457  10.050   3.393 -0.2809  0.5608 -0.7354
23545SOL    HW274552   0.522  10.179   3.438 -0.2105  0.1539  0.3735
23546SOL     OW74553   6.433   0.733   6.348  0.0511 -0.1637  0.0049
23546SOL    HW174554   6.392   0.666   6.403  0.9688 -2.1231 -1.5803
23546SOL    HW274555   6.484   0.786   6.410 -3.5024  1.4352  1.8091
23547SOL     OW74556   1.746   7.687   6.141  0.5857 -0.1220 -0.1909
23547SOL    HW174557   1.681   7.716   6.205 -0.4779  0.5626 -1.5215
23547SOL    HW274558   1.798   7.621   6.187 -1.1612 -0.8168  0.8888
23548SOL     OW74559   4.753   6.444   1.247  0.1646  0.0474 -0.5316
23548SOL    HW174560   4.684   6.466   1.309  0.2097  2.0435 -1.1259
23548SOL    HW274561   4.710   6.451   1.161  0.2154 -2.2253 -0.8143
23549SOL     OW74562   3.618   7.764   3.954 -0.6462  0.6627  0.4315
23549SOL    HW174563   3.543   7.806   3.913 -1.6375 -1.4501 -0.0277
23549SOL    HW274564   3.636   7.687   3.900  0.4615 -0.0816  1.7887
23550SOL     OW74565   0.694   2.527   6.179 -0.1307  0.2470 -0.0360
23550SOL    HW174566   0.621   2.472   6.149  0.2337 -0.9203  1.1257
23550SOL    HW274567   0.663   2.565   6.261 -0.8380  2.8265 -1.3654
23551SOL     OW74568   5.767   2.758   6.925  0.0211 -0.0196  0.0592
23551SOL    HW174569   5.729   2.670   6.915  0.2020 -0.0206 -0.7166
23551SOL    HW274570   5.844   2.744   6.980 -1.7951  0.1934  2.8388
23552SOL     OW74571   9.093   8.129   0.718 -0.3678  0.0525  0.1879
23552SOL    HW174572   9.160   8.164   0.777  0.8505 -1.0449 -0.4946
23552SOL    HW274573   9.086   8.195   0.649 -1.1220  0.8893  1.0228
23553SOL     OW74574   4.262   1.110   7.625  0.4922 -0.3415  0.2680
23553SOL    HW174575   4.175   1.142   7.650  0.5933 -0.4967  0.8118
23553SOL    HW274576   4.276   1.032   7.678  0.8099 -0.5356 -0.0925
23554SOL     OW74577   4.229   9.319   7.597 -0.4686  0.2318  0.6144
23554SOL    HW174578   4.215   9.261   7.521  2.9821 -0.3578  0.2489
23554SOL    HW274579   4.227   9.260   7.672 -0.3502  0.2066  0.5985
23555SOL     OW74580   1.377   7.797   7.584 -0.1317 -0.3474 -0.4360
23555SOL    HW174581   1.438   7.772   7.515 -2.0770  0.3884 -2.5576
23555SOL    HW274582   1.430   7.848   7.645  1.7295 -1.2410 -1.2164
23556SOL     OW74583   2.083   2.324   3.692  0.5647 -0.6161  0.0317
23556SOL    HW174584   2.077   2.230   3.680  0.5552 -0.4716 -1.1864
23556SOL    HW274585   2.158   2.351   3.639 -0.1990  0.2245 -0.6597
23557SOL     OW74586   9.003   2.848   7.631 -0.9030 -0.2186 -0.2785
23557SOL    HW174587   8.985   2.796   7.709 -0.8789 -0.3638 -0.3679
23557SOL    HW274588   9.028   2.783   7.565 -0.2657 -0.0402 -0.2201
23558SOL     OW74589   9.411   0.397   8.650  0.2014  0.2647  0.1671
23558SOL    HW174590   9.343   0.401   8.717  1.2505 -0.7841  1.3446
23558SOL    HW274591   9.478   0.458   8.680 -0.7769  2.4080 -1.7257
23559SOL     OW74592   9.706   2.595   5.982 -0.1996 -0.5166 -0.0707
23559SOL    HW174593   9.625   2.637   5.952  1.3529  3.2355  0.4543
23559SOL    HW274594   9.769   2.611   5.912  1.3497  1.1951  1.6165
23560SOL     OW74595   1.989   6.790   0.904  0.6191 -0.6321 -0.2334
23560SOL    HW174596   1.970   6.884   0.913 -1.8645 -0.8440 -2.0533
23560SOL    HW274597   2.079   6.786   0.872  0.6452  1.1743 -0.4806
23561SOL     OW74598   1.458   0.553   1.417  0.4308  0.0938 -0.3916
23561SOL    HW174599   1.362   0.559   1.425  0.2976 -0.8536 -1.1106
23561SOL    HW274600   1.480   0.470   1.459  1.2709  1.4515  2.0710
23562SOL     OW74601   2.472   1.315   1.219 -0.3976  0.5956 -0.2214
23562SOL    HW174602   2.416   1.358   1.285  1.6618  1.5817  0.9982
23562SOL    HW274603   2.415   1.303   1.144 -2.3625  1.1358  1.0945
23563SOL     OW74604   2.636   0.153   2.546  0.6288 -0.1543 -0.6988
23563SOL    HW174605   2.670   0.230   2.591  0.7578  0.4428 -1.8045
23563SOL    HW274606   2.685   0.080   2.584  0.4084  0.2650  0.4576
23564SOL     OW74607   8.856   9.841   6.009  0.4874 -0.3489 -0.1214
23564SOL    HW174608   8.789   9.796   6.060 -1.9587  1.5756 -1.4354
23564SOL    HW274609   8.824   9.839   5.919  3.5439 -1.6121 -1.3467
23565SOL     OW74610   3.434   5.679   8.677 -0.3192  0.2283 -0.0654
23565SOL    HW174611   3.414   5.621   8.603 -0.7050 -0.7490  0.7815
23565SOL    HW274612   3.439   5.620   8.752 -0.5631  1.2952  0.8004
23566SOL     OW74613   7.745   6.114   3.324 -0.2481 -0.1511 -0.2467
23566SOL    HW174614   7.733   6.189   3.266 -1.0390 -0.9662 -1.1917
23566SOL    HW274615   7.744   6.151   3.412  2.0076  1.2513 -0.7315
23567SOL     OW74616   1.555   9.455   3.812 -0.3370  0.0802  0.4095
23567SOL    HW174617   1.516   9.542   3.819  2.0060  1.3181 -0.7321
23567SOL    HW274618   1.486   9.400   3.777 -1.9063  1.4350  1.2308
23568SOL     OW74619   0.848   6.954   0.472 -0.7441  0.6073  0.0172
23568SOL    HW174620   0.823   6.971   0.562 -0.8550 -0.1856  0.1496
23568SOL    HW274621   0.892   6.869   0.475 -0.8211  0.5352 -0.6822
23569SOL     OW74622   9.841   7.057   4.038 -0.1068 -0.4413 -0.3978
23569SOL    HW174623   9.768   7.099   3.992 -0.1861 -0.3902 -0.2264
23569SOL    HW274624   9.807   7.040   4.126 -0.3722 -1.6861 -0.7290
23570SOL     OW74625   6.661   1.539   1.597 -0.4547  0.2349  0.7980
23570SOL    HW174626   6.671   1.494   1.513  0.5423  1.5760  0.1586
23570SOL    HW274627   6.664   1.468   1.662 -0.2143 -0.7389 -0.2323
23571SOL     OW74628   3.738  10.008   5.151  0.8992  0.0780  0.3665
23571SOL    HW174629   3.765  10.042   5.236  2.5445 -1.5992  0.5747
23571SOL    HW274630   3.671   9.942   5.172 -0.0440  0.9580  0.1937
23572SOL     OW74631   8.169   1.498   3.484 -0.3103  0.0451  0.1674
23572SOL    HW174632   8.159   1.516   3.577  1.9088  0.4398  0.3865
23572SOL    HW274633   8.219   1.416   3.481 -0.0555  0.2203 -0.6682
23573SOL     OW74634   3.127   7.768   1.002 -0.6345 -0.6776 -0.2516
23573SOL    HW174635   3.143   7.854   1.040  0.9268 -0.7094 -0.7314
23573SOL    HW274636   3.036   7.747   1.024 -1.1270  1.2010 -0.3641
23574SOL     OW74637   6.847   7.316   2.742 -0.0584  0.0852 -0.8362
23574SOL    HW174638   6.814   7.400   2.710  0.2056  0.1498 -0.9403
23574SOL    HW274639   6.808   7.251   2.684 -1.6967 -0.0215  0.3246
23575SOL     OW74640   6.570   3.956   3.987  0.0964 -0.0658 -0.1502
23575SOL    HW174641   6.601   3.988   3.902 -0.9881 -1.0306 -0.9397
23575SOL    HW274642   6.636   3.891   4.013 -0.0091 -0.3996 -0.6826
23576SOL     OW74643   6.815   0.106   8.770 -0.0674 -0.0422  0.3266
23576SOL    HW174644   6.761   0.086   8.693  0.1411 -0.0327  0.1772
23576SOL    HW274645   6.905   0.090   8.741  0.2200  2.1014 -0.1263
23577SOL     OW74646   4.059   6.044   7.263  0.1742 -0.1680  0.3058
23577SOL    HW174647   4.104   6.120   7.225 -2.7415  0.5355 -2.1743
23577SOL    HW274648   4.097   5.969   7.217 -0.2585  0.3022 -0.8708
23578SOL     OW74649   4.821   6.625   4.214  0.9346  0.3594 -0.2761
23578SOL    HW174650   4.897   6.569   4.230  0.5667 -0.0871 -0.0585
23578SOL    HW274651   4.830   6.652   4.123  0.3391 -1.2744 -0.8451
23579SOL     OW74652   7.039   7.662   9.369 -0.2892 -0.0880 -0.4747
23579SOL    HW174653   7.053   7.568   9.361  0.4165 -0.1191  0.8143
23579SOL    HW274654   6.945   7.674   9.354 -0.1910 -0.8448 -1.7926
23580SOL     OW74655   1.098   1.865   9.653  0.2836  0.6598  0.3845
23580SOL    HW174656   1.138   1.800   9.595  2.9115  1.6840  0.8738
23580SOL    HW274657   1.032   1.816   9.702 -0.5741 -0.6890 -1.9778
23581SOL     OW74658   1.301   2.946   5.426  1.1414 -0.4806  0.1260
23581SOL    HW174659   1.352   3.025   5.442  0.9666 -0.4420  0.5178
23581SOL    HW274660   1.257   2.962   5.343  1.6452 -0.4504 -0.1380
23582SOL     OW74661   4.698   8.039   0.556  0.0399 -0.6414  0.3593
23582SOL    HW174662   4.720   8.132   0.562  0.8166 -0.8143  0.3621
23582SOL    HW274663   4.762   7.997   0.613  0.5780 -1.3093 -0.7224
23583SOL     OW74664   1.530   7.803   7.347 -0.1118  0.1274 -0.2255
23583SOL    HW174665   1.556   7.823   7.257  0.2786 -0.4248 -0.2406
23583SOL    HW274666   1.612   7.790   7.394 -0.2938  1.0240  0.3671
23584SOL     OW74667   4.611   6.719   6.470 -0.3593 -0.3304  0.4996
23584SOL    HW174668   4.696   6.749   6.501 -1.3435  1.4343  1.6951
23584SOL    HW274669   4.599   6.766   6.387  0.1240 -1.1350 -0.0319
23585SOL     OW74670   2.581   3.545   4.029  0.4512  0.1899 -0.1341
23585SOL    HW174671   2.650   3.521   4.091  2.6548  0.0387 -2.5041
23585SOL    HW274672   2.532   3.464   4.016  0.7030 -0.0740  0.4913
23586SOL     OW74673   6.828   4.154   3.057  0.0380  0.6605 -0.1003
23586SOL    HW174674   6.897   4.198   3.107  0.5697 -1.1984  0.8813
23586SOL    HW274675   6.874   4.113   2.984 -0.2585  0.6612 -0.2895
23587SOL     OW74676   5.898   0.616   3.582 -0.6391 -0.3470  0.4094
23587SOL    HW174677   5.971   0.560   3.558  0.1531  0.5929  0.5894
23587SOL    HW274678   5.920   0.649   3.669 -0.8247  0.6567  0.0962
23588SOL     OW74679   7.815   0.554   0.240  0.0389  0.1468 -0.2396
23588SOL    HW174680   7.899   0.555   0.193  0.7743 -2.6783  0.7940
23588SOL    HW274681   7.759   0.496   0.189 -0.5145  0.1996  0.2941
23589SOL     OW74682   2.749   2.546   9.069 -0.1604  0.4350 -0.3126
23589SOL    HW174683   2.810   2.498   9.013 -1.6399  1.2792 -2.7892
23589SOL    HW274684   2.805   2.600   9.124  1.3760  0.3767 -1.7275
23590SOL     OW74685   1.177   1.854   4.407 -0.1832  0.0920 -0.4592
23590SOL    HW174686   1.188   1.764   4.439 -1.2141 -0.0286 -0.4015
23590SOL    HW274687   1.134   1.844   4.322  0.0736  0.5204 -0.6439
23591SOL     OW74688   1.185   1.463   6.174  0.2775 -0.0158 -0.2437
23591SOL    HW174689   1.254   1.446   6.110  1.1242 -2.1471  1.1200
23591SOL    HW274690   1.226   1.444   6.258 -1.3637  0.8434  0.7924
23592SOL     OW74691   6.632   6.324   2.712 -0.3052 -0.0912  0.4566
23592SOL    HW174692   6.717   6.291   2.683  0.1030 -0.0457  1.5415
23592SOL    HW274693   6.588   6.246   2.748 -1.7308 -0.6437 -2.2321
23593SOL     OW74694   1.809   2.307   4.918  0.1178  0.0179  0.1854
23593SOL    HW174695   1.834   2.349   4.835 -1.0503 -0.5213 -0.4695
23593SOL    HW274696   1.715   2.290   4.908  0.5717 -3.0537  0.2613
23594SOL     OW74697   4.198   2.036   4.285  0.0349 -0.5405 -0.5720
23594SOL    HW174698   4.119   2.088   4.299  0.0398 -0.2539 -1.5186
23594SOL    HW274699   4.166   1.946   4.275 -0.0210 -0.6557  0.5562
23595SOL     OW74700   5.285   0.670   1.084  0.2603 -0.3554  0.0668
23595SOL    HW174701   5.350   0.600   1.086 -0.5827 -1.1933 -0.7628
23595SOL    HW274702   5.217   0.638   1.026 -0.4130  0.9388  0.0959
23596SOL     OW74703   9.303  10.111   8.711  0.4026  0.1374 -0.3752
23596SOL    HW174704   9.244  10.185   8.695  1.1090  0.9426  0.6276
23596SOL    HW274705   9.280  10.047   8.643 -0.2906  1.2338 -1.2130
23597SOL     OW74706   7.054   1.336   2.434 -0.1250 -0.2669 -0.2076
23597SOL    HW174707   7.081   1.245   2.443 -1.0415 -0.5654 -0.3203
23597SOL    HW274708   7.097   1.366   2.354 -0.1075 -0.7179 -0.3723
23598SOL     OW74709   8.857   7.519   0.833 -0.0001  0.5912 -0.1340
23598SOL    HW174710   8.761   7.521   0.827 -0.7753 -3.5994  4.3032
23598SOL    HW274711   8.877   7.564   0.915  1.7643  0.5990 -0.5273
23599SOL     OW74712   2.169   3.086   2.900  0.5867 -0.3947  0.1692
23599SOL    HW174713   2.176   3.168   2.851 -0.5137  0.6001  1.5802
23599SOL    HW274714   2.092   3.042   2.863  0.0498  0.1183  0.6719
23600SOL     OW74715   1.106   5.736   5.061 -0.0288 -0.0178 -0.2111
23600SOL    HW174716   1.096   5.790   4.982 -0.7808 -1.9713 -1.5120
23600SOL    HW274717   1.200   5.720   5.068  0.1404  0.9156 -0.1451
23601SOL     OW74718   4.126   7.377   5.200  0.3305 -0.0200  0.0607
23601SOL    HW174719   4.209   7.360   5.157  0.2733  0.8226 -0.4049
23601SOL    HW274720   4.147   7.381   5.293  1.0056  1.2329 -0.1280
23602SOL     OW74721   3.225   4.324   7.396 -0.1973  0.2228 -0.2275
23602SOL    HW174722   3.223   4.263   7.470  1.5856  0.0567 -0.2744
23602SOL    HW274723   3.154   4.294   7.340  0.1819 -1.4096  0.0852
23603SOL     OW74724   7.765   3.405   8.637 -0.1921  0.2951 -0.0206
23603SOL    HW174725   7.702   3.354   8.587  1.6737  0.6899 -3.0295
23603SOL    HW274726   7.729   3.494   8.638 -0.7297  0.0767  0.2550
23604SOL     OW74727   7.393   0.696   7.037 -0.0863 -0.1837 -1.0287
23604SOL    HW174728   7.440   0.771   7.000  2.0840 -0.0168  1.7216
23604SOL    HW274729   7.402   0.627   6.971  0.0887  1.2129 -2.5103
23605SOL     OW74730   3.384   5.148   8.854 -0.9944  0.2000 -0.0030
23605SOL    HW174731   3.387   5.169   8.760 -0.5190 -1.4539 -0.3918
23605SOL    HW274732   3.371   5.053   8.857 -2.5437  0.4063  1.6362
23606SOL     OW74733   3.664   4.278   6.230 -0.2532 -0.7795  0.5551
23606SOL    HW174734   3.665   4.200   6.174 -0.2743 -0.4505  0.0831
23606SOL    HW274735   3.687   4.246   6.317 -0.0950 -1.2849  0.3327
23607SOL     OW74736   3.185   1.187   5.701  0.3435  0.1091  0.3780
23607SOL    HW174737   3.253   1.185   5.768  0.7595  1.3299  0.0236
23607SOL    HW274738   3.230   1.162   5.620  0.3456  0.7583  0.1719
23608SOL     OW74739   4.956   5.729   3.137  0.5748  0.0727  0.1600
23608SOL    HW174740   4.959   5.736   3.233 -1.3275  0.8005  0.2183
23608SOL    HW274741   4.864   5.712   3.117  1.3326 -2.5934 -1.4485
23609SOL     OW74742   7.976   1.805   3.830 -0.1936  0.2968  0.6154
23609SOL    HW174743   7.906   1.759   3.785 -0.7249  0.2618  1.4567
23609SOL    HW274744   7.984   1.889   3.784 -0.7338  0.2696  0.4710
23610SOL     OW74745   6.724   9.831  10.184  0.1140 -0.5417 -0.4749
23610SOL    HW174746   6.663   9.900  10.159 -1.0372 -1.2745  0.2021
23610SOL    HW274747   6.684   9.789  10.260  2.3966  0.1663  1.2435
23611SOL     OW74748   7.715  10.152   2.832  0.5556 -0.5467  0.8575
23611SOL    HW174749   7.717  10.200   2.749  0.5258  1.4187  1.9337
23611SOL    HW274750   7.685  10.064   2.808  2.6430 -0.7223 -1.5022
23612SOL     OW74751   7.559   0.919   6.556  0.0251 -0.1586 -0.4192
23612SOL    HW174752   7.512   0.910   6.638  0.5685 -0.1524 -0.1030
23612SOL    HW274753   7.572   1.013   6.545  2.0518 -0.2525  0.7125
23613SOL     OW74754   9.610   1.176   8.992  0.2698 -0.0731  0.2032
23613SOL    HW174755   9.667   1.188   8.915  1.0377 -2.6951  0.2838
23613SOL    HW274756   9.548   1.109   8.965 -0.6801  0.3583  1.2676
23614SOL     OW74757   7.814   3.607   9.240  0.0178  0.2714 -0.1415
23614SOL    HW174758   7.883   3.547   9.266 -0.4282 -0.7736 -1.2410
23614SOL    HW274759   7.856   3.692   9.235  1.3058 -0.3837 -1.0299
23615SOL     OW74760   9.429   3.623   2.465  0.3062  0.5404  0.4318
23615SOL    HW174761   9.382   3.666   2.394 -1.7059 -0.5852  1.0057
23615SOL    HW274762   9.378   3.545   2.484  1.2626  0.3462  2.5238
23616SOL     OW74763   9.807   8.889   1.218 -0.0624 -0.6592  0.0918
23616SOL    HW174764   9.780   8.980   1.226  0.8202 -0.2151 -1.5892
23616SOL    HW274765   9.795   8.853   1.306 -0.3566  1.0870  0.8098
23617SOL     OW74766   4.070   8.739   5.319 -0.0999 -0.0928  0.5150
23617SOL    HW174767   4.121   8.820   5.317 -1.1410  0.5601 -0.3188
23617SOL    HW274768   4.127   8.674   5.278  0.3604  0.4363  0.3011
23618SOL     OW74769   6.164   3.136   1.503 -0.1641 -0.4989  0.1962
23618SOL    HW174770   6.169   3.218   1.453 -0.6437 -1.1195 -0.8998
23618SOL    HW274771   6.254   3.105   1.508 -0.1612 -0.6536 -0.6790
23619SOL     OW74772   5.554  10.008   3.360 -0.1728 -0.1622 -0.4040
23619SOL    HW174773   5.514   9.933   3.404 -0.3508 -0.3993 -0.9654
23619SOL    HW274774   5.520  10.084   3.407 -1.6433 -0.3343 -1.1343
23620SOL     OW74775   1.515   1.696   7.259  0.1101 -0.3183 -0.4303
23620SOL    HW174776   1.486   1.638   7.329 -0.2127  1.0403  0.5985
23620SOL    HW274777   1.435   1.715   7.209  0.3503 -1.3305 -1.2103
23621SOL     OW74778   7.381   6.125   0.449  0.0403  0.0183 -0.1256
23621SOL    HW174779   7.317   6.189   0.417 -0.4628  0.1706  1.1465
23621SOL    HW274780   7.329   6.057   0.490  0.6679 -0.1981  0.3231
23622SOL     OW74781  10.053   6.021   5.092 -0.2804  0.0251 -0.5102
23622SOL    HW174782  10.099   6.101   5.117 -0.3487  0.0533 -0.4738
23622SOL    HW274783  10.049   6.025   4.996  1.4541 -0.9008 -0.6462
23623SOL     OW74784   0.396   5.086   5.200 -1.1066  0.0958 -0.0501
23623SOL    HW174785   0.451   5.041   5.264 -1.1780 -0.4024 -0.3296
23623SOL    HW274786   0.449   5.089   5.120 -1.8780 -1.4092 -0.6655
23624SOL     OW74787   8.721   5.151   5.251 -0.0165 -0.1598  0.4718
23624SOL    HW174788   8.731   5.246   5.249  0.8553 -0.2504  0.3757
23624SOL    HW274789   8.793   5.120   5.306 -0.7459 -0.7085  1.1383
23625SOL     OW74790   3.469   3.740   4.338 -0.3339 -0.0586  0.2121
23625SOL    HW174791   3.470   3.730   4.433 -0.0216 -2.1614  0.0279
23625SOL    HW274792   3.528   3.813   4.321  1.2883 -1.0076  1.5202
23626SOL     OW74793   4.388   8.157   8.486 -1.0192 -0.6822  0.0193
23626SOL    HW174794   4.325   8.111   8.430 -1.7586 -1.0699  1.1362
23626SOL    HW274795   4.346   8.241   8.504 -0.0306  0.1335 -1.3541
23627SOL     OW74796   3.943   8.597   7.380  0.6017  0.4369  0.5452
23627SOL    HW174797   3.901   8.511   7.391  1.0665 -0.2552 -2.2043
23627SOL    HW274798   4.023   8.577   7.330  0.3254  2.5393 -0.8326
23628SOL     OW74799   0.840   9.373   1.363 -0.1457  0.0156 -0.6599
23628SOL    HW174800   0.881   9.288   1.379  0.0612  0.3346  0.5963
23628SOL    HW274801   0.784   9.358   1.286 -0.2839 -1.3155 -0.3314
23629SOL     OW74802   9.232   3.891   3.502 -0.2539 -0.3484 -0.4193
23629SOL    HW174803   9.221   3.971   3.553  0.1070 -0.3795 -0.2894
23629SOL    HW274804   9.188   3.823   3.554 -0.7096 -0.2076 -0.6129
23630SOL     OW74805   5.435   7.530   7.358  0.3472  0.3654  0.4745
23630SOL    HW174806   5.425   7.438   7.382 -0.5944  0.6508  1.2468
23630SOL    HW274807   5.528   7.541   7.341  0.2455 -1.2038 -1.6168
23631SOL     OW74808   9.937   6.527   0.463 -0.1727 -0.1568 -0.1266
23631SOL    HW174809   9.991   6.559   0.536 -0.5446 -0.7797  0.4262
23631SOL    HW274810   9.988   6.549   0.385  1.7011 -2.1901  0.4374
23632SOL     OW74811   5.894   6.755   1.802  0.0251  0.0108  0.3284
23632SOL    HW174812   5.863   6.697   1.873  0.9328 -0.2104  0.5535
23632SOL    HW274813   5.862   6.842   1.827 -2.3827 -0.5337 -0.6174
23633SOL     OW74814   0.273   4.301   4.883  0.6188  0.2217 -0.3112
23633SOL    HW174815   0.260   4.395   4.874 -1.5382 -0.1395 -1.8275
23633SOL    HW274816   0.201   4.273   4.939  1.5151 -0.4827  0.5105
23634SOL     OW74817   4.319   6.026   9.859  0.3099 -0.3554 -0.2688
23634SOL    HW174818   4.308   6.116   9.891  2.2527  1.1178 -3.2875
23634SOL    HW274819   4.251   6.017   9.791  0.0460 -1.2369  0.1007
23635SOL     OW74820   8.714   6.288   7.456  0.2718 -0.5610  0.5277
23635SOL    HW174821   8.725   6.315   7.365 -1.1049 -2.5993 -0.2930
23635SOL    HW274822   8.621   6.299   7.474  0.2025 -1.8801  1.0953
23636SOL     OW74823   3.457   6.286   6.617 -0.0429 -0.2275  0.5186
23636SOL    HW174824   3.499   6.368   6.594 -0.2661 -0.4307 -0.6964
23636SOL    HW274825   3.367   6.311   6.641  0.4913  0.1094  2.3042
23637SOL     OW74826   2.553   9.660   5.221  0.4057 -0.6920 -0.4876
23637SOL    HW174827   2.587   9.740   5.261  0.3329 -0.7336 -0.3435
23637SOL    HW274828   2.588   9.589   5.274  0.5852 -0.7631 -0.7005
23638SOL     OW74829   0.103   5.084   8.391  0.3919  0.6796  0.2964
23638SOL    HW174830   0.025   5.120   8.433  2.0546  1.5335  2.8549
23638SOL    HW274831   0.154   5.161   8.365  0.7770  0.1289 -0.6540
23639SOL     OW74832   4.836   0.559   7.908 -0.2230 -0.2499 -0.0889
23639SOL    HW174833   4.898   0.616   7.955  0.2903  0.5887 -1.7008
23639SOL    HW274834   4.868   0.470   7.925 -1.6759 -0.2677  3.3996
23640SOL     OW74835   4.237   5.323   9.602  0.4085  0.0509  0.6972
23640SOL    HW174836   4.246   5.276   9.519  0.1029  2.5887 -0.9046
23640SOL    HW274837   4.314   5.298   9.652  0.7641 -1.3270 -0.4727
23641SOL     OW74838   0.612   4.967   4.864 -0.1511 -0.2817  0.0738
23641SOL    HW174839   0.667   5.031   4.910  0.6490 -0.0206 -1.1717
23641SOL    HW274840   0.566   5.020   4.798  0.5376 -0.9640 -0.9884
23642SOL     OW74841   4.446   6.588   4.673  0.1901  0.1392 -0.6249
23642SOL    HW174842   4.537   6.614   4.666  0.9473 -2.5753 -2.5131
23642SOL    HW274843   4.416   6.627   4.755  2.8477  1.5717 -0.2315
23643SOL     OW74844   2.402   4.983   3.293 -0.1720  0.4028 -0.8098
23643SOL    HW174845   2.368   5.038   3.363  0.0029 -0.4679 -0.0166
23643SOL    HW274846   2.372   5.024   3.213  0.6937  2.1569 -0.2876
23644SOL     OW74847   0.286   5.259   3.556  0.4920  0.0292  0.1554
23644SOL    HW174848   0.350   5.205   3.603  0.6805 -0.5843 -0.7693
23644SOL    HW274849   0.250   5.200   3.490  1.5746  1.3259 -1.6891
23645SOL     OW74850   3.748   4.578   1.612 -0.5191  0.2298 -0.4525
23645SOL    HW174851   3.788   4.593   1.698 -2.9380  2.1480  0.4589
23645SOL    HW274852   3.797   4.635   1.552  1.9654 -1.9982 -0.7236
23646SOL     OW74853   1.818   3.795   3.101  0.1264  0.0688  0.0431
23646SOL    HW174854   1.871   3.828   3.029 -0.4705 -0.7330 -0.7917
23646SOL    HW274855   1.858   3.712   3.125  0.8785  0.7568  1.2924
23647SOL     OW74856   9.043   7.997   6.186  0.4832 -0.0936 -0.3108
23647SOL    HW174857   8.983   7.923   6.179 -0.3021  0.6289 -2.0542
23647SOL    HW274858   9.125   7.960   6.218 -0.2847 -1.4640  0.1402
23648SOL     OW74859   3.215   1.759   8.946  0.3481 -0.9087  0.4528
23648SOL    HW174860   3.259   1.802   9.019 -0.7693 -1.6238  1.5982
23648SOL    HW274861   3.235   1.666   8.956 -3.0636 -1.6286  2.3783
23649SOL     OW74862   7.917   7.740   0.456 -0.3065 -0.1065 -0.0965
23649SOL    HW174863   7.851   7.721   0.389  1.3065 -1.2674 -1.4531
23649SOL    HW274864   7.976   7.803   0.414 -0.2182  0.4764  0.8792
23650SOL     OW74865   3.884   9.416   9.832 -0.5101  0.2135  0.1129
23650SOL    HW174866   3.794   9.383   9.831 -0.6210  0.4985  0.2196
23650SOL    HW274867   3.881   9.494   9.776 -0.5737  0.8128  0.9204
23651SOL     OW74868   0.045   7.678   5.263  0.2929 -0.5070  0.1860
23651SOL    HW174869  -0.000   7.642   5.187  2.2344 -0.8024 -0.9071
23651SOL    HW274870   0.086   7.758   5.231  3.2831 -1.9247  0.0861
23652SOL     OW74871   8.521   2.626   6.634  0.1856 -0.0091  0.2403
23652SOL    HW174872   8.439   2.603   6.678  0.2621 -1.0178 -0.1048
23652SOL    HW274873   8.589   2.615   6.700 -0.1381  3.1988  1.2632
23653SOL     OW74874   9.053   6.663   6.141  0.8451  0.6794 -0.7458
23653SOL    HW174875   9.072   6.712   6.061 -1.0630  1.8568 -0.5519
23653SOL    HW274876   9.128   6.682   6.199  2.0577  0.1158 -2.0719
23654SOL     OW74877   1.379   9.134   0.746  0.5449 -0.0285 -0.0557
23654SOL    HW174878   1.343   9.128   0.658 -1.2044 -0.2042  0.6172
23654SOL    HW274879   1.447   9.067   0.749  0.6319 -0.0095 -1.2670
23655SOL     OW74880   3.605   6.872   0.717  0.3635  0.0601  0.1060
23655SOL    HW174881   3.662   6.889   0.643  0.8764 -0.8815  0.2675
23655SOL    HW274882   3.551   6.951   0.724 -0.1904 -0.1183 -1.6922
23656SOL     OW74883   8.060   5.237   9.106 -0.5102  0.0318  0.0920
23656SOL    HW174884   8.127   5.200   9.048 -1.5063 -0.8733 -0.5374
23656SOL    HW274885   8.104   5.309   9.151  0.5203  0.2721 -1.2291
23657SOL     OW74886   3.143   5.826   0.998  0.0093 -0.1019 -0.2800
23657SOL    HW174887   3.134   5.780   1.082 -0.8442  1.8871  0.7887
23657SOL    HW274888   3.176   5.913   1.022 -0.3218  0.5208 -1.9918
23658SOL     OW74889   1.178   4.523   4.555 -0.7010 -0.1771 -0.1455
23658SOL    HW174890   1.100   4.534   4.608 -0.3808 -0.1515  0.3289
23658SOL    HW274891   1.195   4.429   4.555 -0.2983 -0.1102  0.3952
23659SOL     OW74892   2.997   4.702   2.531  0.5083  0.4308  0.1679
23659SOL    HW174893   2.950   4.686   2.613  0.9270  2.4121  0.8510
23659SOL    HW274894   3.088   4.679   2.551  0.7737  1.7457  0.5763
23660SOL     OW74895   9.210   9.747  10.014  0.6668  0.1054  0.0332
23660SOL    HW174896   9.263   9.678  10.055  0.3581 -1.0439 -1.4145
23660SOL    HW274897   9.274   9.805   9.972  1.0916  2.0975  3.1398
23661SOL     OW74898   6.215   2.998   3.274  0.7932 -0.3271  0.3762
23661SOL    HW174899   6.304   2.965   3.264  2.0051  2.6522  0.0715
23661SOL    HW274900   6.222   3.067   3.340 -1.6931 -1.2171  1.6793
23662SOL     OW74901   2.647   7.359   0.971 -0.3762  0.1539 -0.4825
23662SOL    HW174902   2.627   7.272   1.005 -1.5514  0.1754 -1.1078
23662SOL    HW274903   2.566   7.390   0.932 -0.5480  2.2917  1.3286
23663SOL     OW74904   6.463   0.967   2.532  0.4056 -0.0906  0.0810
23663SOL    HW174905   6.466   1.062   2.520  2.4953  0.0108  0.9479
23663SOL    HW274906   6.415   0.954   2.613 -0.2681  0.1712 -0.2639
23664SOL     OW74907   4.992   5.294   8.195 -0.4608 -0.3150  0.0631
23664SOL    HW174908   5.011   5.206   8.161  0.1984 -0.4721  0.7989
23664SOL    HW274909   4.921   5.281   8.258  0.6644 -0.5950  1.3328
23665SOL     OW74910   4.314   2.557   1.124  0.0523 -0.2631 -0.6521
23665SOL    HW174911   4.225   2.573   1.091 -1.2906 -3.5785  0.8491
23665SOL    HW274912   4.311   2.466   1.156  2.9506  0.6374  2.8061
23666SOL     OW74913   2.637   7.162   1.167  0.0375 -0.7059  0.0277
23666SOL    HW174914   2.544   7.141   1.177  0.1634 -0.6302  1.6685
23666SOL    HW274915   2.682   7.095   1.218  0.8438 -0.2900 -0.1237
23667SOL     OW74916   8.943   7.124   7.071  0.6424 -0.3929  0.2164
23667SOL    HW174917   8.939   7.147   7.164 -0.3130  0.4967 -0.0186
23667SOL    HW274918   8.960   7.208   7.027  1.0704 -0.8024 -0.4026
23668SOL     OW74919   7.866   3.244   8.002  0.5665  0.2016 -0.7961
23668SOL    HW174920   7.806   3.187   8.050  2.1977 -0.9053  0.0733
23668SOL    HW274921   7.913   3.185   7.943  2.9635  0.3562  0.7952
23669SOL     OW74922   3.191   2.555   8.008  0.0160  0.3749 -0.1275
23669SOL    HW174923   3.167   2.602   7.929 -0.4031  0.6903  0.1807
23669SOL    HW274924   3.284   2.537   7.999 -0.4166 -1.4126 -1.6406
23670SOL     OW74925   7.085   6.430   3.653  0.3701 -0.4438  0.8154
23670SOL    HW174926   7.077   6.335   3.666 -0.6717 -0.4494  0.2171
23670SOL    HW274927   7.007   6.466   3.694  0.5096  0.1119  0.5942
23671SOL     OW74928   3.477   9.157   3.495 -0.5639 -0.0189  0.0744
23671SOL    HW174929   3.444   9.141   3.583  1.3715  2.3045  1.3259
23671SOL    HW274930   3.448   9.245   3.473 -0.7676 -0.4489 -1.5097
23672SOL     OW74931   4.498   2.645   0.936 -0.4267  0.5941 -0.6458
23672SOL    HW174932   4.466   2.629   0.847 -1.4995  1.6994 -0.4882
23672SOL    HW274933   4.433   2.603   0.993  0.1086  0.1284 -0.3717
23673SOL     OW74934   9.918   7.755   2.413  0.1621 -0.0016 -0.0576
23673SOL    HW174935   9.945   7.796   2.495 -0.8837 -1.0355  0.8512
23673SOL    HW274936  10.000   7.736   2.367  0.7584  0.7473  0.6664
23674SOL     OW74937   5.720   3.180   5.113  1.7011 -0.2553  0.2246
23674SOL    HW174938   5.731   3.170   5.018  0.6278  0.0105  0.0581
23674SOL    HW274939   5.733   3.274   5.128  1.1372 -0.1738  0.2253
23675SOL     OW74940   5.429   6.844   8.768 -0.0532  0.2099  0.0331
23675SOL    HW174941   5.381   6.890   8.837 -0.7630  2.7053 -1.9604
23675SOL    HW274942   5.362   6.818   8.705  0.7225 -0.6678 -0.4432
23676SOL     OW74943   1.685   3.258   4.820  0.1667 -0.4967  0.1224
23676SOL    HW174944   1.648   3.292   4.902 -1.5673 -2.6766  0.3475
23676SOL    HW274945   1.778   3.248   4.838 -0.2245 -1.2422  2.0117
23677SOL     OW74946   8.941   1.562   1.274 -0.6360  0.1008  0.2381
23677SOL    HW174947   8.869   1.540   1.333 -1.2708 -0.8698 -0.8761
23677SOL    HW274948   8.899   1.603   1.199  0.0310  0.0359 -0.1815
23678SOL     OW74949  10.191   7.569   4.798  0.0876 -0.1679  0.4682
23678SOL    HW174950  10.117   7.596   4.743  0.5920 -0.6753 -0.4905
23678SOL    HW274951  10.258   7.542   4.735  1.1018  0.3119  1.3179
23679SOL     OW74952   3.479   2.809   3.802 -0.0274 -0.4267  0.3271
23679SOL    HW174953   3.514   2.875   3.742  1.5504 -0.3632  1.2562
23679SOL    HW274954   3.532   2.731   3.785  0.9338 -0.2047  2.0675
23680SOL     OW74955   2.040   1.008   7.904 -0.3942  0.0425  0.2500
23680SOL    HW174956   1.981   1.084   7.897  0.0042  0.7959  3.4247
23680SOL    HW274957   2.103   1.020   7.833 -0.9785  2.1183  0.0098
23681SOL     OW74958   5.697   5.362   8.389  0.5139 -0.0709  0.2461
23681SOL    HW174959   5.724   5.272   8.407  2.1646 -0.0046 -1.5477
23681SOL    HW274960   5.703   5.370   8.294  0.0962  1.8445  0.3455
23682SOL     OW74961   3.269   4.799   5.321  0.1901  0.2002 -0.4325
23682SOL    HW174962   3.313   4.867   5.270 -0.9436  2.3236  1.2737
23682SOL    HW274963   3.295   4.816   5.411 -1.9812 -0.1488  0.3007
23683SOL     OW74964   9.719   5.683   6.010  0.6514  0.5753  0.0196
23683SOL    HW174965   9.678   5.761   5.972  1.5870  0.3860 -1.4229
23683SOL    HW274966   9.789   5.718   6.065 -0.1259  0.8041  0.9064
23684SOL     OW74967   6.371   8.185   0.228 -0.1918 -0.0747 -0.3619
23684SOL    HW174968   6.322   8.158   0.151  0.3061 -2.0833 -0.0317
23684SOL    HW274969   6.316   8.161   0.302 -0.7535  2.0108 -0.0389
23685SOL     OW74970   9.519   8.051   0.219 -0.2324  0.9666 -0.4844
23685SOL    HW174971   9.577   8.082   0.288 -0.9013 -1.5661  1.3445
23685SOL    HW274972   9.443   8.016   0.265 -0.8699 -0.5136 -2.5209
23686SOL     OW74973   9.069   4.703   8.625 -0.0763  0.0389  0.2146
23686SOL    HW174974   9.066   4.610   8.650 -0.9672  0.4071  1.6655
23686SOL    HW274975   9.148   4.736   8.668  1.1229 -0.3451 -1.6040
23687SOL     OW74976   0.569   2.631   0.873 -0.6448 -0.3059  0.5189
23687SOL    HW174977   0.474   2.628   0.859 -0.3558 -2.3526 -1.6636
23687SOL    HW274978   0.602   2.680   0.797  0.1005 -0.2993  0.8462
23688SOL     OW74979   1.067   5.352   3.500 -0.0471 -0.0032 -0.0375
23688SOL    HW174980   1.080   5.361   3.406 -0.1822 -1.1359 -0.1806
23688SOL    HW274981   1.155   5.331   3.533  0.1433  1.0929  0.2023
23689SOL     OW74982   1.761   1.092   3.832 -0.2248  0.3657 -0.1000
23689SOL    HW174983   1.729   1.045   3.909  0.1752 -0.3486 -0.3653
23689SOL    HW274984   1.852   1.114   3.853 -0.3824  0.9594 -0.0119
23690SOL     OW74985   4.954   6.209   0.010  0.3423  0.2567  1.2030
23690SOL    HW174986   4.896   6.274   0.049 -1.5035 -1.2282  1.0504
23690SOL    HW274987   4.904   6.128   0.012  1.5321 -0.6168 -1.0454
23691SOL     OW74988   4.129   0.239   3.667 -0.0842  0.8977 -0.8029
23691SOL    HW174989   4.139   0.250   3.573  1.6300 -0.8100 -0.8719
23691SOL    HW274990   4.199   0.179   3.693 -0.6617  1.1012  1.5288
23692SOL     OW74991   1.655   9.362   9.875 -0.2546 -0.1835  0.2657
23692SOL    HW174992   1.713   9.303   9.827 -0.1356  0.4828 -0.4274
23692SOL    HW274993   1.655   9.328   9.964 -0.4231 -1.3944 -0.1835
23693SOL     OW74994   4.883   1.465  10.150 -0.1954 -0.0115  0.3250
23693SOL    HW174995   4.830   1.504  10.080 -1.3912 -0.5206  0.9075
23693SOL    HW274996   4.892   1.373  10.124 -1.3232 -0.3929  1.1948
23694SOL     OW74997   1.930   6.763   3.511 -0.0810 -0.5426  1.0440
23694SOL    HW174998   1.953   6.785   3.421 -1.3244 -1.8257  0.3675
23694SOL    HW274999   2.008   6.783   3.562  0.9036 -0.5286 -0.4303
23695SOL     OW75000   8.658   3.902   1.923 -0.4852  0.3442 -0.6289
23695SOL    HW175001   8.601   3.971   1.956 -1.0404  0.0845 -1.0268
23695SOL    HW275002   8.611   3.867   1.846  0.7799  0.9593 -1.7200
23696SOL     OW75003   0.145   4.377   2.706  0.4346 -0.1008 -0.0045
23696SOL    HW175004   0.216   4.365   2.642  2.0269  0.0452  1.6675
23696SOL    HW275005   0.102   4.458   2.679  0.1752 -0.7633 -1.6875
23697SOL     OW75006   0.220   2.689   5.231  0.0359 -0.2230  0.0548
23697SOL    HW175007   0.243   2.703   5.323 -2.2043  0.2170  0.6303
23697SOL    HW275008   0.301   2.661   5.189  1.3625  0.5971  1.9373
23698SOL     OW75009   9.309  10.160   4.451  0.6073  0.0197 -0.3937
23698SOL    HW175010   9.329  10.244   4.490 -0.9808  0.0925  0.3163
23698SOL    HW275011   9.390  10.109   4.460  0.6331  0.4006  2.0131
23699SOL     OW75012   7.829   9.322   0.122  0.2745  0.4749 -0.5794
23699SOL    HW175013   7.904   9.329   0.063  0.1013  0.8612 -0.7574
23699SOL    HW275014   7.772   9.395   0.097  0.9003  1.6064  1.0466
23700SOL     OW75015   3.716   5.765   4.349  0.2337  0.1233  0.0216
23700SOL    HW175016   3.707   5.852   4.310  0.2560  1.3116  2.4354
23700SOL    HW275017   3.637   5.754   4.401  0.7510 -0.7949  0.6416
23701SOL     OW75018   4.224   6.553  10.170 -0.0849 -0.4993  0.1882
23701SOL    HW175019   4.149   6.613  10.168  0.5006  0.3803  2.1169
23701SOL    HW275020   4.272   6.578  10.249 -0.4654 -4.3083  1.8343
23702SOL     OW75021   0.339   5.758   5.385  0.0572  0.7287 -0.3817
23702SOL    HW175022   0.258   5.719   5.417  1.0756 -1.1572  0.0267
23702SOL    HW275023   0.335   5.745   5.290 -0.6422  1.7560 -0.5154
23703SOL     OW75024   7.711   7.167   6.015  0.6767  0.2994  0.2622
23703SOL    HW175025   7.720   7.087   6.066 -0.3267 -1.4796 -2.1940
23703SOL    HW275026   7.629   7.206   6.045 -0.6082 -1.4390 -0.8473
23704SOL     OW75027   2.983   9.619   0.060 -0.0803  0.0063 -0.3548
23704SOL    HW175028   2.930   9.568  -0.001 -0.0857  0.6083 -0.8725
23704SOL    HW275029   2.920   9.654   0.123 -0.2130  0.1574 -0.5672
23705SOL     OW75030   8.567   2.147   5.577 -0.5526  0.2130 -0.1517
23705SOL    HW175031   8.538   2.113   5.662  1.1641 -0.0399  0.3711
23705SOL    HW275032   8.656   2.114   5.568 -0.2760  1.2657 -1.5049
23706SOL     OW75033   1.161  10.141   3.448  0.2839  0.4201 -0.2377
23706SOL    HW175034   1.161  10.156   3.353  2.2402 -2.0090 -0.7081
23706SOL    HW275035   1.070  10.119   3.468 -0.1956  1.1211 -1.4883
23707SOL     OW75036   2.253   1.613   2.115 -0.5951  0.0915 -0.1392
23707SOL    HW175037   2.266   1.531   2.067 -0.2685  0.0904 -0.0526
23707SOL    HW275038   2.298   1.679   2.062 -1.1249  0.2696 -0.3695
23708SOL     OW75039   5.545   0.142   8.306  0.0964 -0.3005  0.6414
23708SOL    HW175040   5.599   0.199   8.251  2.0909 -2.9578 -0.3824
23708SOL    HW275041   5.609   0.089   8.355 -1.4759 -3.3267 -0.3256
23709SOL     OW75042   0.853   0.561   1.401 -0.1441 -0.4409  0.3339
23709SOL    HW175043   0.826   0.473   1.377 -0.0408 -0.6838  1.1009
23709SOL    HW275044   0.831   0.569   1.494 -0.9024  0.6233  0.0805
23710SOL     OW75045   3.571   6.002   5.760  0.5700 -0.2723 -0.7402
23710SOL    HW175046   3.628   5.943   5.809 -2.0931 -1.1499  1.5898
23710SOL    HW275047   3.540   5.950   5.686  0.9545 -0.5876 -0.6851
23711SOL     OW75048   1.441   7.244   7.371  0.2592 -0.2804 -0.2180
23711SOL    HW175049   1.401   7.285   7.448 -0.0529 -1.3212  0.1859
23711SOL    HW275050   1.534   7.238   7.393  0.0088 -1.6749  0.6232
23712SOL     OW75051   5.485   4.703   8.240  0.3195  0.4354 -0.4456
23712SOL    HW175052   5.462   4.620   8.198  1.9046  0.8009 -2.1336
23712SOL    HW275053   5.505   4.680   8.331 -0.4134 -0.8162 -0.5845
23713SOL     OW75054   6.932   9.147   9.970 -0.4427  0.1158 -0.0292
23713SOL    HW175055   7.001   9.212   9.954  0.6199 -0.7509  0.9004
23713SOL    HW275056   6.935   9.091   9.892 -0.2712  0.2333 -0.1095
23714SOL     OW75057   6.846   0.745   2.777  0.1184  0.1973  0.2856
23714SOL    HW175058   6.940   0.755   2.789  0.2590  0.2079 -0.7535
23714SOL    HW275059   6.808   0.816   2.830  0.5653 -1.0358  2.3702
23715SOL     OW75060   3.426   6.688   3.945 -0.1611 -0.5373 -0.2566
23715SOL    HW175061   3.337   6.711   3.971  0.7965  0.8876  2.1842
23715SOL    HW275062   3.467   6.772   3.921  0.8856 -0.9665 -0.0465
23716SOL     OW75063   5.422   5.534   7.618  0.4719 -0.2085 -0.0620
23716SOL    HW175064   5.344   5.519   7.671  0.6743 -1.9763 -0.2050
23716SOL    HW275065   5.467   5.608   7.661 -1.8236  1.6561 -0.6633
23717SOL     OW75066   8.899   2.549   5.060  0.1008 -0.1454 -0.0340
23717SOL    HW175067   8.958   2.511   5.126  0.0912  1.3532  0.8741
23717SOL    HW275068   8.950   2.547   4.979  1.1602  0.4883  0.5913
23718SOL     OW75069   2.939   6.671   4.264  0.7365  0.3539 -0.6281
23718SOL    HW175070   2.946   6.765   4.250  0.6387  0.0703 -2.9550
23718SOL    HW275071   3.028   6.638   4.252  0.4903 -0.0250 -1.4529
23719SOL     OW75072   4.164   9.970  10.158  0.2197  0.1038  0.4070
23719SOL    HW175073   4.225  10.038  10.185  0.9389 -0.5605  0.4700
23719SOL    HW275074   4.092   9.975  10.222  1.4463 -0.8217  1.9269
23720SOL     OW75075   0.810   6.393   7.770 -0.0695  0.4274  0.1547
23720SOL    HW175076   0.786   6.486   7.777  0.5138  0.5904  0.0465
23720SOL    HW275077   0.893   6.394   7.723 -0.6094 -0.2210 -0.8278
23721SOL     OW75078   7.563   8.266   2.974 -0.0638 -0.0733  0.3703
23721SOL    HW175079   7.565   8.176   2.941  0.3357 -0.5787  1.7240
23721SOL    HW275080   7.641   8.273   3.030 -0.5612  0.8445  0.9760
23722SOL     OW75081   7.356   1.244   7.853 -0.6474  0.5570 -0.5411
23722SOL    HW175082   7.279   1.278   7.898  0.1249  1.1515  0.3728
23722SOL    HW275083   7.324   1.217   7.767 -1.8314  0.9699 -0.2455
23723SOL     OW75084   3.661   9.567   9.731 -0.1840 -0.4279  0.2928
23723SOL    HW175085   3.617   9.649   9.708 -0.2587 -0.0831  1.5465
23723SOL    HW275086   3.613   9.499   9.683  0.3348  0.3086 -1.3425
23724SOL     OW75087   4.773   4.595   4.086  0.2005  0.6204 -0.1442
23724SOL    HW175088   4.853   4.644   4.105  2.2714 -1.7871 -1.9026
23724SOL    HW275089   4.770   4.592   3.990 -0.7903 -1.1406 -0.1011
23725SOL     OW75090   7.632   3.583   4.114 -0.0234 -0.7087 -0.2149
23725SOL    HW175091   7.666   3.582   4.203 -2.1267  0.0634  0.6634
23725SOL    HW275092   7.537   3.589   4.124 -0.3019 -0.1036 -2.5022
23726SOL     OW75093   6.301   4.457   2.434 -0.2062  0.3676 -0.2354
23726SOL    HW175094   6.386   4.421   2.460 -0.2030  0.2501 -0.4082
23726SOL    HW275095   6.240   4.423   2.500 -0.1289  0.4074 -0.1424
23727SOL     OW75096   5.343   4.192   1.534 -0.0199 -0.4470  0.7605
23727SOL    HW175097   5.301   4.203   1.448  2.1549 -0.0447 -0.3247
23727SOL    HW275098   5.298   4.256   1.590 -0.3956  0.4670 -0.5103
23728SOL     OW75099   2.424   6.047   3.183 -0.5562  0.8933  0.6598
23728SOL    HW175100   2.363   6.068   3.253 -0.4343 -0.9847  1.3638
23728SOL    HW275101   2.506   6.027   3.228 -0.0672  1.0865 -0.1256
23729SOL     OW75102   8.204   0.503   4.313 -0.0154  0.2162  0.1467
23729SOL    HW175103   8.204   0.544   4.400 -0.7267  0.4102  0.0609
23729SOL    HW275104   8.295   0.508   4.284  0.3974 -0.5897  1.2235
23730SOL     OW75105   4.710   8.427   5.659  0.2564 -0.0038 -0.3045
23730SOL    HW175106   4.629   8.461   5.622 -0.6190 -1.2317  0.3733
23730SOL    HW275107   4.698   8.332   5.657  2.0738 -0.2500 -1.0237
23731SOL     OW75108   7.942  10.199   3.007  0.4254  0.6509 -0.1975
23731SOL    HW175109   7.868  10.200   2.945  0.2830 -1.0100 -0.0926
23731SOL    HW275110   8.019  10.210   2.951  0.2118  0.5234 -0.5270
23732SOL     OW75111   7.175   8.052   6.689  0.3178  0.1673 -0.4981
23732SOL    HW175112   7.122   8.127   6.715  0.1666  0.1470 -0.7481
23732SOL    HW275113   7.175   8.055   6.593 -1.1859 -1.1716 -0.5873
23733SOL     OW75114   6.647   9.500   6.991  0.0021 -0.0150 -0.5780
23733SOL    HW175115   6.714   9.568   6.989 -0.4067  0.4112 -0.0536
23733SOL    HW275116   6.605   9.511   7.076  0.6234 -1.5916 -0.0295
23734SOL     OW75117   1.664   9.606   4.382 -0.2237 -0.1791  0.1126
23734SOL    HW175118   1.613   9.567   4.312 -0.2061 -1.8257  0.9611
23734SOL    HW275119   1.650   9.548   4.457  3.0035 -0.8510  0.3630
23735SOL     OW75120   1.388   1.444   2.923  0.2603  0.0366 -0.1481
23735SOL    HW175121   1.445   1.473   2.994 -1.5736 -1.4561  2.0872
23735SOL    HW275122   1.370   1.352   2.943 -3.3499  0.5677 -0.3087
23736SOL     OW75123   3.081   4.219   3.815 -0.0942 -0.1395 -0.1040
23736SOL    HW175124   3.047   4.292   3.867 -0.8871  0.5320 -1.4952
23736SOL    HW275125   3.042   4.141   3.854 -0.0601  0.2789  0.7735
23737SOL     OW75126  10.147   4.100   8.159  0.0322  0.0717  0.2780
23737SOL    HW175127  10.058   4.068   8.175  0.2131 -0.4350  0.2784
23737SOL    HW275128  10.171   4.062   8.075 -0.4140  1.6575 -0.6075
23738SOL     OW75129   1.816   9.597   7.247  0.0670 -0.0225 -0.3407
23738SOL    HW175130   1.890   9.604   7.186  0.3739 -0.1817  0.0126
23738SOL    HW275131   1.826   9.511   7.287  0.7546  0.6837  1.0644
23739SOL     OW75132   3.066   7.865   1.368  0.3308 -0.6138  0.1187
23739SOL    HW175133   3.127   7.795   1.344  1.5415 -0.0020  1.2663
23739SOL    HW275134   3.044   7.907   1.285  0.7953 -1.3966 -0.4159
23740SOL     OW75135   8.030   5.350   8.365 -0.2366  0.5990  0.6233
23740SOL    HW175136   8.111   5.346   8.417 -1.0358  0.5510  1.9216
23740SOL    HW275137   7.968   5.395   8.422 -1.2733  0.1820 -0.1516
23741SOL     OW75138   5.432   5.193   1.457 -0.2519 -0.2884 -0.4393
23741SOL    HW175139   5.518   5.150   1.463 -0.1979 -0.8803 -3.8229
23741SOL    HW275140   5.371   5.128   1.492  0.5408  0.0319  1.7496
23742SOL     OW75141   2.730   3.100   5.996 -0.7594  0.4610  0.1310
23742SOL    HW175142   2.744   3.165   6.065 -2.9821 -0.1999  1.3124
23742SOL    HW275143   2.809   3.046   5.997  0.2769  1.9369  0.4833
23743SOL     OW75144   5.787   0.160   7.749  0.1741 -0.2111 -0.1306
23743SOL    HW175145   5.764   0.251   7.765 -0.9802 -0.3869 -0.6456
23743SOL    HW275146   5.764   0.146   7.657  2.9075 -0.2831 -0.8770
23744SOL     OW75147   5.232   9.783   4.831  0.7237 -0.6971  0.4360
23744SOL    HW175148   5.257   9.874   4.820  2.0099 -1.2307 -1.4168
23744SOL    HW275149   5.159   9.786   4.893  0.3629  1.6163 -0.0157
23745SOL     OW75150   9.247   8.884   2.986 -0.8307 -0.1279  0.4061
23745SOL    HW175151   9.293   8.828   3.049  0.0049 -0.4060 -0.4292
23745SOL    HW275152   9.198   8.823   2.931  0.7662 -0.1682 -1.0600
23746SOL     OW75153   9.378   3.523   0.537  0.3287 -0.3766  0.1681
23746SOL    HW175154   9.374   3.606   0.490 -1.6583 -0.2609  0.4673
23746SOL    HW275155   9.328   3.538   0.617  0.0699 -1.8189  0.3111
23747SOL     OW75156   7.472   6.280   3.159  0.2894  0.0253  0.1923
23747SOL    HW175157   7.461   6.338   3.234  1.4188  1.5989 -0.7887
23747SOL    HW275158   7.531   6.211   3.190  0.3679  0.3979  0.8848
23748SOL     OW75159   6.267  10.202   5.437 -0.1369  0.0033 -0.2740
23748SOL    HW175160   6.294  10.285   5.397 -1.0067 -0.1267 -1.1507
23748SOL    HW275161   6.286  10.136   5.371  1.4842 -0.6520  0.7963
23749SOL     OW75162   6.984   3.554   6.125 -0.1074 -0.3137  0.0234
23749SOL    HW175163   7.043   3.565   6.199 -0.3235 -1.3496  0.3508
23749SOL    HW275164   6.989   3.638   6.079  0.4490  0.1439  0.8913
23750SOL     OW75165   7.242   3.317   8.729  0.6402 -0.3878  0.1789
23750SOL    HW175166   7.160   3.292   8.687  0.5602  0.1195  0.0321
23750SOL    HW275167   7.224   3.311   8.822 -0.1071  1.3819  0.1932
23751SOL     OW75168   0.894   6.353   6.647  0.2532  0.0756  0.4551
23751SOL    HW175169   0.921   6.374   6.558  1.7050  2.2088  1.3236
23751SOL    HW275170   0.958   6.290   6.678 -0.7305 -1.3226 -0.2137
23752SOL     OW75171   1.099   6.563   2.490 -0.3031 -0.2494  0.1100
23752SOL    HW175172   1.078   6.473   2.515  2.0940 -0.6545  0.9545
23752SOL    HW275173   1.191   6.558   2.462  0.4912  2.2474  2.0016
23753SOL     OW75174   3.565   6.707   8.436  0.3459  0.3336 -0.2074
23753SOL    HW175175   3.649   6.666   8.457  0.8417  1.2738 -0.3331
23753SOL    HW275176   3.528   6.651   8.368  1.1808  0.2855 -0.6394
23754SOL     OW75177   4.011   3.948   5.478  0.0782 -0.1290  0.1763
23754SOL    HW175178   4.053   4.013   5.421  0.7686 -0.1103  0.6867
23754SOL    HW275179   3.947   3.904   5.422 -1.4069  1.9044  0.1489
23755SOL     OW75180   0.467   9.820   1.979 -0.0409  0.1119  0.5172
23755SOL    HW175181   0.467   9.733   1.938  0.2553  0.4297 -0.1846
23755SOL    HW275182   0.558   9.848   1.974  0.0002  0.1719  1.3991
23756SOL     OW75183   7.405   7.145   3.721  0.8986  0.2853  0.3879
23756SOL    HW175184   7.364   7.174   3.802  2.4364 -0.1005  1.3512
23756SOL    HW275185   7.498   7.168   3.731  1.2014 -0.1549 -1.0795
23757SOL     OW75186   7.393   5.996   2.524 -0.2495 -0.8653 -0.4324
23757SOL    HW175187   7.317   5.950   2.559 -0.4986  0.1894  0.4783
23757SOL    HW275188   7.468   5.955   2.568 -0.5368  0.2114  1.1419
23758SOL     OW75189   7.332   2.983   8.896 -0.2223 -0.3218  0.0895
23758SOL    HW175190   7.266   2.921   8.927 -1.4095  0.2498 -1.1889
23758SOL    HW275191   7.308   3.066   8.937  1.8821 -0.7913  2.5150
23759SOL     OW75192   7.955   8.728   0.586  0.0143 -0.4498  0.3979
23759SOL    HW175193   7.868   8.763   0.563  0.3446 -1.2433 -2.5035
23759SOL    HW275194   7.938   8.637   0.610  0.0798 -0.8233 -0.9045
23760SOL     OW75195   9.511   0.209   1.720  0.5075 -0.2081 -0.8986
23760SOL    HW175196   9.527   0.163   1.638  1.8317 -0.0475 -0.7624
23760SOL    HW275197   9.541   0.147   1.787  2.4374  0.8471 -0.7170
23761SOL     OW75198   8.284   3.131   2.924  0.1732  0.7509  0.3048
23761SOL    HW175199   8.338   3.058   2.954 -0.4465 -0.2397 -0.8755
23761SOL    HW275200   8.290   3.196   2.993  0.1948 -0.7075  1.7319
23762SOL     OW75201   4.550   8.001   1.744 -0.1108 -0.6073 -0.5346
23762SOL    HW175202   4.526   8.023   1.834 -0.3081  1.9442 -1.1296
23762SOL    HW275203   4.587   7.912   1.750  1.1350 -0.0204  2.2860
23763SOL     OW75204  10.063   1.838   6.929  0.0723 -0.2897  0.2110
23763SOL    HW175205  10.121   1.767   6.903  0.7689 -0.0541  1.0667
23763SOL    HW275206  10.003   1.798   6.991 -0.0874 -0.3239  0.0352
23764SOL     OW75207   3.324   5.545   2.366 -0.6984 -0.1528 -0.2789
23764SOL    HW175208   3.277   5.481   2.313 -2.3990 -0.5250  1.5569
23764SOL    HW275209   3.323   5.508   2.455  0.6918  1.1507  0.3311
23765SOL     OW75210   9.833   1.409   5.419  0.3709 -0.9259  0.0400
23765SOL    HW175211   9.837   1.486   5.363  2.4161 -2.3536 -1.9255
23765SOL    HW275212   9.868   1.438   5.503 -0.8193  0.7449 -0.0022
23766SOL     OW75213   0.962   3.408   8.567 -0.4511 -0.7018 -0.3219
23766SOL    HW175214   0.892   3.365   8.615 -0.3507 -1.2463 -0.6484
23766SOL    HW275215   0.938   3.398   8.475 -2.4236  3.3107 -0.4537
23767SOL     OW75216   3.759   3.923   1.708 -0.3307 -0.9194  0.3130
23767SOL    HW175217   3.802   3.971   1.637 -2.0803 -1.0861 -0.9173
23767SOL    HW275218   3.760   3.831   1.680 -1.0159 -0.9934  0.5104
23768SOL     OW75219   0.617   0.700   1.317 -0.4581  0.4121  0.8878
23768SOL    HW175220   0.559   0.625   1.332  0.1091 -0.5089 -1.1946
23768SOL    HW275221   0.704   0.668   1.341 -0.5077  1.1407  2.0856
23769SOL     OW75222   0.156   1.187   0.794  0.2360 -0.2933  0.3517
23769SOL    HW175223   0.125   1.155   0.709  0.0089 -0.2373  0.4122
23769SOL    HW275224   0.241   1.226   0.776  0.3343 -0.5711  0.2062
23770SOL     OW75225   9.518   2.031   4.223 -0.9082 -0.7838  0.0936
23770SOL    HW175226   9.488   2.086   4.151  1.6160 -0.5114 -0.8343
23770SOL    HW275227   9.530   1.944   4.185 -0.2514 -0.8135  0.3491
23771SOL     OW75228   0.852   6.062   0.117  0.1948  0.3684 -0.1205
23771SOL    HW175229   0.815   6.106   0.194 -0.1957  1.8238 -1.1100
23771SOL    HW275230   0.933   6.023   0.149  0.1677  1.1576  0.9840
23772SOL     OW75231   9.471   6.048   4.095  0.5980  0.0891  0.5941
23772SOL    HW175232   9.524   6.107   4.041  0.4012 -0.8362 -0.6678
23772SOL    HW275233   9.491   6.073   4.185 -0.5302  3.0071  0.1366
23773SOL     OW75234   2.299   4.657   6.065 -0.3688  0.2976  0.6653
23773SOL    HW175235   2.320   4.565   6.049 -1.6344  0.1373 -0.2392
23773SOL    HW275236   2.227   4.676   6.004  1.3554  2.5234 -0.8339
23774SOL     OW75237   5.019   9.126   8.497 -0.6250  0.1285  1.0566
23774SOL    HW175238   5.028   9.072   8.419  1.2462 -0.4278  1.5915
23774SOL    HW275239   5.027   9.216   8.466  2.3644 -0.1230  0.7458
23775SOL     OW75240   3.655   3.001   8.293  0.0887  0.3448  0.0310
23775SOL    HW175241   3.705   2.963   8.365  0.8704  2.1649  0.4841
23775SOL    HW275242   3.602   2.928   8.261  1.2270 -1.0238  1.1086
23776SOL     OW75243   5.062   2.565   8.632 -0.0746  0.0562 -0.2720
23776SOL    HW175244   4.992   2.522   8.585 -0.2771 -0.2646  0.3094
23776SOL    HW275245   5.054   2.533   8.722 -1.4765  2.7846  0.6764
23777SOL     OW75246   1.415   0.522   7.234  0.3464 -0.0923  0.4047
23777SOL    HW175247   1.410   0.516   7.138 -0.0869 -2.0007  0.5056
23777SOL    HW275248   1.502   0.558   7.251  0.4385  0.2549 -0.7023
23778SOL     OW75249   4.124   6.173   2.653 -0.1515 -0.5525  0.2075
23778SOL    HW175250   4.151   6.164   2.562 -1.1038 -4.4429  0.1434
23778SOL    HW275251   4.070   6.253   2.655  1.9233  1.0383 -1.9820
23779SOL     OW75252   1.199   0.813   4.654 -0.0261  0.4597  0.0221
23779SOL    HW175253   1.255   0.890   4.659  1.3031 -0.5542  2.0572
23779SOL    HW275254   1.259   0.739   4.658 -1.3859 -0.6731  0.2116
23780SOL     OW75255   9.487   8.284   5.175  0.6033  0.4104  0.4057
23780SOL    HW175256   9.565   8.338   5.177  0.8601  0.0464  2.5154
23780SOL    HW275257   9.417   8.343   5.149  1.2688  1.1929  0.3606
23781SOL     OW75258   9.057   0.261   6.337 -0.3060 -0.0303 -0.4114
23781SOL    HW175259   9.011   0.337   6.301  2.0428  1.9167  0.4584
23781SOL    HW275260   9.134   0.251   6.281  0.5674 -0.3817  0.8245
23782SOL     OW75261   3.877   7.430   9.751 -0.7796 -0.4163  0.0126
23782SOL    HW175262   3.876   7.347   9.798 -1.8597 -0.7411 -0.5489
23782SOL    HW275263   3.842   7.494   9.812  0.6410 -0.2231  0.6663
23783SOL     OW75264   3.921   5.809   3.536 -0.5409  0.0229  0.1683
23783SOL    HW175265   3.942   5.762   3.617  0.0488 -0.1807 -0.0996
23783SOL    HW275266   3.966   5.760   3.467 -0.7733  0.3828 -0.2424
23784SOL     OW75267   3.551   0.709   6.812 -0.2747 -0.1815  0.3543
23784SOL    HW175268   3.551   0.625   6.766  0.2902  0.6183 -1.1779
23784SOL    HW275269   3.639   0.717   6.848 -0.7185 -0.8094  1.6107
23785SOL     OW75270   8.444   1.175   7.336 -0.2818 -0.9281 -0.1302
23785SOL    HW175271   8.457   1.132   7.252 -0.7606 -0.1851 -0.5881
23785SOL    HW275272   8.512   1.242   7.340  0.4074 -1.6353  0.5467
23786SOL     OW75273   5.644   5.977   8.404  0.1636  0.2375 -0.3942
23786SOL    HW175274   5.700   6.015   8.336  1.3421 -1.7119 -0.5994
23786SOL    HW275275   5.701   5.969   8.480 -0.3032 -0.2814 -0.0898
23787SOL     OW75276   9.708  10.105   6.266  0.1331 -0.3952  0.4435
23787SOL    HW175277   9.650  10.141   6.333  1.3242  0.4170  1.0836
23787SOL    HW275278   9.651  10.089   6.191 -0.9005  0.4249  1.0239
23788SOL     OW75279   3.513   3.951   7.979 -0.1640  0.2385  0.3257
23788SOL    HW175280   3.576   3.882   7.959 -1.1487 -0.7262  0.4528
23788SOL    HW275281   3.525   4.016   7.910  0.8468 -0.0160  0.2556
23789SOL     OW75282   9.317   8.419   2.311 -0.0732 -0.4535 -0.8222
23789SOL    HW175283   9.370   8.475   2.255 -0.9702  0.1397 -1.1067
23789SOL    HW275284   9.230   8.419   2.270 -1.3772  1.6917  1.6062
23790SOL     OW75285   5.396   5.557   4.956 -0.4813  0.0026  0.4481
23790SOL    HW175286   5.466   5.525   5.013 -1.4923  0.0272  1.7664
23790SOL    HW275287   5.408   5.652   4.954 -0.4671  0.0082  0.6856
23791SOL     OW75288   0.718   6.163   7.576  0.9763 -0.4591  0.2797
23791SOL    HW175289   0.682   6.176   7.488 -0.7469 -1.3060  0.8102
23791SOL    HW275290   0.724   6.251   7.613 -0.3589 -0.2510  0.0543
23792SOL     OW75291   4.787   6.603   0.928  0.3368 -0.8459 -0.2186
23792SOL    HW175292   4.711   6.556   0.895 -0.4271 -0.1756  0.5425
23792SOL    HW275293   4.751   6.666   0.991  1.2279  1.3192 -1.7704
23793SOL     OW75294   3.559   4.244   8.172 -0.0653  0.3366 -0.1183
23793SOL    HW175295   3.628   4.309   8.161  0.8841 -0.8242 -1.4969
23793SOL    HW275296   3.599   4.162   8.143 -2.2861 -0.2332 -1.9037
23794SOL     OW75297   9.298   1.104   6.063  0.4112 -0.5609 -0.1101
23794SOL    HW175298   9.352   1.173   6.022 -1.0436  0.0509 -1.1070
23794SOL    HW275299   9.312   1.115   6.157  1.6493 -0.1189 -0.3262
23795SOL     OW75300   7.281   1.335   0.300  0.2630 -0.4858  0.0454
23795SOL    HW175301   7.302   1.366   0.212  0.8287  0.5484  0.5205
23795SOL    HW275302   7.208   1.275   0.287 -0.3554  0.4394 -1.0350
23796SOL     OW75303   3.759   1.775   4.329 -0.5945  0.3558 -0.1596
23796SOL    HW175304   3.695   1.718   4.372  0.3624 -0.5430  0.1102
23796SOL    HW275305   3.789   1.724   4.253  0.6160  0.2632  0.3465
23797SOL     OW75306   9.965   5.619   5.771  0.4299 -0.9838 -0.3216
23797SOL    HW175307   9.878   5.649   5.745  0.2074 -1.9402 -0.7124
23797SOL    HW275308   9.962   5.619   5.867  0.4816  0.3151 -0.2909
23798SOL     OW75309   8.085   0.118   1.432  0.3559  0.4418  0.1155
23798SOL    HW175310   8.134   0.050   1.387  0.2911 -1.1471  2.3166
23798SOL    HW275311   8.027   0.154   1.365  1.3517 -0.7138 -1.4330
23799SOL     OW75312   2.125   9.576   0.037 -0.2838  0.3896 -0.3732
23799SOL    HW175313   2.178   9.515   0.088  1.8361  2.2184 -0.2954
23799SOL    HW275314   2.087   9.635   0.101  0.9837  1.6312 -0.7342
23800SOL     OW75315   5.937   0.849   2.910  0.9801  0.3395 -0.2629
23800SOL    HW175316   6.007   0.889   2.960  1.1582  2.0233 -1.7631
23800SOL    HW275317   5.921   0.765   2.953  3.5828  0.1091  0.4029
23801SOL     OW75318   0.342   1.955   5.431 -0.2655 -0.6460  0.3797
23801SOL    HW175319   0.269   1.958   5.370 -1.7012  2.4486  2.0177
23801SOL    HW275320   0.405   2.018   5.396  0.2036 -0.9683  0.6339
23802SOL     OW75321   4.915   9.183   8.742 -0.3223 -0.2236  0.1861
23802SOL    HW175322   4.966   9.150   8.667  0.5528  0.2779  0.5414
23802SOL    HW275323   4.963   9.261   8.771 -0.6077 -0.4448  1.3061
23803SOL     OW75324   6.257   9.481   6.968 -0.3027 -0.5137 -0.9080
23803SOL    HW175325   6.285   9.470   7.059 -0.1792  0.5774 -0.7942
23803SOL    HW275326   6.272   9.396   6.928 -3.1704 -1.9845  0.8042
23804SOL     OW75327   7.516   8.888   9.977 -0.6463 -0.0962 -0.2274
23804SOL    HW175328   7.458   8.858   9.907  0.3118 -0.6905 -0.7814
23804SOL    HW275329   7.517   8.816  10.040  1.8808 -1.4563 -1.6940
23805SOL     OW75330  10.003  10.140   4.334 -0.1568 -0.0891  0.2552
23805SOL    HW175331   9.918  10.183   4.324 -0.8388 -1.0935  1.4969
23805SOL    HW275332   9.996  10.060   4.282 -0.3290 -0.6340  1.0904
23806SOL     OW75333   4.729   0.126   5.015  0.3132  0.1696 -0.0436
23806SOL    HW175334   4.698   0.129   5.106  2.0213  2.2769  0.5683
23806SOL    HW275335   4.789   0.052   5.012 -0.5563 -0.5590  0.2365
23807SOL     OW75336   1.831   4.205   0.314 -0.3795  0.1975  0.0492
23807SOL    HW175337   1.893   4.158   0.259  1.0223  1.6743  0.2960
23807SOL    HW275338   1.745   4.176   0.284  0.3939 -0.9835 -1.1233
23808SOL     OW75339   7.155   4.663   6.591  0.1532 -0.3011 -0.0581
23808SOL    HW175340   7.097   4.658   6.667 -0.1523  0.5407 -0.2261
23808SOL    HW275341   7.171   4.572   6.567 -2.5308 -0.5948 -1.0999
23809SOL     OW75342   5.979   6.202   3.370 -0.6734  0.5469  0.1735
23809SOL    HW175343   5.991   6.110   3.346  0.6970  0.7333  0.0331
23809SOL    HW275344   5.901   6.202   3.425 -2.0529 -0.3441 -1.6960
23810SOL     OW75345   9.498   3.899   5.293 -0.7121 -0.0482 -0.0590
23810SOL    HW175346   9.453   3.923   5.374 -0.7439 -0.0127 -0.0870
23810SOL    HW275347   9.545   3.819   5.315  0.3390  0.6563  0.3870
23811SOL     OW75348   9.513   9.718   0.848  0.5695 -0.1206  0.3678
23811SOL    HW175349   9.533   9.766   0.928 -1.0391 -0.4507  1.0041
23811SOL    HW275350   9.495   9.628   0.877  1.2856 -0.5801 -0.5375
23812SOL     OW75351   3.034   7.581   5.734  0.1546  0.1379  0.0575
23812SOL    HW175352   3.044   7.496   5.690 -0.0680 -0.5587  1.2969
23812SOL    HW275353   2.964   7.625   5.686  0.6174 -0.1624 -0.9133
23813SOL     OW75354   6.294   5.735   2.669  0.1966  0.6763 -0.3470
23813SOL    HW175355   6.241   5.724   2.590 -1.5959 -0.8351  0.9763
23813SOL    HW275356   6.363   5.669   2.660 -0.1803  0.3017 -0.5172
23814SOL     OW75357   3.513   2.460   4.339 -1.1108 -0.3710 -0.4997
23814SOL    HW175358   3.578   2.524   4.309  0.8391 -2.1787 -0.3209
23814SOL    HW275359   3.455   2.448   4.263  0.3670 -0.6816 -1.6221
23815SOL     OW75360   6.221   2.535   0.924  0.1056 -0.2718 -0.0008
23815SOL    HW175361   6.305   2.556   0.884  1.8921 -2.4255  2.3500
23815SOL    HW275362   6.175   2.484   0.858  2.5186 -2.8131  0.1226
23816SOL     OW75363   3.672   6.226   9.033 -0.1106  0.4462 -0.4080
23816SOL    HW175364   3.649   6.189   8.947 -2.0928 -0.3141  0.3793
23816SOL    HW275365   3.726   6.302   9.012 -1.1414  0.7247 -2.3913
23817SOL     OW75366   0.147   2.713   1.754  0.0274  0.1101  0.4393
23817SOL    HW175367   0.078   2.749   1.810 -0.3435 -2.1334  1.5314
23817SOL    HW275368   0.228   2.730   1.802 -0.0760  0.1011  0.6180
23818SOL     OW75369   1.369   9.711   8.789 -0.2708 -0.2429 -0.1947
23818SOL    HW175370   1.352   9.726   8.696  0.1951  1.4765 -0.0340
23818SOL    HW275371   1.428   9.636   8.791 -0.9148 -0.7967 -1.2342
23819SOL     OW75372   2.807   7.031   9.802  0.1587  0.4894  0.0003
23819SOL    HW175373   2.729   7.086   9.813 -0.1945  0.4627 -1.9560
23819SOL    HW275374   2.864   7.082   9.746  0.6511 -0.3580 -0.2853
23820SOL     OW75375   0.255   0.505   8.272 -0.0188 -0.1973 -0.4507
23820SOL    HW175376   0.270   0.417   8.308 -1.3217 -0.5404 -0.6776
23820SOL    HW275377   0.221   0.489   8.184 -2.0920  0.4381  0.1736
23821SOL     OW75378   6.676   8.779   3.987 -0.2927 -0.0335  0.2552
23821SOL    HW175379   6.582   8.800   3.984 -0.0170  1.6123  1.7233
23821SOL    HW275380   6.712   8.819   3.907 -0.3514  2.3566  1.3268
23822SOL     OW75381   5.913   6.143   4.702  0.2730  1.0468 -0.5272
23822SOL    HW175382   5.904   6.093   4.621  0.0273  1.8026 -0.9798
23822SOL    HW275383   5.946   6.080   4.765 -1.2771 -0.0402 -0.7251
23823SOL     OW75384   9.407   9.278   5.069  0.1214  0.1916 -0.0059
23823SOL    HW175385   9.451   9.332   5.134 -2.8062  0.5890  1.8110
23823SOL    HW275386   9.470   9.209   5.048  2.3586  1.8851  0.7512
23824SOL     OW75387   4.301   0.596   7.989 -0.6477  0.1586  0.3384
23824SOL    HW175388   4.274   0.688   7.985 -0.9185  0.0522 -0.4434
23824SOL    HW275389   4.350   0.590   8.071  2.2505  1.7905 -1.1222
23825SOL     OW75390   6.373   3.879   0.457 -0.0848  0.1953  0.3369
23825SOL    HW175391   6.299   3.927   0.420  0.6835  0.6318 -0.7170
23825SOL    HW275392   6.441   3.886   0.389  1.0950  0.2797  1.4899
23826SOL     OW75393   4.200   4.761   1.412 -0.1026  0.0733  0.2916
23826SOL    HW175394   4.252   4.685   1.438  0.4179  0.3476  0.0861
23826SOL    HW275395   4.109   4.736   1.429  0.0319 -0.7347 -0.1384
23827SOL     OW75396   7.207   1.092   7.346 -0.4218  0.0386 -0.8496
23827SOL    HW175397   7.262   1.016   7.364 -1.2532 -0.4772 -0.4387
23827SOL    HW275398   7.234   1.120   7.258  1.1728  0.4079 -0.2741
23828SOL     OW75399   5.481   8.223   4.835  0.1141  0.0079  0.2426
23828SOL    HW175400   5.540   8.197   4.765  1.4353 -1.3431  1.7868
23828SOL    HW275401   5.537   8.271   4.896 -1.0697  1.3978  0.2971
23829SOL     OW75402   7.778   5.471   4.102 -0.2769  0.3897 -0.0136
23829SOL    HW175403   7.871   5.458   4.087  0.0200  1.4475  0.7990
23829SOL    HW275404   7.768   5.566   4.109 -1.1667  0.2216  1.3686
23830SOL     OW75405   9.813   1.218   8.197  0.3900  0.1753  0.1136
23830SOL    HW175406   9.903   1.225   8.166  0.0681  1.6502 -0.5281
23830SOL    HW275407   9.764   1.185   8.122  0.2071  0.3693  0.1491
23831SOL     OW75408   1.064   0.095   9.458  0.4299 -0.1567  0.7550
23831SOL    HW175409   0.993   0.035   9.434 -0.2380  0.9274 -0.1148
23831SOL    HW275410   1.062   0.161   9.389  2.5144 -0.2709  0.5408
23832SOL     OW75411   5.083   7.111   1.394  0.5319  0.4758  0.3658
23832SOL    HW175412   5.061   7.158   1.314  0.8664 -0.5257 -0.3332
23832SOL    HW275413   5.129   7.032   1.364  3.2134  1.4303  1.6607
23833SOL     OW75414   9.542  10.014   2.940  0.2894  0.0805  0.5200
23833SOL    HW175415   9.468   9.972   2.984  0.6291 -1.4193 -0.2680
23833SOL    HW275416   9.602  10.038   3.010 -0.4130  0.2535  1.0736
23834SOL     OW75417   6.485   6.053   0.218 -0.1114 -0.5213  0.4365
23834SOL    HW175418   6.402   6.083   0.181  0.3390  0.2960  0.0409
23834SOL    HW275419   6.546   6.055   0.143  0.3755 -0.6291  0.8254
23835SOL     OW75420   9.299   4.595   2.020 -1.4144 -0.0366 -0.1344
23835SOL    HW175421   9.244   4.644   1.958 -1.5864 -1.0817 -0.8303
23835SOL    HW275422   9.373   4.565   1.967  0.0552  1.6454  0.8691
23836SOL     OW75423   0.268   7.478   4.316 -0.4577  0.2773 -0.4102
23836SOL    HW175424   0.256   7.399   4.368 -3.6035  1.3288  0.6477
23836SOL    HW275425   0.296   7.446   4.230  1.8188 -1.6813  0.9341
23837SOL     OW75426   7.591   2.737   8.084  0.3861  0.3708 -0.4373
23837SOL    HW175427   7.631   2.814   8.124  1.4502  0.4471 -1.5836
23837SOL    HW275428   7.513   2.721   8.137 -0.1154  2.4878 -0.4279
23838SOL     OW75429   9.695   9.096   9.785 -0.7763  0.5841  0.1642
23838SOL    HW175430   9.623   9.159   9.783 -1.1046  0.2066 -0.0944
23838SOL    HW275431   9.667   9.026   9.726  0.3465  1.0128 -0.9181
23839SOL     OW75432   3.501   9.586   6.875  0.4500 -0.3805 -0.1143
23839SOL    HW175433   3.435   9.635   6.924  1.3935  0.6292  0.1955
23839SOL    HW275434   3.561   9.553   6.942  2.0286  1.4305 -0.5319
23840SOL     OW75435   1.090   6.327   4.629  0.1454 -0.3955 -0.0549
23840SOL    HW175436   1.011   6.379   4.614  0.0394 -1.1010 -2.2928
23840SOL    HW275437   1.076   6.246   4.579  0.9042 -2.0180  2.1892
23841SOL     OW75438   3.362   5.293   9.071 -0.0185  0.2463 -0.2959
23841SOL    HW175439   3.444   5.285   9.120 -0.4457 -1.1924  0.2387
23841SOL    HW275440   3.375   5.238   8.994 -0.5696 -0.2116 -0.0669
23842SOL     OW75441   8.994   2.802   1.644  0.1511 -0.2328  0.5278
23842SOL    HW175442   8.964   2.865   1.709 -2.0907 -1.2437  0.5582
23842SOL    HW275443   9.063   2.752   1.688  1.8306  1.9673  0.5691
23843SOL     OW75444  10.008   7.030   7.444  0.1798  0.0584  0.0272
23843SOL    HW175445  10.028   6.937   7.451  2.4181  0.4766 -0.1646
23843SOL    HW275446  10.037   7.067   7.528 -0.2928  0.6723 -0.0684
23844SOL     OW75447   8.245   5.887   9.197  0.7537  0.4571  0.1978
23844SOL    HW175448   8.236   5.833   9.276 -2.4453  1.1951  0.4931
23844SOL    HW275449   8.161   5.877   9.152  1.3634  2.4560 -1.5488
23845SOL     OW75450   0.054   5.553   1.299 -0.2387  0.4247 -0.6498
23845SOL    HW175451   0.143   5.520   1.299  0.3089  1.8122 -0.9639
23845SOL    HW275452   0.017   5.526   1.215 -0.0964 -0.1009 -0.5427
23846SOL     OW75453   2.015   0.564   7.216  0.3366 -0.0394 -0.0160
23846SOL    HW175454   2.086   0.579   7.154  1.0194 -0.2404  0.6932
23846SOL    HW275455   1.944   0.527   7.164  0.9576 -0.3622 -0.6436
23847SOL     OW75456   7.661   1.308   2.015 -0.3753  0.0149 -0.1781
23847SOL    HW175457   7.670   1.335   1.923 -0.3908 -2.0967 -0.8505
23847SOL    HW275458   7.719   1.233   2.024 -1.8729 -1.0656  0.9867
23848SOL     OW75459   8.710   0.647   6.232 -0.7319  0.0950  0.2227
23848SOL    HW175460   8.629   0.629   6.279 -1.3458  2.8686  0.4358
23848SOL    HW275461   8.682   0.691   6.152  0.5215  0.2100 -0.1767
23849SOL     OW75462   5.202   4.358   3.128  0.6962 -0.8287 -0.1562
23849SOL    HW175463   5.281   4.399   3.164  0.1610  0.8431 -0.7511
23849SOL    HW275464   5.164   4.310   3.201  1.1228  0.1558  0.7525
23850SOL     OW75465   4.244   2.440   5.648 -0.4960  0.0147 -0.2204
23850SOL    HW175466   4.152   2.420   5.661 -0.7665  0.0674 -1.9220
23850SOL    HW275467   4.269   2.393   5.569  0.7861  0.4634 -0.1127
23851SOL     OW75468   4.874   1.930   1.759  0.2597 -0.5284  0.1513
23851SOL    HW175469   4.810   1.997   1.782  0.3384 -0.4068  0.0188
23851SOL    HW275470   4.836   1.886   1.682 -0.0761 -1.0351  0.5968
23852SOL     OW75471   5.600   8.689   7.215 -0.2181  0.0810  0.0359
23852SOL    HW175472   5.567   8.629   7.282  0.8415 -1.3961 -0.7091
23852SOL    HW275473   5.558   8.660   7.134  1.7960 -0.9715 -0.6879
23853SOL     OW75474   8.023   2.166   9.915 -0.1542 -0.2169 -0.5114
23853SOL    HW175475   7.992   2.131   9.832  1.9507 -1.6305 -0.7769
23853SOL    HW275476   8.118   2.170   9.905  0.0845  0.3496  1.5495
23854SOL     OW75477   1.596   2.138   1.854  0.1489  0.1780  0.2445
23854SOL    HW175478   1.595   2.122   1.760 -0.4191  0.3948  0.2110
23854SOL    HW275479   1.624   2.229   1.863 -0.5934  0.4129  0.2415
23855SOL     OW75480   5.312   2.130   5.154 -0.7002  0.7926  0.1293
23855SOL    HW175481   5.288   2.065   5.088  1.6158 -0.6751  0.6106
23855SOL    HW275482   5.271   2.098   5.235  2.1039 -1.4371  0.8451
23856SOL     OW75483   7.147   9.415   3.274 -0.1270  0.2561 -0.2354
23856SOL    HW175484   7.230   9.373   3.298  1.0060  2.2246 -0.5285
23856SOL    HW275485   7.082   9.345   3.281  1.4315 -1.1685  0.7146
23857SOL     OW75486   8.646   4.985   0.700 -0.6533  0.2198  0.1038
23857SOL    HW175487   8.664   5.045   0.773 -0.6508 -0.4004  0.6152
23857SOL    HW275488   8.731   4.945   0.680 -0.4226  1.1781 -0.9648
23858SOL     OW75489   2.235   9.694   2.554 -0.0412  0.2004  0.5950
23858SOL    HW175490   2.148   9.731   2.568  0.1288  1.0726 -0.4991
23858SOL    HW275491   2.283   9.713   2.635 -1.5663 -2.5291  2.2773
23859SOL     OW75492   5.144   6.780   5.382  0.3739  0.1249 -0.3253
23859SOL    HW175493   5.159   6.859   5.331  0.9972  0.1805 -0.0676
23859SOL    HW275494   5.139   6.810   5.473  1.4164 -0.1998 -0.1377
23860SOL     OW75495   4.562   7.037   1.269 -0.2077  0.2747 -0.0903
23860SOL    HW175496   4.547   7.082   1.186  0.1906 -0.2784 -0.4715
23860SOL    HW275497   4.608   7.101   1.323 -1.6975  1.1262  0.2213
23861SOL     OW75498   1.799   9.719   5.885  0.4015 -0.6621 -0.4256
23861SOL    HW175499   1.734   9.649   5.872 -0.1692 -0.2767  0.2773
23861SOL    HW275500   1.881   9.673   5.903 -0.2152 -1.1808  1.2501
23862SOL     OW75501  10.023   7.147   2.877  0.2351 -0.6644 -0.0083
23862SOL    HW175502  10.049   7.074   2.821 -1.4464 -1.0388 -0.3531
23862SOL    HW275503   9.992   7.106   2.958  0.0264 -0.2930  0.1045
23863SOL     OW75504   0.761   0.583   1.675 -0.2041 -0.5709 -0.1527
23863SOL    HW175505   0.796   0.662   1.716 -1.4832  0.3304 -0.7333
23863SOL    HW275506   0.707   0.542   1.743  1.7256 -1.8876  0.6972
23864SOL     OW75507   6.239   7.092   7.470  0.2057  0.1231 -0.2902
23864SOL    HW175508   6.199   7.018   7.424  2.8168 -1.8040  0.3038
23864SOL    HW275509   6.193   7.096   7.553 -0.8369  0.0282 -0.8478
23865SOL     OW75510   7.916   6.518   1.247  0.2278  0.5429 -0.1908
23865SOL    HW175511   7.900   6.550   1.336  0.5792 -2.1735  0.9481
23865SOL    HW275512   7.844   6.555   1.195 -2.1226 -0.6168  1.9933
23866SOL     OW75513   8.896   5.676   8.626 -0.1877  0.4395  0.5707
23866SOL    HW175514   8.917   5.604   8.686  2.4248  0.6488  0.0217
23866SOL    HW275515   8.853   5.741   8.681 -1.4680 -1.0042  1.3387
23867SOL     OW75516   7.581   5.535   6.547 -0.3102 -0.3468  0.2886
23867SOL    HW175517   7.617   5.623   6.541 -0.2057 -0.4089 -0.0494
23867SOL    HW275518   7.501   5.544   6.599  0.2767 -0.2368  1.1797
23868SOL     OW75519   0.942   6.007   0.414 -0.1859 -0.3288  0.2717
23868SOL    HW175520   0.882   6.077   0.387  1.4253  1.2228  0.4917
23868SOL    HW275521   1.029   6.047   0.408  0.8985 -2.6486 -0.5407
23869SOL     OW75522   8.205   0.481   7.548 -0.4267 -0.0117  0.3523
23869SOL    HW175523   8.252   0.552   7.593 -1.4298  0.5503  0.5648
23869SOL    HW275524   8.231   0.489   7.457  1.1307 -0.7448  0.7139
23870SOL     OW75525   4.866  10.075   1.338  0.0368 -0.5280  0.2568
23870SOL    HW175526   4.848  10.085   1.245  0.3876 -0.1563  0.2292
23870SOL    HW275527   4.953  10.035   1.342  1.0202  1.4820  0.4332
23871SOL     OW75528   5.382   4.595   8.932 -0.1009 -0.4516  0.3261
23871SOL    HW175529   5.350   4.664   8.874  1.6499 -0.5785 -0.8536
23871SOL    HW275530   5.324   4.522   8.917  1.1036 -0.9787 -2.4299
23872SOL     OW75531   2.838   7.886   9.910 -0.3963  0.0611  0.2297
23872SOL    HW175532   2.761   7.834   9.886 -2.8822  3.1036  0.9725
23872SOL    HW275533   2.870   7.922   9.828 -1.8641  1.3681  0.1851
23873SOL     OW75534   7.610   4.524   1.237 -0.4249  0.1626  0.6045
23873SOL    HW175535   7.685   4.562   1.191 -0.7207  0.6050  0.4760
23873SOL    HW275536   7.587   4.446   1.187 -0.7688  0.6616 -0.0237
23874SOL     OW75537  10.039   8.711   6.472 -0.4865 -0.1441  0.3571
23874SOL    HW175538  10.133   8.694   6.478 -0.6117 -0.4343  1.8988
23874SOL    HW275539  10.032   8.792   6.422  0.5782 -0.1086  0.2490
23875SOL     OW75540   2.448   1.733   4.830 -0.7667 -0.5639 -0.2743
23875SOL    HW175541   2.492   1.677   4.894 -2.0857 -2.0455 -0.6224
23875SOL    HW275542   2.402   1.798   4.883  1.2967  0.6858  0.1118
23876SOL     OW75543   1.061   9.874   8.218 -0.2534 -0.0220 -0.4740
23876SOL    HW175544   1.037   9.932   8.145 -2.2419  1.1651  0.9943
23876SOL    HW275545   0.997   9.895   8.286  0.6849 -2.0550  1.1301
23877SOL     OW75546   2.915   8.734   4.223  0.1445 -0.2015 -0.2289
23877SOL    HW175547   2.998   8.777   4.204 -0.3544  0.5040 -0.8715
23877SOL    HW275548   2.895   8.684   4.144  0.3391 -1.0027  0.2202
23878SOL     OW75549   4.983   3.595   7.085 -0.3703  0.0964 -0.3786
23878SOL    HW175550   4.959   3.687   7.077 -0.8793  0.0663  0.6426
23878SOL    HW275551   5.079   3.595   7.083 -0.3590  0.4045 -2.6082
23879SOL     OW75552  10.161   7.033   8.942  0.1167 -0.6427  0.0795
23879SOL    HW175553  10.242   6.996   8.907  0.8488  1.7732 -0.9567
23879SOL    HW275554  10.095   7.011   8.876  0.8513  1.0934 -1.3217
23880SOL     OW75555   1.478   9.622   5.975 -0.6947 -0.1966 -0.3037
23880SOL    HW175556   1.534   9.572   5.915  1.1984  2.5537 -1.0187
23880SOL    HW275557   1.521   9.613   6.060  0.2726  1.0143 -0.6406
23881SOL     OW75558   2.121   6.927   3.304 -0.4036  0.7207 -0.0956
23881SOL    HW175559   2.085   6.970   3.381  0.2606  3.1042 -1.0093
23881SOL    HW275560   2.196   6.982   3.279 -1.1796  0.6339 -2.9734
23882SOL     OW75561   4.192   6.333   0.184 -0.1566 -0.1387 -0.1588
23882SOL    HW175562   4.200   6.396   0.112 -0.8813 -0.1943 -0.2929
23882SOL    HW275563   4.206   6.386   0.263  1.0864 -0.1622 -0.3472
23883SOL     OW75564   1.034   6.132   0.820 -0.1864 -0.1516 -0.4114
23883SOL    HW175565   1.029   6.216   0.774 -0.8319 -0.3911 -0.7927
23883SOL    HW275566   1.121   6.098   0.799 -0.0646  0.2516 -0.5615
23884SOL     OW75567   6.435   8.841   2.509  0.3666 -0.7344 -0.1857
23884SOL    HW175568   6.457   8.920   2.459  2.1095 -0.0656  1.5022
23884SOL    HW275569   6.347   8.858   2.542  1.2383  1.2227  1.3446
23885SOL     OW75570   1.434   6.389   8.655 -0.5550  0.4215 -0.0856
23885SOL    HW175571   1.396   6.455   8.597  0.2312  0.7874 -0.2007
23885SOL    HW275572   1.529   6.398   8.642 -0.4413 -1.2063 -0.6286
23886SOL     OW75573   3.499   9.957   0.539  0.4131 -0.5119 -0.6809
23886SOL    HW175574   3.427  10.009   0.503  1.3870  0.4968 -1.2255
23886SOL    HW275575   3.459   9.907   0.609 -1.0988 -0.9434 -1.7870
23887SOL     OW75576   0.283   7.393   6.029  0.7375 -0.0630 -0.3610
23887SOL    HW175577   0.305   7.323   6.090  0.0015 -1.0488 -1.1889
23887SOL    HW275578   0.264   7.468   6.084 -0.6693 -1.1333  0.6894
23888SOL     OW75579   1.673   5.828   9.918 -0.3532  0.5482  0.2186
23888SOL    HW175580   1.625   5.866   9.992  0.2222  2.7590 -0.4506
23888SOL    HW275581   1.757   5.874   9.919 -0.5373  1.0412 -2.1119
23889SOL     OW75582   4.544   5.578   5.639  0.2467  0.3527  0.1117
23889SOL    HW175583   4.622   5.623   5.672  0.6229 -0.0491 -0.2167
23889SOL    HW275584   4.576   5.524   5.567  0.1402 -1.9395  1.6962
23890SOL     OW75585   9.393   3.506   1.087  0.1774 -0.7492  0.1115
23890SOL    HW175586   9.302   3.534   1.080  0.7657  1.4262  0.2606
23890SOL    HW275587   9.429   3.518   0.998  1.0255  1.3832  0.6715
23891SOL     OW75588   3.241   2.046   9.236  0.1962  0.0301  0.2105
23891SOL    HW175589   3.292   2.116   9.195  1.6951 -0.6933  0.7441
23891SOL    HW275590   3.286   1.965   9.211  0.8235 -0.4870  2.6896
23892SOL     OW75591   9.162   7.589   5.670 -0.6269  0.1522  0.2665
23892SOL    HW175592   9.133   7.552   5.753 -2.0805  1.4085  0.3766
23892SOL    HW275593   9.137   7.682   5.675  0.8635  0.6620 -0.8591
23893SOL     OW75594   0.151   2.904   4.977  0.5594  0.2502 -0.5974
23893SOL    HW175595   0.078   2.889   4.916  0.4554  0.8480 -0.6237
23893SOL    HW275596   0.170   2.817   5.012  0.6122 -0.1055 -1.4698
23894SOL     OW75597   8.493   9.743   2.048  0.0677  0.3669  0.0795
23894SOL    HW175598   8.511   9.687   2.124  0.3478  0.5718  0.1650
23894SOL    HW275599   8.569   9.801   2.042  1.3354 -1.3236 -1.8651
23895SOL     OW75600   8.531   0.597   7.084 -0.5694 -0.0215 -0.5842
23895SOL    HW175601   8.514   0.635   7.170  0.2268  1.2185 -0.9539
23895SOL    HW275602   8.626   0.599   7.075 -0.5566 -1.3388 -0.9752
23896SOL     OW75603   5.729   8.998   9.020 -0.2210 -0.1084  0.1285
23896SOL    HW175604   5.705   9.022   8.931  0.2628  0.3302  0.1110
23896SOL    HW275605   5.660   9.036   9.075 -1.1315 -1.3304 -0.1295
23897SOL     OW75606   0.144   9.668   3.101 -0.0339 -0.3613 -0.3198
23897SOL    HW175607   0.238   9.653   3.096 -0.0930 -0.7690 -0.2300
23897SOL    HW275608   0.116   9.621   3.180 -0.2214  0.2385 -0.0189
23898SOL     OW75609   0.964   1.524   4.929  0.0857  0.6673 -0.3796
23898SOL    HW175610   0.942   1.447   4.980  1.3340  1.5551  1.6107
23898SOL    HW275611   0.901   1.591   4.957  0.2433  0.9331 -0.6490
23899SOL     OW75612   2.415   0.530   5.932  0.1444  0.4189  0.0687
23899SOL    HW175613   2.507   0.513   5.955  0.3193  0.5543 -0.5250
23899SOL    HW275614   2.366   0.459   5.973  0.4940  0.4453  0.5414
23900SOL     OW75615   2.308   7.444   9.481  0.2426  0.1660  0.4461
23900SOL    HW175616   2.221   7.462   9.446  1.1299  0.6371 -1.7265
23900SOL    HW275617   2.305   7.352   9.506 -0.4569 -0.2818 -1.1363
23901SOL     OW75618   3.245   3.191   9.113 -0.0377 -0.0260  0.0048
23901SOL    HW175619   3.315   3.127   9.122 -0.5078 -0.5404  0.0211
23901SOL    HW275620   3.246   3.240   9.196 -1.2751 -1.6496  1.0417
23902SOL     OW75621   9.391   6.929   4.870 -0.0361 -0.4032 -0.4023
23902SOL    HW175622   9.384   7.025   4.870  2.4793 -0.1488  0.3059
23902SOL    HW275623   9.482   6.912   4.844  0.2352 -2.4973  1.6348
23903SOL     OW75624   5.140   8.050   0.913 -0.0337  0.4242  0.6242
23903SOL    HW175625   5.129   7.963   0.953  0.0158 -0.1168 -0.5107
23903SOL    HW275626   5.059   8.063   0.863  0.8362  0.1001 -0.9197
23904SOL     OW75627   6.744   6.977   7.988 -0.0748  0.6471 -0.0594
23904SOL    HW175628   6.657   7.003   8.018 -0.4260  2.6868 -2.5547
23904SOL    HW275629   6.729   6.895   7.940 -0.0857 -0.5714  1.9096
23905SOL     OW75630   8.921   8.884   0.653  0.2173  1.0797  0.0629
23905SOL    HW175631   9.012   8.912   0.647  1.2790 -1.9701  0.2395
23905SOL    HW275632   8.907   8.864   0.745 -0.9863  2.4283  0.2130
23906SOL     OW75633   6.060   6.986   2.094 -0.1932 -0.4827 -0.2600
23906SOL    HW175634   6.076   7.037   2.015  0.4793 -0.5237 -0.1565
23906SOL    HW275635   5.978   7.019   2.128  0.2072  0.4917 -0.2239
23907SOL     OW75636   9.822   3.973   3.966 -0.6393  0.4699  0.1225
23907SOL    HW175637   9.791   3.970   4.056  0.9112 -0.2156  0.6551
23907SOL    HW275638   9.862   4.059   3.957  2.6141 -0.7911  1.3220
23908SOL     OW75639   8.213   8.506   5.252  0.5264  0.3035 -0.5155
23908SOL    HW175640   8.300   8.490   5.215  1.0788  0.6317  0.6127
23908SOL    HW275641   8.209   8.451   5.330 -0.4439 -0.0182 -0.7799
23909SOL     OW75642   5.591   4.973   9.780  0.2157  0.5098  0.4219
23909SOL    HW175643   5.561   4.934   9.862 -0.4465 -0.5352 -0.2909
23909SOL    HW275644   5.518   4.961   9.719  0.6380  1.3917 -0.2971
23910SOL     OW75645   3.540   6.883   5.057  0.1477  0.0881  0.0672
23910SOL    HW175646   3.626   6.916   5.084  0.8801  0.3332 -2.3694
23910SOL    HW275647   3.542   6.790   5.080  1.1157  0.0663 -0.0425
23911SOL     OW75648   6.872   9.550   7.780 -0.5075  0.4598  0.5593
23911SOL    HW175649   6.841   9.611   7.714 -1.8020  1.3352  1.9046
23911SOL    HW275650   6.943   9.597   7.825 -0.1861  0.1898  0.3458
23912SOL     OW75651   1.133   2.107   3.429 -0.0004 -0.3057 -0.1464
23912SOL    HW175652   1.228   2.098   3.437  0.4834  0.9533 -3.0710
23912SOL    HW275653   1.102   2.018   3.413  1.2399 -0.3508 -2.8453
23913SOL     OW75654   9.911   1.132   0.282  0.2060  0.2520 -0.4758
23913SOL    HW175655   9.893   1.045   0.317 -1.7561  0.7033 -0.2228
23913SOL    HW275656   9.982   1.119   0.219  0.9742 -1.2523  0.6466
23914SOL     OW75657   1.914  10.165   7.725  0.4007  0.1728 -0.2280
23914SOL    HW175658   1.999  10.146   7.765 -0.2328 -0.2310  0.9536
23914SOL    HW275659   1.864  10.084   7.733 -0.8727  1.0498  1.1109
23915SOL     OW75660   9.183   3.914   3.871  0.4112  0.0645  0.5595
23915SOL    HW175661   9.100   3.959   3.888  0.5855  1.4512 -1.7893
23915SOL    HW275662   9.162   3.850   3.803  1.2363  0.3988 -0.0251
23916SOL     OW75663   4.118   4.601   4.959  0.0711  0.0779 -0.0590
23916SOL    HW175664   4.023   4.602   4.946  0.1210 -1.0163 -0.6286
23916SOL    HW275665   4.137   4.516   4.999  0.7332  0.6166  0.8139
23917SOL     OW75666   0.327   6.317   4.868  0.1248 -0.4365  0.0865
23917SOL    HW175667   0.256   6.377   4.890  0.4351  0.2581 -0.7618
23917SOL    HW275668   0.389   6.325   4.940 -0.9304 -1.5330  1.1669
23918SOL     OW75669   8.005   8.118   2.102 -0.4425  0.2311 -1.0698
23918SOL    HW175670   7.942   8.046   2.092 -1.3433  1.0880 -1.7176
23918SOL    HW275671   7.994   8.146   2.193  0.5792 -1.0327 -0.5272
23919SOL     OW75672   7.118   1.002   6.504  0.1204  0.1307  0.1303
23919SOL    HW175673   7.057   1.060   6.549  0.4703 -0.3601  1.2962
23919SOL    HW275674   7.201   1.048   6.506  0.1091  0.1615 -0.1240
23920SOL     OW75675   0.620   9.449   1.698  0.0470  0.0227  0.4635
23920SOL    HW175676   0.623   9.388   1.624  0.9993 -1.7793  1.8928
23920SOL    HW275677   0.702   9.433   1.745  0.5985  2.8497  0.6279
23921SOL     OW75678   0.718   5.212   1.692 -0.2503 -0.1221  0.0022
23921SOL    HW175679   0.726   5.296   1.647 -2.7713  0.6268  0.7777
23921SOL    HW275680   0.801   5.167   1.675 -0.3313  0.8503 -3.7888
23922SOL     OW75681   9.589   5.135   1.968 -0.0931  0.1335  0.0982
23922SOL    HW175682   9.494   5.141   1.976 -0.0028  1.1414  0.5315
23922SOL    HW275683   9.615   5.073   2.036 -0.4171 -0.0200  0.0859
23923SOL     OW75684   3.744   2.540   0.722  0.3234  0.5396 -0.1444
23923SOL    HW175685   3.758   2.564   0.630  0.6735  1.5608  0.1565
23923SOL    HW275686   3.760   2.621   0.770  0.3041 -0.0250  0.8373
23924SOL     OW75687   9.883   5.404   9.647  0.5419  0.1326  0.0307
23924SOL    HW175688   9.976   5.404   9.670  0.3615  0.8558  0.8658
23924SOL    HW275689   9.878   5.453   9.565  0.8234  0.8155  0.4122
23925SOL     OW75690   4.089   3.536   9.609  0.9034  0.0283 -0.2731
23925SOL    HW175691   4.155   3.600   9.632  0.7761  0.7286 -1.7108
23925SOL    HW275692   4.137   3.467   9.562  0.9303 -0.5696  0.6188
23926SOL     OW75693   7.074   9.608   3.871 -0.3649  0.0312  0.0901
23926SOL    HW175694   7.032   9.649   3.946 -1.0147  0.1682 -0.3343
23926SOL    HW275695   7.027   9.525   3.860 -1.6743  0.9113 -1.3864
23927SOL     OW75696   8.877   2.739   8.267 -0.0185  0.1079 -0.0991
23927SOL    HW175697   8.786   2.710   8.263  0.4338 -1.3293 -0.4642
23927SOL    HW275698   8.917   2.684   8.335 -0.2480  3.2255  2.8103
23928SOL     OW75699   2.014   0.810   5.531 -0.2971  0.4924 -0.2518
23928SOL    HW175700   2.038   0.733   5.582  0.3896  1.0007  0.2004
23928SOL    HW275701   2.089   0.825   5.473 -0.4180  0.8356 -0.3194
23929SOL     OW75702   1.862   1.865   1.146 -0.3835  0.8740  0.2303
23929SOL    HW175703   1.798   1.865   1.075 -2.1470  1.6002  1.7417
23929SOL    HW275704   1.856   1.778   1.184  0.1375  0.6783 -0.1223
23930SOL     OW75705   4.884   1.297   3.938  0.7889 -0.2177 -0.4891
23930SOL    HW175706   4.815   1.310   4.004  1.3067 -0.3527  0.0796
23930SOL    HW275707   4.965   1.315   3.984  1.1461 -0.0757 -1.1586
23931SOL     OW75708   4.545   8.410   3.440  0.3808 -0.2350  0.1327
23931SOL    HW175709   4.589   8.495   3.437  1.0758 -0.6094 -1.7413
23931SOL    HW275710   4.452   8.431   3.428  0.2994  0.3769  1.6441
23932SOL     OW75711   9.193   9.657   0.277 -0.0848 -0.1379  0.1737
23932SOL    HW175712   9.181   9.712   0.199 -0.0393  1.9213  1.5562
23932SOL    HW275713   9.137   9.696   0.344 -3.0264 -3.9523  0.3304
23933SOL     OW75714   5.137   9.161   0.051  0.0668  0.4630  0.4304
23933SOL    HW175715   5.121   9.177  -0.042 -0.1451 -0.5340  0.2792
23933SOL    HW275716   5.208   9.096   0.052  0.0378  0.4352  0.9669
23934SOL     OW75717   2.497   4.725   0.722 -0.7560 -0.0862  0.1632
23934SOL    HW175718   2.559   4.775   0.776 -2.0811  0.8501  0.8847
23934SOL    HW275719   2.552   4.676   0.662  0.6911  0.6404  0.8359
23935SOL     OW75720   0.066   2.352   4.916  0.2739 -0.0445  0.1469
23935SOL    HW175721   0.065   2.356   5.012 -0.9847 -1.3526  0.2210
23935SOL    HW275722   0.094   2.439   4.889  2.0483 -0.0762  1.7054
23936SOL     OW75723   6.258   2.567   4.265  0.1951 -0.6446 -0.4453
23936SOL    HW175724   6.265   2.659   4.292 -0.1360 -0.6184 -0.4392
23936SOL    HW275725   6.335   2.552   4.211  0.3072 -0.3933 -0.3592
23937SOL     OW75726   6.241   6.096   7.156 -0.4349  0.1296 -0.2290
23937SOL    HW175727   6.331   6.063   7.154  0.2944  2.0415 -0.2918
23937SOL    HW275728   6.197   6.051   7.083  0.5452 -0.5538 -0.4137
23938SOL     OW75729   5.726   1.064   7.433  0.1392  0.3839 -0.0616
23938SOL    HW175730   5.735   1.129   7.503  0.8088 -2.5153  2.7854
23938SOL    HW275731   5.648   1.013   7.457  1.0020 -1.3641 -0.7796
23939SOL     OW75732   2.133  10.199   0.409  0.0478 -0.5951 -0.0327
23939SOL    HW175733   2.065  10.248   0.455  1.1431  0.0036  1.0146
23939SOL    HW275734   2.088  10.157   0.336 -0.8352  2.5624 -1.4449
23940SOL     OW75735   1.488   1.715   6.207 -0.0097  0.4637 -0.1604
23940SOL    HW175736   1.423   1.771   6.248 -1.0051  0.5521 -1.8176
23940SOL    HW275737   1.456   1.626   6.222 -1.1582  0.5433 -1.9648
23941SOL     OW75738   4.731   0.446   6.797  0.3038  0.4036 -0.2699
23941SOL    HW175739   4.672   0.521   6.806  0.9476  0.7308  1.5349
23941SOL    HW275740   4.818   0.482   6.807  0.6104 -0.6335  1.1221
23942SOL     OW75741   8.144   1.216   9.254 -0.1475 -0.2768 -0.2563
23942SOL    HW175742   8.091   1.144   9.221 -0.5583 -0.7666  1.3779
23942SOL    HW275743   8.234   1.195   9.227 -0.6661  0.2677 -2.5449
23943SOL     OW75744   7.785   6.952   5.676  0.0850 -0.3631  0.2512
23943SOL    HW175745   7.696   6.985   5.685  0.4737  0.8828 -0.1314
23943SOL    HW275746   7.796   6.890   5.747 -1.0570 -0.4660  0.3477
23944SOL     OW75747   2.632   8.992   3.382 -0.1799  0.6030  0.3171
23944SOL    HW175748   2.687   9.068   3.365 -0.4420  0.8346  0.4974
23944SOL    HW275749   2.644   8.935   3.306 -0.5397  1.1537 -0.1559
23945SOL     OW75750   9.938   9.487   0.647 -0.0537  0.0205  0.0925
23945SOL    HW175751   9.999   9.428   0.603 -0.4910 -0.7441  0.5030
23945SOL    HW275752   9.967   9.489   0.738 -0.8516 -0.6448  0.3711
23946SOL     OW75753   4.189   6.502   6.715  0.0889  0.0736 -0.3744
23946SOL    HW175754   4.269   6.552   6.699  2.2608 -2.9144  0.3853
23946SOL    HW275755   4.168   6.520   6.806 -0.7581  1.6089 -0.8280
23947SOL     OW75756   4.174   1.841   0.572 -0.3209  0.3998 -0.3406
23947SOL    HW175757   4.101   1.862   0.630 -0.5206  2.1576 -1.1467
23947SOL    HW275758   4.204   1.927   0.540  3.1803 -0.0346  1.2271
23948SOL     OW75759   2.864   2.786   1.585  0.0567 -0.4595  0.2042
23948SOL    HW175760   2.881   2.790   1.491 -1.5342 -0.4187 -0.1090
23948SOL    HW275761   2.946   2.755   1.624 -0.1045 -3.2639 -1.4667
23949SOL     OW75762   2.192   1.417   2.654 -0.9623 -1.0112 -0.4561
23949SOL    HW175763   2.268   1.362   2.670  0.4562  1.2965  1.4748
23949SOL    HW275764   2.124   1.383   2.713 -0.4467 -1.3122 -0.0312
23950SOL     OW75765   6.734   4.533   7.531  0.2059 -0.2646 -0.0362
23950SOL    HW175766   6.662   4.481   7.567  0.4935 -1.1789 -0.7437
23950SOL    HW275767   6.813   4.489   7.561  0.4598  0.0728 -0.2006
23951SOL     OW75768   5.774   0.371   0.267  0.0821 -0.0193 -0.3095
23951SOL    HW175769   5.725   0.430   0.210 -0.5038 -0.5189 -0.3291
23951SOL    HW275770   5.845   0.425   0.303 -0.4141  0.6760 -0.3677
23952SOL     OW75771   7.352   8.609   5.453  0.1015 -0.5929  0.4112
23952SOL    HW175772   7.273   8.563   5.424  0.3704 -0.8547  0.0886
23952SOL    HW275773   7.397   8.633   5.372 -0.7951  1.6188  0.4969
23953SOL     OW75774   4.603   7.723   3.398  0.5706 -0.3183  0.2122
23953SOL    HW175775   4.579   7.751   3.487  2.1591 -0.8578  0.8403
23953SOL    HW275776   4.539   7.656   3.376 -0.6309  0.7209  0.4107
23954SOL     OW75777   3.771   9.361   7.406  0.1660 -0.1266 -0.2116
23954SOL    HW175778   3.808   9.287   7.453 -1.7046  0.3561  2.2949
23954SOL    HW275779   3.704   9.323   7.350 -0.5012 -0.4322  0.7556
23955SOL     OW75780   8.841   0.847   3.841 -0.4520 -0.2554 -0.2595
23955SOL    HW175781   8.916   0.868   3.896 -0.7304 -0.9212  0.3941
23955SOL    HW275782   8.839   0.916   3.775  0.6297 -0.1386 -0.1812
23956SOL     OW75783   9.655   1.763   7.540 -0.5492 -0.6515  0.2122
23956SOL    HW175784   9.702   1.701   7.484 -0.9999  0.3800 -1.3693
23956SOL    HW275785   9.579   1.714   7.572  0.3351 -1.6144  0.9056
23957SOL     OW75786   0.606   1.647   0.367 -0.1711 -0.5515  0.2863
23957SOL    HW175787   0.596   1.729   0.416  0.0062 -0.2416 -0.1864
23957SOL    HW275788   0.541   1.653   0.298  1.2048  0.1372 -1.0096
23958SOL     OW75789   6.536   0.261   3.644 -0.1002  0.1096  0.1543
23958SOL    HW175790   6.618   0.298   3.611  0.1664 -0.4479  0.1915
23958SOL    HW275791   6.490   0.231   3.566 -0.1719  0.2261  0.1521
23959SOL     OW75792   4.767   9.435   4.472 -0.2498  0.0778 -0.5531
23959SOL    HW175793   4.844   9.469   4.516 -0.3142 -0.6569  0.1410
23959SOL    HW275794   4.750   9.498   4.401  0.1083  1.0312  0.1897
23960SOL     OW75795   1.305   0.401   2.504 -0.1906 -0.0764 -0.1973
23960SOL    HW175796   1.341   0.465   2.565  0.1430 -0.4003 -0.0527
23960SOL    HW275797   1.380   0.349   2.476 -0.2910  0.2524 -1.1137
23961SOL     OW75798   1.233   5.861   5.764  0.3075  0.3384  0.1605
23961SOL    HW175799   1.166   5.801   5.798  0.0742 -0.3198 -1.3429
23961SOL    HW275800   1.235   5.933   5.826 -0.7019 -0.3772  1.0642
23962SOL     OW75801   4.740   1.637   9.943  0.4236 -0.0148 -0.2617
23962SOL    HW175802   4.690   1.643   9.862  0.4186 -2.9553 -0.5830
23962SOL    HW275803   4.675   1.617  10.010  0.6437  0.6950  0.1734
23963SOL     OW75804   3.390   3.682   4.692  0.1561 -0.4456  0.0461
23963SOL    HW175805   3.327   3.717   4.754  0.6310 -0.9016  0.8060
23963SOL    HW275806   3.466   3.657   4.746  1.6733  1.5900 -1.0040
23964SOL     OW75807   1.577   6.634   8.578 -0.0410 -0.1418  0.3588
23964SOL    HW175808   1.511   6.621   8.509 -0.7415  0.7179  0.8397
23964SOL    HW275809   1.658   6.653   8.531 -0.4965  0.3713 -0.2408
23965SOL     OW75810   6.514   8.609   1.166  0.4229 -0.2462  0.2571
23965SOL    HW175811   6.572   8.587   1.094  0.1545  0.0492 -0.0529
23965SOL    HW275812   6.496   8.703   1.155 -1.4572 -0.6756 -0.6515
23966SOL     OW75813   8.725   1.298   8.578 -0.3007 -0.0937  0.2440
23966SOL    HW175814   8.808   1.253   8.588 -0.5603 -0.4634  0.7823
23966SOL    HW275815   8.716   1.312   8.484  0.3600 -0.0637  0.1851
23967SOL     OW75816   8.571   6.378   2.809  0.0829  0.4210  0.1575
23967SOL    HW175817   8.640   6.327   2.851 -0.6140  0.6838  1.7054
23967SOL    HW275818   8.491   6.328   2.825 -0.0895 -0.0259 -1.8538
23968SOL     OW75819   7.352   5.649   3.097  0.3459 -0.6600 -0.2663
23968SOL    HW175820   7.280   5.623   3.038 -0.4984 -0.2249  0.5379
23968SOL    HW275821   7.319   5.728   3.140  2.7695  1.7968 -2.5582
23969SOL     OW75822   7.688   4.686   3.724  0.0299  0.0651 -0.3797
23969SOL    HW175823   7.720   4.693   3.814 -0.7182  0.1997 -0.1166
23969SOL    HW275824   7.760   4.644   3.676  0.4655  0.0678  0.2605
23970SOL     OW75825   4.345   9.330   8.773 -0.2223  0.2422  0.0517
23970SOL    HW175826   4.413   9.272   8.806 -0.0203  0.2340 -0.3812
23970SOL    HW275827   4.308   9.370   8.852  0.6101  0.6204  0.2561
23971SOL     OW75828   9.301   9.924   3.029 -0.6045  0.2693  0.0699
23971SOL    HW175829   9.249   9.959   2.957 -2.6715  0.4239  1.5550
23971SOL    HW275830   9.258   9.958   3.108  1.7584  0.3682  1.4045
23972SOL     OW75831   5.514   4.431   9.117  0.0689  0.6393 -0.5144
23972SOL    HW175832   5.487   4.508   9.068  2.0621  2.4259  0.9438
23972SOL    HW275833   5.529   4.464   9.206  0.7067 -1.5057  0.2368
23973SOL     OW75834   5.279   2.602   6.281  0.2596 -0.3344 -0.2094
23973SOL    HW175835   5.199   2.558   6.311 -0.0428  0.4390  0.1668
23973SOL    HW275836   5.314   2.643   6.360  2.5705 -2.9026  0.2446
23974SOL     OW75837   9.849   4.534   0.436  0.5180  0.2496  0.3916
23974SOL    HW175838   9.845   4.528   0.341 -0.9507  0.4541  0.4153
23974SOL    HW275839   9.758   4.538   0.464  0.9282  2.2780  1.6723
23975SOL     OW75840   5.184   0.061   8.335  0.5096 -0.1366 -0.5480
23975SOL    HW175841   5.210   0.032   8.423 -0.2190  0.6156 -0.0669
23975SOL    HW275842   5.089   0.060   8.337  0.4903  0.0303 -1.2859
23976SOL     OW75843   3.689   7.552   9.563  0.4134 -0.0084  0.0938
23976SOL    HW175844   3.599   7.539   9.594  0.7130  1.4208  1.7218
23976SOL    HW275845   3.740   7.484   9.607  0.7827  1.8083  2.7007
23977SOL     OW75846   8.999   0.867  10.182 -0.0453 -0.0642  0.3599
23977SOL    HW175847   9.086   0.856  10.145 -0.4590 -1.3954 -0.3104
23977SOL    HW275848   9.012   0.866  10.276  0.5898 -1.2077  0.2776
23978SOL     OW75849   8.537   6.903   8.201  0.4336  0.1066 -0.2737
23978SOL    HW175850   8.543   6.953   8.282  2.1664 -2.7780  1.5237
23978SOL    HW275851   8.599   6.946   8.142 -2.0746  3.3013 -0.9179
23979SOL     OW75852   1.481   8.077   4.989 -0.2057 -0.5703 -0.0208
23979SOL    HW175853   1.515   8.037   5.069 -0.1755  0.1732  0.3463
23979SOL    HW275854   1.394   8.109   5.013  0.5031  1.2571  0.2535
23980SOL     OW75855   3.498   4.873   2.857 -0.1872 -0.4425 -0.2658
23980SOL    HW175856   3.519   4.966   2.867  0.6644 -0.7150  0.7749
23980SOL    HW275857   3.520   4.853   2.766 -1.7106  0.6687 -0.9217
23981SOL     OW75858   4.657   9.901   6.157  0.3974 -0.3245 -0.0990
23981SOL    HW175859   4.578   9.955   6.154  0.7741  0.3008  0.6199
23981SOL    HW275860   4.637   9.825   6.104 -0.7047 -0.1918  0.1062
23982SOL     OW75861   7.550   8.335   8.937  0.0063  0.5182  0.1999
23982SOL    HW175862   7.482   8.320   8.872  1.5454  0.2219 -1.4347
23982SOL    HW275863   7.531   8.421   8.973 -2.6371 -0.5788  1.6548
23983SOL     OW75864   1.022   8.325   2.194 -0.1591  0.5410 -0.4222
23983SOL    HW175865   1.102   8.279   2.168 -0.6713 -0.2616 -0.5892
23983SOL    HW275866   1.043   8.418   2.179  0.4462  0.2841 -1.2805
23984SOL     OW75867   9.867   3.799   0.784 -0.4703 -0.2158  0.1139
23984SOL    HW175868   9.887   3.892   0.791  2.4117 -0.6583 -0.8297
23984SOL    HW275869   9.934   3.756   0.838 -0.7519 -1.8010 -0.7323
23985SOL     OW75870   0.343   9.788   3.478  0.5680 -0.3227 -0.0792
23985SOL    HW175871   0.277   9.840   3.525 -0.2022 -0.6599 -0.7685
23985SOL    HW275872   0.314   9.698   3.486  1.5335 -0.5976  0.5195
23986SOL     OW75873   2.903   8.600   6.273 -0.2087 -0.5528 -0.4392
23986SOL    HW175874   2.830   8.647   6.312 -0.1711 -0.3736 -0.5836
23986SOL    HW275875   2.963   8.584   6.346 -0.1953 -0.3259 -0.4011
23987SOL     OW75876   7.197   8.566   9.371  0.1406 -0.7161 -0.4634
23987SOL    HW175877   7.171   8.629   9.304  0.1993 -0.4056 -0.1929
23987SOL    HW275878   7.203   8.617   9.452  0.3775 -1.0265 -0.2806
23988SOL     OW75879   8.057   7.607   1.851 -0.3187  0.1500 -0.1970
23988SOL    HW175880   8.137   7.563   1.879 -0.8897  0.6920  2.5387
23988SOL    HW275881   8.073   7.700   1.868 -1.9326  0.1465  1.7249
23989SOL     OW75882   6.589   0.628   3.185 -0.5633  0.0467 -0.9535
23989SOL    HW175883   6.553   0.619   3.097 -0.5996  0.3487 -0.9699
23989SOL    HW275884   6.680   0.598   3.178 -0.5088  0.2553 -1.1351
23990SOL     OW75885   6.646   6.765   9.351 -0.2631 -0.6461 -0.4612
23990SOL    HW175886   6.560   6.779   9.312 -0.7281 -1.6407  0.1707
23990SOL    HW275887   6.647   6.672   9.375  0.8265 -0.5495 -0.0819
23991SOL     OW75888   8.678   6.758   7.337 -0.8489  0.6913  0.0569
23991SOL    HW175889   8.767   6.792   7.332 -0.3674 -0.4611  0.5804
23991SOL    HW275890   8.676   6.705   7.416 -1.8695  0.3279 -0.1883
23992SOL     OW75891   3.394   8.240   3.158 -0.5788  0.2445  0.5543
23992SOL    HW175892   3.396   8.285   3.073 -0.6133  1.2271  1.0602
23992SOL    HW275893   3.315   8.187   3.155 -0.2719 -0.1776 -0.2512
23993SOL     OW75894   9.737   8.466   9.695  0.8182 -0.0710  0.7907
23993SOL    HW175895   9.702   8.467   9.605 -0.3242  1.2249  1.2163
23993SOL    HW275896   9.778   8.380   9.703 -0.3518 -0.8063 -0.4946
23994SOL     OW75897   8.991   2.675   4.069 -0.1213  0.1386 -0.0790
23994SOL    HW175898   8.986   2.594   4.121  1.9066 -0.2776 -0.4448
23994SOL    HW275899   9.009   2.744   4.133 -1.2094  0.2152  0.1588
23995SOL     OW75900   8.991   8.026   6.528 -0.0021  0.1403  0.0568
23995SOL    HW175901   9.015   8.102   6.476  1.1239  1.4929  2.3857
23995SOL    HW275902   8.924   7.981   6.477 -0.0700  2.2122 -1.7878
23996SOL     OW75903   2.979   8.931   7.704 -0.4240  0.0505 -0.4039
23996SOL    HW175904   3.060   8.887   7.730 -1.2481 -0.7935  0.8663
23996SOL    HW275905   2.910   8.884   7.751 -1.5845  1.2665 -0.8196
23997SOL     OW75906   7.315   2.433   2.134 -0.1160  0.2641  0.2526
23997SOL    HW175907   7.337   2.445   2.226  0.7988 -0.3049  0.1236
23997SOL    HW275908   7.383   2.375   2.100 -0.5998  0.2338 -0.7163
23998SOL     OW75909   1.943   9.928   9.242 -0.5956  0.2510 -0.4706
23998SOL    HW175910   2.003   9.859   9.214 -0.3092  0.2670  0.0780
23998SOL    HW275911   1.885   9.886   9.305 -0.2820  0.5482  0.0308
23999SOL     OW75912   8.897   5.190   7.454 -0.0304  0.3354 -0.5110
23999SOL    HW175913   8.835   5.159   7.388  1.1309 -0.8298 -1.0993
23999SOL    HW275914   8.939   5.266   7.413 -0.1231  0.3122 -0.6507
24000SOL     OW75915   4.519   4.847   4.756  0.2189  0.4299  0.2164
24000SOL    HW175916   4.581   4.778   4.732  1.5640  1.1858  1.3551
24000SOL    HW275917   4.445   4.800   4.795  1.2119 -0.3807  1.1765
24001SOL     OW75918   3.963   4.376   1.087  0.8981 -0.4164 -0.0628
24001SOL    HW175919   3.944   4.283   1.084  0.7710 -0.3804 -0.4862
24001SOL    HW275920   4.026   4.386   1.158 -0.5103 -0.5692  1.2548
24002SOL     OW75921  10.142   4.222   6.457 -0.2338 -0.5261 -0.4625
24002SOL    HW175922  10.202   4.169   6.405  1.4075  0.7932 -0.0096
24002SOL    HW275923  10.137   4.176   6.541  0.7887 -0.2659 -0.2398
24003SOL     OW75924   8.577   0.652   3.373 -0.0729 -0.5450  0.3322
24003SOL    HW175925   8.651   0.592   3.388 -1.2721 -1.9511  0.8474
24003SOL    HW275926   8.526   0.610   3.304 -0.1910  0.6101 -0.2911
24004SOL     OW75927   8.229   5.234   1.167  0.1444  0.3133  0.1657
24004SOL    HW175928   8.269   5.165   1.220 -0.2103  0.1020  0.1636
24004SOL    HW275929   8.173   5.281   1.228 -1.2613 -0.7216 -0.2669
24005SOL     OW75930   6.230   9.458   7.306  0.7153  0.0887 -0.1287
24005SOL    HW175931   6.299   9.495   7.362 -0.7404  2.6917  0.1166
24005SOL    HW275932   6.196   9.533   7.258 -0.2076 -1.5766 -2.2022
24006SOL     OW75933   6.415   7.020   1.631  0.3416  0.1811  0.0671
24006SOL    HW175934   6.411   7.111   1.660  0.1371 -0.4805  2.3041
24006SOL    HW275935   6.348   6.976   1.682 -0.1371 -1.1171 -1.5852
24007SOL     OW75936   1.558   5.155   0.271 -0.0594 -0.4851  0.5103
24007SOL    HW175937   1.560   5.077   0.327  2.5362 -1.4682 -0.7496
24007SOL    HW275938   1.644   5.195   0.284 -0.7867  1.3515 -0.0234
24008SOL     OW75939   9.193   2.264   5.140  0.3520  0.0788  0.0014
24008SOL    HW175940   9.215   2.206   5.213 -2.6567 -0.3542  0.6944
24008SOL    HW275941   9.146   2.337   5.181 -3.0297 -1.0568 -1.5625
24009SOL     OW75942   5.898   3.496   7.312 -0.2260  0.9527 -0.4624
24009SOL    HW175943   5.857   3.578   7.283 -1.1915  0.4385 -0.5659
24009SOL    HW275944   5.834   3.428   7.292  0.5907  0.1523 -0.4291
24010SOL     OW75945   4.252   9.586   2.689  0.3213  0.3884  0.2466
24010SOL    HW175946   4.247   9.607   2.782 -0.3456 -0.3103  0.3784
24010SOL    HW275947   4.200   9.506   2.679 -0.5036  1.0397 -0.9028
24011SOL     OW75948   8.224   2.832   1.444  0.3212  0.0926 -0.3075
24011SOL    HW175949   8.188   2.857   1.529  1.6419  0.2538  0.2236
24011SOL    HW275950   8.239   2.915   1.399  0.2775  0.0391 -0.4222
24012SOL     OW75951   7.026   4.985   1.154  0.0614  0.3374 -0.4997
24012SOL    HW175952   7.090   5.035   1.103 -0.2795  0.6418 -0.6384
24012SOL    HW275953   6.944   5.033   1.142  0.4169  1.8507  2.2737
24013SOL     OW75954   6.802   4.211   7.693  0.0637 -0.2188  0.0747
24013SOL    HW175955   6.799   4.230   7.787 -0.9762  1.7351 -0.3190
24013SOL    HW275956   6.866   4.272   7.658 -0.5923  0.0402 -0.6914
24014SOL     OW75957   8.152   0.484   5.971 -0.6609  0.4985  0.9160
24014SOL    HW175958   8.184   0.563   6.015  1.4684 -0.3481  1.0067
24014SOL    HW275959   8.212   0.415   6.001 -0.3838 -0.5066 -1.7415
24015SOL     OW75960   4.172   1.843   8.498  0.4647  0.0614  0.5275
24015SOL    HW175961   4.121   1.866   8.420 -0.1005  0.5645  1.0313
24015SOL    HW275962   4.262   1.867   8.476  0.3261  0.1047 -0.0037
24016SOL     OW75963   9.456   9.789   0.145 -0.3283 -0.0648  0.1756
24016SOL    HW175964   9.369   9.752   0.159 -0.6997  0.9257  0.5529
24016SOL    HW275965   9.509   9.714   0.118 -1.0246 -0.8991  1.0354
24017SOL     OW75966   2.957   1.629   0.599 -0.2238 -0.0237 -0.8164
24017SOL    HW175967   2.992   1.543   0.578 -1.3512 -0.3544 -1.4371
24017SOL    HW275968   3.020   1.691   0.561 -1.0149 -0.5959 -3.2488
24018SOL     OW75969   4.417   7.220   5.706 -0.0639 -0.0797  0.4598
24018SOL    HW175970   4.368   7.254   5.782 -0.9848 -0.3746  0.0071
24018SOL    HW275971   4.351   7.176   5.653  0.6403 -0.1790 -0.3453
24019SOL     OW75972   0.977   0.429   9.419  0.3214 -0.2018 -0.1670
24019SOL    HW175973   0.985   0.367   9.346  1.9560 -0.2009 -0.0275
24019SOL    HW275974   1.066   0.440   9.450  0.1129  2.3876 -0.3060
24020SOL     OW75975   9.599   4.014   1.667 -0.0733  0.1248  0.5543
24020SOL    HW175976   9.516   4.060   1.678 -1.4545 -1.5315 -1.8524
24020SOL    HW275977   9.604   3.953   1.741 -1.8423 -0.8241 -0.0447
24021SOL     OW75978   5.035   3.095   2.460 -0.0950 -0.6266  0.5822
24021SOL    HW175979   5.017   3.126   2.549 -1.1873 -0.0544  0.1800
24021SOL    HW275980   4.949   3.079   2.422  0.3149 -0.0895 -0.6439
24022SOL     OW75981   8.606   0.542   5.553 -0.0653 -0.1960 -0.1683
24022SOL    HW175982   8.527   0.489   5.559 -0.4677  0.3540 -0.5447
24022SOL    HW275983   8.636   0.530   5.462  1.2444 -1.7401  0.4050
24023SOL     OW75984   2.979  10.139   7.293  0.7544  0.4664 -0.0468
24023SOL    HW175985   2.954  10.115   7.204 -1.3637  4.0881 -0.5991
24023SOL    HW275986   2.942  10.069   7.347 -0.1505 -0.4925 -1.8109
24024SOL     OW75987   2.267   9.119   9.737 -0.2439 -0.0056  0.1609
24024SOL    HW175988   2.344   9.077   9.778 -0.6914  1.3625  2.5972
24024SOL    HW275989   2.304   9.170   9.665  1.3951  1.6154  2.0220
24025SOL     OW75990   5.138   8.570   0.827 -0.1798 -0.0766  0.8364
24025SOL    HW175991   5.185   8.537   0.751 -0.8029 -1.3109  0.9710
24025SOL    HW275992   5.050   8.588   0.796  0.4789  2.9208  0.4089
24026SOL     OW75993   1.334   2.059   4.464 -0.6333 -0.6808 -0.2370
24026SOL    HW175994   1.277   1.984   4.447 -0.8717 -0.3628 -0.8895
24026SOL    HW275995   1.295   2.131   4.414 -0.6194 -0.0207  0.6733
24027SOL     OW75996   5.144   0.761   6.266  0.1838  0.4043  0.0062
24027SOL    HW175997   5.228   0.718   6.255  0.4363  1.3688 -2.4131
24027SOL    HW275998   5.166   0.852   6.288 -0.1464  0.9202 -1.6579
24028SOL     OW75999   8.611   4.053   4.055 -0.2955 -0.0850  0.0275
24028SOL    HW176000   8.670   4.114   4.012  0.6447 -1.1073 -0.1654
24028SOL    HW276001   8.588   4.095   4.138  0.2609  0.5738 -0.1503
24029SOL     OW76002   9.680   7.933   3.164 -0.1307 -0.2301  0.3600
24029SOL    HW176003   9.726   8.016   3.152 -0.9855  0.1909 -0.0462
24029SOL    HW276004   9.737   7.868   3.121  0.5491  0.1255  0.6994
24030SOL     OW76005   5.350   3.638   2.159 -0.0740  0.6750  0.4297
24030SOL    HW176006   5.256   3.628   2.176 -0.2647  0.9828 -0.3621
24030SOL    HW276007   5.393   3.592   2.231 -0.8478 -1.9312 -0.6491
24031SOL     OW76008   1.378   7.172   6.378 -0.0887 -0.1941 -0.0906
24031SOL    HW176009   1.380   7.170   6.474  1.2919  0.0834 -0.1002
24031SOL    HW276010   1.409   7.260   6.355  0.9842 -0.7405 -0.8093
24032SOL     OW76011   2.997   9.409   5.276  0.4495  0.0593  0.4882
24032SOL    HW176012   3.019   9.501   5.260  0.1822 -0.1918 -1.6423
24032SOL    HW276013   3.074   9.362   5.245  0.0131 -0.4803  0.2164
24033SOL     OW76014   2.948   7.556   0.210 -0.1841  0.3227 -0.1529
24033SOL    HW176015   2.881   7.612   0.170 -2.4102 -1.7059  0.5137
24033SOL    HW276016   2.974   7.496   0.140  0.0573  0.3210 -0.0630
24034SOL     OW76017   4.302   4.113   0.254 -0.0960  0.1390 -0.2427
24034SOL    HW176018   4.331   4.046   0.317  0.1572  0.6857  0.2285
24034SOL    HW276019   4.375   4.120   0.192 -0.8326 -1.2636 -1.3248
24035SOL     OW76020   4.811   3.037   5.523  0.1603 -0.0109  0.1153
24035SOL    HW176021   4.747   2.977   5.485  0.8951 -0.2210 -0.8433
24035SOL    HW276022   4.887   2.982   5.543  0.2941  0.3430  0.5962
24036SOL     OW76023   4.836   5.426   1.394  0.1391  0.6891 -0.7728
24036SOL    HW176024   4.865   5.389   1.310  1.3252 -0.4625  0.1043
24036SOL    HW276025   4.799   5.351   1.441  0.2218  1.1652  0.0548
24037SOL     OW76026   0.190   6.488   4.392 -0.6774 -0.2111  0.2264
24037SOL    HW176027   0.128   6.521   4.328 -1.5447 -1.6346  0.2947
24037SOL    HW276028   0.165   6.396   4.406 -1.0117  0.2035  3.1135
24038SOL     OW76029   3.334   5.260  10.167  0.2052 -0.7593 -0.4781
24038SOL    HW176030   3.309   5.194  10.232 -0.1800 -0.1698 -0.0136
24038SOL    HW276031   3.429   5.252  10.161  0.2012 -1.0995 -0.1423
24039SOL     OW76032   6.405   2.893   0.444  0.9238  0.2768  0.4617
24039SOL    HW176033   6.427   2.981   0.415  0.0866  0.5492  0.6363
24039SOL    HW276034   6.428   2.837   0.369 -1.8041  1.0454 -1.0933
24040SOL     OW76035   3.482   3.263   4.163  0.3149 -0.1505 -0.0820
24040SOL    HW176036   3.548   3.289   4.227  0.8722  1.0932 -1.0898
24040SOL    HW276037   3.528   3.267   4.079 -0.2748 -2.1312 -0.5489
24041SOL     OW76038   4.564   1.024   3.996 -0.4151  0.0700  0.3543
24041SOL    HW176039   4.630   1.041   3.929  0.7479 -1.2187  1.1344
24041SOL    HW276040   4.481   1.027   3.948  0.1328  2.1904 -0.5527
24042SOL     OW76041   2.913   2.600   6.795 -0.1314  0.0621  0.1504
24042SOL    HW176042   2.946   2.530   6.851  0.7482  0.7382  0.5056
24042SOL    HW276043   2.830   2.625   6.834 -0.1535 -0.3556  0.3801
24043SOL     OW76044   8.783   8.489   2.583 -0.0613 -0.2677 -0.0458
24043SOL    HW176045   8.705   8.495   2.529 -0.3924 -3.3852 -0.1340
24043SOL    HW276046   8.751   8.496   2.673 -0.3462 -0.6940 -0.1102
24044SOL     OW76047   8.802   8.170   8.640 -0.1957  0.1713 -0.7653
24044SOL    HW176048   8.888   8.194   8.606  0.4047 -0.3884  0.3179
24044SOL    HW276049   8.779   8.240   8.701 -0.7477  0.5758 -1.4188
24045SOL     OW76050   8.196   8.855   5.052  0.3696  0.1208  0.0689
24045SOL    HW176051   8.256   8.877   5.124  0.0821  1.3670 -0.0434
24045SOL    HW276052   8.212   8.924   4.987 -0.5818 -0.0260 -0.3287
24046SOL     OW76053   1.010   4.604   6.468  0.5234 -0.7427 -0.7078
24046SOL    HW176054   1.102   4.598   6.440  2.3168  4.5928  2.5474
24046SOL    HW276055   1.006   4.553   6.548  1.2401  0.4258  0.0955
24047SOL     OW76056   3.438   8.089   7.697  0.0484  0.3634  0.6459
24047SOL    HW176057   3.446   8.062   7.789  1.7407  2.0719  1.0736
24047SOL    HW276058   3.521   8.063   7.657 -0.1449  0.8142 -0.0608
24048SOL     OW76059   7.078   3.939   8.188 -0.1261 -0.1921 -0.3829
24048SOL    HW176060   7.166   3.964   8.214 -1.1221  0.9410  2.2648
24048SOL    HW276061   7.074   3.957   8.094  2.1284  0.7212 -0.3502
24049SOL     OW76062   5.899   3.603  10.161  0.1284 -0.3515  0.0374
24049SOL    HW176063   5.846   3.578  10.237  1.6907  0.0068  1.2901
24049SOL    HW276064   5.848   3.671  10.118 -0.2755  0.2696  1.4355
24050SOL     OW76065   8.740   8.840   1.487 -0.0595  0.4917  0.0258
24050SOL    HW176066   8.727   8.766   1.427 -0.7770  1.0735 -0.5528
24050SOL    HW276067   8.832   8.834   1.512  0.4254  0.5440 -1.5753
24051SOL     OW76068   6.064   6.902   9.663 -0.0392  0.7842 -0.0930
24051SOL    HW176069   6.072   6.886   9.569  1.9733  1.1602 -0.0297
24051SOL    HW276070   6.061   6.815   9.702  0.4348  0.6194 -0.4194
24052SOL     OW76071   8.499   1.500   6.452 -0.1838  0.1861  0.7417
24052SOL    HW176072   8.406   1.478   6.460  0.2181 -1.8807  0.3016
24052SOL    HW276073   8.524   1.465   6.366  1.0107  0.6677  0.8785
24053SOL     OW76074   2.330   0.776   5.837  0.4133 -0.3453  0.3783
24053SOL    HW176075   2.399   0.821   5.886  1.0535  1.4944 -2.0144
24053SOL    HW276076   2.339   0.684   5.861  3.8991 -0.2126  0.0480
24054SOL     OW76077   7.972   4.840   9.261 -0.2427  0.2317 -0.7103
24054SOL    HW176078   7.945   4.883   9.180 -1.9302 -0.3266 -0.4652
24054SOL    HW276079   7.891   4.816   9.305  0.6209 -2.0366 -0.1939
24055SOL     OW76080   9.268   6.193   2.818  0.2704 -0.3795  0.2091
24055SOL    HW176081   9.362   6.181   2.836  0.2873 -1.0863 -0.3136
24055SOL    HW276082   9.261   6.183   2.723 -0.3430 -0.3846  0.2526
24056SOL     OW76083  10.040   1.278   0.486 -0.0977  0.2379  0.5843
24056SOL    HW176084  10.124   1.291   0.443  0.1872  0.5371  1.2289
24056SOL    HW276085   9.987   1.232   0.420  1.0660 -1.4162  0.7301
24057SOL     OW76086   0.036   7.333   7.382 -0.7675  0.3116 -0.2650
24057SOL    HW176087   0.093   7.356   7.456 -0.7256 -3.4169  1.0623
24057SOL    HW276088  -0.033   7.279   7.420 -0.2089 -2.5908 -2.9680
24058SOL     OW76089   9.341   5.161   3.907  0.2570 -0.4935  0.5142
24058SOL    HW176090   9.269   5.220   3.925 -1.1639 -1.6041 -1.1873
24058SOL    HW276091   9.393   5.205   3.840  0.8094  0.0155  1.2625
24059SOL     OW76092   0.995   7.143   8.327  0.3981 -0.4201  0.1106
24059SOL    HW176093   1.024   7.132   8.236  2.0774 -1.7478  0.7334
24059SOL    HW276094   0.900   7.137   8.323  0.2142  2.0241 -1.8247
24060SOL     OW76095   8.086   0.383   3.051 -0.2392  0.1759 -0.2346
24060SOL    HW176096   8.127   0.464   3.020  0.3388 -0.2011 -0.4573
24060SOL    HW276097   8.035   0.352   2.977 -1.3838  0.9162  0.2002
24061SOL     OW76098   2.187   2.153   2.027  0.0839  0.3987  0.2137
24061SOL    HW176099   2.234   2.072   2.007  0.9349  0.6901  0.9685
24061SOL    HW276100   2.104   2.124   2.066  0.4312 -0.1051  0.5860
24062SOL     OW76101   3.141   8.063   7.715 -0.3883 -0.8122  0.0029
24062SOL    HW176102   3.236   8.067   7.720 -0.3677  0.7028 -0.9882
24062SOL    HW276103   3.110   8.106   7.795 -0.2019  0.5824 -0.6439
24063SOL     OW76104   8.371   6.685   1.666 -0.6503 -0.4115  0.0072
24063SOL    HW176105   8.413   6.653   1.745 -1.2540  0.9422  0.9175
24063SOL    HW276106   8.300   6.622   1.650  0.2135 -1.3673 -0.1783
24064SOL     OW76107   1.270   9.870   6.931 -0.1354  0.0698 -0.1139
24064SOL    HW176108   1.224   9.870   7.014  0.0156  1.1953 -0.0117
24064SOL    HW276109   1.335   9.800   6.939 -1.0824 -0.7983  0.1502
24065SOL     OW76110   7.359   9.835   5.293 -0.2160 -0.6415  0.1447
24065SOL    HW176111   7.292   9.901   5.311 -1.1341 -1.3642 -0.5114
24065SOL    HW276112   7.352   9.773   5.366  0.6735 -0.0005  0.7825
24066SOL     OW76113   3.901   9.499   6.242 -0.0146  0.2012  0.5467
24066SOL    HW176114   3.876   9.579   6.196  1.4755  1.0326  1.1097
24066SOL    HW276115   3.986   9.475   6.205 -0.4503 -1.1766  0.3575
24067SOL     OW76116   8.985   7.833   3.625 -0.2133 -0.1972  0.6177
24067SOL    HW176117   9.003   7.865   3.714 -0.2801  1.0547  0.2079
24067SOL    HW276118   8.899   7.870   3.604  0.6497  1.2134 -0.6811
24068SOL     OW76119  10.101   6.475   1.345  0.0368 -0.6833 -0.1926
24068SOL    HW176120  10.172   6.420   1.376  0.6531 -0.0680 -0.4811
24068SOL    HW276121  10.022   6.423   1.357  0.4846 -1.1888  0.5824
24069SOL     OW76122   2.312   7.758   5.296 -0.0418  0.0026  0.0388
24069SOL    HW176123   2.338   7.667   5.282 -2.1365 -0.5845 -0.3771
24069SOL    HW276124   2.374   7.809   5.243  0.8926 -1.2074 -0.0676
24070SOL     OW76125   3.463   4.852   8.859 -0.6235  0.1824 -0.8259
24070SOL    HW176126   3.381   4.803   8.871 -0.4964  0.5903  2.6673
24070SOL    HW276127   3.518   4.825   8.932  1.5311  1.6173 -1.8266
24071SOL     OW76128   1.629   3.873   0.351 -0.2238  0.0952 -0.1789
24071SOL    HW176129   1.693   3.802   0.346 -0.8442 -0.5273  0.5362
24071SOL    HW276130   1.659   3.926   0.425 -0.7401 -0.4131  0.4022
24072SOL     OW76131   4.731   1.780   8.782  0.3139 -0.2170 -0.7929
24072SOL    HW176132   4.709   1.793   8.875 -0.1349  0.1009 -0.9428
24072SOL    HW276133   4.650   1.749   8.742  0.2378  0.5968 -1.2784
24073SOL     OW76134   9.014   2.879   0.690 -0.3831  0.2147  0.0384
24073SOL    HW176135   8.966   2.797   0.703 -1.2916  0.5276 -1.0711
24073SOL    HW276136   8.945   2.946   0.691  0.2826  0.9022  0.3628
24074SOL     OW76137   5.738   6.888   6.453 -0.3639  0.3562 -0.2468
24074SOL    HW176138   5.729   6.831   6.377  0.9255  0.1958 -0.3076
24074SOL    HW276139   5.748   6.975   6.416 -1.2551  0.4830 -0.1962
24075SOL     OW76140   4.406   7.607   3.220  0.2524 -0.3078 -0.3636
24075SOL    HW176141   4.326   7.658   3.206 -0.0367 -1.1248 -1.9340
24075SOL    HW276142   4.380   7.516   3.204  1.2350 -0.7216  0.2970
24076SOL     OW76143   4.953   2.181   2.124 -0.0104 -0.8917  0.2426
24076SOL    HW176144   4.960   2.188   2.029 -0.5970 -0.5039  0.2230
24076SOL    HW276145   4.884   2.243   2.148  1.0182 -0.0245  1.0611
24077SOL     OW76146   0.389   4.862   9.519  0.8755 -0.5758  0.1089
24077SOL    HW176147   0.352   4.860   9.608  2.9029  0.6879  1.0419
24077SOL    HW276148   0.483   4.850   9.532  1.1559 -0.9221 -1.9375
24078SOL     OW76149   9.260   7.205   5.683 -0.4541 -0.1196  0.0561
24078SOL    HW176150   9.245   7.248   5.768 -3.0129 -0.1817 -0.2924
24078SOL    HW276151   9.173   7.195   5.646  0.4340 -2.0682 -1.6544
24079SOL     OW76152   8.854   0.414   6.976  0.1017  0.3742  0.4132
24079SOL    HW176153   8.923   0.416   6.909  0.4783  1.5059  0.8145
24079SOL    HW276154   8.772   0.420   6.927  0.3705  1.0479  0.0337
24080SOL     OW76155   9.429   8.223   1.119  0.3922  0.2769 -0.3484
24080SOL    HW176156   9.425   8.206   1.213  2.2584 -0.3451 -0.3250
24080SOL    HW276157   9.469   8.144   1.082  2.7767  1.7487 -1.1814
24081SOL     OW76158   9.417   2.124   2.257  0.5933 -0.7125  0.0963
24081SOL    HW176159   9.334   2.136   2.212  0.6426 -0.9916 -0.0678
24081SOL    HW276160   9.441   2.212   2.288 -0.6023 -0.8749  1.6231
24082SOL     OW76161   4.750   9.469   8.615  0.2553 -0.5550  0.1718
24082SOL    HW176162   4.707   9.541   8.568  1.3672  0.9271  1.2986
24082SOL    HW276163   4.844   9.484   8.601  0.6798  0.2181  3.0655
24083SOL     OW76164   1.169   4.538   0.635 -0.2886  0.1501  0.4236
24083SOL    HW176165   1.256   4.551   0.597 -0.7001 -0.3715 -0.7479
24083SOL    HW276166   1.186   4.516   0.727  0.8606 -0.5994  0.0567
24084SOL     OW76167   5.716   2.079   6.436  0.9370  0.0553  0.2858
24084SOL    HW176168   5.653   2.121   6.378  1.6469  1.4802  0.4914
24084SOL    HW276169   5.669   2.003   6.472  0.6709 -1.2306 -2.5346
24085SOL     OW76170   7.848   4.046   9.773 -0.5239  0.0103 -0.0297
24085SOL    HW176171   7.845   3.954   9.799  1.6003 -0.5496 -1.5360
24085SOL    HW276172   7.788   4.051   9.698 -0.8253 -0.0748  0.2010
24086SOL     OW76173   0.310   3.632   3.681 -0.3710  0.0804  0.0477
24086SOL    HW176174   0.339   3.597   3.765 -0.5021  0.1273  0.1122
24086SOL    HW276175   0.259   3.710   3.703  1.2052  1.2204 -0.1674
24087SOL     OW76176   8.797   8.184   2.891 -0.1643 -0.3045 -0.5188
24087SOL    HW176177   8.852   8.241   2.838  0.1911 -0.4680 -0.3319
24087SOL    HW276178   8.789   8.230   2.975 -0.3333 -0.2710 -0.5529
24088SOL     OW76179   4.007   8.200   4.306 -0.0919  0.3276  0.3395
24088SOL    HW176180   3.923   8.223   4.266  0.3269  1.6524  0.1764
24088SOL    HW276181   4.037   8.123   4.256  0.1028  1.5416 -1.4941
24089SOL     OW76182   4.741   4.998   1.475  0.6424  0.5855  0.3276
24089SOL    HW176183   4.771   4.910   1.453  0.8301  1.0373 -1.3905
24089SOL    HW276184   4.648   4.988   1.493  0.7339 -0.0037  0.5038
24090SOL     OW76185   9.875   4.229   2.541 -0.0059 -0.4072  1.0021
24090SOL    HW176186   9.843   4.178   2.615 -0.6352 -1.6222 -0.0737
24090SOL    HW276187   9.797   4.270   2.504 -0.4766 -3.2805 -1.5596
24091SOL     OW76188   0.277   2.720   5.739  0.1590  0.3972 -0.4454
24091SOL    HW176189   0.308   2.643   5.785 -1.8868  0.3593  0.9725
24091SOL    HW276190   0.356   2.773   5.725  1.3509 -1.2209 -0.1032
24092SOL     OW76191   9.357   3.025   5.065 -0.2263  0.0544  0.1596
24092SOL    HW176192   9.337   3.107   5.021  0.0730  0.5039  0.8459
24092SOL    HW276193   9.317   3.034   5.152  1.2582  0.1930  0.8579
24093SOL     OW76194   5.386   9.839   0.382 -0.0273 -0.2322  0.0617
24093SOL    HW176195   5.479   9.827   0.401  0.2517 -0.1574 -1.1999
24093SOL    HW276196   5.354   9.750   0.366 -0.2610 -0.2913  0.7789
24094SOL     OW76197   7.463   9.503   4.384 -0.1717  0.1440 -0.2603
24094SOL    HW176198   7.391   9.441   4.375  0.5585 -0.5304 -2.0810
24094SOL    HW276199   7.511   9.496   4.301  2.9788 -0.7091  1.4551
24095SOL     OW76200   6.113   0.433   6.797  0.3007 -0.0253  0.2654
24095SOL    HW176201   6.083   0.500   6.736 -1.0878 -0.5676  0.3132
24095SOL    HW276202   6.120   0.353   6.745  1.0080 -0.0763  0.4176
24096SOL     OW76203   3.182   9.592   9.126 -0.2055 -0.3843  0.5170
24096SOL    HW176204   3.156   9.627   9.042 -0.5812  0.9753  1.1777
24096SOL    HW276205   3.276   9.612   9.133 -0.4456  0.6181  0.9437
24097SOL     OW76206   3.806   2.241   6.231 -0.2310  0.7157 -0.4168
24097SOL    HW176207   3.853   2.322   6.210  0.6627  0.1682 -0.5640
24097SOL    HW276208   3.855   2.172   6.186  0.1705 -0.1629  1.2784
24098SOL     OW76209   8.817   1.101   7.537 -0.2666 -0.5455  0.1767
24098SOL    HW176210   8.764   1.174   7.505 -0.8638 -1.0718 -0.0278
24098SOL    HW276211   8.859   1.065   7.459  0.1113 -0.3594  0.2914
24099SOL     OW76212   4.425   5.041   2.489  0.4419 -0.1156 -0.1595
24099SOL    HW176213   4.430   4.987   2.568 -0.3631  0.3448  0.2133
24099SOL    HW276214   4.409   4.978   2.419  1.7506 -0.5919 -0.0585
24100SOL     OW76215   4.611   8.183   5.651 -0.1190  0.1474 -0.6912
24100SOL    HW176216   4.532   8.186   5.704 -0.5218 -2.2200 -1.0373
24100SOL    HW276217   4.641   8.092   5.657  2.3639  0.8743 -0.8969
24101SOL     OW76218   2.182   3.459   0.437  0.2798  0.2620  0.1818
24101SOL    HW176219   2.225   3.379   0.405 -1.0657 -0.7229  0.7385
24101SOL    HW276220   2.089   3.441   0.428 -0.0666  1.3245  1.3944
24102SOL     OW76221   2.160   3.639   7.610  0.2795 -0.0487 -0.4651
24102SOL    HW176222   2.138   3.562   7.662 -0.5058  1.0892  0.9549
24102SOL    HW276223   2.111   3.627   7.528 -2.0830  0.2080  0.8176
24103SOL     OW76224   6.790   3.437   5.454  0.6049  0.1277 -0.3345
24103SOL    HW176225   6.841   3.514   5.427 -0.6412  1.0269 -0.1821
24103SOL    HW276226   6.776   3.388   5.372  0.9456  0.3235 -0.5154
24104SOL     OW76227   1.101   0.922   6.078  0.1254 -0.0506 -0.5149
24104SOL    HW176228   1.028   0.871   6.045  0.6284 -1.0922 -0.0736
24104SOL    HW276229   1.163   0.926   6.004  0.2703 -0.4486 -0.4161
24105SOL     OW76230   1.453   4.445   7.325  0.1691 -0.2221  0.3576
24105SOL    HW176231   1.519   4.493   7.276 -0.4086  1.2510  0.9792
24105SOL    HW276232   1.382   4.432   7.262  0.4202 -0.4969  0.1233
24106SOL     OW76233   7.494   3.974   7.688 -0.3144 -0.9614  0.2241
24106SOL    HW176234   7.498   3.979   7.593 -0.6142 -1.8268  0.1519
24106SOL    HW276235   7.566   4.029   7.718  0.6515 -1.7607 -0.5496
24107SOL     OW76236   1.506   7.926   5.241 -0.3817  0.2540 -0.3229
24107SOL    HW176237   1.592   7.890   5.217 -0.8061 -1.5545  0.6802
24107SOL    HW276238   1.449   7.849   5.247 -1.6451  1.2289  0.7667
24108SOL     OW76239   4.616   1.902   5.897  0.0230  0.1146  0.1720
24108SOL    HW176240   4.634   1.934   5.809  1.3509  0.0702  0.4142
24108SOL    HW276241   4.584   1.979   5.944  1.0684  0.5727  0.1469
24109SOL     OW76242   1.327   5.138   0.100  0.4955  0.1121 -0.1708
24109SOL    HW176243   1.404   5.128   0.157  1.0976  0.5518 -0.8845
24109SOL    HW276244   1.327   5.231   0.076 -0.4106  0.1720  0.0179
24110SOL     OW76245   4.330   9.286   4.942 -0.3865  0.1779 -0.1606
24110SOL    HW176246   4.237   9.268   4.929  0.1772 -1.3385 -2.6513
24110SOL    HW276247   4.360   9.323   4.859  1.7998 -2.2347 -0.6073
24111SOL     OW76248   4.545   0.787   1.545 -0.3342  0.1138  0.9736
24111SOL    HW176249   4.482   0.811   1.613  1.5385 -0.0075  2.8547
24111SOL    HW276250   4.533   0.693   1.534 -0.5922  0.1216  1.1611
24112SOL     OW76251   3.790   4.977   6.250  0.2271  0.3808  0.1650
24112SOL    HW176252   3.762   5.062   6.285 -0.2432  0.3029 -0.0153
24112SOL    HW276253   3.757   4.913   6.313 -1.4861  0.1702 -0.9113
24113SOL     OW76254   9.066   6.289  10.112  0.0315  0.0068  0.0063
24113SOL    HW176255   9.158   6.266  10.109 -0.1115 -0.5526 -0.1469
24113SOL    HW276256   9.024   6.218  10.161 -0.6782 -1.0127 -1.9710
24114SOL     OW76257   2.841   5.162   2.094  0.0654  0.4303  0.0136
24114SOL    HW176258   2.905   5.128   2.156 -0.5350  0.9836  0.9551
24114SOL    HW276259   2.850   5.257   2.099  0.9610  0.4821 -1.7825
24115SOL     OW76260   6.680   4.579   8.645 -0.4441 -0.0223 -0.3640
24115SOL    HW176261   6.724   4.560   8.562  0.4711  0.5652 -0.0235
24115SOL    HW276262   6.611   4.641   8.622  1.1667  1.8447 -0.3987
24116SOL     OW76263   9.538   1.453   5.166  0.0408  0.0314  0.2226
24116SOL    HW176264   9.582   1.403   5.235 -1.3483 -0.1707  0.9831
24116SOL    HW276265   9.515   1.388   5.100 -2.1054 -0.4485  1.3866
24117SOL     OW76266   3.991   0.172   5.442 -0.3055 -0.4958  0.2003
24117SOL    HW176267   4.006   0.107   5.374 -0.3514 -0.6234  0.3131
24117SOL    HW276268   3.917   0.224   5.409 -0.0362 -0.2721 -0.0557
24118SOL     OW76269   2.200   4.750   6.991  0.4370 -0.1316  0.4649
24118SOL    HW176270   2.281   4.730   7.039  1.5165 -1.2756 -1.6732
24118SOL    HW276271   2.215   4.837   6.954  0.7279 -0.3411  0.0725
24119SOL     OW76272   7.267   2.124   2.282  0.3751  0.1934  0.5546
24119SOL    HW176273   7.207   2.079   2.342 -1.2636 -0.9513 -1.7715
24119SOL    HW276274   7.287   2.207   2.325 -1.4207 -0.1826  2.2610
24120SOL     OW76275   9.936   4.135   1.250 -0.3747  0.4153 -0.1096
24120SOL    HW176276  10.027   4.109   1.258 -0.4936 -0.1845 -0.6128
24120SOL    HW276277   9.921   4.195   1.323  0.3709  0.3848  0.0717
24121SOL     OW76278   1.891   7.329   6.544 -0.3696  0.4508  0.5347
24121SOL    HW176279   1.965   7.330   6.605  0.3736  0.9822 -0.3481
24121SOL    HW276280   1.901   7.247   6.496 -0.8340  0.1330  0.9700
24122SOL     OW76281   6.987   0.306   6.087 -0.1807  0.0082 -0.0610
24122SOL    HW176282   6.897   0.295   6.114 -0.3419  1.5079  0.0854
24122SOL    HW276283   7.034   0.332   6.166  0.3908 -0.7167 -0.1419
24123SOL     OW76284   3.313   7.002   5.141 -0.5274  0.7104  0.1249
24123SOL    HW176285   3.384   6.953   5.100 -0.0949  1.8188 -0.4901
24123SOL    HW276286   3.293   7.071   5.079 -0.5821  1.7996  1.3211
24124SOL     OW76287   5.279   6.678   8.602 -0.5130  0.1521 -0.0718
24124SOL    HW176288   5.262   6.584   8.593 -2.8397  0.5683 -0.5189
24124SOL    HW276289   5.194   6.717   8.621  0.5475  2.0916  1.0528
24125SOL     OW76290   4.034   4.275  10.080 -0.5225  0.4042  0.1585
24125SOL    HW176291   4.051   4.195  10.129 -0.9826  0.8460  1.0721
24125SOL    HW276292   3.984   4.246  10.003 -4.0656  0.1203  2.3384
24126SOL     OW76293   9.292   4.948   1.828 -0.2473  0.1946  0.2905
24126SOL    HW176294   9.357   4.913   1.767 -1.1483 -1.3118  0.1539
24126SOL    HW276295   9.226   4.879   1.836 -0.5415  0.6443  2.3973
24127SOL     OW76296  10.031   1.984   3.392  0.1716 -0.1453  0.0504
24127SOL    HW176297  10.071   1.952   3.473  1.4985 -0.5940 -0.7513
24127SOL    HW276298  10.056   2.077   3.389 -0.4878  0.0577  0.4906
24128SOL     OW76299   2.099   9.385   3.021  0.2338  0.1093 -0.7223
24128SOL    HW176300   2.053   9.375   3.104  1.6720  2.9910  0.5856
24128SOL    HW276301   2.030   9.386   2.954 -0.9828 -1.8977  0.4371
24129SOL     OW76302   5.879   7.875   4.586  0.5261  0.5536  0.1969
24129SOL    HW176303   5.949   7.832   4.537  0.2176  0.2902 -0.0189
24129SOL    HW276304   5.875   7.826   4.669 -0.3599 -0.3677 -0.3684
24130SOL     OW76305   7.615   0.731   3.712 -0.2074  0.3106 -0.2968
24130SOL    HW176306   7.709   0.729   3.734 -0.2524 -0.1475 -0.1332
24130SOL    HW276307   7.613   0.747   3.618  0.0728 -0.7835 -0.5021
24131SOL     OW76308   7.547   6.041   6.375  0.3185 -0.6374 -0.4804
24131SOL    HW176309   7.531   6.135   6.386  3.0728 -0.1449  0.1819
24131SOL    HW276310   7.487   5.999   6.437  0.1250  0.8041  0.3675
24132SOL     OW76311   0.971   5.239   5.996  0.0036 -0.3801  0.0630
24132SOL    HW176312   1.022   5.295   6.054  1.1608  0.7423 -1.8976
24132SOL    HW276313   1.005   5.151   6.010  2.2646  0.2825 -0.8763
24133SOL     OW76314   4.915   7.382   5.488  0.5262  0.0931  0.3329
24133SOL    HW176315   5.003   7.388   5.450  0.2255 -0.3182 -0.4658
24133SOL    HW276316   4.921   7.315   5.555  0.7626 -0.1292  0.0898
24134SOL     OW76317   1.426   4.884   4.365  0.6387 -1.0440  0.0728
24134SOL    HW176318   1.422   4.869   4.270 -3.7656 -1.8639  0.1540
24134SOL    HW276319   1.392   4.973   4.376  1.1809 -0.9302  0.9017
24135SOL     OW76320   9.657   3.386   3.585  0.5876  0.1557 -0.2959
24135SOL    HW176321   9.697   3.409   3.501  1.2995  0.9350  0.2455
24135SOL    HW276322   9.601   3.460   3.606  0.4071 -0.0400 -0.0831
24136SOL     OW76323   6.032   1.288   7.671 -0.1400 -0.3618 -0.0200
24136SOL    HW176324   6.033   1.307   7.765 -0.8536  3.1174 -0.5926
24136SOL    HW276325   6.115   1.241   7.656  1.1616  1.1113  1.9858
24137SOL     OW76326   6.884   8.014   6.263 -0.5684  0.4003  0.6458
24137SOL    HW176327   6.962   8.029   6.316  0.2341 -0.7506 -0.1743
24137SOL    HW276328   6.860   8.102   6.231  2.0792  0.5124 -1.3751
24138SOL     OW76329   7.880   3.648   5.637 -0.1909  0.1850 -0.0510
24138SOL    HW176330   7.786   3.648   5.654 -0.1812 -2.9135  0.5892
24138SOL    HW276331   7.899   3.737   5.607 -3.1804  1.0875  0.3989
24139SOL     OW76332   4.425   9.948   9.854 -0.2063  0.4750  0.1700
24139SOL    HW176333   4.345   9.951   9.905 -0.2280 -0.6285  0.2208
24139SOL    HW276334   4.396   9.928   9.765  0.0355 -0.2581  0.2538
24140SOL     OW76335   4.379   5.538   1.418  0.3753 -0.0079 -0.3474
24140SOL    HW176336   4.386   5.464   1.477 -0.1912  2.1337  2.6239
24140SOL    HW276337   4.447   5.599   1.447 -0.7522  1.6669 -1.0309
24141SOL     OW76338   6.885   2.315   2.980 -0.0250  0.2895  0.3074
24141SOL    HW176339   6.888   2.282   2.891 -1.6247  1.8399 -0.3910
24141SOL    HW276340   6.806   2.369   2.983  0.5487  1.1309  2.3595
24142SOL     OW76341   9.277   4.757   5.967 -0.7573 -0.1544 -0.0060
24142SOL    HW176342   9.193   4.731   6.006 -0.4945 -0.3811  0.4264
24142SOL    HW276343   9.253   4.796   5.883 -1.2168 -1.4305 -0.5107
24143SOL     OW76344   0.571   8.265   1.749  0.5870 -0.8370  0.0569
24143SOL    HW176345   0.505   8.320   1.791 -0.0117  0.0161 -1.8997
24143SOL    HW276346   0.631   8.242   1.820  0.4544  1.7092  1.1184
24144SOL     OW76347   9.418   9.299   1.278 -0.3180 -0.5508 -0.2519
24144SOL    HW176348   9.456   9.249   1.205  1.6093  0.4908 -0.0357
24144SOL    HW276349   9.339   9.339   1.242 -0.4452 -1.5911 -1.1929
24145SOL     OW76350   7.019  10.122   0.828  1.0914 -0.4293 -0.1347
24145SOL    HW176351   6.984  10.179   0.896  2.5208  0.6718 -0.2798
24145SOL    HW276352   7.081  10.065   0.874 -0.6543 -2.2673  0.0958
24146SOL     OW76353   5.004   4.379   8.318 -0.1256 -0.6721 -0.5813
24146SOL    HW176354   4.920   4.405   8.355  0.6849 -0.7206  1.4020
24146SOL    HW276355   5.000   4.283   8.314 -0.8778 -0.6110 -2.3836
24147SOL     OW76356   7.722   9.383   4.491  0.2320 -0.4827  0.5925
24147SOL    HW176357   7.642   9.372   4.439  0.7953  1.6500 -0.9011
24147SOL    HW276358   7.703   9.457   4.549  0.7017 -0.7534  1.0949
24148SOL     OW76359   2.152   3.245   0.647  0.3606  0.1322 -0.1564
24148SOL    HW176360   2.111   3.190   0.579 -0.8178  1.0736 -0.2503
24148SOL    HW276361   2.122   3.207   0.729  0.1823  0.1607 -0.2067
24149SOL     OW76362   7.335   7.064   8.464 -0.1920 -0.8382  0.8896
24149SOL    HW176363   7.350   7.045   8.371  1.6256  2.5163  0.3319
24149SOL    HW276364   7.323   6.978   8.504  1.8347 -2.6572 -1.9887
24150SOL     OW76365   7.260   0.667   1.967 -0.7974 -0.5238 -0.2871
24150SOL    HW176366   7.264   0.724   1.891 -1.6320  2.7567  1.9410
24150SOL    HW276367   7.166   0.656   1.984 -0.7018  1.2534  1.8404
24151SOL     OW76368   2.771   5.199   7.219 -0.2034 -0.1803 -0.0507
24151SOL    HW176369   2.746   5.274   7.272  1.4398 -0.2619  0.8969
24151SOL    HW276370   2.723   5.211   7.137 -1.7594  0.6557  0.9282
24152SOL     OW76371   9.945   7.065   3.126  0.9347 -0.2073  0.1660
24152SOL    HW176372   9.932   7.144   3.178  0.1625 -0.3474  0.2038
24152SOL    HW276373  10.020   7.021   3.166  0.6242 -0.0952  0.8909
24153SOL     OW76374   4.039   6.260   6.303  0.6140 -0.8288 -0.0601
24153SOL    HW176375   4.111   6.293   6.357  0.5442  0.4120 -0.6986
24153SOL    HW276376   4.054   6.299   6.217 -1.0423 -0.2350 -0.0964
24154SOL     OW76377   3.349   2.421   0.585 -0.5630  0.2823  0.0235
24154SOL    HW176378   3.384   2.364   0.654 -0.3124 -0.5331 -0.7692
24154SOL    HW276379   3.418   2.485   0.570  0.2980 -0.8137 -0.9381
24155SOL     OW76380   8.920   6.141   6.907  0.4674  0.0115  0.3668
24155SOL    HW176381   8.872   6.208   6.859  0.1414 -0.1037  0.5355
24155SOL    HW276382   8.879   6.058   6.883  1.9426 -0.3354 -1.1897
24156SOL     OW76383   3.791   4.723   4.148 -0.0257 -0.4328  1.1702
24156SOL    HW176384   3.718   4.666   4.124 -0.3213  0.1898  0.5720
24156SOL    HW276385   3.767   4.757   4.234 -1.4741  1.4011  0.1119
24157SOL     OW76386   9.707   0.409   5.883 -0.2034 -0.0693 -0.1779
24157SOL    HW176387   9.745   0.337   5.833  0.7475  0.1888  0.1568
24157SOL    HW276388   9.782   0.453   5.922 -0.8496  0.4740  0.4738
24158SOL     OW76389   5.463   6.448   3.062 -0.1798  0.2917 -0.6540
24158SOL    HW176390   5.463   6.397   2.981 -1.0913  0.2838 -0.6698
24158SOL    HW276391   5.469   6.539   3.034  0.1556  0.2534 -0.6990
24159SOL     OW76392   0.634   4.761   5.139 -0.1551 -0.0121  0.0472
24159SOL    HW176393   0.630   4.832   5.075 -0.1865  0.9396  1.0806
24159SOL    HW276394   0.724   4.764   5.173  0.4016 -1.6286 -1.1621
24160SOL     OW76395   3.487   0.878   7.026  0.1106  0.5795  0.2253
24160SOL    HW176396   3.477   0.810   7.093 -0.2599 -0.0455 -0.4541
24160SOL    HW276397   3.502   0.830   6.945 -1.8605  1.2360 -0.5728
24161SOL     OW76398   1.646   0.712   9.833  0.1272 -0.5727 -0.1688
24161SOL    HW176399   1.588   0.636   9.836  3.6364 -3.5377  2.7273
24161SOL    HW276400   1.721   0.683   9.780  1.0531  1.3047  0.0198
24162SOL     OW76401   2.097   8.675   4.984  0.0353 -0.5484 -0.4703
24162SOL    HW176402   2.087   8.728   4.905  3.5028 -0.9164 -1.3045
24162SOL    HW276403   2.100   8.738   5.055 -1.9959 -0.1399 -0.6756
24163SOL     OW76404   6.299   5.049   1.053 -0.2577 -0.4506 -0.2845
24163SOL    HW176405   6.294   5.136   1.091  0.8806 -0.6695  0.4158
24163SOL    HW276406   6.228   5.000   1.095  0.2434 -0.3584  0.7051
24164SOL     OW76407   4.181   1.864   0.894  0.2063 -0.1616  0.2775
24164SOL    HW176408   4.128   1.836   0.968  1.0938  0.2423  1.0943
24164SOL    HW276409   4.119   1.901   0.832 -0.3564  1.6734  1.8445
24165SOL     OW76410   6.914   4.761   5.187  0.6636 -0.2134 -0.1391
24165SOL    HW176411   6.888   4.733   5.100  0.1231  0.6793 -0.2715
24165SOL    HW276412   6.954   4.683   5.226  1.4890 -0.4442 -1.4014
24166SOL     OW76413   3.466   0.503   6.011  0.5460  0.7380 -0.1648
24166SOL    HW176414   3.411   0.463   5.943 -0.5551 -0.1721  1.1851
24166SOL    HW276415   3.404   0.535   6.076  1.5793  0.3544  1.0636
24167SOL     OW76416   7.007   8.811   8.910 -0.2918  0.1942  0.1261
24167SOL    HW176417   7.049   8.777   8.831  2.4952  0.8463  1.2124
24167SOL    HW276418   7.059   8.887   8.935 -0.4701 -0.4969  3.0674
24168SOL     OW76419   1.194   7.354   5.294  0.0611 -0.3172 -0.7366
24168SOL    HW176420   1.179   7.296   5.220 -0.3758 -0.5900 -0.4394
24168SOL    HW276421   1.274   7.321   5.335  0.0972 -0.3944 -0.8683
24169SOL     OW76422   6.188   8.248   7.375  0.0530 -0.0763 -0.4781
24169SOL    HW176423   6.271   8.292   7.395  0.1144 -0.7887  0.9413
24169SOL    HW276424   6.157   8.291   7.295  1.6666  0.3567 -0.9039
24170SOL     OW76425   9.099  10.107   2.384  0.2292 -0.5103 -0.1870
24170SOL    HW176426   9.033  10.129   2.318 -1.2354 -1.8732  0.7236
24170SOL    HW276427   9.059  10.135   2.467  0.1578 -2.5905  0.5274
24171SOL     OW76428  10.039   0.655   6.068 -0.6792  0.5240 -0.1724
24171SOL    HW176429  10.074   0.692   5.987 -0.3324  0.6496  0.0305
24171SOL    HW276430  10.017   0.565   6.046 -1.4932  0.8314 -0.6658
24172SOL     OW76431   0.375   4.514   7.860  0.1084 -0.1489 -0.5868
24172SOL    HW176432   0.303   4.575   7.846 -0.2377  0.2639  2.4400
24172SOL    HW276433   0.413   4.540   7.944 -0.7860 -4.7349  1.5282
24173SOL     OW76434   4.771   0.547   4.273  0.2241 -0.4406 -0.2004
24173SOL    HW176435   4.735   0.464   4.239 -0.8547 -0.6809  1.4321
24173SOL    HW276436   4.696   0.589   4.316  1.2255  0.4612  0.6951
24174SOL     OW76437   9.027   0.653   1.447  0.1114  0.3115  0.5633
24174SOL    HW176438   9.122   0.670   1.445  0.0900  0.3481 -0.1264
24174SOL    HW276439   8.987   0.738   1.429 -0.0505  0.2037  0.4210
24175SOL     OW76440   8.326   6.024  10.118  0.6835  0.4765 -0.2969
24175SOL    HW176441   8.357   6.032  10.028 -0.5073 -0.5271 -0.8124
24175SOL    HW276442   8.299   6.113  10.142 -0.9481  0.3873 -1.6722
24176SOL     OW76443   5.189   5.342   9.962 -0.0793 -0.2465  0.0817
24176SOL    HW176444   5.199   5.249   9.940 -0.7837 -0.2585 -0.2224
24176SOL    HW276445   5.219   5.350  10.052  2.0946 -0.3641 -0.5824
24177SOL     OW76446   8.959   1.411   7.759 -0.7722 -0.4979 -0.0231
24177SOL    HW176447   8.974   1.316   7.757 -0.2829 -0.4200 -0.0883
24177SOL    HW276448   8.927   1.433   7.672 -0.9047 -0.6072 -0.0018
24178SOL     OW76449   9.693   2.681   3.853  0.3110 -0.1556  0.5778
24178SOL    HW176450   9.670   2.774   3.860 -1.4175 -0.4310 -0.7912
24178SOL    HW276451   9.705   2.653   3.943  0.3265  1.2766  1.0520
24179SOL     OW76452   1.199   6.602   8.037  0.1788 -0.0560 -0.2293
24179SOL    HW176453   1.171   6.681   7.992  0.4268 -0.5393 -1.2626
24179SOL    HW276454   1.179   6.618   8.129 -0.6006  0.8433 -0.5427
24180SOL     OW76455   5.272   0.007   4.617 -0.0516 -0.6394  0.0063
24180SOL    HW176456   5.236   0.069   4.681  1.6002 -0.1548  0.5097
24180SOL    HW276457   5.196  -0.043   4.588 -1.6533  2.1843 -1.1160
24181SOL     OW76458   6.458   7.073   4.854  0.3029 -0.9799 -0.1194
24181SOL    HW176459   6.546   7.046   4.825  0.4457 -1.5688  0.8269
24181SOL    HW276460   6.420   7.114   4.776  1.6003 -0.2489 -0.4067
24182SOL     OW76461   8.109   9.877   2.339 -0.4188 -0.1247  0.4537
24182SOL    HW176462   8.126   9.920   2.422 -1.2517  2.0281 -0.4075
24182SOL    HW276463   8.062   9.797   2.362 -0.9734  0.6227  2.0322
24183SOL     OW76464   8.931   3.409   4.992  0.3563 -0.1085  0.5175
24183SOL    HW176465   8.967   3.457   4.917 -2.5923 -0.6763 -1.4545
24183SOL    HW276466   8.964   3.320   4.981  1.1700  0.1492  0.8140
24184SOL     OW76467   7.421   5.901   7.606  0.2359 -0.3416 -0.2459
24184SOL    HW176468   7.417   5.858   7.520  0.8955 -0.9449  0.0136
24184SOL    HW276469   7.393   5.991   7.589  1.6254 -0.0828 -1.3595
24185SOL     OW76470   2.720   0.534   8.299  0.3068 -0.3015 -0.2817
24185SOL    HW176471   2.756   0.481   8.371 -1.1475 -0.2895  0.4886
24185SOL    HW276472   2.718   0.623   8.334  0.5686 -0.1205 -0.7273
24186SOL     OW76473   4.601   7.911   0.309 -0.2133  0.4107 -0.1542
24186SOL    HW176474   4.637   7.963   0.380  1.9905  1.2930 -1.7910
24186SOL    HW276475   4.587   7.974   0.238  0.9878 -0.8966 -1.6502
24187SOL     OW76476   4.764   0.690   7.423 -0.1577 -0.2500 -0.1860
24187SOL    HW176477   4.780   0.615   7.480 -1.2200 -1.0125 -0.8812
24187SOL    HW276478   4.828   0.682   7.353  0.1731 -0.1186  0.0955
24188SOL     OW76479   8.254   2.566   8.143 -0.2598 -1.0219 -0.1390
24188SOL    HW176480   8.275   2.512   8.219 -2.3612 -0.1579  1.1616
24188SOL    HW276481   8.338   2.587   8.104  0.7450 -3.4076  0.5669
24189SOL     OW76482   5.877   1.106   8.429  0.0976  0.2459 -0.0280
24189SOL    HW176483   5.947   1.061   8.381 -0.6121 -0.9344  0.0020
24189SOL    HW276484   5.868   1.057   8.511 -1.3188 -0.1683 -0.3959
24190SOL     OW76485   3.455   7.739   2.372  0.2104  0.6901  0.3600
24190SOL    HW176486   3.379   7.683   2.385  1.2042 -0.4384  1.5996
24190SOL    HW276487   3.419   7.828   2.373 -1.3486  0.1447 -1.3355
24191SOL     OW76488   6.543   5.464   2.258 -0.0387  0.4901 -0.0795
24191SOL    HW176489   6.535   5.379   2.214  0.9605  1.0818 -1.4586
24191SOL    HW276490   6.454   5.485   2.285 -0.3066 -0.9914  0.2964
24192SOL     OW76491   4.873   6.638   6.980 -0.3903  0.3113  0.2233
24192SOL    HW176492   4.902   6.594   6.900 -2.4996 -2.5549  0.9144
24192SOL    HW276493   4.778   6.632   6.979 -0.5005  0.2979  2.8980
24193SOL     OW76494  10.017   8.025   0.209 -0.2516  0.0310 -0.2890
24193SOL    HW176495  10.085   7.985   0.264 -0.4742 -0.0067 -0.0400
24193SOL    HW276496   9.997   8.108   0.253 -0.4837 -0.0329 -0.2749
24194SOL     OW76497   0.002   0.037   6.074 -0.2723 -0.0058  0.0588
24194SOL    HW176498  -0.055   0.059   6.000 -0.8242 -0.5830  0.3075
24194SOL    HW276499  -0.032  -0.045   6.107  2.0318 -1.5590 -1.1356
24195SOL     OW76500   6.916   9.757   1.365 -0.0108  0.1438  0.1065
24195SOL    HW176501   6.933   9.851   1.362  0.8697  0.0030  0.4767
24195SOL    HW276502   6.828   9.750   1.403 -0.0444  0.8131  0.1581
24196SOL     OW76503   8.105   3.188   1.291  0.3074  0.2981 -1.2403
24196SOL    HW176504   8.021   3.172   1.334  0.6202 -1.4324 -1.2315
24196SOL    HW276505   8.099   3.142   1.208  1.3695 -0.1279 -1.0959
24197SOL     OW76506   1.905   7.123   4.535  0.1793  0.1833  0.2157
24197SOL    HW176507   2.000   7.130   4.538  0.3229 -1.0084 -0.5949
24197SOL    HW276508   1.875   7.166   4.614  1.5453 -1.5652  1.7795
24198SOL     OW76509   0.267   8.009   9.812  0.5536  0.5367  0.1889
24198SOL    HW176510   0.295   8.047   9.895 -1.2349  0.6182  0.7960
24198SOL    HW276511   0.345   7.964   9.779  1.4219  0.8628  1.6919
24199SOL     OW76512   5.681   6.434   9.079  0.5544 -0.4850  0.4184
24199SOL    HW176513   5.657   6.467   8.992  1.2939  0.6836  0.6346
24199SOL    HW276514   5.598   6.423   9.125  0.2286  0.1051 -0.0180
24200SOL     OW76515   3.181   5.458   8.934 -0.2840 -0.6175  0.5366
24200SOL    HW176516   3.255   5.414   8.976  0.7828 -0.7352 -1.3471
24200SOL    HW276517   3.191   5.438   8.841 -2.4263 -0.2141  0.1691
24201SOL     OW76518   0.985   0.016   2.164  0.3276 -0.2259  0.3647
24201SOL    HW176519   0.955  -0.033   2.087 -0.8469  1.9495 -0.6603
24201SOL    HW276520   1.068   0.055   2.137  0.4453 -0.3262  0.5813
24202SOL     OW76521   8.745   8.017   2.219  0.2212  0.4674  0.1303
24202SOL    HW176522   8.720   7.928   2.195 -0.4506  0.8950 -0.8059
24202SOL    HW276523   8.683   8.042   2.287 -0.2807  0.5989 -0.3677
24203SOL     OW76524   0.143   9.568   4.947 -0.5568  0.1507 -0.1066
24203SOL    HW176525   0.158   9.543   4.856 -0.2483  1.0495 -0.3102
24203SOL    HW276526   0.201   9.643   4.962 -0.1804 -0.3524  1.0063
24204SOL     OW76527   7.037   5.558   6.269 -0.1970  0.2214  0.2400
24204SOL    HW176528   7.083   5.527   6.347  0.5526 -1.1514 -0.6907
24204SOL    HW276529   6.960   5.502   6.263  0.0750 -0.1068 -0.3221
24205SOL     OW76530   1.866   8.777   2.614  0.7203  0.2472  0.0520
24205SOL    HW176531   1.816   8.839   2.668  1.3822  0.6536  0.2148
24205SOL    HW276532   1.810   8.700   2.609 -0.7925  1.3640 -1.3824
24206SOL     OW76533   7.540   2.438   8.657 -0.5771 -0.7626  0.1378
24206SOL    HW176534   7.469   2.426   8.720 -1.7514  2.0048 -0.5054
24206SOL    HW276535   7.498   2.481   8.582  1.4151 -0.9339 -1.1491
24207SOL     OW76536   0.570   1.928   4.980  0.6065 -0.1394 -0.8927
24207SOL    HW176537   0.565   1.903   4.888 -1.6789  0.4338 -0.9899
24207SOL    HW276538   0.562   2.024   4.978 -1.4118 -0.2413 -0.0616
24208SOL     OW76539   2.073   4.175   6.526  0.1278  0.1812  0.1335
24208SOL    HW176540   2.144   4.127   6.568  0.9639  1.2852  0.0293
24208SOL    HW276541   2.072   4.260   6.570 -1.4288  0.0268  0.4344
24209SOL     OW76542   2.210   4.029   4.861 -0.1988 -0.0624  0.1077
24209SOL    HW176543   2.166   3.975   4.796 -1.7521  1.0483  0.1660
24209SOL    HW276544   2.272   4.081   4.810 -1.3707  0.7673 -0.5382
24210SOL     OW76545   0.390   6.700   7.149  0.1842 -0.0293 -0.2870
24210SOL    HW176546   0.297   6.721   7.138  0.2974 -0.0880 -1.5038
24210SOL    HW276547   0.435   6.756   7.085  1.1173  0.8459  1.0601
24211SOL     OW76548   4.510   2.496   4.787 -0.7241  0.0378 -0.2590
24211SOL    HW176549   4.605   2.497   4.776 -0.9132 -0.7702 -2.4600
24211SOL    HW276550   4.495   2.442   4.865  0.5985 -0.2814 -0.2036
24212SOL     OW76551   2.583   3.127   5.772  0.2579  0.1405  0.7478
24212SOL    HW176552   2.505   3.101   5.822  0.8621 -1.0388  1.1156
24212SOL    HW276553   2.651   3.141   5.838  0.3259  1.3708  0.4426
24213SOL     OW76554   8.678  10.178   9.198 -0.2992  0.2239  0.0912
24213SOL    HW176555   8.752  10.138   9.244 -0.7322 -0.7719 -0.0686
24213SOL    HW276556   8.714  10.260   9.164  0.2949  0.5379  1.3865
24214SOL     OW76557   7.129   3.966   5.389  0.4997 -0.6477  0.0199
24214SOL    HW176558   7.223   3.953   5.401  0.6437  0.2672 -0.0603
24214SOL    HW276559   7.122   4.034   5.322 -0.2455 -1.5677 -0.8607
24215SOL     OW76560   9.528   9.524   4.152 -0.1058 -0.0192 -0.3899
24215SOL    HW176561   9.526   9.497   4.060 -1.1233  0.9611 -0.6795
24215SOL    HW276562   9.439   9.508   4.183  0.1631 -0.1083  0.3608
24216SOL     OW76563   4.839  10.117   1.077 -0.4400 -0.2153 -0.2373
24216SOL    HW176564   4.769  10.125   1.012 -0.0215  0.4235 -0.6268
24216SOL    HW276565   4.919  10.120   1.025 -0.1186 -1.0548  0.1925
24217SOL     OW76566   3.146   7.621   4.220  0.4850  0.3948  0.8680
24217SOL    HW176567   3.216   7.575   4.268  2.4435  0.0032 -2.1053
24217SOL    HW276568   3.085   7.552   4.194  0.9882  0.1618  0.2973
24218SOL     OW76569   2.218   7.330   1.095 -0.5071  0.4348  0.5316
24218SOL    HW176570   2.170   7.376   1.164 -0.4004 -0.8816  1.5091
24218SOL    HW276571   2.156   7.325   1.022 -1.2014  0.3717  1.1210
24219SOL     OW76572   7.068   2.142   8.729 -0.2051  0.0238 -0.0718
24219SOL    HW176573   7.043   2.058   8.768 -0.7750  0.3776  0.3578
24219SOL    HW276574   7.125   2.119   8.656 -0.4488 -0.7432 -0.0322
24220SOL     OW76575   4.070   2.786   8.616 -0.1872  0.1242 -0.4361
24220SOL    HW176576   4.087   2.699   8.580 -0.4467 -0.2730  0.3917
24220SOL    HW276577   4.053   2.841   8.539 -0.0244 -0.5501 -0.9599
24221SOL     OW76578   0.648   3.414   3.678 -0.0068  0.1984 -0.3003
24221SOL    HW176579   0.584   3.373   3.736 -0.3113  0.3662 -0.5153
24221SOL    HW276580   0.649   3.360   3.600 -0.1842  0.4221 -0.4601
24222SOL     OW76581   8.150   9.684   2.069 -0.5380 -0.3274  0.4092
24222SOL    HW176582   8.239   9.705   2.040 -1.3797  0.0627 -2.1459
24222SOL    HW276583   8.147   9.711   2.160  1.9223 -0.2372  0.5093
24223SOL     OW76584   9.900   9.296   0.355  0.1309  0.3531  0.2749
24223SOL    HW176585   9.888   9.206   0.387 -0.6895  0.5755  0.6272
24223SOL    HW276586   9.979   9.327   0.401 -0.6718  0.4532  1.6600
24224SOL     OW76587   7.350   4.598   7.143 -0.0032  0.1280  0.2303
24224SOL    HW176588   7.434   4.581   7.101  0.0332  0.8944 -0.0244
24224SOL    HW276589   7.302   4.515   7.135  0.7537 -0.3384  0.4635
24225SOL     OW76590   9.628   7.070   1.576 -0.3044  0.7534  0.1277
24225SOL    HW176591   9.715   7.033   1.587 -0.9640 -0.3715  2.0931
24225SOL    HW276592   9.632   7.154   1.621  0.5107  2.0780 -2.2586
24226SOL     OW76593   2.144   7.301   7.214  0.0670  0.3110  0.0738
24226SOL    HW176594   2.188   7.381   7.242  1.2089  0.1794 -1.2434
24226SOL    HW276595   2.194   7.230   7.254 -1.4847  0.2137  1.9992
24227SOL     OW76596   7.930   7.784   5.227  0.4791  0.3946  0.0738
24227SOL    HW176597   7.864   7.742   5.282  1.3180  0.3130  1.0438
24227SOL    HW276598   7.915   7.877   5.239  1.9009  0.4279  2.0621
24228SOL     OW76599   8.267   1.564   6.105 -0.1175 -0.0621  0.0648
24228SOL    HW176600   8.350   1.516   6.108 -0.0551  0.0910  1.6166
24228SOL    HW276601   8.224   1.543   6.188 -0.4111  1.9851  0.4867
24229SOL     OW76602   7.449   7.344   4.798 -0.5108 -0.7792 -0.2828
24229SOL    HW176603   7.377   7.335   4.861 -0.3519 -0.5575 -0.0680
24229SOL    HW276604   7.420   7.412   4.738 -0.0441  0.0784  0.4259
24230SOL     OW76605   3.141   8.548   3.968 -0.0464 -0.4563 -0.1256
24230SOL    HW176606   3.049   8.574   3.973  0.3392  0.9752 -0.0746
24230SOL    HW276607   3.151   8.510   3.881 -0.3047  0.9953 -0.8108
24231SOL     OW76608   0.558   6.896   4.947 -0.2497  0.1804 -0.2590
24231SOL    HW176609   0.572   6.883   5.041 -1.8601 -2.0794 -0.2505
24231SOL    HW276610   0.534   6.810   4.914  2.2456  0.4235 -3.1881
24232SOL     OW76611   6.873   9.061   8.557 -0.2922 -0.6378 -0.8848
24232SOL    HW176612   6.901   9.126   8.492  0.1658  0.8607  0.7281
24232SOL    HW276613   6.778   9.058   8.550 -0.2186 -0.8431 -1.9164
24233SOL     OW76614   6.104   0.375   8.739  0.5263 -1.0929 -0.6071
24233SOL    HW176615   6.134   0.465   8.751  1.7141 -1.3799 -1.2086
24233SOL    HW276616   6.045   0.359   8.812 -2.8838  1.4308 -2.5440
24234SOL     OW76617   5.505   2.937   8.261  0.0598  0.5732  0.0602
24234SOL    HW176618   5.583   2.890   8.292  0.8139  1.3481 -0.6127
24234SOL    HW276619   5.539   3.018   8.223 -1.2434  1.9125  1.5996
24235SOL     OW76620   3.382   0.194   5.371 -0.2689  0.1980 -0.5427
24235SOL    HW176621   3.389   0.103   5.399  1.2474  0.7737  1.1109
24235SOL    HW276622   3.297   0.199   5.327 -0.4893 -1.9415 -0.4554
24236SOL     OW76623   6.541   4.402   5.966 -0.3176 -0.0061  0.0960
24236SOL    HW176624   6.614   4.344   5.946  1.0675  1.7993 -0.3608
24236SOL    HW276625   6.479   4.388   5.894 -0.0822 -1.0261  0.0840
24237SOL     OW76626  10.043   3.935   3.574 -0.0886 -0.1908 -0.4235
24237SOL    HW176627   9.974   3.877   3.605 -0.1033  0.3784  0.6564
24237SOL    HW276628  10.122   3.903   3.618 -0.1785  0.8613  0.5620
24238SOL     OW76629   8.804  10.118   4.281  0.1307  0.3601  0.0333
24238SOL    HW176630   8.788  10.055   4.210  0.5516  0.4460 -0.1388
24238SOL    HW276631   8.774  10.202   4.245  0.0564  0.3516  0.0740
24239SOL     OW76632   8.726   1.817   5.312 -1.2011  0.1817  0.2352
24239SOL    HW176633   8.677   1.797   5.232  0.1584  1.5138 -0.9773
24239SOL    HW276634   8.789   1.746   5.320  1.0497  1.7955 -1.9295
24240SOL     OW76635   7.179   1.170   9.076  0.5230 -0.3611  0.1430
24240SOL    HW176636   7.105   1.193   9.020  1.2244  0.1910 -0.5862
24240SOL    HW276637   7.150   1.193   9.164 -0.1679 -0.1442 -0.1293
24241SOL     OW76638   7.640   7.269   2.908 -0.1840 -0.1966  0.1357
24241SOL    HW176639   7.594   7.349   2.932  1.6617  0.9925 -0.1063
24241SOL    HW276640   7.634   7.213   2.985 -0.1047  0.8358  0.9066
24242SOL     OW76641   3.400   2.672   2.973 -0.1869 -0.3439  0.5034
24242SOL    HW176642   3.470   2.684   3.037  0.3553 -1.0468  0.0688
24242SOL    HW276643   3.384   2.760   2.938  2.7027 -0.4991 -1.6190
24243SOL     OW76644   5.690   7.976  10.040  0.1794  0.0218  0.2140
24243SOL    HW176645   5.773   8.022  10.030 -0.9119  1.8400 -1.0599
24243SOL    HW276646   5.680   7.926   9.959 -0.4702  0.6951 -0.1287
24244SOL     OW76647   8.197   2.668   2.121  0.3831 -0.2467 -0.1582
24244SOL    HW176648   8.121   2.724   2.108  0.9242  0.1728 -1.7422
24244SOL    HW276649   8.238   2.701   2.201  0.2754  1.1248 -0.6556
24245SOL     OW76650   6.270   6.819   6.577  0.1205  0.7131 -0.5254
24245SOL    HW176651   6.328   6.809   6.501  0.6267  1.3515 -0.2343
24245SOL    HW276652   6.312   6.886   6.630  0.7998 -1.0828  1.3163
24246SOL     OW76653   6.390   7.093   7.824 -0.6657  0.0651 -0.6353
24246SOL    HW176654   6.419   7.059   7.908 -1.8876 -0.0875 -0.2494
24246SOL    HW276655   6.364   7.183   7.841  1.4635  0.8884 -1.4150
24247SOL     OW76656   2.852   9.170   4.578 -0.3051  0.3469 -0.4770
24247SOL    HW176657   2.763   9.163   4.611 -0.0172 -0.6440  0.1383
24247SOL    HW276658   2.855   9.109   4.503  0.0512 -0.2092 -0.0208
24248SOL     OW76659   8.684   7.763   5.581  0.1493  0.5364 -0.1858
24248SOL    HW176660   8.733   7.810   5.514 -0.9479 -1.9754 -2.9553
24248SOL    HW276661   8.602   7.810   5.588  0.8097  1.6337  0.5090
24249SOL     OW76662   8.404   9.551  10.062 -0.2344 -0.2191 -0.4071
24249SOL    HW176663   8.375   9.463  10.039  0.1925  0.0839 -2.2111
24249SOL    HW276664   8.499   9.548  10.056 -0.0434 -0.1711  1.6784
24250SOL     OW76665   7.832   3.192   8.292 -0.0270  0.0703  0.6517
24250SOL    HW176666   7.897   3.129   8.260 -0.8736  0.0571 -1.2116
24250SOL    HW276667   7.820   3.169   8.384 -0.0299 -2.2818  0.1379
24251SOL     OW76668   2.288   4.712   0.401 -0.2220 -0.1689  0.3134
24251SOL    HW176669   2.224   4.673   0.341 -0.5173 -1.1393  1.2296
24251SOL    HW276670   2.373   4.686   0.365 -0.4059 -1.2502  0.6257
24252SOL     OW76671   4.547   5.617   3.756  0.1925 -0.1800 -0.2552
24252SOL    HW176672   4.510   5.656   3.836  0.7130  0.0830 -0.1440
24252SOL    HW276673   4.539   5.522   3.771 -2.0859 -0.1865 -0.9881
24253SOL     OW76674   9.370   0.843   5.635  0.2969  0.0399 -0.0796
24253SOL    HW176675   9.357   0.835   5.730  1.0255 -2.7420 -0.1488
24253SOL    HW276676   9.464   0.840   5.623  0.2275  0.6789 -0.9047
24254SOL     OW76677   7.278   2.044   3.398  0.1130 -0.2985 -0.4240
24254SOL    HW176678   7.314   2.123   3.439 -0.9590  0.0941 -0.2012
24254SOL    HW276679   7.295   2.055   3.305  0.6778 -0.1952 -0.3153
24255SOL     OW76680   3.552   4.559   6.473  0.3690  0.6463  0.2310
24255SOL    HW176681   3.456   4.567   6.474  0.1821 -1.2659  0.6912
24255SOL    HW276682   3.569   4.467   6.493  2.2028  0.0596 -3.2305
24256SOL     OW76683   2.010   8.781   1.890  0.0932  0.1734 -0.5168
24256SOL    HW176684   2.052   8.697   1.906  0.8356  0.8055  1.1003
24256SOL    HW276685   2.002   8.821   1.977 -1.4086  1.2358 -1.0898
24257SOL     OW76686   1.926   6.769   2.838  0.1170 -0.6331  0.3382
24257SOL    HW176687   1.906   6.768   2.745  2.4729  1.1325 -0.3132
24257SOL    HW276688   1.982   6.693   2.852  0.5127 -0.3932  0.0833
24258SOL     OW76689   8.718   8.115   2.590 -0.5739  0.1154 -0.4405
24258SOL    HW176690   8.790   8.160   2.635  0.4836  0.7811 -2.6681
24258SOL    HW276691   8.651   8.183   2.580 -0.5004  0.1803 -0.5046
24259SOL     OW76692   8.390   6.397   8.148 -0.4185 -0.7913 -0.0489
24259SOL    HW176693   8.357   6.360   8.066  1.2068 -1.1301 -0.5820
24259SOL    HW276694   8.446   6.329   8.184  3.2426  1.2461 -1.4092
24260SOL     OW76695   9.426   4.393   4.790 -0.0141  0.6370  0.4673
24260SOL    HW176696   9.390   4.449   4.722  0.0458 -0.4996 -0.5430
24260SOL    HW276697   9.379   4.418   4.870 -2.2076  0.0494 -0.5691
24261SOL     OW76698   5.928   8.868   1.126  0.3756  0.2507 -0.0876
24261SOL    HW176699   6.004   8.923   1.145  0.9036 -0.2609 -0.7018
24261SOL    HW276700   5.936   8.794   1.187 -1.6167  1.9464  2.4742
24262SOL     OW76701   0.297   0.031   1.813  0.0682  0.8075 -0.3804
24262SOL    HW176702   0.380   0.034   1.764  0.3743 -0.8564 -0.0274
24262SOL    HW276703   0.294   0.115   1.859  0.6036  1.7039 -1.8727
24263SOL     OW76704   5.362   6.998   2.117 -0.9495 -0.5629 -0.0454
24263SOL    HW176705   5.292   6.965   2.060 -0.9710 -0.7536  0.0941
24263SOL    HW276706   5.403   6.920   2.153 -1.8705 -0.4365  1.3451
24264SOL     OW76707   9.958   4.088   3.262  0.2244  0.3772 -0.2143
24264SOL    HW176708   9.960   4.150   3.335 -0.6493  0.3986 -0.1989
24264SOL    HW276709   9.896   4.021   3.290  0.9774 -0.3876 -0.3309
24265SOL     OW76710   2.677   3.192   4.281 -0.1096 -0.6209 -0.2444
24265SOL    HW176711   2.650   3.137   4.207  0.6094 -0.5602 -0.5645
24265SOL    HW276712   2.720   3.267   4.240  1.0269 -0.9779  0.2331
24266SOL     OW76713   2.343   9.399   3.082  0.0458 -0.0108  0.0421
24266SOL    HW176714   2.250   9.384   3.064  0.3863 -2.6445  0.1035
24266SOL    HW276715   2.381   9.422   2.997 -0.6780  1.3794  0.0708
24267SOL     OW76716   7.382   5.795   3.860  0.4544 -0.4125 -0.0678
24267SOL    HW176717   7.345   5.788   3.947  1.9633  1.9726  0.8742
24267SOL    HW276718   7.433   5.876   3.862 -0.6692  0.5595 -3.6290
24268SOL     OW76719   2.516   6.525   9.367  0.3940 -0.0732  0.0191
24268SOL    HW176720   2.479   6.494   9.450  1.2967  3.2543  1.8574
24268SOL    HW276721   2.610   6.512   9.376  0.5605  0.9192 -0.1720
24269SOL     OW76722   7.263   2.844   3.170 -0.0207  0.1799 -0.8746
24269SOL    HW176723   7.302   2.773   3.221 -0.6179  1.2459  1.1951
24269SOL    HW276724   7.172   2.819   3.159 -0.4448  0.9326  0.5927
24270SOL     OW76725   3.335   4.108   0.740 -0.0572 -0.0516  0.0123
24270SOL    HW176726   3.316   4.082   0.830  0.7586 -0.0898  0.1873
24270SOL    HW276727   3.262   4.073   0.688 -0.0907 -0.7897  0.5432
24271SOL     OW76728   3.793   9.300   1.095 -0.1172 -0.1539  0.1993
24271SOL    HW176729   3.778   9.217   1.140 -1.5337 -1.0899 -1.8556
24271SOL    HW276730   3.867   9.284   1.037  0.0222  0.2225  0.2704
24272SOL     OW76731   3.870   8.098   8.196 -0.1690  0.3691  0.2727
24272SOL    HW176732   3.819   8.023   8.164 -0.9893  0.0082  2.2791
24272SOL    HW276733   3.858   8.165   8.129 -1.7504 -0.3580 -0.2323
24273SOL     OW76734   2.988   2.256   5.391 -0.1161 -0.3124 -0.0459
24273SOL    HW176735   3.081   2.274   5.400 -0.0637 -0.1837 -0.7258
24273SOL    HW276736   2.965   2.204   5.468  1.1010 -2.6368 -1.1499
24274SOL     OW76737   0.111   3.937   6.684  0.1124 -0.1205 -0.2803
24274SOL    HW176738   0.110   3.874   6.756 -0.0238  0.6703  0.4248
24274SOL    HW276739   0.202   3.937   6.654  0.3969  0.2548  0.5461
24275SOL     OW76740   7.893   6.037   2.617 -0.4062 -0.5554 -0.7826
24275SOL    HW176741   7.927   6.126   2.623  0.7831 -1.0134 -0.4423
24275SOL    HW276742   7.951   5.985   2.673 -0.6525 -1.6715 -1.5307
24276SOL     OW76743   7.747   7.336   4.470 -0.2804 -0.7556 -0.2345
24276SOL    HW176744   7.759   7.329   4.376  0.5152  0.5995 -0.2756
24276SOL    HW276745   7.822   7.289   4.508  1.8600  2.2189 -0.4036
24277SOL     OW76746   9.036   3.392   1.687 -0.0220  0.0650 -0.3141
24277SOL    HW176747   8.995   3.475   1.712  0.2759 -0.5280  2.3715
24277SOL    HW276748   9.130   3.407   1.700 -0.0853 -1.2193  2.1612
24278SOL     OW76749   5.723   2.848   3.017  0.2281 -0.1913 -0.1910
24278SOL    HW176750   5.774   2.837   2.937 -0.0241 -0.7773 -0.2769
24278SOL    HW276751   5.733   2.940   3.039  0.3336 -0.0333 -0.8744
24279SOL     OW76752   6.727   7.604   4.907  0.1683  0.5976 -0.1976
24279SOL    HW176753   6.814   7.593   4.944 -0.0060  0.8088  0.2749
24279SOL    HW276754   6.693   7.515   4.898  1.6717  0.1927 -3.4361
24280SOL     OW76755   4.435   7.857   2.391 -0.0705  0.1433 -0.6951
24280SOL    HW176756   4.361   7.812   2.433  1.8828 -1.9473  0.7252
24280SOL    HW276757   4.433   7.945   2.427 -1.8855  0.1746 -0.7670
24281SOL     OW76758   0.400   4.302   4.647 -0.1930 -0.4888 -0.4398
24281SOL    HW176759   0.333   4.301   4.715 -0.9819  0.5118 -1.1525
24281SOL    HW276760   0.470   4.357   4.683 -0.6200  0.0648 -0.4431
24282SOL     OW76761   0.198   9.578   6.394 -0.0153 -0.3325  0.3831
24282SOL    HW176762   0.272   9.537   6.351 -0.1550 -0.4084  0.2116
24282SOL    HW276763   0.208   9.557   6.487  1.8025  2.1270  0.8301
24283SOL     OW76764   0.741   1.389   1.806 -0.2600 -0.3240  0.1579
24283SOL    HW176765   0.783   1.320   1.857 -0.6374  0.0977  1.0586
24283SOL    HW276766   0.722   1.458   1.870 -0.2669  0.4348 -0.6519
24284SOL     OW76767   1.265   3.441   6.836  0.0798  0.1658  0.4302
24284SOL    HW176768   1.177   3.444   6.799 -0.3968 -3.3525  0.8996
24284SOL    HW276769   1.324   3.444   6.760 -0.4713  0.9159  0.0143
24285SOL     OW76770   3.326   6.348   2.312  0.5218  0.3158  0.1140
24285SOL    HW176771   3.271   6.287   2.264  0.1645  1.0440 -0.4315
24285SOL    HW276772   3.363   6.297   2.383 -2.2016  0.1573  1.5633
24286SOL     OW76773   3.538   7.383   0.301  0.1086 -0.2078 -0.5945
24286SOL    HW176774   3.526   7.306   0.356  0.9824  0.9163  1.2790
24286SOL    HW276775   3.512   7.354   0.213 -0.9659 -2.1917  0.3029
24287SOL     OW76776   1.405   6.622   4.467 -0.4439  0.9832  0.2719
24287SOL    HW176777   1.489   6.665   4.457  0.4146 -0.3053  1.5770
24287SOL    HW276778   1.356   6.679   4.526  0.3432  0.6327  1.2755
24288SOL     OW76779   8.700   0.777   2.039  0.0211  0.2557 -0.3932
24288SOL    HW176780   8.790   0.743   2.038 -0.7055 -1.8438 -0.5067
24288SOL    HW276781   8.695   0.834   1.963  2.0347  2.7986  1.2274
24289SOL     OW76782   3.852   1.020   3.085 -0.5456  0.7398  0.2376
24289SOL    HW176783   3.916   1.058   3.145 -0.1181  0.8979 -0.3139
24289SOL    HW276784   3.806   0.954   3.137  1.8839 -1.3379 -0.0359
24290SOL     OW76785   6.813   5.166   0.430  0.2627  0.0748 -0.0941
24290SOL    HW176786   6.730   5.143   0.473 -0.1370  2.6611  0.6906
24290SOL    HW276787   6.787   5.203   0.346  0.9014 -2.3992 -1.4732
24291SOL     OW76788   1.103   4.190   2.156  0.2534 -0.2089  0.3395
24291SOL    HW176789   1.167   4.168   2.223  0.3680  0.1863  0.3594
24291SOL    HW276790   1.067   4.275   2.183  1.0071  0.4415 -0.6146
24292SOL     OW76791   6.461   7.682   7.610 -0.7474  0.8404  0.2435
24292SOL    HW176792   6.475   7.614   7.675  2.3655 -1.6516 -2.7086
24292SOL    HW276793   6.394   7.647   7.551  0.8045  0.2727 -1.2447
24293SOL     OW76794   7.241   7.852   2.477  0.2511  0.1815  0.0505
24293SOL    HW176795   7.193   7.935   2.476 -0.7695 -0.3867 -0.0402
24293SOL    HW276796   7.230   7.819   2.566 -0.8326 -0.6608 -0.3678
24294SOL     OW76797   2.778   8.803   7.832  0.2981 -0.0375  0.3742
24294SOL    HW176798   2.764   8.744   7.907  1.3875 -1.2267 -0.3046
24294SOL    HW276799   2.742   8.755   7.757  0.9519  0.2820 -0.1504
24295SOL     OW76800   1.658   9.566   5.113 -0.5507  0.1528 -0.3417
24295SOL    HW176801   1.715   9.607   5.179  2.4360  0.3126 -2.8077
24295SOL    HW276802   1.705   9.486   5.088 -3.2488 -1.6535 -0.0398
24296SOL     OW76803   3.489   7.796   7.427 -0.2011  0.5170  0.3654
24296SOL    HW176804   3.522   7.709   7.403  1.0104  0.7530  1.1061
24296SOL    HW276805   3.410   7.779   7.479 -0.1875 -0.1154  0.1855
24297SOL     OW76806   8.107   7.875   8.051 -0.1326 -0.1066 -0.4150
24297SOL    HW176807   8.155   7.893   7.971 -0.6972  0.3854 -0.6514
24297SOL    HW276808   8.129   7.949   8.109  0.2801 -0.4640 -0.1120
24298SOL     OW76809   7.778   0.749   6.545 -0.1582 -0.3121 -0.1909
24298SOL    HW176810   7.708   0.805   6.578  0.5576  0.9032 -0.7047
24298SOL    HW276811   7.774   0.757   6.450 -0.2341 -1.3845 -0.2984
24299SOL     OW76812   4.781   7.688   8.144  0.2035 -0.2089  0.1533
24299SOL    HW176813   4.716   7.619   8.159 -1.4007  1.4202  1.2628
24299SOL    HW276814   4.779   7.703   8.050 -1.5878  0.2449  0.2247
24300SOL     OW76815   9.944   3.463   4.926 -0.4057  0.0460 -0.1798
24300SOL    HW176816  10.031   3.501   4.914 -0.1299 -0.3477  0.4910
24300SOL    HW276817   9.894   3.531   4.972  0.3350 -0.6475  1.7807
24301SOL     OW76818   0.133   4.694   3.621 -0.1366  0.3564  0.3431
24301SOL    HW176819   0.226   4.714   3.612 -0.6133  2.4503 -0.3227
24301SOL    HW276820   0.113   4.714   3.713 -0.6778  3.6074 -0.3811
24302SOL     OW76821   5.193   2.718   7.491  0.4402 -0.3348 -0.3531
24302SOL    HW176822   5.276   2.729   7.537  1.5904 -1.9000 -1.8923
24302SOL    HW276823   5.168   2.807   7.465  2.4519  0.0565 -1.1625
24303SOL     OW76824   7.749   2.289   8.031 -0.5742 -0.2361 -0.3877
24303SOL    HW176825   7.696   2.327   8.101  0.1482 -0.8994  0.5662
24303SOL    HW276826   7.818   2.353   8.015 -0.2709 -0.4360  0.0959
24304SOL     OW76827   5.392   0.994   8.619  0.5059  0.2940  0.6513
24304SOL    HW176828   5.389   1.021   8.711  0.2349  0.8736  0.4783
24304SOL    HW276829   5.388   0.899   8.621 -0.1171  0.3270  1.2176
24305SOL     OW76830   6.211   4.352   3.077 -0.4720  0.4626  0.5639
24305SOL    HW176831   6.116   4.341   3.073 -0.6420  1.3400  1.6710
24305SOL    HW276832   6.239   4.354   2.985 -1.2609 -1.6723  0.2105
24306SOL     OW76833   1.668   7.272   0.378  0.5996  0.0495  0.1304
24306SOL    HW176834   1.588   7.221   0.366  1.6209 -1.2190 -1.8767
24306SOL    HW276835   1.710   7.234   0.455  0.3160 -0.7758 -0.1121
24307SOL     OW76836   3.674   2.301   9.717  0.0241 -0.0943 -0.0902
24307SOL    HW176837   3.598   2.353   9.741  0.3056  0.3256 -0.1039
24307SOL    HW276838   3.723   2.356   9.656  1.5625  0.6244  1.6855
24308SOL     OW76839   5.745  10.116   3.759 -0.3457  0.0057  0.4313
24308SOL    HW176840   5.783  10.116   3.671 -0.6078 -1.1070  0.3142
24308SOL    HW276841   5.685  10.191   3.758 -0.8336 -0.3792 -0.5509
24309SOL     OW76842   8.445   7.256   9.424  0.4112 -0.3432 -0.1530
24309SOL    HW176843   8.383   7.231   9.493 -0.5599 -0.1467 -0.9259
24309SOL    HW276844   8.520   7.198   9.436  0.3483 -0.1837  1.1860
24310SOL     OW76845   6.312   7.842   0.735 -0.5092  0.5231  0.0208
24310SOL    HW176846   6.360   7.918   0.766  1.0855 -0.6112  0.4750
24310SOL    HW276847   6.380   7.782   0.704 -1.6502 -1.0537  0.4533
24311SOL     OW76848   0.440   2.071   8.404  0.4592 -0.3217  0.6150
24311SOL    HW176849   0.469   2.087   8.314 -0.7206 -1.4805 -0.0001
24311SOL    HW276850   0.458   1.978   8.420  2.2868  0.2337  2.2394
24312SOL     OW76851   0.653   3.479   5.072  0.0856  0.0257 -0.1685
24312SOL    HW176852   0.737   3.484   5.026  0.6494  1.8020  0.9294
24312SOL    HW276853   0.606   3.557   5.045 -0.0211  0.5240  1.3626
24313SOL     OW76854   1.347   8.537   1.947  0.2562 -0.2349  0.7958
24313SOL    HW176855   1.343   8.631   1.929  2.8287 -0.0551  0.7963
24313SOL    HW276856   1.356   8.497   1.861  1.5401 -0.2545  0.9183
24314SOL     OW76857   2.306   2.889   7.143  0.1217 -0.4773 -0.0138
24314SOL    HW176858   2.311   2.939   7.062  1.8260  1.3412  1.1191
24314SOL    HW276859   2.237   2.825   7.127  0.6178 -0.4106 -2.9839
24315SOL     OW76860   6.588   8.193   2.635  0.4301 -0.1988  0.2641
24315SOL    HW176861   6.535   8.223   2.560 -0.8731 -2.9451 -0.0330
24315SOL    HW276862   6.526   8.189   2.708  1.7576  2.7725  1.7366
24316SOL     OW76863   3.154   6.190   0.320  0.0722 -0.0371 -0.1896
24316SOL    HW176864   3.135   6.097   0.337 -1.4088  0.4948  1.3115
24316SOL    HW276865   3.198   6.190   0.235 -0.7086 -2.0394 -0.6466
24317SOL     OW76866   6.438   5.503   2.589 -0.2910 -0.2273 -0.3131
24317SOL    HW176867   6.515   5.478   2.641  0.3804 -0.7821 -1.5369
24317SOL    HW276868   6.474   5.530   2.504 -0.8710  4.8373  0.7012
24318SOL     OW76869   2.645   7.071   2.318 -0.6854  0.4628 -0.2040
24318SOL    HW176870   2.610   7.154   2.352 -0.4145  0.4569  0.0971
24318SOL    HW276871   2.579   7.006   2.342 -0.2783  0.3827  0.7393
24319SOL     OW76872   2.610   2.078   0.846  0.2901  0.1058  0.1310
24319SOL    HW176873   2.658   2.012   0.897 -1.3066  0.4265  2.1860
24319SOL    HW276874   2.518   2.060   0.865 -0.4035  0.2690 -2.7284
24320SOL     OW76875   0.959   9.447   7.586 -0.1290 -0.1994 -0.8274
24320SOL    HW176876   0.893   9.378   7.595  0.2777 -0.4672  0.2839
24320SOL    HW276877   0.908   9.528   7.584 -0.5936 -0.5002 -1.8777
24321SOL     OW76878   3.824   6.027   7.029  0.0748 -0.3548 -0.1548
24321SOL    HW176879   3.902   6.003   7.079  0.3464 -4.5287 -2.1668
24321SOL    HW276880   3.791   5.944   6.994 -4.2832  1.4173 -0.9288
24322SOL     OW76881   4.492   3.265   3.216 -0.6517 -0.2030  0.3462
24322SOL    HW176882   4.487   3.321   3.293 -2.0377  0.9855 -0.5640
24322SOL    HW276883   4.405   3.270   3.176  0.1220 -0.5058 -1.4878
24323SOL     OW76884   3.386   0.411   8.184  0.1239  0.2930 -0.4941
24323SOL    HW176885   3.338   0.493   8.177 -1.5182 -0.6135 -0.4596
24323SOL    HW276886   3.418   0.394   8.095 -0.9169  0.1841 -0.8595
24324SOL     OW76887   0.970   2.505   1.593 -0.6319  0.4098 -0.2369
24324SOL    HW176888   1.006   2.557   1.520 -1.2361  0.8529 -0.2244
24324SOL    HW276889   1.032   2.519   1.664 -1.4308  2.1688  0.1702
24325SOL     OW76890   5.790   8.984   9.626  0.3333  0.4044  0.1630
24325SOL    HW176891   5.882   8.967   9.646 -0.0367 -0.9534  0.8304
24325SOL    HW276892   5.791   9.065   9.574  1.9190  0.2491 -0.0930
24326SOL     OW76893   9.911   9.359   1.801 -0.4451 -0.1592 -0.0778
24326SOL    HW176894   9.841   9.347   1.736 -1.5260  1.3657  0.7474
24326SOL    HW276895   9.897   9.447   1.836  0.1995 -0.8675  2.1284
24327SOL     OW76896   3.874   5.453   6.624  0.4339  0.0140 -0.4121
24327SOL    HW176897   3.841   5.536   6.658  0.9342  0.2933 -0.5899
24327SOL    HW276898   3.853   5.389   6.692 -0.0704  0.2577 -0.3317
24328SOL     OW76899  10.115   1.701   0.911  0.6273  0.1308 -0.5511
24328SOL    HW176900  10.174   1.646   0.963  1.8317  0.1790 -1.7844
24328SOL    HW276901  10.031   1.656   0.912  0.5797  0.2032  1.4962
24329SOL     OW76902   2.873   1.234   0.666 -0.4934 -0.4664 -0.0172
24329SOL    HW176903   2.913   1.153   0.697  0.6792  0.4035  0.8098
24329SOL    HW276904   2.797   1.247   0.723 -0.7290 -0.9936 -0.1966
24330SOL     OW76905   3.083   9.754   8.910  0.4591  0.5787 -1.0765
24330SOL    HW176906   3.122   9.832   8.949 -1.0435  0.3593  1.0415
24330SOL    HW276907   2.994   9.780   8.889 -0.5662 -0.9010  1.0761
24331SOL     OW76908   2.180   8.378   7.081 -0.0254  0.3896 -0.3130
24331SOL    HW176909   2.128   8.402   7.158 -0.4674 -1.1319 -0.1080
24331SOL    HW276910   2.115   8.360   7.013  0.2696 -0.3789 -0.4012
24332SOL     OW76911   3.584   1.560   4.943  0.7905 -0.6018 -0.0332
24332SOL    HW176912   3.550   1.473   4.965  0.2134 -0.3236  0.2004
24332SOL    HW276913   3.655   1.543   4.881 -0.6434 -1.1632 -1.6277
24333SOL     OW76914   0.511   3.116   0.578  0.0195 -0.0737  0.0110
24333SOL    HW176915   0.428   3.109   0.625  0.1448 -0.3353  0.1935
24333SOL    HW276916   0.563   3.176   0.631 -0.4671  1.0398 -0.7107
24334SOL     OW76917   3.786   6.189   1.525 -0.3426 -0.2535  0.0224
24334SOL    HW176918   3.705   6.231   1.556 -0.6035 -0.2463 -0.6657
24334SOL    HW276919   3.851   6.259   1.529 -0.5397 -0.0580 -0.1299
24335SOL     OW76920   3.853   3.433   6.669  0.7758  0.0092 -0.0592
24335SOL    HW176921   3.883   3.484   6.744 -0.0864 -0.7752  0.8530
24335SOL    HW276922   3.917   3.451   6.600  1.2743  1.1772  0.6839
24336SOL     OW76923  10.085   0.070   6.926  0.1991  0.0804 -0.5375
24336SOL    HW176924  10.159   0.067   6.987 -0.4386 -0.3434  0.2289
24336SOL    HW276925  10.094   0.155   6.884  0.0815  0.8401  0.8944
24337SOL     OW76926   7.918   9.362   3.696 -0.4194 -0.3562  0.1711
24337SOL    HW176927   7.991   9.350   3.757 -1.0017 -0.7014  0.8181
24337SOL    HW276928   7.844   9.387   3.752 -0.3216  2.0290 -0.6592
24338SOL     OW76929   1.558   2.834   3.971  0.0133 -0.3510 -0.1381
24338SOL    HW176930   1.625   2.787   3.921 -0.4377 -1.3740  0.2070
24338SOL    HW276931   1.605   2.909   4.008  0.4939  0.1030 -1.5757
24339SOL     OW76932   9.623   6.710   3.333 -0.3371 -0.0052 -0.0933
24339SOL    HW176933   9.699   6.766   3.319 -0.4771 -0.0218 -0.9803
24339SOL    HW276934   9.652   6.623   3.309 -1.2848  0.3502 -2.8390
24340SOL     OW76935   1.413   2.078   3.466 -0.1454  0.0554  0.0483
24340SOL    HW176936   1.435   2.148   3.528  0.5081 -1.9666  2.2556
24340SOL    HW276937   1.498   2.041   3.441 -0.5193 -0.4893 -0.4361
24341SOL     OW76938   5.248  10.105   2.225 -0.5550 -0.3285  0.1720
24341SOL    HW176939   5.214  10.161   2.156  0.5830  0.1446 -0.0332
24341SOL    HW276940   5.324  10.062   2.185 -0.3521 -0.6425  0.8854
24342SOL     OW76941   6.325   6.984   0.277 -0.2464  0.2907 -0.3872
24342SOL    HW176942   6.283   7.070   0.273 -1.1564 -0.0290  1.3278
24342SOL    HW276943   6.410   7.000   0.319 -1.6827  0.0189  2.9046
24343SOL     OW76944   9.068   5.125   3.444  0.2704  0.5924 -0.4010
24343SOL    HW176945   9.125   5.154   3.373 -1.1972  1.2814 -1.3486
24343SOL    HW276946   8.998   5.076   3.400 -0.2529  0.3645  0.6495
24344SOL     OW76947   7.270   5.545   9.386  0.2806 -0.0820 -0.0392
24344SOL    HW176948   7.209   5.579   9.452  1.2499 -0.1128  0.9194
24344SOL    HW276949   7.236   5.459   9.363 -1.8022  1.1537 -1.9442
24345SOL     OW76950   2.280   8.232   8.079 -0.3926 -0.0203 -0.0257
24345SOL    HW176951   2.223   8.205   8.007 -0.7856 -0.0007  0.2747
24345SOL    HW276952   2.239   8.312   8.113 -1.4909 -1.2120  1.6482
24346SOL     OW76953   3.421   2.790   6.282 -0.1787 -0.2423  0.4967
24346SOL    HW176954   3.445   2.861   6.341 -0.0646 -0.8892  1.2553
24346SOL    HW276955   3.354   2.827   6.225  0.5295  0.7326  0.2731
24347SOL     OW76956   1.051  10.001   7.980 -0.7718 -0.3433  0.3016
24347SOL    HW176957   0.985  10.070   7.978  0.0290  0.4744  1.1977
24347SOL    HW276958   1.014   9.931   7.926 -1.6973  0.6849 -0.4363
24348SOL     OW76959   0.663   0.314   3.820 -0.9301  0.5953 -0.1731
24348SOL    HW176960   0.644   0.357   3.903  0.8764 -0.0751  0.6251
24348SOL    HW276961   0.749   0.275   3.832 -1.3070 -0.8579 -1.8328
24349SOL     OW76962   9.631   3.906   1.935  0.5182  0.8578  0.1386
24349SOL    HW176963   9.680   3.823   1.941  0.1646 -0.3291 -6.0529
24349SOL    HW276964   9.548   3.888   1.978  1.1968 -1.3075  0.6747
24350SOL     OW76965   4.183   7.037   3.646  0.3359  0.3486  0.3859
24350SOL    HW176966   4.168   7.129   3.668 -0.4316  0.0802  1.0406
24350SOL    HW276967   4.124   7.019   3.574  0.3494  0.3205  0.3818
24351SOL     OW76968   5.263   1.061   0.156 -0.4196  0.4934 -0.2882
24351SOL    HW176969   5.216   0.979   0.142  1.2914 -0.4461 -0.7147
24351SOL    HW276970   5.342   1.036   0.204  1.1905  1.5359 -2.2358
24352SOL     OW76971   7.127   8.194   2.815 -0.4730 -0.4488  0.1146
24352SOL    HW176972   7.199   8.247   2.850 -0.2871 -1.0189  0.6211
24352SOL    HW276973   7.102   8.137   2.887  0.0565 -1.8022 -0.7302
24353SOL     OW76974   7.591   2.364   1.976 -0.0312 -0.0010 -0.2025
24353SOL    HW176975   7.613   2.360   1.883  0.1073  1.0952 -0.2250
24353SOL    HW276976   7.664   2.411   2.016 -0.3946  0.0878  0.3637
24354SOL     OW76977   1.361   9.621   8.187  0.0574 -0.2666  0.2736
24354SOL    HW176978   1.432   9.647   8.128 -0.4177 -0.1330 -0.2499
24354SOL    HW276979   1.336   9.701   8.232  0.3300 -0.3426  0.5664
24355SOL     OW76980   5.344   4.239   4.061  0.7011 -0.8424  0.0903
24355SOL    HW176981   5.373   4.330   4.055  2.5045 -1.4237 -0.4107
24355SOL    HW276982   5.350   4.218   4.154  1.3716 -0.8010  0.0555
24356SOL     OW76983   2.520   1.195   5.418 -0.4283 -0.0670 -0.0359
24356SOL    HW176984   2.505   1.200   5.512  1.4308 -1.1584  0.3762
24356SOL    HW276985   2.613   1.175   5.410 -1.1072 -3.0978 -1.9918
24357SOL     OW76986   1.780   9.857   9.451 -0.3301 -0.7080 -0.2697
24357SOL    HW176987   1.820   9.853   9.538  0.1837  1.1104 -0.3706
24357SOL    HW276988   1.723   9.934   9.455  0.1535 -0.2424 -1.7001
24358SOL     OW76989   6.371   9.159   1.292  0.3074  0.2090 -0.1652
24358SOL    HW176990   6.444   9.191   1.345 -0.5171 -0.6771  1.5853
24358SOL    HW276991   6.303   9.226   1.302 -0.3930 -0.6523  1.1960
24359SOL     OW76992   3.983   2.652   9.052  0.8285  0.1638  0.5011
24359SOL    HW176993   3.968   2.676   8.961  0.1554 -1.3198  0.1936
24359SOL    HW276994   4.062   2.598   9.051  0.1376 -0.8785  0.5984
24360SOL     OW76995   7.777   0.997   5.612  0.3872 -0.1464 -0.8005
24360SOL    HW176996   7.703   1.042   5.571 -0.2083 -0.5233 -0.1553
24360SOL    HW276997   7.853   1.050   5.588  0.1126 -0.5740 -2.6996
24361SOL     OW76998   8.638   4.210   7.614 -0.5515  0.2415  0.6694
24361SOL    HW176999   8.664   4.287   7.563 -1.8388  0.8681  0.9220
24361SOL    HW277000   8.555   4.182   7.576  0.4001 -1.7092 -0.1143
24362SOL     OW77001   9.398   8.477   7.716 -0.0251  0.0950 -0.1744
24362SOL    HW177002   9.368   8.446   7.630 -1.3098 -0.2548  0.3665
24362SOL    HW277003   9.410   8.398   7.767  0.5866  0.3094  0.0159
24363SOL     OW77004   9.144   4.157   3.630  0.0193 -0.5216  0.3173
24363SOL    HW177005   9.174   4.221   3.565 -1.0038  0.8594  1.1422
24363SOL    HW277006   9.050   4.146   3.612  0.0521 -1.3093  0.5869
24364SOL     OW77007   6.312   2.681   1.875  0.4820 -0.9276  0.8626
24364SOL    HW177008   6.219   2.686   1.857  0.9920 -0.0412 -1.9163
24364SOL    HW277009   6.338   2.593   1.846  0.3383 -1.8033  3.0996
24365SOL     OW77010   7.686   8.804   8.933  0.0589 -0.3578  0.0597
24365SOL    HW177011   7.660   8.820   9.024  0.7113 -1.8027  0.5170
24365SOL    HW277012   7.748   8.731   8.937  2.5650  1.5446 -1.2230
24366SOL     OW77013   7.446   4.208   0.038 -0.5630  0.4258  0.3551
24366SOL    HW177014   7.371   4.171  -0.008 -0.5816  1.6399 -0.6326
24366SOL    HW277015   7.512   4.139   0.036 -1.0342 -0.0078 -0.3285
24367SOL     OW77016   7.849   8.129  10.008  0.0995 -0.8105 -0.1506
24367SOL    HW177017   7.911   8.069   9.966  1.8418 -0.4858  1.7513
24367SOL    HW277018   7.796   8.073  10.064 -1.1990 -1.0552 -1.5800
24368SOL     OW77019   5.693   4.678   0.442  0.0168  0.4355 -0.5042
24368SOL    HW177020   5.624   4.615   0.420 -0.0240  0.1926  0.2691
24368SOL    HW277021   5.733   4.700   0.358  0.0925 -0.6974 -0.7816
24369SOL     OW77022   9.400   6.685   8.721  0.2023 -0.5577  0.2508
24369SOL    HW177023   9.317   6.638   8.728 -0.8045  0.8575 -1.3368
24369SOL    HW277024   9.411   6.702   8.627  0.4402  2.3639  0.7003
24370SOL     OW77025   4.260   9.646   7.918 -0.0897  0.2318  0.4324
24370SOL    HW177026   4.326   9.713   7.938  1.1884 -0.9343  0.2863
24370SOL    HW277027   4.188   9.695   7.879  0.7905  1.5279  0.3505
24371SOL     OW77028   2.442   7.348   3.030  0.1781 -0.1527 -0.1752
24371SOL    HW177029   2.492   7.295   2.969 -0.4183 -0.1367 -0.6830
24371SOL    HW277030   2.381   7.287   3.071 -0.7723  0.1908 -1.0389
24372SOL     OW77031   1.622   2.405   4.354 -0.0460  0.4242 -0.6104
24372SOL    HW177032   1.597   2.344   4.424  0.1285  0.2536 -0.6956
24372SOL    HW277033   1.596   2.491   4.387 -1.7801  0.1428 -1.1678
24373SOL     OW77034   4.541   3.399   0.994  0.7811  0.0844  0.5700
24373SOL    HW177035   4.601   3.325   0.997 -0.2980 -0.9915 -1.8021
24373SOL    HW277036   4.561   3.443   0.912 -0.0965  1.1334  0.8873
24374SOL     OW77037   8.190   0.025   9.067  0.2130 -0.7265 -0.0505
24374SOL    HW177038   8.225  -0.058   9.036  1.5502  0.6556 -2.6071
24374SOL    HW277039   8.261   0.064   9.118  0.1526 -0.5559 -0.0937
24375SOL     OW77040   0.832   0.555   9.996 -0.0695 -1.0773  0.0056
24375SOL    HW177041   0.904   0.548   9.932  0.0507  1.6026 -0.2448
24375SOL    HW277042   0.755   0.523   9.949  0.1773  0.0982 -1.2656
24376SOL     OW77043   5.193   2.324   5.586 -0.4634 -0.4792  0.4111
24376SOL    HW177044   5.156   2.382   5.519  0.8435  0.4813  0.4680
24376SOL    HW277045   5.287   2.325   5.569 -0.4650 -3.4996 -0.2602
24377SOL     OW77046   6.986   1.817   0.581 -0.4221  0.1966 -0.3145
24377SOL    HW177047   7.038   1.893   0.554 -1.4348  0.7324 -0.8113
24377SOL    HW277048   7.019   1.745   0.527 -0.0553  0.4850 -0.4787
24378SOL     OW77049   1.065   4.911   5.604  0.2464  0.6857  0.2492
24378SOL    HW177050   1.105   4.942   5.685 -0.1011 -0.5620  0.9159
24378SOL    HW277051   1.056   4.817   5.616  1.0578  0.3360 -1.6373
24379SOL     OW77052   7.194   7.461   6.504 -0.2359  0.0454 -0.3492
24379SOL    HW177053   7.202   7.481   6.597 -2.7759  0.8780 -0.2208
24379SOL    HW277054   7.174   7.367   6.502 -0.2527  0.0410 -0.0519
24380SOL     OW77055   3.346   9.112   8.076 -0.4458 -0.2555 -0.0705
24380SOL    HW177056   3.303   9.035   8.038 -0.3214  0.0132 -0.7741
24380SOL    HW277057   3.338   9.179   8.008  0.5167 -0.0128  0.0469
24381SOL     OW77058   2.695   6.102   8.658 -0.6547  0.3248  0.3728
24381SOL    HW177059   2.787   6.086   8.678 -0.9119  0.9017  2.2930
24381SOL    HW277060   2.694   6.136   8.569  0.9393 -0.1147  0.1690
24382SOL     OW77061   8.581   6.111   5.931  0.6631 -0.8993 -0.0577
24382SOL    HW177062   8.503   6.056   5.939 -0.1458  0.4407  2.2705
24382SOL    HW277063   8.645   6.055   5.887 -1.2469 -2.3912 -1.1247
24383SOL     OW77064   8.272   6.954   1.754 -1.0612  0.1259 -0.2848
24383SOL    HW177065   8.365   6.948   1.731 -1.1230 -1.3845 -0.2518
24383SOL    HW277066   8.232   6.879   1.711 -2.3309  0.9060 -0.5219
24384SOL     OW77067   7.265   7.446   2.689  0.4300 -0.1495 -0.1522
24384SOL    HW177068   7.196   7.430   2.626 -1.7652  0.0489  2.0243
24384SOL    HW277069   7.328   7.501   2.643 -1.9678  1.5391 -1.6379
24385SOL     OW77070   5.858   6.236   3.037 -0.2372  0.2791  0.5732
24385SOL    HW177071   5.839   6.304   2.972 -0.8548 -2.3976 -2.3431
24385SOL    HW277072   5.952   6.241   3.051 -0.4344  2.4489  1.3967
24386SOL     OW77073   6.611  10.150   1.033 -1.0210  0.6468 -0.2946
24386SOL    HW177074   6.575  10.239   1.041  1.3973  1.6713  0.0568
24386SOL    HW277075   6.702  10.163   1.009 -1.1863 -1.8527 -2.7155
24387SOL     OW77076   5.233   2.477   9.085  0.4808 -0.2714  0.3250
24387SOL    HW177077   5.287   2.407   9.121 -0.7889 -2.1499 -1.2036
24387SOL    HW277078   5.296   2.540   9.048  1.6506 -1.1806  0.7166
24388SOL     OW77079   6.059   7.620   3.997  0.0858 -0.0165  0.9701
24388SOL    HW177080   6.009   7.702   3.996 -0.1366 -0.0839 -1.5251
24388SOL    HW277081   6.141   7.642   3.953  0.4694 -0.9032  1.2221
24389SOL     OW77082   4.326   8.943   3.782 -0.0219  1.1051 -0.2435
24389SOL    HW177083   4.339   9.001   3.857 -0.5400 -1.7740  2.2663
24389SOL    HW277084   4.398   8.965   3.723  2.7384  1.1195  2.7815
24390SOL     OW77085   8.423   2.450   3.722  0.1501 -0.1328  0.0990
24390SOL    HW177086   8.336   2.489   3.716  0.5237  0.4880 -1.5698
24390SOL    HW277087   8.433   2.401   3.641  0.4712 -2.1626  1.2831
24391SOL     OW77088   0.452   2.800   2.876  0.5825 -0.2752 -0.3429
24391SOL    HW177089   0.452   2.713   2.916  0.5007  0.2375  0.7946
24391SOL    HW277090   0.528   2.799   2.818  1.6414 -0.5162  0.9967
24392SOL     OW77091   5.253   0.108   8.611 -0.0197 -0.3584  0.1566
24392SOL    HW177092   5.212   0.038   8.661  0.6667 -1.1628 -0.3924
24392SOL    HW277093   5.318   0.145   8.671  0.2658 -0.8108  0.1294
24393SOL     OW77094   2.248   7.065   9.908  0.4510 -0.1534 -0.2917
24393SOL    HW177095   2.200   6.983   9.920  0.5763 -0.2727 -0.6092
24393SOL    HW277096   2.241   7.084   9.815 -0.8253  0.9647  0.0022
24394SOL     OW77097   8.856   6.404   6.254  0.3613 -0.1462 -0.0992
24394SOL    HW177098   8.816   6.365   6.332  3.6507 -0.2261  1.7291
24394SOL    HW277099   8.827   6.495   6.255 -0.2218 -0.3292  0.8049
24395SOL     OW77100   2.083   7.422   4.479  0.1052  0.6644  0.2616
24395SOL    HW177101   2.027   7.454   4.549  1.7983  0.8562  1.5730
24395SOL    HW277102   2.080   7.491   4.413  1.5667  2.3515  1.8780
24396SOL     OW77103   7.805   1.481   4.383 -0.3682  0.1797 -0.0807
24396SOL    HW177104   7.827   1.558   4.435  0.9335  0.0196 -0.3634
24396SOL    HW277105   7.767   1.420   4.446 -1.1738  0.9381  0.1949
24397SOL     OW77106   5.952   0.598   0.040  0.5538  0.2771 -0.5072
24397SOL    HW177107   5.910   0.529  -0.012 -0.0922  2.1256 -2.6178
24397SOL    HW277108   6.025   0.628  -0.015  1.9673  0.0874  1.1875
24398SOL     OW77109   8.739   7.184   2.460 -0.0654 -0.0375  0.5359
24398SOL    HW177110   8.721   7.095   2.432 -1.6856  0.1633  0.8012
24398SOL    HW277111   8.683   7.239   2.403  0.0848  0.7072  1.0869
24399SOL     OW77112   2.323   5.564   9.852 -0.2033 -0.2239 -0.0720
24399SOL    HW177113   2.265   5.567   9.928 -1.4227  1.5338 -1.0137
24399SOL    HW277114   2.327   5.654   9.822 -0.6579 -1.0334 -2.7729
24400SOL     OW77115   6.321   7.407   7.738 -0.6978 -0.4299 -0.1584
24400SOL    HW177116   6.250   7.398   7.675 -1.4984  0.6965  0.5311
24400SOL    HW277117   6.283   7.460   7.809  1.0173  0.7743 -0.0793
24401SOL     OW77118   0.549   2.417   8.065  0.5396  0.0378 -0.0779
24401SOL    HW177119   0.573   2.458   7.983 -0.0221 -2.0134 -1.3519
24401SOL    HW277120   0.627   2.424   8.120  1.6197 -0.3067 -1.5310
24402SOL     OW77121   8.256   0.934   9.613  0.2317 -0.0515  0.0524
24402SOL    HW177122   8.285   0.843   9.606  1.4541 -0.0521  3.3568
24402SOL    HW277123   8.180   0.940   9.556  0.0344 -3.1930 -0.1562
24403SOL     OW77124   1.990   9.528   4.076  0.7571 -0.2539 -0.1705
24403SOL    HW177125   1.968   9.449   4.125  0.0433  0.3849  0.5908
24403SOL    HW277126   2.059   9.502   4.016  1.5445 -1.1178  1.0637
24404SOL     OW77127   0.011   0.216   8.044 -0.1787 -0.5388  0.5586
24404SOL    HW177128  -0.029   0.136   8.079 -1.6844 -0.2947 -0.5229
24404SOL    HW277129   0.085   0.185   7.991 -0.8097 -1.2433  0.0727
24405SOL     OW77130   9.097   4.556   7.152 -0.0019 -0.2041  0.3084
24405SOL    HW177131   9.138   4.575   7.068  0.1349 -1.5922  0.0425
24405SOL    HW277132   9.122   4.466   7.172 -2.7434 -1.0843  0.2168
24406SOL     OW77133   5.777   0.090   8.457  0.4914  0.0456 -0.9882
24406SOL    HW177134   5.853   0.148   8.454  0.9876 -0.4727  0.6334
24406SOL    HW277135   5.809   0.008   8.419  1.2612 -0.6751  1.0894
24407SOL     OW77136   9.638   5.040   3.577 -0.1161 -0.2084  0.3743
24407SOL    HW177137   9.705   5.088   3.528 -0.3104 -2.2409 -2.0756
24407SOL    HW277138   9.687   4.975   3.627  0.0214  1.4275  2.5454
24408SOL     OW77139   9.899   4.733   8.816 -0.0813  0.0484  0.1870
24408SOL    HW177140   9.959   4.772   8.880  0.5174  0.2196 -0.4740
24408SOL    HW277141   9.943   4.742   8.732 -0.2243 -1.4431 -0.0851
24409SOL     OW77142   6.375   9.955   4.362  0.1066 -0.1005  0.2467
24409SOL    HW177143   6.319  10.027   4.388 -0.9580 -0.9839  0.4756
24409SOL    HW277144   6.321   9.902   4.304 -0.1865 -2.2846  2.3671
24410SOL     OW77145   6.926   8.011  10.120 -0.7981 -0.2414  0.0598
24410SOL    HW177146   6.963   7.937  10.071 -0.3633  0.2562 -0.3895
24410SOL    HW277147   7.002   8.051  10.163 -1.3292 -1.3865  2.1792
24411SOL     OW77148   7.441   5.555   5.793 -0.0223 -0.0541  0.5290
24411SOL    HW177149   7.362   5.609   5.786 -0.9305 -1.4276 -0.3155
24411SOL    HW277150   7.442   5.505   5.711  2.0519  0.3454  0.2673
24412SOL     OW77151   0.811   0.009   4.024  0.2941 -0.0829 -0.3819
24412SOL    HW177152   0.736  -0.051   4.013  0.3497 -1.0600  3.2708
24412SOL    HW277153   0.887  -0.049   4.026  0.4474  0.0869  2.1601
24413SOL     OW77154   3.072   3.003   1.210 -0.3903  0.3414 -0.3779
24413SOL    HW177155   3.022   2.922   1.216  0.8717 -0.3772  0.8848
24413SOL    HW277156   3.145   2.982   1.152  0.6862  0.1400  1.0089
24414SOL     OW77157   4.857   8.750   8.070  0.5086 -0.8249  0.1159
24414SOL    HW177158   4.940   8.717   8.104 -0.9999 -2.7920  2.2238
24414SOL    HW277159   4.814   8.789   8.147 -0.7130 -0.2765 -0.8149
24415SOL     OW77160  10.123   2.011   5.506 -0.0684 -0.7553  0.0577
24415SOL    HW177161  10.207   2.055   5.516  0.5228 -2.1592  1.8500
24415SOL    HW277162  10.136   1.948   5.435 -0.3434  0.5938 -1.2238
24416SOL     OW77163   2.442   0.328   9.060 -0.4862  0.1522 -0.3044
24416SOL    HW177164   2.406   0.239   9.053  1.0228 -0.5107  0.0450
24416SOL    HW277165   2.378   0.383   9.015 -2.7680 -0.7289  1.6799
24417SOL     OW77166   3.018   3.247   2.628 -0.1906  0.5155 -0.2976
24417SOL    HW177167   2.961   3.260   2.551 -1.7277  1.2690  0.9121
24417SOL    HW277168   2.958   3.252   2.703  1.6168  2.5849  1.1404
24418SOL     OW77169   3.540   3.926   9.363  0.1766  0.2856 -0.4994
24418SOL    HW177170   3.610   3.919   9.298 -0.4513  0.9018 -1.2640
24418SOL    HW277171   3.477   3.987   9.324  0.0783  1.1575  0.9608
24419SOL     OW77172   4.833   5.534   0.145  0.2800 -0.1655 -0.3034
24419SOL    HW177173   4.843   5.515   0.052 -0.9320 -0.1089 -0.4695
24419SOL    HW277174   4.843   5.450   0.188 -0.8322 -0.4905 -0.6501
24420SOL     OW77175   2.062   5.597   2.319 -0.3900 -0.5432 -0.0285
24420SOL    HW177176   2.044   5.530   2.253  0.2164 -1.2571  0.5202
24420SOL    HW277177   2.100   5.549   2.393  0.7395  0.4847  0.0874
24421SOL     OW77178   6.950   4.811   7.905 -0.2866  0.2103 -0.4944
24421SOL    HW177179   6.983   4.901   7.909 -1.0396  0.4949 -0.4656
24421SOL    HW277180   6.865   4.819   7.862 -0.7915 -0.3612  0.3656
24422SOL     OW77181   0.612   5.267   9.232 -0.1648 -0.3087 -0.2179
24422SOL    HW177182   0.588   5.247   9.322  0.1929  0.9648  0.1758
24422SOL    HW277183   0.699   5.229   9.220 -0.2026 -0.4537 -0.0230
24423SOL     OW77184   5.753   7.355   3.133 -0.0610 -0.2671 -0.5759
24423SOL    HW177185   5.701   7.338   3.054  0.1040  0.5182 -0.8552
24423SOL    HW277186   5.691   7.389   3.196  0.2461  1.5083 -1.1924
24424SOL     OW77187   4.621   3.914   1.674  0.1487  0.4580 -0.1740
24424SOL    HW177188   4.703   3.886   1.634 -0.1065  1.4962 -1.4948
24424SOL    HW277189   4.647   3.950   1.759  0.9752  0.1704 -0.2980
24425SOL     OW77190   3.563   5.072   0.187  0.3260 -0.6794  0.0331
24425SOL    HW177191   3.622   5.015   0.137  0.1348  0.5564 -1.7046
24425SOL    HW277192   3.481   5.023   0.194  0.0597 -0.5437 -1.7122
24426SOL     OW77193   6.280   6.085   3.142  0.0889 -0.1738  0.1574
24426SOL    HW177194   6.298   6.172   3.107 -0.0055 -0.6996 -1.2670
24426SOL    HW277195   6.270   6.099   3.236  0.9316  1.2089  0.0750
24427SOL     OW77196   6.533   3.420   0.235  0.4301  0.3226  0.4376
24427SOL    HW177197   6.453   3.372   0.214 -1.4958  3.8146 -0.9924
24427SOL    HW277198   6.584   3.418   0.154  0.6530  0.1728  0.5798
24428SOL     OW77199   9.842   7.798   4.030  0.3807 -0.1516  0.2521
24428SOL    HW177200   9.882   7.815   4.116  1.1551 -1.4010  0.1678
24428SOL    HW277201   9.915   7.768   3.976 -0.0269  0.9528 -0.9772
24429SOL     OW77202   8.173   0.945   0.954  0.1551  0.1893  0.6321
24429SOL    HW177203   8.112   0.966   0.884  2.5303  2.3134 -0.9966
24429SOL    HW277204   8.224   0.871   0.921  1.0834  1.0052  0.1862
24430SOL     OW77205   7.188   4.586   3.793  0.4831 -0.6011 -0.2340
24430SOL    HW177206   7.255   4.653   3.781  0.9773 -0.5836  2.1626
24430SOL    HW277207   7.106   4.634   3.790  0.8003  0.0358  0.8561
24431SOL     OW77208   1.807   1.572   9.280  0.1020 -0.1081  0.1807
24431SOL    HW177209   1.876   1.533   9.227 -1.2511 -0.3774 -1.4654
24431SOL    HW277210   1.733   1.583   9.220 -0.4558  2.5974  1.2405
24432SOL     OW77211   7.471   1.088   9.228 -0.0113 -0.1243  0.5433
24432SOL    HW177212   7.385   1.103   9.188 -0.1235 -0.0059  0.8284
24432SOL    HW277213   7.486   1.165   9.282 -0.1596 -0.5887  1.2612
24433SOL     OW77214   8.761   2.140   4.869 -0.1054 -0.7667 -0.0030
24433SOL    HW177215   8.815   2.136   4.948  2.2756  0.1184 -1.4692
24433SOL    HW277216   8.799   2.211   4.817 -2.2878 -0.5687 -1.4884
24434SOL     OW77217   4.275   2.009   6.180 -0.2586 -0.0206 -0.5714
24434SOL    HW177218   4.221   1.932   6.199 -0.7261  0.3545 -0.3462
24434SOL    HW277219   4.337   2.014   6.253 -2.1767  1.5306  1.0995
24435SOL     OW77220   6.666   6.876   7.394 -0.4042 -0.0842 -0.4937
24435SOL    HW177221   6.635   6.922   7.316 -1.6336 -1.8149 -1.0818
24435SOL    HW277222   6.630   6.926   7.467 -1.5220  0.0330 -1.1050
24436SOL     OW77223   7.504   8.943   5.135  0.3937  0.4328 -0.0633
24436SOL    HW177224   7.463   8.946   5.049  1.0555 -1.5244 -0.5029
24436SOL    HW277225   7.432   8.954   5.197 -0.4510 -0.4841 -0.8507
24437SOL     OW77226   6.610   0.460   2.044  0.2144  0.6237 -0.2550
24437SOL    HW177227   6.541   0.508   2.090  0.2371  0.8045 -0.4095
24437SOL    HW277228   6.623   0.381   2.096  0.6609  1.1089  0.3872
24438SOL     OW77229   1.652   6.210   4.612 -0.0980  0.0390 -0.4819
24438SOL    HW177230   1.577   6.262   4.581 -0.3173 -0.4099 -0.7065
24438SOL    HW277231   1.720   6.275   4.629 -0.7224  0.5283  0.2847
24439SOL     OW77232   3.508   6.082   2.160  0.8046  0.1293 -0.4969
24439SOL    HW177233   3.586   6.137   2.172  0.5018  0.6894 -1.0699
24439SOL    HW277234   3.466   6.081   2.246  1.0286  0.4623 -0.3831
24440SOL     OW77235   8.833   8.616   1.097  0.2571  0.5588 -0.0057
24440SOL    HW177236   8.770   8.655   1.159  1.9932  1.2169  1.4469
24440SOL    HW277237   8.858   8.533   1.138 -1.0694 -0.6490 -1.5449
24441SOL     OW77238   2.552   1.322   3.762 -1.0459 -0.4721 -0.2458
24441SOL    HW177239   2.496   1.394   3.733  0.8094  0.9304 -0.5381
24441SOL    HW277240   2.577   1.277   3.681 -0.5537 -0.1419 -0.2869
24442SOL     OW77241   5.762   5.927   7.581  0.2564 -0.1796 -0.1817
24442SOL    HW177242   5.794   6.016   7.566 -0.4205  0.1356  0.2037
24442SOL    HW277243   5.697   5.936   7.650 -0.1848 -0.9005 -0.4866
24443SOL     OW77244   3.525   8.686   9.231 -0.3402  0.3592 -0.1415
24443SOL    HW177245   3.551   8.599   9.260  0.8919  0.0220 -2.0579
24443SOL    HW277246   3.457   8.670   9.166  1.0111  0.6711 -1.6891
24444SOL     OW77247   2.678   1.089   2.733 -0.0090  0.0522 -0.3711
24444SOL    HW177248   2.686   1.053   2.821  2.2672  0.6521 -0.2569
24444SOL    HW277249   2.612   1.035   2.690 -1.8601  0.3351  1.9497
24445SOL     OW77250   4.846   4.157   6.510 -0.4263 -0.6046  0.1907
24445SOL    HW177251   4.869   4.213   6.436 -3.0084 -0.1658 -0.3637
24445SOL    HW277252   4.871   4.207   6.588  1.8405 -0.8548 -0.3100
24446SOL     OW77253   2.920   6.074   4.573 -0.0185 -0.4625 -0.2833
24446SOL    HW177254   2.852   6.078   4.506 -1.9651  1.2836  1.6207
24446SOL    HW277255   2.950   5.983   4.572 -2.3943 -1.3019 -1.2013
24447SOL     OW77256   3.512   1.823   8.797  0.1418 -0.4826  0.2155
24447SOL    HW177257   3.563   1.806   8.876  0.5617 -1.3516 -0.2226
24447SOL    HW277258   3.430   1.859   8.829  1.2254  1.4914  0.8958
24448SOL     OW77259   0.439   7.318   2.258  0.0219  0.2597 -0.1144
24448SOL    HW177260   0.506   7.255   2.284 -1.7699 -2.4025 -1.4895
24448SOL    HW277261   0.387   7.333   2.337  0.4712  0.0522  0.2238
24449SOL     OW77262   0.735   0.231   5.788  0.8508  0.0660 -0.1728
24449SOL    HW177263   0.663   0.174   5.812  1.1271 -1.3616 -2.4780
24449SOL    HW277264   0.813   0.185   5.819  0.9579  0.0917 -0.4039
24450SOL     OW77265   6.261   2.755   4.794  0.3719  0.0798 -0.1860
24450SOL    HW177266   6.275   2.693   4.865  0.1804 -0.1770 -0.3745
24450SOL    HW277267   6.226   2.833   4.838  2.8013  0.9464  0.3873
24451SOL     OW77268   5.819   9.967   5.162 -0.2504  0.2550 -0.2011
24451SOL    HW177269   5.843   9.875   5.150 -1.5274 -0.0539 -0.5154
24451SOL    HW277270   5.855  10.011   5.085  1.4239  0.2592  0.5367
24452SOL     OW77271  10.128   8.024   2.235 -0.4687 -0.2065 -0.9624
24452SOL    HW177272  10.057   8.073   2.276  0.2177 -0.0936  0.1134
24452SOL    HW277273  10.116   7.934   2.263 -0.6905 -0.3500 -1.4981
24453SOL     OW77274   2.500   9.695   4.225 -0.1065 -0.3209  0.6216
24453SOL    HW177275   2.534   9.655   4.144  0.3280 -0.9117  1.0912
24453SOL    HW277276   2.450   9.625   4.267 -1.4791  0.3891  0.2016
24454SOL     OW77277   6.344   9.867   4.684 -0.1746  0.4820 -0.0915
24454SOL    HW177278   6.274   9.876   4.620  1.7671 -1.2889 -2.7175
24454SOL    HW277279   6.320   9.790   4.736  0.1223 -0.6351 -1.5379
24455SOL     OW77280   6.532   3.157   4.976  0.2945  0.1418 -0.3039
24455SOL    HW177281   6.471   3.231   4.980  0.0582 -0.0514 -0.2792
24455SOL    HW277282   6.551   3.137   5.068 -0.2957 -0.3571 -0.2810
24456SOL     OW77283   4.088   9.432   0.547  0.0687  0.2074  0.1846
24456SOL    HW177284   4.062   9.483   0.625  1.7875 -1.3102  1.8489
24456SOL    HW277285   4.006   9.422   0.498 -0.9071  2.0123  1.2812
24457SOL     OW77286   5.743   8.545   8.029  0.4586  0.3412  0.2692
24457SOL    HW177287   5.697   8.484   7.972 -1.0599  1.3746  0.3497
24457SOL    HW277288   5.704   8.532   8.116  0.8294  0.7106  0.4956
24458SOL     OW77289   7.138   2.264   1.458  0.3910 -0.3134  0.1866
24458SOL    HW177290   7.206   2.197   1.451  1.3343  0.4710  1.3239
24458SOL    HW277291   7.187   2.345   1.475 -0.6793  0.7949 -1.6992
24459SOL     OW77292   7.883   3.671   2.300 -0.5932 -0.6865  0.0519
24459SOL    HW177293   7.869   3.577   2.287 -1.9772 -0.9746  2.9237
24459SOL    HW277294   7.929   3.677   2.384 -1.5116  1.2501  0.4696
24460SOL     OW77295   6.234   7.631   3.158  0.2371 -0.0239  0.1846
24460SOL    HW177296   6.193   7.566   3.216  2.1672 -1.2956  0.1851
24460SOL    HW277297   6.228   7.713   3.208 -0.8663 -0.4773  0.8458
24461SOL     OW77298   5.544   2.190   3.588 -0.7879 -0.4771  0.5340
24461SOL    HW177299   5.479   2.169   3.655 -0.6729  4.0849  2.3724
24461SOL    HW277300   5.628   2.175   3.632 -0.7117  0.8583  0.8874
24462SOL     OW77301   5.030  10.036   4.794  0.3218  0.1640 -0.2864
24462SOL    HW177302   4.995   9.947   4.806 -0.3815  0.6569  1.6946
24462SOL    HW277303   5.013  10.056   4.703 -0.2402 -1.4321 -0.5688
24463SOL     OW77304   3.646   6.528   3.863  0.1924  0.7408 -0.2705
24463SOL    HW177305   3.705   6.558   3.931  1.5125  0.7167 -1.3731
24463SOL    HW277306   3.562   6.569   3.884  0.7843  1.3792  0.8896
24464SOL     OW77307   5.389   5.606   5.301  0.3435  0.0202  0.0425
24464SOL    HW177308   5.476   5.633   5.331  0.9579 -1.9409  0.1609
24464SOL    HW277309   5.383   5.513   5.325 -2.3420  0.4106  1.2654
24465SOL     OW77310   4.336   2.968   0.615  0.1906  0.7150 -0.0551
24465SOL    HW177311   4.431   2.960   0.620  0.3317  1.9655 -0.3440
24465SOL    HW277312   4.309   2.900   0.553  0.7778 -0.2862  0.7666
24466SOL     OW77313   9.738   5.385   5.757 -0.1536  0.2643  0.1593
24466SOL    HW177314   9.697   5.423   5.680 -2.0033 -0.5626  0.6654
24466SOL    HW277315   9.829   5.368   5.731 -0.9440 -0.8392 -2.1491
24467SOL     OW77316   7.266   5.229   1.249  0.6962 -0.4745  0.4489
24467SOL    HW177317   7.228   5.311   1.217  1.3048 -0.8982 -1.4921
24467SOL    HW277318   7.211   5.205   1.324  0.1984  1.4309  0.7508
24468SOL     OW77319  10.054   9.684   8.465 -0.3698  0.2569 -0.2079
24468SOL    HW177320   9.995   9.720   8.399 -1.0682 -1.5108 -0.6144
24468SOL    HW277321  10.070   9.594   8.437  1.6822  0.3387  0.4881
24469SOL     OW77322   7.253   0.809   4.994  0.2882  0.7624 -0.0179
24469SOL    HW177323   7.192   0.869   5.038  1.7231  1.1152  1.6065
24469SOL    HW277324   7.242   0.726   5.041  1.1476  0.8784  0.4022
24470SOL     OW77325   3.532   5.386   7.181  0.2927 -0.1112  0.8341
24470SOL    HW177326   3.558   5.314   7.239 -1.3812 -0.9233  0.6291
24470SOL    HW277327   3.561   5.358   7.094 -1.1928 -1.0258  0.6011
24471SOL     OW77328   4.639   2.855   6.064 -0.2181 -0.6181  0.8081
24471SOL    HW177329   4.571   2.913   6.030 -0.2120 -0.7527  0.5685
24471SOL    HW277330   4.613   2.839   6.155  0.0606  0.1876  1.0458
24472SOL     OW77331   9.833   2.622   1.320 -0.0255  0.5029  0.2310
24472SOL    HW177332   9.863   2.712   1.304  1.6285 -0.1060 -0.3400
24472SOL    HW277333   9.746   2.618   1.281 -0.4777  2.0824  1.0113
24473SOL     OW77334  10.085   0.517   8.498 -0.3613 -0.2395 -0.4210
24473SOL    HW177335  10.124   0.460   8.431 -1.0765 -1.5000  0.1833
24473SOL    HW277336  10.035   0.582   8.448 -0.0566 -0.5302 -1.1254
24474SOL     OW77337   0.574   3.140   3.222 -0.2695 -0.2608  0.0001
24474SOL    HW177338   0.557   3.048   3.202  1.5687 -0.5925 -0.2107
24474SOL    HW277339   0.541   3.187   3.146  1.6240 -1.0529 -1.3839
24475SOL     OW77340   5.290   6.442   6.929 -1.0047 -0.0562  0.1587
24475SOL    HW177341   5.219   6.431   6.992 -1.0998 -1.3647 -0.1432
24475SOL    HW277342   5.300   6.355   6.890  0.1762  0.3327 -0.4279
24476SOL     OW77343   4.100   5.108   1.385  0.0105 -0.3404  0.2920
24476SOL    HW177344   4.010   5.141   1.387  0.3248  0.5646  0.0577
24476SOL    HW277345   4.143   5.150   1.460  0.0300 -1.4491  0.9370
24477SOL     OW77346   3.125   1.084   8.477  0.2102 -0.0579  0.6448
24477SOL    HW177347   3.083   1.003   8.506  0.4600 -0.4559 -0.0735
24477SOL    HW277348   3.083   1.104   8.393  0.9107 -0.0478  0.2902
24478SOL     OW77349   8.485   3.730  10.118  0.4237  0.0489 -0.5225
24478SOL    HW177350   8.580   3.728  10.111  0.3716 -2.9482 -1.8845
24478SOL    HW277351   8.462   3.644  10.153 -1.8671  0.1518 -1.6006
24479SOL     OW77352   9.085   4.416   9.614  0.0045  0.2152 -0.1222
24479SOL    HW177353   9.100   4.484   9.548 -0.0439 -0.0916 -0.4542
24479SOL    HW277354   9.170   4.371   9.622  0.5133  1.3728  1.3220
24480SOL     OW77355   4.412   6.749   1.686  0.3194  0.2833  0.0564
24480SOL    HW177356   4.349   6.678   1.700  0.5996 -0.3390 -1.6335
24480SOL    HW277357   4.402   6.773   1.594  0.3730  2.3417  0.5337
24481SOL     OW77358   7.551   6.643   2.773 -0.0937  0.4798  0.2075
24481SOL    HW177359   7.562   6.677   2.862  0.3284 -2.6837  1.5055
24481SOL    HW277360   7.632   6.594   2.756 -1.8692 -2.5750 -0.1164
24482SOL     OW77361   0.500   8.932   9.302 -0.1367 -0.0016 -0.6285
24482SOL    HW177362   0.469   9.009   9.350 -0.2165 -0.0045 -0.6750
24482SOL    HW277363   0.452   8.859   9.342  1.6353 -0.3439  1.0059
24483SOL     OW77364   0.984   9.809   7.802  0.1194 -0.3591  0.1737
24483SOL    HW177365   1.072   9.777   7.785 -0.0157 -0.4979 -0.2698
24483SOL    HW277366   0.954   9.846   7.719  0.1927  0.7456  0.6318
24484SOL     OW77367   5.671   2.413   9.974 -0.1193 -0.1979 -0.2647
24484SOL    HW177368   5.640   2.428   9.885 -0.6558 -0.9471 -0.2128
24484SOL    HW277369   5.762   2.442   9.973 -0.3944  0.6873 -0.8044
24485SOL     OW77370   4.724   8.412   1.017 -0.0689 -0.4474 -0.6833
24485SOL    HW177371   4.812   8.409   0.981  0.4513  2.1489  0.1690
24485SOL    HW277372   4.668   8.380   0.947  1.5611 -3.2886 -0.8648
24486SOL     OW77373   8.533   0.986   9.541  0.2320 -0.2976  0.1721
24486SOL    HW177374   8.577   0.905   9.566 -1.1249 -1.1870 -0.2166
24486SOL    HW277375   8.443   0.975   9.572  0.4136  1.8142  1.6775
24487SOL     OW77376   9.177   6.791   4.722 -0.0881 -0.2797 -0.2477
24487SOL    HW177377   9.091   6.751   4.739 -0.1850  0.1897  0.4193
24487SOL    HW277378   9.167   6.882   4.751  1.1014 -0.6133  1.3380
24488SOL     OW77379   2.084   8.044   9.808  0.0605 -0.0318 -0.0758
24488SOL    HW177380   2.173   8.070   9.830 -0.2032  3.2921 -2.2987
24488SOL    HW277381   2.093   7.960   9.764  1.9559 -0.1399  0.4421
24489SOL     OW77382   7.104   5.610   7.055 -0.0792 -0.4507  0.1186
24489SOL    HW177383   7.021   5.629   7.097 -0.6396 -0.3205 -1.0193
24489SOL    HW277384   7.130   5.693   7.014 -0.2287 -0.9319 -0.9552
24490SOL     OW77385   2.981   1.105   8.189 -0.2119 -0.5764 -0.2588
24490SOL    HW177386   3.012   1.183   8.235  1.0623 -0.7333 -0.8041
24490SOL    HW277387   2.918   1.138   8.126  0.1244 -0.0172 -0.3090
24491SOL     OW77388   5.884   5.449   9.054  0.3929 -0.1299 -0.4471
24491SOL    HW177389   5.875   5.539   9.024 -0.1860  0.0041  0.1138
24491SOL    HW277390   5.978   5.433   9.053  0.4915  0.4428 -0.6516
24492SOL     OW77391   5.151   3.441   7.298  0.6939 -0.3525  0.3570
24492SOL    HW177392   5.198   3.512   7.343  0.4543  0.6558 -0.9277
24492SOL    HW277393   5.135   3.475   7.210  1.0495 -2.2250 -0.4780
24493SOL     OW77394   7.978   5.624   1.770  0.3007 -0.2312  0.3337
24493SOL    HW177395   8.019   5.547   1.730  0.6721  0.5904 -0.9204
24493SOL    HW277396   8.008   5.698   1.717 -0.8981  0.6680  0.8509
24494SOL     OW77397   1.247   7.149   5.615 -0.7504  0.8388  0.6214
24494SOL    HW177398   1.196   7.199   5.679 -2.0596 -0.7662  0.8867
24494SOL    HW277399   1.225   7.058   5.633  2.0728  0.0486  0.6019
24495SOL     OW77400   3.446   0.413  10.183 -0.0050  0.2139  0.5016
24495SOL    HW177401   3.409   0.488  10.229 -1.7540 -0.0609 -0.3874
24495SOL    HW277402   3.398   0.409  10.100  0.6486 -1.3860  0.1633
24496SOL     OW77403   9.822   4.259   7.461  0.1551 -0.2004  0.5394
24496SOL    HW177404   9.908   4.282   7.427 -0.1296  1.0979  0.6693
24496SOL    HW277405   9.839   4.190   7.526  1.0510 -0.1880  0.3225
24497SOL     OW77406   1.543   3.099   6.025  0.1153 -1.0471  0.4980
24497SOL    HW177407   1.583   3.015   5.999 -1.3003 -1.4411 -0.5139
24497SOL    HW277408   1.505   3.081   6.111  2.0944 -0.6432  1.5205
24498SOL     OW77409   1.690   6.896   9.185 -0.2426  0.1388 -0.3102
24498SOL    HW177410   1.606   6.913   9.143 -0.2073  2.3987  0.4340
24498SOL    HW277411   1.680   6.928   9.274  1.4584  0.6768 -0.2592
24499SOL     OW77412   7.024   8.111   7.757 -0.3117 -0.4558 -0.1910
24499SOL    HW177413   7.050   8.142   7.844  0.1610 -1.4393  0.0308
24499SOL    HW277414   7.106   8.107   7.708 -0.4804 -0.5894 -0.4599
24500SOL     OW77415   0.234   7.251   4.799 -0.8093  0.1666 -0.3838
24500SOL    HW177416   0.324   7.248   4.832 -0.5429 -1.6902 -1.1132
24500SOL    HW277417   0.207   7.159   4.798 -3.1809  0.7862  0.9849
24501SOL     OW77418   7.694   2.903   9.468 -0.3576  0.2533  0.6741
24501SOL    HW177419   7.645   2.918   9.548 -0.6403 -1.8714  0.9548
24501SOL    HW277420   7.734   2.817   9.479 -0.1997  0.0010 -1.3579
24502SOL     OW77421   4.970   6.068   4.327 -0.4256 -0.0195  0.3473
24502SOL    HW177422   4.904   6.131   4.357  0.2683  1.4921 -1.1006
24502SOL    HW277423   4.921   6.007   4.271 -0.5984  1.3617 -1.0966
24503SOL     OW77424   7.314   8.231   0.750  0.3560  0.3411  0.0713
24503SOL    HW177425   7.335   8.280   0.670  1.0195  0.8088  0.5157
24503SOL    HW277426   7.232   8.186   0.731 -0.3677  1.7606 -0.2954
24504SOL     OW77427   4.303   4.515   1.175  0.5769 -0.4604 -0.6989
24504SOL    HW177428   4.371   4.449   1.191  0.9335  0.4811  2.2428
24504SOL    HW277429   4.227   4.484   1.223 -0.1307  0.0015 -1.4787
24505SOL     OW77430   1.118   5.013   9.186 -0.0462 -0.3973 -0.7064
24505SOL    HW177431   1.206   5.034   9.217  0.1472 -0.5193 -1.1656
24505SOL    HW277432   1.122   4.919   9.166 -0.2633 -0.3902 -0.7803
24506SOL     OW77433   3.557   2.914   1.527 -0.4858 -0.1840 -0.2082
24506SOL    HW177434   3.629   2.885   1.583 -0.1549  1.2937  0.1732
24506SOL    HW277435   3.593   2.913   1.439  0.6601  2.3232  0.1631
24507SOL     OW77436   6.214   4.704   5.991  0.1443 -0.4640  0.1396
24507SOL    HW177437   6.118   4.703   5.988  0.1117  0.9335  0.0899
24507SOL    HW277438   6.241   4.723   5.901  0.3947  0.9112  0.4787
24508SOL     OW77439   5.424   5.527   2.132  0.2135  0.2874  0.5248
24508SOL    HW177440   5.424   5.432   2.124 -1.3060  0.3426 -0.5605
24508SOL    HW277441   5.516   5.551   2.135  0.6617 -1.0980 -0.9528
24509SOL     OW77442   1.201   1.090   8.570  0.2354  0.0714  0.7827
24509SOL    HW177443   1.214   0.997   8.590  1.6066  0.4350  1.7885
24509SOL    HW277444   1.284   1.131   8.595  0.0822  1.3997 -0.7695
24510SOL     OW77445   9.643   9.260   9.153 -0.0629  0.1892  0.1817
24510SOL    HW177446   9.630   9.352   9.178  0.0785  0.4499 -0.6862
24510SOL    HW277447   9.635   9.259   9.058  1.0419 -0.5127  0.0776
24511SOL     OW77448   3.235   4.013   1.979 -0.4915  0.1524  0.0358
24511SOL    HW177449   3.290   4.056   1.913  0.2785  0.2527  0.7299
24511SOL    HW277450   3.149   4.008   1.938  0.2097 -0.8011 -1.4492
24512SOL     OW77451   0.695  10.073   8.736  0.2621  0.4007  0.4677
24512SOL    HW177452   0.716   9.991   8.781  1.5218  1.0801  1.2116
24512SOL    HW277453   0.610  10.100   8.772 -0.4707 -0.8798 -0.2666
24513SOL     OW77454   6.102   2.639   8.161  0.2964 -0.6171  0.6735
24513SOL    HW177455   6.144   2.593   8.088 -0.6775 -0.8644  0.2503
24513SOL    HW277456   6.108   2.732   8.137  0.5468 -0.6549  0.5885
24514SOL     OW77457   2.132   6.662   5.078 -0.1593 -0.0597  0.1567
24514SOL    HW177458   2.067   6.655   5.148 -0.1639 -0.0543  0.1529
24514SOL    HW277459   2.179   6.743   5.097 -0.1129 -0.0952  0.1943
24515SOL     OW77460   5.957   1.296   5.601  0.2516  0.3614 -0.0436
24515SOL    HW177461   5.943   1.282   5.507 -1.4010 -1.6222  0.4272
24515SOL    HW277462   5.999   1.382   5.606 -1.8574  1.6738 -2.4489
24516SOL     OW77463   1.288   3.944   5.306 -0.4955 -0.0661 -0.0578
24516SOL    HW177464   1.266   3.957   5.213  0.5187  0.9252 -0.1856
24516SOL    HW277465   1.316   3.853   5.312  0.5663  0.1901 -0.9737
24517SOL     OW77466   7.097   0.485   5.921  0.5762  0.1687  0.1747
24517SOL    HW177467   7.044   0.421   5.969  1.5897 -1.3066 -0.5866
24517SOL    HW277468   7.155   0.523   5.988  1.4385 -1.2937  0.2967
24518SOL     OW77469   5.489   4.612   8.521 -0.1252 -0.1589  0.7232
24518SOL    HW177470   5.579   4.602   8.551 -0.1461  1.0715  1.2671
24518SOL    HW277471   5.436   4.573   8.590 -0.0431 -0.0925  0.8246
24519SOL     OW77472   1.570   6.041   8.332  0.2732 -0.1320 -0.1886
24519SOL    HW177473   1.568   6.136   8.324  0.8877 -0.1187 -0.1789
24519SOL    HW277474   1.610   6.011   8.250  1.2551 -0.3123  0.3473
24520SOL     OW77475   5.616   3.762   2.503  0.3829  0.2338 -0.4245
24520SOL    HW177476   5.617   3.857   2.514 -0.6600  0.3590 -1.2584
24520SOL    HW277477   5.705   3.740   2.477  0.5323  1.0472 -0.6301
24521SOL     OW77478   9.847   8.779   6.144 -0.4266 -0.2028 -0.7095
24521SOL    HW177479   9.799   8.862   6.154  0.2199  0.2995 -1.6293
24521SOL    HW277480   9.826   8.730   6.223 -1.3180  0.5876 -0.4314
24522SOL     OW77481   5.610   6.685   9.845 -0.0414 -0.0012 -0.1659
24522SOL    HW177482   5.585   6.593   9.853 -2.3617  0.7097  2.0568
24522SOL    HW277483   5.705   6.683   9.833  0.0887 -2.6548  0.6193
24523SOL     OW77484   8.120   6.851   5.350  0.1286 -0.1288  0.1335
24523SOL    HW177485   8.126   6.946   5.360 -0.4134 -0.1701  0.9500
24523SOL    HW277486   8.089   6.839   5.260 -4.3051  0.7095  1.3019
24524SOL     OW77487   4.143   7.831   6.182  0.1545 -0.1770 -0.4380
24524SOL    HW177488   4.086   7.864   6.251  1.9228  0.4481  0.8065
24524SOL    HW277489   4.089   7.768   6.134 -1.6357  0.5766  0.4806
24525SOL     OW77490   6.981   4.433   6.333  0.2785 -0.0463 -0.1022
24525SOL    HW177491   7.008   4.523   6.318  1.0985 -0.3049 -0.2038
24525SOL    HW277492   6.979   4.394   6.246  1.1318 -0.4595  0.0569
24526SOL     OW77493   6.760   0.674   5.397  0.1820  0.5588  0.0910
24526SOL    HW177494   6.804   0.722   5.327 -0.4943 -0.3753 -1.0048
24526SOL    HW277495   6.827   0.616   5.432  0.8603  1.8949  1.0768
24527SOL     OW77496   3.440   5.556   2.761 -0.6065  0.4446 -0.0121
24527SOL    HW177497   3.422   5.650   2.762  0.6359  0.6983  0.1297
24527SOL    HW277498   3.431   5.529   2.853 -0.0586  0.6116  0.0916
24528SOL     OW77499   1.292   8.970   5.675 -0.4358 -0.0671  0.9384
24528SOL    HW177500   1.337   8.953   5.758 -0.9219 -1.1187  1.0063
24528SOL    HW277501   1.360   8.958   5.608 -0.3334 -0.4807  1.1129
24529SOL     OW77502   2.330   8.757   7.622 -0.1408  0.0262 -0.0737
24529SOL    HW177503   2.276   8.699   7.677  0.6782  1.3515  2.2569
24529SOL    HW277504   2.412   8.709   7.611 -1.0219 -1.1678 -2.0462
24530SOL     OW77505   6.259   4.880   3.940 -0.0774  0.2132  0.3061
24530SOL    HW177506   6.294   4.879   4.028  1.1113 -0.2072 -0.1509
24530SOL    HW277507   6.309   4.947   3.894 -1.3539  1.1306  0.1883
24531SOL     OW77508   6.904   3.316   1.882 -0.4952  0.1086  0.2845
24531SOL    HW177509   6.846   3.372   1.934  0.1652  0.7973  0.3023
24531SOL    HW277510   6.952   3.377   1.826  0.7407 -0.3607  0.7989
24532SOL     OW77511   0.952   6.099   2.946  0.0133 -0.5840  0.4748
24532SOL    HW177512   0.882   6.068   3.004 -2.0615  1.6217 -0.6845
24532SOL    HW277513   0.927   6.069   2.859  0.0564  0.9011 -0.0764
24533SOL     OW77514   0.559   0.321   4.395 -0.0126  0.3180 -0.2497
24533SOL    HW177515   0.652   0.316   4.414 -0.2650  0.4296  1.0779
24533SOL    HW277516   0.523   0.380   4.461 -1.0826  0.0077 -0.5242
24534SOL     OW77517   5.841   3.733   8.345 -0.3731  0.4391 -0.0327
24534SOL    HW177518   5.863   3.695   8.430 -3.6788 -0.2608  0.6604
24534SOL    HW277519   5.830   3.827   8.363  1.0670  0.6811 -0.2464
24535SOL     OW77520   7.364   8.072   8.164 -0.0705  0.4532 -0.3052
24535SOL    HW177521   7.282   8.051   8.118  0.3804 -0.9862 -0.5096
24535SOL    HW277522   7.338   8.135   8.230 -1.9582 -1.9996  1.5104
24536SOL     OW77523   5.386   6.144   6.629  0.6248  0.1269  0.8737
24536SOL    HW177524   5.417   6.152   6.719 -1.1517 -0.0642  1.5549
24536SOL    HW277525   5.382   6.234   6.597  0.5685  0.2587  1.2463
24537SOL     OW77526   1.476  10.110   2.119 -0.0927 -0.5897  0.7882
24537SOL    HW177527   1.440  10.084   2.204  0.4472  0.0165  1.2108
24537SOL    HW277528   1.399  10.123   2.063 -0.6185  1.4999  1.9089
24538SOL     OW77529   4.401   0.831   8.527 -0.0080  0.3469  0.1197
24538SOL    HW177530   4.487   0.851   8.489  0.1810  0.9899  0.8655
24538SOL    HW277531   4.358   0.917   8.534 -1.5002 -0.1438 -2.0701
24539SOL     OW77532   1.946   5.383   8.055  0.9896  0.2376 -0.2176
24539SOL    HW177533   1.996   5.313   8.014  1.5992  0.9478 -0.7020
24539SOL    HW277534   1.865   5.388   8.003  1.2309  0.3246 -0.5899
24540SOL     OW77535   6.186   8.434   5.255  0.1195  0.0564 -0.1349
24540SOL    HW177536   6.131   8.423   5.177 -1.5091  0.9908  0.8208
24540SOL    HW277537   6.169   8.523   5.284  0.9585 -0.1703  1.1125
24541SOL     OW77538   4.239   0.631   6.381  0.0697 -0.4458 -0.1248
24541SOL    HW177539   4.146   0.646   6.395 -0.2216 -1.6680 -0.6344
24541SOL    HW277540   4.277   0.626   6.469 -0.6702 -1.7939  0.1451
24542SOL     OW77541  10.041   3.026   5.399 -0.4259  0.1990  0.5078
24542SOL    HW177542  10.061   2.949   5.346 -1.1001  0.1383  0.3259
24542SOL    HW277543   9.987   2.993   5.470 -0.4969  0.4600  0.5753
24543SOL     OW77544   0.460   0.307   2.393  0.0948 -0.6397  0.2771
24543SOL    HW177545   0.449   0.382   2.452  2.2139  0.2787 -0.4011
24543SOL    HW277546   0.543   0.268   2.419 -0.2676 -1.8706 -0.3624
24544SOL     OW77547   9.238   8.451   3.498 -0.1004  0.0967  0.2654
24544SOL    HW177548   9.231   8.357   3.485 -2.2950  0.4077 -1.4172
24544SOL    HW277549   9.332   8.469   3.499  0.3405 -1.9849 -0.1579
24545SOL     OW77550   0.511   6.967   5.810 -0.1611  0.2950 -0.3308
24545SOL    HW177551   0.576   6.899   5.825 -0.1737  0.5722  1.1866
24545SOL    HW277552   0.474   6.947   5.724 -0.5989 -1.9958  0.3188
24546SOL     OW77553   8.116   8.159   8.560 -0.1966 -0.6320  0.3178
24546SOL    HW177554   8.109   8.072   8.519 -0.7184 -0.2265 -0.4807
24546SOL    HW277555   8.025   8.189   8.567 -0.1704 -0.8902  2.2515
24547SOL     OW77556   8.710   7.970   3.238  0.0719  0.2443 -0.7477
24547SOL    HW177557   8.805   7.980   3.245  0.0149  0.6525 -0.5133
24547SOL    HW277558   8.677   7.995   3.325 -0.1444 -1.2732 -0.3603
24548SOL     OW77559   3.970   2.547   6.751  0.1922  0.3165 -0.3579
24548SOL    HW177560   3.912   2.490   6.801  1.2056 -2.4824 -2.1743
24548SOL    HW277561   3.989   2.620   6.811  0.2627 -2.0981  2.7957
24549SOL     OW77562   5.857   1.568   7.237 -0.3962 -0.1814  0.0528
24549SOL    HW177563   5.922   1.529   7.295  0.0443  0.3595 -0.0707
24549SOL    HW277564   5.851   1.659   7.266 -0.1505  0.1012 -0.7644
24550SOL     OW77565   3.764   8.100   3.858  0.0213 -0.1349  0.3574
24550SOL    HW177566   3.858   8.114   3.866 -0.0464  1.3441 -0.8402
24550SOL    HW277567   3.754   8.006   3.847  1.0987 -0.6624  3.1637
24551SOL     OW77568   6.761   9.892   9.626  0.0563  0.0887 -0.2658
24551SOL    HW177569   6.749   9.858   9.714 -2.6397  2.9183  0.6434
24551SOL    HW277570   6.757   9.816   9.569 -2.5625 -1.4436  1.7698
24552SOL     OW77571   0.373   0.997   7.975 -0.5596 -0.2792 -0.3759
24552SOL    HW177572   0.455   0.961   7.943 -0.2079  1.5392 -1.5974
24552SOL    HW277573   0.323   0.920   8.002  1.7177 -1.4043  0.9569
24553SOL     OW77574   9.406   9.458   0.251 -0.0435  0.1136 -0.4427
24553SOL    HW177575   9.416   9.398   0.325 -2.1445 -1.2958 -1.2084
24553SOL    HW277576   9.340   9.521   0.279 -0.7987 -0.3863 -1.0502
24554SOL     OW77577   2.448   6.671   8.699 -0.2565  0.8027  0.1463
24554SOL    HW177578   2.445   6.675   8.603  0.2178  1.2052  0.1417
24554SOL    HW277579   2.501   6.594   8.718 -2.0512 -0.5039  0.1204
24555SOL     OW77580   7.381   5.205   7.745  0.7456  0.2645 -0.1648
24555SOL    HW177581   7.289   5.181   7.748  0.8628 -0.1392  0.9842
24555SOL    HW277582   7.383   5.297   7.771  0.8082 -0.3214  2.2083
24556SOL     OW77583   5.331   0.217   3.501 -0.0750  0.2687  0.0715
24556SOL    HW177584   5.305   0.254   3.417  0.0889  0.5259  0.1318
24556SOL    HW277585   5.347   0.294   3.557 -0.7515  0.0995  0.5122
24557SOL     OW77586   2.902   6.187   6.011 -0.0423  0.5560  0.3951
24557SOL    HW177587   2.950   6.216   6.088 -1.3396 -0.8579  1.8145
24557SOL    HW277588   2.839   6.257   5.993  0.0464  0.7452  0.8273
24558SOL     OW77589   6.336   5.599   3.723 -0.2670  0.5823 -0.6329
24558SOL    HW177590   6.362   5.679   3.769 -0.2111 -0.2421  0.8624
24558SOL    HW277591   6.294   5.545   3.791 -0.2416 -0.6746 -1.5715
24559SOL     OW77592   6.736   7.568   2.617  0.2820 -0.5295  0.2129
24559SOL    HW177593   6.649   7.572   2.578  0.2971 -1.1359  0.1089
24559SOL    HW277594   6.786   7.636   2.572  1.1080 -2.9208 -2.8689
24560SOL     OW77595   2.766   7.692   0.087 -0.2582  0.1617  0.0159
24560SOL    HW177596   2.805   7.775   0.060 -0.8506  0.5387  0.2934
24560SOL    HW277597   2.672   7.705   0.073 -0.4247 -0.1866  0.7822
24561SOL     OW77598   5.699   8.157   9.634  0.2961 -0.7372  0.0333
24561SOL    HW177599   5.637   8.218   9.595 -0.5242 -2.4912 -1.5564
24561SOL    HW277600   5.785   8.190   9.609 -0.1661 -0.9441 -2.0239
24562SOL     OW77601   0.098   2.161   7.672 -0.3642 -0.2588 -0.6523
24562SOL    HW177602   0.076   2.204   7.754 -0.1059 -1.4129  0.0518
24562SOL    HW277603   0.182   2.199   7.646 -1.0324  1.0029 -1.0599
24563SOL     OW77604   5.254   2.170   7.761 -0.3211 -0.1191 -0.3140
24563SOL    HW177605   5.245   2.108   7.688 -0.3196  0.4627 -0.8131
24563SOL    HW277606   5.341   2.209   7.749 -0.3171 -0.0273  0.0081
24564SOL     OW77607   2.240   7.686   3.353  0.2438 -0.0094  0.1227
24564SOL    HW177608   2.231   7.660   3.261  1.1031  1.0704 -0.2945
24564SOL    HW277609   2.332   7.712   3.361  0.0697  0.3040  1.1848
24565SOL     OW77610   6.171   8.087   0.385 -0.0588  0.1245  0.2510
24565SOL    HW177611   6.124   8.042   0.456  0.1962 -0.8969 -0.2114
24565SOL    HW277612   6.105   8.101   0.318  0.3899 -1.9923 -0.7190
24566SOL     OW77613   8.947   4.726   3.763  0.3841  0.1882 -0.4822
24566SOL    HW177614   8.914   4.773   3.840  0.7420  0.8777 -0.7473
24566SOL    HW277615   9.000   4.790   3.716  1.1596 -0.5651 -0.6733
24567SOL     OW77616   9.451   9.150   4.000  0.5007  0.0736 -0.1325
24567SOL    HW177617   9.442   9.064   3.960 -1.1401  0.2379 -0.1867
24567SOL    HW277618   9.410   9.141   4.086 -0.7790  1.0771 -0.5996
24568SOL     OW77619   1.587   7.851   8.221  0.1248  0.1565  0.2248
24568SOL    HW177620   1.648   7.867   8.149  0.1375 -1.8973 -0.2744
24568SOL    HW277621   1.617   7.910   8.291  1.0326  1.0984 -0.9182
24569SOL     OW77622   6.014   0.890   5.025  0.4510 -0.0948 -0.3599
24569SOL    HW177623   5.986   0.892   5.116 -0.2782  4.0543 -0.4626
24569SOL    HW277624   5.961   0.822   4.984  0.6071 -1.8662  2.1716
24570SOL     OW77625   4.185   9.766   4.206 -0.0573 -0.7578 -0.2593
24570SOL    HW177626   4.148   9.681   4.232 -0.3637 -0.7622 -0.7122
24570SOL    HW277627   4.143   9.787   4.123  1.0317 -0.8172 -0.8448
24571SOL     OW77628  10.205   9.845   9.004  0.0905 -0.0403 -0.4281
24571SOL    HW177629  10.168   9.759   9.028 -0.6475 -0.1244 -1.7505
24571SOL    HW277630  10.296   9.826   8.982 -0.1394 -0.5609 -0.9860
24572SOL     OW77631   8.299   0.648   0.382 -0.9360 -0.5966 -0.0056
24572SOL    HW177632   8.304   0.567   0.332 -0.7754 -0.1816 -0.6657
24572SOL    HW277633   8.295   0.718   0.316 -0.9349 -0.0568  0.5530
24573SOL     OW77634   1.880   5.478   2.724 -0.1202 -0.1949 -0.0610
24573SOL    HW177635   1.851   5.482   2.816 -0.4580 -1.2657 -0.1122
24573SOL    HW277636   1.826   5.411   2.685 -0.1619  0.4435 -1.1333
24574SOL     OW77637   1.802   7.144   3.662  0.0773 -0.0796 -0.5176
24574SOL    HW177638   1.724   7.184   3.698  1.0299  1.4142 -0.0227
24574SOL    HW277639   1.809   7.059   3.706 -1.8943 -0.8022 -1.4731
24575SOL     OW77640   4.563   4.352   5.283  0.1629  0.0912  0.4029
24575SOL    HW177641   4.571   4.260   5.310  0.2495  0.4044  1.5120
24575SOL    HW277642   4.601   4.401   5.356 -2.5925  1.1478  1.2254
24576SOL     OW77643   1.278   7.490   4.376 -0.3360 -0.1376 -0.1271
24576SOL    HW177644   1.324   7.493   4.292 -2.3803 -1.0222 -1.3452
24576SOL    HW277645   1.301   7.573   4.418 -0.2346  0.9297 -2.1139
24577SOL     OW77646   9.339   9.799   1.324  0.7024 -0.4104  0.3536
24577SOL    HW177647   9.401   9.861   1.287  1.2420  0.9656  3.2826
24577SOL    HW277648   9.259   9.850   1.337 -0.2290 -1.4728 -0.9525
24578SOL     OW77649  10.116   1.889   8.164 -0.0277  0.1509 -0.1599
24578SOL    HW177650  10.052   1.921   8.101 -1.7765 -0.0317  1.4396
24578SOL    HW277651  10.107   1.794   8.162  0.7112  0.0754 -0.4159
24579SOL     OW77652   4.911   9.495   5.688  0.3699  0.0199 -0.2824
24579SOL    HW177653   4.943   9.530   5.604  1.7646 -0.0692  0.1787
24579SOL    HW277654   4.978   9.521   5.751  0.2882 -1.5096  0.4794
24580SOL     OW77655   2.211   2.942   0.043 -1.0055  0.1851  0.4176
24580SOL    HW177656   2.227   3.036   0.040 -1.6260  0.2852  0.0719
24580SOL    HW277657   2.292   2.905   0.078 -0.1309  0.6946 -0.9886
24581SOL     OW77658   5.450   7.839   9.354  0.0410  0.4526  0.7722
24581SOL    HW177659   5.428   7.907   9.291 -1.6511  1.3350  2.2224
24581SOL    HW277660   5.483   7.766   9.301 -0.1653  1.5907 -0.9861
24582SOL     OW77661   2.580   0.994   7.495  0.3475 -0.3650 -0.7414
24582SOL    HW177662   2.652   0.946   7.536  0.7433  0.0548 -0.9253
24582SOL    HW277663   2.582   0.968   7.403 -0.5032 -1.2626 -0.5185
24583SOL     OW77664   2.887  10.005   8.540  0.1808  0.4968  0.1919
24583SOL    HW177665   2.822  10.025   8.608 -1.0312  1.0901 -1.0624
24583SOL    HW277666   2.846   9.936   8.487  0.2378  1.3588 -1.0299
24584SOL     OW77667   0.787   7.274   6.913  0.2931  0.0211 -0.3971
24584SOL    HW177668   0.827   7.338   6.854  0.6497  1.7446  1.5795
24584SOL    HW277669   0.860   7.244   6.968 -0.4048  0.1450  0.6180
24585SOL     OW77670   4.818   6.772   0.548  0.1795 -0.4894 -0.3960
24585SOL    HW177671   4.755   6.838   0.578  0.5678 -0.2495 -0.1064
24585SOL    HW277672   4.780   6.740   0.466 -1.0006 -1.3117  0.4379
24586SOL     OW77673   5.246   5.298   1.042 -0.9357 -0.2596  0.2807
24586SOL    HW177674   5.217   5.308   1.133 -1.9621  0.6343 -0.1119
24586SOL    HW277675   5.324   5.353   1.035  0.8764 -2.5502  1.3100
24587SOL     OW77676   7.581   2.681   1.977 -0.4522 -0.1083  0.3393
24587SOL    HW177677   7.645   2.732   1.928 -1.4520 -1.4447 -2.5485
24587SOL    HW277678   7.634   2.629   2.038  1.1100 -0.2064 -1.0277
24588SOL     OW77679   8.274   1.976   3.889 -0.4914 -0.1721 -0.2068
24588SOL    HW177680   8.356   1.965   3.842 -0.0267  0.9896  0.2968
24588SOL    HW277681   8.213   2.009   3.823 -0.2345  0.1030 -0.3052
24589SOL     OW77682   8.517   7.439   2.296 -0.0277  0.0039  0.2043
24589SOL    HW177683   8.595   7.490   2.316 -0.0231 -0.5975  1.8826
24589SOL    HW277684   8.548   7.367   2.242 -0.0946  1.8910 -2.5271
24590SOL     OW77685   7.923   7.755   9.366 -0.6732  0.3625  0.5167
24590SOL    HW177686   7.971   7.836   9.382  0.8795  0.1010 -2.2034
24590SOL    HW277687   7.915   7.750   9.271 -1.9086 -2.0171  0.6679
24591SOL     OW77688   2.401   2.866   3.093 -0.0838  0.8178 -0.2610
24591SOL    HW177689   2.424   2.806   3.021 -0.1085  0.1592  0.2716
24591SOL    HW277690   2.450   2.833   3.168 -1.7287  0.1550  0.5840
24592SOL     OW77691  10.188   3.536   2.395 -0.0174  0.2987 -0.0043
24592SOL    HW177692  10.224   3.604   2.452 -0.9615 -0.3641  1.4551
24592SOL    HW277693  10.106   3.574   2.362 -0.6928 -0.1888  1.0417
24593SOL     OW77694   1.568   7.023   4.469 -0.7935 -0.8145 -0.2753
24593SOL    HW177695   1.607   6.967   4.402  1.2624  0.5235 -0.2596
24593SOL    HW277696   1.601   6.989   4.552 -1.2274 -0.8493 -0.1121
24594SOL     OW77697   0.144   9.484   6.678 -0.2748 -0.1104 -0.1401
24594SOL    HW177698   0.205   9.436   6.734  0.2812 -0.7224 -1.2280
24594SOL    HW277699   0.086   9.529   6.738  0.6039 -0.3589  0.9279
24595SOL     OW77700   0.225   4.912   8.038  0.1623  0.3821  0.1220
24595SOL    HW177701   0.194   5.001   8.054  1.1044  0.8888 -0.7375
24595SOL    HW277702   0.312   4.908   8.078  0.0794 -0.1974  0.2644
24596SOL     OW77703   6.537   0.837   0.603  0.4512 -0.3023  0.2947
24596SOL    HW177704   6.598   0.767   0.580 -1.3528 -1.6170 -0.7760
24596SOL    HW277705   6.472   0.795   0.660 -0.8290  0.3610 -0.6032
24597SOL     OW77706   5.263   8.209   3.375 -0.3442  0.4488 -0.3134
24597SOL    HW177707   5.321   8.191   3.449  0.6100 -1.5240 -1.4506
24597SOL    HW277708   5.175   8.204   3.412  0.1424  0.7949  0.9361
24598SOL     OW77709  10.071   9.570   3.016  0.0631  0.1608  0.4311
24598SOL    HW177710  10.076   9.490   3.067 -0.5241  0.1386  0.4598
24598SOL    HW277711  10.134   9.629   3.057 -0.5728  0.2264  1.3423
24599SOL     OW77712   3.062   1.922   0.777  0.4508  1.2585  0.2021
24599SOL    HW177713   3.082   1.884   0.692 -1.7222  0.8658 -0.1827
24599SOL    HW277714   3.070   2.017   0.763  1.9066  1.1516  0.0995
24600SOL     OW77715   1.384   1.426   5.985  0.2235 -0.6004  0.6618
24600SOL    HW177716   1.378   1.358   5.917  0.4561 -1.0574  1.0888
24600SOL    HW277717   1.469   1.411   6.026 -0.6121 -1.4486  2.1948
24601SOL     OW77718   6.628   1.948   0.269  0.4494  0.1838  0.5676
24601SOL    HW177719   6.701   1.887   0.266  0.8238  0.6620 -1.4475
24601SOL    HW277720   6.551   1.895   0.247  0.9555  0.5622 -2.6195
24602SOL     OW77721   5.045   2.232   2.880  0.2250  0.0533  0.3288
24602SOL    HW177722   4.971   2.171   2.884  0.5907 -0.4181 -0.0397
24602SOL    HW277723   5.016   2.302   2.822  0.1852 -0.3005 -0.0839
24603SOL     OW77724   4.078   3.640   8.421 -0.0896 -0.1413 -0.5137
24603SOL    HW177725   4.043   3.553   8.438 -0.8994  0.3802  0.7021
24603SOL    HW277726   4.051   3.661   8.332 -2.1897 -0.1214  0.0805
24604SOL     OW77727   6.275   8.067   5.121 -0.3454 -0.0397 -0.8004
24604SOL    HW177728   6.200   8.024   5.081  0.6041 -1.3959 -1.1846
24604SOL    HW277729   6.250   8.080   5.213 -0.9272 -0.7470 -0.8544
24605SOL     OW77730   7.833   9.183   0.400 -0.2155 -0.1689  0.2021
24605SOL    HW177731   7.834   9.223   0.313 -2.7696 -0.8271 -0.2149
24605SOL    HW277732   7.894   9.109   0.392 -0.2296 -0.0807 -0.9616
24606SOL     OW77733   5.242   3.457   6.577  0.1281  0.1288  0.3672
24606SOL    HW177734   5.321   3.510   6.584  0.4737 -0.3316  0.0688
24606SOL    HW277735   5.224   3.427   6.666 -0.1621  0.8676  0.5619
24607SOL     OW77736   5.465   8.974   8.657  0.1457  0.8365 -0.5703
24607SOL    HW177737   5.559   8.974   8.675  0.4389  0.7543 -1.9734
24607SOL    HW277738   5.456   9.019   8.573 -0.9849  0.1848 -0.8318
24608SOL     OW77739   3.142   5.169   3.297  0.0952  0.5874 -0.1023
24608SOL    HW177740   3.187   5.199   3.218  0.9906 -1.4874 -0.4523
24608SOL    HW277741   3.057   5.138   3.265  0.6545 -0.7265 -0.3713
24609SOL     OW77742   7.057   5.777   2.642  0.9055  0.4361 -0.1161
24609SOL    HW177743   7.004   5.721   2.699 -0.9103  2.2383  0.0954
24609SOL    HW277744   7.145   5.772   2.679  0.3322 -0.5558  1.1998
24610SOL     OW77745   8.128   7.737   4.300 -0.1829  0.2043  0.2852
24610SOL    HW177746   8.197   7.796   4.330 -0.7988  1.1219 -0.0670
24610SOL    HW277747   8.092   7.779   4.222 -0.8001 -0.5135  0.1712
24611SOL     OW77748   7.885   5.838   3.903  0.1157  0.0269 -0.6392
24611SOL    HW177749   7.819   5.815   3.969  0.1848  1.3520 -0.0663
24611SOL    HW277750   7.905   5.756   3.859 -0.7543 -0.6863  0.2498
24612SOL     OW77751   1.655   2.292   1.214  0.5021  0.7302  0.3532
24612SOL    HW177752   1.573   2.241   1.214  0.9515 -0.0092  0.3871
24612SOL    HW277753   1.658   2.333   1.128  0.7556 -0.3425 -0.1636
24613SOL     OW77754   5.057   7.850   3.826  0.6603 -0.4124 -0.0740
24613SOL    HW177755   5.109   7.869   3.748  0.7174 -1.2124 -0.2336
24613SOL    HW277756   5.095   7.769   3.861 -0.7959 -1.2890 -0.4735
24614SOL     OW77757   8.694   6.137   6.190 -0.0891  0.1830  0.1067
24614SOL    HW177758   8.768   6.198   6.181 -0.9435  1.5670  1.8115
24614SOL    HW277759   8.652   6.137   6.104  2.5728 -1.6716 -1.3423
24615SOL     OW77760   8.467   0.443   2.470  0.2419  0.4135  0.1570
24615SOL    HW177761   8.554   0.464   2.503  0.3124  2.0097 -0.9688
24615SOL    HW277762   8.475   0.449   2.375 -0.8034 -0.7097 -0.0347
24616SOL     OW77763   1.117   3.867   7.147 -0.2620  0.1642  0.3721
24616SOL    HW177764   1.095   3.959   7.165  3.1841  1.0489  0.7302
24616SOL    HW277765   1.077   3.850   7.061 -1.3056  1.8252  0.4708
24617SOL     OW77766   4.475   2.242   1.045  1.0425 -0.0981 -0.2376
24617SOL    HW177767   4.552   2.267   1.097 -0.4511 -1.1721  2.6653
24617SOL    HW277768   4.445   2.160   1.084 -0.5827 -0.6369 -2.4396
24618SOL     OW77769   5.630   4.305   5.808 -0.0821  0.2041 -0.1470
24618SOL    HW177770   5.545   4.283   5.845  0.1857 -1.2001 -0.3056
24618SOL    HW277771   5.658   4.383   5.855 -1.1303  0.2534  0.4150
24619SOL     OW77772   8.088   7.472   4.002 -0.3581  0.6237 -0.4327
24619SOL    HW177773   8.110   7.445   4.091 -1.3380 -1.0254 -0.6368
24619SOL    HW277774   8.136   7.553   3.988  1.2777 -0.0614  0.9429
24620SOL     OW77775   1.117   2.444   5.255 -0.1033  0.0222  0.3125
24620SOL    HW177776   1.143   2.425   5.345 -0.8519  1.1552  0.7916
24620SOL    HW277777   1.070   2.527   5.261 -2.4224 -1.1166 -0.7388
24621SOL     OW77778   5.723   6.540   0.355 -0.0858  0.3332 -0.1912
24621SOL    HW177779   5.649   6.527   0.414 -1.4379  3.3825 -1.0520
24621SOL    HW277780   5.777   6.606   0.399  1.0233 -0.2946 -0.5725
24622SOL     OW77781   6.276   7.328   4.525 -0.4616 -0.2306  0.1356
24622SOL    HW177782   6.191   7.286   4.509 -1.5467  2.5771 -2.2119
24622SOL    HW277783   6.279   7.339   4.620 -1.4962 -2.6594  0.5434
24623SOL     OW77784   7.008   9.658   1.119 -0.5549 -0.0151 -0.1516
24623SOL    HW177785   6.979   9.704   1.198 -1.1547  0.3169 -0.5614
24623SOL    HW277786   7.100   9.684   1.109 -0.8420  1.0062 -0.2980
24624SOL     OW77787   2.917   9.056   5.669 -0.7764 -0.3073 -0.4444
24624SOL    HW177788   2.998   9.005   5.670 -0.3223  0.3835 -1.2111
24624SOL    HW277789   2.922   9.108   5.589 -1.5040  0.5099  0.0237
24625SOL     OW77790   2.994   3.468   0.881 -0.0214 -0.0649  0.3426
24625SOL    HW177791   2.946   3.531   0.935  0.1783 -0.3423  0.8552
24625SOL    HW277792   3.056   3.428   0.942 -1.4437 -2.1392  0.5404
24626SOL     OW77793   2.965   3.801   5.516 -0.2340 -0.0050 -0.1319
24626SOL    HW177794   3.051   3.841   5.526 -0.4566  0.2848  0.6612
24626SOL    HW277795   2.946   3.808   5.422 -0.2667  1.7676 -0.0262
24627SOL     OW77796   0.628   0.994   2.665  0.0641  0.1561 -0.1163
24627SOL    HW177797   0.549   0.968   2.617  0.0748 -1.1912  0.5444
24627SOL    HW277798   0.690   0.922   2.650 -0.0068 -0.4283  2.0323
24628SOL     OW77799   5.000   1.788   3.926 -0.4115 -0.4015 -0.2242
24628SOL    HW177800   5.031   1.818   4.012  0.6227  0.3323 -0.8203
24628SOL    HW277801   4.930   1.849   3.903  2.0312  2.0870 -1.6654
24629SOL     OW77802   9.388   9.280   2.932 -0.0918 -0.1995 -0.2197
24629SOL    HW177803   9.317   9.247   2.987 -1.5828  3.0818  0.1038
24629SOL    HW277804   9.345   9.309   2.852  1.0577  0.7500 -0.5225
24630SOL     OW77805   4.635   4.747   1.550  0.0497 -0.5575  0.2636
24630SOL    HW177806   4.683   4.682   1.499  3.1759  1.8304 -0.1639
24630SOL    HW277807   4.606   4.700   1.628  0.8699 -2.7680 -0.6877
24631SOL     OW77808   8.450   9.882   9.430 -0.4837  0.2963 -0.0065
24631SOL    HW177809   8.378   9.923   9.478  0.0875  0.5837  0.6250
24631SOL    HW277810   8.528   9.905   9.481 -0.0574 -0.8668 -0.1054
24632SOL     OW77811   3.356   2.357   2.510  0.1525 -0.1339 -0.1479
24632SOL    HW177812   3.351   2.436   2.563 -0.2201 -0.0365 -0.3210
24632SOL    HW277813   3.349   2.388   2.420  0.8628 -0.2879 -0.2644
24633SOL     OW77814   5.537   9.900   3.891 -0.1785  0.0547  0.3915
24633SOL    HW177815   5.601   9.971   3.898 -0.8555  0.6076  1.2865
24633SOL    HW277816   5.550   9.847   3.969 -2.3465  1.5442  1.8889
24634SOL     OW77817   8.077   2.509   4.220 -0.2793  0.3142 -0.0480
24634SOL    HW177818   8.150   2.480   4.165  1.3753  1.5602  1.3809
24634SOL    HW277819   8.086   2.459   4.301 -2.2050 -0.9077 -0.5281
24635SOL     OW77820   5.473   5.809   9.292 -0.0109 -0.0109  0.5534
24635SOL    HW177821   5.419   5.732   9.274 -0.1252  0.5178 -1.7384
24635SOL    HW277822   5.523   5.786   9.370 -0.3026 -2.2749  0.1448
24636SOL     OW77823   7.843   8.133   5.853  0.0114 -0.1909  0.5603
24636SOL    HW177824   7.868   8.191   5.781 -2.6683  0.3981 -0.0168
24636SOL    HW277825   7.920   8.079   5.869  1.2804  0.8858 -1.5465
24637SOL     OW77826   8.814   5.889   4.905 -0.0639 -0.2510 -0.2541
24637SOL    HW177827   8.754   5.955   4.872 -0.1474  0.0745  0.5389
24637SOL    HW277828   8.771   5.805   4.885 -1.0241 -0.0144  0.7625
24638SOL     OW77829   8.289   7.467   1.943  0.2783  0.1609  0.4470
24638SOL    HW177830   8.302   7.388   1.891  0.7993  0.8265 -0.4633
24638SOL    HW277831   8.377   7.494   1.968  0.0233 -0.3841  2.0889
24639SOL     OW77832   8.936   9.483   0.370  0.3410  0.1244 -0.4239
24639SOL    HW177833   8.981   9.413   0.322  0.9020 -0.9532  1.5752
24639SOL    HW277834   9.005   9.546   0.389  0.4446 -0.1829  0.2437
24640SOL     OW77835   3.556   9.872   1.770 -0.3748  0.6125  0.1292
24640SOL    HW177836   3.565   9.797   1.711  2.4429  0.6097  0.4115
24640SOL    HW277837   3.592   9.945   1.721 -0.9368  1.2898  0.7090
24641SOL     OW77838   6.556   8.030   6.151  0.8526 -0.8859 -0.2267
24641SOL    HW177839   6.601   8.074   6.223  0.6754 -2.0249  0.5941
24641SOL    HW277840   6.537   8.101   6.089  0.9657  0.1341  0.8564
24642SOL     OW77841   5.404   3.353   6.806  0.1373  0.3253  0.3096
24642SOL    HW177842   5.381   3.300   6.882  0.3829  1.3679  1.1422
24642SOL    HW277843   5.500   3.350   6.803  0.1453  0.6199  0.2812
24643SOL     OW77844   8.607   0.203   0.721  0.1048 -0.6975 -0.0356
24643SOL    HW177845   8.693   0.242   0.734 -0.2919 -0.4018  2.0684
24643SOL    HW277846   8.595   0.203   0.626  1.2687  1.7796 -0.2554
24644SOL     OW77847   5.625   4.006   2.610 -0.0416 -0.2635  0.2506
24644SOL    HW177848   5.661   3.948   2.678 -0.1653 -0.0477  0.4983
24644SOL    HW277849   5.607   4.088   2.655  3.0702  1.1109 -0.6883
24645SOL     OW77850   6.831   4.437   5.135 -0.8408 -0.1402 -0.9082
24645SOL    HW177851   6.812   4.501   5.067 -0.6515 -0.4845 -1.2862
24645SOL    HW277852   6.765   4.452   5.202 -0.3392  0.9639 -0.6412
24646SOL     OW77853   0.076   5.421  10.167  1.2357 -0.1148  0.4243
24646SOL    HW177854   0.041   5.483  10.103  1.4845 -0.4752 -0.0661
24646SOL    HW277855   0.107   5.348  10.114 -0.4382 -1.3537  1.0661
24647SOL     OW77856   0.583   2.886   1.552  0.1923 -0.4146  0.2398
24647SOL    HW177857   0.617   2.888   1.641  2.1522  2.6882 -0.4395
24647SOL    HW277858   0.533   2.968   1.543 -0.6771 -1.0575 -1.2781
24648SOL     OW77859   4.078   0.239   9.121  0.2754  0.1090 -0.4127
24648SOL    HW177860   4.051   0.160   9.075 -1.6702  0.9146 -0.7519
24648SOL    HW277861   4.018   0.245   9.196  1.1588  0.6479  0.2823
24649SOL     OW77862   6.551   3.827   8.088 -0.0477 -0.4920 -0.1786
24649SOL    HW177863   6.532   3.803   8.179  1.1822 -1.1330 -0.0683
24649SOL    HW277864   6.644   3.845   8.087  0.0609 -1.0138 -1.4209
24650SOL     OW77865   9.868   9.217   7.119 -0.5120 -0.1091 -0.0402
24650SOL    HW177866   9.865   9.310   7.100 -2.2342 -0.0121  0.5225
24650SOL    HW277867   9.807   9.205   7.192 -1.0745 -1.8112 -0.7396
24651SOL     OW77868   8.171   0.169   5.871 -0.2388  0.5043 -0.6197
24651SOL    HW177869   8.218   0.214   5.942  2.4641 -0.0551 -1.9499
24651SOL    HW277870   8.233   0.104   5.838 -1.0345  1.2515 -4.0004
24652SOL     OW77871   4.783   8.288   3.983  0.4242  0.0915  0.1169
24652SOL    HW177872   4.838   8.231   4.035  0.8848 -0.9551 -1.4494
24652SOL    HW277873   4.755   8.234   3.909 -1.0426  1.2081 -0.2068
24653SOL     OW77874   0.199   7.952   9.013  0.5398 -0.7782  0.0473
24653SOL    HW177875   0.190   7.940   8.919  2.0420 -2.2480  0.0477
24653SOL    HW277876   0.262   8.023   9.023  0.1438 -0.4095 -0.0353
24654SOL     OW77877   7.892   3.903   4.681 -0.0255  0.5561  0.3667
24654SOL    HW177878   7.869   3.990   4.713  0.0950  1.2546 -1.3517
24654SOL    HW277879   7.983   3.911   4.653  0.1667 -0.2931  0.7097
24655SOL     OW77880   1.530   1.652   3.325 -0.2020 -0.1535  0.0365
24655SOL    HW177881   1.525   1.717   3.255 -3.3712  0.5195  0.7269
24655SOL    HW277882   1.576   1.696   3.396  0.0793  0.3631 -0.4639
24656SOL     OW77883   0.016  10.182   2.792  0.2756  0.5332 -0.7358
24656SOL    HW177884   0.088  10.139   2.838  1.4538  2.9949 -0.1162
24656SOL    HW277885  -0.003  10.260   2.844 -3.1270 -0.1483 -0.6901
24657SOL     OW77886   4.517   5.988   5.546  0.3412 -0.1513  0.2351
24657SOL    HW177887   4.454   5.927   5.509  0.7900 -0.9095  0.6925
24657SOL    HW277888   4.540   6.046   5.473 -0.3674 -0.2881 -0.1059
24658SOL     OW77889   8.426   2.888   4.983  0.0169  0.4138 -0.0929
24658SOL    HW177890   8.449   2.975   4.951 -0.1308  0.7732  0.7488
24658SOL    HW277891   8.450   2.890   5.075 -0.7790 -0.1459  0.1374
24659SOL     OW77892   0.134   0.342   6.027 -0.3299 -0.3423 -0.5103
24659SOL    HW177893   0.066   0.364   6.092 -1.4139  0.1151 -1.7499
24659SOL    HW277894   0.149   0.424   5.980  1.4532 -0.3176  0.0269
24660SOL     OW77895   7.907   7.143   6.402  0.6107  0.0277 -0.1188
24660SOL    HW177896   7.817   7.174   6.406  0.2983 -0.3752 -2.5800
24660SOL    HW277897   7.903   7.064   6.348  2.5996  0.8480 -1.5882
24661SOL     OW77898   9.429   1.618   1.671 -0.2792  0.2441  0.4012
24661SOL    HW177899   9.414   1.699   1.718 -0.4538  1.3251 -1.4348
24661SOL    HW277900   9.437   1.551   1.740 -1.1952  1.6132  1.9037
24662SOL     OW77901   7.104   3.794   3.645 -0.1533  0.6608 -0.0399
24662SOL    HW177902   7.043   3.860   3.679 -0.0723  0.0105  1.4145
24662SOL    HW277903   7.104   3.809   3.550 -2.2418  0.9464 -0.0480
24663SOL     OW77904   1.155   2.949   6.955  0.1919  0.2541 -0.8300
24663SOL    HW177905   1.241   2.908   6.967 -0.1982 -0.4026 -0.2574
24663SOL    HW277906   1.103   2.918   7.029 -0.6324  0.4233 -1.3348
24664SOL     OW77907   5.021   8.980   8.268 -0.1906  0.5286 -0.3164
24664SOL    HW177908   5.047   8.981   8.176  0.9438  1.6537 -0.0259
24664SOL    HW277909   4.938   8.933   8.270 -0.1007  0.2658 -1.8742
24665SOL     OW77910   0.287   9.794   5.003 -0.9691  0.1607  0.0008
24665SOL    HW177911   0.363   9.851   5.001  0.4843 -1.6299  1.0782
24665SOL    HW277912   0.238   9.822   5.080 -0.1100 -0.1725  0.6915
24666SOL     OW77913   4.921   8.371   1.455 -0.3303  0.1188 -0.0218
24666SOL    HW177914   4.971   8.404   1.530  1.2064 -0.8683 -0.5722
24666SOL    HW277915   4.864   8.304   1.493 -0.2744  0.3107  0.4115
24667SOL     OW77916   7.385   4.469   4.525 -0.1329  0.3880 -0.1611
24667SOL    HW177917   7.422   4.517   4.599 -1.7251  0.0098  0.9305
24667SOL    HW277918   7.312   4.420   4.562  0.3117 -1.4740 -1.5982
24668SOL     OW77919   1.085   3.320   5.216 -0.3506 -1.4252 -0.1956
24668SOL    HW177920   1.005   3.271   5.236  0.4602 -1.6763  2.9854
24668SOL    HW277921   1.147   3.252   5.188 -0.5250 -1.5764 -0.2239
24669SOL     OW77922   8.476   2.800   8.688  0.2031 -0.7457 -0.2937
24669SOL    HW177923   8.519   2.881   8.716  0.2847 -0.4902 -1.1316
24669SOL    HW277924   8.397   2.829   8.644  0.3960 -1.1009 -0.8854
24670SOL     OW77925   9.477   2.115   4.875 -0.6493  0.6097 -0.4226
24670SOL    HW177926   9.465   2.072   4.960 -1.0793  0.5372 -0.5190
24670SOL    HW277927   9.530   2.054   4.824  2.6791  2.1002  0.9386
24671SOL     OW77928   9.457   8.580   4.600 -0.2848  0.3275  0.2097
24671SOL    HW177929   9.432   8.588   4.692 -2.2854 -1.1182 -0.1168
24671SOL    HW277930   9.432   8.664   4.560 -3.2806 -0.3872  0.2852
24672SOL     OW77931   3.184   9.878   2.631  0.4903 -0.3351 -0.3264
24672SOL    HW177932   3.252   9.945   2.619 -0.2110  0.2578 -1.0582
24672SOL    HW277933   3.112   9.925   2.673 -0.0159 -0.6262 -0.8601
24673SOL     OW77934   5.450   2.377   5.385  0.5955 -0.3482  0.5639
24673SOL    HW177935   5.463   2.404   5.294 -2.4567  1.7598  0.6076
24673SOL    HW277936   5.473   2.284   5.386  3.9412  0.2799 -1.5129
24674SOL     OW77937   8.165   6.541   7.077 -0.3801 -0.0151  0.0584
24674SOL    HW177938   8.128   6.476   7.018 -1.6231  1.6938 -1.1524
24674SOL    HW277939   8.211   6.602   7.020 -1.1843  1.4045  0.8430
24675SOL     OW77940   3.948   7.170   6.804  0.5874  0.0120  0.5292
24675SOL    HW177941   4.016   7.109   6.775  0.9910  0.6664  0.0642
24675SOL    HW277942   3.996   7.249   6.829 -0.0641  0.8284 -0.7267
24676SOL     OW77943   2.075   4.676   7.477 -0.1048  0.7786  0.4871
24676SOL    HW177944   2.032   4.757   7.449 -1.0998  0.5033  1.1934
24676SOL    HW277945   2.162   4.681   7.437 -0.4694  1.7632 -0.2309
24677SOL     OW77946   3.321   4.729   7.870 -0.3266 -0.2455  0.5477
24677SOL    HW177947   3.310   4.785   7.946 -2.0218  0.2512 -0.0231
24677SOL    HW277948   3.313   4.640   7.904  1.2350 -0.1356  1.2809
24678SOL     OW77949   5.145   3.139   5.860  0.6150 -0.3926  0.4615
24678SOL    HW177950   5.078   3.144   5.929  2.0499  2.0743  1.8210
24678SOL    HW277951   5.225   3.171   5.901  1.4650  1.6494 -2.4361
24679SOL     OW77952   9.035   8.217   6.334 -0.2189 -0.0798  0.7819
24679SOL    HW177953   9.048   8.155   6.262 -1.8791  1.6198 -1.0866
24679SOL    HW277954   9.113   8.272   6.331 -0.1035 -0.2499  0.5362
24680SOL     OW77955   0.672   4.645   7.624  0.0248  0.0654  0.5170
24680SOL    HW177956   0.598   4.678   7.573  0.6682 -0.3238 -0.7110
24680SOL    HW277957   0.746   4.700   7.597  1.0396 -2.0288 -1.3037
24681SOL     OW77958   3.764   2.307   6.641  0.2136  0.1605 -0.0413
24681SOL    HW177959   3.720   2.249   6.579 -1.0536  0.4696  0.5512
24681SOL    HW277960   3.853   2.316   6.605 -0.1423 -0.5868 -1.1781
24682SOL     OW77961   8.787   3.863   4.296 -0.1441 -0.3867  0.3387
24682SOL    HW177962   8.832   3.921   4.234  1.5616 -0.4415  1.4455
24682SOL    HW277963   8.830   3.880   4.379 -1.5440 -1.2219  1.2706
24683SOL     OW77964   3.771   8.473   3.111  0.1779  0.1136 -0.3048
24683SOL    HW177965   3.843   8.536   3.118  0.5297 -0.2869 -0.2406
24683SOL    HW277966   3.815   8.389   3.094 -0.2421 -0.2300  0.2901
24684SOL     OW77967   7.377   3.675   4.721 -0.2310  0.5534 -0.1010
24684SOL    HW177968   7.415   3.588   4.724 -0.9270  0.2132 -0.9527
24684SOL    HW277969   7.453   3.734   4.723  0.2307 -0.0410  0.8615
24685SOL     OW77970   6.278   0.919   2.730 -0.6244 -0.1002  0.1551
24685SOL    HW177971   6.288   0.914   2.825 -0.7111 -0.0722  0.1663
24685SOL    HW277972   6.185   0.940   2.717 -0.2947  1.4137  0.1046
24686SOL     OW77973   1.474   0.381   1.638  0.1486 -0.0697  0.1698
24686SOL    HW177974   1.396   0.418   1.678 -0.0952 -2.2772  1.8897
24686SOL    HW277975   1.469   0.287   1.655  2.2095 -0.5521 -1.3861
24687SOL     OW77976   0.585   1.299   1.616 -0.4551 -0.1055 -0.2296
24687SOL    HW177977   0.629   1.321   1.698  0.3655 -2.0891 -0.0754
24687SOL    HW277978   0.586   1.380   1.565  2.0094  0.3439  0.3974
24688SOL     OW77979   9.170   9.392   9.784 -0.0304  0.1124 -0.0215
24688SOL    HW177980   9.082   9.383   9.748 -0.3153  2.0949  0.0574
24688SOL    HW277981   9.220   9.437   9.716  0.4309  0.5677  0.6022
24689SOL     OW77982   7.775   7.172   8.641  0.2933 -0.2527  0.1459
24689SOL    HW177983   7.745   7.150   8.553 -2.5072  1.0471  0.6433
24689SOL    HW277984   7.854   7.224   8.628 -0.2851  0.2490 -1.6549
24690SOL     OW77985   4.842   6.323   0.394 -0.5159 -0.0802 -0.0251
24690SOL    HW177986   4.884   6.324   0.480 -1.0691  0.5565  0.2494
24690SOL    HW277987   4.752   6.352   0.411 -0.0251  2.3999 -1.1176
24691SOL     OW77988   5.512   9.153   8.889  0.4219  0.1854  0.0788
24691SOL    HW177989   5.498   9.131   8.981  0.7669 -1.5369 -0.2456
24691SOL    HW277990   5.457   9.091   8.841  1.9299 -0.4472 -0.9155
24692SOL     OW77991   6.015   8.609   0.723  1.0592 -0.4764  0.0821
24692SOL    HW177992   6.037   8.516   0.724  0.9399 -0.5205  2.2456
24692SOL    HW277993   5.921   8.612   0.737  1.0956 -0.0187  0.2522
24693SOL     OW77994   2.193   6.527   4.601 -0.3031  0.7385  0.2078
24693SOL    HW177995   2.201   6.595   4.668  0.3813  1.3510 -0.4655
24693SOL    HW277996   2.158   6.451   4.647 -1.8150  1.7697  0.8318
24694SOL     OW77997   9.574   5.087   1.430 -0.3022 -0.0574  0.4094
24694SOL    HW177998   9.657   5.046   1.453  0.2677  0.6008 -0.4304
24694SOL    HW277999   9.571   5.167   1.482 -1.5480 -1.2306  2.2701
24695SOL     OW78000   2.662   8.418   2.491 -0.3281 -0.5120 -0.2798
24695SOL    HW178001   2.648   8.435   2.398 -0.1331  0.0471 -0.2103
24695SOL    HW278002   2.596   8.352   2.514 -0.9717  0.0048 -0.6087
24696SOL     OW78003   7.380   9.818   8.809  0.5825  0.3715  0.3483
24696SOL    HW178004   7.389   9.723   8.811 -1.3533  0.1663  1.0682
24696SOL    HW278005   7.389   9.845   8.900  0.0995  0.7651  0.2819
24697SOL     OW78006   8.006   1.130   9.522  0.5116  0.5257  0.0188
24697SOL    HW178007   7.982   1.127   9.430  0.3798 -2.1896  0.0763
24697SOL    HW278008   8.067   1.204   9.528  1.1861  0.2671 -2.4103
24698SOL     OW78009   4.874   7.909   5.012 -0.0344 -0.9293 -0.2963
24698SOL    HW178010   4.906   7.993   4.979 -0.0601 -0.3486  1.0887
24698SOL    HW278011   4.793   7.894   4.963  1.8624 -2.1001 -3.3744
24699SOL     OW78012   9.876   4.893   3.686  0.5545 -0.6020 -0.4375
24699SOL    HW178013   9.951   4.877   3.742 -0.9649 -1.5262  1.4483
24699SOL    HW278014   9.855   4.807   3.648  0.1300 -0.4636 -0.5289
24700SOL     OW78015   7.570   5.764   5.680  0.1853  0.1931  0.3891
24700SOL    HW178016   7.614   5.690   5.721 -0.9706 -1.7041 -1.5912
24700SOL    HW278017   7.602   5.764   5.590 -1.8826  0.3557 -0.3948
24701SOL     OW78018   8.269   7.014   7.649  0.1527 -0.5622 -0.2379
24701SOL    HW178019   8.303   6.996   7.561 -1.5353  1.6662 -1.4526
24701SOL    HW278020   8.176   6.994   7.643 -0.1450  0.4108  0.7760
24702SOL     OW78021   1.005   2.781   2.906 -0.4874  0.5041 -0.0504
24702SOL    HW178022   0.989   2.704   2.960  0.1991  1.2427  1.2564
24702SOL    HW278023   1.018   2.746   2.817 -1.0176 -0.7889  0.3566
24703SOL     OW78024   8.282   1.390   4.493  0.1137 -0.2279  0.0288
24703SOL    HW178025   8.209   1.429   4.542  1.1374  1.1736  0.4860
24703SOL    HW278026   8.239   1.330   4.432 -1.3519 -0.2519  1.0121
24704SOL     OW78027   2.214   6.752   1.586 -0.7154  0.6787 -0.6690
24704SOL    HW178028   2.154   6.789   1.522 -1.5479 -0.0192 -0.3061
24704SOL    HW278029   2.170   6.674   1.619  0.5331 -0.0330 -0.6234
24705SOL     OW78030   2.913   1.868   8.138 -0.0033 -0.0005  0.1542
24705SOL    HW178031   2.898   1.959   8.112  0.9164  0.4070  1.0116
24705SOL    HW278032   2.936   1.824   8.056 -1.4827  0.2774 -0.4539
24706SOL     OW78033   2.055   6.905   7.475  0.0991 -0.1074 -0.3093
24706SOL    HW178034   2.148   6.885   7.465  0.4513  0.2898  1.6072
24706SOL    HW278035   2.010   6.844   7.417  1.5859  0.3808 -2.0521
24707SOL     OW78036   9.762   4.185   0.060 -0.0789  0.2652  0.5755
24707SOL    HW178037   9.803   4.159   0.143  0.5569 -0.9647 -0.0805
24707SOL    HW278038   9.762   4.104   0.008 -0.1747  1.0789 -0.7312
24708SOL     OW78039   4.739   2.972   8.335  0.1349  0.5441 -0.2733
24708SOL    HW178040   4.825   3.010   8.350  0.1611  0.3188  0.1947
24708SOL    HW278041   4.719   2.926   8.417 -0.0217 -0.1984 -0.7208
24709SOL     OW78042   7.790   8.555   8.965  0.4385 -0.1453 -0.0508
24709SOL    HW178043   7.745   8.502   8.899  1.6690  1.2960 -2.1694
24709SOL    HW278044   7.848   8.493   9.010 -0.8315 -1.2672  0.1091
24710SOL     OW78045   9.332   1.845   4.515 -0.4117 -0.7530 -0.1211
24710SOL    HW178046   9.310   1.908   4.447  0.4605  1.0945  1.2318
24710SOL    HW278047   9.389   1.893   4.575 -1.7181 -2.0591  2.3278
24711SOL     OW78048   8.433   2.519  10.036 -0.6736 -0.5139 -0.0791
24711SOL    HW178049   8.343   2.547  10.018  0.3712  2.6588 -0.9393
24711SOL    HW278050   8.422   2.438  10.086 -3.9631 -0.9148 -1.1717
24712SOL     OW78051   4.035   9.414   3.021  0.1418  0.6198 -0.6337
24712SOL    HW178052   4.056   9.401   2.928 -2.5005 -1.4104 -1.0632
24712SOL    HW278053   3.950   9.373   3.032 -0.4315  2.3497  2.3637
24713SOL     OW78054   3.730   2.984   8.646 -0.3590  0.2058 -0.1251
24713SOL    HW178055   3.670   3.020   8.711 -0.7313 -0.0887 -0.3047
24713SOL    HW278056   3.733   2.890   8.665 -0.6792  0.0742 -0.6952
24714SOL     OW78057   6.757   3.364   0.096 -0.2218  0.1208  0.2456
24714SOL    HW178058   6.806   3.444   0.113 -0.6022  0.5447 -0.5671
24714SOL    HW278059   6.820   3.305   0.055  0.0571  0.0100  0.8347
24715SOL     OW78060   4.929   5.988   5.431  0.2162 -0.3299 -0.2545
24715SOL    HW178061   4.872   5.912   5.415 -0.8278  0.2844  0.4656
24715SOL    HW278062   5.010   5.949   5.464 -0.2486 -1.1444 -0.0324
24716SOL     OW78063  10.060   2.048   7.641  0.3364 -0.0354 -0.1162
24716SOL    HW178064  10.148   2.078   7.663 -0.4955  1.3129  1.6203
24716SOL    HW278065  10.049   2.070   7.549  0.8642  2.3495  0.3220
24717SOL     OW78066   0.162   8.783   5.192 -0.6332  0.1660  0.4760
24717SOL    HW178067   0.155   8.869   5.151  0.2704 -0.5191 -1.2285
24717SOL    HW278068   0.212   8.798   5.272  1.2214  0.9948 -0.7513
24718SOL     OW78069   9.537   1.789   4.050  0.2421 -0.1366 -0.1060
24718SOL    HW178070   9.450   1.791   4.090  0.7834 -0.5428  1.1058
24718SOL    HW278071   9.529   1.847   3.974 -0.9574  0.1928  0.2506
24719SOL     OW78072   0.551   9.349   2.095 -0.5372  0.2128  0.2850
24719SOL    HW178073   0.576   9.336   2.186  1.0726 -0.2928 -0.2090
24719SOL    HW278074   0.503   9.270   2.071  1.6057 -1.0094 -0.1419
24720SOL     OW78075   1.893   4.872   5.447  0.0192  0.5761 -0.1797
24720SOL    HW178076   1.839   4.867   5.526  0.3210  0.6298  0.0304
24720SOL    HW278077   1.846   4.819   5.382 -0.0804  0.2917  0.1224
24721SOL     OW78078   5.174   7.642   3.968  0.0204 -0.4801 -0.2084
24721SOL    HW178079   5.136   7.556   3.990  0.4923 -0.4069  0.9741
24721SOL    HW278080   5.219   7.669   4.048 -0.3512  0.9994 -0.4718
24722SOL     OW78081   0.113   3.086   1.428 -0.2308 -0.0005 -0.1753
24722SOL    HW178082   0.150   3.134   1.502  0.5352  0.3086 -0.7520
24722SOL    HW278083   0.037   3.138   1.401  0.6869  1.0010 -0.9010
24723SOL     OW78084   3.915   9.717   1.033 -0.3303 -0.3588  0.1560
24723SOL    HW178085   3.940   9.757   1.116  2.1830  0.2923 -0.8434
24723SOL    HW278086   3.960   9.632   1.032 -1.8089 -1.1779  0.2019
24724SOL     OW78087   7.415   6.960   0.309  0.5982  0.3003  0.2170
24724SOL    HW178088   7.323   6.971   0.286 -0.2955 -3.0162  1.6339
24724SOL    HW278089   7.439   6.875   0.273  2.8737  0.6989  0.6469
24725SOL     OW78090   6.792   5.900   9.539 -0.5715  1.0088  0.7121
24725SOL    HW178091   6.818   5.808   9.540 -0.0679  1.1401  0.0497
24725SOL    HW278092   6.854   5.943   9.598  0.2100  1.1834 -0.2205
24726SOL     OW78093   1.245   1.625   8.190  0.1850  0.1503  0.0475
24726SOL    HW178094   1.152   1.603   8.197 -0.0702  1.2264  0.3227
24726SOL    HW278095   1.290   1.541   8.189 -0.8450 -0.4247 -1.0020
24727SOL     OW78096   9.531   8.182   4.466 -0.1312  0.6036  0.3702
24727SOL    HW178097   9.544   8.247   4.534  1.6289  1.1066 -0.4115
24727SOL    HW278098   9.451   8.211   4.421 -0.7941  0.7710  1.5928
24728SOL     OW78099   0.723   3.422   5.334  0.1939  0.3499 -0.0327
24728SOL    HW178100   0.714   3.467   5.250 -4.0394 -1.0014 -0.5912
24728SOL    HW278101   0.765   3.339   5.312 -0.6606  0.1100 -0.8641
24729SOL     OW78102   3.856   6.586   0.537  0.4876 -0.4421 -0.0108
24729SOL    HW178103   3.865   6.667   0.487  0.1312 -1.4116 -1.7191
24729SOL    HW278104   3.831   6.615   0.625  0.8539  1.3122 -0.4506
24730SOL     OW78105   6.782   4.260   5.931 -0.6909 -0.4485  0.2550
24730SOL    HW178106   6.771   4.167   5.912  0.1419 -0.5123  0.0406
24730SOL    HW278107   6.874   4.269   5.954 -0.5815  0.4411 -0.4500
24731SOL     OW78108   3.208   3.667   1.075 -0.2025 -0.3661  0.4275
24731SOL    HW178109   3.300   3.684   1.056 -1.1279  0.7916 -4.1123
24731SOL    HW278110   3.197   3.574   1.057  0.4395 -1.2110  3.6836
24732SOL     OW78111   3.480   0.395   7.923  0.3012  0.4069  0.0798
24732SOL    HW178112   3.419   0.463   7.896 -0.1257 -0.6151 -1.7173
24732SOL    HW278113   3.467   0.325   7.859  0.3993 -1.5580  2.1046
24733SOL     OW78114   2.901   4.523   7.568  0.1294  0.5947 -0.2384
24733SOL    HW178115   2.850   4.454   7.611  0.5767 -0.2068 -0.9557
24733SOL    HW278116   2.894   4.598   7.626 -0.1687 -0.1312  0.6862
24734SOL     OW78117   1.820   3.967   2.218  0.0173  0.3293 -0.4387
24734SOL    HW178118   1.895   3.982   2.275  0.2508 -0.9535 -0.3917
24734SOL    HW278119   1.745   4.000   2.267  0.2977 -0.1877  0.3429
24735SOL     OW78120   4.462   0.552   6.554 -0.1306  0.1986 -0.4805
24735SOL    HW178121   4.492   0.563   6.644 -0.0344  2.0694 -0.7007
24735SOL    HW278122   4.542   0.532   6.505  0.0939  0.9471 -0.4216
24736SOL     OW78123   1.014   8.098   6.877 -0.3380  0.4774  0.4276
24736SOL    HW178124   1.084   8.033   6.878  0.7485  1.5984  2.2603
24736SOL    HW278125   0.998   8.117   6.969 -3.5602 -0.2273  0.1268
24737SOL     OW78126   6.845   2.569   1.170  0.6512  0.3650 -0.6550
24737SOL    HW178127   6.862   2.475   1.182 -0.3417  0.1951 -0.4377
24737SOL    HW278128   6.771   2.572   1.108 -1.1690  0.8715  1.4189
24738SOL     OW78129   9.415   6.710   1.475  0.2750  0.4235  0.3645
24738SOL    HW178130   9.488   6.699   1.413 -0.1256 -0.6811  0.0721
24738SOL    HW278131   9.353   6.766   1.428 -0.9906 -2.0757 -1.1678
24739SOL     OW78132   8.178   4.340   3.135  0.3066 -0.8488 -0.1023
24739SOL    HW178133   8.091   4.309   3.110 -0.3597 -0.1459  1.2175
24739SOL    HW278134   8.212   4.272   3.194  0.7246 -1.1982 -0.7394
24740SOL     OW78135   4.983   8.784   5.258  0.2906  0.5263  0.2307
24740SOL    HW178136   4.921   8.715   5.237  0.4702  0.6589 -0.8118
24740SOL    HW278137   4.932   8.848   5.309  0.1696 -0.4192  1.3305
24741SOL     OW78138   9.458   8.316   6.651 -0.5462 -0.3124 -0.1989
24741SOL    HW178139   9.507   8.240   6.681  1.5117  1.2092  0.5616
24741SOL    HW278140   9.411   8.286   6.574 -0.2865 -2.4823  0.4195
24742SOL     OW78141   6.017   0.902   6.285  0.2266  0.4337 -0.2409
24742SOL    HW178142   5.983   0.991   6.277 -1.6749 -0.0526  1.4579
24742SOL    HW278143   6.072   0.904   6.364  0.5145  0.1947 -0.4341
24743SOL     OW78144   6.812   7.083   0.522  0.4530  0.1263  0.2527
24743SOL    HW178145   6.903   7.070   0.493  0.0499 -1.4146 -0.4546
24743SOL    HW278146   6.816   7.072   0.617  0.8769 -0.9247  0.1301
24744SOL     OW78147   3.715   3.224   5.031  0.0604  0.1619 -0.0484
24744SOL    HW178148   3.652   3.162   4.995 -0.6772  0.5044  0.6115
24744SOL    HW278149   3.687   3.236   5.122 -0.3187  2.0549 -0.3697
24745SOL     OW78150   0.110   6.261   0.850 -0.1664 -0.2162  0.4431
24745SOL    HW178151   0.039   6.197   0.856  1.2568 -1.8139  1.4340
24745SOL    HW278152   0.073   6.342   0.886 -1.8716 -0.6005 -0.3606
24746SOL     OW78153   9.409   8.884   0.918 -0.1435 -0.3112 -0.0041
24746SOL    HW178154   9.447   8.941   0.984 -0.3563 -0.2727  0.0876
24746SOL    HW278155   9.316   8.906   0.918 -0.3154 -0.9895  0.3775
24747SOL     OW78156   2.065   2.286   9.672  0.0592  0.0198 -0.1171
24747SOL    HW178157   1.972   2.305   9.660 -0.2422 -1.6311 -0.5836
24747SOL    HW278158   2.075   2.271   9.766 -0.3946 -0.9262 -0.2064
24748SOL     OW78159   9.022   9.348   3.640 -0.3537  0.3395 -0.0501
24748SOL    HW178160   9.049   9.362   3.730  0.1264  0.1742 -0.1681
24748SOL    HW278161   8.944   9.293   3.647 -0.1608  0.1018  0.2504
24749SOL     OW78162   3.209   8.732   0.703 -0.4023 -0.0829 -0.1458
24749SOL    HW178163   3.266   8.766   0.772 -0.6324  1.1210 -0.5323
24749SOL    HW278164   3.171   8.652   0.740  3.2185 -2.2775 -0.6540
24750SOL     OW78165   0.795   7.455   5.161 -0.2183  0.6817 -0.1130
24750SOL    HW178166   0.873   7.505   5.137  0.9497 -0.3758  1.3159
24750SOL    HW278167   0.757   7.504   5.234  1.0406 -0.5472  1.4226
24751SOL     OW78168   6.239   2.897   0.068 -0.4634 -0.1604 -0.2186
24751SOL    HW178169   6.261   2.806   0.085  0.4824  0.4676  2.2462
24751SOL    HW278170   6.168   2.917   0.129  0.1817  1.0711  0.1581
24752SOL     OW78171   3.868   1.675   7.429 -0.0445 -0.2981 -0.0941
24752SOL    HW178172   3.964   1.670   7.427 -0.0151 -1.4658  1.7637
24752SOL    HW278173   3.849   1.769   7.441  0.8497 -0.0288 -0.6984
24753SOL     OW78174   3.951   9.372   4.046  0.7455  0.5804 -0.6883
24753SOL    HW178175   4.025   9.424   4.016 -0.7881  3.3587 -0.0091
24753SOL    HW278176   3.881   9.435   4.059 -0.4184 -1.1910  3.1385
24754SOL     OW78177   3.297   4.784   7.579 -0.0845 -0.6133  0.2539
24754SOL    HW178178   3.320   4.791   7.671 -2.6651  0.3405  0.9084
24754SOL    HW278179   3.248   4.702   7.572 -0.5138 -0.3323 -0.1174
24755SOL     OW78180   2.761   3.530   6.040  0.0016 -0.1545  0.0691
24755SOL    HW178181   2.675   3.570   6.040  0.3790  0.6751 -0.4869
24755SOL    HW278182   2.754   3.459   5.976 -0.2808 -0.1245  0.0658
24756SOL     OW78183   1.785   2.991   5.027 -0.3089  0.1857  0.6420
24756SOL    HW178184   1.859   3.035   4.985  0.0823 -0.0690  1.0692
24756SOL    HW278185   1.728   3.063   5.054 -0.0384  0.3994  0.6487
24757SOL     OW78186   1.603   1.103   6.566  0.3300 -0.6367 -0.1583
24757SOL    HW178187   1.547   1.154   6.625  0.8534 -0.7521  0.4470
24757SOL    HW278188   1.554   1.023   6.549 -0.6359  0.1680 -1.3536
24758SOL     OW78189   5.527   0.955   0.370  0.2546 -0.4312  0.1810
24758SOL    HW178190   5.567   0.929   0.453 -0.2363 -1.1363  0.2072
24758SOL    HW278191   5.601   0.963   0.309  0.4280 -2.3705  0.0542
24759SOL     OW78192   8.953   9.503   4.660  0.0750 -0.0944 -0.3980
24759SOL    HW178193   9.006   9.466   4.730 -0.4283 -1.1818 -0.5725
24759SOL    HW278194   8.975   9.451   4.582  2.5000  2.6382 -1.7270
24760SOL     OW78195   6.606   9.950   6.840 -0.4654 -0.5218  0.6177
24760SOL    HW178196   6.601   9.855   6.841  0.1765 -0.5558  1.4135
24760SOL    HW278197   6.682   9.970   6.785 -0.1596 -0.4944  1.0487
24761SOL     OW78198   3.341   9.257   7.849 -0.4137  0.9369  0.5032
24761SOL    HW178199   3.324   9.346   7.818 -1.2805  0.3067 -0.9473
24761SOL    HW278200   3.312   9.200   7.777  1.3759 -0.4874  0.8168
24762SOL     OW78201   0.574   8.019   2.247 -0.1215  0.3745  0.2107
24762SOL    HW178202   0.508   7.951   2.235  0.5558 -0.5972  1.6988
24762SOL    HW278203   0.527   8.101   2.234 -1.0668 -0.3400 -1.1435
24763SOL     OW78204   4.997   6.797   7.882  0.0147  0.3536 -0.6393
24763SOL    HW178205   4.925   6.820   7.824 -0.9957 -0.8254  0.1136
24763SOL    HW278206   5.072   6.786   7.823 -1.0570 -1.1420 -1.8064
24764SOL     OW78207  10.031   0.868   6.244 -0.0378 -0.1362 -0.6296
24764SOL    HW178208  10.123   0.860   6.270  0.4101  0.5940 -1.8850
24764SOL    HW278209  10.016   0.791   6.188 -0.8328 -1.3987  1.2287
24765SOL     OW78210   5.368   3.211   5.998 -0.3033  0.0676 -0.0251
24765SOL    HW178211   5.440   3.257   5.954  0.6392 -0.0528  1.3288
24765SOL    HW278212   5.389   3.119   5.988 -1.2403 -0.0357 -1.1761
24766SOL     OW78213   2.514   5.662   2.303 -0.0751 -0.2514 -0.0592
24766SOL    HW178214   2.467   5.584   2.333 -1.5214  0.2666 -0.8414
24766SOL    HW278215   2.462   5.735   2.337  0.6492  0.3648 -0.2526
24767SOL     OW78216   3.450   6.278   7.272 -0.0091  0.3023 -0.5282
24767SOL    HW178217   3.492   6.193   7.265  0.5090  0.5005  0.0914
24767SOL    HW278218   3.410   6.292   7.186  0.3006 -0.3486 -0.7866
24768SOL     OW78219   0.757   8.965   0.892  0.7895 -0.4885  0.0943
24768SOL    HW178220   0.716   8.983   0.977  2.1202 -3.1393  1.4275
24768SOL    HW278221   0.811   9.042   0.875 -0.1369  0.4493  1.2305
24769SOL     OW78222   5.402   2.398   2.887 -0.2553 -0.2003 -0.3319
24769SOL    HW178223   5.464   2.396   2.960  0.1383  2.4962 -0.4897
24769SOL    HW278224   5.325   2.444   2.922  0.5956  2.6963 -1.9642
24770SOL     OW78225   2.791  10.141   1.114  0.0891 -0.3538  0.0971
24770SOL    HW178226   2.711  10.108   1.073 -0.4888  0.3806  0.6101
24770SOL    HW278227   2.764  10.164   1.203  1.1614 -1.2597  0.6855
24771SOL     OW78228   0.073   0.366   3.394  0.7157  0.5564  0.3546
24771SOL    HW178229  -0.005   0.410   3.428  0.3353  0.5408 -0.4683
24771SOL    HW278230   0.146   0.422   3.420  0.4446  0.5439  1.1791
24772SOL     OW78231   6.125   0.290   7.323 -0.0212 -0.0072  0.1184
24772SOL    HW178232   6.098   0.309   7.233 -0.1235  0.4033  0.2364
24772SOL    HW278233   6.056   0.232   7.356 -0.2124  0.1909  0.0724
24773SOL     OW78234   5.275   4.527   2.914  0.0104  0.4563 -0.2721
24773SOL    HW178235   5.343   4.461   2.927  0.9444  0.6360 -3.4471
24773SOL    HW278236   5.206   4.502   2.975  1.7592 -1.3550  1.1211
24774SOL     OW78237   7.080   1.699   2.491  0.0245 -0.6394 -0.2694
24774SOL    HW178238   7.029   1.767   2.534  0.3105 -1.2308  1.0479
24774SOL    HW278239   7.032   1.680   2.410  0.1353  1.3652 -0.8632
24775SOL     OW78240   9.259   0.401   7.292 -0.1447  0.2823  0.2122
24775SOL    HW178241   9.226   0.439   7.373  0.4144  1.4782 -0.1058
24775SOL    HW278242   9.212   0.318   7.284  0.6446 -0.4215  2.3460
24776SOL     OW78243   7.642   9.096   7.517 -0.1135  0.1110  0.2202
24776SOL    HW178244   7.590   9.086   7.597  1.0026  0.7766  1.0664
24776SOL    HW278245   7.715   9.035   7.528 -0.8496 -1.0743 -1.1145
24777SOL     OW78246   9.605   2.378   0.552  0.2506  0.3671  0.4876
24777SOL    HW178247   9.523   2.358   0.508  0.5470  0.4504 -0.1105
24777SOL    HW278248   9.593   2.346   0.642  0.7389 -2.6808 -0.4228
24778SOL     OW78249   4.036   5.356   3.590  0.2168 -0.4743  0.0528
24778SOL    HW178250   3.973   5.396   3.530 -0.4122  0.4708  1.2891
24778SOL    HW278251   4.114   5.411   3.583  0.5355 -1.0170 -0.6997
24779SOL     OW78252   8.506   0.846   8.319  0.2359  0.9269 -0.0746
24779SOL    HW178253   8.412   0.858   8.310  0.2156 -0.5929 -3.4500
24779SOL    HW278254   8.542   0.935   8.322 -1.1353  1.5816 -1.8250
24780SOL     OW78255   2.363   8.979   6.559  0.2231  0.2129  0.1230
24780SOL    HW178256   2.423   8.952   6.490  0.4505  0.0442  0.3844
24780SOL    HW278257   2.414   8.974   6.640 -0.2695 -0.4123  0.4106
24781SOL     OW78258   3.749   9.598   9.402  0.2901 -0.0030 -0.3490
24781SOL    HW178259   3.843   9.597   9.381  0.5068  0.6733  0.5243
24781SOL    HW278260   3.719   9.684   9.370  0.2334  0.2709  0.4207
24782SOL     OW78261   1.653   6.055   7.243  0.3280 -0.1444 -0.7655
24782SOL    HW178262   1.662   6.006   7.162  0.9698  0.5917 -1.1480
24782SOL    HW278263   1.643   5.988   7.311  2.1906 -0.8601 -1.1392
24783SOL     OW78264   6.713   6.476   1.655 -0.6973  0.8999  0.7400
24783SOL    HW178265   6.670   6.478   1.569 -0.4314 -0.2649  0.5651
24783SOL    HW278266   6.677   6.398   1.697  0.9967  0.0729  0.7117
24784SOL     OW78267   2.709   5.544   0.128 -0.3978 -0.2900 -0.0820
24784SOL    HW178268   2.711   5.575   0.219  1.6549 -1.4111  0.3179
24784SOL    HW278269   2.773   5.598   0.083 -0.2418 -0.8017 -0.4827
24785SOL     OW78270   2.123   0.590   2.667 -0.0245  0.1000 -0.1144
24785SOL    HW178271   2.068   0.543   2.730 -0.2241  0.4074 -0.0560
24785SOL    HW278272   2.142   0.674   2.709 -0.2817  0.3658 -0.5154
24786SOL     OW78273   1.903   1.034   5.329 -0.1057 -0.3545  0.2075
24786SOL    HW178274   1.976   0.995   5.377 -0.1287 -1.1445 -0.3713
24786SOL    HW278275   1.938   1.046   5.240 -0.6104 -0.5669 -0.0244
24787SOL     OW78276   4.381   0.349   4.448  0.6010  0.1530 -0.0011
24787SOL    HW178277   4.287   0.365   4.438  0.1172 -2.5186 -0.7470
24787SOL    HW278278   4.389   0.254   4.441  3.1313  0.0720  2.3021
24788SOL     OW78279   4.534   0.441   7.578  0.4919 -0.0398 -0.2959
24788SOL    HW178280   4.513   0.501   7.507  1.1987 -0.0024 -0.4824
24788SOL    HW278281   4.556   0.497   7.652 -1.1424 -0.0733  0.2499
24789SOL     OW78282   9.459   7.150   0.809 -0.1887 -0.5400 -0.0015
24789SOL    HW178283   9.396   7.219   0.792  2.1215  1.8188  0.2880
24789SOL    HW278284   9.449   7.131   0.902  0.2934  0.7179  0.3340
24790SOL     OW78285   2.575   9.575   9.986 -0.2563  0.4070  0.1523
24790SOL    HW178286   2.553   9.492   9.945 -0.0448 -0.0757  0.9864
24790SOL    HW278287   2.493   9.607  10.023 -0.4712  0.9011 -0.7265
24791SOL     OW78288   3.900   6.845   0.413 -0.2261  0.1232  0.2054
24791SOL    HW178289   3.970   6.865   0.350 -0.0687  0.6489  0.5345
24791SOL    HW278290   3.905   6.916   0.477 -0.3699 -0.4168  0.8260
24792SOL     OW78291   6.862   8.129   5.447  0.2004  0.2971 -0.2969
24792SOL    HW178292   6.885   8.114   5.355 -0.0304  0.4547 -0.3818
24792SOL    HW278293   6.812   8.211   5.446  0.0434  0.2045 -0.0543
24793SOL     OW78294   7.030   3.326   9.414  0.1733  0.2154  0.1290
24793SOL    HW178295   7.072   3.407   9.386  0.1642  0.2092  0.0975
24793SOL    HW278296   6.954   3.317   9.357  1.8809 -1.4426 -2.0528
24794SOL     OW78297   0.486   0.497   7.439 -0.7633 -0.8963  0.2535
24794SOL    HW178298   0.534   0.567   7.484 -1.3122 -0.3468  0.0093
24794SOL    HW278299   0.461   0.436   7.508 -0.3633 -0.8035  0.4847
24795SOL     OW78300   2.687   1.144   8.894 -0.2362 -0.0355  0.2108
24795SOL    HW178301   2.604   1.104   8.920 -0.8379 -0.4310 -2.0901
24795SOL    HW278302   2.736   1.073   8.852  0.8516  0.4311  0.6609
24796SOL     OW78303   4.097   9.469   1.151  0.1351 -0.2394  0.0325
24796SOL    HW178304   4.095   9.394   1.212 -0.4846  0.9618  1.5723
24796SOL    HW278305   4.185   9.505   1.161  0.2125 -0.3567 -0.2120
24797SOL     OW78306   5.637   6.254   3.206 -0.0985 -0.2757  0.2895
24797SOL    HW178307   5.701   6.215   3.146 -1.0819 -1.6138  0.0388
24797SOL    HW278308   5.593   6.321   3.154  0.3965 -0.0579  0.1446
24798SOL     OW78309   3.474   7.720   5.215  0.4825 -0.0465  0.3443
24798SOL    HW178310   3.562   7.749   5.239  0.2947  1.1556 -0.3580
24798SOL    HW278311   3.478   7.706   5.121  0.2701 -1.3299  0.5008
24799SOL     OW78312   6.728   9.416   7.419  0.5051 -0.4129 -0.1997
24799SOL    HW178313   6.761   9.503   7.395  0.2061 -0.1313  0.3819
24799SOL    HW278314   6.660   9.434   7.484  0.0927 -1.0568 -0.4418
24800SOL     OW78315   9.769   7.504   5.164 -0.4278  0.0873  0.1022
24800SOL    HW178316   9.710   7.522   5.238 -1.5465 -1.4620 -0.3660
24800SOL    HW278317   9.825   7.433   5.195 -2.5304 -2.3414 -1.2545
24801SOL     OW78318   2.794   3.840   1.221  0.2444  0.5791 -0.1619
24801SOL    HW178319   2.776   3.839   1.315 -1.3153  1.5684 -0.4227
24801SOL    HW278320   2.754   3.921   1.189 -0.3188 -0.3129 -1.8742
24802SOL     OW78321   6.563   7.085   5.155  0.0798 -0.1335  0.1572
24802SOL    HW178322   6.621   7.088   5.231 -1.5732 -2.4067  1.6140
24802SOL    HW278323   6.616   7.047   5.085  0.4513 -1.9983  1.4027
24803SOL     OW78324   5.652   7.690   4.651  0.5013 -0.0009 -0.0733
24803SOL    HW178325   5.697   7.658   4.573  1.3351 -0.4263  0.5656
24803SOL    HW278326   5.616   7.611   4.691  2.5513 -0.2182  1.5002
24804SOL     OW78327   7.148   8.027   9.756  0.1999  0.3271  0.1918
24804SOL    HW178328   7.182   7.979   9.681  1.9363  1.4465  0.1918
24804SOL    HW278329   7.166   7.971   9.831  0.0349 -0.0489 -0.0495
24805SOL     OW78330   6.902   5.913   6.954  0.2680 -0.2902  0.0750
24805SOL    HW178331   6.902   5.982   7.020 -0.8953 -0.9010  0.7569
24805SOL    HW278332   6.993   5.905   6.926  0.1546  3.0144 -1.6344
24806SOL     OW78333   7.600   8.146   4.034  0.0674 -0.2681  0.0120
24806SOL    HW178334   7.616   8.072   4.092 -1.2196 -0.5802 -0.0067
24806SOL    HW278335   7.538   8.113   3.969  1.1762  0.1729 -1.3479
24807SOL     OW78336   5.993   8.021   9.933  0.4242 -0.5625  0.0372
24807SOL    HW178337   6.017   7.978   9.851 -0.2605 -1.3869  0.2550
24807SOL    HW278338   6.063   7.997   9.994  0.7826 -0.1881 -0.2244
24808SOL     OW78339   5.320   4.304   1.856  0.3480  0.6013 -0.0295
24808SOL    HW178340   5.269   4.248   1.915 -0.0820  1.1870  0.1643
24808SOL    HW278341   5.261   4.321   1.782  1.1639 -0.7977 -1.0533
24809SOL     OW78342   7.232   0.922   4.173  0.6346 -0.0259 -0.2584
24809SOL    HW178343   7.286   0.900   4.249 -0.6667  0.0415  0.7158
24809SOL    HW278344   7.275   0.878   4.100  2.3305  0.5146  0.3688
24810SOL     OW78345   2.904   0.565   7.043  0.7810  0.3994 -0.1458
24810SOL    HW178346   2.867   0.651   7.024  1.2313  0.0948 -2.6533
24810SOL    HW278347   2.889   0.513   6.964  2.8800 -1.0180  0.2845
24811SOL     OW78348   7.810   8.831   7.401 -0.0214  0.4027 -0.0825
24811SOL    HW178349   7.810   8.764   7.470 -0.5106  0.5697  0.0851
24811SOL    HW278350   7.749   8.799   7.335  1.1717 -0.2197 -0.9111
24812SOL     OW78351   4.258   2.403   4.259  0.3286  0.4440  0.4523
24812SOL    HW178352   4.316   2.473   4.287  1.1456  0.2080 -0.5634
24812SOL    HW278353   4.263   2.338   4.328  0.6647  0.7740  0.7376
24813SOL     OW78354   3.537   3.350   9.346  0.4319  0.5444 -0.2631
24813SOL    HW178355   3.576   3.424   9.394 -0.1007  0.8088 -0.2364
24813SOL    HW278356   3.530   3.281   9.412 -0.4937  0.9767  0.1088
24814SOL     OW78357   7.029   3.206   9.647 -0.0886  0.1691  0.3386
24814SOL    HW178358   6.985   3.122   9.632  1.5761 -0.6383 -0.3574
24814SOL    HW278359   7.055   3.234   9.559 -0.2528  1.2095  0.6160
24815SOL     OW78360   0.942   5.978   1.040 -0.1446 -0.3957  0.5051
24815SOL    HW178361   1.016   5.918   1.029  1.5126  1.8984 -2.8748
24815SOL    HW278362   0.946   6.034   0.962 -4.1054  1.3755  1.3549
24816SOL     OW78363   9.020   0.469   4.311 -0.0546  0.5061 -0.1080
24816SOL    HW178364   9.115   0.461   4.320 -0.2238 -1.0565  0.5038
24816SOL    HW278365   8.984   0.418   4.384 -1.3772  1.0771 -0.3255
24817SOL     OW78366   3.113   0.822   1.373  0.1695 -0.1928  0.1940
24817SOL    HW178367   3.060   0.747   1.346  1.5460 -1.3927  0.6887
24817SOL    HW278368   3.114   0.817   1.469  0.4289  0.3494  0.2241
24818SOL     OW78369   3.325   5.287   6.809  0.1334  0.1462 -0.1843
24818SOL    HW178370   3.248   5.243   6.847 -0.3634  1.4478  0.3712
24818SOL    HW278371   3.308   5.287   6.715  0.6204 -1.6990 -0.3169
24819SOL     OW78372   2.016   6.144   5.030 -0.2106  0.0432  0.4402
24819SOL    HW178373   1.929   6.121   4.997 -0.8365  1.8227  0.7577
24819SOL    HW278374   2.072   6.145   4.953 -1.3469  2.7613 -0.4757
24820SOL     OW78375   2.676   8.242   5.019 -0.3713 -0.2758 -0.2876
24820SOL    HW178376   2.679   8.334   4.994  0.1604 -0.7228 -2.0120
24820SOL    HW278377   2.749   8.231   5.081 -1.0834  0.6507  0.7551
24821SOL     OW78378   6.667   7.730   0.058  0.7291  0.5498 -0.6713
24821SOL    HW178379   6.732   7.732  -0.012 -0.5111  0.9599 -1.8628
24821SOL    HW278380   6.599   7.670   0.025  2.0352 -2.7594  2.0161
24822SOL     OW78381   9.961   6.859   4.433 -0.2790 -0.3089  0.1467
24822SOL    HW178382   9.997   6.816   4.355  0.6047  0.8791 -0.1307
24822SOL    HW278383   9.925   6.788   4.485 -0.4702 -1.1874 -1.1255
24823SOL     OW78384   1.230   8.276   0.228  0.4191 -0.2075 -0.9441
24823SOL    HW178385   1.264   8.192   0.199 -2.1302 -1.6417 -0.1411
24823SOL    HW278386   1.180   8.256   0.308 -0.5313  2.0034 -0.8913
24824SOL     OW78387   9.373   6.780   1.168 -0.0219  0.2632  0.4001
24824SOL    HW178388   9.439   6.827   1.218 -1.1338  1.5015  0.7815
24824SOL    HW278389   9.299   6.841   1.164 -1.3336 -1.2693  0.4319
24825SOL     OW78390   6.523   9.362   1.049  0.8107  0.0611  0.4007
24825SOL    HW178391   6.615   9.376   1.072  0.5241 -0.0683  1.7402
24825SOL    HW278392   6.475   9.386   1.128 -0.4464  1.6509 -0.7822
24826SOL     OW78393   7.705   7.635   9.733  0.3579 -0.0972 -0.2107
24826SOL    HW178394   7.788   7.679   9.713  1.1490 -1.4807 -0.1242
24826SOL    HW278395   7.676   7.599   9.648  1.0501 -1.5445  0.1237
24827SOL     OW78396   0.022   0.140   4.396  0.3563 -0.1473 -0.2202
24827SOL    HW178397   0.086   0.069   4.401 -1.5730 -1.8743  2.4645
24827SOL    HW278398  -0.057   0.099   4.360 -0.1326  1.2424 -0.8176
24828SOL     OW78399   1.368   9.971   7.210 -0.2125  0.1827  0.2341
24828SOL    HW178400   1.295   9.909   7.213 -0.2822  0.1310 -1.3196
24828SOL    HW278401   1.443   9.922   7.241 -0.6742 -0.0161  1.0720
24829SOL     OW78402   9.651   7.143   3.446 -0.5516 -0.2104 -0.1928
24829SOL    HW178403   9.595   7.131   3.370 -2.1345  1.6085  0.6037
24829SOL    HW278404   9.665   7.238   3.451  2.8091 -0.5717 -0.4308
24830SOL     OW78405   8.759   7.450   2.155  0.2936  0.3909  0.2202
24830SOL    HW178406   8.761   7.358   2.182 -0.6774 -0.4955 -2.3859
24830SOL    HW278407   8.851   7.475   2.150  0.6959 -1.1824 -1.1587
24831SOL     OW78408   6.730   8.090   3.481  0.1835 -0.0953 -0.2276
24831SOL    HW178409   6.777   8.018   3.440  0.7842  0.1169  0.0775
24831SOL    HW278410   6.761   8.090   3.572  1.7827  1.8301 -0.7036
24832SOL     OW78411   6.773   0.920   8.495  0.8494 -0.3763 -0.3513
24832SOL    HW178412   6.782   1.015   8.503  0.8611 -0.3970 -0.0963
24832SOL    HW278413   6.700   0.898   8.553  2.1304 -0.7581  1.2008
24833SOL     OW78414   0.218   7.058  10.162  0.3179 -0.0954  0.1105
24833SOL    HW178415   0.185   7.128  10.217  0.4501 -0.1675  0.2849
24833SOL    HW278416   0.296   7.095  10.120 -0.0862  0.1353 -0.4396
24834SOL     OW78417   3.048   0.836   9.844 -0.2111 -0.1698  0.0699
24834SOL    HW178418   3.049   0.740   9.842 -1.2493 -0.2126  0.6012
24834SOL    HW278419   2.959   0.860   9.817 -0.3674  0.5830  1.1556
24835SOL     OW78420   3.750   2.735   1.690  0.0765 -0.4217  0.1253
24835SOL    HW178421   3.806   2.658   1.675  1.2115  0.5985 -1.0889
24835SOL    HW278422   3.799   2.789   1.752 -0.7618 -0.6906  1.0499
24836SOL     OW78423   8.546   4.469   7.121  0.3186  0.0168 -0.3983
24836SOL    HW178424   8.532   4.519   7.041  0.6719 -0.5245 -0.8083
24836SOL    HW278425   8.506   4.522   7.190 -1.7379 -0.4127 -1.1920
24837SOL     OW78426   8.975   0.720   2.098 -0.3069  0.1567  0.0396
24837SOL    HW178427   9.056   0.741   2.052 -0.0963 -1.4823 -0.3808
24837SOL    HW278428   9.002   0.668   2.174 -0.9880 -0.8802 -0.4073
24838SOL     OW78429   2.129   8.487   2.751  0.1180  0.7355  0.2923
24838SOL    HW178430   2.109   8.571   2.792  0.7190  2.1604 -2.1306
24838SOL    HW278431   2.044   8.445   2.738 -0.1363  0.6270  2.1213
24839SOL     OW78432   7.864   5.736   4.822 -0.2816  0.0133  0.1689
24839SOL    HW178433   7.829   5.814   4.865 -0.7751 -0.9356  1.5823
24839SOL    HW278434   7.837   5.745   4.731 -0.9799  1.1270  0.4591
24840SOL     OW78435   3.988   4.882   7.294 -0.4140 -0.0409  0.1624
24840SOL    HW178436   3.941   4.925   7.223  0.6999  0.3350 -0.3720
24840SOL    HW278437   3.975   4.788   7.278 -0.3045  0.0455 -0.4608
24841SOL     OW78438   5.815   2.229   5.039 -0.3189  0.3608 -0.3018
24841SOL    HW178439   5.891   2.278   5.008 -1.3811  2.2750 -0.0695
24841SOL    HW278440   5.833   2.138   5.015  1.6974  0.8570 -0.8784
24842SOL     OW78441   0.153   2.002   8.170  0.0698  0.0604  0.5582
24842SOL    HW178442   0.090   1.930   8.169  1.8116 -1.5271 -0.3830
24842SOL    HW278443   0.137   2.049   8.088  0.2111 -0.4083  0.2648
24843SOL     OW78444   0.839   1.624   3.518  0.2582  0.7032 -0.6942
24843SOL    HW178445   0.934   1.617   3.525  0.3729  1.2732 -1.4742
24843SOL    HW278446   0.806   1.602   3.606  1.0513 -0.2734 -0.6310
24844SOL     OW78447   4.554   3.830   6.720 -0.1588 -0.9685 -0.6128
24844SOL    HW178448   4.475   3.784   6.693 -0.6941 -1.1864  1.2069
24844SOL    HW278449   4.594   3.859   6.638 -2.3048 -0.5199 -1.5755
24845SOL     OW78450   7.239   5.285   9.312  0.6160  0.2153 -0.1786
24845SOL    HW178451   7.247   5.257   9.221 -0.4210  0.4287 -0.3461
24845SOL    HW278452   7.147   5.272   9.333  0.3030  2.4514  0.0677
24846SOL     OW78453   2.808   5.702   2.628  0.6414  0.5712  0.3546
24846SOL    HW178454   2.744   5.768   2.655  0.3181  0.9176 -1.1548
24846SOL    HW278455   2.820   5.718   2.534  0.1330 -1.8388 -0.1904
24847SOL     OW78456   5.459   7.444   1.121  0.1730  0.3527 -0.0811
24847SOL    HW178457   5.506   7.411   1.197 -0.6065 -0.9895 -0.1427
24847SOL    HW278458   5.375   7.475   1.155 -0.5182 -1.0215 -0.4682
24848SOL     OW78459   6.241   7.981   8.105  0.2391 -0.2527  0.0281
24848SOL    HW178460   6.188   8.060   8.112  0.4800 -0.1321  0.5315
24848SOL    HW278461   6.332   8.012   8.105  0.3252 -0.4735 -0.6129
24849SOL     OW78462   1.695   4.051   2.481  0.3172  0.3724 -0.3124
24849SOL    HW178463   1.659   4.087   2.562  0.9012 -1.6406  0.9248
24849SOL    HW278464   1.786   4.029   2.503 -0.1051 -2.1515 -0.8057
24850SOL     OW78465   4.872   5.982   9.749 -0.2301 -0.0316 -0.0222
24850SOL    HW178466   4.902   6.045   9.815 -0.6573  1.1541 -0.9065
24850SOL    HW278467   4.777   5.984   9.755 -0.2727  0.0591 -0.6300
24851SOL     OW78468   8.818   9.784   2.314  0.2825  0.0098 -0.2058
24851SOL    HW178469   8.817   9.689   2.329  0.7584  0.1870  1.1240
24851SOL    HW278470   8.901   9.801   2.270  0.4634 -0.1349  0.0732
24852SOL     OW78471   8.753   0.279   3.256 -0.4322  0.1828  0.0922
24852SOL    HW178472   8.678   0.268   3.315  0.5783  0.1531  1.4282
24852SOL    HW278473   8.781   0.190   3.236 -1.4872  0.1558 -1.4459
24853SOL     OW78474   8.194   9.339   0.356 -0.0487 -0.4005 -0.4388
24853SOL    HW178475   8.282   9.307   0.379  0.0318  0.2321  0.1711
24853SOL    HW278476   8.144   9.331   0.437 -0.3164  0.0426 -0.5599
24854SOL     OW78477   3.849   7.085   5.353  0.1542 -0.3988  0.1922
24854SOL    HW178478   3.811   7.004   5.388  0.3963 -0.9054 -0.6870
24854SOL    HW278479   3.839   7.077   5.258  1.9389 -0.3026 -0.0417
24855SOL     OW78480   3.078   8.710   1.131 -0.5095 -0.1877  0.1622
24855SOL    HW178481   3.050   8.796   1.162  0.5521 -0.5106  2.2211
24855SOL    HW278482   3.015   8.687   1.063 -2.4717  1.0399  1.4667
24856SOL     OW78483   6.327   6.767   1.781  0.8410 -0.0852 -0.1353
24856SOL    HW178484   6.315   6.756   1.876  0.0669 -1.9895 -0.4073
24856SOL    HW278485   6.421   6.782   1.771  1.6461 -3.5323  0.7617
24857SOL     OW78486   7.472   4.238   5.170  0.2958 -0.7910  0.6677
24857SOL    HW178487   7.401   4.280   5.218 -1.0451 -1.6758 -0.4582
24857SOL    HW278488   7.535   4.308   5.153 -0.4628  0.0808  1.4141
24858SOL     OW78489   1.524   0.711   6.681  0.1730  0.5411  0.3652
24858SOL    HW178490   1.618   0.720   6.669  0.5079 -1.2079  1.4499
24858SOL    HW278491   1.500   0.634   6.630 -0.4538  0.2335  1.1052
24859SOL     OW78492   0.554   8.032   9.625  0.3411 -0.5504  0.0810
24859SOL    HW178493   0.560   8.127   9.612  0.6555 -0.4579  0.8088
24859SOL    HW278494   0.569   7.994   9.538  1.8470  0.0189  0.0552
24860SOL     OW78495   0.582   0.449   1.103  0.0029  0.0272  0.5739
24860SOL    HW178496   0.597   0.452   1.198 -1.4849  0.9363  0.8266
24860SOL    HW278497   0.621   0.530   1.070  0.6465 -0.3578  0.3751
24861SOL     OW78498   9.921   6.629   6.949  0.1353 -0.2511 -0.0934
24861SOL    HW178499   9.844   6.684   6.946  1.3342  1.4678 -1.2720
24861SOL    HW278500   9.958   6.641   7.036 -0.2385 -0.1015  0.0414
24862SOL     OW78501   9.439   6.847   3.001  0.1496 -0.2067  0.1226
24862SOL    HW178502   9.444   6.762   2.957 -1.3226  0.5067 -1.5475
24862SOL    HW278503   9.530   6.868   3.025  0.5329 -2.2226  0.6024
24863SOL     OW78504   5.779   9.054   1.952 -0.5965  0.4965  0.1303
24863SOL    HW178505   5.729   9.009   2.020 -0.4321  1.2292  0.7381
24863SOL    HW278506   5.831   9.119   1.999  1.2574 -0.5145 -0.4246
24864SOL     OW78507   7.788   7.159   1.920 -0.5165 -0.5525 -0.0690
24864SOL    HW178508   7.858   7.223   1.907 -0.0250 -0.7568  1.4334
24864SOL    HW278509   7.717   7.190   1.863  0.1629  0.6119 -0.3192
24865SOL     OW78510   3.792   0.485   5.764 -0.5786  0.2344 -0.1090
24865SOL    HW178511   3.775   0.516   5.675 -1.8043 -0.6348 -0.2085
24865SOL    HW278512   3.875   0.437   5.757 -0.2056  0.9357 -0.5810
24866SOL     OW78513   0.016   9.266   5.671 -0.1933 -0.1851  0.2036
24866SOL    HW178514  -0.026   9.344   5.706 -0.7562  0.4577 -1.7825
24866SOL    HW278515  -0.055   9.215   5.634  0.5063 -0.1865 -1.1836
24867SOL     OW78516   7.773   7.343   1.235 -0.3001 -0.1726  0.0005
24867SOL    HW178517   7.759   7.315   1.325  0.1684  0.7345  0.3794
24867SOL    HW278518   7.686   7.360   1.200 -0.5622 -1.6280 -0.1087
24868SOL     OW78519   3.377   1.829   9.159  0.1004  0.4825 -0.2104
24868SOL    HW178520   3.461   1.863   9.189  0.7263 -1.1458  0.0110
24868SOL    HW278521   3.354   1.762   9.224 -1.2731  0.7453 -0.3882
24869SOL     OW78522   7.332   9.116   8.714  0.6146 -0.9974  0.3578
24869SOL    HW178523   7.273   9.052   8.675  2.3587 -1.8216 -1.1049
24869SOL    HW278524   7.286   9.147   8.792 -2.8355  0.3483 -2.0013
24870SOL     OW78525   4.045   9.444   5.460 -0.6095  0.3349 -0.9393
24870SOL    HW178526   4.139   9.434   5.443 -0.3335 -0.2798  0.7796
24870SOL    HW278527   4.006   9.446   5.373  0.7924 -1.4814 -1.7016
24871SOL     OW78528   7.877   1.434   5.693  0.5469  0.6031 -0.3963
24871SOL    HW178529   7.790   1.398   5.708  0.6475  0.7948  0.7667
24871SOL    HW278530   7.874   1.470   5.604  0.4598 -2.2171 -1.6167
24872SOL     OW78531   6.540   2.211   6.923  0.1333  0.0313 -0.4971
24872SOL    HW178532   6.570   2.127   6.889  1.5875 -0.5779  2.0569
24872SOL    HW278533   6.618   2.266   6.925 -0.5684  1.1006 -1.0561
24873SOL     OW78534   6.976   1.361   5.703  0.1541 -0.5324 -0.1921
24873SOL    HW178535   6.968   1.436   5.644 -0.6623 -1.2084 -0.9770
24873SOL    HW278536   6.903   1.371   5.764  0.6045 -0.1900  0.2958
24874SOL     OW78537   3.256   6.794   0.072 -0.1146 -0.0314 -0.3435
24874SOL    HW178538   3.240   6.781   0.166 -1.1183 -0.3492 -0.5510
24874SOL    HW278539   3.179   6.841   0.041 -0.0459 -0.4258 -1.1224
24875SOL     OW78540   0.162   8.657   9.146  0.1576  0.3135  0.0398
24875SOL    HW178541   0.193   8.589   9.206 -0.6188 -0.2134 -0.1418
24875SOL    HW278542   0.151   8.734   9.202 -0.7737 -0.2310  0.6391
24876SOL     OW78543   1.895   3.265   1.993  0.1135 -0.5982 -0.0673
24876SOL    HW178544   1.870   3.353   2.019 -1.0537 -1.3956  1.6639
24876SOL    HW278545   1.861   3.255   1.904  1.2085  1.0328 -0.7026
24877SOL     OW78546   0.409   6.614   3.520  0.8337 -0.3335 -0.2980
24877SOL    HW178547   0.323   6.572   3.521  1.2195 -1.1515 -0.8957
24877SOL    HW278548   0.424   6.636   3.428  0.5830  1.2683  0.0086
24878SOL     OW78549   4.684   2.585   2.790  0.4638 -0.1006 -0.1268
24878SOL    HW178550   4.666   2.677   2.813  0.7220 -0.6322  2.6166
24878SOL    HW278551   4.607   2.558   2.741 -1.0650  0.8147  1.6185
24879SOL     OW78552   4.720   1.642   2.813 -0.1159  0.4582  0.5426
24879SOL    HW178553   4.688   1.718   2.765 -0.6735 -0.0252  0.1232
24879SOL    HW278554   4.642   1.607   2.857 -0.0008 -0.2419  0.2051
24880SOL     OW78555   6.091   1.147   5.810 -0.2250  0.5628 -0.1318
24880SOL    HW178556   6.044   1.205   5.750 -0.4918 -0.3364 -0.8132
24880SOL    HW278557   6.182   1.177   5.805 -0.6007  1.9637  0.7920
24881SOL     OW78558   2.627   4.260  10.010  0.3448 -0.0204  0.6527
24881SOL    HW178559   2.663   4.321  10.076  0.6280  1.2434 -0.6168
24881SOL    HW278560   2.533   4.262  10.025  0.2452  1.5404  0.0060
24882SOL     OW78561   1.706   8.462   3.321  0.3052  0.5518  0.2836
24882SOL    HW178562   1.796   8.475   3.291  1.1936  0.3025  2.6533
24882SOL    HW278563   1.661   8.543   3.297  1.2382  0.8142 -0.6359
24883SOL     OW78564   1.304   1.916   6.296  0.2653 -0.0908  0.3641
24883SOL    HW178565   1.312   2.006   6.265  4.3821 -0.7817 -1.3188
24883SOL    HW278566   1.314   1.922   6.391  0.4114  1.2560  0.2805
24884SOL     OW78567   9.561   8.321   3.128  0.0964 -0.3504 -0.0921
24884SOL    HW178568   9.540   8.407   3.165  2.3771  0.6911 -1.0252
24884SOL    HW278569   9.577   8.266   3.204 -1.7449 -0.0978  0.5328
24885SOL     OW78570   4.053   6.818   5.336 -0.3922  0.0477  0.9006
24885SOL    HW178571   4.033   6.752   5.401 -1.7557  0.0427  0.5093
24885SOL    HW278572   3.982   6.812   5.273  0.5589  0.4781 -0.2642
24886SOL     OW78573   6.609   6.391   5.998 -0.6138 -0.1300 -0.3474
24886SOL    HW178574   6.658   6.409   6.078  1.2883 -0.3774 -1.4013
24886SOL    HW278575   6.649   6.447   5.931 -1.1539 -1.0207 -1.4676
24887SOL     OW78576   9.318   4.807   3.287 -0.1464  0.0383 -0.5207
24887SOL    HW178577   9.262   4.839   3.217  0.0807  0.8165 -0.3641
24887SOL    HW278578   9.378   4.746   3.245  1.4859  2.1780 -1.4925
24888SOL     OW78579   2.977   1.312   7.936  0.2682  0.1652 -0.0432
24888SOL    HW178580   3.002   1.358   7.856  0.2401  0.7483  0.2787
24888SOL    HW278581   2.951   1.225   7.906 -3.0510  1.3840 -1.1480
24889SOL     OW78582   9.613   9.489   1.198  0.6465 -0.0292  0.1279
24889SOL    HW178583   9.607   9.473   1.104 -0.1341  0.1885  0.1302
24889SOL    HW278584   9.534   9.448   1.234  1.4626 -1.0260  0.8253
24890SOL     OW78585   5.437   4.826   0.156 -0.2404  0.0847 -0.5036
24890SOL    HW178586   5.422   4.732   0.146  0.1908 -0.5728  3.3345
24890SOL    HW278587   5.482   4.852   0.075 -0.6485 -2.9181 -1.8216
24891SOL     OW78588   8.368   8.868  10.203  0.9154  0.2110 -0.3219
24891SOL    HW178589   8.416   8.942  10.242  1.2306 -0.7439  1.1800
24891SOL    HW278590   8.349   8.897  10.113  1.5015  1.8933  0.0476
24892SOL     OW78591   1.379   4.119   1.231  0.0041 -0.0571 -0.5743
24892SOL    HW178592   1.467   4.083   1.217  0.2595  0.6702 -0.9127
24892SOL    HW278593   1.341   4.125   1.143  0.1999  1.0444 -0.6050
24893SOL     OW78594   2.642   5.506   2.107  0.0563  0.1786  0.0872
24893SOL    HW178595   2.596   5.567   2.165 -1.2254 -0.1668 -0.5162
24893SOL    HW278596   2.732   5.507   2.138  0.6601  4.0555 -1.2541
24894SOL     OW78597   8.425   4.798   3.187  0.8295 -0.2263  0.4477
24894SOL    HW178598   8.347   4.784   3.241  0.5652 -1.0838 -0.1358
24894SOL    HW278599   8.427   4.723   3.128  1.4702  0.3629 -0.3049
24895SOL     OW78600   3.634   7.051   7.933 -0.2347 -0.0045  0.2791
24895SOL    HW178601   3.700   7.054   8.002  0.1837  0.9037 -0.1338
24895SOL    HW278602   3.558   7.008   7.973  0.6182 -1.1133  0.7450
24896SOL     OW78603   4.498   4.847   0.980 -0.3977  0.3038 -0.2424
24896SOL    HW178604   4.416   4.895   0.997 -1.6512 -1.2718 -1.5680
24896SOL    HW278605   4.528   4.880   0.895 -1.8126 -1.8245 -1.6703
24897SOL     OW78606   4.467   5.859   8.106 -0.4996  0.5426  0.0069
24897SOL    HW178607   4.408   5.811   8.047  0.6802 -0.2056 -0.5900
24897SOL    HW278608   4.487   5.940   8.058 -0.3163  0.3794 -0.1922
24898SOL     OW78609   4.909   6.437   2.671 -0.0046  0.6620 -0.4237
24898SOL    HW178610   4.936   6.442   2.763 -1.9539  0.1985  0.2099
24898SOL    HW278611   4.902   6.528   2.643 -0.2395  0.8237  0.1485
24899SOL     OW78612   0.859   6.984   5.855  0.2903 -0.2298  0.0913
24899SOL    HW178613   0.785   6.965   5.913  0.4152  0.4886  0.5084
24899SOL    HW278614   0.919   7.035   5.910  0.2194  0.8371 -0.7766
24900SOL     OW78615   2.506   4.648   4.336 -0.0018  0.5253  0.7639
24900SOL    HW178616   2.449   4.645   4.258 -1.0519  1.8630  1.4446
24900SOL    HW278617   2.490   4.564   4.380 -1.7043  0.9712  1.0760
24901SOL     OW78618   4.747   9.928   3.008  0.1223 -0.3699 -0.5404
24901SOL    HW178619   4.744  10.016   3.044 -0.9973 -0.7008  0.2353
24901SOL    HW278620   4.793   9.937   2.924 -0.4921  1.0472 -0.7516
24902SOL     OW78621   3.216   5.311   3.528 -0.1029 -0.0525 -0.4941
24902SOL    HW178622   3.304   5.320   3.490 -0.2040 -0.7574 -0.9248
24902SOL    HW278623   3.166   5.264   3.462 -1.0150  0.9441 -0.5456
24903SOL     OW78624   4.054   0.645   8.512 -0.0822 -0.3609  0.0878
24903SOL    HW178625   4.098   0.593   8.580  0.7718 -1.1105 -1.0110
24903SOL    HW278626   4.123   0.663   8.448 -0.5253  1.5623  0.1004
24904SOL     OW78627   4.399   1.144   2.147  0.3726 -0.2276  0.0073
24904SOL    HW178628   4.377   1.182   2.062  0.8089  0.3797  0.1596
24904SOL    HW278629   4.415   1.052   2.128  1.7237  0.1456 -0.8173
24905SOL     OW78630   0.648   5.136   7.128  0.5902 -0.3414 -0.5133
24905SOL    HW178631   0.716   5.149   7.061  1.1819  0.7651  0.2709
24905SOL    HW278632   0.568   5.119   7.078  0.7498  1.7071 -1.5740
24906SOL     OW78633   1.947   4.357   6.201 -0.2179  0.0510  0.1381
24906SOL    HW178634   1.854   4.370   6.220 -0.6655 -0.7522 -1.3068
24906SOL    HW278635   1.957   4.388   6.111  1.5085  2.5235  1.0905
24907SOL     OW78636   0.510   1.185   5.855  0.1007 -0.1180 -0.5971
24907SOL    HW178637   0.602   1.170   5.830  0.5702  0.5698  0.6054
24907SOL    HW278638   0.503   1.280   5.861 -0.3458 -0.2038  0.4942
24908SOL     OW78639   6.952   2.826   3.279 -0.1186  0.4173 -0.0846
24908SOL    HW178640   6.911   2.901   3.321 -0.7394  0.1048 -0.1251
24908SOL    HW278641   7.010   2.790   3.345  0.3993  1.0961 -0.1577
24909SOL     OW78642   3.103   4.018   5.152  0.6951  0.8278  0.1251
24909SOL    HW178643   3.110   4.100   5.200  0.5376 -0.0581  1.7139
24909SOL    HW278644   3.009   3.999   5.150  0.8211  0.1266  0.7413
24910SOL     OW78645   2.011   2.531   2.048 -0.0516 -0.0746 -0.0374
24910SOL    HW178646   1.951   2.506   1.977  0.1728 -1.5282  0.2616
24910SOL    HW278647   1.974   2.489   2.126 -0.4980  1.7993  0.8127
24911SOL     OW78648   9.391   7.014   4.590  0.1880 -0.2248  0.4034
24911SOL    HW178649   9.363   6.960   4.663  3.0948 -1.2943  0.8759
24911SOL    HW278650   9.342   6.981   4.515  0.3118 -2.0720  1.0965
24912SOL     OW78651   1.503   3.715   4.431  0.4255  0.2850 -0.1980
24912SOL    HW178652   1.437   3.775   4.467  1.3909  1.1541  0.1406
24912SOL    HW278653   1.587   3.758   4.448  1.0264 -0.2921 -1.6142
24913SOL     OW78654   3.836   8.795   4.063  0.0033  0.3609  0.2957
24913SOL    HW178655   3.909   8.737   4.085 -0.9050 -1.1499 -0.4798
24913SOL    HW278656   3.762   8.736   4.047 -0.7842  1.6842 -1.2797
24914SOL     OW78657   7.107   0.946   8.527  0.1848 -0.5555 -0.6562
24914SOL    HW178658   7.037   0.943   8.593  0.7488 -1.5043 -0.0688
24914SOL    HW278659   7.096   0.864   8.478  1.2156 -1.0008 -0.1825
24915SOL     OW78660   4.475   7.125   1.960  0.2780  0.1519 -0.2800
24915SOL    HW178661   4.508   7.211   1.936  1.6328 -0.1586  0.4321
24915SOL    HW278662   4.515   7.065   1.897 -1.3519  0.1096 -1.3409
24916SOL     OW78663   4.527   9.585   5.490 -0.1259 -0.3324  0.3852
24916SOL    HW178664   4.562   9.645   5.556 -0.6517 -0.4745  0.8015
24916SOL    HW278665   4.605   9.543   5.453  0.3744  1.8070 -1.1217
24917SOL     OW78666   3.071   0.726   2.864 -0.1993  0.3788  0.5711
24917SOL    HW178667   3.098   0.686   2.946 -0.1561  0.8995  0.8143
24917SOL    HW278668   3.151   0.734   2.812 -0.3852 -0.9225  0.0389
24918SOL     OW78669  10.080   0.105   1.925  0.3767  0.1403 -0.4462
24918SOL    HW178670  10.107   0.053   1.849  3.6946  0.5670  0.2669
24918SOL    HW278671  10.100   0.195   1.900 -0.5222  0.5236  0.1795
24919SOL     OW78672   3.443   5.094   0.652 -0.2471 -0.4658 -0.2093
24919SOL    HW178673   3.417   5.069   0.741  1.4137 -1.9165 -0.0807
24919SOL    HW278674   3.528   5.052   0.639 -1.0747 -1.5301 -3.0037
24920SOL     OW78675   4.283   5.194   2.694 -0.3530 -0.1500 -0.2149
24920SOL    HW178676   4.207   5.215   2.640 -0.6546  0.5833  0.4767
24920SOL    HW278677   4.343   5.147   2.635 -1.5026 -1.1006 -0.6654
24921SOL     OW78678   9.882   3.503   9.824 -0.3269 -0.6312 -0.8083
24921SOL    HW178679   9.855   3.425   9.777 -1.5822  0.3505 -1.7833
24921SOL    HW278680   9.805   3.560   9.823 -0.1002 -0.1675  1.6288
24922SOL     OW78681   3.915   6.414   2.118 -0.1065 -0.4444  0.0972
24922SOL    HW178682   3.976   6.459   2.059 -1.6254 -0.1095 -1.3053
24922SOL    HW278683   3.915   6.468   2.197 -1.7015  2.0643 -1.4478
24923SOL     OW78684   1.605   2.537   9.594  0.0096  0.6462 -0.8302
24923SOL    HW178685   1.535   2.486   9.552  0.2454 -0.0821 -0.3733
24923SOL    HW278686   1.656   2.471   9.642 -0.7974  1.5441  1.3784
24924SOL     OW78687   3.605   2.241   5.403 -0.7618 -0.0983  0.4871
24924SOL    HW178688   3.590   2.183   5.477 -1.3371 -0.5395  0.0420
24924SOL    HW278689   3.535   2.305   5.408 -2.1646 -1.4396 -0.9063
24925SOL     OW78690   9.438   0.367   5.240  0.0909  0.1947 -0.2255
24925SOL    HW178691   9.388   0.409   5.310 -2.6926 -0.2080 -1.8000
24925SOL    HW278692   9.480   0.439   5.194  1.4362  0.5154  1.4093
24926SOL     OW78693   2.708   0.511   9.864 -0.2168 -0.3200  0.1210
24926SOL    HW178694   2.639   0.529   9.800 -1.1348  0.0071  1.1623
24926SOL    HW278695   2.680   0.430   9.907 -0.0299 -0.1056  0.6544
24927SOL     OW78696   3.655   4.470   9.033 -0.6695  0.1078  0.0834
24927SOL    HW178697   3.639   4.484   8.940  0.3994 -1.1030 -0.3207
24927SOL    HW278698   3.750   4.454   9.038 -0.9376 -1.3215  1.1590
24928SOL     OW78699   9.412   2.533   2.311  0.2112  0.5415  0.3220
24928SOL    HW178700   9.408   2.448   2.356 -2.6865  0.2704 -0.2603
24928SOL    HW278701   9.382   2.514   2.222  1.6276  1.8546 -0.4764
24929SOL     OW78702   6.982   9.364   1.092 -0.1128  0.6816  0.1071
24929SOL    HW178703   6.906   9.387   1.038 -1.0091  0.3214  1.1641
24929SOL    HW278704   7.005   9.445   1.137 -1.2512  0.3443  1.3942
24930SOL     OW78705   2.120   1.439   3.073  0.0627  0.0700  0.2786
24930SOL    HW178706   2.075   1.475   2.996 -0.9495 -0.1246  0.7597
24930SOL    HW278707   2.170   1.365   3.039  0.5466  0.6753 -0.3743
24931SOL     OW78708   3.661   1.246   5.349  0.0691 -0.1481  0.4001
24931SOL    HW178709   3.707   1.199   5.419  0.7545 -0.9469 -0.5604
24931SOL    HW278710   3.589   1.187   5.325  2.3370 -2.0445 -2.4991
24932SOL     OW78711   2.552   7.499   3.949  0.2925 -0.4869 -0.2175
24932SOL    HW178712   2.568   7.591   3.927 -0.3155 -0.3957 -0.3099
24932SOL    HW278713   2.598   7.449   3.881  2.0142 -0.3029  0.7538
24933SOL     OW78714   3.528   8.892   6.205  0.0175 -0.3042 -0.2178
24933SOL    HW178715   3.598   8.828   6.220 -0.7707 -1.1669 -0.1157
24933SOL    HW278716   3.519   8.938   6.288 -0.8609 -1.5583  0.4139
24934SOL     OW78717   3.099   5.239   5.861  0.0072  0.2661  0.0050
24934SOL    HW178718   3.006   5.250   5.842 -0.2807 -0.0968  1.1438
24934SOL    HW278719   3.140   5.228   5.775 -1.2760 -1.5312 -0.4398
24935SOL     OW78720   9.100   2.793   0.064  0.7432 -0.0262 -0.5660
24935SOL    HW178721   9.072   2.884   0.053  0.4210 -0.2680 -1.9213
24935SOL    HW278722   9.124   2.786   0.157  0.5674  1.3744 -0.3971
24936SOL     OW78723   4.787   2.143   4.491 -0.0438  0.3919  0.0777
24936SOL    HW178724   4.821   2.166   4.405 -0.0390  1.5388  0.3715
24936SOL    HW278725   4.829   2.204   4.551 -1.9003  1.2665  0.5704
24937SOL     OW78726   7.833   3.936   3.236  0.4242 -0.3768  0.1062
24937SOL    HW178727   7.827   4.017   3.286  2.2442 -1.4480  2.2718
24937SOL    HW278728   7.771   3.876   3.278 -0.2122 -0.4311 -0.8700
24938SOL     OW78729   8.021  10.103   5.705  0.7168 -0.0906 -0.1883
24938SOL    HW178730   8.094  10.097   5.644  0.2060  0.9971 -0.9503
24938SOL    HW278731   7.971  10.023   5.692  1.7387 -0.8300  0.3181
24939SOL     OW78732   6.611   6.332   7.824 -0.1694 -0.6989  0.2054
24939SOL    HW178733   6.588   6.255   7.772  0.5953 -0.9791  0.2785
24939SOL    HW278734   6.617   6.403   7.759 -0.4351 -0.7895  0.0801
24940SOL     OW78735   4.147   1.722   6.397 -0.3360  0.1483  0.2943
24940SOL    HW178736   4.081   1.734   6.466  0.3258  1.1720  0.7713
24940SOL    HW278737   4.097   1.689   6.322 -1.2625  0.1677  0.8833
24941SOL     OW78738   7.285   6.205   7.885 -0.2960  0.2473  0.5250
24941SOL    HW178739   7.320   6.187   7.798 -0.9428 -1.0664  0.5199
24941SOL    HW278740   7.362   6.227   7.937  0.2548 -0.2279 -0.0637
24942SOL     OW78741   4.804   1.043   9.224 -0.3072 -0.5786  0.3166
24942SOL    HW178742   4.778   1.130   9.254  0.6970 -0.1575  0.0319
24942SOL    HW278743   4.781   0.984   9.296  1.3282  0.3014  1.6242
24943SOL     OW78744   4.065   0.619   2.443  0.0986  0.7348  0.4945
24943SOL    HW178745   4.000   0.611   2.513 -1.4642  1.3473 -0.8282
24943SOL    HW278746   4.079   0.714   2.435  0.5384  0.6472  0.2130
24944SOL     OW78747   3.455   9.775   4.026 -0.3779 -0.1598 -0.0795
24944SOL    HW178748   3.402   9.854   4.040 -0.3969 -0.2636  0.4731
24944SOL    HW278749   3.541   9.798   4.063 -0.7464 -0.8306  1.2405
24945SOL     OW78750   4.603   0.583   0.640 -0.0706 -0.3280  0.1462
24945SOL    HW178751   4.676   0.526   0.663  0.0859 -0.5838 -0.9247
24945SOL    HW278752   4.630   0.670   0.670  1.0284 -0.2801 -0.9315
24946SOL     OW78753   4.978   2.861   8.859 -0.1313 -0.1005 -0.1878
24946SOL    HW178754   4.959   2.799   8.929 -1.4265  0.4258 -0.0549
24946SOL    HW278755   5.002   2.806   8.785  0.8401 -0.6759  0.5317
24947SOL     OW78756   9.871   4.031   7.613  0.1745  0.3227  0.7452
24947SOL    HW178757   9.789   4.070   7.645  0.1938  1.6086 -0.6520
24947SOL    HW278758   9.859   3.937   7.624 -0.2799  0.6011  3.3396
24948SOL     OW78759   5.600   2.225   7.351 -0.4005 -0.2783 -0.2995
24948SOL    HW178760   5.527   2.282   7.377  1.2861  2.4440 -1.1109
24948SOL    HW278761   5.668   2.242   7.417  1.4405  1.5294 -2.5045
24949SOL     OW78762   8.986   4.365   6.373 -0.1287  0.1313  0.1865
24949SOL    HW178763   9.011   4.432   6.310  0.6453 -0.7541 -0.4781
24949SOL    HW278764   8.945   4.296   6.320 -2.1237  0.6061  1.0063
24950SOL     OW78765   5.005   1.482   1.136  0.5556  0.3438 -0.4491
24950SOL    HW178766   5.003   1.424   1.213  1.4609  0.0303 -0.6475
24950SOL    HW278767   5.082   1.538   1.150 -0.1018  1.2640 -0.4377
24951SOL     OW78768   0.602   7.913   9.950 -0.1743  0.3265 -0.6849
24951SOL    HW178769   0.556   7.854   9.891 -1.2542 -0.9569  1.3229
24951SOL    HW278770   0.695   7.900   9.929 -0.4802 -0.8603 -1.4026
24952SOL     OW78771   7.197   3.691   9.915  0.1425  0.3825 -0.2989
24952SOL    HW178772   7.281   3.646   9.900  0.2444  1.0484 -1.9919
24952SOL    HW278773   7.168   3.659  10.001  1.9612 -0.1169  0.1909
24953SOL     OW78774   5.975   3.859   0.648  0.1579  0.4899 -0.3741
24953SOL    HW178775   5.925   3.927   0.602  1.4084  2.0776  0.5342
24953SOL    HW278776   6.027   3.907   0.712  0.7515 -1.3907  0.6080
24954SOL     OW78777   6.340   4.398   4.789 -0.1678  0.0519 -0.4042
24954SOL    HW178778   6.289   4.458   4.844  2.3563  2.5306 -0.5440
24954SOL    HW278779   6.332   4.434   4.701  0.0417 -0.8287 -0.7888
24955SOL     OW78780   3.520   5.752   6.006 -0.4633 -0.0822 -0.6835
24955SOL    HW178781   3.574   5.718   5.935  0.9364 -0.7248  0.6176
24955SOL    HW278782   3.485   5.674   6.049  0.2528  0.1924  0.4527
24956SOL     OW78783   8.584   4.222   3.537 -1.0783  0.4724  0.2322
24956SOL    HW178784   8.592   4.294   3.475  3.0264  1.3102  1.4817
24956SOL    HW278785   8.574   4.264   3.622 -1.4623 -0.5235  0.6996
24957SOL     OW78786   1.460   4.492   2.064  0.7369 -0.3180 -0.1625
24957SOL    HW178787   1.378   4.514   2.108 -0.3972 -0.8388 -1.8782
24957SOL    HW278788   1.486   4.408   2.102 -1.9578 -2.4571 -2.5133
24958SOL     OW78789   7.139   5.462   1.526  0.4795  0.4951 -0.0211
24958SOL    HW178790   7.162   5.518   1.452  0.3039 -1.0721 -1.3221
24958SOL    HW278791   7.090   5.389   1.487  2.5338 -1.7109  1.2468
24959SOL     OW78792   1.256   9.124   0.506 -0.4226  0.1907 -0.2681
24959SOL    HW178793   1.172   9.085   0.482  0.0985 -0.0732 -1.7849
24959SOL    HW278794   1.273   9.189   0.438  0.5539  0.3056  0.0611
24960SOL     OW78795   8.419   4.439   3.405  0.2298  0.2281  0.0280
24960SOL    HW178796   8.514   4.426   3.394  0.1362 -0.5811  0.1766
24960SOL    HW278797   8.395   4.497   3.332  0.7440 -0.0132 -0.3406
24961SOL     OW78798   9.832   9.661   5.199  0.9413  0.2704  0.9644
24961SOL    HW178799   9.889   9.706   5.137  0.5104 -0.5864 -0.0942
24961SOL    HW278800   9.881   9.661   5.282  1.1088  2.2840  0.9018
24962SOL     OW78801   7.695   6.170   4.815 -0.1224 -0.1041  0.0105
24962SOL    HW178802   7.780   6.192   4.777  0.9937  0.4045  2.6092
24962SOL    HW278803   7.674   6.245   4.871 -2.3262 -0.2205 -0.5675
24963SOL     OW78804   0.411   4.485   1.451 -0.2817  0.3476 -0.3596
24963SOL    HW178805   0.343   4.535   1.498  0.6153 -1.7287  3.5692
24963SOL    HW278806   0.383   4.394   1.458  2.0551 -0.4072 -0.1012
24964SOL     OW78807   0.684   7.011  10.147 -0.3068 -0.5149  0.0332
24964SOL    HW178808   0.690   7.086  10.206  3.1855  0.9517 -1.8837
24964SOL    HW278809   0.591   7.005  10.124 -1.6285 -0.3197  4.3790
24965SOL     OW78810   4.557   0.804   7.624  0.3499  0.2441 -0.0644
24965SOL    HW178811   4.475   0.840   7.658  0.7449 -0.5517  1.8644
24965SOL    HW278812   4.587   0.744   7.692  2.0520 -0.2197 -1.1543
24966SOL     OW78813   6.330   9.915   2.798  0.0408  0.2247 -0.3214
24966SOL    HW178814   6.330   9.820   2.812  0.9919  0.4751  1.6759
24966SOL    HW278815   6.274   9.927   2.720  1.0961 -2.0649 -1.5512
24967SOL     OW78816   0.729   6.357   6.250 -0.0668 -0.4124 -0.0351
24967SOL    HW178817   0.676   6.277   6.250 -1.1621  0.1675  2.9305
24967SOL    HW278818   0.670   6.424   6.284  1.3531  1.2584 -0.7684
24968SOL     OW78819   2.717   1.993   9.569 -0.6074 -0.1576 -0.0359
24968SOL    HW178820   2.719   1.901   9.593  0.5518 -0.4641 -1.1699
24968SOL    HW278821   2.788   2.033   9.620  0.4317 -0.3913 -1.2208
24969SOL     OW78822   9.462   2.723   6.989 -0.4297  0.8162 -0.1183
24969SOL    HW178823   9.487   2.633   6.973 -2.0436  0.7745 -3.1930
24969SOL    HW278824   9.529   2.775   6.945  0.0480  1.0971  0.9296
24970SOL     OW78825   4.635   7.050   1.587  0.4294  0.6604  0.5098
24970SOL    HW178826   4.576   7.123   1.567 -2.6204 -1.3264  1.5129
24970SOL    HW278827   4.601   7.012   1.668  2.0755 -1.6620  0.2433
24971SOL     OW78828   8.877  10.196   0.194 -0.9375  0.4295  0.2345
24971SOL    HW178829   8.968  10.228   0.191 -0.4693 -0.7864  0.8746
24971SOL    HW278830   8.848  10.200   0.103 -0.5217  1.5672  0.1252
24972SOL     OW78831   2.738   1.619   0.814 -0.7717  0.1504 -0.0209
24972SOL    HW178832   2.776   1.539   0.851  0.7780  0.7273 -0.2822
24972SOL    HW278833   2.808   1.655   0.759 -2.0069  0.8427 -1.1867
24973SOL     OW78834   0.602   0.583   7.812 -0.0615  0.3445 -0.5134
24973SOL    HW178835   0.676   0.529   7.839 -0.5409  0.1755  0.5318
24973SOL    HW278836   0.635   0.635   7.739  0.9549 -0.0340 -0.3395
24974SOL     OW78837   9.071   7.442   0.393 -0.9347  0.1560 -0.0086
24974SOL    HW178838   9.124   7.372   0.356 -0.9811 -0.0069  0.2283
24974SOL    HW278839   9.026   7.401   0.468 -2.2873 -0.0367 -0.8856
24975SOL     OW78840   7.292   9.666   3.139 -0.0076  0.0011  0.3726
24975SOL    HW178841   7.287   9.574   3.164 -0.1936  0.0002  0.3404
24975SOL    HW278842   7.353   9.668   3.065 -0.9602 -0.2796 -0.4444
24976SOL     OW78843   3.684   4.138   1.870 -0.0797 -0.0579  0.2029
24976SOL    HW178844   3.715   4.073   1.807  0.1009  1.5733 -1.4963
24976SOL    HW278845   3.639   4.087   1.937  0.1052 -1.9292 -1.0144
24977SOL     OW78846   3.843   9.716   8.850 -0.1441  0.0759  0.1730
24977SOL    HW178847   3.821   9.780   8.782  0.6978 -1.1468 -1.3007
24977SOL    HW278848   3.858   9.634   8.803  1.0208 -0.6915  1.7671
24978SOL     OW78849   0.555   4.086   6.342 -0.0056 -0.5500  0.2018
24978SOL    HW178850   0.645   4.057   6.355  0.1746 -0.7161 -1.2009
24978SOL    HW278851   0.553   4.175   6.376  0.9258 -0.2332 -0.5260
24979SOL     OW78852  10.114   8.691   9.625  0.2973 -0.3505  0.2143
24979SOL    HW178853  10.025   8.683   9.659  0.4190  0.0841  0.6335
24979SOL    HW278854  10.117   8.628   9.553  0.3640 -2.1101  1.6662
24980SOL     OW78855   7.437   8.206   2.626  0.3018 -0.0641  0.2791
24980SOL    HW178856   7.433   8.146   2.701  0.2671 -2.0180 -1.2066
24980SOL    HW278857   7.350   8.199   2.586 -0.4712  2.6565  1.2033
24981SOL     OW78858   1.940   3.028   2.737 -0.5741 -0.1821 -0.4831
24981SOL    HW178859   1.854   3.015   2.777  0.1239 -2.8066  0.3915
24981SOL    HW278860   1.922   3.044   2.645 -2.0069  0.0872 -0.1789
24982SOL     OW78861   6.534   6.969   7.180 -0.1256  0.3817  0.3086
24982SOL    HW178862   6.560   7.058   7.159  0.3099  0.0902 -0.4273
24982SOL    HW278863   6.464   6.948   7.119 -0.5138  0.3550  0.7534
24983SOL     OW78864   6.995   5.857   7.650  0.3124 -1.0453  0.4930
24983SOL    HW178865   7.090   5.871   7.657  0.3682 -0.8781 -0.4312
24983SOL    HW278866   6.959   5.945   7.642 -0.3553 -0.7176  4.6574
24984SOL     OW78867   3.670   4.498  10.046  0.7990 -0.6245  0.1183
24984SOL    HW178868   3.715   4.435  10.102  0.1261 -0.4196  0.9068
24984SOL    HW278869   3.584   4.510  10.087  0.5811  0.1127 -0.5289
24985SOL     OW78870   7.584   0.927   5.963  1.1065 -0.3401 -0.2417
24985SOL    HW178871   7.593   1.022   5.956  0.7923 -0.4488 -3.0639
24985SOL    HW278872   7.505   0.914   6.016 -0.0089  1.0407 -1.4752
24986SOL     OW78873   1.593   2.760   0.754  0.2380  0.7964 -0.2333
24986SOL    HW178874   1.632   2.718   0.677  2.1202  0.4972  0.8321
24986SOL    HW278875   1.610   2.853   0.743 -1.4837  1.0356 -1.2316
24987SOL     OW78876   0.008   2.699   2.201 -0.1679 -0.1673 -0.4643
24987SOL    HW178877  -0.049   2.725   2.273 -0.3825  2.2419 -1.4456
24987SOL    HW278878  -0.033   2.619   2.166 -1.6831  0.2668  0.2360
24988SOL     OW78879   6.232   0.416   3.451  0.1889 -0.2783 -0.9689
24988SOL    HW178880   6.297   0.346   3.447  0.5620  0.1039 -1.8419
24988SOL    HW278881   6.148   0.370   3.462  0.5026 -0.8124 -0.7417
24989SOL     OW78882   3.431   8.376   4.160  0.1257  0.7251 -0.4413
24989SOL    HW178883   3.468   8.455   4.120  1.0662  0.5161 -0.0125
24989SOL    HW278884   3.400   8.405   4.245  0.8648  0.5623 -0.1040
24990SOL     OW78885   6.911   0.025   4.618 -0.1742 -0.0448  0.3413
24990SOL    HW178886   6.980  -0.027   4.577  2.6609  2.1818  1.9214
24990SOL    HW278887   6.831  -0.001   4.572  1.5871 -3.0621 -1.3484
24991SOL     OW78888   2.625   3.279   3.157  0.1341 -0.2373 -0.6103
24991SOL    HW178889   2.713   3.311   3.136 -0.7803  1.8225 -1.6392
24991SOL    HW278890   2.601   3.222   3.084 -0.2180  1.0409 -1.5304
24992SOL     OW78891   9.541   3.089   5.959  0.2035 -0.1860  0.1450
24992SOL    HW178892   9.539   3.020   6.025 -0.7839 -1.3006 -1.0104
24992SOL    HW278893   9.630   3.085   5.923  0.1890 -0.7767  0.1642
24993SOL     OW78894   3.641   4.825   2.581 -0.4534 -0.1605 -0.3194
24993SOL    HW178895   3.683   4.750   2.623 -0.0176  0.5147  0.4787
24993SOL    HW278896   3.600   4.789   2.502 -0.8203 -1.3576  0.3945
24994SOL     OW78897   0.024   2.965   8.866  0.1863 -0.4177 -0.5282
24994SOL    HW178898   0.025   3.023   8.941 -0.8236 -1.6540  0.4806
24994SOL    HW278899   0.024   3.023   8.790 -0.0471  0.8673  0.4291
24995SOL     OW78900   8.390   0.952   8.643  0.5211 -0.3014  0.4761
24995SOL    HW178901   8.445   0.980   8.716  1.0881  0.1214 -0.0961
24995SOL    HW278902   8.383   1.031   8.588  1.6255 -1.0835 -0.8572
24996SOL     OW78903   2.235   5.423   1.402  0.2477  0.2015  0.1465
24996SOL    HW178904   2.198   5.341   1.433 -0.3066  0.3047 -0.2333
24996SOL    HW278905   2.315   5.398   1.356 -0.2079 -0.1796 -0.4475
24997SOL     OW78906   7.926   8.899   8.147 -0.2628  0.0245  0.1018
24997SOL    HW178907   7.837   8.925   8.124  0.4403  2.2308 -0.3633
24997SOL    HW278908   7.921   8.870   8.238 -1.3347  0.8154  0.3046
24998SOL     OW78909   6.113  10.046   0.465  0.1255  0.3072  0.1396
24998SOL    HW178910   6.189  10.046   0.407  1.1361  0.4602  1.4118
24998SOL    HW278911   6.079   9.957   0.459  0.6749  0.1054 -0.1164
24999SOL     OW78912   7.351   4.791   7.546 -0.3399  0.1404 -0.1978
24999SOL    HW178913   7.360   4.789   7.450 -2.2330  1.4890 -0.4543
24999SOL    HW278914   7.285   4.858   7.563 -1.8016 -1.7008  1.9295
25000SOL     OW78915   1.117   6.976   4.358  0.5315  0.3882 -0.2699
25000SOL    HW178916   1.189   6.972   4.421  0.2738 -0.7881 -0.0247
25000SOL    HW278917   1.111   7.068   4.334  1.5172  0.6402  0.4049
25001SOL     OW78918   3.577   1.224   8.931 -0.0279 -0.1697  1.1043
25001SOL    HW178919   3.606   1.314   8.948  0.1667 -0.3800  1.9222
25001SOL    HW278920   3.500   1.213   8.987 -0.3939 -0.3318  0.5769
25002SOL     OW78921   1.250   8.163   1.032  0.1461 -0.6362  0.0545
25002SOL    HW178922   1.209   8.246   1.056 -0.1698 -0.7807  0.0243
25002SOL    HW278923   1.202   8.097   1.083  1.1339 -0.6896  0.9243
25003SOL     OW78924   7.443   8.998   7.695  0.1821 -0.1297 -0.3149
25003SOL    HW178925   7.380   9.049   7.645 -0.1552 -0.1913  0.0458
25003SOL    HW278926   7.416   8.907   7.683 -0.3536 -0.0995  0.5828
25004SOL     OW78927   0.734   8.381   8.749  0.0286 -0.1921 -0.3240
25004SOL    HW178928   0.732   8.364   8.655 -1.8333 -0.4956 -0.2704
25004SOL    HW278929   0.729   8.476   8.757 -0.1188 -0.1805 -0.5400
25005SOL     OW78930   1.537   6.060   4.249  0.1529  0.4725  0.4308
25005SOL    HW178931   1.598   6.006   4.300  0.5284 -0.6459 -1.1071
25005SOL    HW278932   1.526   6.012   4.167 -2.3483  0.9555  0.4018
25006SOL     OW78933   4.041   4.371   7.570 -0.0588  0.4580 -0.2443
25006SOL    HW178934   4.008   4.445   7.518  1.6419  0.1465 -1.8902
25006SOL    HW278935   3.965   4.314   7.582 -0.9032  1.4193 -0.8345
25007SOL     OW78936   4.571   5.675   7.749  0.3009  0.5424  0.6168
25007SOL    HW178937   4.541   5.690   7.659 -1.5151 -0.6700  0.9545
25007SOL    HW278938   4.490   5.668   7.800  1.0705 -3.2713  1.5837
25008SOL     OW78939   9.566   8.880   6.486 -0.0774 -0.4841 -0.0125
25008SOL    HW178940   9.660   8.902   6.485  0.3408 -1.7892  2.5691
25008SOL    HW278941   9.548   8.852   6.396  2.0846 -0.5548 -0.5013
25009SOL     OW78942   2.662   9.892   1.048  0.1726  0.5178  0.3580
25009SOL    HW178943   2.719   9.892   0.971  0.0625 -1.0609  0.2366
25009SOL    HW278944   2.589   9.835   1.024  0.1307  0.0020  1.6211
25010SOL     OW78945   4.344   6.954   5.901  0.0445 -0.1196 -0.0251
25010SOL    HW178946   4.273   6.924   5.958 -0.5623  0.9307 -0.1983
25010SOL    HW278947   4.304   7.023   5.848  0.7126 -0.7865 -1.4336
25011SOL     OW78948   7.554   7.513   2.324 -0.0964  0.1152 -0.7669
25011SOL    HW178949   7.476   7.566   2.308 -0.7785 -0.6219  0.0391
25011SOL    HW278950   7.521   7.433   2.365  1.1541  0.1535  0.3913
25012SOL     OW78951   5.164   3.649   1.854 -0.0327  0.0412  0.1837
25012SOL    HW178952   5.187   3.739   1.832  0.0873  0.1949  0.8975
25012SOL    HW278953   5.130   3.612   1.773  0.6534  0.4881 -0.3171
25013SOL     OW78954   2.854   0.210   1.180 -0.2688 -0.2983  0.1777
25013SOL    HW178955   2.878   0.130   1.133 -1.3892 -0.0826 -0.7876
25013SOL    HW278956   2.931   0.266   1.174 -0.0790 -0.6360 -0.6082
25014SOL     OW78957   0.785   5.677   2.079  0.4974 -1.3548  0.0694
25014SOL    HW178958   0.867   5.691   2.032  0.4849 -1.6220 -0.0325
25014SOL    HW278959   0.784   5.745   2.147  1.2529 -1.9445  0.6806
25015SOL     OW78960   8.462   5.415   6.260  0.4331 -0.6914  0.3941
25015SOL    HW178961   8.514   5.341   6.290  1.1453 -0.9069 -1.2582
25015SOL    HW278962   8.371   5.385   6.265  0.4948 -0.6576  2.3700
25016SOL     OW78963   7.282   4.422   9.043  0.2992  0.3371 -0.0128
25016SOL    HW178964   7.262   4.363   8.970 -1.0129  1.4379 -0.5885
25016SOL    HW278965   7.342   4.372   9.099 -1.8323 -2.1285  0.2715
25017SOL     OW78966   3.327   9.534   5.439 -0.5076  0.0986 -0.5476
25017SOL    HW178967   3.336   9.478   5.516  1.0383  1.5852  0.4289
25017SOL    HW278968   3.384   9.493   5.373 -2.7186 -1.8337 -1.4225
25018SOL     OW78969   2.966   9.377   3.849 -0.2430 -0.1774  0.9230
25018SOL    HW178970   3.049   9.415   3.820 -0.0320 -1.0053  0.4211
25018SOL    HW278971   2.905   9.395   3.778 -0.3718 -0.0309  1.0660
25019SOL     OW78972   5.506   3.543   2.372 -0.0941  0.4572 -0.0355
25019SOL    HW178973   5.504   3.484   2.448  0.5762 -1.2098 -1.2533
25019SOL    HW278974   5.538   3.626   2.407  1.9222 -0.7620  1.2427
25020SOL     OW78975   1.096   4.513   1.278  0.2151 -0.4942 -0.4155
25020SOL    HW178976   1.156   4.497   1.350 -0.3075  1.6997  0.5802
25020SOL    HW278977   1.015   4.469   1.304 -0.0647  0.5274  0.5190
25021SOL     OW78978   0.255   6.728   6.484  0.3000 -0.3473 -0.2921
25021SOL    HW178979   0.284   6.753   6.396  1.3624 -0.5648 -0.0155
25021SOL    HW278980   0.329   6.749   6.541 -0.8134  0.8982  0.7491
25022SOL     OW78981   1.343   6.782   1.086  0.2293 -0.1658  0.3615
25022SOL    HW178982   1.417   6.795   1.145  0.7242  2.0859 -0.6370
25022SOL    HW278983   1.355   6.849   1.018 -0.9122 -1.8825 -1.6792
25023SOL     OW78984   7.290   6.152   9.548 -0.2199 -0.3553 -0.0805
25023SOL    HW178985   7.296   6.243   9.516  2.0491 -0.5663 -0.4720
25023SOL    HW278986   7.312   6.099   9.471  0.5613 -1.1036  0.6354
25024SOL     OW78987   3.880   5.214   5.293 -0.0931  0.2910  0.0107
25024SOL    HW178988   3.971   5.188   5.278  0.4319  1.6406  0.7066
25024SOL    HW278989   3.875   5.303   5.258 -1.9789 -0.8117 -2.8536
25025SOL     OW78990   8.754   7.921   9.902 -0.2874  0.6975 -0.6018
25025SOL    HW178991   8.728   8.005   9.939 -1.8378  0.4090 -0.9666
25025SOL    HW278992   8.725   7.856   9.966  0.9856  0.4207 -0.2752
25026SOL     OW78993   9.849   0.148   7.119  0.5175  0.1913  0.4643
25026SOL    HW178994   9.923   0.123   7.063  0.7143 -0.7837  1.1388
25026SOL    HW278995   9.860   0.096   7.198  0.7315  2.1551  1.7966
25027SOL     OW78996   3.388   7.507   7.306 -0.0916  0.3562 -0.1555
25027SOL    HW178997   3.378   7.412   7.309  1.5845  0.1690  0.0806
25027SOL    HW278998   3.448   7.523   7.233  0.3665  1.1608  0.3822
25028SOL     OW78999   7.642   1.979   8.481  0.2785  0.0507  0.1707
25028SOL    HW179000   7.600   1.899   8.513  0.6519 -0.3179 -0.2576
25028SOL    HW279001   7.732   1.952   8.460  0.1405  0.3725 -0.8496
25029SOL     OW79002   7.327   0.606   2.409 -0.0236 -0.6169  0.1342
25029SOL    HW179003   7.323   0.522   2.454 -2.0324  0.1341  1.5129
25029SOL    HW279004   7.405   0.649   2.444 -0.3161 -0.9620  1.2634
25030SOL     OW79005   0.048   3.289   7.119 -0.2444  0.4429 -0.3152
25030SOL    HW179006   0.012   3.225   7.180  0.8862  0.3560  0.2764
25030SOL    HW279007  -0.021   3.299   7.053 -0.8820 -0.5680  0.1605
25031SOL     OW79008   9.974   6.811   2.067 -0.4641  0.3428 -0.1021
25031SOL    HW179009   9.904   6.787   2.006 -0.2657  2.4911 -1.2847
25031SOL    HW279010   9.928   6.840   2.146 -0.7136 -3.2332  1.2555
25032SOL     OW79011   5.393   0.913   0.831  0.0021 -0.2674  0.6082
25032SOL    HW179012   5.325   0.878   0.888 -0.9622  1.9120  0.8808
25032SOL    HW279013   5.416   0.997   0.870 -0.4932  1.1735 -1.9877
25033SOL     OW79014   2.862   9.866   9.228 -0.4088 -0.1265  0.1641
25033SOL    HW179015   2.836   9.884   9.318 -1.1393 -3.0029  0.6119
25033SOL    HW279016   2.783   9.884   9.177 -0.0397  1.3519  0.0614
25034SOL     OW79017   5.287   8.811   3.167 -0.4146  0.2329 -0.2267
25034SOL    HW179018   5.366   8.758   3.156 -0.0474  0.2267  2.0126
25034SOL    HW279019   5.224   8.753   3.210 -1.1658  0.6427 -0.7491
25035SOL     OW79020   6.885   5.333   6.325  0.2478 -0.0898  0.1750
25035SOL    HW179021   6.936   5.273   6.379  1.1282 -0.1920 -0.7359
25035SOL    HW279022   6.901   5.304   6.235 -2.2400 -0.7728 -0.1146
25036SOL     OW79023   4.996   7.453   4.900 -0.1870  0.1556  0.1601
25036SOL    HW179024   4.961   7.513   4.834 -0.3467  0.5120  0.5639
25036SOL    HW279025   5.091   7.468   4.897 -0.0499 -0.7655 -0.8885
25037SOL     OW79026   3.359   0.719   7.275  0.4344  0.2942  0.0271
25037SOL    HW179027   3.328   0.806   7.299 -0.1453 -0.3187  1.6827
25037SOL    HW279028   3.335   0.708   7.183  1.6389  2.3286 -0.5949
25038SOL     OW79029   7.452   1.818   7.728  0.3173 -0.5061 -0.2299
25038SOL    HW179030   7.429   1.726   7.744  0.1574 -0.8309 -2.0064
25038SOL    HW279031   7.418   1.865   7.804 -1.7482 -1.6269 -0.3622
25039SOL     OW79032   7.437   9.393   5.450 -0.1431 -0.3262 -0.1349
25039SOL    HW179033   7.487   9.466   5.487  1.0206 -0.5320 -1.2573
25039SOL    HW279034   7.500   9.344   5.397 -1.1545 -1.5476 -0.2720
25040SOL     OW79035   4.237   8.073   1.742 -0.3623  0.0926  0.6362
25040SOL    HW179036   4.256   7.985   1.774  0.0685  0.1532  0.5585
25040SOL    HW279037   4.319   8.102   1.702 -1.0366 -0.2003 -1.0380
25041SOL     OW79038   3.457   1.145   4.797  0.0211  0.3518 -0.7774
25041SOL    HW179039   3.447   1.061   4.752 -1.3970  0.1140 -0.0588
25041SOL    HW279040   3.548   1.143   4.829  0.8770  0.2684 -3.0129
25042SOL     OW79041   7.405   3.532   8.505  0.5685 -0.2935  0.5855
25042SOL    HW179042   7.477   3.576   8.552 -0.7296  0.1409  2.2509
25042SOL    HW279043   7.327   3.552   8.556 -0.9615  0.2077 -1.8181
25043SOL     OW79044   6.556   1.862   1.259  0.0965 -0.3702 -0.2803
25043SOL    HW179045   6.651   1.850   1.267  0.1547 -0.2928 -0.8152
25043SOL    HW279046   6.525   1.781   1.219 -0.1315 -0.5937  0.3440
25044SOL     OW79047  10.121   3.029   7.310  0.3542  0.1139  0.3073
25044SOL    HW179048  10.207   3.017   7.271  0.6332 -3.2137  1.6320
25044SOL    HW279049  10.060   3.025   7.236  1.2120  3.2317 -0.7373
25045SOL     OW79050   1.991  10.011   6.494  0.1413 -0.0119  0.3960
25045SOL    HW179051   1.993   9.985   6.402 -0.6793 -1.6800  0.8018
25045SOL    HW279052   2.072  10.060   6.507 -0.3366  1.4070 -1.5034
25046SOL     OW79053   4.070   7.663   1.206 -0.1730  0.3918  0.0108
25046SOL    HW179054   4.053   7.585   1.153 -0.0423 -0.1227  0.7146
25046SOL    HW279055   4.064   7.735   1.144 -0.0786 -0.1926 -0.6967
25047SOL     OW79056   8.073   1.273   4.851  0.7688 -0.2271 -0.3572
25047SOL    HW179057   8.139   1.250   4.785  0.3515  0.5170 -1.0434
25047SOL    HW279058   8.118   1.259   4.935  0.6390 -3.2786 -0.6817
25048SOL     OW79059   2.118   3.785   3.078  0.5049  0.2270  0.2321
25048SOL    HW179060   2.203   3.805   3.038  0.5084 -1.2125 -0.5368
25048SOL    HW279061   2.123   3.692   3.101 -0.4364  0.4099  1.2874
25049SOL     OW79062   3.590   1.543   9.892  0.0953 -0.2327 -0.3348
25049SOL    HW179063   3.557   1.462   9.931 -0.8975 -0.0775 -0.8253
25049SOL    HW279064   3.516   1.603   9.896  0.4618  0.2756 -1.0459
25050SOL     OW79065   2.753   3.572   6.443 -0.0136 -0.3057  0.4710
25050SOL    HW179066   2.820   3.628   6.403 -0.3360  0.8458  1.4763
25050SOL    HW279067   2.766   3.581   6.537  0.5744 -2.7777  0.6919
25051SOL     OW79068   9.055   5.417   2.432 -0.3014 -0.5686  0.4767
25051SOL    HW179069   9.071   5.427   2.526 -1.7365  1.9527  0.5499
25051SOL    HW279070   9.141   5.410   2.393  0.3732 -0.4531  1.8875
25052SOL     OW79071   5.888   7.994   4.260 -0.4143  0.4094 -0.6346
25052SOL    HW179072   5.841   8.074   4.240  0.0541  0.7598 -0.3540
25052SOL    HW279073   5.981   8.017   4.252 -0.2540  0.1108  0.2019
25053SOL     OW79074   7.252   0.580   4.650 -0.5026  0.2393 -0.2464
25053SOL    HW179075   7.335   0.571   4.603  0.5546  0.1379  1.5342
25053SOL    HW279076   7.238   0.674   4.656 -0.9737  0.2452 -1.2756
25054SOL     OW79077   1.574   2.240   6.169  0.1148  0.4111 -0.2842
25054SOL    HW179078   1.578   2.246   6.074  0.5112 -0.0811 -0.3079
25054SOL    HW279079   1.622   2.159   6.189  0.2475  0.6423  0.3470
25055SOL     OW79080   2.292   3.715   0.391  0.1481  0.4980 -0.2180
25055SOL    HW179081   2.238   3.781   0.434  0.6068  0.0432  1.1188
25055SOL    HW279082   2.244   3.633   0.402  0.6559  0.2440  0.1769
25056SOL     OW79083   2.255   5.978   6.444 -0.4352 -0.2961  0.5644
25056SOL    HW179084   2.214   6.030   6.512  1.1770  0.8833  0.6974
25056SOL    HW279085   2.329   6.032   6.414 -0.1799 -1.4547 -1.0198
25057SOL     OW79086   3.917   8.935   0.082  0.5127  0.1170  0.0551
25057SOL    HW179087   3.921   8.978   0.167  1.5409 -1.0462  0.6165
25057SOL    HW279088   3.990   8.973   0.032 -1.4855  2.5828 -1.2457
25058SOL     OW79089   7.627   5.390   8.303  0.3475 -0.0028  0.0297
25058SOL    HW179090   7.633   5.295   8.316  1.8820  0.0939  0.2317
25058SOL    HW279091   7.698   5.426   8.358  0.5257  1.1599 -0.9315
25059SOL     OW79092   6.724   2.206   1.176 -0.1721  0.2856  0.1050
25059SOL    HW179093   6.728   2.113   1.152  3.7766  0.2241  0.4126
25059SOL    HW279094   6.715   2.252   1.093 -2.1237 -0.2864 -0.0540
25060SOL     OW79095   4.640   0.155   2.245 -0.1280 -0.5673 -0.5973
25060SOL    HW179096   4.665   0.211   2.173 -0.9873 -0.6189 -0.9557
25060SOL    HW279097   4.668   0.067   2.219 -0.5680 -0.6085 -0.9423
25061SOL     OW79098   7.008   6.033   5.741  0.0593  0.1216  0.4454
25061SOL    HW179099   7.082   6.020   5.683 -0.1594 -0.8328  0.3662
25061SOL    HW279100   6.943   6.079   5.687 -0.2627 -1.0308 -0.1661
25062SOL     OW79101   8.169   9.507   8.903 -0.3687 -0.4321  0.0985
25062SOL    HW179102   8.118   9.558   8.840  0.4776 -0.6251 -0.7619
25062SOL    HW279103   8.127   9.421   8.903 -1.0809 -0.1003  0.6842
25063SOL     OW79104   7.438   7.718   7.911 -0.5755  0.1003  0.9308
25063SOL    HW179105   7.400   7.651   7.853 -1.0293  0.8999  0.2876
25063SOL    HW279106   7.365   7.775   7.934  0.1275  1.4209  0.0100
25064SOL     OW79107   1.350   1.741   9.821  0.5078 -0.3379 -0.1116
25064SOL    HW179108   1.356   1.815   9.880  0.1841 -2.0001  2.1356
25064SOL    HW279109   1.297   1.772   9.748 -1.5412  1.0096  1.8359
25065SOL     OW79110   7.251   6.073   5.354 -0.4221  0.2333 -0.0028
25065SOL    HW179111   7.211   6.112   5.276  1.2916 -0.0523 -1.0979
25065SOL    HW279112   7.305   6.144   5.390  0.0909 -0.1250 -0.0598
25066SOL     OW79113   2.882   7.277   5.482 -0.0206  0.5248  0.1106
25066SOL    HW179114   2.855   7.254   5.570  0.1371 -1.4831 -0.3220
25066SOL    HW279115   2.941   7.352   5.493 -2.2291  2.1716  1.4142
25067SOL     OW79116   1.880   4.637   5.037 -0.2569 -0.4035 -0.0699
25067SOL    HW179117   1.961   4.650   4.987  0.4121 -0.9146  0.8540
25067SOL    HW279118   1.844   4.555   5.003  0.0386 -0.5934  0.0729
25068SOL     OW79119   2.396   5.268   7.267 -0.2504  0.2247 -0.6516
25068SOL    HW179120   2.372   5.360   7.261 -2.2563 -0.2500 -0.7341
25068SOL    HW279121   2.404   5.251   7.361 -0.8636  0.2735 -0.5851
25069SOL     OW79122  10.096   0.790   3.124 -0.1089  0.1573  0.3364
25069SOL    HW179123  10.106   0.705   3.081  0.0368  1.0209 -1.4618
25069SOL    HW279124  10.018   0.828   3.083  0.0045  1.0104  0.9006
25070SOL     OW79125   2.092   9.203   2.476 -0.6926  0.2540 -0.4020
25070SOL    HW179126   2.062   9.182   2.565  0.4532  0.2872  0.0165
25070SOL    HW279127   2.013   9.230   2.429 -1.3191  0.2301  0.6093
25071SOL     OW79128   3.466   2.915   5.980  0.6765  0.4535 -0.0455
25071SOL    HW179129   3.501   3.002   5.999  2.4135 -0.2769  0.3478
25071SOL    HW279130   3.395   2.904   6.044  1.2073  1.1366  0.6927
25072SOL     OW79131   4.696   2.141   9.071  0.7888 -0.2592 -0.5641
25072SOL    HW179132   4.766   2.134   9.006  1.6316 -1.0991  0.4087
25072SOL    HW279133   4.732   2.101   9.150 -0.3262  0.4721  0.3438
25073SOL     OW79134   8.576   3.347   4.133  0.2980  0.6495 -0.0247
25073SOL    HW179135   8.518   3.293   4.185  0.4706  0.1239 -0.3733
25073SOL    HW279136   8.622   3.286   4.075  2.1934  0.8629  1.1558
25074SOL     OW79137   1.317   8.720   5.994  0.0306  0.4332  0.5616
25074SOL    HW179138   1.227   8.688   5.996 -0.2616  1.1814  0.0708
25074SOL    HW279139   1.365   8.662   6.054 -0.6036 -0.4766  0.2167
25075SOL     OW79140   8.078   9.052   9.609  0.5078  0.1687  0.0797
25075SOL    HW179141   8.158   9.101   9.629 -0.1178  0.6011  1.6843
25075SOL    HW279142   8.008   9.111   9.635 -0.3118 -0.7191 -0.0776
25076SOL     OW79143   2.441   5.239   8.573 -0.0622 -0.3259 -0.1595
25076SOL    HW179144   2.387   5.242   8.494  0.4899 -0.3395 -0.5419
25076SOL    HW279145   2.382   5.268   8.643 -0.8635 -1.3095 -0.3967
25077SOL     OW79146   0.672   7.342   8.009 -0.0135 -0.6824  0.3265
25077SOL    HW179147   0.721   7.262   7.991  0.3777 -0.2491 -0.6748
25077SOL    HW279148   0.714   7.378   8.087  1.0958 -0.4860 -0.3285
25078SOL     OW79149  10.094   8.768   9.209 -0.0430 -0.2692 -0.3160
25078SOL    HW179150  10.119   8.819   9.286 -0.3570  0.8044 -0.9000
25078SOL    HW279151  10.105   8.677   9.235  1.7557  0.1121  0.3434
25079SOL     OW79152   1.820   7.558   8.002  0.0641 -0.3672  0.3083
25079SOL    HW179153   1.819   7.559   7.906  2.2711 -1.6757  0.2082
25079SOL    HW279154   1.784   7.473   8.026  0.9223 -0.6652  0.5674
25080SOL     OW79155   1.691   2.044   3.089  0.1426 -0.0536 -0.1198
25080SOL    HW179156   1.679   2.009   3.177  0.1370  0.1850 -0.0258
25080SOL    HW279157   1.746   2.122   3.101 -0.7898  0.6401 -0.1879
25081SOL     OW79158   1.372   8.879   0.475  0.7036  0.1019 -0.8098
25081SOL    HW179159   1.354   8.964   0.516 -0.1230  0.1622 -1.2762
25081SOL    HW279160   1.290   8.831   0.483  1.2452 -0.7561 -0.3241
25082SOL     OW79161   1.678   3.205   1.129  0.1995 -0.3154 -0.5464
25082SOL    HW179162   1.708   3.292   1.104  1.0404 -0.2925  0.4297
25082SOL    HW279163   1.583   3.208   1.121  0.2454  0.5824 -0.8485
25083SOL     OW79164   8.372   0.098   6.960  0.2069  0.0410  0.2505
25083SOL    HW179165   8.422   0.175   6.986  2.6959 -1.0595 -0.9907
25083SOL    HW279166   8.348   0.114   6.869  1.3809 -0.9356 -0.2467
25084SOL     OW79167   2.883   5.157   5.466 -0.6582  0.0147  0.0122
25084SOL    HW179168   2.832   5.176   5.386 -1.5743  0.0203  0.5759
25084SOL    HW279169   2.974   5.166   5.439 -0.9655  1.7164 -0.6386
25085SOL     OW79170   7.469   4.775   0.954 -0.7526  0.0043  0.5371
25085SOL    HW179171   7.392   4.831   0.942  0.1298  1.2624  0.6094
25085SOL    HW279172   7.478   4.767   1.049 -0.2321  0.6726  0.5499
25086SOL     OW79173   3.035   1.809   1.658 -0.2099 -0.3684  0.0378
25086SOL    HW179174   3.088   1.735   1.628  0.7028 -0.3074  1.3978
25086SOL    HW279175   3.099   1.871   1.693 -1.1353 -0.0374  1.1842
25087SOL     OW79176   9.833   0.706   2.416 -0.0146  0.2449  0.4080
25087SOL    HW179177   9.737   0.710   2.412  0.0287  0.8548 -0.3941
25087SOL    HW279178   9.852   0.665   2.500 -0.9662  1.5466  1.3052
25088SOL     OW79179   3.175   2.109   8.688 -0.0895  0.1707  0.5284
25088SOL    HW179180   3.093   2.153   8.664  0.5788  1.0293 -0.2481
25088SOL    HW279181   3.223   2.102   8.606  0.8446  0.1627  1.0699
25089SOL     OW79182   4.398   3.338   1.556 -0.5246  0.5679 -0.0894
25089SOL    HW179183   4.365   3.248   1.566 -0.1280  0.5987  1.7233
25089SOL    HW279184   4.326   3.385   1.513 -1.5263 -0.1574  0.7462
25090SOL     OW79185   9.669   9.136   4.967  0.1351 -0.2691  0.5031
25090SOL    HW179186   9.726   9.160   4.894  0.9264 -0.1857  1.1253
25090SOL    HW279187   9.726   9.142   5.044 -0.5090 -0.9651  1.0520
25091SOL     OW79188   8.884   3.364   0.690 -0.2667  0.4514  0.2174
25091SOL    HW179189   8.790   3.348   0.700 -0.2438  1.4506  3.0583
25091SOL    HW279190   8.889   3.454   0.656 -0.4126  1.0467  1.6660
25092SOL     OW79191   9.993   9.645   7.692  0.3285  0.3507 -0.3186
25092SOL    HW179192  10.084   9.622   7.710  0.2799  1.6635  2.0007
25092SOL    HW279193   9.996   9.738   7.670 -0.4320  0.3349 -0.5124
25093SOL     OW79194   5.943   2.402   1.622  0.2344 -0.2297  0.6504
25093SOL    HW179195   5.985   2.338   1.678  1.0208  0.5825  1.0067
25093SOL    HW279196   5.998   2.480   1.627  1.0638 -0.5053 -2.2408
25094SOL     OW79197   9.702   1.860   5.051 -0.1119  0.4164  0.3281
25094SOL    HW179198   9.627   1.810   5.084 -0.9715  0.8415 -0.9261
25094SOL    HW279199   9.723   1.921   5.122 -0.4694 -0.1973  0.9833
25095SOL     OW79200   5.302   4.570   7.616  0.4133  0.0375  0.0583
25095SOL    HW179201   5.347   4.503   7.668 -0.4326  1.5232  2.8950
25095SOL    HW279202   5.210   4.561   7.640 -0.0404  0.7668 -1.2812
25096SOL     OW79203   1.785   1.771   2.893 -0.0516  0.5075  0.0803
25096SOL    HW179204   1.724   1.830   2.848 -0.3097  0.7764  0.7617
25096SOL    HW279205   1.871   1.811   2.879 -0.0527  0.2328 -0.7192
25097SOL     OW79206   4.975   3.610   0.183  0.1032 -0.3749 -0.2224
25097SOL    HW179207   5.031   3.646   0.115  0.1293  0.3747  0.1850
25097SOL    HW279208   4.891   3.594   0.139  0.6099 -1.4673 -0.8213
25098SOL     OW79209   3.284   4.112   2.709 -0.3538  0.2322  0.3147
25098SOL    HW179210   3.247   4.147   2.628  0.6539  0.1904 -0.1757
25098SOL    HW279211   3.244   4.026   2.719  0.1634 -0.1244 -0.6104
25099SOL     OW79212  10.123   4.959   3.813 -0.7966 -0.1904 -0.1348
25099SOL    HW179213  10.093   4.979   3.901 -1.7870  0.5814 -0.6269
25099SOL    HW279214  10.214   4.991   3.810  0.5227 -3.3360  1.6505
25100SOL     OW79215   6.894   9.138   7.998  0.1499  0.3078  0.1206
25100SOL    HW179216   6.976   9.119   8.043  1.8420  0.6927 -2.5877
25100SOL    HW279217   6.848   9.054   7.994  1.2240 -0.2871  0.1190
25101SOL     OW79218   7.989   4.542   0.054 -0.6655  0.1643  0.2598
25101SOL    HW179219   8.027   4.614   0.103  0.2610  1.7128 -2.5152
25101SOL    HW279220   8.035   4.464   0.086 -0.5257  0.9716  2.1713
25102SOL     OW79221   8.291   6.928   3.429  0.0105 -0.0738 -0.3424
25102SOL    HW179222   8.331   6.914   3.343  0.0127  1.5611 -0.6287
25102SOL    HW279223   8.363   6.958   3.484  0.0232 -1.1797  0.2780
25103SOL     OW79224   1.956   7.814   3.228 -0.1517 -0.5272  0.3565
25103SOL    HW179225   2.002   7.868   3.293  0.3593  0.0697 -0.4920
25103SOL    HW279226   1.898   7.874   3.182 -0.6325 -0.9805  0.3582
25104SOL     OW79227   7.271   8.233   6.999 -0.2766  0.0718 -0.1997
25104SOL    HW179228   7.282   8.265   7.088 -2.0291 -0.5528  0.3061
25104SOL    HW279229   7.323   8.152   6.996 -0.8814 -0.3687  0.5674
25105SOL     OW79230   1.896   6.398   8.386 -0.7588  0.2161  0.3983
25105SOL    HW179231   1.807   6.389   8.421 -1.1843  4.0638  0.6609
25105SOL    HW279232   1.884   6.411   8.292 -0.4904  0.7730  0.4366
25106SOL     OW79233   0.002   1.014   8.597 -0.2772  0.6201 -0.1752
25106SOL    HW179234   0.014   0.920   8.606 -0.4805  0.7138  1.2817
25106SOL    HW279235   0.018   1.049   8.685 -0.4662  1.9115 -0.6339
25107SOL     OW79236   0.106   2.822   5.508  0.7699  0.0240  0.3380
25107SOL    HW179237   0.034   2.760   5.508 -0.4341  1.3503 -1.3026
25107SOL    HW279238   0.161   2.795   5.582 -1.4482 -0.9512  1.7294
25108SOL     OW79239   2.736   9.890   7.995 -0.5084 -0.0168 -0.1002
25108SOL    HW179240   2.687   9.899   7.913  0.9568  0.4016 -0.9708
25108SOL    HW279241   2.826   9.876   7.967 -0.0248 -0.1366  1.4587
25109SOL     OW79242   3.708   1.205   7.552 -0.4379 -0.3863 -0.7022
25109SOL    HW179243   3.797   1.181   7.525 -0.7421 -0.6798 -1.4794
25109SOL    HW279244   3.709   1.301   7.553 -0.4911 -0.3373 -2.1380
25110SOL     OW79245   1.978   1.235   7.157 -0.0910  0.3921  0.0704
25110SOL    HW179246   1.892   1.240   7.198 -0.6113 -1.9278 -0.5389
25110SOL    HW279247   2.002   1.325   7.138 -1.7945  1.1819  1.4349
25111SOL     OW79248   3.807   8.521  10.006 -0.2391  0.4173  0.0354
25111SOL    HW179249   3.794   8.610  10.036  0.6553  0.4073  0.4566
25111SOL    HW279250   3.761   8.467  10.070 -0.0715  0.5201  0.2401
25112SOL     OW79251   3.827   9.207   3.029 -0.3718  0.2432 -0.0060
25112SOL    HW179252   3.750   9.219   3.085 -0.1634  0.2084  0.2888
25112SOL    HW279253   3.790   9.194   2.942 -0.8537 -2.5570  0.5245
25113SOL     OW79254   9.037   7.513   3.473 -0.4263 -0.2760 -0.2719
25113SOL    HW179255   9.087   7.521   3.392 -0.4709 -1.7841 -0.4733
25113SOL    HW279256   8.946   7.530   3.447 -0.2291  1.0959 -0.1593
25114SOL     OW79257   6.567   1.588   8.143  0.0614 -0.4578 -0.2846
25114SOL    HW179258   6.623   1.521   8.180 -0.8607 -0.9480  0.2717
25114SOL    HW279259   6.543   1.643   8.217 -2.3894 -1.8732  0.0792
25115SOL     OW79260   4.783   0.450   0.083 -0.2707 -0.2088  0.3146
25115SOL    HW179261   4.718   0.449   0.153  0.3348 -0.9732  0.8895
25115SOL    HW279262   4.781   0.540   0.049 -1.3490 -0.1336  0.5672
25116SOL     OW79263   9.285   9.151   8.765 -0.5076  0.1715 -0.4774
25116SOL    HW179264   9.327   9.095   8.700 -1.1725 -0.7807 -0.1042
25116SOL    HW279265   9.272   9.094   8.841  1.0823  1.4907  0.8692
25117SOL     OW79266   8.097   9.593   6.313  0.4396  0.0400  0.3491
25117SOL    HW179267   8.144   9.548   6.243 -0.0997 -0.8169  0.5295
25117SOL    HW279268   8.163   9.606   6.381  1.3837  2.3098 -0.9114
25118SOL     OW79269   4.087   7.425   8.656 -0.5482  0.1189  0.0186
25118SOL    HW179270   4.100   7.512   8.620 -0.8989 -0.2646 -1.0939
25118SOL    HW279271   4.170   7.404   8.698 -0.8108  1.3920  1.2318
25119SOL     OW79272   1.721   4.423   8.585  0.5225 -0.0238 -0.1890
25119SOL    HW179273   1.726   4.504   8.635  2.1291 -0.2135  0.0022
25119SOL    HW279274   1.656   4.370   8.631  1.9106 -0.1638  1.6779
25120SOL     OW79275   4.938   5.542   4.655  0.6173 -0.0228  0.4397
25120SOL    HW179276   5.018   5.499   4.687  0.0934 -0.1445  1.6467
25120SOL    HW279277   4.935   5.625   4.703 -0.6717 -0.6169  1.4356
25121SOL     OW79278   1.791   9.084   0.774 -0.2615  0.2418  0.4139
25121SOL    HW179279   1.858   9.026   0.810 -0.0524  1.1370  1.5175
25121SOL    HW279280   1.794   9.162   0.830  1.1793  2.4482 -2.4547
25122SOL     OW79281   0.851   4.739   4.763  0.2465  0.0910 -0.2806
25122SOL    HW179282   0.834   4.811   4.824 -0.9423 -1.1728  0.9547
25122SOL    HW279283   0.780   4.746   4.699  0.3022  0.1901 -0.3320
25123SOL     OW79284   7.817   9.231   2.138 -0.6895 -0.4426  0.0072
25123SOL    HW179285   7.747   9.175   2.172 -2.2643  1.0028 -0.7286
25123SOL    HW279286   7.861   9.178   2.072 -1.9207 -0.9490 -0.4286
25124SOL     OW79287   2.928   5.128   9.594  0.4517  0.6501 -0.1862
25124SOL    HW179288   2.946   5.217   9.564  0.6700  0.7776  0.3211
25124SOL    HW279289   2.958   5.126   9.685 -3.1174  1.2023  1.1590
25125SOL     OW79290   1.509   0.130   9.133  0.6409  0.0435 -0.1882
25125SOL    HW179291   1.441   0.102   9.071  0.0196 -1.1113  0.9561
25125SOL    HW279292   1.461   0.179   9.200  0.6873 -1.6567  1.1890
25126SOL     OW79293   8.459   0.276   8.973  0.4930  0.4947 -0.3799
25126SOL    HW179294   8.532   0.336   8.956  0.4546  1.4481  2.3552
25126SOL    HW279295   8.468   0.253   9.066 -0.5761 -2.3366 -0.8682
25127SOL     OW79296   2.212   6.591   3.896  0.5280 -0.0614 -0.4927
25127SOL    HW179297   2.205   6.495   3.895  2.2524 -0.2529 -2.6382
25127SOL    HW279298   2.122   6.622   3.893 -0.1132 -1.5603  1.2729
25128SOL     OW79299   5.055   0.506   3.825 -0.0617 -0.0550  0.2962
25128SOL    HW179300   4.991   0.521   3.755 -2.8106 -0.3894  2.5356
25128SOL    HW279301   5.133   0.553   3.797 -0.7175 -0.8424 -3.3076
25129SOL     OW79302   5.904   5.098   9.567  0.4165  0.7696 -0.0375
25129SOL    HW179303   5.833   5.102   9.503 -0.7785  2.0232  1.2956
25129SOL    HW279304   5.942   5.011   9.555 -1.5650 -0.0707 -0.5492
25130SOL     OW79305   5.374   0.189   5.054 -0.5094 -0.6922 -0.6490
25130SOL    HW179306   5.331   0.106   5.032 -3.0610  0.5725 -0.7711
25130SOL    HW279307   5.350   0.248   4.983 -1.2262  0.9292  0.8528
25131SOL     OW79308   4.326   9.457   1.477  0.3333  0.3010 -0.0110
25131SOL    HW179309   4.324   9.366   1.507 -1.2154  0.1125 -0.6162
25131SOL    HW279310   4.243   9.469   1.431  1.1531  1.6027 -1.2102
25132SOL     OW79311   9.345   5.249   6.572 -0.3114  0.1441 -0.4396
25132SOL    HW179312   9.292   5.317   6.532 -1.1044 -0.4937 -0.5153
25132SOL    HW279313   9.281   5.189   6.611  0.3968  1.1886  2.5817
25133SOL     OW79314   1.225   9.592   2.229 -0.2677 -0.1557 -0.2586
25133SOL    HW179315   1.253   9.580   2.139  1.3093 -1.2333  0.3230
25133SOL    HW279316   1.130   9.582   2.227 -0.1019 -1.7810 -1.5516
25134SOL     OW79317   1.168   4.495   5.568 -0.2660 -0.5982  0.5723
25134SOL    HW179318   1.120   4.454   5.640 -2.0014  1.7860  0.9011
25134SOL    HW279319   1.218   4.566   5.610 -0.1899 -0.0614 -0.3912
25135SOL     OW79320   5.607   3.062   2.060  0.6360  0.3618 -0.5341
25135SOL    HW179321   5.700   3.084   2.067  1.2886 -2.0586 -0.8634
25135SOL    HW279322   5.568   3.097   2.141  2.0388  0.4357  0.1347
25136SOL     OW79323   4.319   4.635   9.989  0.0823 -0.1011 -0.0260
25136SOL    HW179324   4.363   4.612   9.907 -0.0214  1.6254 -0.5947
25136SOL    HW279325   4.354   4.572  10.053  1.4179 -0.4271 -1.0260
25137SOL     OW79326   7.149   5.073   3.437 -0.0151  0.3444  0.1683
25137SOL    HW179327   7.185   5.061   3.525 -0.2225 -0.2410  0.1793
25137SOL    HW279328   7.143   5.167   3.426  1.3790  0.4508  0.2242
25138SOL     OW79329   5.177   0.939   9.294  0.5034 -0.3797  0.7176
25138SOL    HW179330   5.147   1.030   9.284  0.3835 -0.2159  2.3069
25138SOL    HW279331   5.272   0.944   9.281  0.2651 -0.4037 -1.3088
25139SOL     OW79332   2.445   3.403   2.655 -0.2589 -0.2101 -0.3577
25139SOL    HW179333   2.450   3.312   2.626 -0.8200  0.1905 -1.7631
25139SOL    HW279334   2.377   3.442   2.601 -0.7929  0.7842  0.9841
25140SOL     OW79335   1.338   0.238   9.722  0.2660  0.4100  0.0159
25140SOL    HW179336   1.332   0.183   9.643 -1.3083 -0.3328  0.6094
25140SOL    HW279337   1.255   0.285   9.725 -0.5823 -1.0779  2.2591
25141SOL     OW79338   7.844   3.122   4.289  0.5497  0.0147  0.4862
25141SOL    HW179339   7.890   3.167   4.218 -1.0435 -0.6288 -1.0221
25141SOL    HW279340   7.751   3.133   4.268  0.0712 -1.5687  1.5952
25142SOL     OW79341   2.826   4.458   1.603  0.2412 -0.3081  0.2149
25142SOL    HW179342   2.799   4.489   1.690  1.8292  1.2139  0.2288
25142SOL    HW279343   2.796   4.367   1.600  1.6607 -1.0153  3.1020
25143SOL     OW79344   7.969   6.761   2.850 -0.0513  0.1312 -0.4782
25143SOL    HW179345   8.030   6.782   2.921  0.5474  0.9206 -1.2014
25143SOL    HW279346   7.928   6.679   2.877 -1.3040  1.4024  1.7168
25144SOL     OW79347   1.748   4.813   7.706  0.4662 -0.3945  0.3310
25144SOL    HW179348   1.788   4.819   7.793  2.1695 -0.4966 -0.4205
25144SOL    HW279349   1.749   4.902   7.672  1.3267 -0.6038 -0.2251
25145SOL     OW79350   3.152   2.184   0.735 -0.8866 -0.3972  0.6555
25145SOL    HW179351   3.096   2.215   0.665  1.9242  2.7206 -0.4606
25145SOL    HW279352   3.168   2.261   0.789  0.7010 -1.6432  2.0739
25146SOL     OW79353   0.602   6.531   4.649 -0.7183 -0.1854  0.9058
25146SOL    HW179354   0.576   6.583   4.724 -0.8750  1.4678 -0.2278
25146SOL    HW279355   0.544   6.560   4.578 -0.3227 -1.3959  0.0441
25147SOL     OW79356   5.735   6.158   7.146  0.5260 -0.3260  0.3581
25147SOL    HW179357   5.768   6.245   7.121 -0.5752 -0.5063 -1.9718
25147SOL    HW279358   5.808   6.118   7.194  1.7132  1.2305 -0.0450
25148SOL     OW79359   4.581   8.950   6.753 -0.8904 -0.8036  0.3764
25148SOL    HW179360   4.497   8.941   6.708 -0.3486  1.0841 -1.1279
25148SOL    HW279361   4.578   9.037   6.793 -0.1107 -1.2018  1.3524
25149SOL     OW79362   5.625   2.349   4.207  0.1122  0.4660  0.2242
25149SOL    HW179363   5.649   2.388   4.122 -0.3208 -2.1903 -1.2087
25149SOL    HW279364   5.701   2.296   4.231 -0.1289  0.4981  1.1007
25150SOL     OW79365   4.515   9.292   0.043 -0.4826  0.0890 -0.0970
25150SOL    HW179366   4.489   9.200   0.036 -0.8646  0.0746  1.2477
25150SOL    HW279367   4.453   9.339  -0.013  0.8145 -0.6144 -2.2371
25151SOL     OW79368   8.616   9.762   8.393  0.3073 -0.6918 -0.1905
25151SOL    HW179369   8.526   9.795   8.401  0.2933 -0.7973  0.0871
25151SOL    HW279370   8.632   9.761   8.299 -0.3167 -1.5763 -0.3029
25152SOL     OW79371   7.259   2.530   4.798  0.4881 -0.1007  0.1726
25152SOL    HW179372   7.197   2.457   4.797  0.1376  0.0811  2.7253
25152SOL    HW279373   7.341   2.493   4.763 -0.6671 -0.6466 -2.1325
25153SOL     OW79374   3.684   9.318   6.439  0.1727 -0.6709 -0.2539
25153SOL    HW179375   3.588   9.321   6.445  0.1285 -1.8593 -0.0906
25153SOL    HW279376   3.713   9.401   6.478 -0.8031  0.0320 -0.9788
25154SOL     OW79377   2.399   4.738   4.053 -0.4073 -0.4157 -0.2841
25154SOL    HW179378   2.351   4.669   4.009  0.0921  0.3904 -2.2124
25154SOL    HW279379   2.431   4.794   3.982  1.2739  0.4321  1.0515
25155SOL     OW79380   9.490   0.946   1.878 -0.1581  0.2495  0.4010
25155SOL    HW179381   9.396   0.932   1.879  0.2285 -3.3480 -0.5285
25155SOL    HW279382   9.518   0.926   1.968 -0.1180 -0.3774  0.2528
25156SOL     OW79383   4.284   4.246   7.005 -0.6393 -0.0373 -0.3680
25156SOL    HW179384   4.368   4.220   6.967 -0.6967 -1.4661  0.4203
25156SOL    HW279385   4.295   4.339   7.026  0.9052 -0.2864  0.0922
25157SOL     OW79386   6.611   8.335   7.640  0.1228 -0.0159  0.1233
25157SOL    HW179387   6.584   8.274   7.709 -1.1370  1.5447  1.0845
25157SOL    HW279388   6.706   8.327   7.638  0.3456  0.6308  2.8757
25158SOL     OW79389   5.166   8.731   9.315 -0.1936  0.6053 -0.2109
25158SOL    HW179390   5.086   8.683   9.293 -0.6726  0.0542  2.3739
25158SOL    HW279391   5.191   8.696   9.401  2.2134  1.5643 -0.4644
25159SOL     OW79392   0.860   0.668   2.226 -0.0543  0.0870 -0.1413
25159SOL    HW179393   0.804   0.598   2.259  0.9103 -0.3774  0.5483
25159SOL    HW279394   0.808   0.710   2.158 -0.7084 -1.2100 -0.4699
25160SOL     OW79395   5.181   1.743   0.818  0.5737  0.0361  0.0518
25160SOL    HW179396   5.186   1.825   0.866 -0.3002  1.6293 -2.3909
25160SOL    HW279397   5.091   1.713   0.832  0.8087 -0.3939  0.7085
25161SOL     OW79398   1.428   3.734   6.170  0.1489 -0.6159 -0.3144
25161SOL    HW179399   1.495   3.726   6.238 -0.2557 -1.4074 -0.0026
25161SOL    HW279400   1.377   3.811   6.195  0.8595 -0.0776 -0.4918
25162SOL     OW79401   1.640   0.739   3.978 -0.0143 -0.1526 -0.0565
25162SOL    HW179402   1.661   0.669   3.916 -0.0576 -0.1460 -0.0786
25162SOL    HW279403   1.549   0.762   3.958 -0.0131 -0.1179 -0.0222
25163SOL     OW79404   1.504   1.897   5.775  0.0931  0.5864  0.3091
25163SOL    HW179405   1.431   1.869   5.721  0.6490  0.2609 -0.2877
25163SOL    HW279406   1.528   1.819   5.825  2.5320 -0.5835 -2.3494
25164SOL     OW79407   4.912   7.895   4.291 -0.0960 -0.2154 -0.0994
25164SOL    HW179408   4.861   7.824   4.252 -1.1217  1.1625 -1.3973
25164SOL    HW279409   4.906   7.881   4.385 -2.1818 -0.6029 -0.2512
25165SOL     OW79410   8.204   6.913   9.370 -0.5237 -0.0475 -0.2763
25165SOL    HW179411   8.234   6.947   9.454 -2.2842  1.5478 -0.2102
25165SOL    HW279412   8.191   6.820   9.386 -0.9917  0.2439  1.3165
25166SOL     OW79413   6.323   2.596   7.355  0.1920 -0.0351 -0.5974
25166SOL    HW179414   6.376   2.569   7.279 -0.4480 -0.3806 -0.9325
25166SOL    HW279415   6.241   2.547   7.345 -0.1524  0.4166 -0.0304
25167SOL     OW79416   7.303   0.421   9.944  0.2987  0.4949 -0.2216
25167SOL    HW179417   7.344   0.335   9.943 -0.4446  0.0730  1.1528
25167SOL    HW279418   7.309   0.449  10.036 -0.4748  1.3950 -0.4249
25168SOL     OW79419   6.065   1.752   1.338  0.2058  0.7530  0.4176
25168SOL    HW179420   6.030   1.699   1.266 -1.3939  2.3207 -0.0042
25168SOL    HW279421   6.135   1.803   1.298 -0.7006  1.6429 -0.0629
25169SOL     OW79422   9.698   9.775   4.197 -0.1524 -0.4310 -0.1047
25169SOL    HW179423   9.713   9.716   4.123  0.3682 -0.5020  0.0461
25169SOL    HW279424   9.610   9.755   4.227 -0.3948 -0.3426 -0.7563
25170SOL     OW79425   1.744   6.260   3.872 -0.3904  0.2935  0.0272
25170SOL    HW179426   1.770   6.327   3.809  1.7826  1.3662  1.8753
25170SOL    HW279427   1.662   6.293   3.909 -0.6742  0.6229 -0.8566
25171SOL     OW79428   8.468   8.899   0.545  0.8723  0.6591 -0.4571
25171SOL    HW179429   8.449   8.809   0.570  1.9952  0.5389  0.0347
25171SOL    HW279430   8.507   8.939   0.623 -0.3727  1.8283 -0.4006
25172SOL     OW79431   2.906   7.290   5.201  0.8529 -0.0717  0.2956
25172SOL    HW179432   2.913   7.370   5.253  0.6539 -1.3391  2.4339
25172SOL    HW279433   2.947   7.223   5.255  1.8172 -1.2789 -1.8203
25173SOL     OW79434   3.449   4.347   8.603 -0.1568 -0.0006  0.1577
25173SOL    HW179435   3.525   4.310   8.557  0.4694  1.2245  0.1530
25173SOL    HW279436   3.472   4.439   8.616 -1.4072  0.2561  0.6854
25174SOL     OW79437   4.014   3.922   1.413 -0.3259 -0.0320 -0.1893
25174SOL    HW179438   4.031   3.963   1.498 -0.5495 -1.1216  0.3985
25174SOL    HW279439   4.044   3.987   1.349 -0.8798  1.1475  0.6905
25175SOL     OW79440   4.922   5.240   9.775 -0.0054 -0.1668  0.1929
25175SOL    HW179441   5.004   5.276   9.742 -0.3115 -1.1697 -1.7885
25175SOL    HW279442   4.854   5.285   9.724 -0.5672 -0.8900  0.2872
25176SOL     OW79443   7.515   2.542   6.930 -0.1956 -0.3504  0.1632
25176SOL    HW179444   7.521   2.634   6.955  1.1315 -0.2254 -0.5422
25176SOL    HW279445   7.425   2.517   6.952 -0.8671  1.3659 -0.4797
25177SOL     OW79446   4.772   8.321   8.243 -0.1284  0.2438 -0.2560
25177SOL    HW179447   4.788   8.289   8.154  0.5244 -0.1123 -0.0250
25177SOL    HW279448   4.705   8.388   8.233 -0.3437 -0.0656 -0.9672
25178SOL     OW79449   3.334   8.073   8.612  0.2207  0.4142 -0.1343
25178SOL    HW179450   3.398   8.084   8.542  1.4795  0.8011  1.0282
25178SOL    HW279451   3.274   8.147   8.603 -0.1192  0.0113 -1.2785
25179SOL     OW79452   7.253   0.154   5.828 -0.2239 -0.3881 -0.7543
25179SOL    HW179453   7.336   0.142   5.782 -0.1061  2.0554 -1.3085
25179SOL    HW279454   7.275   0.153   5.921  0.4834  0.4486 -0.9048
25180SOL     OW79455   7.115   8.996   2.636 -0.1704  0.6253 -0.3971
25180SOL    HW179456   7.159   9.002   2.721  0.6061  0.5668 -0.7811
25180SOL    HW279457   7.032   9.041   2.649  1.1179  3.1739 -0.3436
25181SOL     OW79458   1.511   8.971   7.727  0.0716 -0.5455  0.0765
25181SOL    HW179459   1.545   8.882   7.725  1.4884 -0.1229 -3.4328
25181SOL    HW279460   1.418   8.962   7.703  0.6167 -1.0567 -2.0391
25182SOL     OW79461   8.242   4.994   1.304 -0.3281 -0.6077 -0.1479
25182SOL    HW179462   8.152   4.962   1.296 -0.4856 -0.6716  1.5259
25182SOL    HW279463   8.245   5.035   1.390  1.1420 -0.2027 -0.3633
25183SOL     OW79464   8.322   3.493   1.106 -0.1615 -0.0547  1.0824
25183SOL    HW179465   8.275   3.573   1.085 -0.6057 -0.1216  1.8109
25183SOL    HW279466   8.290   3.468   1.193  1.2673 -0.0666  1.6253
25184SOL     OW79467   5.678   4.889   3.528 -0.3012  0.4873  0.5423
25184SOL    HW179468   5.662   4.865   3.436  1.4512  0.7695  0.1325
25184SOL    HW279469   5.698   4.982   3.524 -0.5195  0.5681  1.2744
25185SOL     OW79470   5.002  10.085   7.063 -0.1223  0.6252 -0.2511
25185SOL    HW179471   4.986  10.161   7.119 -1.9453  0.7983 -0.9324
25185SOL    HW279472   5.063  10.031   7.113 -0.1009  1.7290  0.9860
25186SOL     OW79473   0.441   6.264   5.609 -0.0183 -0.1867 -0.0788
25186SOL    HW179474   0.459   6.176   5.577  0.5822  0.1321 -0.6566
25186SOL    HW279475   0.526   6.308   5.608 -0.1255  0.0929  1.1984
25187SOL     OW79476   6.517   1.439   3.474 -0.1603 -0.4928 -0.0941
25187SOL    HW179477   6.439   1.432   3.530 -0.7886  1.3872 -0.6789
25187SOL    HW279478   6.572   1.504   3.518 -0.0511  0.0137 -0.9684
25188SOL     OW79479   8.463   0.597   4.722 -0.2614 -0.3113 -0.2494
25188SOL    HW179480   8.534   0.638   4.773 -0.4187  0.0490 -0.3175
25188SOL    HW279481   8.410   0.553   4.788  1.2298 -2.4796 -0.3881
25189SOL     OW79482   6.623   4.271   6.906 -0.1074  0.0013 -0.2932
25189SOL    HW179483   6.578   4.195   6.870 -0.2690  0.1679 -0.4508
25189SOL    HW279484   6.597   4.273   6.998  1.0277 -0.9497  0.0713
25190SOL     OW79485   3.175   3.235   9.898 -0.1158 -0.5971 -0.5916
25190SOL    HW179486   3.223   3.264   9.976 -0.2892  0.7155 -0.9374
25190SOL    HW279487   3.189   3.141   9.894  2.5387 -0.2736 -0.7332
25191SOL     OW79488   8.226   5.862   6.877  0.7671  0.1680  0.0728
25191SOL    HW179489   8.165   5.909   6.819  1.1648  1.9869  1.0588
25191SOL    HW279490   8.204   5.892   6.965  1.7241 -0.7500  0.6530
25192SOL     OW79491   6.339   6.404   9.066 -0.0338  0.2353  0.1395
25192SOL    HW179492   6.285   6.342   9.018 -0.9394  0.6761  0.5610
25192SOL    HW279493   6.280   6.443   9.131  1.0657 -0.1068  1.4107
25193SOL     OW79494   8.510   8.035   1.345  0.3192 -0.3767  0.2060
25193SOL    HW179495   8.418   8.029   1.319  0.6731 -0.7973 -1.0605
25193SOL    HW279496   8.508   8.055   1.438 -1.0668 -2.0727  0.5988
25194SOL     OW79497   4.144   1.123   5.744  0.0020 -0.3692  0.3952
25194SOL    HW179498   4.165   1.033   5.767 -0.4334 -0.2423  1.3391
25194SOL    HW279499   4.082   1.152   5.811 -2.4786 -0.4094 -1.7175
25195SOL     OW79500   5.057   4.430   6.654 -0.9824 -0.2813 -0.4328
25195SOL    HW179501   5.068   4.373   6.730  1.2187  1.0550  0.3243
25195SOL    HW279502   5.055   4.518   6.690 -0.5671  0.3384 -1.8559
25196SOL     OW79503   2.676   3.737   4.824 -0.0591 -0.3177 -0.1950
25196SOL    HW179504   2.604   3.680   4.796  0.5943 -0.1195 -2.4363
25196SOL    HW279505   2.731   3.681   4.879 -1.3803 -0.7359  0.7785
25197SOL     OW79506   6.356   5.882   7.649  0.1797 -0.4535  0.1275
25197SOL    HW179507   6.305   5.912   7.574  1.3962  1.6314  0.0461
25197SOL    HW279508   6.303   5.908   7.725 -0.5434 -1.5844  0.0241
25198SOL     OW79509   4.545   9.299   9.402 -0.6699 -0.1193  0.3489
25198SOL    HW179510   4.529   9.393   9.392  0.9949  0.0903 -0.6153
25198SOL    HW279511   4.635   9.293   9.433  0.1169 -1.4488 -1.9686
25199SOL     OW79512   1.150   8.507   3.531 -0.3530  0.4544 -0.2113
25199SOL    HW179513   1.166   8.420   3.567 -1.5699  0.4555  0.3724
25199SOL    HW279514   1.237   8.544   3.519  0.1426 -0.3343  0.7943
25200SOL     OW79515   0.229   8.173   7.029  0.2569 -0.4139 -0.4373
25200SOL    HW179516   0.222   8.162   6.935  1.9127 -2.3862 -0.3883
25200SOL    HW279517   0.244   8.267   7.041 -0.6180 -0.0388 -2.0568
25201SOL     OW79518   8.088   2.170   0.008  0.3284 -0.1370 -0.6987
25201SOL    HW179519   8.052   2.177  -0.081  0.1847 -1.1027 -0.7242
25201SOL    HW279520   8.013   2.186   0.065 -0.0547 -1.5763 -0.7553
25202SOL     OW79521   2.687   9.068   7.894  0.3262 -0.2717 -0.5075
25202SOL    HW179522   2.698   8.976   7.868  3.0823 -0.1133 -0.1652
25202SOL    HW279523   2.711   9.118   7.816 -1.8317  0.2428 -0.9223
25203SOL     OW79524   3.879   3.803   4.465 -0.3948  0.0332  0.0999
25203SOL    HW179525   3.809   3.805   4.530 -1.3073  0.6173 -0.8643
25203SOL    HW279526   3.913   3.892   4.463 -0.6686  0.1351 -0.5082
25204SOL     OW79527   4.260   0.172   7.755 -0.3974  0.1707 -0.2560
25204SOL    HW179528   4.330   0.194   7.817 -0.7846 -0.4879  0.4391
25204SOL    HW279529   4.199   0.246   7.760 -0.7325 -0.1522  0.6247
25205SOL     OW79530   3.981   2.645   6.316  0.4911 -0.0383  0.0819
25205SOL    HW179531   4.073   2.669   6.305  0.5996 -0.0257  0.9331
25205SOL    HW279532   3.958   2.679   6.402 -0.3199 -0.0293 -0.1350
25206SOL     OW79533   0.174   8.403   3.830  0.0652  0.6935  0.1925
25206SOL    HW179534   0.160   8.492   3.863 -2.4827  0.4716 -0.0776
25206SOL    HW279535   0.113   8.349   3.880  0.7314 -0.7399 -0.4635
25207SOL     OW79536   1.565   7.572   6.846 -0.0542 -0.5914  0.1358
25207SOL    HW179537   1.653   7.596   6.872  0.1316  0.6657 -1.4555
25207SOL    HW279538   1.509   7.600   6.919  0.7675 -0.5617  0.7621
25208SOL     OW79539   4.509  10.022   8.568 -0.2255 -0.3591  0.5906
25208SOL    HW179540   4.469  10.086   8.627  1.0168  1.4982 -0.4620
25208SOL    HW279541   4.436   9.969   8.536 -1.8007  2.3360 -0.6366
25209SOL     OW79542   9.180   3.268   5.521 -0.1921 -0.1182  0.9359
25209SOL    HW179543   9.182   3.315   5.604  0.5937  0.7508  0.4525
25209SOL    HW279544   9.107   3.308   5.473  0.2900  0.4260  0.6405
25210SOL     OW79545   7.122   4.070   6.246 -0.3763  0.3124  0.1074
25210SOL    HW179546   7.159   4.100   6.329  0.7709  0.8935 -0.5786
25210SOL    HW279547   7.198   4.066   6.187 -1.2580  0.5009 -1.0694
25211SOL     OW79548   1.401   6.956   0.866  0.7868 -0.2573  0.3821
25211SOL    HW179549   1.467   6.895   0.832  0.8826  1.2041 -2.3162
25211SOL    HW279550   1.342   6.970   0.792 -1.9261 -0.5690  2.3411
25212SOL     OW79551   6.292   1.915   1.835  0.5899 -0.0934 -0.4530
25212SOL    HW179552   6.342   1.833   1.831  0.3094 -0.2082 -1.9103
25212SOL    HW279553   6.317   1.963   1.757 -0.7829  0.3086 -0.6753
25213SOL     OW79554   6.458   7.144   9.779  0.3288  0.0470  0.0251
25213SOL    HW179555   6.472   7.049   9.775 -0.7396 -0.0963 -0.6076
25213SOL    HW279556   6.405   7.164   9.702  0.7067  1.1975  0.0454
25214SOL     OW79557   3.804   5.186   2.124  0.0965  0.0393 -0.2116
25214SOL    HW179558   3.710   5.185   2.108 -1.3057  2.1576  5.3644
25214SOL    HW279559   3.840   5.242   2.056 -2.4967 -1.0999 -2.7092
25215SOL     OW79560   6.653   6.317   0.293  0.6071 -0.2593 -0.3646
25215SOL    HW179561   6.695   6.315   0.207 -0.7088 -3.0914 -1.0621
25215SOL    HW279562   6.559   6.317   0.274  0.2635  0.8346  1.1169
25216SOL     OW79563   7.598   7.974   4.839 -0.2738 -0.0349 -0.1626
25216SOL    HW179564   7.613   8.068   4.854 -0.0867  0.0220 -0.6746
25216SOL    HW279565   7.575   7.968   4.747 -3.1718 -0.1681  0.4982
25217SOL     OW79566   0.085   5.296   0.438 -0.3884  0.0558 -0.4120
25217SOL    HW179567   0.018   5.281   0.505 -2.3605 -1.3138 -2.5449
25217SOL    HW279568   0.036   5.310   0.357  1.8380 -2.0131 -2.2975
25218SOL     OW79569   2.065   7.942   1.652  0.2979 -0.2477 -0.0167
25218SOL    HW179570   2.076   7.888   1.574 -0.8611 -0.5703  0.0363
25218SOL    HW279571   2.074   7.880   1.725  0.9627 -0.0159  0.1092
25219SOL     OW79572   0.808   1.821   1.737  0.5078  0.1234 -0.7652
25219SOL    HW179573   0.869   1.882   1.695 -2.4870  2.8592 -1.4827
25219SOL    HW279574   0.821   1.834   1.830  0.2785  1.4869 -0.9164
25220SOL     OW79575   5.995   8.049   6.862  0.2036  0.4041  0.3059
25220SOL    HW179576   6.077   8.100   6.865 -0.1446  0.9325  1.1919
25220SOL    HW279577   5.926   8.115   6.857 -0.2317 -0.0015  0.9285
25221SOL     OW79578   7.834   6.859   4.365  0.4976  0.5791 -0.2338
25221SOL    HW179579   7.834   6.882   4.458 -2.2479 -0.8973  0.2348
25221SOL    HW279580   7.905   6.795   4.356 -0.1527 -0.4062  1.2200
25222SOL     OW79581   4.270   6.624   6.235  0.2115  0.3107  0.1277
25222SOL    HW179582   4.240   6.609   6.324  0.5052 -0.5412  0.0873
25222SOL    HW279583   4.203   6.584   6.180  0.2711  0.4194 -0.0251
25223SOL     OW79584   3.742   2.155   0.061 -0.2720 -0.5961  0.4605
25223SOL    HW179585   3.748   2.246   0.088 -1.2977 -0.2198 -0.5439
25223SOL    HW279586   3.731   2.106   0.143 -0.9524  0.2972  0.9118
25224SOL     OW79587   3.420   1.239   1.233 -0.2446 -0.1209 -0.2186
25224SOL    HW179588   3.477   1.292   1.289 -0.6194  1.2862 -1.0977
25224SOL    HW279589   3.336   1.237   1.280 -0.0617 -0.4442  0.0982
25225SOL     OW79590   6.094   2.222   8.579  0.6001  0.2812  0.3713
25225SOL    HW179591   6.159   2.242   8.646 -0.3296  0.2974  1.2898
25225SOL    HW279592   6.081   2.127   8.585 -0.5511  0.4675  1.2497
25226SOL     OW79593   2.870   8.437   1.314  0.4333 -0.3107  0.3712
25226SOL    HW179594   2.872   8.400   1.226 -0.4432 -1.6817  0.8867
25226SOL    HW279595   2.879   8.532   1.301  0.3294 -0.4900 -1.1707
25227SOL     OW79596   2.162   0.265   4.462  0.1693 -0.3023  0.1709
25227SOL    HW179597   2.114   0.232   4.386  0.4722 -1.0888  0.3159
25227SOL    HW279598   2.112   0.234   4.537  1.1143 -1.4872  0.3347
25228SOL     OW79599   0.198   9.609   0.687  0.1908  0.0212 -0.2638
25228SOL    HW179600   0.257   9.612   0.761  0.7410  0.3611 -0.7090
25228SOL    HW279601   0.115   9.643   0.720 -0.0243 -1.2805  0.5939
25229SOL     OW79602   1.809   8.762   2.308  0.6279  0.1994  0.4009
25229SOL    HW179603   1.733   8.804   2.348  1.0350  1.2305  0.1133
25229SOL    HW279604   1.883   8.795   2.359  0.9987  0.2076 -0.1424
25230SOL     OW79605   9.997   0.910   4.595 -0.9039 -0.3543 -0.6616
25230SOL    HW179606   9.981   0.951   4.680 -1.2758  1.2861 -1.4880
25230SOL    HW279607   9.913   0.871   4.570 -0.9713 -0.2589 -0.5824
25231SOL     OW79608   9.097   2.347   2.973  0.0736  0.0391  0.4839
25231SOL    HW179609   9.085   2.254   2.992 -1.1112  0.3034  1.1247
25231SOL    HW279610   9.158   2.349   2.900 -2.5863 -1.4303 -1.9931
25232SOL     OW79611   8.100   5.696   7.302 -0.0179 -0.1095 -0.0417
25232SOL    HW179612   8.168   5.743   7.350  0.5992 -0.6375 -0.3921
25232SOL    HW279613   8.104   5.607   7.336  1.0148 -0.7110 -1.6750
25233SOL     OW79614   0.223   9.035   0.670  0.3141 -0.5769 -0.2554
25233SOL    HW179615   0.213   8.978   0.746 -3.4279 -0.2091 -0.2733
25233SOL    HW279616   0.203   9.122   0.702  0.6386 -0.1048 -1.2884
25234SOL     OW79617   8.629   9.536   5.918 -0.1011 -0.0054 -0.1997
25234SOL    HW179618   8.588   9.472   5.976 -0.8966 -0.1860 -0.9424
25234SOL    HW279619   8.656   9.485   5.842 -0.8239  0.5573 -0.8420
25235SOL     OW79620   6.324   7.998   4.386 -0.0883 -0.0153 -0.6025
25235SOL    HW179621   6.274   8.060   4.332 -1.1225  1.2303  1.6404
25235SOL    HW279622   6.262   7.928   4.407  0.0205 -0.0114 -0.2602
25236SOL     OW79623   7.961   1.333   7.465  0.3961  0.4053  0.4694
25236SOL    HW179624   7.997   1.304   7.381 -1.7483 -0.0743 -0.3434
25236SOL    HW279625   8.010   1.283   7.531  0.2590 -1.2993 -0.6598
25237SOL     OW79626   0.493   7.685   5.956  0.2575 -0.3877  0.2279
25237SOL    HW179627   0.509   7.598   5.920 -1.8729 -0.6663 -0.1550
25237SOL    HW279628   0.472   7.670   6.048 -1.7692 -0.5223 -0.2063
25238SOL     OW79629   1.333   6.307   2.636 -0.2192 -0.0751 -0.1810
25238SOL    HW179630   1.400   6.249   2.672 -1.7234 -2.7457 -1.3604
25238SOL    HW279631   1.308   6.363   2.710  3.0502  0.8687  0.3377
25239SOL     OW79632   7.385  10.088   3.826  0.3138 -0.6905  0.3231
25239SOL    HW179633   7.294  10.105   3.802  0.9799  1.3545 -0.9959
25239SOL    HW279634   7.429  10.070   3.742  1.3401 -0.5017  0.8076
25240SOL     OW79635   9.214   8.017   0.204  0.0762 -0.1467 -0.3555
25240SOL    HW179636   9.142   7.973   0.249  0.2021 -0.2847 -0.2895
25240SOL    HW279637   9.210   7.983   0.115  1.1014 -1.4356  0.0678
25241SOL     OW79638   2.394   3.692   8.952 -0.2430  0.4402  0.0784
25241SOL    HW179639   2.436   3.662   9.033 -0.2439 -0.3151 -0.1883
25241SOL    HW279640   2.338   3.618   8.925 -0.3093  0.7149 -0.5635
25242SOL     OW79641   9.744   8.817   6.751  0.3620  0.0705 -0.1068
25242SOL    HW179642   9.683   8.809   6.824  1.7813  1.5989  1.3131
25242SOL    HW279643   9.688   8.831   6.675 -1.0929  2.1774  1.2456
25243SOL     OW79644   5.146   2.177   7.283 -0.8662  0.1371  0.1821
25243SOL    HW179645   5.201   2.127   7.223  0.8303  1.3274  0.6505
25243SOL    HW279646   5.173   2.147   7.370 -0.3766  1.2698  0.4408
25244SOL     OW79647   8.672   5.357   1.335 -0.4985  0.0175 -0.8385
25244SOL    HW179648   8.671   5.277   1.389 -0.5311  1.4239  1.3519
25244SOL    HW279649   8.579   5.376   1.321 -0.5416  0.7336  0.3358
25245SOL     OW79650   1.595   9.251   5.683  0.2754 -0.2084 -0.3255
25245SOL    HW179651   1.516   9.269   5.734 -0.3868 -0.9943 -1.0372
25245SOL    HW279652   1.609   9.157   5.693  2.0200  0.1436  1.0208
25246SOL     OW79653   2.286   5.574   8.916  0.0936 -0.6275  0.2321
25246SOL    HW179654   2.267   5.643   8.852  3.7257  0.0685 -0.3455
25246SOL    HW279655   2.246   5.604   8.997 -1.8673  0.0804 -0.9339
25247SOL     OW79656   8.373   0.904   1.607  0.0124 -0.4472  0.3877
25247SOL    HW179657   8.454   0.934   1.649 -0.4213 -0.3029  1.1369
25247SOL    HW279658   8.359   0.966   1.535  1.1587 -1.1322 -0.4567
25248SOL     OW79659   6.009   0.453   4.946 -0.4619 -0.2267  0.6726
25248SOL    HW179660   6.072   0.472   4.877 -0.6058 -0.0636  0.5854
25248SOL    HW279661   6.031   0.515   5.016  0.8421 -1.5837  1.5124
25249SOL     OW79662   8.695  10.187   5.634  0.8658 -0.4476 -0.0659
25249SOL    HW179663   8.655  10.274   5.630 -1.1833 -1.2473  1.2154
25249SOL    HW279664   8.757  10.192   5.706  0.0877 -0.2767  0.6030
25250SOL     OW79665  10.099   4.800   3.113 -0.2115 -0.2760  0.3602
25250SOL    HW179666  10.065   4.731   3.171 -0.0755 -1.0238 -0.4300
25250SOL    HW279667  10.182   4.826   3.153 -1.0621  0.6577  1.6009
25251SOL     OW79668   5.375   3.010   5.664  0.0834 -0.2905  0.1784
25251SOL    HW179669   5.457   2.961   5.659 -0.2984 -0.8833 -0.3791
25251SOL    HW279670   5.321   2.975   5.594 -0.8767 -0.3158  0.9045
25252SOL     OW79671   3.397   4.804  10.152 -0.2772  0.0327 -0.0494
25252SOL    HW179672   3.323   4.864  10.160  0.1195  0.4998  0.1786
25252SOL    HW279673   3.357   4.717  10.152 -0.7613  0.2306  1.0892
25253SOL     OW79674   2.846   3.027   3.190 -0.5034  0.1565 -0.0945
25253SOL    HW179675   2.821   3.003   3.101 -1.8347  0.3339  0.2207
25253SOL    HW279676   2.880   2.946   3.228  0.3464  0.1425 -0.8278
25254SOL     OW79677   0.129   1.671   4.912 -0.3336  0.0431  0.0660
25254SOL    HW179678   0.205   1.727   4.927 -0.7602  0.5823  0.2770
25254SOL    HW279679   0.153   1.587   4.951 -0.0738  0.3898  0.6708
25255SOL     OW79680   1.331   1.362   4.437 -0.0911 -0.3780 -0.2491
25255SOL    HW179681   1.324   1.448   4.478 -0.4813 -0.3994 -0.2648
25255SOL    HW279682   1.314   1.379   4.344  2.6514 -0.0297 -0.7641
25256SOL     OW79683   1.989   2.875   0.716  0.3431 -0.4731 -0.0306
25256SOL    HW179684   1.966   2.797   0.665 -0.6253  0.8232 -1.6516
25256SOL    HW279685   1.936   2.868   0.795 -1.0438 -0.6249 -0.9445
25257SOL     OW79686   4.057   2.444   4.726 -0.3115  0.6555 -0.3462
25257SOL    HW179687   4.064   2.404   4.639 -2.1267 -0.6992  0.0897
25257SOL    HW279688   3.974   2.413   4.761  0.2483  1.3872  1.7941
25258SOL     OW79689   6.576   5.559   8.691  0.0403 -0.0783 -0.2371
25258SOL    HW179690   6.610   5.644   8.719  1.1198 -0.1006 -1.3610
25258SOL    HW279691   6.510   5.537   8.756  1.1887  0.6590  1.2486
25259SOL     OW79692   4.629   0.559   9.617  0.3797 -0.2249  0.5753
25259SOL    HW179693   4.654   0.473   9.582  2.0321  0.8574 -1.1465
25259SOL    HW279694   4.539   0.572   9.588 -0.2591 -1.7689  1.7531
25260SOL     OW79695   6.034   9.083   4.681 -0.4113 -0.3621 -0.5344
25260SOL    HW179696   5.976   9.083   4.757  0.9908  1.5209  0.6301
25260SOL    HW279697   5.975   9.087   4.605 -1.8254 -1.6777  0.4244
25261SOL     OW79698   1.351   6.458   5.960 -0.1759 -0.0037  0.1400
25261SOL    HW179699   1.436   6.431   5.997 -0.5521 -0.3892  0.7407
25261SOL    HW279700   1.334   6.395   5.890 -1.1281 -1.4975  1.6361
25262SOL     OW79701   7.726   5.011   1.147 -0.2500  0.0488 -0.2892
25262SOL    HW179702   7.668   4.963   1.089  2.1692 -2.2489 -0.9775
25262SOL    HW279703   7.667   5.057   1.207 -2.7409 -0.8771 -1.8760
25263SOL     OW79704   2.354   7.133   1.220  0.2121  0.4342 -0.2534
25263SOL    HW179705   2.288   7.111   1.286  1.0742 -0.0494  0.4619
25263SOL    HW279706   2.342   7.226   1.204  0.9106  0.8973  1.6423
25264SOL     OW79707   8.091  10.166   8.322 -0.0496  0.1040  0.0588
25264SOL    HW179708   8.175  10.180   8.277 -0.4894  1.5981 -0.3704
25264SOL    HW279709   8.083  10.242   8.380 -0.6266 -0.5661  0.8698
25265SOL     OW79710   8.059   3.201   1.868  0.7460  0.2485  0.8422
25265SOL    HW179711   7.975   3.221   1.909 -0.0247 -2.6621  0.9036
25265SOL    HW279712   8.110   3.160   1.938  1.9776  1.3047  0.6005
25266SOL     OW79713   7.052   6.022   2.864  0.0251 -0.1092  0.3685
25266SOL    HW179714   7.118   6.047   2.799 -0.8882 -0.1751 -0.6063
25266SOL    HW279715   7.079   6.067   2.944  0.1595  1.4576 -0.5163
25267SOL     OW79716   0.511   8.850   1.317  0.3740 -0.0667 -0.3499
25267SOL    HW179717   0.475   8.814   1.398  2.4652 -1.3740  0.0534
25267SOL    HW279718   0.604   8.864   1.335  0.1927  3.2946 -1.2975
25268SOL     OW79719   9.616   6.592   9.288 -1.0167  0.2735  0.1068
25268SOL    HW179720   9.537   6.631   9.252 -0.4481 -0.7718 -2.5080
25268SOL    HW279721   9.672   6.576   9.212  0.2013 -2.3393  1.4044
25269SOL     OW79722   7.543   3.928  10.169  0.2967  0.0265 -0.3152
25269SOL    HW179723   7.482   3.935  10.243  1.1470 -1.0651  0.5224
25269SOL    HW279724   7.622   3.890  10.207  0.9426 -0.0585 -1.6961
25270SOL     OW79725   2.515   2.061   9.972  0.1133  0.0807 -0.0031
25270SOL    HW179726   2.426   2.075  10.004 -0.6162 -1.2689 -1.3317
25270SOL    HW279727   2.511   2.088   9.880  1.7291  2.2797  0.4788
25271SOL     OW79728   8.740   6.623   7.971  0.6407 -0.6360 -0.2504
25271SOL    HW179729   8.722   6.568   8.047  2.4714 -1.1262 -0.1195
25271SOL    HW279730   8.655   6.657   7.945 -0.4381 -2.8561  0.1803
25272SOL     OW79731  10.040   7.403   2.565 -0.7880 -1.0389  0.7014
25272SOL    HW179732   9.965   7.433   2.616 -0.9178 -2.3951  1.3750
25272SOL    HW279733  10.117   7.425   2.618 -0.8703 -1.6738  1.1002
25273SOL     OW79734   6.365   3.388   2.232  0.4297  0.2837 -0.6480
25273SOL    HW179735   6.344   3.481   2.229  1.1191  0.4463 -0.6204
25273SOL    HW279736   6.356   3.358   2.142 -2.0036 -0.1478 -0.3245
25274SOL     OW79737   6.067   1.392   4.229 -0.4393 -0.3773 -0.2043
25274SOL    HW179738   6.115   1.310   4.241 -0.2940 -0.0263  1.8432
25274SOL    HW279739   5.977   1.364   4.212 -0.1365 -0.9608 -0.9502
25275SOL     OW79740  10.004   8.889   0.133 -0.3924  0.0382 -0.0880
25275SOL    HW179741   9.924   8.923   0.174  0.1778  2.9017 -1.1244
25275SOL    HW279742   9.994   8.911   0.040  0.2693 -2.4120 -0.8382
25276SOL     OW79743   0.406   5.413   4.679  0.5054 -0.2353 -0.5923
25276SOL    HW179744   0.359   5.409   4.763 -1.2477 -0.1221 -1.5112
25276SOL    HW279745   0.488   5.458   4.699  0.4391 -0.8119  1.1804
25277SOL     OW79746   5.587   7.457   2.340  0.5855  0.3393  0.1188
25277SOL    HW179747   5.502   7.480   2.377  1.5599  2.5262  1.2444
25277SOL    HW279748   5.582   7.485   2.248 -0.6746 -1.8640 -0.5514
25278SOL     OW79749   8.035   8.648   6.494 -0.4151  0.1868  0.1308
25278SOL    HW179750   8.099   8.577   6.493 -0.2555  0.3339 -1.0136
25278SOL    HW279751   8.061   8.705   6.422 -0.0676  1.8551  1.5039
25279SOL     OW79752   1.384   9.541   7.795  0.5075  0.3679  0.4785
25279SOL    HW179753   1.307   9.571   7.747 -0.9821  0.7756  2.9700
25279SOL    HW279754   1.374   9.446   7.800  1.2444  0.1973 -0.8865
25280SOL     OW79755   1.027   1.469  10.153 -0.1108 -0.0425 -0.0614
25280SOL    HW179756   1.103   1.479  10.097  1.8337 -0.3101  2.3881
25280SOL    HW279757   0.998   1.379  10.139  0.2680 -0.0667 -0.7096
25281SOL     OW79758   8.576   0.548   1.444 -0.1499  0.2625 -0.2420
25281SOL    HW179759   8.655   0.504   1.475  0.2127 -0.2057 -1.7933
25281SOL    HW279760   8.532   0.577   1.525  2.2969  1.8275  0.6334
25282SOL     OW79761   8.132   6.857   6.714  0.4689  0.0924 -0.0549
25282SOL    HW179762   8.140   6.864   6.619  0.2709  0.0481 -0.0750
25282SOL    HW279763   8.038   6.850   6.730  0.5449 -0.8151  0.0769
25283SOL     OW79764   2.386   4.144   0.689 -0.6172  0.1705  0.1393
25283SOL    HW179765   2.464   4.143   0.744 -1.8935  1.9319  2.1529
25283SOL    HW279766   2.420   4.151   0.600  1.5431  0.9330  0.9437
25284SOL     OW79767   2.530   1.816   6.934  0.4937  0.3686  0.3270
25284SOL    HW179768   2.480   1.775   7.005  0.8233 -0.1376  0.2739
25284SOL    HW279769   2.619   1.823   6.967 -0.0755  3.7145  1.4380
25285SOL     OW79770   8.147   3.038   0.201 -0.0049  0.1772 -0.2575
25285SOL    HW179771   8.222   3.064   0.254 -0.3068  0.6008 -0.0305
25285SOL    HW279772   8.078   3.019   0.265 -1.2299  3.2476 -0.4989
25286SOL     OW79773   8.819   0.869   7.905  0.4824 -0.5285  0.1878
25286SOL    HW179774   8.735   0.845   7.942  0.2720  0.6879  0.5236
25286SOL    HW279775   8.884   0.836   7.967  0.3300 -2.3666 -0.5701
25287SOL     OW79776   5.910   3.151   9.895 -0.0793  0.2424 -1.1719
25287SOL    HW179777   5.993   3.104   9.893 -0.8441 -1.2188 -0.9436
25287SOL    HW279778   5.900   3.180   9.986 -0.5827 -1.1391 -0.7440
25288SOL     OW79779   0.140   2.306   4.231 -0.2700  0.1103 -0.6173
25288SOL    HW179780   0.071   2.258   4.277 -1.7323  1.3542 -1.4369
25288SOL    HW279781   0.129   2.397   4.259  2.4319  0.0828  0.9006
25289SOL     OW79782   7.759   0.476   6.594  0.4677 -0.2733  0.0953
25289SOL    HW179783   7.707   0.420   6.536  0.6001 -0.0422 -0.2464
25289SOL    HW279784   7.764   0.560   6.549  0.8098 -0.1776  0.3078
25290SOL     OW79785   2.879   4.239   9.527  0.1493  0.0229 -0.1324
25290SOL    HW179786   2.921   4.155   9.513  0.0523  0.1519 -1.2856
25290SOL    HW279787   2.821   4.225   9.602 -1.1447 -1.4215 -1.3435
25291SOL     OW79788   6.966   4.771  10.039 -0.1758  0.1864 -0.0185
25291SOL    HW179789   6.934   4.815  10.118 -2.8838 -2.3093  0.4812
25291SOL    HW279790   6.968   4.678  10.063  0.4555 -0.5008 -2.4450
25292SOL     OW79791   5.618   1.218   8.480  0.8037 -0.0194  0.4205
25292SOL    HW179792   5.682   1.150   8.462 -0.1179 -1.3381  1.8989
25292SOL    HW279793   5.553   1.209   8.410  1.9067  0.9834 -0.7826
25293SOL     OW79794   9.032   1.283   6.448  0.2460  0.2831  0.2667
25293SOL    HW179795   8.945   1.245   6.459  0.4086 -0.5148 -0.9992
25293SOL    HW279796   9.092   1.210   6.461  0.7195  0.7593  0.8115
25294SOL     OW79797   2.244   4.037   2.738 -0.2064  0.1237 -0.1329
25294SOL    HW179798   2.303   4.096   2.691  0.0149  0.1110  0.1264
25294SOL    HW279799   2.275   3.949   2.715  0.7428  0.1160  1.0684
25295SOL     OW79800   6.932   2.090   9.700  0.2820 -0.7439 -0.2786
25295SOL    HW179801   6.865   2.066   9.635 -0.2273  0.9087 -0.3930
25295SOL    HW279802   6.989   2.151   9.654 -1.3768  2.2615  1.3954
25296SOL     OW79803   7.907  10.146   0.438  0.2810  0.9255 -0.3530
25296SOL    HW179804   7.894  10.111   0.350  1.2570 -0.0411 -0.1325
25296SOL    HW279805   7.818  10.160   0.472 -0.1351 -0.6009 -0.7612
25297SOL     OW79806   6.609   6.586   9.678  0.2505  0.2053  0.2461
25297SOL    HW179807   6.543   6.619   9.617 -0.8147 -1.2678  0.5555
25297SOL    HW279808   6.670   6.537   9.624 -0.1615 -0.2930  0.2233
25298SOL     OW79809   7.371   8.344   1.313  0.1952 -0.1017 -0.6846
25298SOL    HW179810   7.442   8.401   1.285  1.0041 -0.1814  1.0311
25298SOL    HW279811   7.376   8.269   1.254  2.8222 -0.9995  0.4895
25299SOL     OW79812   0.051   2.770  10.038 -0.4642 -0.4197  0.1452
25299SOL    HW179813   0.008   2.855  10.027  0.4606  0.0711  0.2479
25299SOL    HW279814   0.046   2.730   9.952 -1.0053 -0.3076  0.1221
25300SOL     OW79815   4.512   9.491   5.871  0.6465  0.3396  0.3582
25300SOL    HW179816   4.458   9.440   5.812 -0.0197  1.3001  0.1045
25300SOL    HW279817   4.599   9.450   5.867  0.0237 -1.0458  0.5578
25301SOL     OW79818   7.596   9.881   9.479 -0.0071  0.0508  0.6829
25301SOL    HW179819   7.573   9.921   9.395 -0.5148 -0.9123  0.3614
25301SOL    HW279820   7.621   9.792   9.458  2.0063  0.4157  1.2927
25302SOL     OW79821   9.851   7.413   1.641  0.6432 -0.1633 -0.1717
25302SOL    HW179822   9.759   7.440   1.634  0.1225 -1.5612  0.7700
25302SOL    HW279823   9.896   7.491   1.673 -0.2659  0.4628 -0.3766
25303SOL     OW79824   1.056   4.558   7.317  0.4377  0.2528 -0.3076
25303SOL    HW179825   1.088   4.625   7.378  0.8108  0.8839 -1.1614
25303SOL    HW279826   1.084   4.590   7.231  0.2307 -0.7891 -0.7762
25304SOL     OW79827   8.262   0.754   7.535  0.0085 -0.3217  0.0766
25304SOL    HW179828   8.172   0.760   7.502 -0.3051 -1.2901  0.7095
25304SOL    HW279829   8.282   0.843   7.566 -0.0518  0.3678 -1.6984
25305SOL     OW79830   5.844   1.317   1.159  0.2628 -0.0541 -0.4001
25305SOL    HW179831   5.757   1.279   1.169 -0.8121  2.2003 -0.5840
25305SOL    HW279832   5.861   1.314   1.064 -0.5463  1.2943 -0.6247
25306SOL     OW79833   6.965   8.391   8.847 -0.4879  0.5290 -0.1786
25306SOL    HW179834   7.053   8.412   8.880  0.0411 -1.3905 -0.2185
25306SOL    HW279835   6.916   8.365   8.925 -0.1726 -1.0037 -0.4590
25307SOL     OW79836   3.822   0.003   4.109  0.4853 -0.0805 -0.6595
25307SOL    HW179837   3.858   0.074   4.162  1.7174 -0.7503 -0.5576
25307SOL    HW279838   3.743  -0.024   4.156  0.7556  0.3099  0.0362
25308SOL     OW79839   2.070   7.605  10.085  0.2685  0.2778  0.1072
25308SOL    HW179840   2.032   7.547  10.152 -0.6373  1.9787  1.1237
25308SOL    HW279841   2.011   7.596  10.010  0.7636 -0.9290 -0.1632
25309SOL     OW79842   2.886   7.799   7.797 -0.1535 -0.1824 -0.1239
25309SOL    HW179843   2.947   7.871   7.809  0.2255 -0.4244 -0.5809
25309SOL    HW279844   2.800   7.836   7.816 -0.3218  1.1418 -2.9914
25310SOL     OW79845   6.851   1.000   0.080 -0.3075  0.3303 -0.0351
25310SOL    HW179846   6.789   0.972   0.012 -2.7503  3.1256  0.7922
25310SOL    HW279847   6.913   1.056   0.034  1.5366 -2.1600 -0.7982
25311SOL     OW79848   4.310   2.294   0.334  0.0161  0.0871 -0.2295
25311SOL    HW179849   4.242   2.342   0.382 -1.1015 -0.8584 -0.8331
25311SOL    HW279850   4.364   2.363   0.296  0.2456  0.8671  1.3959
25312SOL     OW79851   3.060   2.245   6.233 -0.0431  0.0353 -0.4890
25312SOL    HW179852   2.977   2.261   6.277  0.6690  2.0388  0.2707
25312SOL    HW279853   3.090   2.161   6.267 -0.5905  0.4719  1.1327
25313SOL     OW79854   7.490   0.491   6.288 -0.0062  0.3622  0.1078
25313SOL    HW179855   7.582   0.494   6.260  0.4929 -0.6353  1.5364
25313SOL    HW279856   7.459   0.581   6.277  0.3535  0.2430 -2.7486
25314SOL     OW79857   7.993   7.304   6.153  0.1402 -0.7246 -0.0096
25314SOL    HW179858   7.932   7.366   6.113  0.3849 -0.3498  0.1827
25314SOL    HW279859   7.972   7.306   6.246  1.7547  0.9799  0.3942
25315SOL     OW79860   9.580   9.441   5.201 -0.1297 -0.1858  0.1355
25315SOL    HW179861   9.613   9.529   5.185  0.4467 -0.7212 -1.8494
25315SOL    HW279862   9.643   9.403   5.262  0.0679  0.5005  0.3697
25316SOL     OW79863   9.158   6.501   8.728  0.1820  0.2585 -0.1715
25316SOL    HW179864   9.122   6.529   8.813  0.0399  0.4601 -0.2968
25316SOL    HW279865   9.180   6.409   8.740  0.3702  0.3445  0.1565
25317SOL     OW79866   2.732   8.308   8.909  0.1478 -0.0833  0.0936
25317SOL    HW179867   2.767   8.240   8.852 -0.7582  0.0283 -0.6121
25317SOL    HW279868   2.771   8.389   8.876  1.4144 -0.2544  1.0814
25318SOL     OW79869   9.646   5.445   2.796 -0.3905 -0.5549 -0.2802
25318SOL    HW179870   9.563   5.463   2.840 -0.3835 -1.5278  0.1561
25318SOL    HW279871   9.665   5.525   2.747 -0.5848  0.4228  1.1739
25319SOL     OW79872   1.329   2.349   5.457 -0.3567  0.4238 -0.1886
25319SOL    HW179873   1.350   2.362   5.550  0.6086 -0.7820 -0.2021
25319SOL    HW279874   1.376   2.419   5.412  0.3463  0.1630  0.1260
25320SOL     OW79875   4.328   9.186   1.584 -0.0832 -0.2912  0.1477
25320SOL    HW179876   4.341   9.161   1.492  0.2621 -0.6429  0.2882
25320SOL    HW279877   4.255   9.130   1.613  0.1213 -0.5213  0.2202
25321SOL     OW79878   1.096   0.422   2.656  0.6197 -0.1662  0.5054
25321SOL    HW179879   1.171   0.403   2.600  0.1046 -1.8531  0.3206
25321SOL    HW279880   1.134   0.464   2.733  1.3891  1.7081 -0.8413
25322SOL     OW79881   2.307   6.276   2.924 -0.4332 -0.1529 -0.5573
25322SOL    HW179882   2.260   6.331   2.986 -0.6827 -0.4846 -0.4528
25322SOL    HW279883   2.318   6.331   2.846 -0.7498  0.0173 -0.4806
25323SOL     OW79884   2.862   3.270   8.972 -0.2115 -0.3540  0.0533
25323SOL    HW179885   2.775   3.301   8.945 -0.6197 -1.3376  0.2107
25323SOL    HW279886   2.847   3.229   9.057  0.5788  0.2881  0.5206
25324SOL     OW79887   8.240   0.925   8.340 -0.0015  0.0074  0.2651
25324SOL    HW179888   8.168   0.926   8.277  0.9764  0.1724 -0.8808
25324SOL    HW279889   8.218   0.853   8.400 -0.1888 -1.1816 -1.1739
25325SOL     OW79890   6.802   3.562   8.829  0.2565 -0.7991  0.3244
25325SOL    HW179891   6.716   3.531   8.800 -0.0028  0.0571  0.1675
25325SOL    HW279892   6.865   3.512   8.776 -0.1801 -0.3268 -0.6535
25326SOL     OW79893   5.356   1.980   0.865  0.2369  0.1551 -0.1542
25326SOL    HW179894   5.337   2.028   0.784 -0.0091 -0.8701 -0.7149
25326SOL    HW279895   5.451   1.984   0.873  0.3641 -0.6163 -1.0620
25327SOL     OW79896   0.526   6.706   6.630  0.2152  0.1212  0.3133
25327SOL    HW179897   0.619   6.684   6.623  0.0019 -0.2729 -1.8844
25327SOL    HW279898   0.482   6.621   6.636 -0.0606  0.2821  0.6159
25328SOL     OW79899   8.143   6.385   0.410 -0.3913 -0.3340 -0.3161
25328SOL    HW179900   8.168   6.455   0.350 -2.7475 -1.3697 -2.7089
25328SOL    HW279901   8.080   6.426   0.470 -1.5285 -0.2467 -1.5174
25329SOL     OW79902   6.733   2.606   0.332 -0.5726  0.8619 -0.2676
25329SOL    HW179903   6.788   2.608   0.411 -1.2589  1.7626  0.2038
25329SOL    HW279904   6.794   2.619   0.260  0.0903 -0.1319  0.0862
25330SOL     OW79905   2.058   5.948   0.863 -0.6282  0.2655 -0.7410
25330SOL    HW179906   2.125   5.978   0.924 -0.6463  0.0720 -0.6244
25330SOL    HW279907   2.083   5.858   0.842 -0.7804  0.2348 -0.7927
25331SOL     OW79908   4.475   5.729   2.442 -0.5328  0.2836 -0.0248
25331SOL    HW179909   4.518   5.720   2.527 -0.0833  0.2097 -0.2599
25331SOL    HW279910   4.381   5.723   2.462 -0.4396  0.4746  0.4908
25332SOL     OW79911   5.928   6.500   5.924  0.7576 -0.0795  0.0369
25332SOL    HW179912   5.989   6.432   5.895 -1.6543 -1.6616 -1.6352
25332SOL    HW279913   5.841   6.461   5.915 -0.6318  2.4272  1.3290
25333SOL     OW79914   0.377   4.784   6.513  0.0253 -0.1756  0.0935
25333SOL    HW179915   0.329   4.712   6.554  0.0048  0.7471  1.7827
25333SOL    HW279916   0.447   4.804   6.574  0.8575  0.3704 -0.9987
25334SOL     OW79917   9.209   4.941   7.435 -0.7764  0.0024  0.2154
25334SOL    HW179918   9.221   5.023   7.386 -0.7075 -0.4932 -0.6026
25334SOL    HW279919   9.298   4.913   7.457 -0.7653 -0.2301 -0.1296
25335SOL     OW79920   2.114   2.738   2.909 -0.5037 -0.1575 -0.2020
25335SOL    HW179921   2.029   2.771   2.938 -1.7600 -2.1499 -1.4220
25335SOL    HW279922   2.166   2.735   2.990 -1.9345  0.0708  0.7772
25336SOL     OW79923   0.106   9.899   2.391  0.4911 -0.2234 -0.1596
25336SOL    HW179924   0.030   9.954   2.408  2.1590  2.5561 -1.1218
25336SOL    HW279925   0.097   9.872   2.300 -0.4436 -1.8800  0.3740
25337SOL     OW79926   4.051   6.340   3.501  0.1012  0.0515  0.5943
25337SOL    HW179927   3.996   6.267   3.473 -0.1672  0.8332 -1.0654
25337SOL    HW279928   3.988   6.411   3.518  0.5287  0.7442 -0.6302
25338SOL     OW79929   9.201   3.776   5.443  0.4716  0.0289  0.2961
25338SOL    HW179930   9.251   3.857   5.442 -1.8613  1.5498 -0.7982
25338SOL    HW279931   9.163   3.771   5.531  0.2880  0.3509  0.2350
25339SOL     OW79932   6.951   4.730   3.854  0.0395  0.0340  0.1870
25339SOL    HW179933   6.915   4.798   3.797 -0.6600 -0.9315 -0.5857
25339SOL    HW279934   6.874   4.685   3.888  0.4784  0.0443  1.2148
25340SOL     OW79935   2.611   2.071   3.945 -0.2610 -0.2777  0.2862
25340SOL    HW179936   2.539   2.127   3.974 -1.9443 -1.2978 -1.7063
25340SOL    HW279937   2.574   2.017   3.875  2.2582 -1.3735 -0.3290
25341SOL     OW79938   1.249   6.973   6.650  0.1552  0.2673  0.5972
25341SOL    HW179939   1.233   7.066   6.666  0.2189  0.5273 -0.7434
25341SOL    HW279940   1.196   6.952   6.573  2.6946  0.0632 -1.2322
25342SOL     OW79941   0.215   0.763   2.100  0.4977 -0.5491 -0.5992
25342SOL    HW179942   0.221   0.758   2.196 -0.6270 -1.3895 -0.5518
25342SOL    HW279943   0.247   0.851   2.079  0.0621 -0.0662  0.6227
25343SOL     OW79944   5.337   8.787   1.630 -0.2912 -0.2601 -0.1384
25343SOL    HW179945   5.341   8.700   1.669 -0.1857 -0.8272 -1.3674
25343SOL    HW279946   5.249   8.791   1.591 -0.0546 -0.0807 -0.6610
25344SOL     OW79947   8.034   0.433   8.797 -1.0286  0.5163  0.0375
25344SOL    HW179948   8.081   0.363   8.843  1.0081  1.6099 -0.2439
25344SOL    HW279949   8.031   0.505   8.860  0.9310  1.6878 -1.0798
25345SOL     OW79950   8.812   4.904   9.261  0.6679  0.0776 -0.2518
25345SOL    HW179951   8.878   4.949   9.314  0.1608 -1.0467  1.4405
25345SOL    HW279952   8.736   4.963   9.264  0.4969 -0.1647  0.6949
25346SOL     OW79953   7.455   1.017   2.879  0.1424  0.7571 -0.2258
25346SOL    HW179954   7.545   1.027   2.912 -0.1685 -0.4398  1.0967
25346SOL    HW279955   7.415   1.103   2.895  1.0390  1.3089 -0.8438
25347SOL     OW79956   3.423   6.511   7.851 -0.4209 -0.4770 -0.1794
25347SOL    HW179957   3.471   6.464   7.919  0.4312  0.1965 -0.2949
25347SOL    HW279958   3.473   6.494   7.771  1.5596  2.7727  0.1903
25348SOL     OW79959   7.534   3.962   0.962  0.1920 -0.5955 -0.3646
25348SOL    HW179960   7.506   3.949   1.053 -0.3958 -0.8695 -0.5760
25348SOL    HW279961   7.571   3.878   0.936  2.7149  0.1952  0.3930
25349SOL     OW79962   8.105   6.486   2.264  0.4080 -0.0240 -0.7552
25349SOL    HW179963   8.098   6.391   2.256 -1.6977  0.0148 -0.0796
25349SOL    HW279964   8.198   6.504   2.250  1.0813 -2.2925  0.2089
25350SOL     OW79965   7.660   7.338   0.353 -0.8550  0.0580  0.8925
25350SOL    HW179966   7.684   7.347   0.445 -1.8264  0.5090  1.1140
25350SOL    HW279967   7.585   7.280   0.353 -0.3582 -0.6024  0.2935
25351SOL     OW79968   2.575   3.908   7.196 -0.3463 -0.7360  0.1927
25351SOL    HW179969   2.488   3.878   7.220 -0.0593 -1.1370  0.7760
25351SOL    HW279970   2.612   3.941   7.278 -0.3632  0.4785 -0.2743
25352SOL     OW79971   9.187   1.034   3.736  0.1109 -0.0053 -0.1578
25352SOL    HW179972   9.218   1.003   3.821  0.6269  0.6748 -0.0912
25352SOL    HW279973   9.099   1.068   3.755 -0.2845 -0.9937 -0.1497
25353SOL     OW79974   5.703   5.530   9.977 -0.2452  0.0033 -0.8844
25353SOL    HW179975   5.723   5.515   9.885  0.6479  0.0321 -0.7053
25353SOL    HW279976   5.607   5.531   9.981 -0.2975  0.8522 -1.9464
25354SOL     OW79977   5.666   5.306   7.316  0.2919  0.1741  0.4920
25354SOL    HW179978   5.724   5.366   7.270 -0.0428 -0.1630 -0.3767
25354SOL    HW279979   5.607   5.364   7.366 -0.0768  0.5824 -0.3941
25355SOL     OW79980   0.477   3.791   5.271  0.1773 -0.5277 -0.1404
25355SOL    HW179981   0.427   3.802   5.190  0.5337 -3.0120 -0.8049
25355SOL    HW279982   0.568   3.782   5.242  0.5706  0.4774  0.7308
25356SOL     OW79983   7.765   0.921   5.025 -0.1549  0.1309 -0.4389
25356SOL    HW179984   7.672   0.898   5.023 -0.5338  1.5014  0.0795
25356SOL    HW279985   7.772   0.997   4.968  0.8575 -0.5759 -1.2974
25357SOL     OW79986   7.235   2.761   6.069 -0.4298  0.3225 -0.0074
25357SOL    HW179987   7.150   2.800   6.090  0.0163  0.1597  2.4205
25357SOL    HW279988   7.297   2.804   6.128  0.9225 -0.6178 -0.6709
25358SOL     OW79989   1.880   1.850   0.814 -0.4001 -0.5002 -0.0926
25358SOL    HW179990   1.808   1.826   0.872 -0.9751  1.8715  0.2956
25358SOL    HW279991   1.888   1.945   0.824  3.0951 -0.7084  0.2243
25359SOL     OW79992   6.420   9.421   8.019  0.3207 -0.1778  0.6268
25359SOL    HW179993   6.507   9.387   7.999 -0.2124  0.5909 -4.2065
25359SOL    HW279994   6.362   9.346   8.007  0.0849 -0.2071  1.8206
25360SOL     OW79995   2.767   7.348   8.732 -0.0736 -0.3861  0.4955
25360SOL    HW179996   2.685   7.301   8.745 -0.3261  0.1788  0.9880
25360SOL    HW279997   2.750   7.436   8.766  0.0601  0.3900 -1.3461
25361SOL     OW79998  10.198   7.926   0.437  0.9067  0.0372  0.3790
25361SOL    HW179999  10.235   7.843   0.467  1.0159  0.4161  1.3437
25361SOL    HW280000  10.167   7.969   0.517 -0.7326  0.1720 -0.2948
25362SOL     OW80001   9.423   0.728   7.568  0.2650  0.4639 -0.3248
25362SOL    HW180002   9.431   0.781   7.648  2.1705 -0.4470  0.1432
25362SOL    HW280003   9.389   0.644   7.599 -1.0086  0.7700 -0.8120
25363SOL     OW80004   2.458   9.500   0.861 -0.4778 -0.7340 -0.3094
25363SOL    HW180005   2.491   9.519   0.773  1.2902 -0.5912  0.3441
25363SOL    HW280006   2.432   9.585   0.896 -1.3391 -0.8133 -0.7456
25364SOL     OW80007   6.107   2.112   7.667  0.4237  0.4292  0.3450
25364SOL    HW180008   6.104   2.019   7.646 -0.5767  0.5147  0.0651
25364SOL    HW280009   6.165   2.149   7.600  0.6705  0.0399  0.3405
25365SOL     OW80010   0.676   9.802   0.339 -0.7058  0.1791 -0.4244
25365SOL    HW180011   0.724   9.884   0.336 -0.0101 -0.1406  0.9226
25365SOL    HW280012   0.650   9.793   0.431 -4.0665  0.7139 -1.1910
25366SOL     OW80013   7.853   8.707   8.357 -0.2456  0.6061 -0.3036
25366SOL    HW180014   7.871   8.614   8.342  0.3843  0.7954 -0.7609
25366SOL    HW280015   7.933   8.740   8.399  0.3067  1.3411 -1.8384
25367SOL     OW80016   4.465   8.278   9.908  0.2842  0.3557 -0.5293
25367SOL    HW180017   4.520   8.202   9.888  0.7715  0.3684  0.6623
25367SOL    HW280018   4.514   8.325   9.975 -0.3360  1.3678 -0.7694
25368SOL     OW80019   1.777   7.928   7.427  0.7323 -0.1190 -0.4146
25368SOL    HW180020   1.723   7.987   7.480 -0.3375 -1.3276 -0.1040
25368SOL    HW280021   1.862   7.928   7.472 -0.1673 -1.1773  1.4241
25369SOL     OW80022   3.099   3.981   0.637 -0.3544 -0.2619 -0.1425
25369SOL    HW180023   3.045   3.913   0.678  1.1031 -0.2501  1.9613
25369SOL    HW280024   3.088   3.967   0.543 -1.1393 -2.5479  0.2294
25370SOL     OW80025   1.411   8.088   6.695  0.1170  0.1951  0.0639
25370SOL    HW180026   1.386   8.064   6.606 -0.5884 -2.0092  0.7930
25370SOL    HW280027   1.348   8.157   6.719  0.0554  0.5217 -0.9671
25371SOL     OW80028   9.707  10.027   0.379  0.0225  0.1219 -0.7247
25371SOL    HW180029   9.756  10.050   0.300 -2.4304 -0.4788 -2.5450
25371SOL    HW280030   9.627  10.079   0.374 -1.0111 -1.2554  0.4002
25372SOL     OW80031   7.111   8.787   6.908  0.1297 -0.0851 -0.0986
25372SOL    HW180032   7.201   8.816   6.923  0.6687 -0.7422 -1.8297
25372SOL    HW280033   7.106   8.702   6.952 -0.4871  1.0620  2.2250
25373SOL     OW80034   3.221   7.568   2.366 -0.0610 -0.0258 -0.4069
25373SOL    HW180035   3.193   7.501   2.428 -0.3898 -0.8725 -1.4370
25373SOL    HW280036   3.159   7.640   2.377 -0.4407 -0.3968 -0.1414
25374SOL     OW80037   2.429   8.093   3.743 -0.2616 -0.1892 -0.1826
25374SOL    HW180038   2.401   8.169   3.692 -0.8153  0.1591  0.6273
25374SOL    HW280039   2.517   8.115   3.773 -0.6261  0.3720  0.4983
25375SOL     OW80040   6.698   2.568   1.868 -0.2698  0.0477  0.1599
25375SOL    HW180041   6.715   2.662   1.868 -1.4300  0.2775  0.3021
25375SOL    HW280042   6.680   2.547   1.959  1.0694 -0.5448  0.3069
25376SOL     OW80043   2.881   7.523   7.309 -0.1879 -0.2591 -0.8069
25376SOL    HW180044   2.860   7.431   7.322 -0.0530 -0.1293  0.4394
25376SOL    HW280045   2.946   7.543   7.375 -0.0380  0.6802 -1.2152
25377SOL     OW80046   6.315   1.876   7.916 -0.3940 -0.0174 -0.1783
25377SOL    HW180047   6.374   1.818   7.868 -1.1550 -0.5596 -0.4790
25377SOL    HW280048   6.365   1.902   7.993  1.5668  2.3748 -2.1150
25378SOL     OW80049   6.718   2.704  10.057 -0.1902  0.4063  0.3063
25378SOL    HW180050   6.746   2.641   9.990  0.0744  2.1656 -1.3409
25378SOL    HW280051   6.628   2.724  10.034 -1.1522 -1.1634  2.3430
25379SOL     OW80052   0.494   5.524   3.922  0.3309  0.5056  0.3449
25379SOL    HW180053   0.512   5.612   3.887 -0.5989  0.2555 -0.8281
25379SOL    HW280054   0.559   5.512   3.991 -0.2328  2.5433  1.2869
25380SOL     OW80055   6.842   6.693   8.519  0.7162  0.0731  0.0710
25380SOL    HW180056   6.916   6.710   8.460  1.7627 -1.3093  0.9280
25380SOL    HW280057   6.765   6.692   8.461  1.6967 -1.0948 -1.2804
25381SOL     OW80058   9.870   5.599   6.826 -0.4389 -0.1836  0.1301
25381SOL    HW180059   9.867   5.504   6.811 -1.5230 -0.5419  2.3220
25381SOL    HW280060   9.953   5.626   6.787 -0.1041 -2.0245 -0.5546
25382SOL     OW80061   4.024   4.577   7.896  0.4447  0.2094 -0.0954
25382SOL    HW180062   3.983   4.615   7.974 -0.8529 -0.6622 -0.3071
25382SOL    HW280063   3.976   4.616   7.823  0.0721 -0.6906 -0.3539
25383SOL     OW80064   6.941   9.220   3.270 -0.4522 -0.2086 -0.4625
25383SOL    HW180065   6.853   9.214   3.233 -0.0238  1.6012 -1.9452
25383SOL    HW280066   6.993   9.159   3.217 -0.1869  1.1512 -1.8445
25384SOL     OW80067   2.026   7.067   2.920  0.0781  0.2602 -0.4850
25384SOL    HW180068   1.993   6.997   2.864  0.9254  0.8428 -1.7389
25384SOL    HW280069   2.040   7.141   2.861 -0.0166  1.2352  0.6758
25385SOL     OW80070   0.205   6.674   0.872  0.4989  0.6990  0.6694
25385SOL    HW180071   0.146   6.749   0.861  0.3344  0.7237  1.5857
25385SOL    HW280072   0.233   6.680   0.964  0.9775 -0.0052  0.5741
25386SOL     OW80073   4.625   3.571   4.818  1.1264  0.2920 -0.2522
25386SOL    HW180074   4.534   3.540   4.819  0.3320  2.2080 -2.8678
25386SOL    HW280075   4.671   3.509   4.762  1.4068 -0.5333  0.8665
25387SOL     OW80076   0.754   9.495   5.458 -0.2303 -0.3518  0.3358
25387SOL    HW180077   0.805   9.416   5.441  0.9224  0.9284 -2.9620
25387SOL    HW280078   0.814   9.567   5.437 -2.1769  1.3209  0.1923
25388SOL     OW80079   2.255   9.207   7.455 -0.1766  0.1567  0.0197
25388SOL    HW180080   2.344   9.214   7.421 -0.5183 -0.8716 -1.1450
25388SOL    HW280081   2.246   9.116   7.482 -0.4615  0.5655  1.3830
25389SOL     OW80082   8.497   0.710   0.863 -0.4414 -0.7225  0.0885
25389SOL    HW180083   8.536   0.774   0.923 -1.7061  1.2586 -1.1219
25389SOL    HW280084   8.573   0.667   0.822  0.4438  0.2970  0.6078
25390SOL     OW80085   7.281   0.605   6.128  0.1789 -0.3165 -0.3565
25390SOL    HW180086   7.285   0.701   6.137 -0.5759 -0.4725  2.5273
25390SOL    HW280087   7.369   0.580   6.098  0.8397  1.1553  0.2475
25391SOL     OW80088   3.332   6.166   7.851 -0.1704  0.7197 -0.4426
25391SOL    HW180089   3.289   6.138   7.932  0.5776 -3.0892 -1.1568
25391SOL    HW280090   3.279   6.127   7.782  0.8451  1.4028 -1.6339
25392SOL     OW80091   6.189   9.370   4.947 -0.5327  0.0020 -0.3481
25392SOL    HW180092   6.204   9.441   5.009 -1.9882  1.6852 -1.8249
25392SOL    HW280093   6.160   9.296   5.001 -0.4115  0.9603  1.0725
25393SOL     OW80094   5.597   3.280   5.851 -0.3017 -0.1945 -0.3556
25393SOL    HW180095   5.633   3.286   5.940 -2.8857 -1.4920  0.9029
25393SOL    HW280096   5.623   3.193   5.820 -0.4448 -0.2377 -0.3561
25394SOL     OW80097   0.653   4.446   4.082 -0.0038  0.3113  0.0844
25394SOL    HW180098   0.622   4.414   4.166 -1.4890 -1.4051 -1.0475
25394SOL    HW280099   0.581   4.498   4.047 -0.2806 -0.7890 -1.0435
25395SOL     OW80100   8.838   9.652   4.229  0.0865 -0.1229  0.0364
25395SOL    HW180101   8.758   9.695   4.260 -0.3730 -0.6284 -0.4413
25395SOL    HW280102   8.906   9.685   4.287 -0.8216 -1.4254  1.9430
25396SOL     OW80103   3.874   4.096   4.133 -0.6048  0.4239 -0.1619
25396SOL    HW180104   3.904   4.176   4.090 -1.2919  1.3517  1.0490
25396SOL    HW280105   3.868   4.118   4.226 -0.4613 -1.1442  0.2532
25397SOL     OW80106   9.118   7.246   7.753 -0.4326  0.3288  0.5050
25397SOL    HW180107   9.166   7.312   7.803  1.1068 -0.3471 -0.0104
25397SOL    HW280108   9.027   7.259   7.776 -0.0030  1.6856  1.5190
25398SOL     OW80109   5.267   4.319   5.784  0.4561 -0.4049  0.3089
25398SOL    HW180110   5.307   4.376   5.851  0.6693  0.3358 -0.4265
25398SOL    HW280111   5.231   4.246   5.833 -0.1109  0.5233  1.3284
25399SOL     OW80112   2.711   2.467   6.133  0.0621  0.2653  0.1385
25399SOL    HW180113   2.726   2.376   6.108 -1.7835  0.0575 -0.3549
25399SOL    HW280114   2.794   2.496   6.171  0.4744 -1.8070  0.9119
25400SOL     OW80115   6.070   9.298   9.758  0.4046  0.1014 -0.2064
25400SOL    HW180116   6.159   9.321   9.786  0.5376 -0.3343 -0.2695
25400SOL    HW280117   6.023   9.281   9.840 -0.3390  2.8097  0.0220
25401SOL     OW80118   7.498   5.866   2.943  0.1135  0.3060 -0.4694
25401SOL    HW180119   7.425   5.828   2.992 -0.2770 -0.7784 -1.8277
25401SOL    HW280120   7.567   5.801   2.949 -0.1770 -0.1657 -1.8967
25402SOL     OW80121   3.032   5.553   2.751  0.4090  0.2333  0.8124
25402SOL    HW180122   3.123   5.565   2.726  0.2297  0.4363  0.2345
25402SOL    HW280123   2.987   5.629   2.714  0.0778  0.3730  1.4822
25403SOL     OW80124   4.263   2.370   9.764 -0.1969 -0.9894 -0.0901
25403SOL    HW180125   4.328   2.386   9.695 -0.3579  0.0602 -0.0191
25403SOL    HW280126   4.295   2.421   9.838 -1.6166  0.4004 -0.3771
25404SOL     OW80127   6.811   8.082   0.755 -0.5111 -0.7013 -0.4594
25404SOL    HW180128   6.902   8.098   0.778 -1.3788  0.9916  2.2706
25404SOL    HW280129   6.778   8.167   0.727 -1.6759 -0.8630  0.3560
25405SOL     OW80130  10.198   7.327  10.099  0.1804  0.0892  0.1788
25405SOL    HW180131  10.165   7.331  10.010  0.7543 -2.5387 -0.2493
25405SOL    HW280132  10.119   7.323  10.154 -0.4150 -3.4698 -0.6551
25406SOL     OW80133   2.948   8.952   7.262  0.1159 -0.5817  0.3863
25406SOL    HW180134   2.934   8.858   7.252  1.5159 -0.7382 -0.2776
25406SOL    HW280135   2.949   8.986   7.173 -2.5073  0.4501  0.6607
25407SOL     OW80136   3.277   8.711   1.776 -0.1121 -0.1800  0.1021
25407SOL    HW180137   3.262   8.638   1.716 -0.1249 -0.6626  0.6756
25407SOL    HW280138   3.220   8.691   1.851 -0.1836  0.4683  0.2207
25408SOL     OW80139   5.304   8.409   6.366  0.2639  0.0300 -0.4402
25408SOL    HW180140   5.284   8.354   6.442  4.1728 -0.0544  0.7296
25408SOL    HW280141   5.274   8.496   6.390  0.8233 -0.1377  0.9544
25409SOL     OW80142   6.378   4.487   0.718  0.4670 -0.2111  0.8001
25409SOL    HW180143   6.395   4.393   0.711 -1.6905 -0.5387 -1.2720
25409SOL    HW280144   6.308   4.504   0.655 -0.5031  2.4734  2.4221
25410SOL     OW80145   0.387   1.314   6.492 -0.3676  0.7172 -0.8285
25410SOL    HW180146   0.325   1.370   6.446 -0.0451  1.8244  0.0528
25410SOL    HW280147   0.469   1.326   6.445 -0.5964 -0.0647 -1.4519
25411SOL     OW80148   3.567   7.209   3.112 -0.9241  0.2551  0.0625
25411SOL    HW180149   3.620   7.132   3.094 -0.8931  0.3482 -0.2614
25411SOL    HW280150   3.484   7.174   3.144 -0.9540  0.0814 -0.1992
25412SOL     OW80151   6.840   6.494   0.595  0.5455 -0.3165 -0.2586
25412SOL    HW180152   6.785   6.489   0.674  1.0788  0.0613  0.1483
25412SOL    HW280153   6.887   6.577   0.605  0.5401 -0.2196 -1.0309
25413SOL     OW80154   8.359   7.381   1.556 -0.2828  0.8221 -0.0096
25413SOL    HW180155   8.423   7.324   1.514 -1.9431 -0.3529 -1.0952
25413SOL    HW280156   8.329   7.440   1.486 -1.9497 -0.1233 -0.1560
25414SOL     OW80157  10.154   0.433   9.547  0.4392 -0.5623  0.2264
25414SOL    HW180158  10.092   0.462   9.481 -0.7346  1.7834  2.2026
25414SOL    HW280159  10.143   0.338   9.550  0.7122 -0.8118 -2.9890
25415SOL     OW80160   8.138   2.702   2.799 -0.4040 -0.4271 -0.3024
25415SOL    HW180161   8.066   2.737   2.748 -2.1793 -4.0638 -0.6634
25415SOL    HW280162   8.142   2.757   2.877 -1.6659  1.5606 -1.5737
25416SOL     OW80163   0.129   8.432   5.258 -0.4322 -0.6957 -0.1334
25416SOL    HW180164   0.156   8.344   5.232  0.2126 -0.6870  0.4681
25416SOL    HW280165   0.138   8.484   5.179 -0.1248 -1.0207 -0.3185
25417SOL     OW80166   7.494   1.021   7.429 -0.0576  0.5640 -0.0102
25417SOL    HW180167   7.574   1.061   7.462 -0.0688  1.4840 -1.0263
25417SOL    HW280168   7.520   0.934   7.399  0.5289  0.7820 -0.1438
25418SOL     OW80169   5.485   1.380   3.960 -0.5089  0.1203 -0.1507
25418SOL    HW180170   5.501   1.295   3.919 -0.9434 -0.2428  0.4217
25418SOL    HW280171   5.545   1.382   4.035  0.6301  0.9824 -1.0426
25419SOL     OW80172   8.257   2.217   3.149 -0.3343 -0.0724  0.1956
25419SOL    HW180173   8.264   2.125   3.175  1.6608 -0.0277  0.0032
25419SOL    HW280174   8.348   2.248   3.150 -0.6026  1.0605 -2.7812
25420SOL     OW80175   8.369   7.810   5.740 -0.0597 -0.5743 -0.1854
25420SOL    HW180176   8.292   7.788   5.687 -0.0636 -1.7409  0.2730
25420SOL    HW280177   8.388   7.901   5.718 -1.2468 -0.4330 -0.7098
25421SOL     OW80178   0.252   4.949   9.278  0.3113  0.3381  0.1244
25421SOL    HW180179   0.295   4.907   9.353  0.9543 -0.9683 -0.9359
25421SOL    HW280180   0.281   5.040   9.281  2.3887 -0.2700  0.0274
25422SOL     OW80181   2.102   1.186   0.745  0.7466  0.2374 -0.3963
25422SOL    HW180182   2.173   1.124   0.763  0.0695 -0.5050 -0.2358
25422SOL    HW280183   2.023   1.142   0.777 -0.0563  0.2367 -2.2665
25423SOL     OW80184   9.259   2.729   5.662  0.2154 -0.0980  0.1978
25423SOL    HW180185   9.217   2.804   5.620 -1.3517 -0.6843  0.6243
25423SOL    HW280186   9.314   2.691   5.593  0.5381  1.0525 -0.2052
25424SOL     OW80187   2.896   0.819   8.135  0.7344  0.4211  0.0762
25424SOL    HW180188   2.977   0.844   8.178  0.2840  1.1840  0.5105
25424SOL    HW280189   2.829   0.829   8.202  0.5848 -2.7877  0.5540
25425SOL     OW80190   7.543   6.090   4.106  0.3119 -0.2897  0.1637
25425SOL    HW180191   7.527   5.997   4.120  1.6515 -0.3519  1.5252
25425SOL    HW280192   7.572   6.123   4.191 -1.6277  1.7401  0.1272
25426SOL     OW80193   5.425   5.088   1.936  0.0745  0.1773 -0.9744
25426SOL    HW180194   5.420   4.996   1.964  2.0576  0.9056  2.3227
25426SOL    HW280195   5.426   5.084   1.841  0.5892 -3.2647 -0.9537
25427SOL     OW80196   0.162   1.023   1.122 -0.3881 -0.1494  0.1121
25427SOL    HW180197   0.073   1.056   1.132 -0.9720 -1.6265  0.0269
25427SOL    HW280198   0.181   0.978   1.204  0.7553  1.1614  0.6043
25428SOL     OW80199   6.094   7.342   2.036  0.1328  0.4716 -0.2872
25428SOL    HW180200   6.091   7.322   1.942  0.2689 -1.7503  0.1222
25428SOL    HW280201   6.029   7.411   2.048  0.2738  0.9679 -2.0258
25429SOL     OW80202   7.794   8.608   5.043 -0.4593 -0.0482  0.5279
25429SOL    HW180203   7.854   8.539   5.074  0.7068  0.6410 -0.1058
25429SOL    HW280204   7.764   8.576   4.958  0.9049  0.6513 -0.2567
25430SOL     OW80205   9.973   7.358   8.022 -0.3565 -0.6076  0.3863
25430SOL    HW180206   9.966   7.285   7.962  0.1724 -0.2312 -0.1470
25430SOL    HW280207   9.898   7.414   8.001  0.1907 -0.1459 -0.3949
25431SOL     OW80208   9.931   1.538   7.722 -0.0462 -0.6166 -0.2188
25431SOL    HW180209   9.983   1.529   7.802  0.3999 -2.4285 -0.6834
25431SOL    HW280210   9.962   1.620   7.683 -0.2837  0.3188  1.4347
25432SOL     OW80211   7.148   1.347   2.724  0.2266 -0.2503  0.3530
25432SOL    HW180212   7.068   1.361   2.673  0.6031 -0.4404 -0.3051
25432SOL    HW280213   7.180   1.262   2.695  1.6951  0.6542 -0.8304
25433SOL     OW80214   2.611   3.800   2.264 -0.0902  0.3052 -0.3239
25433SOL    HW180215   2.515   3.795   2.268 -0.0455 -0.2019  0.2438
25433SOL    HW280216   2.634   3.746   2.189 -0.1576 -1.0204  0.5719
25434SOL     OW80217   4.007   8.203   7.046  0.0685  0.0362 -0.3121
25434SOL    HW180218   4.101   8.219   7.032 -0.1207  0.1495 -1.5322
25434SOL    HW280219   3.983   8.141   6.978 -0.9009  0.5399 -0.4427
25435SOL     OW80220   2.495   2.278   3.607  0.5906  0.1847 -0.2982
25435SOL    HW180221   2.454   2.261   3.522  0.7309 -0.7960 -0.1848
25435SOL    HW280222   2.586   2.251   3.595  1.1051  1.8237 -0.3868
25436SOL     OW80223   0.910   6.344   7.309  0.7142 -0.0852 -0.1937
25436SOL    HW180224   0.914   6.250   7.293  1.0521 -0.2232  0.6597
25436SOL    HW280225   0.994   6.377   7.276 -0.1442  0.2144 -2.2207
25437SOL     OW80226   2.472   1.282   2.498  0.5550  0.1490 -0.1592
25437SOL    HW180227   2.531   1.357   2.488  0.4817  0.2053 -0.1643
25437SOL    HW280228   2.463   1.270   2.592  1.5299 -0.6041 -0.1392
25438SOL     OW80229   1.665   5.501   2.965 -0.1324  0.0182  0.2806
25438SOL    HW180230   1.603   5.495   3.038 -0.3644 -0.1565  0.0664
25438SOL    HW280231   1.727   5.569   2.993 -0.3339  0.0908  0.5576
25439SOL     OW80232   1.171   7.400   4.859  0.2169 -0.5605  0.0910
25439SOL    HW180233   1.258   7.386   4.822 -0.4408 -3.6666 -0.6081
25439SOL    HW280234   1.176   7.364   4.948 -0.4999 -1.3942 -0.1921
25440SOL     OW80235   1.456   8.395   9.072 -0.2300  0.3428  0.0449
25440SOL    HW180236   1.384   8.349   9.115 -0.4894  0.5383 -0.1748
25440SOL    HW280237   1.438   8.385   8.978  0.9438 -1.0710 -0.0705
25441SOL     OW80238   8.011   1.997   5.365 -0.4043  0.2604  0.5008
25441SOL    HW180239   8.037   1.975   5.275 -0.5486  2.4473 -0.1419
25441SOL    HW280240   8.057   1.933   5.420 -0.4964 -1.2820 -1.1144
25442SOL     OW80241   1.606   4.050   7.500 -0.1095  1.0245 -0.0631
25442SOL    HW180242   1.563   3.976   7.456 -0.6526  1.4577 -0.2766
25442SOL    HW280243   1.546   4.123   7.486  1.5001  2.0780 -1.8479
25443SOL     OW80244   1.546   3.372   4.004  0.0896  0.2453 -0.2289
25443SOL    HW180245   1.618   3.361   3.942  2.3445 -0.9096  2.3614
25443SOL    HW280246   1.555   3.462   4.036  0.9063 -0.0996  0.5825
25444SOL     OW80247   9.109  10.034   4.854 -0.0018 -0.5148 -0.1962
25444SOL    HW180248   9.018  10.011   4.834  0.1907  0.6307 -2.6571
25444SOL    HW280249   9.159   9.954   4.838 -0.3639 -0.6860 -0.4612
25445SOL     OW80250   7.816   0.768   7.777  0.2479 -0.2876 -0.0416
25445SOL    HW180251   7.726   0.764   7.745  0.3852  1.9877 -0.9137
25445SOL    HW280252   7.859   0.693   7.737 -0.9496 -0.6640 -0.6826
25446SOL     OW80253   0.577   4.105   5.565  0.1228 -0.2368 -0.1282
25446SOL    HW180254   0.585   4.196   5.537 -2.2421  0.2305  0.5546
25446SOL    HW280255   0.668   4.076   5.576  0.9923  1.4848 -1.9770
25447SOL     OW80256   0.949   9.460   0.670 -0.1225  1.0083  0.7156
25447SOL    HW180257   1.012   9.467   0.742  1.2741 -0.0621 -0.3316
25447SOL    HW280258   1.004   9.460   0.591 -1.0212 -3.3857 -0.1568
25448SOL     OW80259   3.402   1.692   9.632  0.1905  0.1665 -0.5982
25448SOL    HW180260   3.319   1.646   9.645 -0.2224  1.0066 -0.1749
25448SOL    HW280261   3.469   1.626   9.645 -0.3440 -0.0421  1.3054
25449SOL     OW80262   8.964   7.592   9.972 -0.0972  0.1569 -0.3489
25449SOL    HW180263   8.939   7.652   9.902  1.3348  0.4664 -0.6192
25449SOL    HW280264   8.995   7.514   9.927 -1.2750 -0.5248 -0.0103
25450SOL     OW80265   1.501   4.400   5.753  0.6009 -0.0075  0.6476
25450SOL    HW180266   1.428   4.446   5.795 -0.0181 -0.6625  0.3054
25450SOL    HW280267   1.533   4.462   5.686  1.1741  0.7776  1.6227
25451SOL     OW80268   1.912   3.474   0.418 -0.0380  0.0264 -0.2104
25451SOL    HW180269   1.926   3.526   0.339 -1.9680 -0.3592 -0.8614
25451SOL    HW280270   1.865   3.533   0.477 -1.6400 -0.7144 -0.6962
25452SOL     OW80271   6.684   8.625   2.137 -0.0858 -0.2542  0.4485
25452SOL    HW180272   6.633   8.644   2.216 -1.5415  1.6441 -0.8438
25452SOL    HW280273   6.622   8.639   2.065  1.4940 -0.7888 -1.0833
25453SOL     OW80274   8.850   2.488   7.999  0.2507  0.0631 -0.3912
25453SOL    HW180275   8.901   2.451   7.926 -0.9977 -0.3234 -1.1060
25453SOL    HW280276   8.852   2.420   8.066 -0.0097 -0.3167 -0.7549
25454SOL     OW80277   4.692   0.013   1.880 -0.3999  0.2337  0.1613
25454SOL    HW180278   4.658  -0.068   1.918 -0.1211 -0.5042 -1.1194
25454SOL    HW280279   4.688   0.076   1.952 -0.0815 -1.0530  1.3527
25455SOL     OW80280   3.325   1.904   3.268  0.0177 -0.4627  0.2167
25455SOL    HW180281   3.286   1.832   3.317  0.1614  0.6482  2.0326
25455SOL    HW280282   3.250   1.957   3.239 -0.0587 -1.0451 -0.6991
25456SOL     OW80283   7.655   7.005   0.160  0.2833 -0.0283  0.3558
25456SOL    HW180284   7.572   6.995   0.207  0.1824 -0.2935  0.1273
25456SOL    HW280285   7.712   6.938   0.196  0.3050 -0.0341  0.3111
25457SOL     OW80286   1.955  10.143   0.197 -0.1862  0.6933 -0.1881
25457SOL    HW180287   1.869  10.108   0.173 -0.0760  0.7454 -0.6648
25457SOL    HW280288   1.940  10.236   0.210 -0.2188  0.6876 -0.1862
25458SOL     OW80289   6.722   0.840   8.236  0.1395  0.2444 -0.4170
25458SOL    HW180290   6.716   0.847   8.332 -1.1828  1.5550 -0.5659
25458SOL    HW280291   6.816   0.841   8.218  0.4070 -0.0906  0.8675
25459SOL     OW80292   7.745   7.738   1.670  0.4169 -0.2714 -0.6520
25459SOL    HW180293   7.696   7.820   1.675  0.2626 -0.4085  0.1605
25459SOL    HW280294   7.762   7.715   1.761  1.1115 -0.7569 -0.9024
25460SOL     OW80295   9.864   9.444   4.990  0.3158 -0.0636 -0.1654
25460SOL    HW180296   9.910   9.504   5.049 -0.9147  0.1769  0.5812
25460SOL    HW280297   9.897   9.357   5.014  1.9991  0.2690 -1.1572
25461SOL     OW80298   6.762   5.294   8.179 -0.4630 -0.2410 -0.0607
25461SOL    HW180299   6.703   5.345   8.123 -0.6908 -0.8430 -0.3785
25461SOL    HW280300   6.829   5.263   8.119  0.1030  0.3122  0.2720
25462SOL     OW80301   7.131   7.147   9.915  0.1522 -0.5359  0.0714
25462SOL    HW180302   7.060   7.085   9.934  0.4300 -0.4734  1.4229
25462SOL    HW280303   7.093   7.233   9.936  0.4949 -0.4687  0.4252
25463SOL     OW80304   3.272   6.955   2.161  0.2834 -0.0319  0.1430
25463SOL    HW180305   3.248   6.934   2.251 -0.2626 -0.7761 -0.1630
25463SOL    HW280306   3.309   6.873   2.127  1.1887  0.4570 -0.0830
25464SOL     OW80307   7.598   9.467   7.996 -0.4075  0.1278 -0.2755
25464SOL    HW180308   7.548   9.540   8.031 -0.9538 -0.0165 -0.7273
25464SOL    HW280309   7.593   9.399   8.063 -1.7983 -0.2991 -0.7812
25465SOL     OW80310   8.041   8.982  10.043 -0.1143  0.3019  0.2039
25465SOL    HW180311   7.966   9.015   9.993  0.3525 -0.7316 -1.2550
25465SOL    HW280312   8.003   8.917  10.101 -0.5091  0.6432  0.3345
25466SOL     OW80313   5.324   0.228   4.291 -0.7421  0.8840 -0.4985
25466SOL    HW180314   5.418   0.224   4.309 -0.7523  0.8525 -0.4549
25466SOL    HW280315   5.308   0.319   4.263 -1.0033  1.3543  1.1099
25467SOL     OW80316   0.849   0.235   4.739  0.2167 -0.2747 -0.1172
25467SOL    HW180317   0.776   0.214   4.797  0.7590  0.0319  0.6952
25467SOL    HW280318   0.811   0.234   4.651 -1.0418  1.0797  0.3769
25468SOL     OW80319   9.389   5.066   3.157  0.0304  0.2395 -0.1577
25468SOL    HW180320   9.350   4.995   3.208  0.7044  0.9815  1.4693
25468SOL    HW280321   9.332   5.142   3.173 -0.4135  0.2164 -1.4937
25469SOL     OW80322   0.672   0.024   7.447  0.2305 -0.5399 -0.0020
25469SOL    HW180323   0.699   0.113   7.426  0.4032 -1.0555 -2.2861
25469SOL    HW280324   0.664   0.023   7.542  0.5009  1.8131  0.1088
25470SOL     OW80325   0.682   5.915   4.874  0.1401 -0.3179 -0.1710
25470SOL    HW180326   0.609   5.885   4.820  0.2877 -2.4190  0.6944
25470SOL    HW280327   0.744   5.842   4.874  0.6928  0.0713  1.8166
25471SOL     OW80328   7.138   5.734   4.842 -0.2568  0.5911 -0.3400
25471SOL    HW180329   7.107   5.691   4.921  0.4399  0.2951 -0.2237
25471SOL    HW280330   7.156   5.663   4.780 -1.8354  0.8612 -1.1701
25472SOL     OW80331   1.844   6.093   2.597 -0.1842 -0.0343 -0.1418
25472SOL    HW180332   1.784   6.018   2.597  0.5486 -0.6694  1.1921
25472SOL    HW280333   1.834   6.132   2.511 -2.2971 -0.2916 -0.0725
25473SOL     OW80334   5.650   4.810   8.040 -0.0763  0.2115  0.1348
25473SOL    HW180335   5.656   4.754   7.963  1.0574  1.1341 -0.4823
25473SOL    HW280336   5.591   4.763   8.099 -1.2362 -0.3795 -1.4023
25474SOL     OW80337   7.340   0.360   7.783 -0.1618  0.6504 -0.2329
25474SOL    HW180338   7.392   0.379   7.705  0.7956 -0.7322  0.0280
25474SOL    HW280339   7.401   0.315   7.842 -1.2690  0.3093  0.6796
25475SOL     OW80340   4.605   3.790   3.500 -0.1204 -0.0173 -0.0676
25475SOL    HW180341   4.634   3.835   3.579 -2.0976 -0.8389  1.2107
25475SOL    HW280342   4.538   3.848   3.463  0.6344  0.2549 -1.0545
25476SOL     OW80343   6.197   7.205   8.026  0.4112 -0.1589  0.0271
25476SOL    HW180344   6.116   7.199   8.077 -0.9319  3.1572 -1.4161
25476SOL    HW280345   6.258   7.253   8.083 -0.8155  2.8052 -0.9574
25477SOL     OW80346   5.774   3.615   6.662  0.0167 -0.1086 -0.4118
25477SOL    HW180347   5.766   3.704   6.694  1.3703  0.1505 -0.7505
25477SOL    HW280348   5.847   3.617   6.601  1.7299 -1.9234  1.3984
25478SOL     OW80349   1.706   1.009   2.705  0.1397 -0.1279 -0.1791
25478SOL    HW180350   1.624   0.975   2.738 -0.1418 -1.2958 -1.9647
25478SOL    HW280351   1.772   0.946   2.734  0.3313  0.4398  0.6583
25479SOL     OW80352   7.456   4.258   2.628  0.0087 -0.2203 -0.0290
25479SOL    HW180353   7.495   4.217   2.705 -1.0097 -0.0091  0.6162
25479SOL    HW280354   7.435   4.185   2.570  0.6039 -0.3950 -0.0314
25480SOL     OW80355   0.046   9.080   3.231 -0.0688 -0.1296  0.7663
25480SOL    HW180356  -0.003   9.105   3.310  0.6770 -0.9506  1.5035
25480SOL    HW280357   0.120   9.140   3.229 -1.0036  1.0494 -0.2990
25481SOL     OW80358   2.073   7.868   7.520  0.2900 -0.4482  0.8370
25481SOL    HW180359   2.133   7.816   7.574 -1.0665 -0.3427  2.5666
25481SOL    HW280360   2.113   7.954   7.515  0.8267 -0.6854  1.0113
25482SOL     OW80361   7.305   2.066   3.132 -0.6184  0.3867 -0.2379
25482SOL    HW180362   7.254   2.080   3.052 -1.5996  1.7018  0.5817
25482SOL    HW280363   7.388   2.110   3.115 -0.9495  0.9531 -0.4201
25483SOL     OW80364   5.565   9.623   6.093  0.0662 -0.3217  0.2512
25483SOL    HW180365   5.655   9.649   6.073  0.6836 -1.1458  1.7610
25483SOL    HW280366   5.574   9.562   6.166 -1.6610 -1.1669 -0.1975
25484SOL     OW80367   5.684   0.724   4.024  0.6133  0.1857 -0.0122
25484SOL    HW180368   5.759   0.673   3.995 -0.6857 -1.6650 -0.3114
25484SOL    HW280369   5.675   0.793   3.959  2.7420  1.2110  0.6995
25485SOL     OW80370   5.119   9.665   2.042  0.2818 -0.3238 -0.2032
25485SOL    HW180371   5.118   9.753   2.081  2.9569  0.0364 -0.7263
25485SOL    HW280372   5.070   9.611   2.104  0.5462  1.1134  1.3531
25486SOL     OW80373   6.368   9.792   8.660  0.5469 -0.0433  0.0303
25486SOL    HW180374   6.383   9.729   8.589 -0.5817 -0.9583  0.5653
25486SOL    HW280375   6.444   9.850   8.657  1.5244 -1.3048 -0.6328
25487SOL     OW80376   6.436   4.455   2.206 -0.0319  0.0741 -0.5187
25487SOL    HW180377   6.384   4.471   2.284  1.8360 -0.6234  0.9478
25487SOL    HW280378   6.399   4.375   2.169 -1.8312  1.1711 -1.2071
25488SOL     OW80379   3.673   5.501   4.727  0.2283 -0.1489  0.3308
25488SOL    HW180380   3.696   5.593   4.736 -2.1699  0.5128  0.3541
25488SOL    HW280381   3.741   5.465   4.669  1.7549  1.3581  1.0784
25489SOL     OW80382   0.894   1.586   6.969 -0.0383  0.1530  0.3752
25489SOL    HW180383   0.831   1.526   6.929 -0.0091 -0.8551  1.7758
25489SOL    HW280384   0.980   1.550   6.947  0.0475  0.8840 -0.5577
25490SOL     OW80385   0.265   9.845   1.238 -0.4116 -0.0545 -0.5854
25490SOL    HW180386   0.178   9.808   1.251 -0.1418 -0.7923 -0.8338
25490SOL    HW280387   0.289   9.880   1.324 -0.6562 -0.5090 -0.3261
25491SOL     OW80388   1.137   2.625   1.801 -0.2160 -0.1067 -0.1289
25491SOL    HW180389   1.191   2.547   1.811 -0.8437 -0.5818 -0.3769
25491SOL    HW280390   1.199   2.697   1.792  0.3683 -0.5412  0.3754
25492SOL     OW80391   4.829  10.093   0.310  0.2242 -0.0735 -0.0880
25492SOL    HW180392   4.815  10.177   0.267 -0.1004 -0.0887 -0.0155
25492SOL    HW280393   4.761  10.036   0.273  1.5898 -0.8289 -1.5300
25493SOL     OW80394   0.898  10.134   6.923 -0.7546  0.3778  0.7413
25493SOL    HW180395   0.817  10.121   6.875 -0.2553  0.5422 -0.1775
25493SOL    HW280396   0.934  10.045   6.933 -1.0540  0.3044  1.1602
25494SOL     OW80397   8.170   9.632   4.721  1.0554  0.6874 -0.2063
25494SOL    HW180398   8.109   9.705   4.730 -2.4087 -1.9162 -0.4288
25494SOL    HW280399   8.185   9.602   4.811  0.2518  0.0890 -0.2551
25495SOL     OW80400   4.995   3.350   7.888 -0.3222 -0.0889  0.0780
25495SOL    HW180401   5.086   3.377   7.876  0.1558 -1.8601 -0.6746
25495SOL    HW280402   4.973   3.376   7.977  1.5519 -1.2504  0.9382
25496SOL     OW80403   3.849   6.536   2.746  0.5383 -0.4921  0.1425
25496SOL    HW180404   3.773   6.593   2.743  0.8233 -0.1130 -2.8508
25496SOL    HW280405   3.848   6.489   2.663  2.7405 -1.6147  0.6555
25497SOL     OW80406   7.913   7.249   2.252 -0.0342  0.3555 -0.1524
25497SOL    HW180407   7.970   7.229   2.178  1.3235 -0.2602  1.0147
25497SOL    HW280408   7.972   7.285   2.318 -0.9466 -0.6032  1.2139
25498SOL     OW80409   7.029   3.459   1.652 -0.0405 -0.0407 -0.1636
25498SOL    HW180410   7.071   3.526   1.706  0.2915  1.9893 -2.7363
25498SOL    HW280411   7.101   3.421   1.602 -0.4681 -1.1639  0.0406
25499SOL     OW80412   5.341   0.172   0.095 -0.4197 -0.7926  0.4666
25499SOL    HW180413   5.337   0.096   0.038 -2.3696 -0.1744 -0.2912
25499SOL    HW280414   5.327   0.247   0.037  0.2408  0.0694  1.3739
25500SOL     OW80415   8.232   8.780   1.464 -0.2539  0.0775  0.0310
25500SOL    HW180416   8.214   8.830   1.384 -0.7271 -1.4246 -0.8430
25500SOL    HW280417   8.318   8.811   1.492 -1.1326  2.4244  0.3799
25501SOL     OW80418   8.165   3.563   3.848 -0.0662 -0.2851  0.4212
25501SOL    HW180419   8.175   3.506   3.772  1.6298  0.1840  0.2375
25501SOL    HW280420   8.238   3.540   3.905  1.1417  2.1510 -0.0026
25502SOL     OW80421   7.598   8.541   9.503 -0.4187 -0.6506  0.3610
25502SOL    HW180422   7.569   8.471   9.445 -1.6391 -1.6871  2.1330
25502SOL    HW280423   7.517   8.578   9.539  0.2712  0.4558  0.8414
25503SOL     OW80424   4.755   9.783   8.702 -0.4575 -0.3843 -0.3175
25503SOL    HW180425   4.666   9.763   8.671 -0.8635  0.6851  0.0874
25503SOL    HW280426   4.741   9.836   8.780  0.5509 -0.8334  0.1761
25504SOL     OW80427   3.236   8.505   7.398 -0.0972  0.0240 -0.3707
25504SOL    HW180428   3.293   8.465   7.333  0.2193 -1.1900  0.6059
25504SOL    HW280429   3.224   8.437   7.465 -1.0350  0.9538  0.4573
25505SOL     OW80430   5.506   8.397   0.958  0.1327 -0.5099  0.2085
25505SOL    HW180431   5.418   8.361   0.945  0.0560  0.6137 -3.5516
25505SOL    HW280432   5.491   8.480   1.004 -0.6850 -0.6975  0.2898
25506SOL     OW80433   5.250   8.206   2.754  0.0382 -0.1964 -0.6923
25506SOL    HW180434   5.168   8.251   2.770 -0.3362 -0.7416 -1.0528
25506SOL    HW280435   5.226   8.113   2.746  1.0326 -0.7921  2.1338
25507SOL     OW80436   8.413   7.949   6.462  0.1305 -0.4070 -0.2168
25507SOL    HW180437   8.471   7.919   6.532  0.5193  0.6473 -0.0717
25507SOL    HW280438   8.379   7.868   6.424  1.4628 -1.0523 -0.1135
25508SOL     OW80439   3.232   5.402   8.623 -0.1620  0.0468 -0.3513
25508SOL    HW180440   3.320   5.372   8.598 -0.4955 -1.2370 -0.0318
25508SOL    HW280441   3.178   5.384   8.546 -0.7692 -2.0538  0.5130
25509SOL     OW80442   9.499   1.985   7.481  0.1498  0.0043  0.3957
25509SOL    HW180443   9.563   1.922   7.514  1.1491  0.3056 -0.8928
25509SOL    HW280444   9.434   1.992   7.551  1.0900 -0.9222  1.3972
25510SOL     OW80445   0.324   1.548   5.475 -0.1601 -0.1553  0.5061
25510SOL    HW180446   0.388   1.618   5.487  2.0391 -2.0972  0.9583
25510SOL    HW280447   0.274   1.573   5.398  2.4261  0.6344 -1.0437
25511SOL     OW80448   6.898   1.617   1.842  0.7043 -0.1225 -0.5160
25511SOL    HW180449   6.890   1.641   1.934 -1.0427 -1.0740 -0.3853
25511SOL    HW280450   6.964   1.548   1.841  2.0075  1.0652 -0.2497
25512SOL     OW80451   2.745   6.014   5.797 -0.6375  0.7920 -0.4201
25512SOL    HW180452   2.754   6.035   5.889  0.9235 -1.1965 -0.0321
25512SOL    HW280453   2.651   6.019   5.779 -1.2500 -0.9588  1.8797
25513SOL     OW80454   3.844   6.853   2.738  0.1324 -0.1241 -0.2582
25513SOL    HW180455   3.815   6.818   2.654  0.6138 -1.9678  0.2846
25513SOL    HW280456   3.916   6.795   2.764 -1.0941 -0.6926  2.1811
25514SOL     OW80457   0.239   1.413   7.942  0.0877  0.1022  0.0450
25514SOL    HW180458   0.298   1.381   8.010  1.6198  0.3922 -1.0781
25514SOL    HW280459   0.175   1.466   7.989 -0.2182 -1.4622  1.4828
25515SOL     OW80460   0.834   1.978   2.228 -0.2097  0.1025  0.1737
25515SOL    HW180461   0.875   1.962   2.313  1.1225  1.1728 -0.2224
25515SOL    HW280462   0.756   2.030   2.249 -0.1670 -0.0674  0.7786
25516SOL     OW80463   3.686   6.701   0.026  0.2274  0.2035 -0.2634
25516SOL    HW180464   3.660   6.780   0.075 -0.1153  1.1966 -1.9744
25516SOL    HW280465   3.603   6.661   0.000  0.3816  0.7073 -1.5876
25517SOL     OW80466   4.008   6.758   3.355  0.1882  0.5120  0.9094
25517SOL    HW180467   4.003   6.718   3.442 -1.0549 -0.3248  0.4861
25517SOL    HW280468   3.971   6.692   3.296  3.6903 -0.1995 -0.7377
25518SOL     OW80469   1.719   4.352   5.528  0.4527 -0.6741  0.3644
25518SOL    HW180470   1.679   4.266   5.539 -2.5934  0.7613  2.1107
25518SOL    HW280471   1.711   4.371   5.435  0.3436 -1.9379  0.1037
25519SOL     OW80472   2.909   4.144   3.219  0.0240 -0.3499  0.1808
25519SOL    HW180473   2.958   4.079   3.269  0.5686  0.8082  1.2100
25519SOL    HW280474   2.822   4.105   3.208  0.7854 -1.9202 -0.6335
25520SOL     OW80475   3.727   3.458   9.044  0.9583  0.4437 -0.1435
25520SOL    HW180476   3.731   3.363   9.047  1.3285  0.3892 -1.4736
25520SOL    HW280477   3.635   3.478   9.027  0.8181  0.3411  0.4862
25521SOL     OW80478   9.105   4.219   9.366  0.0151 -0.2679 -0.1105
25521SOL    HW180479   9.010   4.205   9.375 -0.2445  0.1522 -1.8297
25521SOL    HW280480   9.114   4.314   9.359  0.5199 -0.3391 -0.4163
25522SOL     OW80481   9.871   5.094   0.781  0.6627  0.4392  0.9056
25522SOL    HW180482   9.806   5.159   0.807  0.5052  0.8749 -0.4747
25522SOL    HW280483   9.870   5.097   0.685  1.6781 -0.5892  0.8450
25523SOL     OW80484   9.642   9.906   2.009 -0.3727  0.1549 -0.0052
25523SOL    HW180485   9.641   9.839   2.078  1.0678  2.5164  2.4778
25523SOL    HW280486   9.733   9.935   2.004 -0.8698  1.6576 -1.3223
25524SOL     OW80487   1.259   4.516   5.914  0.5497 -0.2444 -0.1505
25524SOL    HW180488   1.217   4.451   5.969 -2.0314 -0.2041 -1.9226
25524SOL    HW280489   1.248   4.598   5.962  0.4182 -0.5430  0.3387
25525SOL     OW80490   4.019   4.816   9.541 -0.2154 -0.3205 -0.1171
25525SOL    HW180491   4.103   4.773   9.554  0.2167  0.4085 -0.3998
25525SOL    HW280492   3.977   4.766   9.471 -0.3994 -1.2060  0.6063
25526SOL     OW80493   9.125   7.550   2.867 -0.5738 -0.0874  0.2629
25526SOL    HW180494   9.152   7.525   2.955  2.2145  0.8279 -0.2554
25526SOL    HW280495   9.165   7.636   2.852  0.4394 -0.9188 -2.4486
25527SOL     OW80496   4.063   2.110   4.818 -0.1009 -0.0658 -0.5864
25527SOL    HW180497   3.993   2.052   4.849  0.4273 -0.5649 -0.3087
25527SOL    HW280498   4.017   2.189   4.789 -0.6829  0.1381  0.8064
25528SOL     OW80499   6.910   8.552   4.708  0.3374 -0.3107  0.2530
25528SOL    HW180500   6.840   8.502   4.752 -0.2295 -1.4039 -1.7758
25528SOL    HW280501   6.990   8.502   4.727 -0.1395 -1.7519 -1.2509
25529SOL     OW80502   8.525   1.871   7.225  0.4227 -0.7035  0.3740
25529SOL    HW180503   8.440   1.863   7.266 -0.0585 -0.8649 -0.6268
25529SOL    HW280504   8.510   1.850   7.133  0.5554  3.7523 -0.9036
25530SOL     OW80505   1.985   1.923   1.900  0.6385  0.9744  0.0145
25530SOL    HW180506   2.034   1.857   1.852  1.5501  0.2952  1.8077
25530SOL    HW280507   1.916   1.874   1.945  0.7370  1.3759  0.6122
25531SOL     OW80508   8.194   8.731   6.291  0.4510  0.2905  0.3946
25531SOL    HW180509   8.245   8.713   6.370 -0.0019  0.9945  0.8560
25531SOL    HW280510   8.243   8.800   6.246  0.8836 -0.3366 -0.1253
25532SOL     OW80511   9.159   7.476   1.075  0.3707 -0.6891  0.1880
25532SOL    HW180512   9.121   7.389   1.057 -0.7194  0.1009 -1.6827
25532SOL    HW280513   9.208   7.497   0.995 -3.3491  2.3560 -1.6156
25533SOL     OW80514   6.410   3.685   7.626 -0.1566  0.2064  0.1416
25533SOL    HW180515   6.483   3.623   7.622  1.4486  2.0781 -2.7908
25533SOL    HW280516   6.337   3.639   7.585  0.1358 -0.7127  0.6063
25534SOL     OW80517   6.655   0.229   9.872 -0.2482 -0.1043 -0.0826
25534SOL    HW180518   6.635   0.141   9.903  0.6812 -0.1224  0.4945
25534SOL    HW280519   6.663   0.282   9.951 -0.7832  0.5130 -0.4223
25535SOL     OW80520   1.346   1.397   8.018  0.1380 -0.1925 -0.2838
25535SOL    HW180521   1.432   1.355   8.015  0.8595  1.2636 -0.6324
25535SOL    HW280522   1.293   1.339   8.073  0.4717 -2.6548 -2.3763
25536SOL     OW80523   6.896   9.073   7.162  0.2605  0.2043  0.3008
25536SOL    HW180524   6.929   9.136   7.225 -0.0938 -0.5887  1.3104
25536SOL    HW280525   6.930   9.103   7.078 -0.4957  2.1564  0.6263
25537SOL     OW80526   7.730   8.689   6.841  0.2286  0.3496  0.1666
25537SOL    HW180527   7.716   8.598   6.815 -1.3620  1.1077 -1.8857
25537SOL    HW280528   7.660   8.708   6.904  0.0845  0.3799 -0.0037
25538SOL     OW80529   2.132   1.279   8.754  0.2134 -0.4566 -0.7770
25538SOL    HW180530   2.200   1.212   8.761  0.5815  0.0734  2.2725
25538SOL    HW280531   2.062   1.248   8.812 -1.4169 -0.1367 -2.5048
25539SOL     OW80532   4.741   2.118   0.349 -0.8504 -0.5603  0.8414
25539SOL    HW180533   4.811   2.053   0.351 -0.6825 -0.4494 -0.6525
25539SOL    HW280534   4.787   2.202   0.348 -0.8479 -0.4836 -2.0590
25540SOL     OW80535   0.813   2.491   5.566  0.1829 -0.3580  0.4607
25540SOL    HW180536   0.903   2.511   5.593 -0.0859  1.3395  0.1918
25540SOL    HW280537   0.759   2.515   5.642 -0.1315 -0.4048  0.2539
25541SOL     OW80538   9.665   8.086   9.673 -0.3947  0.1666 -0.2477
25541SOL    HW180539   9.688   8.002   9.634  0.3996  0.0764  0.3974
25541SOL    HW280540   9.748   8.126   9.696 -0.8045 -0.1618  2.1465
25542SOL     OW80541   5.321   1.601   8.599 -0.6497 -0.0259  0.3720
25542SOL    HW180542   5.281   1.540   8.660  1.1851 -0.9844  0.7053
25542SOL    HW280543   5.361   1.545   8.532 -0.0875  0.8628 -0.0639
25543SOL     OW80544   1.714   4.298   5.871 -0.1872 -0.4086  0.0099
25543SOL    HW180545   1.750   4.231   5.814 -0.1975 -0.8794  0.5458
25543SOL    HW280546   1.634   4.327   5.827 -0.7862 -1.5419  0.2958
25544SOL     OW80547   3.407   2.107   8.500  0.4965 -0.0461 -0.3539
25544SOL    HW180548   3.459   2.117   8.580  1.0363 -1.7247 -0.4686
25544SOL    HW280549   3.468   2.125   8.429  0.3935 -0.0121 -0.4345
25545SOL     OW80550   1.105   1.703   7.707 -0.1040 -0.0719 -0.0469
25545SOL    HW180551   1.118   1.643   7.781 -1.0654 -1.1203 -0.6853
25545SOL    HW280552   1.130   1.651   7.630 -0.6973  0.4336 -0.5912
25546SOL     OW80553   8.953  10.061   6.191  0.4155  0.1801 -0.1281
25546SOL    HW180554   8.913  10.005   6.125  0.8350  0.0060 -0.2396
25546SOL    HW280555   9.016  10.114   6.143 -0.3200  1.1069 -0.1062
25547SOL     OW80556   4.575   8.927   1.551 -0.4383 -0.1281 -0.1292
25547SOL    HW180557   4.502   8.866   1.542  0.1280 -1.0750  1.2744
25547SOL    HW280558   4.622   8.896   1.629  1.5607  0.3507 -1.0867
25548SOL     OW80559   9.449   2.638   4.386 -0.0522 -0.6975  0.9721
25548SOL    HW180560   9.418   2.707   4.445 -0.3893 -0.8779  1.0079
25548SOL    HW280561   9.525   2.676   4.343  0.9934 -1.0307  2.4647
25549SOL     OW80562   1.267   8.016   8.950  0.1447  0.0262  0.7990
25549SOL    HW180563   1.250   8.094   8.896  0.4382  0.4907  1.3545
25549SOL    HW280564   1.311   7.955   8.891 -2.3904 -0.7984 -0.3814
25550SOL     OW80565   7.748   8.719   4.574  0.4016  0.2339 -0.0160
25550SOL    HW180566   7.733   8.722   4.668 -1.6414  1.0189 -0.3018
25550SOL    HW280567   7.820   8.658   4.563 -0.7571 -1.6362  1.9147
25551SOL     OW80568   0.346   7.388   2.912 -0.0922 -0.3695 -0.0074
25551SOL    HW180569   0.432   7.425   2.927  0.4689 -0.4661 -2.5282
25551SOL    HW280570   0.285   7.459   2.932  0.7576  0.6396 -0.8617
25552SOL     OW80571   5.345   7.637   0.792 -0.2137 -0.4574  0.4325
25552SOL    HW180572   5.439   7.629   0.774 -0.6707 -1.1469 -1.9012
25552SOL    HW280573   5.317   7.713   0.740 -1.5168 -2.2409 -1.6524
25553SOL     OW80574   9.351   0.493   7.677  0.1257  0.3601 -0.0269
25553SOL    HW180575   9.376   0.445   7.756 -0.5360 -0.2722 -0.1862
25553SOL    HW280576   9.256   0.483   7.672  0.1141  0.7263 -0.6895
25554SOL     OW80577   2.792  10.138   1.398 -0.2547  0.2447 -0.4514
25554SOL    HW180578   2.726  10.078   1.432  1.5616 -0.3496  2.3585
25554SOL    HW280579   2.874  10.109   1.438  1.2467  2.6920 -1.5069
25555SOL     OW80580   7.236   5.883   3.585 -0.4221  0.0236 -0.0693
25555SOL    HW180581   7.303   5.831   3.629  0.0707  0.8454  0.1830
25555SOL    HW280582   7.154   5.859   3.627 -0.3620 -1.3333 -0.6862
25556SOL     OW80583   7.572   2.139   3.118  0.0630  0.9189 -0.3361
25556SOL    HW180584   7.606   2.068   3.173 -1.2638 -0.4090 -1.1457
25556SOL    HW280585   7.648   2.171   3.070  0.6725 -0.0399 -0.0401
25557SOL     OW80586   9.270  10.027   9.261 -0.4830  0.0075 -0.0478
25557SOL    HW180587   9.238   9.940   9.241 -1.2788  0.3517 -0.3210
25557SOL    HW280588   9.207  10.086   9.219 -0.0478  0.7105  0.2670
25558SOL     OW80589   6.592   0.653   5.622 -0.0046 -0.1942 -0.4568
25558SOL    HW180590   6.683   0.657   5.592 -0.3083 -0.3088 -1.4225
25558SOL    HW280591   6.598   0.623   5.712  0.8402 -1.6377 -0.9608
25559SOL     OW80592   6.907   5.648   4.317 -0.5527  0.0618 -0.1957
25559SOL    HW180593   6.957   5.620   4.240 -0.9397  1.2418 -0.9007
25559SOL    HW280594   6.829   5.591   4.316 -0.3671 -0.1913 -0.4510
25560SOL     OW80595   7.012   3.146   5.979  0.0230  0.3342  0.1723
25560SOL    HW180596   7.080   3.152   5.912 -0.5039  0.7171 -0.3374
25560SOL    HW280597   7.031   3.065   6.026  1.1728  0.7265  0.4180
25561SOL     OW80598   9.650   7.130   4.592 -0.5620 -0.3315 -0.3706
25561SOL    HW180599   9.652   7.132   4.688  1.0340  2.7163 -0.3366
25561SOL    HW280600   9.558   7.116   4.570 -1.4198  1.4093  1.7094
25562SOL     OW80601   1.363   0.341   8.237  0.3987 -0.8192  0.1232
25562SOL    HW180602   1.337   0.282   8.166  1.6367 -1.4687  0.1857
25562SOL    HW280603   1.281   0.385   8.262 -0.4447 -2.0589 -0.3322
25563SOL     OW80604   7.509   8.539   8.348  0.4948  0.0495  0.3300
25563SOL    HW180605   7.591   8.528   8.299  0.5480  2.9382 -0.4365
25563SOL    HW280606   7.443   8.494   8.295  0.9391  1.2293 -1.3276
25564SOL     OW80607   8.226   6.128   5.564  0.1203 -0.1704  0.4340
25564SOL    HW180608   8.315   6.108   5.535  0.0652  0.2566 -0.0541
25564SOL    HW280609   8.171   6.105   5.489 -0.0883  0.3704  0.4143
25565SOL     OW80610   3.126   5.110   2.186  0.1382  0.2379 -0.2004
25565SOL    HW180611   3.187   5.040   2.208  1.7351  1.1533 -1.5596
25565SOL    HW280612   3.061   5.108   2.257  1.2060 -1.3550  0.7892
25566SOL     OW80613   2.406   1.239   9.551 -0.4666 -0.1681  0.1499
25566SOL    HW180614   2.420   1.148   9.526  1.0100  0.0487  0.1383
25566SOL    HW280615   2.441   1.245   9.640 -3.1564 -0.2682  1.3129
25567SOL     OW80616   6.838   6.772   2.796  0.1071 -0.0670  0.8957
25567SOL    HW180617   6.755   6.811   2.769  0.1384 -0.8161 -0.3452
25567SOL    HW280618   6.899   6.845   2.801 -0.0505  0.1873 -0.5227
25568SOL     OW80619  10.175   7.926   1.312  0.1564  0.6847  0.5639
25568SOL    HW180620  10.162   7.914   1.218  0.5609 -2.0354  0.7919
25568SOL    HW280621  10.243   7.993   1.318  0.6656  0.3686 -1.1075
25569SOL     OW80622   7.949   9.949   2.038 -0.3999  0.0741  0.0866
25569SOL    HW180623   7.968   9.899   2.117  0.0551  1.0796  0.6380
25569SOL    HW280624   7.889  10.018   2.067 -0.6144  0.1614 -0.5442
25570SOL     OW80625   8.407   9.868   4.945 -0.2605  0.1012 -0.1726
25570SOL    HW180626   8.458   9.825   5.014 -2.2225  0.0662  1.3393
25570SOL    HW280627   8.461   9.858   4.866  0.3180 -3.4317  0.4682
25571SOL     OW80628   1.710   0.291   8.263 -0.0179 -0.3296 -0.1703
25571SOL    HW180629   1.714   0.362   8.327 -0.5828 -0.1532 -0.3264
25571SOL    HW280630   1.756   0.218   8.305 -0.9761 -0.4409  0.7299
25572SOL     OW80631   6.744   0.291   1.187 -0.2423  0.4438  0.0330
25572SOL    HW180632   6.662   0.242   1.190 -0.2187  0.3713 -0.5445
25572SOL    HW280633   6.729   0.359   1.121 -0.2716  1.2069  0.8057
25573SOL     OW80634   2.884   8.763   3.769  0.9839  0.3322 -0.1225
25573SOL    HW180635   2.872   8.708   3.691 -1.3866 -0.8783  0.9822
25573SOL    HW280636   2.813   8.826   3.765 -0.6933 -1.2486  2.1494
25574SOL     OW80637   3.611   1.298   0.183 -0.5248 -0.0225  0.5724
25574SOL    HW180638   3.564   1.355   0.243  0.5145 -0.9691  2.3602
25574SOL    HW280639   3.697   1.338   0.174 -0.3586 -0.3973  0.4838
25575SOL     OW80640   1.340   6.048   5.328 -0.2689  0.9440 -0.4411
25575SOL    HW180641   1.373   6.135   5.306 -1.0390  1.5863  0.7923
25575SOL    HW280642   1.266   6.034   5.269 -0.0613  1.0610 -0.7312
25576SOL     OW80643   8.114   6.786   9.803  0.2686  0.2839  0.5057
25576SOL    HW180644   8.199   6.744   9.809  0.5307  0.8881  1.3403
25576SOL    HW280645   8.133   6.876   9.774  0.0182  0.6699  1.4843
25577SOL     OW80646   8.440   7.076   4.167  0.3951  0.1000  0.3978
25577SOL    HW180647   8.460   7.163   4.133  1.0614 -1.1333 -2.8166
25577SOL    HW280648   8.345   7.068   4.157  0.0423  1.0736  2.5445
25578SOL     OW80649   5.292   3.514   3.851  0.0535 -0.0839 -0.3069
25578SOL    HW180650   5.319   3.427   3.821  0.0101 -0.0975 -0.3065
25578SOL    HW280651   5.362   3.542   3.910  0.7694  0.4720 -1.3828
25579SOL     OW80652   7.127   0.496   8.661  0.3383  0.0357 -0.2540
25579SOL    HW180653   7.065   0.565   8.637  0.0018 -0.0290  0.4143
25579SOL    HW280654   7.079   0.441   8.723  1.0681 -0.0039  0.2824
25580SOL     OW80655   8.877   9.038   8.752  0.1233 -0.2323 -0.2543
25580SOL    HW180656   8.837   9.096   8.817 -1.7715 -1.3134 -0.3945
25580SOL    HW280657   8.936   9.095   8.702  0.0562  1.0513  1.0767
25581SOL     OW80658  10.013   9.125   1.731  0.1827 -0.1467  0.1989
25581SOL    HW180659   9.979   9.212   1.755 -0.1653 -0.4516  0.8423
25581SOL    HW280660  10.033   9.132   1.638 -0.6209  0.3791  0.0555
25582SOL     OW80661   5.959   9.572   8.559  0.5890  0.2910 -0.0730
25582SOL    HW180662   6.041   9.523   8.560  0.1887 -0.3761  0.1799
25582SOL    HW280663   5.925   9.560   8.470 -0.0806 -0.8676  0.3177
25583SOL     OW80664   2.228   5.985   9.443  0.4231 -0.0141  0.3301
25583SOL    HW180665   2.196   5.901   9.412 -1.2623  1.6464 -2.9091
25583SOL    HW280666   2.150   6.041   9.447  1.8628  2.2382 -0.7980
25584SOL     OW80667   1.714   2.776   1.671 -0.1949  0.2169  0.3635
25584SOL    HW180668   1.625   2.771   1.705  0.2427  0.7051  1.6289
25584SOL    HW280669   1.703   2.773   1.576 -1.4868 -0.6859  0.5100
25585SOL     OW80670   5.935   7.433   5.422 -0.1751 -0.0271 -0.1209
25585SOL    HW180671   6.019   7.478   5.429  1.7854 -2.6424 -3.5416
25585SOL    HW280672   5.946   7.352   5.471 -1.4122  0.3920  0.8978
25586SOL     OW80673   5.338   1.050   4.525  0.0155 -0.1042  0.2747
25586SOL    HW180674   5.406   1.114   4.504 -0.2833 -0.6669 -2.7509
25586SOL    HW280675   5.381   0.965   4.514 -1.1451 -0.4668 -1.8078
25587SOL     OW80676   7.987   7.117   5.635 -0.0083  0.4309  0.1784
25587SOL    HW180677   7.910   7.060   5.638 -2.4366  3.3685 -1.2474
25587SOL    HW280678   8.017   7.112   5.545  1.5166 -0.6280  0.7080
25588SOL     OW80679   8.236   4.554   1.125 -0.1907 -0.1640  0.2622
25588SOL    HW180680   8.207   4.506   1.202 -0.9705 -0.8836 -0.4503
25588SOL    HW280681   8.156   4.596   1.092  0.4729  1.7084  0.8939
25589SOL     OW80682   5.991   3.027   2.609  0.5585 -0.5103  0.2278
25589SOL    HW180683   5.913   3.081   2.598 -0.5317 -2.1692 -0.6103
25589SOL    HW280684   6.054   3.084   2.653 -0.2141  1.7135 -1.3499
25590SOL     OW80685   0.242   5.436   5.763 -0.1406 -0.2590 -0.3852
25590SOL    HW180686   0.285   5.522   5.760 -1.1058  0.2479  0.0065
25590SOL    HW280687   0.161   5.451   5.812  0.1900 -1.6322  0.6238
25591SOL     OW80688   8.446   8.489   5.037 -0.2945 -0.1030 -0.1721
25591SOL    HW180689   8.510   8.443   5.091 -0.9805 -0.4130  0.4050
25591SOL    HW280690   8.404   8.419   4.986 -1.1188 -0.0956  0.4733
25592SOL     OW80691   8.438   9.291   2.704  0.5330 -0.0053  0.1604
25592SOL    HW180692   8.397   9.222   2.652  1.6648 -0.1438 -0.5788
25592SOL    HW280693   8.365   9.337   2.744 -0.2672 -1.4234  0.4135
25593SOL     OW80694   0.193   7.226   9.758 -0.5838 -0.4181  0.2206
25593SOL    HW180695   0.203   7.284   9.833  0.3655  0.3421 -0.4686
25593SOL    HW280696   0.282   7.203   9.733 -0.9347 -2.9562  1.0227
25594SOL     OW80697   8.792   8.448   0.576 -0.1729 -0.3327  0.2391
25594SOL    HW180698   8.773   8.470   0.667  2.4943  0.6196  0.6580
25594SOL    HW280699   8.786   8.531   0.530 -1.1100 -0.7431 -0.3948
25595SOL     OW80700   4.117   8.323   7.444 -0.3120 -0.1165  0.2242
25595SOL    HW180701   4.201   8.312   7.488 -1.2673  1.1160  2.5307
25595SOL    HW280702   4.129   8.399   7.387 -0.4020  1.5061  2.2454
25596SOL     OW80703   1.381   7.708   2.717 -0.0999  0.0536  0.0611
25596SOL    HW180704   1.454   7.752   2.762  0.5625 -0.9843  0.0522
25596SOL    HW280705   1.319   7.687   2.787 -0.4628  1.0761  0.0485
25597SOL     OW80706   2.947   1.927   3.493 -0.7655  0.1126 -0.6126
25597SOL    HW180707   3.000   1.923   3.573  0.4979  2.1545 -1.2817
25597SOL    HW280708   2.888   2.001   3.507 -1.7538 -0.5800 -0.9182
25598SOL     OW80709   4.764   8.654   7.835  0.1518  0.0384 -0.1534
25598SOL    HW180710   4.801   8.691   7.915  0.3547 -1.3648  0.4330
25598SOL    HW280711   4.683   8.611   7.864 -0.1544  0.1490 -0.8294
25599SOL     OW80712   9.598   2.602   5.474  0.4800  0.5200 -0.1915
25599SOL    HW180713   9.623   2.558   5.555  0.8643 -0.1640 -0.6709
25599SOL    HW280714   9.570   2.531   5.415 -0.3451  1.0592 -0.4646
25600SOL     OW80715   6.170   5.328   3.424  0.2014 -0.1925 -0.4186
25600SOL    HW180716   6.194   5.256   3.482  0.8296  0.0493 -0.3696
25600SOL    HW280717   6.246   5.386   3.424 -1.1851  1.8049  1.5366
25601SOL     OW80718   6.424   4.223   1.563 -0.2978 -0.2103  0.6695
25601SOL    HW180719   6.383   4.309   1.565 -2.8201 -1.3439  0.8679
25601SOL    HW280720   6.472   4.218   1.646 -1.5105  0.3802  1.4287
25602SOL     OW80721   7.503   4.621   9.614  0.1615 -0.1101  0.3047
25602SOL    HW180722   7.576   4.575   9.656  0.2833  0.2473  0.4868
25602SOL    HW280723   7.499   4.584   9.526  1.0588  0.4050  0.0287
25603SOL     OW80724   2.875   6.754   9.762 -0.2254 -0.2576  0.4461
25603SOL    HW180725   2.930   6.827   9.790 -0.0673 -0.2763  0.1859
25603SOL    HW280726   2.800   6.796   9.719 -0.3584 -0.2357  0.6935
25604SOL     OW80727   6.697   4.828   8.167  0.9878 -0.2959  0.2618
25604SOL    HW180728   6.726   4.747   8.210  0.5524 -0.1920  0.7531
25604SOL    HW280729   6.679   4.888   8.239  0.2787 -0.1091 -0.0679
25605SOL     OW80730   4.423   7.708   8.821  0.0803 -0.5180 -0.6576
25605SOL    HW180731   4.475   7.677   8.895  0.0782 -0.5617 -0.6746
25605SOL    HW280732   4.462   7.792   8.798 -2.3677  1.5123  1.9618
25606SOL     OW80733   1.092   2.138   8.341  0.9223  0.0350  0.4607
25606SOL    HW180734   1.023   2.133   8.407  0.0250 -0.3698 -0.4770
25606SOL    HW280735   1.067   2.072   8.276  0.2418  2.3079 -1.7215
25607SOL     OW80736   8.331   3.877   4.104 -0.3430  0.1415 -0.1576
25607SOL    HW180737   8.374   3.856   4.187  0.8459  2.1598 -0.2271
25607SOL    HW280738   8.400   3.871   4.039 -0.3737  2.2123 -0.4434
25608SOL     OW80739   9.255   7.349   2.076 -0.2939 -0.3899 -0.1732
25608SOL    HW180740   9.254   7.378   1.985  0.2758  0.1463 -0.0188
25608SOL    HW280741   9.348   7.341   2.098 -0.3869  0.8733  0.7754
25609SOL     OW80742   9.460   1.881   3.717  0.1696  0.4153 -0.1115
25609SOL    HW180743   9.500   1.801   3.750 -0.0785  0.3172 -0.0407
25609SOL    HW280744   9.370   1.879   3.752  0.3337  1.0094  0.3685
25610SOL     OW80745   9.644   5.327   8.657  0.2487 -0.2845 -0.2636
25610SOL    HW180746   9.633   5.416   8.691 -0.0964  0.1713 -1.4880
25610SOL    HW280747   9.619   5.334   8.565 -1.0867 -1.9398 -0.0776
25611SOL     OW80748   2.273   4.071   3.902 -0.2654  0.1294  0.2641
25611SOL    HW180749   2.238   4.159   3.892 -0.4010 -0.1127 -1.7047
25611SOL    HW280750   2.334   4.061   3.829 -0.9742 -1.7310 -0.1267
25612SOL     OW80751   5.180   0.874   9.602  0.4473 -0.1922  0.4531
25612SOL    HW180752   5.165   0.780   9.611  1.5743 -0.6131 -1.4877
25612SOL    HW280753   5.100   0.906   9.560  1.0899 -0.8052 -1.3530
25613SOL     OW80754   7.037   1.314   4.993 -0.0967  0.6299 -0.3525
25613SOL    HW180755   6.975   1.250   4.959  1.7727 -1.5223  0.0102
25613SOL    HW280756   7.055   1.372   4.918  0.6629 -1.3519 -1.7921
25614SOL     OW80757   6.592   2.759   6.089 -0.4455 -0.1553  0.5133
25614SOL    HW180758   6.610   2.840   6.136  0.6489 -1.1252  1.8194
25614SOL    HW280759   6.508   2.729   6.124 -0.3323 -0.1301  0.8083
25615SOL     OW80760   6.937   2.742   5.500 -0.2062 -0.1874  0.1321
25615SOL    HW180761   6.985   2.666   5.532 -1.7744 -1.1284  0.3373
25615SOL    HW280762   6.862   2.705   5.452 -1.9854  1.1517  1.7056
25616SOL     OW80763   4.701   3.644   6.326 -0.2121 -0.0276  0.0455
25616SOL    HW180764   4.793   3.669   6.315  0.1704 -1.4673 -0.3078
25616SOL    HW280765   4.704   3.566   6.382 -1.2152 -0.1347 -0.0269
25617SOL     OW80766   9.326   0.532   6.611  0.0349  0.0917 -0.5473
25617SOL    HW180767   9.397   0.594   6.628  0.8298 -0.4742 -1.7135
25617SOL    HW280768   9.358   0.478   6.539 -1.6774 -0.0359 -1.2420
25618SOL     OW80769   4.241   8.504   0.185 -0.1084 -0.1429  0.2998
25618SOL    HW180770   4.257   8.419   0.143 -0.4624  0.5004 -1.2090
25618SOL    HW280771   4.147   8.505   0.201 -0.2120  0.2071 -0.2858
25619SOL     OW80772   9.227   5.015   0.360  0.0932 -0.0206 -0.6085
25619SOL    HW180773   9.148   4.982   0.318  1.2136 -2.3783 -0.9961
25619SOL    HW280774   9.211   5.001   0.454 -1.2638  2.6894 -0.3267
25620SOL     OW80775   2.890   7.701   9.582  0.0921 -0.1476  0.5408
25620SOL    HW180776   2.796   7.709   9.597  0.3955  0.1013  2.4811
25620SOL    HW280777   2.926   7.787   9.604  0.8547 -0.4050  0.3421
25621SOL     OW80778   8.812   6.929   5.864  0.5208 -0.3148 -0.6540
25621SOL    HW180779   8.906   6.927   5.878  0.8847  1.3805 -2.5128
25621SOL    HW280780   8.797   6.866   5.793  0.3242 -0.1676 -0.7432
25622SOL     OW80781   0.713   4.155   5.964  0.5798 -0.1322  0.0007
25622SOL    HW180782   0.727   4.167   6.058 -0.5038 -2.4565  0.5132
25622SOL    HW280783   0.724   4.243   5.927 -0.5849  1.1684  2.5078
25623SOL     OW80784   4.143   5.102   5.277  0.0963  0.3121 -0.2347
25623SOL    HW180785   4.119   5.027   5.223 -2.2388  0.4381  0.5098
25623SOL    HW280786   4.142   5.067   5.367  1.3990  0.6956 -0.0512
25624SOL     OW80787   1.325   2.045   2.731 -0.6238  0.2666 -0.4390
25624SOL    HW180788   1.261   2.111   2.705 -1.4177 -0.8695 -1.4319
25624SOL    HW280789   1.281   1.962   2.719 -0.0352 -0.4501  1.8671
25625SOL     OW80790   5.804   9.910   6.941 -0.1266  0.5162 -0.2441
25625SOL    HW180791   5.839   9.873   7.022 -0.1637 -1.0442 -0.9013
25625SOL    HW280792   5.834  10.001   6.940  1.0754  0.1465  0.8229
25626SOL     OW80793   7.903   6.619   2.481  0.1631 -0.1908  0.0984
25626SOL    HW180794   7.929   6.673   2.406  0.5608 -0.3221  0.1421
25626SOL    HW280795   7.942   6.663   2.556 -1.1423  0.5690  0.3782
25627SOL     OW80796   7.115   8.795   9.885  0.6167  0.1228 -0.3458
25627SOL    HW180797   7.154   8.775   9.969  0.6318 -2.1461 -0.8333
25627SOL    HW280798   7.020   8.791   9.901  0.6174 -0.7823 -0.5072
25628SOL     OW80799   7.770   3.555   3.148 -0.1876 -0.7805  0.3806
25628SOL    HW180800   7.746   3.638   3.106  0.1784 -0.0599  1.5437
25628SOL    HW280801   7.687   3.518   3.177 -0.3440 -0.7802 -0.0511
25629SOL     OW80802   0.210   5.551   8.451  0.6074  0.0678  0.4999
25629SOL    HW180803   0.194   5.636   8.409 -1.0119 -0.2170  0.4888
25629SOL    HW280804   0.264   5.573   8.527 -0.4423  1.2437  0.9516
25630SOL     OW80805  10.157   1.640   8.702  0.5459 -0.0878 -0.2705
25630SOL    HW180806  10.087   1.628   8.637  0.5725 -3.1923  0.1058
25630SOL    HW280807  10.223   1.692   8.656 -1.3934  1.8855 -1.0467
25631SOL     OW80808   4.762   3.507   2.459 -0.5853 -0.3018 -0.2286
25631SOL    HW180809   4.709   3.585   2.444  0.4258  0.6462  0.8911
25631SOL    HW280810   4.845   3.540   2.493  0.0185 -1.8547 -0.0736
25632SOL     OW80811   6.119   6.297   2.816 -0.2631 -0.6634  0.1989
25632SOL    HW180812   6.107   6.219   2.872 -0.8058  0.8219  2.2772
25632SOL    HW280813   6.033   6.314   2.779 -0.0934 -1.1535 -0.4425
25633SOL     OW80814   8.636   2.487   4.614 -0.1225  0.6594  0.2098
25633SOL    HW180815   8.620   2.566   4.562 -0.5650 -0.7788 -1.9684
25633SOL    HW280816   8.550   2.462   4.647  0.1898  1.7038  1.9640
25634SOL     OW80817   7.967   6.662   6.122 -0.4846 -0.1621  0.0311
25634SOL    HW180818   7.940   6.581   6.165  0.6456 -0.9620 -0.6980
25634SOL    HW280819   7.984   6.637   6.032  0.2915  0.7952 -0.1094
25635SOL     OW80820   9.515   2.797   4.623  0.1822 -0.1185 -0.2952
25635SOL    HW180821   9.560   2.713   4.620 -3.5850 -2.3827  0.0886
25635SOL    HW280822   9.521   2.825   4.714  1.1815 -0.0852 -0.3608
25636SOL     OW80823   5.014   6.835   9.870  0.0814 -0.2691  0.0195
25636SOL    HW180824   5.086   6.881   9.914 -0.9114  0.7338  0.6282
25636SOL    HW280825   5.050   6.748   9.850  2.1344  0.8404 -1.4882
25637SOL     OW80826   8.370   8.649   4.829  0.1213 -0.0799 -0.2766
25637SOL    HW180827   8.281   8.658   4.864  0.4866  1.2147  0.4131
25637SOL    HW280828   8.418   8.604   4.899  0.0910 -0.4232 -0.4796
25638SOL     OW80829   6.682   8.371   7.225  0.2206 -0.7393  0.0289
25638SOL    HW180830   6.743   8.298   7.236  2.3497  0.9182 -0.0657
25638SOL    HW280831   6.723   8.427   7.159 -0.3951  1.4312  1.3658
25639SOL     OW80832   6.898   7.209   4.388 -0.0483  0.5209 -0.0583
25639SOL    HW180833   6.912   7.185   4.480  0.6751  3.0236  0.5499
25639SOL    HW280834   6.847   7.290   4.392 -0.2552  0.5174 -1.8863
25640SOL     OW80835   1.348   4.658   0.128  0.3221 -0.0690 -0.5470
25640SOL    HW180836   1.370   4.728   0.189 -0.9957  0.8344 -1.0692
25640SOL    HW280837   1.410   4.588   0.149 -0.5163 -0.0941  2.3231
25641SOL     OW80838   5.416   9.329   5.216  0.1603 -0.0014 -0.0467
25641SOL    HW180839   5.484   9.366   5.273  0.6807  0.3708 -0.8899
25641SOL    HW280840   5.423   9.379   5.135 -1.4303  0.3397 -0.0079
25642SOL     OW80841  10.129   5.185   4.544 -0.2480 -0.1705 -0.4033
25642SOL    HW180842  10.184   5.258   4.574  0.0733  0.6606 -2.7631
25642SOL    HW280843  10.057   5.228   4.498 -2.2499 -1.2926  1.5353
25643SOL     OW80844   5.939   5.810   1.917  0.6289 -0.8052 -0.4347
25643SOL    HW180845   5.863   5.799   1.859  1.5294  1.8992 -2.2928
25643SOL    HW280846   5.913   5.878   1.978  0.6965 -1.6964  0.6229
25644SOL     OW80847   5.576   7.804   2.113  0.4108 -0.1733 -0.0103
25644SOL    HW180848   5.604   7.858   2.187 -0.2437  1.3908 -0.8449
25644SOL    HW280849   5.508   7.856   2.070 -0.4211 -1.7932 -0.7399
25645SOL     OW80850   7.350   2.734   3.998  0.0666 -0.5946  0.3330
25645SOL    HW180851   7.387   2.699   4.079  1.0116 -1.3483 -0.4107
25645SOL    HW280852   7.291   2.666   3.966 -1.5805  0.3630  1.2032
25646SOL     OW80853   0.109   8.594   0.229  0.4772  0.0970 -0.7497
25646SOL    HW180854   0.027   8.578   0.183  0.7126 -2.1118 -0.5087
25646SOL    HW280855   0.103   8.541   0.309  0.9624  2.1740  0.7553
25647SOL     OW80856   8.949   0.828   0.559 -0.2295 -0.2645  0.1190
25647SOL    HW180857   8.892   0.758   0.527 -0.3111  0.0991 -0.5439
25647SOL    HW280858   8.932   0.831   0.653 -1.5308  0.0325 -0.1017
25648SOL     OW80859   0.901   9.804   9.515 -0.4850  0.0865 -0.3523
25648SOL    HW180860   0.925   9.807   9.608  0.3330 -0.8367 -0.5169
25648SOL    HW280861   0.914   9.713   9.490 -4.1713 -0.5558 -0.5120
25649SOL     OW80862   7.323   9.182   8.285  0.5327 -0.0345  0.6742
25649SOL    HW180863   7.342   9.105   8.231  1.3925  0.6783 -0.0574
25649SOL    HW280864   7.355   9.158   8.372  1.3500 -0.2853  0.3117
25650SOL     OW80865   0.541   4.553   7.322  0.1601  0.1772 -0.3261
25650SOL    HW180866   0.635   4.535   7.329  0.6732  0.6280 -3.8889
25650SOL    HW280867   0.536   4.648   7.306 -0.6748 -0.0982 -1.9532
25651SOL     OW80868   5.922   3.900   3.748 -0.2914 -0.2384 -0.1880
25651SOL    HW180869   5.996   3.961   3.750 -0.9197  0.6947 -2.1817
25651SOL    HW280870   5.880   3.910   3.833  1.4457 -0.2546  0.7099
25652SOL     OW80871   9.603   4.731  10.144 -0.3005 -0.2963 -0.3175
25652SOL    HW180872   9.697   4.731  10.125 -0.4895  0.2902 -1.2760
25652SOL    HW280873   9.595   4.675  10.221  1.0383  0.8945  0.7521
25653SOL     OW80874   9.875   1.149   2.182  0.7078  0.0412 -0.0505
25653SOL    HW180875   9.922   1.140   2.264 -0.6519  0.6155  0.8321
25653SOL    HW280876   9.864   1.059   2.150 -0.1017 -0.3306  1.2121
25654SOL     OW80877   5.485   4.137   9.547 -0.2660  0.0333 -0.1980
25654SOL    HW180878   5.511   4.072   9.613 -1.1586 -0.4990 -0.3598
25654SOL    HW280879   5.568   4.176   9.519  0.4632 -2.0889 -1.2004
25655SOL     OW80880   9.269   6.840   4.427 -0.4270 -0.0320  0.4777
25655SOL    HW180881   9.230   6.786   4.496  0.5807 -1.3623  0.0510
25655SOL    HW280882   9.208   6.834   4.354  0.4671 -2.0673 -0.1715
25656SOL     OW80883   2.965   6.612   2.437 -0.1331 -0.1064 -0.1175
25656SOL    HW180884   2.992   6.527   2.403 -1.8903 -0.5410 -0.5327
25656SOL    HW280885   2.869   6.607   2.440 -0.2542  1.7675  0.1113
25657SOL     OW80886   5.639   9.897   7.457 -1.0501  0.1722 -0.6244
25657SOL    HW180887   5.617   9.940   7.374 -0.2920 -1.1368 -1.5359
25657SOL    HW280888   5.651   9.805   7.434 -3.0277 -0.6708  1.3298
25658SOL     OW80889   6.329   4.863   6.199  0.3247  0.0335 -0.5184
25658SOL    HW180890   6.336   4.801   6.271 -1.4147  0.3610 -0.0079
25658SOL    HW280891   6.279   4.817   6.132  0.9760  0.1148 -1.0683
25659SOL     OW80892   2.775   2.218   6.055 -0.5351 -0.0997  0.3982
25659SOL    HW180893   2.760   2.181   5.968  0.4547 -2.0151  0.9941
25659SOL    HW280894   2.776   2.143   6.113  1.3844  0.8740  1.7213
25660SOL     OW80895   3.453   2.346   4.858 -0.1481 -0.0244  0.0210
25660SOL    HW180896   3.453   2.379   4.768  1.6176 -1.4047 -0.5231
25660SOL    HW280897   3.401   2.266   4.854 -1.8855  0.9956  0.7323
25661SOL     OW80898   1.341   6.118   3.297  0.2342 -0.5452 -0.0429
25661SOL    HW180899   1.414   6.152   3.246  1.0849 -0.6376  1.0759
25661SOL    HW280900   1.267   6.176   3.275  1.2669  1.1003  0.6705
25662SOL     OW80901   5.845   2.181   4.194 -0.2238  0.1258  0.4762
25662SOL    HW180902   5.910   2.217   4.134 -0.4501 -0.4777 -0.1411
25662SOL    HW280903   5.802   2.111   4.144 -0.2464 -0.5548  1.4146
25663SOL     OW80904   5.014   8.525   2.887 -0.5382 -0.5202  0.3185
25663SOL    HW180905   4.974   8.441   2.863 -0.3472 -0.6307  0.3792
25663SOL    HW280906   5.102   8.521   2.850 -0.7817 -0.0372 -0.3205
25664SOL     OW80907   4.262   6.265   9.980 -0.1639  0.1925 -0.3706
25664SOL    HW180908   4.272   6.357   9.956  2.2139  0.6299  1.8522
25664SOL    HW280909   4.193   6.265  10.046 -3.8689 -0.4926 -3.8151
25665SOL     OW80910   9.717   1.168   7.942 -0.0836 -0.4922  0.4027
25665SOL    HW180911   9.779   1.162   7.870  1.2275  1.3573  1.2998
25665SOL    HW280912   9.631   1.170   7.900  0.5871 -0.6945 -1.0224
25666SOL     OW80913  10.000  10.043   2.806  0.1024  0.4280  0.1906
25666SOL    HW180914  10.089  10.074   2.823 -0.7453  2.0904  1.9672
25666SOL    HW280915  10.008   9.948   2.806  2.0424  0.5384 -0.8037
25667SOL     OW80916   5.977   8.212   6.149 -0.2810 -0.0578  0.0244
25667SOL    HW180917   5.934   8.207   6.234  0.7481  0.8522  0.6228
25667SOL    HW280918   5.985   8.120   6.122 -1.7051 -0.2945  0.3255
25668SOL     OW80919   3.807   8.601   7.648  0.4257  0.7854 -0.3866
25668SOL    HW180920   3.837   8.670   7.707  0.2069 -0.0819  0.7718
25668SOL    HW280921   3.716   8.624   7.627  1.3562  2.7094 -2.8581
25669SOL     OW80922   5.059   4.835   9.658  0.1187 -1.0427 -0.2488
25669SOL    HW180923   5.047   4.815   9.750 -0.1554 -1.8620 -0.4570
25669SOL    HW280924   5.117   4.766   9.626  2.4237  0.6946 -0.1080
25670SOL     OW80925   2.656   2.275   9.634 -0.1418 -0.0194  0.0065
25670SOL    HW180926   2.646   2.185   9.605  0.3966 -0.2370  0.4881
25670SOL    HW280927   2.605   2.326   9.571 -1.2759 -0.7409  0.3132
25671SOL     OW80928  10.118   9.613   9.094 -0.1574 -0.2942  0.4816
25671SOL    HW180929  10.103   9.600   9.188 -1.6432  0.1037  0.3292
25671SOL    HW280930  10.044   9.571   9.052 -0.7758  1.5416 -0.3779
25672SOL     OW80931   7.730   1.353   9.361  0.1073  0.2734  0.2337
25672SOL    HW180932   7.658   1.354   9.298  0.8856 -1.2187 -0.7658
25672SOL    HW280933   7.803   1.394   9.315  0.7493 -1.0315  0.0176
25673SOL     OW80934   4.783   1.153   1.395  0.2197  0.0820 -0.0945
25673SOL    HW180935   4.774   1.149   1.491 -1.1658 -0.0552 -0.2079
25673SOL    HW280936   4.869   1.191   1.381  0.3718  0.2812  1.2198
25674SOL     OW80937   6.342   4.457   6.137 -0.2976 -0.0160  0.0106
25674SOL    HW180938   6.310   4.544   6.112  1.9074  0.1868 -2.5581
25674SOL    HW280939   6.421   4.444   6.084 -1.2024 -4.1231 -0.6823
25675SOL     OW80940   9.041   9.029   6.114  0.0295  0.1256  0.2951
25675SOL    HW180941   8.974   9.039   6.182 -0.2368 -0.9801  0.2046
25675SOL    HW280942   9.118   8.997   6.161 -0.0995 -0.4673  0.1083
25676SOL     OW80943   0.094   8.280   9.100 -0.1190 -0.1994 -0.1576
25676SOL    HW180944   0.184   8.304   9.079 -0.5318  0.3932 -1.3833
25676SOL    HW280945   0.053   8.266   9.014 -1.4984  0.7038  0.3242
25677SOL     OW80946   6.349   0.971   0.077 -0.0980 -0.1449  0.2326
25677SOL    HW180947   6.309   1.039   0.131 -0.8202 -1.1882  1.0394
25677SOL    HW280948   6.299   0.892   0.096  1.4283 -1.1705  0.1594
25678SOL     OW80949   0.803   0.935   3.991  0.6559 -0.4095  0.1310
25678SOL    HW180950   0.788   0.995   3.918  0.1247 -0.4670  0.1902
25678SOL    HW280951   0.835   0.855   3.950 -0.3542 -0.6994 -0.1119
25679SOL     OW80952   5.238   8.794   8.366 -0.4041 -0.4390 -0.1249
25679SOL    HW180953   5.318   8.781   8.314  0.7717  0.3875  1.3822
25679SOL    HW280954   5.187   8.858   8.316  0.8544  0.5989 -0.1506
25680SOL     OW80955   7.228   1.452   4.132  0.2004 -0.4619  0.1405
25680SOL    HW180956   7.187   1.430   4.048 -1.0210 -0.8634  0.8248
25680SOL    HW280957   7.320   1.431   4.119  0.0235 -0.5840 -1.0809
25681SOL     OW80958   6.964   8.505   1.862  0.5848 -0.1145  0.2561
25681SOL    HW180959   6.981   8.444   1.790 -0.4487  0.8287 -0.8223
25681SOL    HW280960   6.869   8.513   1.864  0.5894 -0.2557  1.8605
25682SOL     OW80961   6.496   6.902   3.144 -0.1644  0.1425  0.4460
25682SOL    HW180962   6.424   6.852   3.183 -0.9352  0.0986 -0.9641
25682SOL    HW280963   6.564   6.838   3.127 -0.3365 -0.0599  0.5163
25683SOL     OW80964   3.982   5.293   7.590 -0.1072 -0.0748 -0.2791
25683SOL    HW180965   3.935   5.372   7.616  1.3586  1.4619 -2.0312
25683SOL    HW280966   3.912   5.230   7.571 -1.3548  1.0676  0.3029
25684SOL     OW80967   6.835   2.125   9.154 -0.4431  0.2339  0.4242
25684SOL    HW180968   6.814   2.217   9.171 -1.4670  0.2700 -0.8817
25684SOL    HW280969   6.926   2.126   9.126 -0.6610  0.9725 -0.3270
25685SOL     OW80970   1.710   0.167   3.014 -0.4455 -0.0078 -0.7001
25685SOL    HW180971   1.724   0.241   2.955 -1.1293  0.6915 -0.0173
25685SOL    HW280972   1.640   0.196   3.072 -0.1280 -0.8617  0.1365
25686SOL     OW80973   2.243   9.365   8.726 -0.0025 -0.5030  0.1781
25686SOL    HW180974   2.307   9.300   8.697  0.5022 -0.3964  1.0423
25686SOL    HW280975   2.244   9.432   8.658  2.7994  0.8823  1.4024
25687SOL     OW80976   7.222   3.232   9.026 -0.3556  0.3708 -0.3655
25687SOL    HW180977   7.221   3.206   9.118  1.5861 -0.6087 -0.5572
25687SOL    HW280978   7.295   3.294   9.020 -1.8181  2.1194 -0.8760
25688SOL     OW80979   1.572   9.044   1.064 -0.2187 -0.1784 -1.0189
25688SOL    HW180980   1.634   8.980   1.030  0.4217  0.5785 -1.3025
25688SOL    HW280981   1.626   9.118   1.091 -0.7416 -0.5656  1.2770
25689SOL     OW80982   8.762   5.398   4.350 -0.0637 -0.5966 -0.0966
25689SOL    HW180983   8.849   5.415   4.385 -0.0566 -1.1270  0.1591
25689SOL    HW280984   8.776   5.369   4.260 -0.1538  2.0467 -1.0573
25690SOL     OW80985   5.515   8.735   0.797 -0.1472  0.3131 -0.0385
25690SOL    HW180986   5.439   8.731   0.854  1.8101 -0.7508  2.7201
25690SOL    HW280987   5.561   8.815   0.824  0.6355 -0.0235 -0.3561
25691SOL     OW80988   8.267   0.792   3.184 -0.4454 -0.4436  0.0647
25691SOL    HW180989   8.279   0.698   3.196 -1.8122 -1.0000 -2.1786
25691SOL    HW280990   8.347   0.821   3.140 -1.2561 -1.2955 -2.1672
25692SOL     OW80991   5.943   8.855   1.898 -0.0594  0.1770 -0.2390
25692SOL    HW180992   5.910   8.940   1.927  0.5203  0.3675 -0.1240
25692SOL    HW280993   5.998   8.875   1.822  0.9883  0.0457  0.4640
25693SOL     OW80994   5.435   4.477   7.306  0.3301 -0.1138  0.9438
25693SOL    HW180995   5.436   4.538   7.379 -1.5024 -0.0065  0.9322
25693SOL    HW280996   5.520   4.488   7.263  0.2161  2.0787  1.2133
25694SOL     OW80997   1.389   2.070   1.001 -0.2631 -0.0794 -0.2308
25694SOL    HW180998   1.368   2.043   1.091 -2.2289 -0.8697 -0.8576
25694SOL    HW280999   1.418   2.161   1.009  0.8675 -0.5381  1.3228
25695SOL     OW81000   6.110   8.380   4.453 -0.1001  0.7853 -0.2638
25695SOL    HW181001   6.073   8.395   4.366  1.2091  4.4140 -0.3794
25695SOL    HW281002   6.204   8.388   4.441  0.4773 -2.5206  0.9746
25696SOL     OW81003   5.323   5.946   4.206  0.0040  0.4156 -0.1171
25696SOL    HW181004   5.416   5.965   4.196 -0.1570  0.2340 -2.7355
25696SOL    HW281005   5.280   6.032   4.201 -0.1306  0.2658 -2.3647
25697SOL     OW81006  10.066   0.531   3.465  0.1887  0.1317 -0.2688
25697SOL    HW181007  10.057   0.551   3.558  1.9703  0.3791 -0.1135
25697SOL    HW281008  10.071   0.616   3.422  1.0668  0.0465 -0.3698
25698SOL     OW81009   4.243   9.109   0.833  0.2651  0.2224 -0.2563
25698SOL    HW181010   4.297   9.081   0.758  0.0659  1.8156 -1.0194
25698SOL    HW281011   4.290   9.075   0.909  1.0659 -0.4727 -1.0296
25699SOL     OW81012   2.603   8.589   1.026  0.2085  0.7404  0.6282
25699SOL    HW181013   2.667   8.568   0.957 -1.6130  0.7099 -1.1511
25699SOL    HW281014   2.603   8.511   1.083 -0.9762 -1.0012 -1.5715
25700SOL     OW81015   2.841   0.811   6.315 -0.2521  0.4442  0.4689
25700SOL    HW181016   2.859   0.825   6.408 -0.7695 -2.3821  1.0767
25700SOL    HW281017   2.818   0.898   6.282  3.0588  2.1808  2.1751
25701SOL     OW81018   8.756   3.950   0.801 -0.1363  0.0230 -0.4398
25701SOL    HW181019   8.814   3.877   0.826  0.7194  0.5007 -0.9996
25701SOL    HW281020   8.806   4.028   0.822 -0.6591  0.4469 -0.7616
25702SOL     OW81021   7.000   4.372   2.951 -0.2986  0.2930  0.1824
25702SOL    HW181022   7.074   4.339   2.899 -0.7964  1.7290 -1.5300
25702SOL    HW281023   7.023   4.350   3.042 -0.2137 -3.9431 -0.6273
25703SOL     OW81024   5.777   8.841   4.944 -0.0305 -0.0808  0.0904
25703SOL    HW181025   5.723   8.833   5.022  0.2827  0.5981  0.3885
25703SOL    HW281026   5.715   8.864   4.875 -0.1106  0.9164  0.4770
25704SOL     OW81027   5.749   3.913   8.712 -0.1162 -0.3488  0.4762
25704SOL    HW181028   5.733   3.821   8.733 -0.2704 -0.0606  1.7373
25704SOL    HW281029   5.827   3.936   8.762  0.9863 -0.2431 -1.2226
25705SOL     OW81030   7.182   8.471   3.613 -0.1113 -0.0844  0.2360
25705SOL    HW181031   7.122   8.502   3.544 -0.8105  0.7066  1.1649
25705SOL    HW281032   7.215   8.551   3.653  0.9126 -0.5325  0.3050
25706SOL     OW81033   9.072   5.589   5.463  0.2136 -0.5291  0.0192
25706SOL    HW181034   9.016   5.660   5.431  0.1011 -0.3371  0.6273
25706SOL    HW281035   9.049   5.581   5.555  0.6046 -1.0077  0.0751
25707SOL     OW81036   9.754   9.707   1.541 -0.5655 -0.2254  0.0940
25707SOL    HW181037   9.674   9.657   1.559 -0.4503 -0.4482 -0.0023
25707SOL    HW281038   9.768   9.696   1.447 -0.0720 -0.7180  0.2162
25708SOL     OW81039   9.676   8.439   9.414 -0.5909 -0.7030  0.2046
25708SOL    HW181040   9.732   8.447   9.337  1.1844 -0.6267  1.4398
25708SOL    HW281041   9.589   8.467   9.385  0.4930  1.3472 -1.2238
25709SOL     OW81042   4.690   0.683   0.260 -0.4457  0.1986  0.2246
25709SOL    HW181043   4.765   0.684   0.319 -0.9765  2.1213  0.9329
25709SOL    HW281044   4.728   0.694   0.173  0.1928 -0.5136  0.4012
25710SOL     OW81045   0.465   8.197   3.096 -0.1762  0.0474  0.2339
25710SOL    HW181046   0.547   8.157   3.066 -0.6456 -0.0779 -0.9577
25710SOL    HW281047   0.450   8.158   3.182  0.5209 -0.6524  0.0596
25711SOL     OW81048   4.000   6.162   6.848  0.1941  0.4949  0.3378
25711SOL    HW181049   3.965   6.239   6.802 -1.5928 -0.4545  0.0222
25711SOL    HW281050   3.924   6.121   6.888  0.7906 -2.0494 -0.8961
25712SOL     OW81051   9.589   2.622  10.013  0.1635  0.5172  0.5705
25712SOL    HW181052   9.560   2.700   9.966  1.0895  1.1524  1.0142
25712SOL    HW281053   9.532   2.552   9.982  0.8866  0.8463 -1.6944
25713SOL     OW81054   8.402   1.429   2.942 -0.1380 -0.0910  0.4479
25713SOL    HW181055   8.493   1.455   2.953  0.1532 -1.4912  1.6598
25713SOL    HW281056   8.364   1.434   3.031 -0.3289 -2.6029  0.5922
25714SOL     OW81057   2.268   8.520   9.980  0.6134 -0.3951  0.0999
25714SOL    HW181058   2.210   8.490   9.910  0.3818  0.8320 -0.2672
25714SOL    HW281059   2.287   8.442  10.031  0.5952 -1.2627 -1.1958
25715SOL     OW81060   2.345   6.285   8.434 -0.2435 -0.4297 -0.0857
25715SOL    HW181061   2.401   6.344   8.384  0.5081 -0.0294  1.1809
25715SOL    HW281062   2.386   6.199   8.425 -0.1544 -0.3747 -0.2070
25716SOL     OW81063   8.791   0.971   8.740 -0.3794 -0.1885  0.0069
25716SOL    HW181064   8.818   1.061   8.758  2.3659 -1.1482  1.1429
25716SOL    HW281065   8.709   0.961   8.787 -0.5728  1.6033  0.1394
25717SOL     OW81066   5.940   6.977   7.643 -0.4216 -0.0535  0.0132
25717SOL    HW181067   5.995   6.987   7.721 -0.1675  1.4524 -0.3195
25717SOL    HW281068   5.945   6.884   7.621 -0.2090 -0.4455  1.5691
25718SOL     OW81069   3.612   1.087   5.801 -0.2334  0.0328 -0.2671
25718SOL    HW181070   3.635   1.102   5.892 -1.0303  0.6260 -0.1490
25718SOL    HW281071   3.695   1.067   5.758  0.2138  0.2108  0.4909
25719SOL     OW81072   3.679   3.729   8.894  0.3941  0.1917  0.4828
25719SOL    HW181073   3.754   3.751   8.838 -0.5032 -1.3972 -1.4593
25719SOL    HW281074   3.711   3.657   8.948  1.1638  1.5282  1.9132
25720SOL     OW81075   3.763   9.901   6.894  0.0129 -0.3687 -0.1983
25720SOL    HW181076   3.740   9.855   6.974 -0.0292 -0.5061 -0.2893
25720SOL    HW281077   3.820   9.973   6.922 -1.5852  0.8059  0.2108
25721SOL     OW81078   4.357   6.114   4.139  0.4072  0.2417  0.1283
25721SOL    HW181079   4.306   6.035   4.118  1.2219  0.1074 -1.5080
25721SOL    HW281080   4.435   6.108   4.084  0.8347  1.8397  0.5019
25722SOL     OW81081   2.807   0.194   8.019 -0.2027  0.3305  0.0403
25722SOL    HW181082   2.854   0.183   8.102  1.3737  0.3265 -0.8201
25722SOL    HW281083   2.760   0.277   8.029 -0.3728  0.1196  1.0907
25723SOL     OW81084   5.720   1.658   4.305  0.0150 -0.4485 -0.3203
25723SOL    HW181085   5.692   1.643   4.396 -1.4062 -0.4228 -0.7282
25723SOL    HW281086   5.704   1.574   4.262 -0.5111 -0.0934 -0.8238
25724SOL     OW81087  10.074   1.496   8.468  0.1767 -0.7995  0.3054
25724SOL    HW181088  10.162   1.490   8.505  0.0332 -4.3941  0.4173
25724SOL    HW281089  10.047   1.405   8.457 -3.1169  0.1869 -0.7824
25725SOL     OW81090   1.446   6.962   9.063  0.3063  0.6173 -0.3099
25725SOL    HW181091   1.379   7.026   9.039  1.6987  2.5257  0.5893
25725SOL    HW281092   1.406   6.877   9.047 -1.9135  1.7018 -0.8323
25726SOL     OW81093   1.533   9.055   3.220  0.4533 -0.3098  0.3230
25726SOL    HW181094   1.449   9.032   3.179 -0.0343  1.2472  0.3662
25726SOL    HW281095   1.508   9.088   3.307  1.1322  0.0125  0.3988
25727SOL     OW81096   1.784   2.098   7.379 -0.2369  0.6576  0.6101
25727SOL    HW181097   1.811   2.006   7.382  1.2057  1.0155 -0.2604
25727SOL    HW281098   1.865   2.146   7.360 -0.8754  2.1581  1.5276
25728SOL     OW81099   1.620   2.715   1.160 -0.1214 -0.2864  0.1472
25728SOL    HW181100   1.586   2.641   1.110 -1.5485  0.3598  0.1193
25728SOL    HW281101   1.543   2.752   1.203  1.0355 -1.0284  3.1560
25729SOL     OW81102   9.938   0.305   1.663 -0.1362 -0.4635 -0.1282
25729SOL    HW181103   9.854   0.344   1.641 -0.2831  0.2074  1.4966
25729SOL    HW281104   9.925   0.211   1.648 -1.5072 -0.4926  0.9980
25730SOL     OW81105   6.586   5.093   4.632  0.0100  0.1092 -0.1679
25730SOL    HW181106   6.581   5.112   4.538  0.8197 -1.0911 -0.4697
25730SOL    HW281107   6.513   5.033   4.648  0.6052 -0.6513 -0.2828
25731SOL     OW81108   7.429   6.472   8.931  0.0926  0.3263 -0.8117
25731SOL    HW181109   7.433   6.389   8.884  0.7517 -0.0539 -0.1108
25731SOL    HW281110   7.396   6.535   8.867  3.1207  0.3307 -2.5511
25732SOL     OW81111   7.802   5.581   5.031 -0.3381  0.5471 -0.4550
25732SOL    HW181112   7.812   5.642   5.105 -1.9160  0.2132  0.0605
25732SOL    HW281113   7.834   5.630   4.955 -0.0937  1.4394  0.2109
25733SOL     OW81114   0.558   6.897   8.261  0.5071  0.0959  0.5084
25733SOL    HW181115   0.592   6.875   8.348 -0.6229  1.1567  1.2491
25733SOL    HW281116   0.574   6.819   8.208  2.3055 -0.1391  1.3332
25734SOL     OW81117   2.382   3.149   4.611  0.0504  0.0447  0.3640
25734SOL    HW181118   2.389   3.232   4.563  1.2800 -0.3597 -0.2032
25734SOL    HW281119   2.385   3.082   4.543  0.9508 -0.5167  0.9372
25735SOL     OW81120   7.919   8.303   2.613 -0.2291  0.3113  0.0416
25735SOL    HW181121   7.920   8.396   2.590 -1.0222  0.0617 -1.0672
25735SOL    HW281122   7.966   8.299   2.697  0.5625  1.5838 -0.3144
25736SOL     OW81123   5.329   7.264   3.097  0.5020  0.5692  0.0493
25736SOL    HW181124   5.275   7.272   3.175 -1.8367  1.0836 -1.5238
25736SOL    HW281125   5.317   7.347   3.050  2.4272  0.5664 -0.5404
25737SOL     OW81126   6.510   2.896   2.794  0.0489  0.2080 -0.0193
25737SOL    HW181127   6.525   2.937   2.708  1.9569  0.4023  0.3677
25737SOL    HW281128   6.473   2.966   2.848  1.9912  1.1077  0.2386
25738SOL     OW81129   0.848  10.150   9.339  0.2950  0.0171 -0.2821
25738SOL    HW181130   0.754  10.135   9.348 -0.2588  1.5321 -2.6342
25738SOL    HW281131   0.879  10.083   9.278  0.5914 -0.0221 -0.0946
25739SOL     OW81132   9.177   9.365   1.764  0.3984  0.3249  0.1144
25739SOL    HW181133   9.220   9.322   1.691 -0.6201  0.0911 -0.3713
25739SOL    HW281134   9.211   9.454   1.764  0.2030  0.4096 -0.8241
25740SOL     OW81135   7.345   9.048   3.882 -0.0700  0.5531  0.0802
25740SOL    HW181136   7.322   9.118   3.944 -1.4984  1.2470 -1.1806
25740SOL    HW281137   7.272   8.986   3.888 -0.0307  0.4313 -0.6181
25741SOL     OW81138   3.832   9.185   1.969 -0.3513  0.0115 -0.1959
25741SOL    HW181139   3.793   9.266   2.002 -0.2829  0.2148 -0.6100
25741SOL    HW281140   3.813   9.185   1.875 -0.2433 -0.3914 -0.2211
25742SOL     OW81141   1.979   0.485   4.742 -0.7093 -0.0859 -0.2005
25742SOL    HW181142   1.890   0.453   4.722 -1.3320  1.1025  0.5601
25742SOL    HW281143   2.009   0.426   4.812 -0.4609 -1.1563 -1.1829
25743SOL     OW81144   7.951  10.055   8.728  0.5457  0.5583  0.5958
25743SOL    HW181145   7.892   9.983   8.750 -0.2004  1.1616  0.6006
25743SOL    HW281146   7.893  10.128   8.706  1.2781  0.8734 -0.3943
25744SOL     OW81147   8.734   8.099   7.425  0.1590  0.2435  0.4080
25744SOL    HW181148   8.653   8.104   7.475 -0.8689 -0.5932 -1.0964
25744SOL    HW281149   8.716   8.149   7.346  1.2265  0.3094  0.1949
25745SOL     OW81150   6.433   7.327   2.919 -0.1168  0.1348  0.0481
25745SOL    HW181151   6.449   7.408   2.968 -0.2334 -0.2676  0.7583
25745SOL    HW281152   6.479   7.259   2.969 -0.2367 -0.2779 -0.3995
25746SOL     OW81153   5.246   8.430   9.459 -0.4737 -0.5084 -0.1473
25746SOL    HW181154   5.178   8.384   9.410 -1.5022 -0.1638  0.9050
25746SOL    HW281155   5.198   8.479   9.525  0.8413 -0.6852  0.9796
25747SOL     OW81156   2.626   7.281   7.517 -0.2021  0.3993 -0.6237
25747SOL    HW181157   2.691   7.340   7.554  0.3726 -0.5961  0.0227
25747SOL    HW281158   2.581   7.245   7.594 -0.9302  0.4245 -1.0308
25748SOL     OW81159   3.821   4.495   6.068  0.1416 -0.1361  0.2265
25748SOL    HW181160   3.782   4.416   6.105  2.4800 -1.9752 -0.9647
25748SOL    HW281161   3.769   4.513   5.990  0.5555 -1.5509 -0.4159
25749SOL     OW81162   9.539   9.233   0.377 -0.6500  0.5147 -0.0856
25749SOL    HW181163   9.571   9.230   0.287  1.0516  0.6611  0.4749
25749SOL    HW281164   9.556   9.145   0.410  0.3482  0.9515  0.5981
25750SOL     OW81165   3.602   0.099   2.170  1.0225 -0.1324  0.1206
25750SOL    HW181166   3.531   0.158   2.145  1.0662 -0.1660 -0.0869
25750SOL    HW281167   3.677   0.156   2.184  0.9489 -0.0950  0.3608
25751SOL     OW81168   6.576   8.444   5.854 -0.2919 -0.0830  0.4509
25751SOL    HW181169   6.560   8.386   5.780 -0.8434  0.2697  0.2859
25751SOL    HW281170   6.612   8.523   5.815 -0.0470 -0.1102  0.6190
25752SOL     OW81171   7.971   6.677   0.966  0.0725  0.1933 -0.4258
25752SOL    HW181172   8.021   6.705   1.043  0.4263 -2.4003  0.3959
25752SOL    HW281173   7.880   6.691   0.990  0.2128  0.0837  0.1933
25753SOL     OW81174   2.217   2.475   3.522 -0.3167 -0.4460 -0.1821
25753SOL    HW181175   2.220   2.400   3.463 -0.7797 -0.6294  0.0299
25753SOL    HW281176   2.297   2.524   3.501  1.3036 -2.2638  1.3711
25754SOL     OW81177   8.635   4.080   2.272  0.2068 -0.3542 -0.5839
25754SOL    HW181178   8.578   4.151   2.304  0.4663  0.5953 -2.1383
25754SOL    HW281179   8.598   4.001   2.311  1.2642  0.7850  3.0924
25755SOL     OW81180   7.145   2.212   5.276 -0.5701 -0.0848  0.2618
25755SOL    HW181181   7.194   2.277   5.326  0.8132  0.8341 -2.1451
25755SOL    HW281182   7.062   2.256   5.254 -1.0934 -0.4192  1.4940
25756SOL     OW81183   2.077   1.305   9.450  0.1037 -0.2257 -0.1411
25756SOL    HW181184   2.009   1.300   9.383 -0.1410  0.4658  0.0537
25756SOL    HW281185   2.129   1.225   9.437 -0.8533 -0.8594 -0.1704
25757SOL     OW81186   0.823   4.826   3.085  0.4493  0.0684 -0.1301
25757SOL    HW181187   0.858   4.835   2.996  1.3472  0.0192  0.2145
25757SOL    HW281188   0.829   4.913   3.122 -0.4790  0.2234 -0.3007
25758SOL     OW81189   1.620   1.143   3.316  0.4797  0.0137 -0.0477
25758SOL    HW181190   1.532   1.110   3.336  0.4136  1.0359  1.4413
25758SOL    HW281191   1.614   1.237   3.329  2.3236 -0.1198  2.2247
25759SOL     OW81192   1.714   6.912   7.499 -0.1762  0.4961  0.0360
25759SOL    HW181193   1.634   6.942   7.542 -0.5373  1.5496 -1.2914
25759SOL    HW281194   1.712   6.954   7.413  0.3206 -1.8302 -1.1934
25760SOL     OW81195  10.049   4.451   3.599  0.2295  0.2774 -0.3171
25760SOL    HW181196  10.056   4.477   3.691  0.5782  2.1724 -0.8240
25760SOL    HW281197  10.017   4.361   3.601 -0.1796  0.4321  1.6393
25761SOL     OW81198   3.542   2.795   6.606  0.3049  0.2333  0.1654
25761SOL    HW181199   3.518   2.873   6.555  0.1672 -0.4591 -0.8623
25761SOL    HW281200   3.481   2.728   6.577  0.5204 -0.2988  0.9318
25762SOL     OW81201   8.080  10.147   3.397  0.2375 -0.1003  0.1645
25762SOL    HW181202   8.171  10.171   3.412  0.5810  0.1001 -1.9067
25762SOL    HW281203   8.083  10.053   3.376  0.0458 -0.0007 -0.3328
25763SOL     OW81204   6.994   8.783   0.142  0.0580 -0.3700 -0.8555
25763SOL    HW181205   6.902   8.805   0.125 -0.0264 -1.1063 -1.3842
25763SOL    HW281206   7.030   8.762   0.055  0.4112 -1.2441 -0.5046
25764SOL     OW81207   4.873   2.551   0.731  0.7619 -1.1325  0.0280
25764SOL    HW181208   4.962   2.518   0.720  1.3125 -0.9461  3.0695
25764SOL    HW281209   4.823   2.474   0.759  0.3814 -0.8664  0.0828
25765SOL     OW81210   9.810   8.424   7.310 -0.1547  0.3266 -0.2302
25765SOL    HW181211   9.776   8.486   7.374  0.7818  0.1055  0.4979
25765SOL    HW281212   9.840   8.478   7.237  0.8563  0.7575  0.4935
25766SOL     OW81213   2.947   3.109   5.550 -0.0741  0.4712  0.1701
25766SOL    HW181214   2.856   3.081   5.544  0.0822  0.1841 -1.3156
25766SOL    HW281215   2.945   3.203   5.531 -0.1485  0.6405  1.0011
25767SOL     OW81216   6.535   0.149   2.134 -0.3237  0.6147 -0.1296
25767SOL    HW181217   6.525   0.212   2.206  0.9750  1.1943 -0.4260
25767SOL    HW281218   6.457   0.162   2.080 -0.1281  1.9372 -0.1393
25768SOL     OW81219   6.871   6.168   0.882 -0.2101  0.3884 -0.1564
25768SOL    HW181220   6.897   6.250   0.925 -0.5206 -0.1851  1.1651
25768SOL    HW281221   6.778   6.158   0.904 -0.5616  0.4205 -1.5501
25769SOL     OW81222   4.662   6.651   2.791 -0.1008  0.1386 -0.4503
25769SOL    HW181223   4.691   6.582   2.850  0.5198  1.1270  0.4404
25769SOL    HW281224   4.597   6.700   2.841 -1.0358 -0.1711 -1.3123
25770SOL     OW81225   5.129   3.425   8.286  0.3092  0.6441 -0.2923
25770SOL    HW181226   5.164   3.495   8.340  0.5346 -0.8696  1.6351
25770SOL    HW281227   5.179   3.430   8.205 -0.6762  3.5665 -0.8340
25771SOL     OW81228   6.386   9.397   2.442 -0.1794 -0.0828 -0.0297
25771SOL    HW181229   6.416   9.377   2.353  1.4800  0.9435  0.2426
25771SOL    HW281230   6.460   9.373   2.498 -1.2656 -0.8648  1.1141
25772SOL     OW81231   2.349   6.855   6.663 -0.2799  0.1801  0.1112
25772SOL    HW181232   2.272   6.906   6.635  0.7603  0.9727 -1.4416
25772SOL    HW281233   2.422   6.917   6.658  1.0044 -1.3580 -1.6697
25773SOL     OW81234   8.980   0.527   2.870 -0.1869  0.3735 -0.4336
25773SOL    HW181235   8.991   0.584   2.946 -0.0131  1.0656 -0.9688
25773SOL    HW281236   9.004   0.582   2.795 -1.4983  0.0761 -1.1027
25774SOL     OW81237   6.434   6.429   6.296  0.0089 -0.4548  0.3602
25774SOL    HW181238   6.353   6.437   6.245 -0.1270 -2.1681  0.2553
25774SOL    HW281239   6.503   6.420   6.231 -0.0569 -1.7335  0.4480
25775SOL     OW81240   9.538   4.352   5.315 -0.3931  0.8618  0.3942
25775SOL    HW181241   9.449   4.325   5.337  0.2371 -1.2858  0.5511
25775SOL    HW281242   9.561   4.299   5.238  0.4006  2.1345 -0.2833
25776SOL     OW81243   2.080   4.023   6.958 -0.1290  0.3264  0.8303
25776SOL    HW181244   2.088   4.109   6.916  0.0124 -1.6256 -3.6344
25776SOL    HW281245   2.170   3.994   6.970 -0.1864  0.0487  0.5893
25777SOL     OW81246   9.342   3.938   2.434  0.3112 -0.2587 -0.1056
25777SOL    HW181247   9.342   3.855   2.386 -0.6104 -1.7997  2.3464
25777SOL    HW281248   9.250   3.952   2.456  0.4674  1.4238 -0.4018
25778SOL     OW81249   5.066   0.660   1.770  0.1026  0.4264 -0.4909
25778SOL    HW181250   5.008   0.735   1.783 -0.6116 -0.0844 -0.6619
25778SOL    HW281251   5.118   0.656   1.850  0.1115  1.0691 -0.4573
25779SOL     OW81252   1.052   6.340   9.564  0.1165 -0.0480 -0.1800
25779SOL    HW181253   0.965   6.379   9.553  1.1729  2.4765 -0.0696
25779SOL    HW281254   1.082   6.322   9.475 -0.1204 -0.0267 -0.2659
25780SOL     OW81255   9.660   0.506   6.643  0.5889 -0.7677  0.0608
25780SOL    HW181256   9.667   0.440   6.712  1.4066 -2.0077 -1.1476
25780SOL    HW281257   9.751   0.529   6.623  0.3333  1.5598  1.1487
25781SOL     OW81258   0.893   8.686   7.233 -0.0198 -0.0244  0.0918
25781SOL    HW181259   0.944   8.621   7.282 -2.4337 -1.7366  0.4892
25781SOL    HW281260   0.865   8.640   7.154 -0.6177  0.9964 -0.3169
25782SOL     OW81261   7.395   0.993   8.384 -0.0114 -0.2796 -0.1238
25782SOL    HW181262   7.348   0.948   8.454 -0.4275  1.0973  0.5131
25782SOL    HW281263   7.474   1.027   8.426  0.4900 -0.7150 -0.6873
25783SOL     OW81264   9.850   2.446   8.748 -0.4899 -0.3738  0.2579
25783SOL    HW181265   9.874   2.389   8.675  0.0294  0.6498 -0.3926
25783SOL    HW281266   9.755   2.452   8.744 -0.3920  0.9453 -1.3643
25784SOL     OW81267   0.860   7.684   2.539 -0.3360  0.8198 -0.2746
25784SOL    HW181268   0.857   7.763   2.592  0.8821  0.1262  0.8710
25784SOL    HW281269   0.942   7.690   2.490 -0.0241  0.0815  0.1388
25785SOL     OW81270   3.401   7.319   3.598 -0.3674  0.1563 -0.3398
25785SOL    HW181271   3.381   7.381   3.668  1.0363  0.3495 -0.0868
25785SOL    HW281272   3.338   7.340   3.529 -0.8595  0.8856  0.3121
25786SOL     OW81273   5.762   1.232   3.442 -0.2604  0.5910 -0.0650
25786SOL    HW181274   5.718   1.316   3.430  0.6028  0.8386 -1.7779
25786SOL    HW281275   5.831   1.251   3.506 -0.0688  1.2000 -0.4431
25787SOL     OW81276   8.489   0.677   6.634  0.0797  0.3040  0.6219
25787SOL    HW181277   8.476   0.584   6.657  0.1405  0.1844  0.1736
25787SOL    HW281278   8.403   0.717   6.651 -0.2464 -0.0390 -0.1689
25788SOL     OW81279   4.677   1.441   1.777 -0.1462  0.1850  0.4069
25788SOL    HW181280   4.696   1.347   1.780  0.0920  0.2172  0.0236
25788SOL    HW281281   4.582   1.446   1.782 -0.0749  0.0334  2.5209
25789SOL     OW81282   7.916   3.651   4.255  0.5672  0.3094 -0.1459
25789SOL    HW181283   7.977   3.653   4.182  0.8828  0.0256  0.1094
25789SOL    HW281284   7.891   3.559   4.263 -0.6872  0.5600 -0.9004
25790SOL     OW81285   2.504   4.765   6.799  0.2309  0.3135 -0.2293
25790SOL    HW181286   2.552   4.773   6.882  0.1023  1.9158 -0.2853
25790SOL    HW281287   2.488   4.855   6.772 -1.6289 -0.1786 -0.9057
25791SOL     OW81288   0.865   5.214   1.376  0.1857 -0.0358 -0.4636
25791SOL    HW181289   0.883   5.190   1.285 -1.0937  0.1890 -0.8001
25791SOL    HW281290   0.773   5.190   1.389  0.2540  0.2699  0.6657
25792SOL     OW81291   2.543   6.591   2.977 -0.0013 -0.2209  0.0088
25792SOL    HW181292   2.540   6.508   2.929 -1.8855 -1.0918  1.4585
25792SOL    HW281293   2.489   6.651   2.926  2.4538  0.6575 -1.7740
25793SOL     OW81294   3.643   9.252   9.741 -0.1342 -0.6873  0.3225
25793SOL    HW181295   3.557   9.220   9.766  0.4070 -1.3931  1.3529
25793SOL    HW281296   3.639   9.261   9.646 -1.7636  0.5953  0.4583
25794SOL     OW81297   2.486   4.481   8.509 -0.1422  0.0176 -0.6009
25794SOL    HW181298   2.516   4.555   8.456  0.3899  0.6398  0.5211
25794SOL    HW281299   2.445   4.523   8.586 -1.2685 -0.8464 -0.7055
25795SOL     OW81300   9.652   5.980   1.951  0.7668  0.0488  0.2097
25795SOL    HW181301   9.728   5.975   2.008 -0.2046 -0.9411  1.5001
25795SOL    HW281302   9.593   6.042   1.994  0.5996  0.3413 -0.4390
25796SOL     OW81303   8.097   6.773   4.075  0.4534 -0.0399  0.4541
25796SOL    HW181304   8.098   6.720   3.995  2.3489 -0.1524  0.5047
25796SOL    HW281305   8.177   6.825   4.069 -0.4278  1.4578  1.3144
25797SOL     OW81306   0.147   0.374   3.100  0.2140 -0.0676 -0.3419
25797SOL    HW181307   0.071   0.318   3.083 -0.8555  1.3327 -0.2587
25797SOL    HW281308   0.169   0.358   3.192 -0.7529  0.4361 -0.0185
25798SOL     OW81309   2.392   4.388   6.072  0.0114  0.2228 -0.0922
25798SOL    HW181310   2.414   4.327   6.003  0.0081  0.3655 -0.2199
25798SOL    HW281311   2.462   4.378   6.137  0.5247  0.7610 -0.5532
25799SOL     OW81312   8.612   5.377  10.125  0.3659 -0.1906  0.1156
25799SOL    HW181313   8.695   5.406  10.161  0.4570  0.6419 -0.7274
25799SOL    HW281314   8.614   5.281  10.131  2.0200 -0.2862 -1.2260
25800SOL     OW81315   0.770   8.483   7.833 -0.0203 -0.4332 -0.0162
25800SOL    HW181316   0.838   8.507   7.897 -0.9997  0.3363  0.7706
25800SOL    HW281317   0.702   8.441   7.886 -0.3027 -0.9039 -0.7492
25801SOL     OW81318   1.960   2.010   7.921 -0.8059  0.1562  0.2927
25801SOL    HW181319   1.941   2.104   7.924 -0.4804  0.2163  0.7945
25801SOL    HW281320   2.008   1.994   8.003 -1.7147 -0.6378  0.6761
25802SOL     OW81321   8.137   0.415   1.384 -0.2099 -0.4201 -0.1935
25802SOL    HW181322   8.148   0.486   1.447  0.2465 -1.8168  1.3922
25802SOL    HW281323   8.217   0.362   1.394  0.3192 -0.1904 -2.6583
25803SOL     OW81324   2.256   8.384   2.537 -0.1740  0.2088 -0.1355
25803SOL    HW181325   2.227   8.406   2.626  2.2529 -0.6621  0.9831
25803SOL    HW281326   2.245   8.465   2.488 -1.9816  0.5890  0.8230
25804SOL     OW81327   2.203   4.826   8.987 -0.4351  0.4271  0.3998
25804SOL    HW181328   2.242   4.837   8.900  0.4915  2.1564  0.9684
25804SOL    HW281329   2.114   4.858   8.977 -0.8294 -0.8267 -0.2524
25805SOL     OW81330   7.955   2.264   2.875 -0.6429 -0.4451 -0.2170
25805SOL    HW181331   7.865   2.257   2.844 -0.7401  0.2545 -0.1067
25805SOL    HW281332   7.972   2.358   2.878  0.6343 -0.5935 -1.7719
25806SOL     OW81333   0.706   7.948   0.287  0.4589  0.7112  0.1415
25806SOL    HW181334   0.686   7.940   0.194 -0.4707  0.0179  0.3866
25806SOL    HW281335   0.698   8.041   0.306 -0.8270  0.6808 -0.1686
25807SOL     OW81336   7.616   4.751   5.513 -0.2502  0.1409 -0.2626
25807SOL    HW181337   7.686   4.689   5.496  0.1575  1.2325 -3.1834
25807SOL    HW281338   7.655   4.817   5.571  1.1563  0.6610 -1.7320
25808SOL     OW81339   3.645   2.959   5.428  0.2965  0.0924  0.2183
25808SOL    HW181340   3.606   2.971   5.514  1.0948 -0.4710  0.6736
25808SOL    HW281341   3.571   2.949   5.369 -0.2713 -0.9594  1.0636
25809SOL     OW81342   2.038   7.134   7.866  0.5617 -0.1879  0.6409
25809SOL    HW181343   1.980   7.148   7.941  0.6512 -0.6541  0.8069
25809SOL    HW281344   2.080   7.218   7.852  0.3347 -0.0212  0.9424
25810SOL     OW81345   9.504   5.857   3.875 -0.1269  0.5817  0.3389
25810SOL    HW181346   9.499   5.878   3.782  0.2419  1.0135  0.4175
25810SOL    HW281347   9.504   5.942   3.920 -2.2856  0.3807  0.8434
25811SOL     OW81348   0.068  10.162   3.253  0.3470 -0.0320  0.1092
25811SOL    HW181349   0.062  10.067   3.246  1.2893 -0.0458 -0.7142
25811SOL    HW281350   0.105  10.178   3.340  0.0850 -0.4117  0.2907
25812SOL     OW81351   6.968   3.273   0.525 -0.0553 -0.1175 -0.5270
25812SOL    HW181352   6.950   3.183   0.553 -0.5295  0.1459  0.0383
25812SOL    HW281353   6.882   3.309   0.504 -0.0917  0.7490  0.9336
25813SOL     OW81354   7.659   8.149   7.760  0.5163 -0.3574 -0.4144
25813SOL    HW181355   7.682   8.237   7.790  0.3346 -1.1628  2.3535
25813SOL    HW281356   7.580   8.127   7.809  0.8857 -2.2681 -0.6150
25814SOL     OW81357   9.541   5.615   9.168 -0.3321  0.1135  0.3499
25814SOL    HW181358   9.534   5.660   9.252  0.3875  0.4337  0.2419
25814SOL    HW281359   9.589   5.535   9.188  0.4360  0.5096  0.1341
25815SOL     OW81360   6.729   9.751   9.869  0.4172  0.0063  0.1376
25815SOL    HW181361   6.688   9.666   9.851 -0.5464  0.5441 -0.3215
25815SOL    HW281362   6.708   9.769   9.960 -1.9689  1.0461 -0.5085
25816SOL     OW81363  10.092   9.545   1.536  0.1229  0.1339  0.2743
25816SOL    HW181364  10.037   9.470   1.514 -0.2354 -0.2119  2.1752
25816SOL    HW281365  10.035   9.620   1.525 -1.1336 -0.2787  3.0801
25817SOL     OW81366   0.428   0.595   4.471 -0.2402 -0.7022  0.3918
25817SOL    HW181367   0.398   0.682   4.499 -0.4746 -0.8678  0.6594
25817SOL    HW281368   0.368   0.534   4.515 -0.7323 -0.9624 -0.6167
25818SOL     OW81369   5.814   0.402   7.360 -0.6679 -0.1808  0.5671
25818SOL    HW181370   5.759   0.458   7.306  0.2178  0.1707  0.0065
25818SOL    HW281371   5.847   0.460   7.429  1.1111  0.2977 -0.6296
25819SOL     OW81372   6.503   1.723   4.328 -0.4610 -0.4618  0.3692
25819SOL    HW181373   6.509   1.784   4.402 -0.4788 -0.1111  0.0851
25819SOL    HW281374   6.521   1.637   4.366 -1.4419 -0.4212  0.9791
25820SOL     OW81375   5.572  10.080   5.122 -0.6642  0.2478 -0.3520
25820SOL    HW181376   5.501  10.016   5.117 -0.3113 -0.1141 -0.9017
25820SOL    HW281377   5.652  10.028   5.127 -0.2669  0.5907 -2.2534
25821SOL     OW81378   9.056   5.218   2.057 -0.2479  0.3409  0.6957
25821SOL    HW181379   9.112   5.285   2.017  0.2703 -0.5590 -0.1480
25821SOL    HW281380   9.037   5.157   1.985  0.7566 -1.3694  1.7987
25822SOL     OW81381   9.832   7.712   0.405  0.1704 -0.2826  0.1257
25822SOL    HW181382   9.802   7.622   0.416  2.0649 -0.6493  3.4593
25822SOL    HW281383   9.925   7.704   0.384 -0.0680  0.9464 -1.6557
25823SOL     OW81384   6.970   9.897   7.341  0.3725  0.1444  0.2610
25823SOL    HW181385   6.911   9.968   7.366 -0.3037 -0.1371 -0.4924
25823SOL    HW281386   6.999   9.860   7.424  0.6092  1.1915  0.6647
25824SOL     OW81387   5.263   4.379   9.006 -0.4118 -0.7166  0.0294
25824SOL    HW181388   5.186   4.353   9.056  0.2457 -0.5619  1.1576
25824SOL    HW281389   5.335   4.373   9.068  0.3899 -0.1965 -0.8201
25825SOL     OW81390   1.433   8.535   0.698 -0.0903 -0.3231 -0.5059
25825SOL    HW181391   1.490   8.458   0.704  0.5603  0.2769  2.2900
25825SOL    HW281392   1.345   8.498   0.693  0.2097 -1.2994  0.7376
25826SOL     OW81393   9.641   5.437   4.182 -0.2191  0.7919  0.1430
25826SOL    HW181394   9.633   5.431   4.278 -0.7052  0.3815  0.0794
25826SOL    HW281395   9.587   5.366   4.149  0.4240  0.5558 -0.4259
25827SOL     OW81396   3.182   2.715   5.526 -0.1338  0.1895  0.2263
25827SOL    HW181397   3.137   2.783   5.577 -1.9541 -0.3257 -0.5976
25827SOL    HW281398   3.254   2.686   5.583  0.9521  3.0331  0.4261
25828SOL     OW81399   0.940   9.880   4.272  0.3557  0.1813 -0.4926
25828SOL    HW181400   0.990   9.961   4.270 -0.5221  0.7680  0.3038
25828SOL    HW281401   0.894   9.878   4.188 -0.4012  1.0477 -0.1227
25829SOL     OW81402   8.682   6.580   4.860  0.1875  0.0735  0.2295
25829SOL    HW181403   8.710   6.660   4.816  1.1822 -0.7790 -0.7622
25829SOL    HW281404   8.674   6.604   4.952  1.9711  0.9479  0.1953
25830SOL     OW81405   4.002   1.864   5.780 -0.6028  0.0400 -0.2293
25830SOL    HW181406   4.087   1.823   5.768 -0.2028  1.0915 -1.2077
25830SOL    HW281407   3.968   1.876   5.691 -0.6689  1.8518 -0.0043
25831SOL     OW81408   6.176   9.804   3.228 -0.3470  0.0306  0.4941
25831SOL    HW181409   6.137   9.738   3.170 -0.0234  0.0252  0.2810
25831SOL    HW281410   6.179   9.884   3.175  2.5889 -0.6406 -0.5504
25832SOL     OW81411   2.810   4.028   4.184  0.6208  0.4906  0.1741
25832SOL    HW181412   2.754   4.105   4.175 -0.0543 -0.0660 -0.4493
25832SOL    HW281413   2.840   4.009   4.095  1.7918  0.7626  0.4934
25833SOL     OW81414   6.121   8.735   5.840 -0.2254  0.3676  0.5072
25833SOL    HW181415   6.163   8.721   5.755  1.5462  1.8000  1.0762
25833SOL    HW281416   6.027   8.725   5.822  0.1288  0.1318 -1.5010
25834SOL     OW81417   3.325   8.575   1.168 -0.5831  0.2542  0.2224
25834SOL    HW181418   3.299   8.495   1.212 -3.5644  1.8241  1.6343
25834SOL    HW281419   3.242   8.618   1.144  0.8215  3.2504  0.2196
25835SOL     OW81420   9.539  10.152   4.645 -0.0286 -0.3204 -0.1763
25835SOL    HW181421   9.451  10.165   4.680 -0.7533  1.0620 -2.2907
25835SOL    HW281422   9.586  10.105   4.714 -1.9452  0.3029  1.6608
25836SOL     OW81423   1.650   6.303   5.693 -0.0881  0.2549 -0.5434
25836SOL    HW181424   1.701   6.290   5.613  0.5736  2.3251 -0.5131
25836SOL    HW281425   1.580   6.238   5.687  1.4288 -1.3890 -1.5099
25837SOL     OW81426   7.472   3.960   9.406  0.1829  0.1923  0.3697
25837SOL    HW181427   7.490   3.883   9.353 -0.6373 -1.1361  1.9467
25837SOL    HW281428   7.436   4.024   9.344 -2.2447 -1.8449 -0.4945
25838SOL     OW81429   2.671   4.298   4.066  0.3780 -0.4852 -0.1027
25838SOL    HW181430   2.710   4.358   4.003 -0.1961  0.0217  0.0170
25838SOL    HW281431   2.630   4.230   4.012 -0.9500  0.4613 -0.3384
25839SOL     OW81432   1.091   1.836   5.231 -0.2482 -0.0227 -0.3962
25839SOL    HW181433   1.048   1.755   5.258  0.8179 -0.8161 -1.0252
25839SOL    HW281434   1.121   1.819   5.142  0.9670  0.6615 -0.1370
25840SOL     OW81435   3.768   7.984   2.407 -0.5446 -0.5877  0.1383
25840SOL    HW181436   3.845   8.040   2.404  0.9178 -2.5227 -0.2338
25840SOL    HW281437   3.705   8.027   2.349  0.9214  0.1011 -1.0153
25841SOL     OW81438   2.532   6.301   0.481 -0.2637  0.3476 -0.3879
25841SOL    HW181439   2.553   6.214   0.513 -0.3557  0.6208  0.4461
25841SOL    HW281440   2.464   6.333   0.541 -0.9393  0.6112 -1.2770
25842SOL     OW81441   0.030   4.201   3.357 -0.1498  0.1073 -0.3554
25842SOL    HW181442   0.063   4.211   3.447  1.1390 -0.0486 -0.7785
25842SOL    HW281443  -0.048   4.256   3.353 -0.5450 -0.3180  1.0106
25843SOL     OW81444   9.180   0.428   2.176 -0.0217  0.7669  0.3875
25843SOL    HW181445   9.267   0.412   2.140  0.5559  0.9476  1.6488
25843SOL    HW281446   9.173   0.368   2.250 -0.5945  1.4090  0.8638
25844SOL     OW81447   4.363   8.967   7.663  0.0248  0.2300  0.1436
25844SOL    HW181448   4.315   9.004   7.736 -2.4372 -1.6736 -0.3869
25844SOL    HW281449   4.421   8.902   7.703 -1.1965 -0.6932  0.4777
25845SOL     OW81450   5.527   6.828  10.107  0.6049 -0.1871  0.5974
25845SOL    HW181451   5.465   6.768  10.150 -1.1285  0.5416 -0.7502
25845SOL    HW281452   5.535   6.794  10.018 -0.9185  1.8512 -0.4009
25846SOL     OW81453   7.933   1.633   2.345 -0.3918 -0.1998  0.2685
25846SOL    HW181454   8.019   1.601   2.369 -1.0885 -2.2835  0.1880
25846SOL    HW281455   7.895   1.665   2.427  0.2904  0.4159  0.3591
25847SOL     OW81456   1.418   2.129   6.891 -0.1078  0.1790  0.3493
25847SOL    HW181457   1.504   2.135   6.850 -0.5060  2.0071 -0.3065
25847SOL    HW281458   1.356   2.150   6.821 -1.1682 -1.6998  0.6482
25848SOL     OW81459   3.886   0.764   7.189 -0.1030  0.0204 -0.1126
25848SOL    HW181460   3.948   0.829   7.221 -0.5578 -0.8915  2.9566
25848SOL    HW281461   3.937   0.708   7.131  1.3432  0.6850  0.4597
25849SOL     OW81462   4.473   6.890   5.232  0.2579  0.5891  0.2532
25849SOL    HW181463   4.532   6.933   5.170  0.0128  1.3477  0.5292
25849SOL    HW281464   4.513   6.805   5.250  1.9477  1.5960  1.4254
25850SOL     OW81465   3.101   3.186   3.548  0.5930 -0.0131  0.2527
25850SOL    HW181466   3.107   3.099   3.588  1.2301  1.1493  2.9561
25850SOL    HW281467   3.184   3.197   3.502 -0.0368 -1.2871 -1.2769
25851SOL     OW81468   8.562   6.900   7.588  0.0922  0.5411  0.2079
25851SOL    HW181469   8.527   6.909   7.676 -0.5356 -1.3363  0.1841
25851SOL    HW281470   8.511   6.830   7.548  1.8054 -0.1411 -0.9076
25852SOL     OW81471   4.119   6.447   3.847  0.3459  0.0885  0.4866
25852SOL    HW181472   4.167   6.431   3.929 -1.4180 -1.2570  1.3138
25852SOL    HW281473   4.061   6.520   3.867 -0.6825 -0.7798  0.7139
25853SOL     OW81474   1.143   9.124   9.748  0.0433 -0.4635 -0.6008
25853SOL    HW181475   1.149   9.082   9.833  0.7903 -0.2374 -0.5295
25853SOL    HW281476   1.224   9.175   9.741  0.1175 -0.6964 -1.5547
25854SOL     OW81477   2.896   0.076   9.414  0.0716 -0.5108  0.1202
25854SOL    HW181478   2.976   0.024   9.421 -0.7163 -1.7662  0.1116
25854SOL    HW281479   2.855   0.069   9.500  0.1212  0.4119  0.2326
25855SOL     OW81480   9.674   4.889   5.220  0.1359  0.2550  0.0527
25855SOL    HW181481   9.626   4.939   5.153  0.5754 -1.4557 -1.6184
25855SOL    HW281482   9.749   4.944   5.241  0.9532  0.1224 -2.2159
25856SOL     OW81483   7.615   1.318   5.764 -0.3435  0.0748 -0.2558
25856SOL    HW181484   7.522   1.339   5.775 -0.6078 -1.2985  0.3740
25856SOL    HW281485   7.626   1.235   5.810  1.2090  0.2186 -0.3144
25857SOL     OW81486   0.027   5.434   2.965 -0.1286 -0.1385 -0.1658
25857SOL    HW181487   0.039   5.524   2.934  0.7677 -0.3884 -0.5776
25857SOL    HW281488  -0.005   5.387   2.888  1.4983 -0.6246 -0.5917
25858SOL     OW81489   0.998   0.986   7.634  0.0771 -0.2477  0.1979
25858SOL    HW181490   0.955   0.937   7.704 -1.6863 -0.3600 -0.9141
25858SOL    HW281491   0.953   0.959   7.554  1.1983  0.8200 -0.8361
25859SOL     OW81492   5.919   4.559   0.777 -0.5412  0.4001  0.1964
25859SOL    HW181493   5.984   4.498   0.811  0.2590  0.0631 -1.8104
25859SOL    HW281494   5.837   4.510   0.780 -1.1496  1.2830  4.0576
25860SOL     OW81495   1.703   1.215   8.699 -0.1715 -0.1056 -0.3892
25860SOL    HW181496   1.745   1.199   8.784 -0.1049 -0.6143 -0.5183
25860SOL    HW281497   1.726   1.306   8.679  1.8300 -0.6737 -0.9849
25861SOL     OW81498   4.017   1.520   5.627  0.4734  0.3102  0.3147
25861SOL    HW181499   3.937   1.492   5.583 -0.4799  0.3459  1.9280
25861SOL    HW281500   4.087   1.472   5.583 -0.3794  0.5491 -1.3707
25862SOL     OW81501   3.205   7.741   7.174  0.0415  0.0691  0.1167
25862SOL    HW181502   3.252   7.710   7.251  0.4106  0.5449  0.0830
25862SOL    HW281503   3.160   7.663   7.141 -2.2920  0.3376  2.3154
25863SOL     OW81504   1.335   6.823   7.640 -0.2009 -0.1429 -0.6809
25863SOL    HW181505   1.397   6.865   7.701 -0.5651  0.4389 -0.7046
25863SOL    HW281506   1.331   6.732   7.669  0.2514 -0.0602 -0.3417
25864SOL     OW81507   0.720   4.981   2.328  0.3319  0.4584  0.3411
25864SOL    HW181508   0.772   4.943   2.257  0.2717  0.8008  0.1117
25864SOL    HW281509   0.634   4.939   2.319  1.0947 -1.6233  1.9468
25865SOL     OW81510   8.353   9.368   3.782  0.0898  0.5424  0.2649
25865SOL    HW181511   8.270   9.369   3.830  0.2625 -0.5585  0.6165
25865SOL    HW281512   8.331   9.401   3.695 -0.7725  0.0194  0.2798
25866SOL     OW81513   6.909   9.423   1.582 -0.1876 -0.5796  0.4698
25866SOL    HW181514   6.831   9.477   1.565 -0.5674 -1.5360 -1.0002
25866SOL    HW281515   6.914   9.419   1.677  0.0437  2.2874  0.6896
25867SOL     OW81516   2.873   4.502   8.231  0.0812  0.0490 -0.2185
25867SOL    HW181517   2.832   4.509   8.145  0.3818 -0.3282 -0.3947
25867SOL    HW281518   2.930   4.426   8.225 -0.8303 -0.7419  0.6954
25868SOL     OW81519   2.914   0.809   5.670 -0.2095  0.1632 -0.0019
25868SOL    HW181520   2.905   0.791   5.577  1.0097 -2.8289  0.3582
25868SOL    HW281521   2.835   0.773   5.709  0.5590 -1.2538  0.3418
25869SOL     OW81522   2.771   5.405   7.673 -0.1042 -0.3964 -0.1347
25869SOL    HW181523   2.786   5.500   7.667 -2.3750  0.0990  0.8274
25869SOL    HW281524   2.751   5.391   7.766 -0.1885 -1.7609 -0.3514
25870SOL     OW81525   6.766   9.170   3.056 -0.3756  0.5716  0.1288
25870SOL    HW181526   6.727   9.247   3.015 -2.2036  0.5057  1.6422
25870SOL    HW281527   6.692   9.112   3.075  0.7271 -0.6335  0.9408
25871SOL     OW81528   4.905   2.849   3.633  0.0157  0.1925  0.0271
25871SOL    HW181529   4.850   2.924   3.656  2.1864  1.2674  2.1351
25871SOL    HW281530   4.977   2.888   3.584 -0.2046 -0.9635 -1.2699
25872SOL     OW81531   9.407   9.022   8.247 -0.2064  0.3259 -0.3355
25872SOL    HW181532   9.323   8.978   8.229 -0.1012  0.2682 -0.6836
25872SOL    HW281533   9.442   8.975   8.322 -0.1530 -0.1095 -0.6281
25873SOL     OW81534   9.449   3.223   3.564 -0.5994  0.0667  0.3390
25873SOL    HW181535   9.534   3.266   3.573  0.0250 -0.9733 -0.3880
25873SOL    HW281536   9.394   3.289   3.521 -0.1603  0.7343  0.7777
25874SOL     OW81537   0.210   1.688   3.284  0.3459 -0.1896 -0.4515
25874SOL    HW181538   0.172   1.741   3.213  0.8685  0.0029 -0.5935
25874SOL    HW281539   0.206   1.598   3.251  1.3279 -0.0188 -1.0809
25875SOL     OW81540   6.048   3.244   7.357  0.0964  0.1388  0.0885
25875SOL    HW181541   6.053   3.220   7.450  1.1231 -1.1001 -0.2619
25875SOL    HW281542   6.020   3.336   7.358 -2.0131 -0.4290  1.5555
25876SOL     OW81543   7.149   0.587   6.526 -0.2265 -0.0804 -0.0142
25876SOL    HW181544   7.150   0.652   6.597 -0.2264  0.2007 -0.2688
25876SOL    HW281545   7.102   0.631   6.455  1.7964  0.5433 -1.0436
25877SOL     OW81546   5.477   0.656   3.776 -0.2697  0.2573 -0.1023
25877SOL    HW181547   5.453   0.693   3.861 -1.0179 -0.1409 -0.1311
25877SOL    HW281548   5.495   0.732   3.721  4.5335  0.6238  1.4989
25878SOL     OW81549   2.187   1.968   6.272  0.0309  0.3532 -0.3246
25878SOL    HW181550   2.097   1.961   6.305  0.0807 -1.3677 -0.4653
25878SOL    HW281551   2.216   1.878   6.262  1.9885  0.8757  0.2411
25879SOL     OW81552   9.656   2.261   1.938  0.0459 -0.0485  0.4041
25879SOL    HW181553   9.659   2.303   1.851  0.8671 -0.9703 -0.0340
25879SOL    HW281554   9.742   2.277   1.975  0.0037 -0.4171  0.6693
25880SOL     OW81555   0.083   9.222   8.384  0.5176 -0.1087  0.6747
25880SOL    HW181556   0.053   9.164   8.314  1.5624  0.4413 -0.2534
25880SOL    HW281557   0.139   9.167   8.439  0.9253 -0.1673  0.2048
25881SOL     OW81558   0.062   1.594   4.150 -0.3441  0.1770  0.2773
25881SOL    HW181559   0.062   1.689   4.156  2.1154  0.1473  2.4941
25881SOL    HW281560   0.145   1.573   4.108 -0.4703 -1.0378  0.6028
25882SOL     OW81561   8.038   4.549   6.129  0.2376  0.0704 -0.1366
25882SOL    HW181562   7.944   4.564   6.136  0.1331  1.6953 -3.2217
25882SOL    HW281563   8.047   4.469   6.077  0.5923 -0.3524  0.5580
25883SOL     OW81564   6.999   5.288   4.762 -0.2904 -0.2337  0.4491
25883SOL    HW181565   7.020   5.216   4.703  0.2820  0.5727 -0.3409
25883SOL    HW281566   6.904   5.281   4.775 -0.5908  0.1227 -1.3236
25884SOL     OW81567   1.873   7.099   6.149 -0.4324  0.0895  0.0618
25884SOL    HW181568   1.844   7.165   6.086 -0.3655  0.1521  0.0962
25884SOL    HW281569   1.809   7.028   6.140  0.8827 -0.9602 -1.7762
25885SOL     OW81570   3.705   6.284   7.058 -0.0370 -0.0380 -0.3977
25885SOL    HW181571   3.704   6.299   7.153  0.4352  1.8212 -0.6497
25885SOL    HW281572   3.747   6.198   7.048 -0.0800 -0.2611  1.0658
25886SOL     OW81573   8.476   9.004   4.478 -0.0680  0.2765  0.3398
25886SOL    HW181574   8.428   9.081   4.508  0.6338  1.7165 -1.9198
25886SOL    HW281575   8.554   9.040   4.435  0.5388 -1.7325 -0.3556
25887SOL     OW81576   6.205   2.764   4.527 -0.0824 -0.3277 -0.5860
25887SOL    HW181577   6.116   2.731   4.516  0.3876 -1.2022 -1.8827
25887SOL    HW281578   6.216   2.768   4.622 -1.6956  0.3809 -0.3802
25888SOL     OW81579   2.502   8.673   5.645 -0.4722  0.0433  0.1509
25888SOL    HW181580   2.595   8.695   5.648  0.0392 -1.6642 -1.5671
25888SOL    HW281581   2.464   8.720   5.719  1.6611  1.1577  0.6122
25889SOL     OW81582   6.345   7.406   3.364  0.1032 -0.0102 -0.0363
25889SOL    HW181583   6.364   7.499   3.380  1.8240 -0.4508  0.7444
25889SOL    HW281584   6.253   7.396   3.387  0.5818  0.9671  2.6208
25890SOL     OW81585   8.063   0.948   7.463 -0.4189 -0.5554 -0.0515
25890SOL    HW181586   8.069   1.034   7.504 -1.3632 -0.0699 -0.8906
25890SOL    HW281587   8.044   0.966   7.371  2.8012 -1.5708 -1.0508
25891SOL     OW81588   4.215   7.387   4.834 -0.1953  0.8538 -0.5702
25891SOL    HW181589   4.237   7.294   4.844 -0.9246  0.6262 -1.0376
25891SOL    HW281590   4.230   7.425   4.920 -3.6546 -0.4912  0.7689
25892SOL     OW81591   3.590   8.137   2.248 -0.3004  0.0949  0.4618
25892SOL    HW181592   3.609   8.189   2.170  2.1817  0.6059  1.2982
25892SOL    HW281593   3.533   8.193   2.301 -1.8421 -0.1844 -0.8670
25893SOL     OW81594   2.230   2.618   8.447 -0.2344  0.3696 -0.4899
25893SOL    HW181595   2.152   2.586   8.493  0.8541  2.0713  2.9520
25893SOL    HW281596   2.220   2.714   8.448  1.2009  0.5563 -1.3290
25894SOL     OW81597   1.771   4.409   3.469 -0.0260  0.4243 -0.3474
25894SOL    HW181598   1.709   4.378   3.535 -0.8070  2.2023 -0.1768
25894SOL    HW281599   1.774   4.340   3.403  2.1104 -2.2704  2.2983
25895SOL     OW81600   9.938   0.220   2.405  0.0882  0.1614 -0.0422
25895SOL    HW181601   9.965   0.205   2.315 -1.0377  4.0430 -1.2212
25895SOL    HW281602   9.848   0.185   2.409  0.7029 -1.5173  0.1828
25896SOL     OW81603   4.868   0.118   0.149 -0.8026  0.0164  0.2023
25896SOL    HW181604   4.961   0.106   0.168 -1.0111 -1.6180  0.3511
25896SOL    HW281605   4.856   0.077   0.064 -1.4609 -0.1931  0.3921
25897SOL     OW81606   1.121   4.740   7.513 -0.2271  0.2348 -0.3730
25897SOL    HW181607   1.177   4.817   7.515  0.0143  0.0752 -0.9406
25897SOL    HW281608   1.161   4.680   7.575  1.8499 -0.9788 -2.7137
25898SOL     OW81609   5.560   8.032   3.868 -0.3317  0.0258 -0.3653
25898SOL    HW181610   5.490   8.097   3.871 -0.1806  0.1566  0.7505
25898SOL    HW281611   5.520   7.952   3.901 -0.1652 -0.1022 -0.4693
25899SOL     OW81612   5.934   1.925   3.040  0.0983 -0.2578  0.2862
25899SOL    HW181613   6.004   1.959   2.985 -0.6227 -0.8532 -1.0386
25899SOL    HW281614   5.888   2.003   3.070 -0.4417  0.0485 -1.2515
25900SOL     OW81615   2.045   0.646   7.539  0.4022 -0.2790 -0.2143
25900SOL    HW181616   2.112   0.711   7.516 -0.7178  1.1875  0.5164
25900SOL    HW281617   2.012   0.614   7.455  1.1295 -0.0820 -0.5844
25901SOL     OW81618   9.778   9.949   4.743  0.4312  0.1439 -0.0926
25901SOL    HW181619   9.807   9.913   4.660 -0.0592  1.9544 -1.1020
25901SOL    HW281620   9.712   9.887   4.775  0.3747 -0.3966 -1.2181
25902SOL     OW81621   7.471   3.525   6.731  0.1911  0.2777  0.2213
25902SOL    HW181622   7.466   3.503   6.824 -1.1037 -2.8086 -0.4615
25902SOL    HW281623   7.380   3.539   6.705  0.1352 -1.9985 -1.1277
25903SOL     OW81624   6.494   7.653   9.812 -0.0906 -0.4591  0.2781
25903SOL    HW181625   6.576   7.605   9.819 -0.6625 -1.6725 -0.8784
25903SOL    HW281626   6.515   7.731   9.761  0.3668 -0.6782  0.1339
25904SOL     OW81627   1.497   5.501  10.018  0.7186 -0.4239 -0.0804
25904SOL    HW181628   1.479   5.585  10.061  0.6469 -0.3276 -0.2954
25904SOL    HW281629   1.561   5.522   9.950 -0.0340 -0.3596 -0.7830
25905SOL     OW81630   2.502   5.031   2.143  0.3249  0.4297 -0.4396
25905SOL    HW181631   2.536   5.103   2.196 -1.7950  1.1453  0.0515
25905SOL    HW281632   2.570   5.016   2.077  1.4902  1.8562  0.3696
25906SOL     OW81633   7.882   1.956   5.819  0.0827 -0.5658  0.0316
25906SOL    HW181634   7.798   1.937   5.777 -0.4834  0.0269  0.8646
25906SOL    HW281635   7.943   1.969   5.747 -0.2916 -2.0304 -0.5893
25907SOL     OW81636   0.028  10.101   2.077 -0.8244 -0.0643 -0.3157
25907SOL    HW181637  -0.003  10.191   2.069 -0.4385  0.0934 -0.0548
25907SOL    HW281638   0.104  10.097   2.018 -0.7286 -0.1677 -0.1856
25908SOL     OW81639   3.435   9.285   2.764 -0.1387  0.4490  0.3820
25908SOL    HW181640   3.372   9.260   2.696  2.1236 -0.3474 -1.5620
25908SOL    HW281641   3.433   9.381   2.765 -2.6708  0.4522  1.7303
25909SOL     OW81642   1.955   1.749   0.496 -0.0767  0.2464  0.3447
25909SOL    HW181643   1.985   1.735   0.406 -2.1989 -0.8927 -0.2609
25909SOL    HW281644   1.947   1.660   0.532 -0.0552  0.6514  1.3720
25910SOL     OW81645   7.764   1.571   6.305 -0.3638 -0.1532 -0.5376
25910SOL    HW181646   7.724   1.501   6.253 -1.2473  0.3249 -0.5113
25910SOL    HW281647   7.748   1.651   6.254  1.5688 -0.0675 -1.1046
25911SOL     OW81648   2.911   4.750   8.725  0.3885 -0.1735 -0.1505
25911SOL    HW181649   2.942   4.688   8.790 -0.1797  0.4123  0.7028
25911SOL    HW281650   2.933   4.710   8.641  2.0120 -0.4839  0.3971
25912SOL     OW81651   7.335   8.493   2.252 -0.2873  0.2400  0.3085
25912SOL    HW181652   7.261   8.538   2.211  1.4147  1.2730 -1.8090
25912SOL    HW281653   7.398   8.480   2.181  2.1349  0.5632  2.2572
25913SOL     OW81654   5.274   0.352   5.481 -0.3984 -0.3467  0.1900
25913SOL    HW181655   5.215   0.341   5.556  0.1442  0.8509  0.8104
25913SOL    HW281656   5.351   0.300   5.503 -0.0548  0.3586  0.6751
25914SOL     OW81657   8.899   2.056   9.545  0.1900  0.1179  0.0675
25914SOL    HW181658   8.875   2.099   9.627  1.3191 -1.5680  1.3489
25914SOL    HW281659   8.824   2.071   9.487 -0.4412  1.7399  1.2186
25915SOL     OW81660   9.582   8.837   4.140 -0.3181 -0.0607  0.7154
25915SOL    HW181661   9.565   8.833   4.234 -0.5982  1.2543  0.7463
25915SOL    HW281662   9.504   8.878   4.104  0.3360  0.6666  0.0933
25916SOL     OW81663   5.936   3.464   9.226  0.1767 -0.0388 -0.5309
25916SOL    HW181664   6.016   3.498   9.265 -1.5292  2.5708  0.9894
25916SOL    HW281665   5.938   3.370   9.246  1.9434  0.2867  1.1323
25917SOL     OW81666   9.853   4.713   4.377  0.4244  0.2782 -0.1117
25917SOL    HW181667   9.845   4.776   4.448 -1.2417 -0.4886  0.4277
25917SOL    HW281668   9.802   4.752   4.305  0.9229  0.3882 -0.4112
25918SOL     OW81669   0.500   1.915   2.880 -0.1193 -0.4915  0.2121
25918SOL    HW181670   0.424   1.879   2.832 -1.1292  2.1757 -0.3543
25918SOL    HW281671   0.475   1.909   2.972  0.2327 -2.2078  0.2255
25919SOL     OW81672   7.914   7.195   7.593 -0.3735 -0.5334 -0.5325
25919SOL    HW181673   7.833   7.247   7.596 -0.9012 -1.2344 -1.7067
25919SOL    HW281674   7.983   7.259   7.577 -0.4781  0.2458  1.7407
25920SOL     OW81675   2.716   4.736   4.172 -0.3368 -0.5176 -0.0595
25920SOL    HW181676   2.734   4.692   4.255 -0.0976  0.1953  0.2797
25920SOL    HW281677   2.621   4.735   4.164 -0.5710  1.7050  1.5439
25921SOL     OW81678   3.529   4.288   1.411  0.1081  0.0016 -0.1896
25921SOL    HW181679   3.526   4.267   1.504 -0.3671  0.5228 -0.0757
25921SOL    HW281680   3.569   4.212   1.370  0.2578 -0.2634  0.4327
25922SOL     OW81681   9.087   1.616   5.068  0.2170  0.2557 -0.4297
25922SOL    HW181682   9.053   1.594   4.981 -0.9663 -0.3455  0.1519
25922SOL    HW281683   9.182   1.617   5.057  0.0686  1.3461 -1.9840
25923SOL     OW81684   0.951   2.981   8.537  0.0881 -0.1915 -0.1123
25923SOL    HW181685   0.952   2.885   8.537  1.2488 -0.1894  0.1972
25923SOL    HW281686   0.957   3.006   8.629 -2.6662  0.2169  0.0614
25924SOL     OW81687   8.999   7.132   2.543  0.5175  0.2716 -0.6112
25924SOL    HW181688   8.907   7.155   2.557  0.7702 -0.3498  3.1110
25924SOL    HW281689   9.012   7.141   2.449 -3.1226  1.1456 -1.1779
25925SOL     OW81690   4.040   9.557   3.555  0.2895 -0.4733 -0.2130
25925SOL    HW181691   3.978   9.575   3.483 -0.9744 -0.0827  0.9258
25925SOL    HW281692   3.989   9.505   3.617  0.3466  1.7129  1.7972
25926SOL     OW81693   2.146   8.052   0.076 -0.2659  0.1374 -0.1006
25926SOL    HW181694   2.054   8.026   0.069 -0.1030 -0.6244  0.5258
25926SOL    HW281695   2.195   7.970   0.072  0.3492  0.4843  0.1979
25927SOL     OW81696   0.498   0.580   5.860 -0.1369  0.7419 -0.4114
25927SOL    HW181697   0.594   0.575   5.863 -0.0891  0.3650 -1.8304
25927SOL    HW281698   0.473   0.603   5.949  1.2810  0.9511 -0.0335
25928SOL     OW81699   7.579   1.588   7.021 -0.1167 -0.4966 -0.1263
25928SOL    HW181700   7.656   1.624   6.977 -0.6054  1.0110  0.1721
25928SOL    HW281701   7.609   1.506   7.060  1.9965  1.0982  1.8956
25929SOL     OW81702   8.766   0.279   0.045 -0.0281 -0.4222  0.0085
25929SOL    HW181703   8.761   0.323  -0.039 -1.0937 -0.9334 -0.2213
25929SOL    HW281704   8.859   0.277   0.067  0.1981  0.2566 -0.8616
25930SOL     OW81705   0.532   0.093   6.473 -0.3123  0.5959 -0.1892
25930SOL    HW181706   0.527   0.011   6.523  2.9612  1.0584  1.2335
25930SOL    HW281707   0.508   0.069   6.384 -0.0131 -1.8216  0.2998
25931SOL     OW81708   4.113   4.866   8.788 -0.1209  0.4378  0.0169
25931SOL    HW181709   4.188   4.808   8.800  0.3965  1.1541  0.3239
25931SOL    HW281710   4.067   4.864   8.872  0.1812  0.8554  0.1963
25932SOL     OW81711   1.934   7.357   8.271  0.2583  0.5321 -0.4541
25932SOL    HW181712   1.888   7.327   8.193 -0.1873 -0.5074  0.1803
25932SOL    HW281713   1.866   7.363   8.338  1.0164 -1.2509  0.5663
25933SOL     OW81714   5.140   8.783   4.265 -0.7471  0.0038  0.2225
25933SOL    HW181715   5.172   8.707   4.313 -1.7952 -1.8774 -1.8380
25933SOL    HW281716   5.050   8.760   4.241 -0.4638  1.0355 -2.1020
25934SOL     OW81717   2.732   1.454   7.469  0.2094  0.6506  0.4232
25934SOL    HW181718   2.646   1.495   7.464  0.6255  1.4322 -1.3037
25934SOL    HW281719   2.793   1.528   7.470  0.9184  0.1033 -0.7021
25935SOL     OW81720   4.759   3.894   9.044 -0.0199  0.3881 -0.3811
25935SOL    HW181721   4.703   3.910   9.120  0.1368 -1.9240  0.2909
25935SOL    HW281722   4.822   3.966   9.046 -0.4262  0.7414  1.2927
25936SOL     OW81723   2.229   2.825   8.811  0.1288 -0.3146 -0.0294
25936SOL    HW181724   2.224   2.740   8.855  1.3131  0.0185  0.7976
25936SOL    HW281725   2.204   2.888   8.878  1.4699  0.1570  0.0537
25937SOL     OW81726   2.886   1.242   7.392  0.4747  0.5551 -0.1458
25937SOL    HW181727   2.817   1.307   7.406 -0.8122 -0.7564 -0.1451
25937SOL    HW281728   2.908   1.251   7.300  1.7474  2.3057  0.2680
25938SOL     OW81729   6.918   1.522   1.449  0.0044  0.0846 -0.3751
25938SOL    HW181730   6.908   1.482   1.363 -1.9095  0.0348 -0.1843
25938SOL    HW281731   7.000   1.487   1.483  1.0406  0.4841 -2.3518
25939SOL     OW81732   5.549   7.506   8.473 -0.1867  0.3003 -0.7164
25939SOL    HW181733   5.551   7.601   8.490  1.9232  0.3525 -0.9900
25939SOL    HW281734   5.605   7.494   8.397  1.6126 -1.4125  0.7892
25940SOL     OW81735   1.827   3.558   4.450 -0.1080 -0.3242  0.1422
25940SOL    HW181736   1.853   3.523   4.535  1.3406  1.1484  0.3533
25940SOL    HW281737   1.903   3.545   4.393 -0.3931  0.3393 -0.4104
25941SOL     OW81738   5.007   9.053   1.634 -0.4451  0.1707 -0.0666
25941SOL    HW181739   5.062   9.101   1.695 -1.6380  0.5334  0.7602
25941SOL    HW281740   5.005   9.107   1.555  0.8206 -0.1338 -0.3357
25942SOL     OW81741   3.364   9.236   6.942 -0.5686  0.6560 -0.2365
25942SOL    HW181742   3.369   9.259   7.034 -3.0361 -0.8632  0.3729
25942SOL    HW281743   3.283   9.277   6.911 -0.8514 -0.5248 -1.1602
25943SOL     OW81744   8.509   6.617   4.562  0.1381  0.1235  0.0698
25943SOL    HW181745   8.547   6.618   4.474  0.1593 -0.1891  0.0744
25943SOL    HW281746   8.538   6.698   4.601 -1.4324  1.2019 -0.8660
25944SOL     OW81747   6.396   1.189   5.783  0.0298  0.2802 -0.3048
25944SOL    HW181748   6.437   1.225   5.705  0.4254  0.2754 -0.0998
25944SOL    HW281749   6.433   1.101   5.791 -1.4287 -0.4557 -1.1922
25945SOL     OW81750   5.900   2.242   7.814 -0.2429 -0.1249  0.3452
25945SOL    HW181751   5.987   2.228   7.776  0.6722  1.1894  1.8714
25945SOL    HW281752   5.916   2.267   7.904 -2.2399  0.0072  0.7155
25946SOL     OW81753   5.360   1.151   1.234 -0.3226 -0.2001 -0.5997
25946SOL    HW181754   5.317   1.191   1.310 -0.1710 -0.0548 -0.5886
25946SOL    HW281755   5.296   1.090   1.199 -0.1927 -0.6725 -0.0230
25947SOL     OW81756   4.373   6.197   0.549 -0.6879  0.2592  0.3374
25947SOL    HW181757   4.462   6.202   0.584  0.0552  3.2049 -1.5821
25947SOL    HW281758   4.366   6.107   0.516  2.1843  0.3485 -0.8260
25948SOL     OW81759   3.663   1.219   2.989  0.0750 -0.8367 -0.0360
25948SOL    HW181760   3.740   1.169   3.014  1.4852  0.8971 -0.6762
25948SOL    HW281761   3.645   1.275   3.065  0.0531 -0.5542 -0.2468
25949SOL     OW81762   5.774   0.836   1.846  0.2904 -0.2365 -0.7779
25949SOL    HW181763   5.790   0.747   1.878  0.0943  0.1152  0.3427
25949SOL    HW281764   5.847   0.854   1.788 -0.3008 -1.5814 -2.0153
25950SOL     OW81765   3.731   1.069   6.053 -0.3938  0.7577  0.0563
25950SOL    HW181766   3.700   1.140   6.110 -2.3950  0.8912 -1.1382
25950SOL    HW281767   3.700   0.989   6.095 -0.3268  0.7325  0.0593
25951SOL     OW81768   6.260   1.528   7.515 -0.5916 -0.6789  0.3123
25951SOL    HW181769   6.297   1.509   7.429 -0.6586  1.3109 -0.2125
25951SOL    HW281770   6.165   1.525   7.502 -0.6023 -0.2544  0.2711
25952SOL     OW81771   6.022   5.563   9.676 -0.2321  0.0485  0.6476
25952SOL    HW181772   6.012   5.604   9.591  0.6556  0.0772  0.5392
25952SOL    HW281773   5.937   5.523   9.695 -0.0834 -1.0325 -0.8259
25953SOL     OW81774   3.631   0.990   7.722 -1.0326  0.1923  0.2409
25953SOL    HW181775   3.628   1.052   7.650 -1.1371 -0.0015  0.0780
25953SOL    HW281776   3.556   1.013   7.777 -1.3943 -0.1436 -0.1112
25954SOL     OW81777   1.241   8.257   3.776  0.1380  0.1246 -0.3589
25954SOL    HW181778   1.196   8.230   3.696 -0.4696  0.9065 -0.2920
25954SOL    HW281779   1.178   8.240   3.846  0.6358 -0.4820 -0.0472
25955SOL     OW81780   5.658   0.175   4.958 -0.0807  0.0778 -0.0193
25955SOL    HW181781   5.669   0.095   4.907  2.8133 -0.0099  0.5756
25955SOL    HW281782   5.594   0.152   5.025 -2.1862 -0.4982 -2.1097
25956SOL     OW81783   3.772   7.459   8.550 -0.0021  0.4277  0.2316
25956SOL    HW181784   3.689   7.479   8.506 -0.7709  0.6577  1.7410
25956SOL    HW281785   3.757   7.483   8.641  1.1386 -1.2048  0.8767
25957SOL     OW81786   4.624   5.330   5.775 -0.3562  0.8212  0.0518
25957SOL    HW181787   4.549   5.293   5.728 -0.1998 -2.8451  2.2238
25957SOL    HW281788   4.585   5.387   5.841 -1.2260 -0.0918  0.3660
25958SOL     OW81789   3.912   4.933   8.193 -0.1169 -0.0280 -0.1298
25958SOL    HW181790   3.859   4.955   8.269 -0.5321  1.4515 -0.8243
25958SOL    HW281791   3.904   5.008   8.135  0.9243 -0.7433 -1.2476
25959SOL     OW81792   2.474   1.510   3.383 -0.0075 -0.1403  0.8625
25959SOL    HW181793   2.472   1.604   3.365  0.8342  0.0666  1.7318
25959SOL    HW281794   2.520   1.473   3.308 -0.3517  0.1409  0.5092
25960SOL     OW81795   3.296   1.204   4.418 -0.4651 -0.3163  0.1132
25960SOL    HW181796   3.260   1.121   4.451 -2.1178  0.5655  0.6439
25960SOL    HW281797   3.269   1.269   4.483  1.6398  0.5295  0.2116
25961SOL     OW81798   6.661   1.370   6.489 -0.1618  0.5545  0.2189
25961SOL    HW181799   6.566   1.363   6.494 -0.1233 -0.9178 -0.5033
25961SOL    HW281800   6.681   1.457   6.525 -2.0039  2.2464 -2.5096
25962SOL     OW81801   2.234   2.613   0.383  0.0227  0.0721  0.0041
25962SOL    HW181802   2.259   2.586   0.471  0.2266  0.1263 -0.0369
25962SOL    HW281803   2.270   2.701   0.373 -0.1981  0.1559 -0.0500
25963SOL     OW81804   8.778   7.794   0.270 -0.7174  0.3828  0.0865
25963SOL    HW181805   8.810   7.705   0.256  1.0746  1.0769 -0.6889
25963SOL    HW281806   8.855   7.841   0.304 -1.9152  1.4090  1.5275
25964SOL     OW81807   5.686   3.508   5.717  0.3490  0.0933 -0.6077
25964SOL    HW181808   5.651   3.441   5.776  0.2294 -0.2910 -1.1080
25964SOL    HW281809   5.680   3.590   5.767  1.0585 -0.3551  0.2343
25965SOL     OW81810   8.384   3.448  10.097  0.3180  0.4284  0.0460
25965SOL    HW181811   8.313   3.385  10.111 -0.4392  1.3140  0.2943
25965SOL    HW281812   8.452   3.421  10.158 -0.2136  0.1597  0.5301
25966SOL     OW81813   9.061   1.828   7.188 -0.0746  0.0287 -0.0560
25966SOL    HW181814   8.978   1.806   7.230  0.0839  0.0796  0.2803
25966SOL    HW281815   9.037   1.847   7.097 -0.4788  0.3940  0.1260
25967SOL     OW81816  10.050   7.322   0.144 -0.2061 -0.5733 -0.3621
25967SOL    HW181817   9.963   7.346   0.176  0.1106  0.1283 -0.0272
25967SOL    HW281818  10.109   7.386   0.182  0.5774 -1.5171  0.0571
25968SOL     OW81819  10.030   7.653   0.202  0.2305  0.0945 -0.0969
25968SOL    HW181820   9.949   7.602   0.203 -0.2554  0.8425 -0.0013
25968SOL    HW281821  10.034   7.689   0.113 -0.4237  1.3995  0.3779
25969SOL     OW81822   2.041   8.623   7.993  0.8033 -0.6432 -0.5638
25969SOL    HW181823   1.956   8.653   8.026  0.4695 -1.7463 -0.3989
25969SOL    HW281824   2.046   8.659   7.905 -0.3132 -1.4218 -0.9663
25970SOL     OW81825   8.744   9.863   2.058 -0.2244 -0.2136 -0.0676
25970SOL    HW181826   8.777   9.851   2.147  1.2547 -0.1853 -0.5879
25970SOL    HW281827   8.731   9.958   2.050  1.1553 -0.0239 -0.3642
25971SOL     OW81828   0.190   5.820   9.302  0.0093 -0.2330 -0.1709
25971SOL    HW181829   0.167   5.729   9.320  0.3386 -0.4760 -0.9009
25971SOL    HW281830   0.265   5.814   9.242 -0.2243  0.5119 -0.5557
25972SOL     OW81831   7.788   3.191   2.004 -0.2570  0.5630  0.3109
25972SOL    HW181832   7.757   3.124   2.064 -0.3691  0.2021 -0.1466
25972SOL    HW281833   7.721   3.196   1.936 -0.1389  0.9762  0.2172
25973SOL     OW81834   4.446   7.627   1.752  0.3788 -0.1652  0.2692
25973SOL    HW181835   4.529   7.675   1.752  1.8414 -2.5316 -0.0899
25973SOL    HW281836   4.418   7.627   1.660 -0.8875  1.8985  0.5869
25974SOL     OW81837   3.122   5.761   2.019 -0.5268 -0.2621  0.4949
25974SOL    HW181838   3.123   5.670   2.047 -3.6970 -0.4735  0.3484
25974SOL    HW281839   3.160   5.760   1.932  0.1988 -1.2942  0.8046
25975SOL     OW81840   5.086   8.933   5.070  0.1019 -0.2098  0.2817
25975SOL    HW181841   5.122   9.005   5.121  3.2829 -2.2574  1.2659
25975SOL    HW281842   5.042   8.878   5.134  1.0953 -1.0358  0.2872
25976SOL     OW81843   7.643   7.797   9.402 -0.6988 -0.2970  0.3154
25976SOL    HW181844   7.623   7.777   9.311 -3.7550 -1.5367  1.1641
25976SOL    HW281845   7.737   7.778   9.410 -0.2438  0.2400 -2.6076
25977SOL     OW81846   9.995   6.066   0.418  0.1588 -0.8219  1.3690
25977SOL    HW181847  10.074   6.096   0.373 -1.7365  1.0095 -1.0214
25977SOL    HW281848   9.981   6.131   0.487 -1.0421  0.9147 -0.4149
25978SOL     OW81849   3.358   9.267   0.563 -0.2549 -0.0033 -0.2227
25978SOL    HW181850   3.366   9.356   0.597  1.4698 -0.3152  0.2803
25978SOL    HW281851   3.326   9.216   0.638 -1.6143  0.2235 -0.6156
25979SOL     OW81852   3.703   5.553   6.945  0.2294 -0.2603 -0.0562
25979SOL    HW181853   3.640   5.533   7.014  2.0356 -0.1929  1.7302
25979SOL    HW281854   3.757   5.474   6.938 -0.2669 -0.4967 -1.8805
25980SOL     OW81855   9.684   9.340   0.641  0.0307 -0.3915 -0.1840
25980SOL    HW181856   9.645   9.317   0.556 -0.7236  1.5043 -0.4022
25980SOL    HW281857   9.754   9.402   0.620 -0.1448  0.0767  0.5593
25981SOL     OW81858   8.029   1.851   1.578  0.0126  0.4290  0.5966
25981SOL    HW181859   7.950   1.848   1.632 -1.1842  0.6760 -1.0675
25981SOL    HW281860   8.048   1.945   1.568  0.5715  0.3723  1.0102
25982SOL     OW81861   9.085   8.298   3.764  0.2612 -0.0296  0.5370
25982SOL    HW181862   9.000   8.265   3.737 -0.4803 -0.0325  2.6516
25982SOL    HW281863   9.145   8.269   3.695 -1.4889  0.4354 -1.2789
25983SOL     OW81864   3.298   5.565   7.225 -0.2691  0.1986 -0.2993
25983SOL    HW181865   3.246   5.564   7.145  0.2549 -0.4798 -0.6451
25983SOL    HW281866   3.377   5.515   7.203 -0.2346 -0.2233  0.7187
25984SOL     OW81867   6.956   7.351   1.403 -0.5564 -0.0429 -0.3589
25984SOL    HW181868   6.906   7.319   1.328  0.4551  0.7035 -1.3787
25984SOL    HW281869   6.912   7.312   1.479 -0.6544 -2.0820 -1.3991
25985SOL     OW81870   8.169   5.500   5.696  0.4061  0.0173  0.0023
25985SOL    HW181871   8.104   5.431   5.679 -0.4627  0.9240 -0.4269
25985SOL    HW281872   8.229   5.495   5.621  0.8905 -0.8628  0.4292
25986SOL     OW81873   2.742   8.697   2.422  0.3599 -0.1193 -0.4436
25986SOL    HW181874   2.732   8.602   2.430 -1.7480  0.1243  0.3100
25986SOL    HW281875   2.719   8.716   2.331  0.4812 -0.2922 -0.5116
25987SOL     OW81876   1.358   7.703   5.316 -0.0832 -0.3230  0.3080
25987SOL    HW181877   1.362   7.609   5.298 -0.7058 -0.3312  0.1733
25987SOL    HW281878   1.286   7.711   5.379 -1.2096  0.2419 -0.9982
25988SOL     OW81879   7.083   7.392   6.955 -0.2835  0.3345  0.1455
25988SOL    HW181880   7.146   7.346   7.010  0.3415  1.3929  0.3401
25988SOL    HW281881   7.022   7.432   7.017  0.3090  1.3660  0.0927
25989SOL     OW81882   6.614   6.574   7.654  0.2447 -0.1309 -0.6963
25989SOL    HW181883   6.537   6.549   7.602 -0.0668 -0.0592 -0.2713
25989SOL    HW281884   6.683   6.588   7.589  0.7839 -3.1927 -0.9442
25990SOL     OW81885   7.632   9.346   5.272 -0.0367 -0.2770  0.4109
25990SOL    HW181886   7.636   9.439   5.248  2.3257  0.0520  1.7700
25990SOL    HW281887   7.660   9.300   5.193  1.0452  0.3631  0.3886
25991SOL     OW81888   6.697   7.793   4.707 -0.3193 -0.0548 -0.5072
25991SOL    HW181889   6.699   7.719   4.768  0.4240  0.1619 -0.2533
25991SOL    HW281890   6.613   7.836   4.724 -0.8996 -1.0044 -0.8648
25992SOL     OW81891   5.291   5.819   8.588  0.2659 -0.7765  0.3116
25992SOL    HW181892   5.289   5.747   8.525 -2.0754  0.8083 -1.6173
25992SOL    HW281893   5.208   5.811   8.635 -0.2656  0.8568 -0.2723
25993SOL     OW81894   9.984   2.972   7.060  0.2071 -0.1391 -0.2059
25993SOL    HW181895   9.945   3.009   6.981  1.0059 -1.2102 -1.1305
25993SOL    HW281896   9.912   2.925   7.103 -0.0390 -0.2292 -0.7190
25994SOL     OW81897   0.780   2.777   1.321  0.4804 -0.8603 -0.2695
25994SOL    HW181898   0.747   2.732   1.243  0.1476 -1.8584  0.4208
25994SOL    HW281899   0.721   2.750   1.391  0.7644  0.0351  0.3296
25995SOL     OW81900   0.364   7.521   0.478 -0.0611 -0.3658 -0.6357
25995SOL    HW181901   0.279   7.563   0.491 -0.1386 -0.3984 -1.0468
25995SOL    HW281902   0.424   7.594   0.463  0.0409 -0.3232 -0.0606
25996SOL     OW81903   1.026   7.999   1.628 -0.0816  0.1819 -0.0645
25996SOL    HW181904   0.945   7.974   1.673 -0.8275  1.0054 -0.9023
25996SOL    HW281905   1.047   7.923   1.574  0.2493 -0.4093  0.8762
25997SOL     OW81906   4.398   0.413   9.873  0.5775  0.2378  0.1189
25997SOL    HW181907   4.394   0.373   9.959  1.0130 -1.5620 -0.6406
25997SOL    HW281908   4.468   0.365   9.828 -0.1207  0.6383 -1.4595
25998SOL     OW81909   2.979   5.870   3.511 -0.0414  0.4277  0.2972
25998SOL    HW181910   3.048   5.886   3.447  0.7653 -1.3156  0.6677
25998SOL    HW281911   2.975   5.950   3.562  0.6470  1.1289 -0.7109
25999SOL     OW81912   4.916   2.558   9.306  0.0216  0.6021 -0.1754
25999SOL    HW181913   4.850   2.627   9.296 -1.6819 -0.9531 -0.3532
25999SOL    HW281914   4.881   2.502   9.376  2.7397  1.3800  1.9783
26000SOL     OW81915   4.737   4.207  10.162 -0.4881 -0.0983  0.0111
26000SOL    HW181916   4.832   4.212  10.167 -0.2183 -3.5498  0.9729
26000SOL    HW281917   4.711   4.286  10.115  2.7490  1.3380  0.3843
26001SOL     OW81918   1.711   1.898   8.071 -1.0889  0.2386 -0.1526
26001SOL    HW181919   1.781   1.875   8.131 -2.7177  0.0542  1.8041
26001SOL    HW281920   1.742   1.871   7.985  1.4229  0.6858  0.5432
26002SOL     OW81921   8.969   5.417   9.087  0.1438  0.9059  0.8030
26002SOL    HW181922   8.914   5.358   9.139 -0.6388  0.7505 -0.1698
26002SOL    HW281923   8.955   5.504   9.125 -0.2577  0.7629  0.9818
26003SOL     OW81924   9.903   1.044   7.083 -0.0217 -0.2396 -0.2735
26003SOL    HW181925   9.993   1.045   7.050  0.7304 -2.0381  1.5517
26003SOL    HW281926   9.898   1.119   7.142  0.8719 -1.0848  0.9351
26004SOL     OW81927   8.072   5.440   2.964  0.0276 -0.3275 -0.2533
26004SOL    HW181928   8.003   5.505   2.980  0.3463  0.4559 -1.8486
26004SOL    HW281929   8.030   5.356   2.979 -1.0414  0.1708 -0.3847
26005SOL     OW81930   2.862   0.267   7.526 -0.0984  0.1816 -0.5534
26005SOL    HW181931   2.863   0.184   7.574  1.3445  1.9808  2.9317
26005SOL    HW281932   2.946   0.269   7.480 -0.2948 -0.4172 -0.9506
26006SOL     OW81933   7.836   3.768   7.112  0.1506  0.4610  0.0438
26006SOL    HW181934   7.750   3.737   7.140  0.2943  0.6985  0.7849
26006SOL    HW281935   7.890   3.689   7.105  0.3185  0.4571  1.2134
26007SOL     OW81936   5.365   9.591   0.261  0.2601  0.1447  0.3401
26007SOL    HW181937   5.369   9.575   0.167  0.1845  4.2359 -0.5401
26007SOL    HW281938   5.380   9.505   0.301  0.4363 -1.7244 -3.3472
26008SOL     OW81939   2.362   5.465   2.383  0.2981 -0.3195  0.5342
26008SOL    HW181940   2.367   5.455   2.478 -0.6092 -1.4295  0.4807
26008SOL    HW281941   2.282   5.419   2.358  0.2429  0.4075 -0.7174
26009SOL     OW81942   0.754   7.883   4.075  0.0522 -0.0886  0.2871
26009SOL    HW181943   0.820   7.883   4.006 -0.3968 -0.9563 -0.1636
26009SOL    HW281944   0.753   7.972   4.108  1.6635 -0.1337  0.5151
26010SOL     OW81945   3.707   6.193   6.502  0.2367 -0.7833  0.9870
26010SOL    HW181946   3.631   6.151   6.543 -0.9889 -0.2412 -0.6365
26010SOL    HW281947   3.680   6.209   6.412  2.1193 -0.1176  0.4986
26011SOL     OW81948   2.568   3.065   0.617 -0.1856 -0.6742 -0.1389
26011SOL    HW181949   2.513   3.141   0.600  1.3035  0.4638 -0.0529
26011SOL    HW281950   2.653   3.089   0.581  0.7515 -1.6338  1.3768
26012SOL     OW81951   8.979   5.218   3.808 -0.0508  0.1718 -0.0207
26012SOL    HW181952   8.932   5.254   3.733 -2.3673 -1.8860  0.3556
26012SOL    HW281953   9.008   5.131   3.780 -1.2013 -0.7531  1.5021
26013SOL     OW81954   3.233   7.203   9.818  0.0309 -0.1098 -0.0175
26013SOL    HW181955   3.288   7.282   9.810 -1.8438  1.1454 -1.3273
26013SOL    HW281956   3.225   7.171   9.728 -0.1256 -1.1745  0.3676
26014SOL     OW81957   6.920   0.533   3.678  0.0957 -0.1870  0.4143
26014SOL    HW181958   7.003   0.488   3.668 -0.5368 -1.5809  1.1842
26014SOL    HW281959   6.929   0.583   3.760  0.4309  0.2689  0.1017
26015SOL     OW81960   3.488   4.617   8.270  0.2855 -0.1433  0.6985
26015SOL    HW181961   3.484   4.661   8.184  1.8758 -1.6483 -0.2045
26015SOL    HW281962   3.576   4.581   8.274  0.4868  0.4499  3.3087
26016SOL     OW81963   7.519   7.896   4.566  0.0728 -0.4535  0.2989
26016SOL    HW181964   7.567   7.856   4.493 -1.8023  1.6993 -2.2673
26016SOL    HW281965   7.430   7.863   4.558 -0.0212 -0.7601  2.1394
26017SOL     OW81966   0.506   1.604   8.003 -0.4391  0.0528  0.3343
26017SOL    HW181967   0.452   1.657   8.062 -1.4715  0.3152 -0.8183
26017SOL    HW281968   0.484   1.514   8.026 -1.8214  0.1487 -0.4704
26018SOL     OW81969   7.573   5.144   1.303 -0.1772  0.4764  0.0013
26018SOL    HW181970   7.525   5.227   1.305 -0.9205  0.0530  1.3758
26018SOL    HW281971   7.539   5.096   1.378  0.0307 -1.1930 -0.9300
26019SOL     OW81972   7.561   3.649   6.080 -0.1963 -0.0347  0.6619
26019SOL    HW181973   7.467   3.659   6.064 -0.1999 -0.8648  0.1124
26019SOL    HW281974   7.602   3.698   6.009 -0.2215 -2.4145 -1.1077
26020SOL     OW81975   5.935   8.618   5.120  0.8999 -0.2482 -0.5416
26020SOL    HW181976   5.847   8.581   5.129  0.4688  0.9633  0.5350
26020SOL    HW281977   5.957   8.605   5.028 -1.0775  0.8586 -1.2235
26021SOL     OW81978   0.765   9.055   4.241  0.3698 -0.2332  0.1335
26021SOL    HW181979   0.745   9.142   4.275 -0.0997 -1.1326  2.3723
26021SOL    HW281980   0.721   9.051   4.157  0.3192  1.6489  0.0292
26022SOL     OW81981   9.799   0.102   1.502 -0.0536  0.0731  0.0077
26022SOL    HW181982   9.730   0.155   1.463 -0.3005 -0.9406 -0.9630
26022SOL    HW281983   9.754   0.023   1.532  0.4552  0.0231  0.6536
26023SOL     OW81984   7.907   7.915   2.877 -0.3767 -0.1929 -0.5644
26023SOL    HW181985   7.828   7.941   2.830  0.4748  0.3528 -1.7349
26023SOL    HW281986   7.898   7.820   2.887 -0.5795 -0.3295 -1.8413
26024SOL     OW81987   7.504   2.099   0.533  0.6318 -0.1031  0.2707
26024SOL    HW181988   7.431   2.052   0.574  0.4811  0.0374  0.1625
26024SOL    HW281989   7.463   2.162   0.475  0.8417 -0.0983  0.1246
26025SOL     OW81990   6.953   3.162   3.316  0.1089 -0.2389  0.0147
26025SOL    HW181991   6.862   3.131   3.320  0.1537 -0.2838  4.0479
26025SOL    HW281992   6.986   3.152   3.405  4.5573 -1.4458 -1.5129
26026SOL     OW81993   1.724   5.951   4.620 -0.1555  0.6970  0.5647
26026SOL    HW181994   1.789   5.942   4.690  1.4691  1.5643 -0.7669
26026SOL    HW281995   1.681   6.034   4.638 -1.6537 -0.3101  1.9838
26027SOL     OW81996   5.960   1.563   1.113 -0.3101  0.0459 -0.0245
26027SOL    HW181997   5.894   1.494   1.123 -0.1057 -0.0469  0.6891
26027SOL    HW281998   6.042   1.516   1.100 -0.1208  0.1533  0.7811
26028SOL     OW81999   6.404   1.357   9.298 -0.0789  0.6199 -0.2561
26028SOL    HW182000   6.402   1.353   9.202 -1.7580 -1.6351 -0.2092
26028SOL    HW282001   6.476   1.298   9.323 -1.1271 -0.6758 -0.1524
26029SOL     OW82002   2.363   6.838   8.465 -0.5134  0.4313 -0.2595
26029SOL    HW182003   2.278   6.860   8.504  0.3969  3.9092  0.0788
26029SOL    HW282004   2.343   6.823   8.372 -2.0114 -3.3243  0.4687
26030SOL     OW82005   1.221   7.570   7.788  0.3518 -0.2133  0.1393
26030SOL    HW182006   1.178   7.638   7.735  0.2997  0.3417  0.8780
26030SOL    HW282007   1.307   7.606   7.809 -0.3251  0.4344  2.0330
26031SOL     OW82008   4.288   3.729   7.371  0.0794  0.0465 -0.1934
26031SOL    HW182009   4.378   3.750   7.345  0.7753 -2.2935  0.0402
26031SOL    HW282010   4.294   3.640   7.407 -1.9359  0.6774  1.9937
26032SOL     OW82011   4.503   7.553   0.622 -0.0652  0.4504  0.3185
26032SOL    HW182012   4.575   7.500   0.656 -1.5156 -0.3899  2.2662
26032SOL    HW282013   4.535   7.584   0.537  1.7390 -1.6547  0.1218
26033SOL     OW82014   9.156   1.091   1.782  0.1125 -0.1726 -0.0280
26033SOL    HW182015   9.098   1.155   1.743  1.0037  0.5422 -0.2175
26033SOL    HW282016   9.140   1.010   1.733 -2.4006 -0.6773  1.4416
26034SOL     OW82017   0.396   7.991   5.460  0.1642 -0.0725 -0.3817
26034SOL    HW182018   0.328   7.936   5.498 -1.0500  0.9656 -1.0063
26034SOL    HW282019   0.403   8.066   5.518  1.7580 -0.7652  0.4149
26035SOL     OW82020   0.760   8.216   0.458 -0.0769 -0.4899 -0.2223
26035SOL    HW182021   0.724   8.271   0.527 -0.3483 -1.2389  0.2461
26035SOL    HW282022   0.701   8.227   0.384  1.8853  2.8051 -1.5342
26036SOL     OW82023   3.243   0.263   6.389 -0.2307  0.1384  0.0558
26036SOL    HW182024   3.282   0.178   6.408  0.2463 -0.4567 -3.0074
26036SOL    HW282025   3.307   0.327   6.421 -0.2818 -0.6139  1.7674
26037SOL     OW82026   5.298   0.694   9.350  0.0631  0.4653  0.3605
26037SOL    HW182027   5.360   0.764   9.369 -1.0199  1.1387  1.5897
26037SOL    HW282028   5.215   0.739   9.336 -1.0221 -0.6159  2.7915
26038SOL     OW82029   9.792   8.211   4.637  0.0578  0.0951 -0.0520
26038SOL    HW182030   9.719   8.269   4.659 -0.0113  0.0528 -0.1734
26038SOL    HW282031   9.784   8.139   4.699 -0.8141 -0.6047 -0.9396
26039SOL     OW82032   1.609   4.954   2.810  0.2054  0.0447 -0.1301
26039SOL    HW182033   1.538   4.993   2.860  1.6192  3.4357 -0.4539
26039SOL    HW282034   1.687   4.967   2.864  1.1551  0.1415 -1.4538
26040SOL     OW82035   8.681   6.110   4.829  0.1195  0.4125  0.4210
26040SOL    HW182036   8.669   6.096   4.735  0.6025 -0.7963  0.5137
26040SOL    HW282037   8.730   6.192   4.835  0.6911  0.1532 -0.4336
26041SOL     OW82038   9.774   3.992   0.470 -0.6228  0.0546 -0.1394
26041SOL    HW182039   9.824   4.053   0.417 -0.7914 -0.8957 -1.4451
26041SOL    HW282040   9.683   4.005   0.444 -1.2999  2.4471  2.9040
26042SOL     OW82041   1.381   7.175   0.211 -0.2580  0.0305 -0.4217
26042SOL    HW182042   1.344   7.096   0.249 -1.7700  0.3548 -1.1205
26042SOL    HW282043   1.307   7.235   0.204  0.7469  1.3301 -0.3921
26043SOL     OW82044   8.839   6.577   6.678  0.3272  0.3853  0.2863
26043SOL    HW182045   8.933   6.576   6.657  0.2743  0.3965  0.0452
26043SOL    HW282046   8.813   6.668   6.664  0.3165  0.4201  0.5234
26044SOL     OW82047   7.695   1.535   4.114 -0.2361 -0.1176 -0.0545
26044SOL    HW182048   7.747   1.529   4.194  2.1314  1.1213 -1.4008
26044SOL    HW282049   7.723   1.460   4.061 -0.3401  0.1652 -0.5163
26045SOL     OW82050   4.749   7.995  10.200  0.3471 -0.4048  0.0454
26045SOL    HW182051   4.744   8.080  10.242 -0.9860  0.1240 -1.1075
26045SOL    HW282052   4.831   7.957  10.232  0.2473  0.6845  1.6937
26046SOL     OW82053   7.296   7.440   3.595  0.2878 -0.0845 -0.2102
26046SOL    HW182054   7.330   7.493   3.524  1.4496  0.1467  0.5013
26046SOL    HW282055   7.259   7.363   3.551  1.3518 -0.1458 -1.0508
26047SOL     OW82056   0.896   2.279   2.854  0.1362 -0.3207  0.3912
26047SOL    HW182057   0.866   2.358   2.898 -0.3384  0.2665 -0.9496
26047SOL    HW282058   0.906   2.215   2.924 -1.7089  0.2413  1.2192
26048SOL     OW82059   7.057   6.953   2.756 -0.4680 -0.1429 -1.1642
26048SOL    HW182060   7.079   6.918   2.670  1.0135  0.7534 -1.1936
26048SOL    HW282061   7.117   7.027   2.768 -1.4567  0.4972  0.1364
26049SOL     OW82062   7.120   3.118   5.737  0.2728  0.0133  0.1847
26049SOL    HW182063   7.100   3.204   5.698  0.7622  1.1100  2.2134
26049SOL    HW282064   7.053   3.060   5.701  0.1297  1.1489 -1.5121
26050SOL     OW82065   7.056   6.882   6.410 -0.3601 -0.8518 -0.1609
26050SOL    HW182066   6.984   6.923   6.361 -0.5046 -0.8417  0.0607
26050SOL    HW282067   7.120   6.953   6.422  0.9285 -1.4564 -2.6642
26051SOL     OW82068   4.425   6.632   6.693 -0.0298  0.0026  0.0653
26051SOL    HW182069   4.445   6.621   6.600 -0.3597 -1.0366  0.1075
26051SOL    HW282070   4.432   6.727   6.708  1.8718  0.0077 -0.5915
26052SOL     OW82071   5.198   0.947   2.420 -0.0290 -0.4125 -0.1348
26052SOL    HW182072   5.281   0.937   2.374 -0.1466  0.1035 -0.4794
26052SOL    HW282073   5.216   0.917   2.509  1.1361  1.6246  0.4030
26053SOL     OW82074   3.986   5.633   6.383  0.1976 -0.2425 -0.4926
26053SOL    HW182075   3.940   5.688   6.320  0.6374  0.3946 -0.2705
26053SOL    HW282076   3.937   5.644   6.465  1.7718  1.9644  0.2586
26054SOL     OW82077   8.709   5.005   5.729 -0.9605  0.0509  1.1514
26054SOL    HW182078   8.678   5.033   5.643  1.2681  3.1621  1.2000
26054SOL    HW282079   8.636   5.022   5.788 -1.4113  1.0165  0.3402
26055SOL     OW82080   1.812   1.939   8.468 -0.0241  0.6009  0.0558
26055SOL    HW182081   1.719   1.927   8.450  0.2426  0.4642 -1.3008
26055SOL    HW282082   1.856   1.913   8.387  1.1417  1.5957  0.3424
26056SOL     OW82083   0.075   6.324   1.475 -0.3409  0.4994 -0.4299
26056SOL    HW182084   0.165   6.358   1.478 -0.4138  0.6680 -0.0321
26056SOL    HW282085   0.050   6.318   1.567 -0.7189  0.4040 -0.5415
26057SOL     OW82086   0.894   0.188   4.439 -0.6766 -0.0637  0.5506
26057SOL    HW182087   0.900   0.284   4.444  0.2121 -0.0388 -0.6681
26057SOL    HW282088   0.883   0.170   4.346  0.3654 -1.2100  0.6329
26058SOL     OW82089   1.249   6.465   2.843  0.0219  0.3530 -0.0276
26058SOL    HW182090   1.299   6.499   2.917 -0.6899  0.3308  0.4814
26058SOL    HW282091   1.157   6.473   2.871 -0.2369 -0.0673 -0.7299
26059SOL     OW82092   8.895   1.409   6.721  0.0904  0.6578  0.6894
26059SOL    HW182093   8.826   1.367   6.772  0.3401 -1.6789 -0.7640
26059SOL    HW282094   8.971   1.352   6.731  0.7921  1.3443 -0.4463
26060SOL     OW82095   6.887   4.392   2.522 -0.7188  0.4081  0.5326
26060SOL    HW182096   6.872   4.335   2.598 -0.4003 -0.0047  0.2909
26060SOL    HW282097   6.833   4.469   2.539  0.3187  0.9089  1.8096
26061SOL     OW82098   0.251   2.781   0.793 -0.4532  0.5660 -0.4318
26061SOL    HW182099   0.180   2.760   0.733 -0.1659 -0.7500 -0.3454
26061SOL    HW282100   0.260   2.702   0.848  0.1169  1.2610  0.5025
26062SOL     OW82101   7.495   3.944   1.229  0.2173 -0.1251 -0.2211
26062SOL    HW182102   7.524   3.854   1.236 -1.1644 -0.6519 -0.9407
26062SOL    HW282103   7.539   3.989   1.302 -1.0963 -1.9103  1.7917
26063SOL     OW82104   4.542   0.651   3.670  0.3967  0.0224 -0.0099
26063SOL    HW182105   4.615   0.712   3.665  1.6852 -1.4587 -0.0434
26063SOL    HW282106   4.577   0.575   3.717 -1.0991 -0.7608 -0.0929
26064SOL     OW82107   6.501   3.985   0.204  0.3630 -0.2843  0.1692
26064SOL    HW182108   6.415   3.943   0.208  0.9360 -1.5847 -0.5634
26064SOL    HW282109   6.489   4.068   0.249 -0.5924 -1.6124  2.5219
26065SOL     OW82110   9.243   8.253   0.044 -0.0163 -0.3413  0.1220
26065SOL    HW182111   9.210   8.180   0.095 -0.8241  0.8958  1.4537
26065SOL    HW282112   9.181   8.262  -0.028 -1.1566  0.3208  1.1457
26066SOL     OW82113   2.993   0.192   7.814 -0.0327  0.0652 -0.1122
26066SOL    HW182114   3.037   0.108   7.797 -0.9177 -0.6479  0.9406
26066SOL    HW282115   2.939   0.175   7.891  1.0185  2.0814  1.1552
26067SOL     OW82116   1.271   9.871   6.161 -0.3212  0.2862  0.0720
26067SOL    HW182117   1.360   9.904   6.169  0.0256  0.1334 -2.2731
26067SOL    HW282118   1.227   9.899   6.241  1.4843  1.4506  0.7136
26068SOL     OW82119   6.222   5.113   7.145 -0.1792 -0.7558 -0.1984
26068SOL    HW182120   6.286   5.150   7.206 -0.8920  1.9618 -0.9861
26068SOL    HW282121   6.139   5.116   7.193 -0.3346 -0.8100 -0.4633
26069SOL     OW82122   5.935   9.936   6.636  0.1696  0.1331  0.1762
26069SOL    HW182123   5.872   9.970   6.700  1.5246  1.4496  0.8637
26069SOL    HW282124   5.986   9.870   6.684  0.8459  0.7507  0.3226
26070SOL     OW82125   3.960   5.313   2.648 -0.2446  0.1980 -0.2790
26070SOL    HW182126   3.877   5.319   2.696 -0.3526  0.6453 -0.5242
26070SOL    HW282127   3.941   5.253   2.576 -0.6854  1.1893 -1.0096
26071SOL     OW82128   6.596   0.375   9.367 -0.6580 -0.5812 -0.6473
26071SOL    HW182129   6.689   0.393   9.384 -0.9795  2.0806 -1.2001
26071SOL    HW282130   6.562   0.342   9.450  0.3485  0.5219  0.2368
26072SOL     OW82131   0.931   6.062   7.222  0.3358  0.0227  0.0328
26072SOL    HW182132   0.990   6.005   7.271 -0.3160 -2.5503 -1.9547
26072SOL    HW282133   0.979   6.085   7.142 -0.9707 -1.5367 -1.2856
26073SOL     OW82134   7.442   4.525   2.527  0.1820 -0.0362  0.1044
26073SOL    HW182135   7.451   4.437   2.565 -0.3035  0.3624  1.1858
26073SOL    HW282136   7.356   4.525   2.486 -0.4116  0.3650  1.3194
26074SOL     OW82137   2.334   3.023   6.890 -0.3302 -0.1527  0.4692
26074SOL    HW182138   2.391   2.952   6.862 -2.1070 -1.4308 -0.0762
26074SOL    HW282139   2.355   3.095   6.831 -1.1155 -1.4669 -1.4950
26075SOL     OW82140   5.059   1.078   4.480  0.4955  0.2187 -0.7577
26075SOL    HW182141   5.149   1.061   4.508  0.1725  0.5736  0.5638
26075SOL    HW282142   5.027   1.145   4.540 -0.6048  0.2132 -1.3072
26076SOL     OW82143   4.539   7.546   9.286 -0.1916 -0.3951  1.1327
26076SOL    HW182144   4.589   7.547   9.368 -0.1006  0.0654  1.0764
26076SOL    HW282145   4.449   7.527   9.313 -0.5679  1.7708  1.5990
26077SOL     OW82146   1.002   1.749  10.099 -0.5541  0.0606  0.0803
26077SOL    HW182147   0.987   1.656  10.115  1.5124 -0.1628  1.0275
26077SOL    HW282148   1.003   1.757  10.004 -0.5265 -0.9165 -0.0104
26078SOL     OW82149   1.421   0.643   4.320 -0.4582 -0.1177  0.5951
26078SOL    HW182150   1.361   0.585   4.274  0.5884 -0.8535  0.1213
26078SOL    HW282151   1.409   0.728   4.278  0.5867 -0.8053 -1.2119
26079SOL     OW82152   0.291   0.805   7.682  0.9004  0.1059  0.2943
26079SOL    HW182153   0.210   0.779   7.638  0.9989 -0.3364  0.3721
26079SOL    HW282154   0.327   0.874   7.627  1.5878 -1.1902 -0.9394
26080SOL     OW82155   3.759   4.005   5.314 -0.1568  0.0405  0.1647
26080SOL    HW182156   3.687   3.949   5.342  1.8802 -2.9590 -0.1167
26080SOL    HW282157   3.787   4.051   5.393 -0.6409 -0.8492  0.8636
26081SOL     OW82158   7.354   3.718   2.994  0.1060 -0.3764 -0.1337
26081SOL    HW182159   7.416   3.791   3.006 -1.8749  1.3642  0.0209
26081SOL    HW282160   7.400   3.642   3.029  3.1674  0.2657 -2.3203
26082SOL     OW82161   4.831   3.541   8.877  0.4722 -0.6320 -0.3233
26082SOL    HW182162   4.802   3.590   8.800 -3.4321 -0.8189  0.8181
26082SOL    HW282163   4.824   3.604   8.949 -1.1511 -1.8242  0.6174
26083SOL     OW82164   4.491   2.259   1.631  0.4605 -0.2230  0.4755
26083SOL    HW182165   4.461   2.170   1.652 -0.2082  0.1681  1.2144
26083SOL    HW282166   4.585   2.256   1.647  1.5633 -2.2102 -4.3234
26084SOL     OW82167   5.531   4.831   9.066  0.4155 -0.1075 -0.1939
26084SOL    HW182168   5.528   4.846   9.161  1.2793 -0.9517 -0.0173
26084SOL    HW282169   5.472   4.758   9.051 -1.6613  1.5745 -0.6790
26085SOL     OW82170   9.593   3.008   0.504  0.0203 -0.1609  0.5165
26085SOL    HW182171   9.626   2.950   0.573 -2.2359 -2.3530 -0.1058
26085SOL    HW282172   9.536   3.069   0.551  0.6561  0.1452  0.9066
26086SOL     OW82173   4.651   5.830   5.761  0.8945  0.5389  0.0165
26086SOL    HW182174   4.621   5.893   5.695 -0.4581 -1.3840 -1.3037
26086SOL    HW282175   4.586   5.836   5.831 -0.1909 -0.4928 -0.8558
26087SOL     OW82176   4.986   7.441   2.314 -0.3727  0.1297 -0.4532
26087SOL    HW182177   4.972   7.534   2.332 -1.9918 -0.1623 -0.0538
26087SOL    HW282178   5.006   7.438   2.220 -0.6055  0.8540 -0.5336
26088SOL     OW82179   2.084   1.025   4.955  0.1196  0.0937  0.7764
26088SOL    HW182180   2.153   1.089   4.970  0.5154 -0.5775  1.9761
26088SOL    HW282181   2.003   1.068   4.982  0.2939  0.3146  0.9418
26089SOL     OW82182   5.300   2.346   3.869  0.4803 -0.2312 -0.4531
26089SOL    HW182183   5.379   2.384   3.831  0.9147 -0.4564  0.2088
26089SOL    HW282184   5.291   2.389   3.954 -0.7714  0.6457 -1.0012
26090SOL     OW82185   0.506   4.406   6.453 -0.4569 -0.0988  0.4868
26090SOL    HW182186   0.445   4.445   6.389 -0.1009  0.9121  0.7492
26090SOL    HW282187   0.471   4.432   6.538  1.4421  2.3302  0.6395
26091SOL     OW82188   0.061   7.978   6.744 -0.0061  0.1443  0.1410
26091SOL    HW182189   0.148   8.012   6.722 -0.2298  1.5135  1.2318
26091SOL    HW282190   0.078   7.911   6.811  0.2804 -0.4685 -0.5281
26092SOL     OW82191   0.852   5.360   3.015 -0.1565 -0.4825  0.0406
26092SOL    HW182192   0.917   5.429   3.011  0.8526 -1.4744 -1.5442
26092SOL    HW282193   0.818   5.365   3.105 -0.7137  2.5444 -0.2126
26093SOL     OW82194   6.635   0.564   4.737 -0.6515  0.0615  0.0632
26093SOL    HW182195   6.600   0.487   4.692  0.1698  0.4163 -1.2576
26093SOL    HW282196   6.706   0.594   4.680  0.8964  0.1646  1.9656
26094SOL     OW82197   1.056   6.099   5.179 -0.3135  0.2214  0.0397
26094SOL    HW182198   1.075   6.179   5.229 -1.5330  0.2987  0.4348
26094SOL    HW282199   1.056   6.128   5.087  1.7333  0.1217 -0.0348
26095SOL     OW82200   2.619   0.356   3.300  0.3036 -0.2200  0.2145
26095SOL    HW182201   2.595   0.385   3.212  0.0561 -0.1157  0.3149
26095SOL    HW282202   2.682   0.285   3.286  1.2764  0.6670 -0.0195
26096SOL     OW82203   8.870   0.399   3.736 -0.3516  0.1745  0.0454
26096SOL    HW182204   8.916   0.462   3.792  0.2002 -0.4957  0.3545
26096SOL    HW282205   8.799   0.450   3.697 -0.8030  0.6358  1.4249
26097SOL     OW82206   7.161   5.857   4.578  0.0713  0.2625 -0.1753
26097SOL    HW182207   7.203   5.860   4.663  1.9348  0.1606 -1.0447
26097SOL    HW282208   7.082   5.804   4.592  1.0678 -0.9503  1.1820
26098SOL     OW82209   4.418   4.979   5.854  0.4198  0.2383 -0.0674
26098SOL    HW182210   4.359   4.905   5.848  1.0775 -0.2226 -1.2366
26098SOL    HW282211   4.366   5.054   5.825  0.6182 -0.3041 -1.9564
26099SOL     OW82212   1.813   9.600   0.903  0.5409 -0.0732 -0.3362
26099SOL    HW182213   1.729   9.607   0.947 -0.0042 -0.3828 -1.2890
26099SOL    HW282214   1.869   9.555   0.966  0.2966  1.0077  0.6906
26100SOL     OW82215   4.094   1.498   0.201 -0.3421  0.3040  0.4231
26100SOL    HW182216   4.078   1.587   0.169  1.1726  0.5538  0.3150
26100SOL    HW282217   4.037   1.443   0.147 -1.9130  1.2550  1.0246
26101SOL     OW82218   3.316   8.913   8.895 -0.1861  0.7644  0.2039
26101SOL    HW182219   3.408   8.898   8.917  0.2486 -1.3817 -2.5963
26101SOL    HW282220   3.318   8.987   8.835 -0.0396 -0.1911 -1.0158
26102SOL     OW82221   3.576  10.098   2.392 -0.2254  0.0484  0.4113
26102SOL    HW182222   3.619  10.019   2.360 -2.6140 -1.0367 -0.3620
26102SOL    HW282223   3.625  10.170   2.353  0.5009 -1.1295 -0.9218
26103SOL     OW82224   5.338   4.584   3.469  0.3574  0.1682  0.5549
26103SOL    HW182225   5.380   4.665   3.497 -2.6277  2.1590 -0.2897
26103SOL    HW282226   5.272   4.566   3.536 -1.2697  0.3852 -0.9001
26104SOL     OW82227   1.338   0.065   5.301 -0.4202  0.1220 -0.6186
26104SOL    HW182228   1.299   0.150   5.278  0.3827  0.4763 -0.7174
26104SOL    HW282229   1.430   0.085   5.319 -0.3582 -0.6367 -0.0375
26105SOL     OW82230   0.560   3.079   1.988 -0.0378 -0.4582 -0.3578
26105SOL    HW182231   0.556   3.166   1.950  1.3528  0.4702  1.4601
26105SOL    HW282232   0.625   3.032   1.936 -0.3091 -0.1933 -0.9334
26106SOL     OW82233   8.959   8.800   2.152  0.5619  0.3824 -0.1880
26106SOL    HW182234   8.864   8.795   2.163  0.4774 -0.9523 -1.2811
26106SOL    HW282235   8.972   8.877   2.095 -0.0015 -0.2546 -1.2188
26107SOL     OW82236   1.749   4.711   8.140 -0.0746 -0.4705  0.2046
26107SOL    HW182237   1.742   4.756   8.224  0.3251 -0.9503  0.5008
26107SOL    HW282238   1.712   4.772   8.077 -2.5621 -0.9925  1.0258
26108SOL     OW82239   1.864   0.703   1.696  0.0520 -0.3432  0.4845
26108SOL    HW182240   1.775   0.716   1.665 -0.6221  0.2110  2.4526
26108SOL    HW282241   1.857   0.713   1.791  2.2125 -0.3215  0.6849
26109SOL     OW82242   5.835   5.147   7.131  0.2670 -0.1417 -0.0431
26109SOL    HW182243   5.838   5.068   7.077 -2.4694 -0.2541 -0.1922
26109SOL    HW282244   5.812   5.216   7.069 -1.7886 -0.0742  0.7144
26110SOL     OW82245   0.483   2.089   7.372 -0.0587 -0.3448 -0.0078
26110SOL    HW182246   0.532   2.072   7.452  1.2420 -0.0656 -0.7113
26110SOL    HW282247   0.549   2.123   7.311 -1.6020  2.7357 -0.1460
26111SOL     OW82248  10.014   0.238   1.146 -0.0243 -0.1582 -0.0056
26111SOL    HW182249  10.021   0.306   1.213 -0.5733  1.3080 -1.3593
26111SOL    HW282250  10.067   0.166   1.179 -0.8660  0.2029  2.3314
26112SOL     OW82251  10.015   2.829   5.967 -0.0708  0.0579 -0.5033
26112SOL    HW182252   9.984   2.906   6.016  1.9905  0.5657  0.1031
26112SOL    HW282253   9.952   2.820   5.895 -0.0930  2.6573 -0.9216
26113SOL     OW82254   2.518   7.887   4.728  0.7062  0.3340 -0.2198
26113SOL    HW182255   2.574   7.874   4.804  0.1840  1.0606  0.3000
26113SOL    HW282256   2.434   7.847   4.752 -0.2747  2.7211  0.6138
26114SOL     OW82257   2.496   7.416   6.631 -0.3004  0.1276 -0.5566
26114SOL    HW182258   2.460   7.461   6.708  1.4233 -1.2291  1.1752
26114SOL    HW282259   2.420   7.378   6.588 -1.2545 -0.2386  1.3232
26115SOL     OW82260   8.535   8.589   0.157 -0.4348  0.0321  0.0652
26115SOL    HW182261   8.482   8.647   0.211  0.8621  0.7329  0.6408
26115SOL    HW282262   8.508   8.607   0.068  0.2495  1.9001  0.1890
26116SOL     OW82263   5.045   6.584   3.721 -0.0125 -0.3027  0.7723
26116SOL    HW182264   4.973   6.523   3.706 -0.1452  0.0500 -0.1038
26116SOL    HW282265   5.101   6.576   3.643  0.5833 -0.1512  1.1788
26117SOL     OW82266   1.742   3.034   3.218 -0.9247 -0.1268 -0.0364
26117SOL    HW182267   1.739   3.104   3.284  1.7156  0.6415 -0.6203
26117SOL    HW282268   1.773   2.957   3.267  2.2356  0.7411 -0.4625
26118SOL     OW82269   4.001   0.940   6.374  1.0948 -0.2951  0.0501
26118SOL    HW182270   3.969   0.930   6.464  0.7008  0.2523 -0.0231
26118SOL    HW282271   4.014   0.850   6.343 -0.8628 -0.5784 -0.0877
26119SOL     OW82272   2.386   3.656   1.831 -0.1996  0.3397 -0.1632
26119SOL    HW182273   2.333   3.727   1.866 -0.6618  0.9875 -2.0454
26119SOL    HW282274   2.416   3.688   1.746  0.3050 -1.3909 -0.6841
26120SOL     OW82275   7.653   7.579   2.866  0.2546  0.5855  0.3593
26120SOL    HW182276   7.649   7.562   2.771 -0.6637 -0.2720  0.5392
26120SOL    HW282277   7.741   7.614   2.880  0.3356  0.9071 -0.8444
26121SOL     OW82278   4.293   9.885   5.566  0.8874 -0.0990  0.0151
26121SOL    HW182279   4.257   9.963   5.523 -0.2575 -0.0403  1.0168
26121SOL    HW282280   4.218   9.847   5.611  1.7102 -1.0777  0.5777
26122SOL     OW82281   2.047   2.879   7.965 -0.1984 -0.5332  0.3344
26122SOL    HW182282   2.083   2.882   7.877  0.3163 -0.7821  0.5293
26122SOL    HW282283   2.037   2.785   7.983 -1.6685 -0.4680  0.0049
26123SOL     OW82284   6.808   9.621   9.510 -0.1976  0.1443 -0.3613
26123SOL    HW182285   6.824   9.539   9.557 -0.2796  0.4708  0.2486
26123SOL    HW282286   6.878   9.626   9.445 -1.2833 -1.3463 -1.7051
26124SOL     OW82287   4.278   3.620   0.233 -0.0058  0.2205  0.3480
26124SOL    HW182288   4.188   3.652   0.240 -0.9594 -1.7386 -1.4892
26124SOL    HW282289   4.275   3.531   0.268  1.2388  0.1359  0.3000
26125SOL     OW82290   5.702   4.568   3.683 -0.4744  0.1667  0.9222
26125SOL    HW182291   5.693   4.491   3.739 -0.6315  1.0740  2.1959
26125SOL    HW282292   5.646   4.634   3.723 -0.7344  0.8117 -0.4220
26126SOL     OW82293   5.355   6.470   6.215  0.0311 -0.0143  0.1973
26126SOL    HW182294   5.366   6.386   6.260  1.1587 -0.0656 -0.1491
26126SOL    HW282295   5.287   6.515   6.265 -0.7245 -1.1912  0.2920
26127SOL     OW82296   1.223  10.027   2.080 -0.3679  0.2665  0.5236
26127SOL    HW182297   1.184  10.061   2.160 -1.1237  1.9176 -0.4946
26127SOL    HW282298   1.153  10.032   2.015  0.0340 -1.6469 -0.1266
26128SOL     OW82299   8.754   8.544   5.983  0.1017  0.0117  0.5083
26128SOL    HW182300   8.659   8.533   5.991 -0.0885  0.0296 -1.2160
26128SOL    HW282301   8.773   8.521   5.892  2.1198 -2.3585  1.4059
26129SOL     OW82302   8.044   9.105   6.155 -0.8614 -0.5612  0.2866
26129SOL    HW182303   8.115   9.053   6.192 -0.0444  2.0522  2.6803
26129SOL    HW282304   7.965   9.056   6.177 -0.1392 -0.8129  2.5317
26130SOL     OW82305   2.892   9.373   4.102 -0.0924  0.2617  0.4128
26130SOL    HW182306   2.895   9.281   4.129  2.2452  0.3601  0.6823
26130SOL    HW282307   2.898   9.371   4.007  1.4057  0.1279  0.4852
26131SOL     OW82308   0.596   8.293   9.638 -0.0855  0.1586 -0.8315
26131SOL    HW182309   0.539   8.369   9.624  0.3651  0.1618 -2.7941
26131SOL    HW282310   0.670   8.328   9.687 -1.2443  0.3478  0.8988
26132SOL     OW82311   0.206   1.973   6.022 -0.3045  0.1539  0.3960
26132SOL    HW182312   0.274   1.992   6.087 -1.1814 -2.3292  2.1500
26132SOL    HW282313   0.249   1.914   5.960 -0.2558  0.3615  0.2284
26133SOL     OW82314   7.198   6.216   6.000 -0.8030  0.0887 -0.1477
26133SOL    HW182315   7.272   6.253   6.049  0.4814  0.2102 -2.0741
26133SOL    HW282316   7.201   6.123   6.019  0.5074 -0.0674 -0.9765
26134SOL     OW82317   6.011   0.981   2.691 -0.3227  0.2357 -0.7648
26134SOL    HW182318   5.965   0.935   2.762  0.4187 -1.0673 -1.0942
26134SOL    HW282319   5.949   1.048   2.662 -1.8707 -1.2005 -0.9328
26135SOL     OW82320   6.030   7.222   9.026  0.3095 -0.6488  0.4250
26135SOL    HW182321   6.001   7.184   8.942  0.5358 -2.6879  1.2061
26135SOL    HW282322   6.081   7.152   9.067  0.1513  0.2834  2.2998
26136SOL     OW82323   9.623   1.201   1.090  0.7178 -0.4902  0.1604
26136SOL    HW182324   9.610   1.243   1.175 -0.6590 -0.5080 -0.0120
26136SOL    HW282325   9.712   1.225   1.064  0.8527  0.2151  1.2191
26137SOL     OW82326   7.328   3.070   3.341 -0.4947 -0.4041 -0.8488
26137SOL    HW182327   7.408   3.032   3.378 -1.3061 -1.5292 -0.1966
26137SOL    HW282328   7.304   3.012   3.270 -1.5161 -0.9054 -0.1142
26138SOL     OW82329   6.227   1.485   4.602 -0.2857  0.3306 -0.1245
26138SOL    HW182330   6.135   1.475   4.627 -0.5287  0.0313 -1.1233
26138SOL    HW282331   6.261   1.550   4.665 -0.3525 -1.8123  2.2919
26139SOL     OW82332   3.117   6.373   4.950 -0.6807 -0.0479  0.0486
26139SOL    HW182333   3.117   6.316   5.027 -1.0847  0.0413  0.1166
26139SOL    HW282334   3.123   6.312   4.876  1.7720 -0.0578  0.1828
26140SOL     OW82335   8.392   2.620   1.514 -0.1003 -0.1888  0.0234
26140SOL    HW182336   8.355   2.708   1.505 -2.2516 -1.0230 -0.0560
26140SOL    HW282337   8.475   2.633   1.560 -0.5234  1.8454  0.3085
26141SOL     OW82338   8.625   8.912   7.250 -0.1555  0.2995 -0.1659
26141SOL    HW182339   8.612   8.845   7.316 -1.6893 -0.1729 -0.8850
26141SOL    HW282340   8.635   8.863   7.168  2.2228  0.8458 -0.2732
26142SOL     OW82341   8.080   8.621   4.326 -0.0628  0.3145  0.4134
26142SOL    HW182342   8.151   8.576   4.280 -0.3029  0.9945 -0.6645
26142SOL    HW282343   8.116   8.707   4.346 -0.2569  0.3193  0.7545
26143SOL     OW82344   9.229   1.600   7.098 -0.2812  1.1269  0.4744
26143SOL    HW182345   9.268   1.572   7.181 -0.6928 -2.0185 -0.2747
26143SOL    HW282346   9.159   1.659   7.124 -1.2867 -0.8178  2.5363
26144SOL     OW82347   9.571   7.735   3.910 -0.2328 -0.0764 -0.2291
26144SOL    HW182348   9.609   7.756   3.824 -0.6464  0.5725 -0.2542
26144SOL    HW282349   9.647   7.721   3.967  0.0482  1.0774 -0.3106
26145SOL     OW82350   5.900   8.145   8.915 -0.2391  0.0120  0.2305
26145SOL    HW182351   5.992   8.126   8.934  0.1540  0.5539 -1.0092
26145SOL    HW282352   5.851   8.073   8.955  0.7177 -0.2996  0.8758
26146SOL     OW82353   8.371  10.056   1.008 -0.1855 -0.0628  0.2795
26146SOL    HW182354   8.357  10.139   0.963 -1.3384 -0.4246 -0.0668
26146SOL    HW282355   8.428  10.006   0.949  0.6914  0.5399  0.5889
26147SOL     OW82356   0.955   7.673   3.284  0.0743  0.6732  0.1267
26147SOL    HW182357   1.028   7.612   3.292 -0.4832 -0.5519 -2.9222
26147SOL    HW282358   0.886   7.635   3.338  0.7096  0.2205  0.6340
26148SOL     OW82359   3.831   6.908   8.559  0.3023 -0.3906 -0.1534
26148SOL    HW182360   3.920   6.939   8.574  1.7969 -2.2272 -3.8763
26148SOL    HW282361   3.838   6.813   8.566 -1.7115 -0.5226  0.6856
26149SOL     OW82362   0.093   1.674   2.951 -0.6264 -0.4448  0.0360
26149SOL    HW182363   0.006   1.649   2.920 -1.4048 -0.8879  2.3706
26149SOL    HW282364   0.138   1.590   2.965 -0.0126 -0.2337 -0.6069
26150SOL     OW82365   9.224   9.918   9.668 -0.0712  0.0225  0.8847
26150SOL    HW182366   9.142   9.898   9.713  0.6417  0.3237  2.4104
26150SOL    HW282367   9.268   9.981   9.726  0.4169  1.3212 -0.8099
26151SOL     OW82368   9.714   7.919   1.459  0.1880  0.1715 -0.1361
26151SOL    HW182369   9.702   8.012   1.442  1.2301  0.5245  0.9459
26151SOL    HW282370   9.724   7.912   1.554 -0.3744 -1.1087 -0.1432
26152SOL     OW82371   8.469   1.775   9.391 -0.4984 -0.1527 -0.7259
26152SOL    HW182372   8.534   1.773   9.322  0.8289  0.3045  0.4644
26152SOL    HW282373   8.386   1.793   9.346  0.4214  0.7434 -2.1247
26153SOL     OW82374   4.769   2.139   3.534  0.2234  0.3663 -0.0194
26153SOL    HW182375   4.683   2.104   3.514  0.7550 -0.4646 -0.9340
26153SOL    HW282376   4.760   2.234   3.525 -0.5628  0.2762 -0.2073
26154SOL     OW82377   5.723  10.161   0.577  0.0790  0.6388  0.1941
26154SOL    HW182378   5.817  10.159   0.590  0.0077 -1.6860  0.8669
26154SOL    HW282379   5.687  10.163   0.666 -0.4768  0.2561 -0.0136
26155SOL     OW82380   2.867   4.744   5.958  0.0895 -0.0646  0.6219
26155SOL    HW182381   2.890   4.805   6.028  0.3430 -0.5290  0.9494
26155SOL    HW282382   2.881   4.793   5.878  0.7673  0.1594  0.8681
26156SOL     OW82383   1.737   0.521   8.789  0.4407 -0.6204 -0.5354
26156SOL    HW182384   1.693   0.436   8.796  0.6091 -0.6957 -0.4120
26156SOL    HW282385   1.767   0.540   8.878  0.2816 -0.3660 -0.5334
26157SOL     OW82386   2.476   9.206   6.958  0.4119  0.3520  0.0509
26157SOL    HW182387   2.395   9.187   6.910  0.7518  1.8876 -1.2219
26157SOL    HW282388   2.461   9.294   6.994  1.1363  0.2389  0.6349
26158SOL     OW82389   6.068   4.536   9.641  0.4874  0.1227 -0.7538
26158SOL    HW182390   6.017   4.507   9.717  0.7760 -0.9429 -0.9466
26158SOL    HW282391   6.003   4.551   9.572  0.3701 -0.5604 -0.7955
26159SOL     OW82392   7.230   8.416   1.552 -0.1032  0.0141 -0.1659
26159SOL    HW182393   7.242   8.336   1.604  0.3643  0.0978 -0.1391
26159SOL    HW282394   7.287   8.404   1.476 -0.2401  0.2029 -0.2986
26160SOL     OW82395   4.445   2.433   5.972 -0.0817 -0.1070  0.1240
26160SOL    HW182396   4.526   2.483   5.969  1.2560 -2.0148  1.4966
26160SOL    HW282397   4.439   2.403   6.063 -1.4723 -1.3514 -0.3287
26161SOL     OW82398   0.533   7.957   6.311 -0.2480 -0.2014  0.0477
26161SOL    HW182399   0.494   7.989   6.230 -0.9150 -1.4832 -0.1658
26161SOL    HW282400   0.626   7.946   6.290 -0.7927 -2.9694 -1.4374
26162SOL     OW82401   1.281   5.859   2.935 -0.3205  0.1003 -0.1543
26162SOL    HW182402   1.270   5.945   2.893 -0.3965  0.7537  1.1502
26162SOL    HW282403   1.337   5.876   3.011  1.2559 -1.3624 -0.9264
26163SOL     OW82404   9.380   2.433   3.672 -0.1253  0.7596 -0.0052
26163SOL    HW182405   9.378   2.361   3.608  0.1896 -0.5728  1.4052
26163SOL    HW282406   9.462   2.479   3.654  1.7915 -1.7331  1.5340
26164SOL     OW82407   5.225   6.894   0.208 -0.1431  0.0172  0.1177
26164SOL    HW182408   5.317   6.876   0.194 -0.4427 -1.8792  0.3365
26164SOL    HW282409   5.184   6.808   0.219 -2.0058  0.7773 -0.3727
26165SOL     OW82410   6.678   4.890   4.215 -0.2411  0.4952 -0.3784
26165SOL    HW182411   6.753   4.946   4.235 -0.7220  0.7266  0.8899
26165SOL    HW282412   6.712   4.823   4.157  0.7014  1.2093 -0.6727
26166SOL     OW82413   1.176   0.806   8.214  0.2789  0.5281  0.2638
26166SOL    HW182414   1.148   0.779   8.302 -0.6502 -0.6209 -0.3590
26166SOL    HW282415   1.112   0.767   8.155 -0.0055  2.5380 -0.8520
26167SOL     OW82416   2.069   5.496   3.209  0.1201  0.1483 -0.0794
26167SOL    HW182417   2.097   5.587   3.216  1.5242 -0.2097 -0.7041
26167SOL    HW282418   2.148   5.448   3.182 -0.4687 -1.3311  0.6993
26168SOL     OW82419   9.299   4.326   5.789  0.9365 -0.0997 -0.1091
26168SOL    HW182420   9.292   4.384   5.713 -0.6691  0.4198  0.3781
26168SOL    HW282421   9.242   4.253   5.767  1.0577 -0.3105  0.2853
26169SOL     OW82422   2.136   6.473   5.419 -0.0741  0.4181  0.5257
26169SOL    HW182423   2.163   6.389   5.383 -0.6615  0.5219 -0.1865
26169SOL    HW282424   2.056   6.495   5.372 -1.3474  0.1833  2.4620
26170SOL     OW82425   1.612   6.192   0.055 -0.0172 -0.1204 -0.1739
26170SOL    HW182426   1.703   6.223   0.056  0.2616 -0.8676  1.9268
26170SOL    HW282427   1.580   6.208   0.144 -0.9350 -2.6603  0.0198
26171SOL     OW82428   5.269   9.286   9.276  0.0844 -0.2159 -0.2827
26171SOL    HW182429   5.271   9.223   9.349  0.3001  2.4067  2.1534
26171SOL    HW282430   5.351   9.334   9.284  0.5932 -0.4702 -2.9754
26172SOL     OW82431   6.940  10.130   3.927  0.1447 -0.0561  0.2992
26172SOL    HW182432   7.024  10.148   3.884  0.6337  0.0712  1.2746
26172SOL    HW282433   6.963  10.115   4.019 -0.9398  0.2900  0.6429
26173SOL     OW82434   9.390   2.823   2.836 -0.1518  0.6802 -0.1603
26173SOL    HW182435   9.479   2.807   2.807 -0.7632 -2.2173 -0.7551
26173SOL    HW282436   9.394   2.816   2.931 -0.2788 -3.8607 -0.2793
26174SOL     OW82437   3.293   7.120   7.943 -0.3598 -0.2806  0.1373
26174SOL    HW182438   3.318   7.182   8.011  0.8034  0.4743 -0.9443
26174SOL    HW282439   3.356   7.134   7.873 -0.6545 -2.0262 -0.5356
26175SOL     OW82440   7.237   6.600   1.067 -0.3723 -0.2083  0.8299
26175SOL    HW182441   7.299   6.636   1.003 -0.7694 -1.1065 -0.0833
26175SOL    HW282442   7.227   6.670   1.132  0.7676  0.3651  0.4292
26176SOL     OW82443   2.418   9.907   4.408  0.4352 -0.0354  0.3797
26176SOL    HW182444   2.407   9.991   4.364  2.8703  1.0479  1.6410
26176SOL    HW282445   2.459   9.851   4.343 -0.5984 -0.0700 -0.2633
26177SOL     OW82446   8.366   3.540   6.776 -0.5307 -0.1540  0.4603
26177SOL    HW182447   8.350   3.580   6.691  0.6127 -1.0875 -0.2224
26177SOL    HW282448   8.308   3.588   6.836 -0.9718  0.8718 -0.7309
26178SOL     OW82449   7.365   0.415   5.779  0.1999 -0.3115 -0.1628
26178SOL    HW182450   7.418   0.439   5.855 -0.2485  0.1196  0.0221
26178SOL    HW282451   7.296   0.359   5.815  1.4851 -2.2970 -0.6532
26179SOL     OW82452   0.865   7.563   4.446  0.0468 -0.0458 -0.0520
26179SOL    HW182453   0.780   7.525   4.423  1.6346 -2.3882 -2.5479
26179SOL    HW282454   0.895   7.512   4.521  0.2867 -0.7958 -0.6608
26180SOL     OW82455   5.171   9.280   2.249  0.0249  0.0286 -0.4991
26180SOL    HW182456   5.192   9.368   2.280 -1.4789 -0.1634  1.2282
26180SOL    HW282457   5.098   9.293   2.188 -1.2089 -0.1083  0.9039
26181SOL     OW82458   3.397   4.698   7.267  0.0894  0.2407  0.1390
26181SOL    HW182459   3.304   4.682   7.251 -0.0064 -0.0549  0.9573
26181SOL    HW282460   3.398   4.768   7.332  0.4104 -0.3878  0.8311
26182SOL     OW82461   5.574   5.840   2.849  0.0708  0.0576  0.0332
26182SOL    HW182462   5.525   5.758   2.852 -1.2593  0.7130 -1.6644
26182SOL    HW282463   5.546   5.888   2.927 -2.0809  0.4086 -0.8770
26183SOL     OW82464   9.876   5.198   3.477  0.0338  0.0822  0.3683
26183SOL    HW182465   9.909   5.135   3.413 -0.0112  1.2028 -0.8020
26183SOL    HW282466   9.926   5.278   3.460 -2.1232  1.3559 -0.4292
26184SOL     OW82467   8.535   9.317   6.059  0.1505  0.0496 -0.1623
26184SOL    HW182468   8.547   9.222   6.064 -0.1144 -0.0041 -0.5080
26184SOL    HW282469   8.445   9.331   6.086 -0.0128  0.1405 -0.7426
26185SOL     OW82470   6.824   8.404   9.776  0.2132  0.1777 -0.4941
26185SOL    HW182471   6.867   8.319   9.767 -0.2791 -0.0678 -0.5783
26185SOL    HW282472   6.828   8.442   9.688 -0.1177 -0.0272 -0.5972
26186SOL     OW82473   9.954   1.626   3.837  0.0348  0.2401  0.1840
26186SOL    HW182474   9.919   1.538   3.829 -0.3660  0.4139  0.0029
26186SOL    HW282475   9.902   1.666   3.907 -0.3253  0.5943 -0.2828
26187SOL     OW82476   7.195   6.048   5.085 -0.6481  0.7996 -0.3339
26187SOL    HW182477   7.215   6.074   4.995 -1.7503 -0.7427 -1.0896
26187SOL    HW282478   7.105   6.015   5.081 -0.5535  0.2465  1.2271
26188SOL     OW82479   6.995   1.066   5.580  0.1614  0.5754  0.3482
26188SOL    HW182480   7.050   1.054   5.503 -0.2752  0.5370  0.0361
26188SOL    HW282481   6.932   1.133   5.554 -0.0301  0.5141  0.6478
26189SOL     OW82482   9.444   8.586   8.967 -0.0284 -0.5693  0.1613
26189SOL    HW182483   9.376   8.527   8.935  0.3693 -1.5349  1.0807
26189SOL    HW282484   9.440   8.579   9.062  0.1099  0.8023  0.2863
26190SOL     OW82485   3.474   6.921  10.138 -0.5017 -0.2965 -0.7780
26190SOL    HW182486   3.469   6.890  10.047 -1.3489 -1.2722 -0.4192
26190SOL    HW282487   3.397   6.883  10.180  0.4557 -0.7409  0.6205
26191SOL     OW82488   7.366   0.857   4.429  0.4479 -0.1695 -0.1869
26191SOL    HW182489   7.447   0.907   4.426  1.3272 -1.4534  0.9298
26191SOL    HW282490   7.356   0.833   4.521 -1.7853  0.8404 -0.1017
26192SOL     OW82491   1.289   6.186   2.175 -0.3473  0.2948  0.0282
26192SOL    HW182492   1.291   6.148   2.262  1.1005 -1.7578 -0.8310
26192SOL    HW282493   1.355   6.255   2.177  0.8601 -0.8174  0.1553
26193SOL     OW82494   1.357   4.392   7.075  0.3284  0.3389  0.1578
26193SOL    HW182495   1.311   4.310   7.058  1.1018  0.4536 -3.2801
26193SOL    HW282496   1.294   4.460   7.049  0.8608  0.6766 -0.2637
26194SOL     OW82497   0.124   8.527   4.133 -0.2482  0.2460 -0.2572
26194SOL    HW182498   0.145   8.581   4.210 -1.9133  1.3396 -0.5295
26194SOL    HW282499   0.126   8.589   4.060  0.2407 -0.5797 -0.9603
26195SOL     OW82500   6.074   9.061   4.003  0.1168  0.1734 -0.4332
26195SOL    HW182501   6.086   9.019   4.088  1.3065  0.3310 -0.4945
26195SOL    HW282502   6.160   9.099   3.983  0.2118 -0.8668 -2.2482
26196SOL     OW82503   2.206   2.276   6.136 -0.5204  0.2035 -0.3989
26196SOL    HW182504   2.191   2.182   6.138  1.2857 -0.1111  0.0425
26196SOL    HW282505   2.217   2.297   6.043  1.2003 -0.4376 -0.3818
26197SOL     OW82506   6.166   7.422   9.805 -0.2370 -0.0148  0.5837
26197SOL    HW182507   6.243   7.387   9.760 -0.4687  1.2393 -0.8568
26197SOL    HW282508   6.117   7.344   9.831 -0.2024 -0.8455 -1.5699
26198SOL     OW82509   4.283   8.645   1.921 -0.1815 -0.1238  0.1234
26198SOL    HW182510   4.263   8.738   1.933  1.3708  0.0352  1.9229
26198SOL    HW282511   4.376   8.637   1.943 -0.2441 -2.0845 -0.1440
26199SOL     OW82512   8.888   8.803   2.910 -0.2457  0.2007  0.0188
26199SOL    HW182513   8.958   8.747   2.944 -0.3274  0.4300  0.5719
26199SOL    HW282514   8.879   8.776   2.819  0.3950 -0.0042  0.0081
26200SOL     OW82515   2.763   3.602   7.271  0.3834  0.5563 -0.4332
26200SOL    HW182516   2.818   3.537   7.226  1.1007  0.1448  0.9741
26200SOL    HW282517   2.730   3.658   7.201  0.2036 -0.9855 -1.6333
26201SOL     OW82518   2.865   1.307  10.059 -0.3739  0.2683 -0.0110
26201SOL    HW182519   2.792   1.245  10.062 -0.8327  0.6798 -1.5072
26201SOL    HW282520   2.939   1.260  10.098 -1.0524 -0.7279  0.1012
26202SOL     OW82521   2.732   1.346   1.276 -0.1217 -0.0185 -0.4205
26202SOL    HW182522   2.735   1.329   1.370  0.9936  1.1116 -0.2208
26202SOL    HW282523   2.643   1.323   1.251 -0.9271  1.0851  1.2185
26203SOL     OW82524   2.965   0.733   0.756  0.0985 -0.0034 -0.0034
26203SOL    HW182525   2.987   0.660   0.698 -0.2599  0.5649 -0.8747
26203SOL    HW282526   2.888   0.702   0.805 -0.1042 -0.1846 -0.4295
26204SOL     OW82527   1.424   6.641   9.039  0.3979 -0.0879 -0.4788
26204SOL    HW182528   1.464   6.577   9.096 -0.3176 -1.1329 -1.1126
26204SOL    HW282529   1.486   6.651   8.967  0.6589  0.1752 -0.2163
26205SOL     OW82530   7.472   1.512   1.483 -0.0107 -0.5071 -0.5813
26205SOL    HW182531   7.444   1.595   1.522 -2.2450 -1.0008 -0.9903
26205SOL    HW282532   7.513   1.537   1.400  0.6941  0.2488 -0.0265
26206SOL     OW82533   8.360   1.688   3.375 -0.0931  0.3720  0.0610
26206SOL    HW182534   8.367   1.631   3.299 -2.0586 -0.1888  0.2440
26206SOL    HW282535   8.312   1.636   3.439  0.4136  1.2973  1.2355
26207SOL     OW82536   3.728   6.372   8.664 -0.3750 -0.2044  0.2586
26207SOL    HW182537   3.761   6.422   8.589  1.7783  1.2367  2.0371
26207SOL    HW282538   3.758   6.282   8.647  1.1237  0.3258 -0.1127
26208SOL     OW82539   4.803   6.491   8.772 -0.1936  0.1653 -0.9274
26208SOL    HW182540   4.719   6.467   8.811  1.2080 -0.0533  2.3422
26208SOL    HW282541   4.856   6.412   8.779  1.3082  1.2196  0.3270
26209SOL     OW82542   6.148   6.031   5.332  0.7964 -0.2977 -0.5680
26209SOL    HW182543   6.121   5.983   5.410  1.7147 -1.1101 -0.7287
26209SOL    HW282544   6.103   5.987   5.260 -0.4412  0.7595 -0.4763
26210SOL     OW82545   8.204   5.909   5.814  0.0093  0.0381 -0.4066
26210SOL    HW182546   8.268   5.894   5.745  1.0988 -0.9487  0.7714
26210SOL    HW282547   8.158   5.826   5.823 -1.0768  0.5721 -0.8571
26211SOL     OW82548   4.753   4.897   6.061  0.1313  0.8242  0.2906
26211SOL    HW182549   4.815   4.870   5.993 -1.0796 -1.6882  0.0619
26211SOL    HW282550   4.676   4.927   6.013 -1.3493 -2.4451  0.3636
26212SOL     OW82551   9.315   7.512   0.859 -0.3195 -0.0301 -0.0243
26212SOL    HW182552   9.348   7.560   0.784  0.2756  0.7320  0.6959
26212SOL    HW282553   9.262   7.441   0.822 -2.9250  2.3304 -1.1110
26213SOL     OW82554   2.480   7.953   8.202 -0.0657 -0.4924 -0.6596
26213SOL    HW182555   2.456   7.909   8.284  0.6285 -1.5221 -0.9826
26213SOL    HW282556   2.513   7.882   8.146  4.3013  0.7703 -0.0398
26214SOL     OW82557   7.024   5.759   0.734  0.2693  0.0363  0.1549
26214SOL    HW182558   6.955   5.776   0.670 -0.1301  2.3424  1.0931
26214SOL    HW282559   6.978   5.741   0.815  0.7536  0.4669  0.5362
26215SOL     OW82560   5.335   9.091   3.507  0.2891  0.0041  0.2009
26215SOL    HW182561   5.400   9.021   3.503 -0.9984 -1.2347  0.5434
26215SOL    HW282562   5.366   9.155   3.442  0.6245 -1.6285 -1.3331
26216SOL     OW82563   2.283   7.122   7.377  0.0343 -0.3801 -0.6668
26216SOL    HW182564   2.242   7.138   7.462  0.2373 -2.2144 -0.1918
26216SOL    HW282565   2.284   7.027   7.368  1.1490 -0.2575 -2.1700
26217SOL     OW82566   2.312   6.137   1.293 -0.0860  0.6282 -0.7729
26217SOL    HW182567   2.389   6.189   1.268  0.8475  1.0598  2.5649
26217SOL    HW282568   2.252   6.200   1.332  0.1581 -0.4314  1.4225
26218SOL     OW82569  10.140   9.197   2.805 -0.0471  0.0674 -0.6038
26218SOL    HW182570  10.130   9.292   2.802 -0.4829  0.0430 -0.0007
26218SOL    HW282571  10.075   9.168   2.868  0.2199 -0.6170 -0.6388
26219SOL     OW82572   8.304   4.017   3.231  0.1986 -0.3328 -0.0932
26219SOL    HW182573   8.359   3.983   3.302 -0.7978  0.0789  0.9069
26219SOL    HW282574   8.361   4.077   3.183  1.3142 -1.6749 -0.5223
26220SOL     OW82575   3.952   5.680   1.553  0.0312 -0.0666  0.4278
26220SOL    HW182576   4.047   5.680   1.562  0.4265  1.5551 -2.4336
26220SOL    HW282577   3.926   5.771   1.571 -0.6831 -0.0188 -0.7140
26221SOL     OW82578   3.891   4.575   4.610 -0.4283 -0.4307  0.0790
26221SOL    HW182579   3.857   4.618   4.689  0.2019  0.4874 -0.1297
26221SOL    HW282580   3.984   4.560   4.630 -0.6298 -1.6867  0.1343
26222SOL     OW82581   5.082   8.989   0.284  0.2533 -0.2303 -0.2172
26222SOL    HW182582   5.087   9.080   0.313 -0.3012  0.1678 -1.3022
26222SOL    HW282583   5.170   8.955   0.296  0.0451 -0.1317  1.9547
26223SOL     OW82584   1.142   9.162   7.434  0.5565 -0.6014  0.0239
26223SOL    HW182585   1.162   9.220   7.361  1.5055 -0.6707  0.2179
26223SOL    HW282586   1.111   9.081   7.392 -1.1635  0.1521 -0.2374
26224SOL     OW82587   6.876   2.978   8.964  0.4898 -0.0843 -1.0379
26224SOL    HW182588   6.913   3.061   8.933  1.0857 -0.2220 -0.7034
26224SOL    HW282589   6.802   3.003   9.019  1.7876  0.3150  0.5927
26225SOL     OW82590   1.984   4.931   5.183  0.5609 -0.4251  0.4138
26225SOL    HW182591   2.063   4.972   5.218  0.1097  1.2361 -0.4380
26225SOL    HW282592   1.934   4.905   5.261  1.3394 -0.3135  0.9648
26226SOL     OW82593   7.141   0.425   7.589  0.7059  0.0581 -0.5402
26226SOL    HW182594   7.215   0.460   7.539 -0.2476  1.6465 -0.8993
26226SOL    HW282595   7.174   0.419   7.679  2.2136 -2.1746 -1.1793
26227SOL     OW82596   8.545   7.543   1.981  0.1732 -0.2100  0.2656
26227SOL    HW182597   8.580   7.482   2.046  0.7195  0.8450  0.9868
26227SOL    HW282598   8.603   7.619   1.985 -0.5600  0.4156 -0.5198
26228SOL     OW82599  10.095   0.313   4.061  0.3881  0.3801 -0.2235
26228SOL    HW182600  10.132   0.227   4.044 -1.2869 -0.4385  0.0497
26228SOL    HW282601  10.088   0.353   3.974  1.9351  0.6105 -0.2734
26229SOL     OW82602   2.474   6.033   7.119 -0.3913 -0.6491 -0.4523
26229SOL    HW182603   2.497   6.037   7.026  0.6178  0.8725 -0.1692
26229SOL    HW282604   2.429   6.117   7.135  0.9755 -0.1207  0.7979
26230SOL     OW82605   2.737   8.466   0.827  0.0523 -0.5820  0.2206
26230SOL    HW182606   2.792   8.396   0.791 -1.1791 -3.0959  2.8489
26230SOL    HW282607   2.678   8.489   0.755  0.7252 -1.9903 -0.8392
26231SOL     OW82608   5.627   6.553   2.393  1.0071 -0.5289 -0.2725
26231SOL    HW182609   5.580   6.475   2.424  1.5209 -0.2900  1.1747
26231SOL    HW282610   5.704   6.518   2.349  1.6619 -0.8553  1.0832
26232SOL     OW82611   9.338   1.643   9.242  1.1298  0.0115  0.3347
26232SOL    HW182612   9.362   1.629   9.150  1.6462  1.9479  0.1311
26232SOL    HW282613   9.406   1.598   9.292  1.0565 -0.7356 -0.2181
26233SOL     OW82614   3.177   3.904   3.044  0.0428 -0.8875  0.4950
26233SOL    HW182615   3.146   3.840   3.107  0.3720  0.1790  1.7817
26233SOL    HW282616   3.100   3.958   3.025  0.7121  1.1873  2.9951
26234SOL     OW82617   7.430   8.158   1.932 -0.3442  0.0533  0.2720
26234SOL    HW182618   7.388   8.221   1.991 -1.2183 -1.8331  1.7912
26234SOL    HW282619   7.523   8.172   1.945 -0.4477  2.3732 -0.9846
26235SOL     OW82620   4.637   9.528   3.570  0.0888  0.1073 -0.0405
26235SOL    HW182621   4.542   9.535   3.562  0.0932 -0.1500 -0.3378
26235SOL    HW282622   4.666   9.616   3.593 -0.2736  0.0657  0.5786
26236SOL     OW82623   0.102   9.260   4.852  0.2035 -0.5928  0.3963
26236SOL    HW182624   0.119   9.334   4.793 -0.3610  0.0705  1.0409
26236SOL    HW282625   0.187   9.243   4.893  0.1037  0.5126  1.1275
26237SOL     OW82626   6.424   5.058   1.775  0.1465 -0.6756 -0.6896
26237SOL    HW182627   6.332   5.082   1.766  0.1738 -0.4799 -0.4670
26237SOL    HW282628   6.427   5.005   1.855 -0.2431 -3.1577 -2.2360
26238SOL     OW82629   2.674   7.917   3.200  0.3692 -0.4265 -0.6745
26238SOL    HW182630   2.583   7.889   3.207 -0.1352  1.2876  0.3840
26238SOL    HW282631   2.718   7.876   3.275  0.0941 -0.0506 -0.2980
26239SOL     OW82632   5.193   1.307   8.378 -0.2626  0.1322 -0.3093
26239SOL    HW182633   5.117   1.344   8.333 -1.3417 -0.2575  1.1124
26239SOL    HW282634   5.258   1.377   8.379 -0.5997  0.4864 -1.5115
26240SOL     OW82635   1.696   6.901   4.672 -0.1202 -0.6128  0.1578
26240SOL    HW182636   1.755   6.832   4.699  0.1086 -0.0493  1.1298
26240SOL    HW282637   1.742   6.982   4.694 -0.7076 -0.1526 -0.2650
26241SOL     OW82638   7.530   4.544   6.639 -0.6290  0.4697 -0.0253
26241SOL    HW182639   7.571   4.606   6.700 -1.0643  1.4682 -0.7244
26241SOL    HW282640   7.598   4.480   6.620 -0.1220  0.8130  0.5989
26242SOL     OW82641   4.619   5.695   1.182 -0.4917  0.8353 -0.5161
26242SOL    HW182642   4.648   5.783   1.159 -2.2899  1.8947  0.9811
26242SOL    HW282643   4.619   5.693   1.277 -3.3955  0.3464 -0.4156
26243SOL     OW82644   2.456   1.681   3.817  0.0095 -0.4385 -0.1822
26243SOL    HW182645   2.425   1.609   3.763 -0.3223 -0.9689  0.6857
26243SOL    HW282646   2.435   1.760   3.767  1.9263 -0.9726 -1.9299
26244SOL     OW82647   6.391   2.863   0.714 -0.5339  0.3086  0.2138
26244SOL    HW182648   6.401   2.770   0.734 -0.1340  0.3929  0.4228
26244SOL    HW282649   6.419   2.871   0.623  2.2142  0.6531  0.9783
26245SOL     OW82650   9.941   6.966   2.340 -0.1220 -0.5583  0.3627
26245SOL    HW182651   9.998   7.034   2.376  1.1638 -0.5040 -1.6588
26245SOL    HW282652   9.980   6.884   2.370  1.5896 -0.5572 -1.6424
26246SOL     OW82653   7.048   4.416   8.342  0.1553  0.1636  0.4962
26246SOL    HW182654   7.026   4.323   8.334  0.3644  0.0198  1.4450
26246SOL    HW282655   7.087   4.424   8.429 -2.9783  1.7667  1.9234
26247SOL     OW82656   0.295   7.110   6.861  0.2152  0.2857  0.0630
26247SOL    HW182657   0.348   7.179   6.902  1.5569 -0.3793 -0.4626
26247SOL    HW282658   0.320   7.114   6.768  0.0935 -0.6972 -0.0209
26248SOL     OW82659   8.394   9.511   4.340 -0.3486  0.2379  0.1140
26248SOL    HW182660   8.475   9.559   4.359 -1.0294  1.2043  0.6529
26248SOL    HW282661   8.326   9.560   4.385 -1.3113 -0.3239 -0.6864
26249SOL     OW82662   1.423   6.619   3.020  0.2240 -0.4178  0.4347
26249SOL    HW182663   1.432   6.691   2.957 -2.1345 -1.2653 -0.9765
26249SOL    HW282664   1.473   6.649   3.097  1.7450  1.4121 -1.1474
26250SOL     OW82665   1.278   2.408   3.890 -0.0591 -0.1548  0.5699
26250SOL    HW182666   1.204   2.385   3.835  2.1600  1.2911 -3.4217
26250SOL    HW282667   1.345   2.343   3.869  1.5307  1.6268 -0.1468
26251SOL     OW82668   5.797   6.298   8.814 -0.7403  0.3257  0.2065
26251SOL    HW182669   5.882   6.293   8.858 -0.2333 -0.2538 -0.8118
26251SOL    HW282670   5.775   6.391   8.816 -1.2079  0.2222  2.5315
26252SOL     OW82671   3.849   3.158   5.440  0.2439  0.1640 -0.0209
26252SOL    HW182672   3.805   3.076   5.421  0.3446 -0.2020  1.2463
26252SOL    HW282673   3.917   3.166   5.373  0.4098 -0.9236  0.0095
26253SOL     OW82674   6.717   9.923   2.505 -0.3765 -0.3292  0.7571
26253SOL    HW182675   6.734   9.888   2.592 -1.8578 -1.0655  0.7741
26253SOL    HW282676   6.802   9.919   2.461  0.7607  1.4495  2.5958
26254SOL     OW82677   3.586   0.739   2.985  0.1911 -0.1366 -0.5802
26254SOL    HW182678   3.560   0.664   3.039 -1.9855 -1.0975 -2.7094
26254SOL    HW282679   3.581   0.814   3.043 -0.5219 -1.2876  0.9112
26255SOL     OW82680   9.589   1.623   1.130 -0.4884 -0.0101  0.0544
26255SOL    HW182681   9.523   1.681   1.092  0.2409  0.0101 -1.2166
26255SOL    HW282682   9.593   1.549   1.070  1.1375  0.3100 -0.2547
26256SOL     OW82683   9.205   6.184   9.370  0.1193 -0.8392  0.0945
26256SOL    HW182684   9.141   6.243   9.331 -0.6937 -0.2002  2.2202
26256SOL    HW282685   9.285   6.237   9.378  0.7536 -1.4058 -1.8639
26257SOL     OW82686   2.937   5.734   0.023  0.4708 -0.8071  0.1520
26257SOL    HW182687   2.964   5.768  -0.062 -1.6068 -1.1191 -0.6789
26257SOL    HW282688   2.914   5.811   0.074  1.7180 -0.6192  0.4738
26258SOL     OW82689   1.448   4.248   5.283  0.2246  0.2710 -0.1237
26258SOL    HW182690   1.446   4.178   5.349  1.2523 -0.1768 -0.5504
26258SOL    HW282691   1.367   4.297   5.298  1.0243  0.9708  2.3150
26259SOL     OW82692   2.520   6.888   0.389  0.3272  0.1052  0.0175
26259SOL    HW182693   2.476   6.944   0.452  1.6293  1.9110 -0.5751
26259SOL    HW282694   2.466   6.893   0.310  1.0660  1.6186 -0.4343
26260SOL     OW82695   9.127   1.692   3.090 -0.2521  0.3092 -0.1261
26260SOL    HW182696   9.161   1.691   3.179 -0.9566 -0.8076  0.1563
26260SOL    HW282697   9.072   1.613   3.085 -1.4248  1.1549 -1.0814
26261SOL     OW82698   6.808   8.833   9.322 -0.0693  0.3091  0.4023
26261SOL    HW182699   6.795   8.899   9.254  0.2833  1.9300  1.8268
26261SOL    HW282700   6.726   8.785   9.326 -0.4686  0.9026 -0.4198
26262SOL     OW82701   9.223   8.861   7.587 -0.1429  0.0226  0.5433
26262SOL    HW182702   9.180   8.775   7.596 -1.5778  0.7959  1.3198
26262SOL    HW282703   9.222   8.898   7.675  1.8365  0.2353  0.5084
26263SOL     OW82704   3.731   4.099   1.303 -0.3292  0.4448 -0.9077
26263SOL    HW182705   3.824   4.112   1.321 -0.6659  1.5950  0.2072
26263SOL    HW282706   3.722   4.119   1.210  0.3384  1.6822 -0.7371
26264SOL     OW82707   7.162   5.551   2.187  0.0895  0.6865 -0.1769
26264SOL    HW182708   7.068   5.535   2.179  0.2397 -1.7322  1.6992
26264SOL    HW282709   7.174   5.573   2.279  1.4336  0.4374 -0.2828
26265SOL     OW82710   6.939   9.853   8.370  0.1793 -0.4115  0.1630
26265SOL    HW182711   6.852   9.852   8.330  0.1574  0.0005  0.2011
26265SOL    HW282712   6.974   9.765   8.352 -0.4136 -0.7287  0.5315
26266SOL     OW82713   8.008   1.185   6.303 -0.6072  0.3023  0.1113
26266SOL    HW182714   7.925   1.142   6.280 -1.4182  1.7361  0.2196
26266SOL    HW282715   8.074   1.137   6.255 -1.4822 -0.9741  0.1242
26267SOL     OW82716   8.918   1.837   6.958  0.0505  0.3280 -0.2529
26267SOL    HW182717   8.882   1.749   6.965  2.1070 -0.4681  1.3886
26267SOL    HW282718   8.942   1.845   6.865  0.5065 -1.1439 -0.2866
26268SOL     OW82719   8.698   0.657   2.597 -0.3104 -0.1118 -0.1659
26268SOL    HW182720   8.774   0.690   2.645 -1.1186  0.9854  0.4015
26268SOL    HW282721   8.674   0.728   2.538  0.1326 -1.1135 -1.6074
26269SOL     OW82722   1.864   6.126   2.876 -1.0946  0.2974  0.0946
26269SOL    HW182723   1.843   6.121   2.783  0.7833  0.3732 -0.3757
26269SOL    HW282724   1.823   6.048   2.914 -0.0717 -0.9435 -1.2166
26270SOL     OW82725   3.612   7.951   1.905  0.2474  0.1330  0.3104
26270SOL    HW182726   3.539   8.012   1.903  0.4531  0.3891  0.5474
26270SOL    HW282727   3.601   7.903   1.987 -0.6916 -1.1184 -0.5074
26271SOL     OW82728   1.915   8.298   1.008 -0.3813  0.1037 -0.0441
26271SOL    HW182729   1.916   8.391   0.989  0.0635  0.1142  0.0138
26271SOL    HW282730   1.853   8.288   1.080  0.2606  0.4863  0.5800
26272SOL     OW82731   1.655   1.058   9.433  0.2074 -0.1877  0.0026
26272SOL    HW182732   1.719   1.048   9.504  2.5064  4.0939 -1.1228
26272SOL    HW282733   1.596   1.128   9.464 -0.0631  0.2558 -1.4568
26273SOL     OW82734   1.765   8.648   4.985 -0.2319  0.1151  0.3558
26273SOL    HW182735   1.800   8.679   4.902 -1.8973  1.9839  0.2759
26273SOL    HW282736   1.828   8.680   5.051 -0.4859  1.2936  0.0379
26274SOL     OW82737   1.711   0.758   6.317 -0.3535  0.0286 -0.4678
26274SOL    HW182738   1.619   0.774   6.298 -0.1705  0.2835 -1.1577
26274SOL    HW282739   1.738   0.835   6.367 -0.6177 -0.2513  0.1237
26275SOL     OW82740   5.213   8.127   0.217 -0.5869  0.3119  0.1670
26275SOL    HW182741   5.198   8.045   0.169 -0.8908  0.7495 -0.4942
26275SOL    HW282742   5.225   8.193   0.149  0.9797  0.6000  0.6811
26276SOL     OW82743   7.955   7.900   4.515  0.3300 -0.5832  0.0039
26276SOL    HW182744   8.001   7.830   4.469 -0.4529 -0.8660 -0.3584
26276SOL    HW282745   7.866   7.896   4.483  0.2168  0.4444  0.1438
26277SOL     OW82746   3.845   6.954   3.932 -0.1583 -0.0093 -0.8642
26277SOL    HW182747   3.867   7.042   3.901 -1.9184  0.9335  0.3890
26277SOL    HW282748   3.895   6.945   4.014 -0.5083  0.1237 -0.6317
26278SOL     OW82749   8.270   1.857   1.147  0.2451  0.0050  0.2799
26278SOL    HW182750   8.332   1.869   1.075  0.2648 -2.2859 -0.1685
26278SOL    HW282751   8.187   1.838   1.103  0.4516 -2.3252  0.7853
26279SOL     OW82752   2.120   0.712   8.001  0.3176 -0.3377 -0.4954
26279SOL    HW182753   2.091   0.802   8.017  0.1395 -0.4457 -0.2024
26279SOL    HW282754   2.175   0.691   8.077  0.3163 -0.4940 -0.5381
26280SOL     OW82755   8.786   6.709   5.649 -0.2900  0.1039  0.1117
26280SOL    HW182756   8.845   6.644   5.685 -0.6216  0.0593  0.5834
26280SOL    HW282757   8.799   6.704   5.554 -1.0182 -1.3407  0.0661
26281SOL     OW82758   1.437   3.007   6.866  0.0653 -0.3408  0.0473
26281SOL    HW182759   1.490   2.941   6.910  0.1452 -0.4517 -0.2150
26281SOL    HW282760   1.458   3.089   6.912  1.1593 -0.2175 -0.6453
26282SOL     OW82761   5.786   8.355   3.732  0.5277  0.4473  0.3109
26282SOL    HW182762   5.783   8.294   3.805 -0.2283  0.4993  0.3254
26282SOL    HW282763   5.878   8.380   3.726  0.8240 -0.5784  0.3951
26283SOL     OW82764   7.707   0.252   1.810  0.7598 -0.1583 -0.2154
26283SOL    HW182765   7.656   0.190   1.861 -0.1616 -1.6798 -2.7878
26283SOL    HW282766   7.642   0.309   1.768  1.4893  1.1765  0.3960
26284SOL     OW82767   7.345   6.913   1.518 -0.0989 -0.0178 -0.3327
26284SOL    HW182768   7.319   6.864   1.596  1.1740  0.8241  0.6781
26284SOL    HW282769   7.422   6.866   1.486 -0.7720 -0.5082 -1.2439
26285SOL     OW82770   8.384   8.643   1.685  0.1410  0.2850  0.1045
26285SOL    HW182771   8.423   8.569   1.730  1.7230  0.8307 -0.2906
26285SOL    HW282772   8.330   8.604   1.616  0.3175 -0.5001  0.4022
26286SOL     OW82773   9.429   8.510   1.526 -0.0270 -0.0164 -0.1193
26286SOL    HW182774   9.469   8.495   1.440 -1.3907 -0.9512 -0.6162
26286SOL    HW282775   9.495   8.480   1.588  0.6714 -0.0438 -0.8542
26287SOL     OW82776   3.400   2.461   2.813 -0.1042 -0.1501  0.1197
26287SOL    HW182777   3.416   2.532   2.876 -0.5873 -0.1616  0.2641
26287SOL    HW282778   3.322   2.490   2.765 -0.1453 -0.4648 -0.0013
26288SOL     OW82779   0.078   3.946   1.403  0.5283  0.2181 -0.6644
26288SOL    HW182780   0.028   3.917   1.326  0.7922  1.2613 -1.2376
26288SOL    HW282781   0.020   3.927   1.477  0.6067 -1.6042 -1.0071
26289SOL     OW82782   4.236   5.417   3.190 -0.1835  0.0349 -0.2031
26289SOL    HW182783   4.306   5.434   3.127 -0.0882  4.6826  0.8072
26289SOL    HW282784   4.275   5.356   3.253  2.2862  0.9747 -0.7224
26290SOL     OW82785   4.919   3.677   0.734  0.6110  0.2539 -0.0008
26290SOL    HW182786   4.854   3.704   0.799  0.3191  2.6821 -1.1799
26290SOL    HW282787   4.870   3.673   0.652  1.3634 -0.8655 -0.4211
26291SOL     OW82788   7.857   8.495   0.650  0.7318  0.4920  0.2521
26291SOL    HW182789   7.829   8.490   0.741  0.4780  1.1019  0.2149
26291SOL    HW282790   7.775   8.508   0.601  0.7018 -1.1403 -0.2047
26292SOL     OW82791   5.154   5.343   3.708 -0.2018 -0.2732  0.2224
26292SOL    HW182792   5.128   5.273   3.767  0.1387  0.3453  1.1197
26292SOL    HW282793   5.112   5.422   3.743 -0.8729 -0.0678 -0.9742
26293SOL     OW82794   4.528   1.056  10.071 -0.1491  0.2243  0.2080
26293SOL    HW182795   4.450   1.000  10.068 -0.6572  0.9507 -1.0648
26293SOL    HW282796   4.508   1.128  10.010  1.7900  0.0306 -0.7377
26294SOL     OW82797   8.691   2.797   9.717  0.3485 -0.9850  0.3628
26294SOL    HW182798   8.667   2.774   9.807 -0.1005 -0.4882  0.3723
26294SOL    HW282799   8.688   2.714   9.670  1.9663 -1.4911  1.1017
26295SOL     OW82800   2.302   5.883   0.466  0.6227  0.0562 -0.2558
26295SOL    HW182801   2.318   5.951   0.531 -0.7092  2.3373 -2.1768
26295SOL    HW282802   2.207   5.884   0.453  0.7663 -1.0043 -1.5353
26296SOL     OW82803   3.774   9.244   0.655  0.1003  0.3746 -0.1482
26296SOL    HW182804   3.697   9.205   0.697  0.0917  0.0729 -0.4380
26296SOL    HW282805   3.842   9.242   0.722  0.5872 -1.6498 -0.6341
26297SOL     OW82806   8.853   0.230   8.159  0.2249 -0.4138 -0.1823
26297SOL    HW182807   8.946   0.223   8.182  0.2711 -0.7345 -0.4573
26297SOL    HW282808   8.852   0.281   8.078  0.2390 -1.2255 -0.7040
26298SOL     OW82809   3.221   1.775   7.754  0.2098  0.9051  0.0600
26298SOL    HW182810   3.213   1.824   7.672  0.6941  0.7545 -0.0839
26298SOL    HW282811   3.258   1.691   7.727 -1.7185 -0.0104  0.1490
26299SOL     OW82812   6.948   2.469   3.239 -0.2140  0.8477 -0.5448
26299SOL    HW182813   6.980   2.525   3.168  0.4194  1.0234 -0.1260
26299SOL    HW282814   6.902   2.398   3.195 -0.5207  1.3900 -1.1034
26300SOL     OW82815   7.654   2.098   4.521 -0.4100 -0.0041 -0.0209
26300SOL    HW182816   7.692   2.020   4.482 -0.6096 -0.1301  0.0372
26300SOL    HW282817   7.727   2.140   4.568 -0.1227  0.2517 -0.6856
26301SOL     OW82818   9.170   9.980   3.970  0.0632 -0.8337  0.1938
26301SOL    HW182819   9.215  10.047   4.020 -0.4932 -0.6825  0.4975
26301SOL    HW282820   9.209   9.897   3.999  0.7310 -0.6504 -0.1627
26302SOL     OW82821   5.146   4.483   5.580  0.1541  0.1755 -0.2492
26302SOL    HW182822   5.113   4.528   5.658 -2.4934 -0.2294 -1.0449
26302SOL    HW282823   5.180   4.400   5.614  1.1535  0.9281  0.6984
26303SOL     OW82824   3.673   1.616   6.321 -0.2917 -0.2877  0.2585
26303SOL    HW182825   3.629   1.547   6.270  0.1292 -0.6413  0.3624
26303SOL    HW282826   3.742   1.569   6.368  4.1275  0.8501 -4.1971
26304SOL     OW82827   1.001   6.001   5.973 -0.0817 -0.3662  0.0210
26304SOL    HW182828   0.972   6.091   5.956 -0.0741 -0.3230  0.2324
26304SOL    HW282829   1.096   6.007   5.982 -0.1070 -0.3583  0.2752
26305SOL     OW82830   3.696   3.136   6.442 -0.5418 -0.0967 -0.2904
26305SOL    HW182831   3.710   3.043   6.458  2.2633  0.2088 -0.4167
26305SOL    HW282832   3.674   3.172   6.528 -2.7735 -0.9609 -0.4262
26306SOL     OW82833   5.685  10.076   4.804  0.0494  0.2365  0.0470
26306SOL    HW182834   5.696  10.154   4.749  0.0672  0.4557  0.3565
26306SOL    HW282835   5.771  10.063   4.844  0.0559  0.0325 -0.0302
26307SOL     OW82836   2.252   2.147   5.129  0.1440  0.3492 -0.4725
26307SOL    HW182837   2.159   2.165   5.110  0.0005 -0.9745 -1.1323
26307SOL    HW282838   2.255   2.138   5.224 -0.2485  1.1730 -0.3679
26308SOL     OW82839   3.782   0.663   2.197 -0.4565  0.1509  0.6126
26308SOL    HW182840   3.744   0.687   2.281  0.2773  0.1412  0.9569
26308SOL    HW282841   3.740   0.721   2.134  0.0589  1.1809  1.1953
26309SOL     OW82842   9.855   2.073   8.857 -0.1159  0.4646 -0.3537
26309SOL    HW182843   9.888   1.986   8.834  2.3143  1.8199 -2.5238
26309SOL    HW282844   9.781   2.087   8.797 -0.0469  0.1955 -0.5044
26310SOL     OW82845   5.402   0.270   2.976  0.1713 -0.7063  0.2369
26310SOL    HW182846   5.453   0.223   2.910  0.4067 -0.7119  0.4231
26310SOL    HW282847   5.361   0.201   3.029  0.8224 -0.7119  0.7494
26311SOL     OW82848   6.966   1.109   9.308  0.6098  0.1464  0.2574
26311SOL    HW182849   7.053   1.080   9.336  0.4506 -0.1248  0.4793
26311SOL    HW282850   6.909   1.034   9.327 -0.0906  1.1266  2.2065
26312SOL     OW82851   9.274   0.381   6.206 -0.0697  0.2236  0.7723
26312SOL    HW182852   9.272   0.476   6.214  1.0399  0.2745  0.6188
26312SOL    HW282853   9.347   0.364   6.147 -0.6485 -0.6999  0.2911
26313SOL     OW82854   2.616   6.028   0.520  0.0520  0.9188 -0.4166
26313SOL    HW182855   2.707   6.036   0.548  0.9785 -3.0222 -1.6022
26313SOL    HW282856   2.570   5.995   0.597  0.0906  0.9832 -0.3663
26314SOL     OW82857   7.804   5.523   8.421  0.1740  0.0982  0.5056
26314SOL    HW182858   7.816   5.562   8.334  2.9017 -0.8835  0.3350
26314SOL    HW282859   7.786   5.597   8.478  0.5591  1.0541 -0.5645
26315SOL     OW82860   2.616   2.699   6.337 -0.1344  0.1669  0.3663
26315SOL    HW182861   2.629   2.789   6.307  2.2522 -0.4468 -0.6583
26315SOL    HW282862   2.642   2.644   6.263 -0.6412 -1.4016  1.2826
26316SOL     OW82863   2.946   3.857   1.898  0.2120 -0.2100  0.3968
26316SOL    HW182864   2.918   3.769   1.924  2.3240 -0.9249  0.4878
26316SOL    HW282865   2.928   3.911   1.975  1.3279 -1.1709  1.3933
26317SOL     OW82866   2.397   9.606   3.829  0.1907  0.5048 -0.0394
26317SOL    HW182867   2.419   9.530   3.775  0.0040  1.0821 -0.9475
26317SOL    HW282868   2.480   9.635   3.866  0.0456 -1.1893  1.7710
26318SOL     OW82869   4.883   5.655   7.091  0.5465 -0.0275  0.0932
26318SOL    HW182870   4.833   5.586   7.048 -1.1327 -0.1057  2.0413
26318SOL    HW282871   4.856   5.651   7.182  2.0944  1.7705  0.6974
26319SOL     OW82872   5.049   8.429   1.232  0.5088 -0.0768  0.5975
26319SOL    HW182873   5.024   8.402   1.321 -0.3649 -1.7415 -0.1206
26319SOL    HW282874   5.136   8.393   1.219  1.1032  1.0954  1.1326
26320SOL     OW82875   4.586   1.810   8.371  0.0712 -0.3041  0.7808
26320SOL    HW182876   4.520   1.832   8.438  0.4154 -0.8510  1.3100
26320SOL    HW282877   4.540   1.751   8.311 -0.5431  0.9758 -0.0587
26321SOL     OW82878   1.560   7.917   6.828 -0.1315 -0.7446 -0.5065
26321SOL    HW182879   1.636   7.899   6.773  1.9678  0.4859  1.8237
26321SOL    HW282880   1.509   7.980   6.778  0.5789 -1.2334 -1.9219
26322SOL     OW82881   7.612   5.970   2.673 -0.0107  0.0132  0.1804
26322SOL    HW182882   7.698   6.009   2.683  0.9222 -1.6525 -0.7518
26322SOL    HW282883   7.580   5.958   2.762  1.3843 -0.6675  0.6219
26323SOL     OW82884   1.289   4.410   3.525 -0.3178 -0.1426  0.3657
26323SOL    HW182885   1.291   4.316   3.510  0.1157 -0.1865  0.6552
26323SOL    HW282886   1.300   4.449   3.438  3.3779 -0.3861  0.5731
26324SOL     OW82887   7.561  10.027   1.857  0.0662 -0.3472 -0.4874
26324SOL    HW182888   7.564  10.011   1.763  0.1762 -0.3042 -0.4913
26324SOL    HW282889   7.558   9.940   1.896  0.2645 -0.3698 -0.5219
26325SOL     OW82890   9.246   8.700   5.819 -0.7437 -0.5172  0.1574
26325SOL    HW182891   9.202   8.649   5.887 -1.9185 -0.0389 -0.2222
26325SOL    HW282892   9.336   8.708   5.851 -1.3302 -0.0290  1.8360
26326SOL     OW82893   7.246   2.936   2.655  0.2393 -0.2593 -0.0899
26326SOL    HW182894   7.317   2.971   2.601  0.9870  0.7526  1.4824
26326SOL    HW282895   7.269   2.961   2.744 -2.2597  0.3934  0.4509
26327SOL     OW82896   1.261   6.002   8.244  0.3447 -0.0764 -0.3188
26327SOL    HW182897   1.343   5.993   8.294 -0.1118 -0.1885  0.4317
26327SOL    HW282898   1.225   6.086   8.274  0.7486  0.5453 -1.5134
26328SOL     OW82899   3.825   2.954   3.830  0.4023 -0.1770  0.4323
26328SOL    HW182900   3.794   2.930   3.743 -1.0762  1.6806  0.3919
26328SOL    HW282901   3.890   2.887   3.851  0.3028 -1.0642 -1.7929
26329SOL     OW82902   4.589   3.050   1.951 -0.5317  0.0270 -0.1808
26329SOL    HW182903   4.604   3.144   1.944 -0.6426  0.1304  0.8428
26329SOL    HW282904   4.548   3.026   1.868  0.0712  0.7615 -0.7075
26330SOL     OW82905   8.594   9.263   7.047  0.2219  0.0785 -0.0359
26330SOL    HW182906   8.521   9.220   7.091 -1.6792  2.5070 -0.5971
26330SOL    HW282907   8.585   9.356   7.070  1.6930  0.8170 -2.0795
26331SOL     OW82908   1.098   6.387   3.583 -0.2530 -0.0630 -0.3147
26331SOL    HW182909   1.058   6.360   3.501  0.8346  0.5757 -1.0893
26331SOL    HW282910   1.118   6.480   3.570 -1.6351  0.5364  1.3324
26332SOL     OW82911   8.666   3.722   7.376 -0.4201 -0.2921  0.0565
26332SOL    HW182912   8.705   3.795   7.327 -0.4230  0.1828  0.7486
26332SOL    HW282913   8.586   3.759   7.414 -1.7886 -1.3368 -1.6258
26333SOL     OW82914   9.369   3.916   6.144 -0.3557  0.3241  0.4579
26333SOL    HW182915   9.425   3.989   6.171 -0.5636  0.4669  0.5137
26333SOL    HW282916   9.396   3.842   6.198 -0.3247  0.4334  0.5926
26334SOL     OW82917   0.749   8.514   2.727 -0.2597  0.7205 -0.5994
26334SOL    HW182918   0.714   8.593   2.768 -1.0421 -0.5061  1.1992
26334SOL    HW282919   0.672   8.469   2.692 -0.2729 -0.7783  1.2186
26335SOL     OW82920   0.175   9.061   1.947  0.1000  0.0188 -0.1122
26335SOL    HW182921   0.112   9.111   1.895 -1.7270 -1.2126  0.8176
26335SOL    HW282922   0.123   9.023   2.018  2.0331 -0.4976  1.1137
26336SOL     OW82923   3.554   4.414   2.796 -0.4576 -0.1622 -0.2895
26336SOL    HW182924   3.482   4.361   2.831  0.1520 -0.9787 -0.2333
26336SOL    HW282925   3.572   4.479   2.865 -1.8993  0.8170 -0.7926
26337SOL     OW82926   8.819   4.615   3.514 -0.0695  0.1613 -0.4318
26337SOL    HW182927   8.779   4.685   3.461  1.0364  1.6167  0.5778
26337SOL    HW282928   8.839   4.657   3.598 -0.5443 -1.7305  0.6878
26338SOL     OW82929   8.294   9.949   2.146  0.5386 -0.4855  0.2087
26338SOL    HW182930   8.230   9.944   2.217  2.8175  2.9453  2.7951
26338SOL    HW282931   8.374   9.912   2.182  1.8208  1.5611 -0.4092
26339SOL     OW82932   1.683   2.172   2.110  0.3338 -0.1600  0.4445
26339SOL    HW182933   1.624   2.245   2.131 -1.6583 -2.3264  3.1293
26339SOL    HW282934   1.657   2.144   2.022  0.0366  1.3388  0.0300
26340SOL     OW82935   6.873   8.412   3.619 -0.2029 -0.9573 -0.2047
26340SOL    HW182936   6.897   8.320   3.630 -0.4254 -1.2405 -1.8383
26340SOL    HW282937   6.779   8.410   3.600 -0.2874 -0.3599  0.1317
26341SOL     OW82938   3.200   8.274   8.503 -0.8471  0.4242 -0.7080
26341SOL    HW182939   3.162   8.346   8.554 -2.3334 -0.6212 -0.2614
26341SOL    HW282940   3.175   8.294   8.413  0.8545  1.7117 -0.9327
26342SOL     OW82941   3.600   7.188   5.557  0.6972 -0.4451  0.9861
26342SOL    HW182942   3.565   7.110   5.514  2.2645  0.0756 -1.4222
26342SOL    HW282943   3.531   7.253   5.549  0.9570 -0.3387 -0.9482
26343SOL     OW82944   6.715   3.080   9.173  0.1861  0.4781 -0.1077
26343SOL    HW182945   6.773   3.136   9.224 -0.0643  0.1960  0.5001
26343SOL    HW282946   6.662   3.034   9.239 -0.7157  0.7234 -0.6488
26344SOL     OW82947   6.215   4.514   7.572 -0.2519 -0.2447  0.2307
26344SOL    HW182948   6.231   4.602   7.537 -1.4583 -0.1884 -0.2196
26344SOL    HW282949   6.269   4.457   7.517 -0.3182  0.0965 -0.2001
26345SOL     OW82950   9.524   0.265   0.743  0.7308 -0.4308  0.0136
26345SOL    HW182951   9.553   0.329   0.807  0.6568 -0.2291 -0.1521
26345SOL    HW282952   9.563   0.183   0.771  1.5022 -0.1535 -0.2421
26346SOL     OW82953   0.911   2.393   7.893  0.3293  0.1966  0.5924
26346SOL    HW182954   0.903   2.316   7.950 -4.0518 -0.5479 -0.5757
26346SOL    HW282955   0.955   2.360   7.814 -0.1686 -0.7487  0.6979
26347SOL     OW82956   9.434   8.062   9.371  0.9311  0.6632  0.3802
26347SOL    HW182957   9.448   7.967   9.379 -0.6436  0.1652 -1.8776
26347SOL    HW282958   9.342   8.074   9.393  0.5945  1.3654 -1.3247
26348SOL     OW82959   2.227   1.826   5.511 -0.5744  0.2047 -0.6339
26348SOL    HW182960   2.277   1.805   5.433  0.8596  0.2241  0.2517
26348SOL    HW282961   2.249   1.756   5.573  1.7285  2.3966  1.2244
26349SOL     OW82962   1.662   5.098   4.981 -0.0521 -0.5130  0.2449
26349SOL    HW182963   1.611   5.106   4.901 -1.7303 -2.2874  1.0376
26349SOL    HW282964   1.748   5.067   4.953  0.4571  1.8913 -1.0691
26350SOL     OW82965   6.176   1.418   1.073  0.1135 -0.7218  0.1262
26350SOL    HW182966   6.148   1.356   1.141 -1.5351  1.4825  1.6093
26350SOL    HW282967   6.222   1.364   1.009  0.9717 -3.0660  2.5340
26351SOL     OW82968   9.235   6.725   7.622  0.2547  0.6405  0.1809
26351SOL    HW182969   9.201   6.799   7.671  1.9484  1.0398  0.8188
26351SOL    HW282970   9.241   6.757   7.532 -2.9384 -0.1241 -0.4289
26352SOL     OW82971   1.691   8.579   2.586 -0.3400  0.4212  0.1819
26352SOL    HW182972   1.668   8.595   2.494 -0.4470 -1.9987 -0.2873
26352SOL    HW282973   1.611   8.544   2.625  0.0962  0.1463  0.8453
26353SOL     OW82974   4.955   3.796   6.337  0.0850 -0.9566  0.0324
26353SOL    HW182975   4.942   3.769   6.247 -1.1815  0.9337 -0.4226
26353SOL    HW282976   5.050   3.804   6.347  0.2386 -1.2830 -1.0956
26354SOL     OW82977   6.454   0.922   3.790 -0.6546 -0.5545  0.7858
26354SOL    HW182978   6.456   0.989   3.858 -0.3011 -1.7153  1.9548
26354SOL    HW282979   6.539   0.879   3.795 -0.3963 -0.2847 -0.8018
26355SOL     OW82980   6.849   6.557   3.730 -0.2550 -0.6193 -0.4860
26355SOL    HW182981   6.788   6.573   3.802  0.9763  0.0021  0.4630
26355SOL    HW282982   6.875   6.645   3.701 -0.5924 -0.8675 -1.5766
26356SOL     OW82983   6.864   3.480   4.788 -0.1023  0.1779  0.3478
26356SOL    HW182984   6.882   3.528   4.707 -0.1705 -0.3522  0.0183
26356SOL    HW282985   6.846   3.391   4.760 -1.4568  0.2774  0.8358
26357SOL     OW82986   2.039   8.952   9.754  0.1985  0.3806 -0.1275
26357SOL    HW182987   2.086   8.874   9.783 -1.2529 -0.2411  0.7004
26357SOL    HW282988   2.101   9.024   9.765  1.1989 -0.5065  0.1487
26358SOL     OW82989   9.563   6.437   7.833  0.6511  0.6508  0.3765
26358SOL    HW182990   9.564   6.386   7.914  0.1154  0.4256  0.2420
26358SOL    HW282991   9.476   6.425   7.797  0.6569  1.3087  0.1123
26359SOL     OW82992   1.086   7.263   6.294  0.3201 -0.2170  0.4241
26359SOL    HW182993   1.158   7.314   6.331  1.0639 -0.2875 -0.8853
26359SOL    HW282994   1.055   7.209   6.368  1.2945  0.1485  1.1214
26360SOL     OW82995   6.799   3.325   9.239  0.2962  0.1245  0.0711
26360SOL    HW182996   6.708   3.351   9.223 -0.1759 -0.2230  1.8713
26360SOL    HW282997   6.851   3.390   9.194 -0.8533  0.4472 -0.8365
26361SOL     OW82998   7.852   4.277   7.919 -0.3103 -0.2508 -0.1273
26361SOL    HW182999   7.766   4.256   7.883  0.4499 -1.8609 -1.1009
26361SOL    HW283000   7.840   4.362   7.961 -2.7727 -1.1581  1.1996
26362SOL     OW83001   1.293   3.442   7.438  0.0437 -0.7906  0.1709
26362SOL    HW183002   1.201   3.423   7.422  0.6358 -3.4676 -0.5756
26362SOL    HW283003   1.306   3.530   7.402 -1.7386 -1.2068 -1.6696
26363SOL     OW83004   6.957   7.889   5.576 -0.2166  0.0776 -0.1490
26363SOL    HW183005   7.022   7.917   5.641  1.6675 -1.2469 -1.3587
26363SOL    HW283006   6.924   7.970   5.539  0.6354  0.8034  0.6105
26364SOL     OW83007   2.397   1.414   0.245 -0.3243  0.4362  0.0251
26364SOL    HW183008   2.333   1.355   0.285  0.8967 -0.5748  0.5562
26364SOL    HW283009   2.349   1.457   0.174 -1.6755 -0.0470  0.6212
26365SOL     OW83010   5.686   0.445   1.675  0.2538  0.0869 -0.4449
26365SOL    HW183011   5.684   0.532   1.635  0.3259 -0.0235 -0.6904
26365SOL    HW283012   5.595   0.429   1.701  0.3244  0.4220  0.0038
26366SOL     OW83013   8.408   1.159   9.135 -0.2330 -0.2985 -0.3722
26366SOL    HW183014   8.440   1.118   9.054  0.3054  0.8956 -0.7850
26366SOL    HW283015   8.480   1.148   9.197  0.0852  0.3617 -0.6113
26367SOL     OW83016   6.861   2.878   0.683  0.5441 -0.1568 -0.3959
26367SOL    HW183017   6.923   2.909   0.617 -1.1118  1.4731 -1.2803
26367SOL    HW283018   6.888   2.923   0.764  0.5228  0.5202 -0.7635
26368SOL     OW83019   8.761   5.415   2.425 -0.2056  0.1614 -0.1167
26368SOL    HW183020   8.846   5.396   2.465  0.8743  1.8763 -1.4376
26368SOL    HW283021   8.769   5.384   2.335 -0.2450  1.9876 -0.7995
26369SOL     OW83022   9.064   9.482   1.397 -0.0147  0.0354 -0.0100
26369SOL    HW183023   9.066   9.388   1.413  0.6477 -0.0293 -0.3868
26369SOL    HW283024   9.049   9.521   1.482 -1.6601 -0.4463 -0.0395
26370SOL     OW83025   8.601   0.292   1.258  0.0542 -0.0287 -0.8388
26370SOL    HW183026   8.637   0.252   1.338 -3.8141 -2.0096  0.1503
26370SOL    HW283027   8.583   0.382   1.282  0.4124 -0.1687  0.0016
26371SOL     OW83028   7.896   6.209   9.764  0.2128  0.3370 -0.2944
26371SOL    HW183029   7.930   6.144   9.702 -2.7755 -0.8164 -0.9199
26371SOL    HW283030   7.928   6.181   9.849  0.7658 -0.6725 -0.8156
26372SOL     OW83031   9.250   6.391   3.857  0.4861 -0.1729 -0.6618
26372SOL    HW183032   9.311   6.461   3.879  0.0825 -0.0265  0.0223
26372SOL    HW283033   9.168   6.436   3.836  0.7749 -0.3200 -2.2815
26373SOL     OW83034   4.192   6.250   0.786 -0.3718 -0.2464 -0.2165
26373SOL    HW183035   4.193   6.169   0.836  0.1592 -0.5251 -0.6656
26373SOL    HW283036   4.231   6.227   0.702  0.6699  0.6729 -0.0106
26374SOL     OW83037   3.308   3.702   1.809  0.0626 -0.0313  0.5664
26374SOL    HW183038   3.320   3.792   1.778  1.3765  0.4111  2.1714
26374SOL    HW283039   3.318   3.708   1.904  1.3345 -2.0162  0.6291
26375SOL     OW83040   3.100   8.866   9.424  0.0317 -0.4821  0.0425
26375SOL    HW183041   3.103   8.882   9.329 -1.8444  3.2920  0.4147
26375SOL    HW283042   3.015   8.824   9.438 -0.7441  1.0447  0.1654
26376SOL     OW83043   1.564   1.669   5.948 -0.2044  0.1191  0.3083
26376SOL    HW183044   1.583   1.575   5.942 -2.4291 -0.2912 -1.5636
26376SOL    HW283045   1.528   1.681   6.035 -0.8843 -0.9751  0.1906
26377SOL     OW83046   4.631   9.556   3.850 -0.0453  0.2278 -0.2684
26377SOL    HW183047   4.580   9.597   3.780 -0.5348 -0.3008 -0.2324
26377SOL    HW283048   4.722   9.571   3.826 -0.1804  2.3471  0.3175
26378SOL     OW83049   8.636   2.531   0.686  0.9094  0.2421 -0.1085
26378SOL    HW183050   8.576   2.486   0.627 -0.4086  0.5066  0.9661
26378SOL    HW283051   8.653   2.467   0.755  1.0770  0.5112  0.1032
26379SOL     OW83052   9.664   0.925   9.808 -0.5464  0.2626 -0.0920
26379SOL    HW183053   9.660   0.849   9.866 -1.5262  0.2868 -0.1152
26379SOL    HW283054   9.623   0.895   9.726  0.6953  0.2700 -0.7380
26380SOL     OW83055   1.736   4.723   5.279 -0.4623  0.8105 -0.0421
26380SOL    HW183056   1.701   4.634   5.274  0.8947  0.3246 -1.4685
26380SOL    HW283057   1.809   4.724   5.218 -1.3714  3.3536 -1.2390
26381SOL     OW83058   6.190   8.520   7.268 -0.2945  0.3209  0.1754
26381SOL    HW183059   6.271   8.553   7.307  0.2046 -0.3946 -0.2401
26381SOL    HW283060   6.200   8.537   7.174  0.7990 -2.5957 -0.3342
26382SOL     OW83061   2.296   0.012   7.756 -0.2680  0.4186 -0.9867
26382SOL    HW183062   2.379   0.042   7.794 -0.0605  0.0190 -1.1211
26382SOL    HW283063   2.292   0.054   7.670  0.3983 -0.5407 -1.5018
26383SOL     OW83064   2.514   7.230   9.253  0.7905 -0.1307 -0.1831
26383SOL    HW183065   2.562   7.290   9.310  1.0770  0.4960 -1.0509
26383SOL    HW283066   2.470   7.287   9.191 -0.3448 -0.7504  0.0335
26384SOL     OW83067   6.687   2.114   5.180 -0.0182 -0.0422  0.3982
26384SOL    HW183068   6.611   2.065   5.147 -0.8111  0.6676  1.1117
26384SOL    HW283069   6.762   2.061   5.154 -0.6225  0.0811 -1.8121
26385SOL     OW83070  10.021   9.399   7.847  0.1308 -0.1999 -0.6474
26385SOL    HW183071   9.973   9.481   7.844  0.5239  0.0434 -0.3876
26385SOL    HW283072   9.997   9.359   7.930  0.1342 -0.2283 -0.6597
26386SOL     OW83073   6.627   1.417   7.440  0.4627  0.0059 -0.2438
26386SOL    HW183074   6.556   1.374   7.488  0.8325  0.7998  1.0757
26386SOL    HW283075   6.700   1.418   7.502  2.2892 -2.3750 -2.1289
26387SOL     OW83076   8.700   0.131   1.053  0.5576  0.1484  0.5979
26387SOL    HW183077   8.623   0.128   0.995  1.2402  1.1525 -0.3953
26387SOL    HW283078   8.680   0.201   1.115  1.9401  2.7473 -1.6486
26388SOL     OW83079   0.426   7.123  10.005 -0.0618 -0.2691 -0.0105
26388SOL    HW183080   0.471   7.051   9.961  0.4754  0.1774 -0.2189
26388SOL    HW283081   0.475   7.201   9.977 -1.8784  0.4196 -1.4297
26389SOL     OW83082   0.728   1.320   2.154 -0.3452 -0.0907  0.4736
26389SOL    HW183083   0.752   1.248   2.096  0.2421  0.4738 -0.0029
26389SOL    HW283084   0.808   1.341   2.201 -0.5890  0.0507  0.8300
26390SOL     OW83085   2.505   3.160   0.030  0.2242 -0.4893  0.1427
26390SOL    HW183086   2.510   3.222  -0.042 -0.0470 -1.1755 -0.4846
26390SOL    HW283087   2.506   3.074  -0.012 -1.1586 -0.8985  0.8717
26391SOL     OW83088   0.033   7.565   0.973 -0.1600 -0.0841  0.2098
26391SOL    HW183089   0.128   7.555   0.983  0.1042 -0.5204 -2.2366
26391SOL    HW283090   0.016   7.546   0.881 -2.4738  1.3111  0.2656
26392SOL     OW83091   9.076   2.276   1.757  0.1998 -0.0973  0.0860
26392SOL    HW183092   9.020   2.291   1.681 -2.7902 -0.1053  2.1166
26392SOL    HW283093   9.165   2.272   1.721 -1.0453 -0.0977 -3.3494
26393SOL     OW83094   6.884   4.236   1.977  0.2353  0.3619 -0.0195
26393SOL    HW183095   6.869   4.198   1.890  3.4962 -2.0868  0.2879
26393SOL    HW283096   6.920   4.163   2.028 -0.1566  2.1177  2.9690
26394SOL     OW83097   4.596   7.598   9.026  0.0956  0.5978  0.0369
26394SOL    HW183098   4.568   7.570   9.112 -0.3035  0.4794 -0.1315
26394SOL    HW283099   4.666   7.662   9.043 -1.0088  1.7175  0.4755
26395SOL     OW83100   9.113   8.550   3.795 -0.6052  0.7494 -0.3683
26395SOL    HW183101   9.097   8.456   3.789  0.3004  0.4925  0.7846
26395SOL    HW283102   9.092   8.584   3.708  0.4475 -0.7322 -1.2511
26396SOL     OW83103   4.283   2.432  10.182  0.1227  0.1772 -0.3220
26396SOL    HW183104   4.323   2.467  10.102 -0.2466  0.6475 -0.3090
26396SOL    HW283105   4.295   2.337  10.175  0.2789  0.2282 -0.8373
26397SOL     OW83106   3.845   0.633   3.579 -0.1540  0.1455 -0.8083
26397SOL    HW183107   3.931   0.674   3.582  0.1969 -0.4728 -1.8723
26397SOL    HW283108   3.858   0.546   3.619 -0.0539 -0.3141 -1.8197
26398SOL     OW83109   1.767   8.344   5.014 -0.0111  0.1545  0.0436
26398SOL    HW183110   1.859   8.353   5.040 -0.1984 -1.1624  1.2386
26398SOL    HW283111   1.730   8.432   5.024  1.2793  0.8796 -1.1974
26399SOL     OW83112   4.763   8.163   2.928 -0.1691  0.1762 -0.2957
26399SOL    HW183113   4.748   8.168   3.023  3.0990  4.5052  0.3111
26399SOL    HW283114   4.699   8.222   2.890  0.5597  0.9615 -0.3384
26400SOL     OW83115   9.330   7.422   4.111  0.3353 -0.2865 -0.3990
26400SOL    HW183116   9.265   7.432   4.041 -2.1052 -0.9946  1.6083
26400SOL    HW283117   9.353   7.329   4.108 -0.1051 -0.4118 -0.0143
26401SOL     OW83118   3.723   9.315   0.206 -0.4694 -0.0337 -0.2588
26401SOL    HW183119   3.776   9.350   0.134  1.0426 -0.3173  0.6823
26401SOL    HW283120   3.643   9.283   0.163  1.2421 -2.1228 -2.1349
26402SOL     OW83121   9.216   3.021   7.709  0.5225  0.4229  0.4115
26402SOL    HW183122   9.176   2.959   7.647 -1.1536  2.1085 -0.2909
26402SOL    HW283123   9.215   2.975   7.792 -0.5183 -0.5787 -0.1210
26403SOL     OW83124   5.128   4.040   3.105 -0.1753 -0.8313  0.1100
26403SOL    HW183125   5.061   4.063   3.169 -0.2941  1.2142 -0.6709
26403SOL    HW283126   5.210   4.044   3.154 -0.3638 -0.3613  0.3903
26404SOL     OW83127   7.155   9.226   9.449  0.5247  0.6231 -0.1448
26404SOL    HW183128   7.229   9.171   9.422 -0.2480  0.2655 -1.6460
26404SOL    HW283129   7.193   9.312   9.465  1.0311  0.9502 -2.7726
26405SOL     OW83130   7.263   1.750   4.465  0.9338  0.0747  0.0811
26405SOL    HW183131   7.218   1.824   4.507 -0.7493  0.3847 -2.1009
26405SOL    HW283132   7.354   1.759   4.493  0.4296  1.8938  1.3497
26406SOL     OW83133   6.544   1.399   2.481  0.3658  0.3043 -0.4839
26406SOL    HW183134   6.494   1.356   2.550 -0.3649  2.6247  0.5153
26406SOL    HW283135   6.480   1.452   2.433  1.2382  0.4332 -1.5734
26407SOL     OW83136   2.948   0.044   6.321  0.3487  0.6274  0.4359
26407SOL    HW183137   2.908  -0.041   6.304  1.0301 -0.1345  2.4067
26407SOL    HW283138   2.898   0.081   6.394  1.0543  1.1876  0.6568
26408SOL     OW83139   7.449   1.258   2.416  0.0603 -0.4093  0.4198
26408SOL    HW183140   7.474   1.342   2.377 -0.4012 -0.5957 -0.2987
26408SOL    HW283141   7.354   1.265   2.428 -0.2250 -1.3604 -1.0128
26409SOL     OW83142   2.992   2.476   9.551 -0.0690  0.4226 -0.8535
26409SOL    HW183143   3.008   2.392   9.508  0.9251  0.4419 -0.5261
26409SOL    HW283144   2.921   2.516   9.499 -1.0192 -0.8880 -0.6132
26410SOL     OW83145   9.176   3.509   9.911  0.2528  0.1102  0.1827
26410SOL    HW183146   9.148   3.434   9.963 -0.6968  0.1392 -0.2583
26410SOL    HW283147   9.123   3.582   9.944  0.6204  0.4200  0.0920
26411SOL     OW83148   3.575   4.205   1.072 -0.1788  0.7996  0.2880
26411SOL    HW183149   3.544   4.289   1.106 -0.5885  0.4256  0.8452
26411SOL    HW283150   3.502   4.170   1.022 -0.4684  0.2011  1.0981
26412SOL     OW83151   4.886   4.676   7.487 -0.4514  0.2802 -0.5462
26412SOL    HW183152   4.940   4.721   7.552  1.0924 -0.3604 -1.3392
26412SOL    HW283153   4.948   4.630   7.432 -1.8546 -0.8432 -1.2530
26413SOL     OW83154   2.294   1.224   6.862 -0.0659  0.0055 -0.0841
26413SOL    HW183155   2.264   1.284   6.930 -0.3988 -0.3978  0.1341
26413SOL    HW283156   2.300   1.277   6.783  0.9561  0.6343  0.3955
26414SOL     OW83157   1.831   2.713   5.784 -0.1277 -0.0543 -0.0908
26414SOL    HW183158   1.785   2.719   5.700  1.6575 -0.4644 -1.1509
26414SOL    HW283159   1.909   2.767   5.772 -0.0316  0.1988  1.4680
26415SOL     OW83160   4.088   4.931   5.472  0.4445  0.3512  0.3795
26415SOL    HW183161   4.081   4.865   5.403 -0.7895  1.8349 -0.9905
26415SOL    HW283162   4.026   4.902   5.539  1.2976 -0.8465  0.6894
26416SOL     OW83163   5.551   0.852   3.028 -0.0002 -0.0778 -0.1053
26416SOL    HW183164   5.506   0.838   2.944 -0.1865  1.7183 -0.3320
26416SOL    HW283165   5.496   0.915   3.075  1.3519  0.8075  0.3513
26417SOL     OW83166   5.375   1.446   6.175  0.1977 -0.4463  0.0782
26417SOL    HW183167   5.357   1.377   6.112 -0.0777 -1.3651  1.1286
26417SOL    HW283168   5.296   1.451   6.230  0.6752 -0.1286  0.7601
26418SOL     OW83169   3.855   3.725   8.644  0.2793 -0.0674  0.4347
26418SOL    HW183170   3.902   3.650   8.680 -0.0725 -0.2889  0.4384
26418SOL    HW283171   3.811   3.691   8.566 -1.2981 -0.3216  1.3827
26419SOL     OW83172   7.057   7.455   7.407 -0.5355 -0.3211 -0.1063
26419SOL    HW183173   7.126   7.512   7.373 -0.5339 -0.2206  0.0637
26419SOL    HW283174   7.041   7.488   7.496 -1.1239 -0.0502 -0.3060
26420SOL     OW83175   5.230   4.512   0.343  0.3846 -0.2276 -0.3161
26420SOL    HW183176   5.278   4.438   0.380 -1.0399 -2.5422 -2.7618
26420SOL    HW283177   5.141   4.478   0.329 -1.2542  2.9546  1.3008
26421SOL     OW83178   4.993   4.269  10.196 -0.1750 -0.1743 -0.3373
26421SOL    HW183179   5.065   4.238  10.141  0.6485 -0.1904  0.7264
26421SOL    HW283180   5.004   4.224  10.279 -1.1691  0.1507 -0.0107
26422SOL     OW83181   2.186   3.526   3.161 -0.6201 -0.0418 -0.1552
26422SOL    HW183182   2.154   3.438   3.143  0.7365 -1.1583  2.3792
26422SOL    HW283183   2.278   3.524   3.135 -1.0037  1.2570 -1.7734
26423SOL     OW83184   0.714   9.363   8.806  0.6476 -0.7756  0.5441
26423SOL    HW183185   0.659   9.337   8.732  3.7566 -0.6021 -2.0052
26423SOL    HW283186   0.697   9.457   8.816  0.7411 -0.6416 -0.4629
26424SOL     OW83187   6.726   1.670   3.200 -0.2410  0.2440 -0.2192
26424SOL    HW183188   6.797   1.660   3.263 -1.2429 -2.8458  0.5630
26424SOL    HW283189   6.721   1.765   3.185  3.1856  0.7020  0.5867
26425SOL     OW83190   4.063   1.440   8.139 -0.0017 -0.1571 -0.4441
26425SOL    HW183191   3.988   1.385   8.159 -0.3116  0.2781 -0.4096
26425SOL    HW283192   4.073   1.497   8.215  0.1386  0.0341 -0.6023
26426SOL     OW83193   2.198   9.807   6.600  0.3693 -0.2733 -0.1443
26426SOL    HW183194   2.176   9.781   6.690  0.2235  1.9461  0.5248
26426SOL    HW283195   2.205   9.902   6.604  1.1772 -0.1886 -2.3374
26427SOL     OW83196   1.709   4.574   2.867 -0.0479  0.0481  0.1446
26427SOL    HW183197   1.629   4.525   2.887  1.2473 -1.9556  0.7230
26427SOL    HW283198   1.682   4.639   2.803 -2.0136 -1.0214 -0.2016
26428SOL     OW83199   9.471   1.204   3.874  0.1874  0.6664  0.1006
26428SOL    HW183200   9.407   1.135   3.893 -0.0186  0.5397 -1.0270
26428SOL    HW283201   9.483   1.249   3.958  1.3486 -1.5858  1.2272
26429SOL     OW83202   9.254   4.493   1.668 -0.0809 -0.1420 -0.1215
26429SOL    HW183203   9.205   4.575   1.669 -1.7374 -0.8944 -3.4180
26429SOL    HW283204   9.186   4.426   1.656  1.4454 -1.6791 -0.5059
26430SOL     OW83205   4.253   0.881   2.634 -0.0766  0.0994 -0.1683
26430SOL    HW183206   4.161   0.884   2.609 -0.7971 -1.1944  2.0454
26430SOL    HW283207   4.288   0.805   2.587 -0.5269 -0.2993  0.1348
26431SOL     OW83208   5.748   9.438   1.919 -0.5149 -0.3459 -0.6639
26431SOL    HW183209   5.797   9.383   1.980  1.4647  0.2205 -1.6499
26431SOL    HW283210   5.711   9.508   1.973  0.5608 -0.2890  0.0171
26432SOL     OW83211   3.678   1.518   5.258  0.2277 -0.5217 -0.1023
26432SOL    HW183212   3.721   1.578   5.197 -0.2474  0.6849  0.7040
26432SOL    HW283213   3.686   1.432   5.218  0.6566  0.1294 -1.4519
26433SOL     OW83214   8.372   5.445   0.982 -0.4108 -0.3147  0.1826
26433SOL    HW183215   8.340   5.365   1.023  0.1094 -0.3192  0.5979
26433SOL    HW283216   8.301   5.474   0.926 -1.0263 -0.4739  0.8647
26434SOL     OW83217   9.507   6.602   2.903  0.2859 -0.1237  0.3239
26434SOL    HW183218   9.584   6.549   2.924 -0.1823 -1.6086 -1.4681
26434SOL    HW283219   9.434   6.541   2.909 -0.4639  0.6934 -0.2916
26435SOL     OW83220   3.117   9.819   9.802  0.0684  0.5682  0.9718
26435SOL    HW183221   3.118   9.741   9.858  0.7241 -0.6401 -0.6523
26435SOL    HW283222   3.044   9.804   9.742 -0.0590  1.4284  0.8959
26436SOL     OW83223   0.726   5.221   2.074  0.0062 -0.0065  0.2170
26436SOL    HW183224   0.803   5.274   2.051  0.2269 -0.1749  0.5510
26436SOL    HW283225   0.747   5.133   2.042  0.4048 -0.2907  1.2036
26437SOL     OW83226   7.465   0.970   2.366 -0.4012 -0.4091 -0.2319
26437SOL    HW183227   7.493   1.061   2.356  0.2195 -0.4457  1.0569
26437SOL    HW283228   7.453   0.939   2.276 -2.0954  1.3785 -0.6848
26438SOL     OW83229   6.182   3.170   8.977  0.3616 -0.0475 -0.2120
26438SOL    HW183230   6.104   3.118   8.957  1.9818 -2.3672 -0.9034
26438SOL    HW283231   6.234   3.167   8.897  1.8816  0.0874  0.7366
26439SOL     OW83232   6.754   0.727   2.507  0.6028 -0.4057 -0.0159
26439SOL    HW183233   6.821   0.727   2.575  0.3282  1.1356  0.2944
26439SOL    HW283234   6.784   0.792   2.444 -1.0138  0.9804  0.5842
26440SOL     OW83235   0.439   4.892   1.980  0.0922  0.4527  0.2306
26440SOL    HW183236   0.495   4.928   2.050 -0.9152 -0.5287  1.5922
26440SOL    HW283237   0.492   4.822   1.941  0.3980  0.5244  0.5098
26441SOL     OW83238   0.424   6.009  10.063  0.1391 -0.5286  0.7063
26441SOL    HW183239   0.386   5.993  10.150  0.5694  2.5340  1.5856
26441SOL    HW283240   0.518   6.018  10.080  0.0935  1.2955  0.1934
26442SOL     OW83241   6.160   3.947  10.113 -0.1182 -0.0227 -0.4074
26442SOL    HW183242   6.135   4.039  10.125  0.6706  0.2491 -0.8314
26442SOL    HW283243   6.151   3.932  10.019  1.9528  0.2882 -0.6946
26443SOL     OW83244   1.975   4.647   0.006  0.0352  0.4800 -0.2648
26443SOL    HW183245   2.029   4.658  -0.073 -0.2829 -2.6948 -1.0580
26443SOL    HW283246   2.039   4.635   0.076  0.5051 -2.1929 -1.0285
26444SOL     OW83247   8.777   5.900   6.688 -0.5811  0.3716  0.3650
26444SOL    HW183248   8.796   5.874   6.778 -2.6329  0.5870  0.9237
26444SOL    HW283249   8.807   5.826   6.635  0.2424  0.0487  1.2639
26445SOL     OW83250   8.846   2.708   7.831 -0.1090  0.3785  0.4750
26445SOL    HW183251   8.801   2.770   7.889  0.5712  0.2189  1.1999
26445SOL    HW283252   8.834   2.623   7.872 -0.1624  0.1713  0.0350
26446SOL     OW83253   4.700   8.425   3.707  0.2168  0.1953  0.1953
26446SOL    HW183254   4.766   8.466   3.763 -0.1279 -1.0180  1.5603
26446SOL    HW283255   4.716   8.461   3.620 -0.2440  3.3741  1.3130
26447SOL     OW83256   8.268   1.495   2.180 -0.5601 -0.0234 -0.2655
26447SOL    HW183257   8.212   1.536   2.246 -0.3883 -0.1799 -0.0239
26447SOL    HW283258   8.279   1.405   2.210  0.4790  0.2226  0.1012
26448SOL     OW83259   0.847  10.180   7.205 -0.5869  0.5016 -0.4918
26448SOL    HW183260   0.779  10.205   7.267 -2.5326 -1.2018 -1.8148
26448SOL    HW283261   0.845  10.085   7.203  0.1994  0.4696 -2.3043
26449SOL     OW83262   7.612   6.847   6.528 -0.1490 -0.3596  0.7985
26449SOL    HW183263   7.696   6.851   6.574  0.4869  1.0784 -0.4079
26449SOL    HW283264   7.549   6.819   6.594  0.5585  2.4149  2.7861
26450SOL     OW83265   9.996   4.066   1.919  0.1491  0.5386 -0.3042
26450SOL    HW183266  10.078   4.064   1.967  1.1462  0.3832 -1.9337
26450SOL    HW283267  10.016   4.116   1.840 -1.5787  1.3051 -0.3107
26451SOL     OW83268   4.031   6.675   8.753 -0.4617 -0.4270 -0.3767
26451SOL    HW183269   4.078   6.741   8.803 -0.2354  0.4367 -1.6801
26451SOL    HW283270   3.944   6.672   8.793  0.4737 -1.6799  1.7297
26452SOL     OW83271   0.440   7.915   4.516  0.2644 -0.0255  0.8342
26452SOL    HW183272   0.503   7.984   4.494  1.2326 -0.8183  1.0533
26452SOL    HW283273   0.369   7.961   4.561  0.4422  0.9553  0.1476
26453SOL     OW83274   5.738   2.422   3.983 -0.5375  0.3866 -0.0154
26453SOL    HW183275   5.798   2.487   3.946  0.4901 -0.2890  0.4037
26453SOL    HW283276   5.763   2.339   3.941 -0.3809 -0.1086  1.0141
26454SOL     OW83277   5.981   1.516   9.747 -0.4673  0.3573 -0.3301
26454SOL    HW183278   5.978   1.524   9.652 -0.9405  0.7495 -0.2856
26454SOL    HW283279   5.954   1.426   9.765 -1.6797  0.6679 -0.5039
26455SOL     OW83280   0.815   6.875   1.983 -0.1874  0.4041  0.1450
26455SOL    HW183281   0.777   6.908   1.901  0.5370 -1.4546 -1.0205
26455SOL    HW283282   0.756   6.804   2.009 -0.5587  1.1552  1.4245
26456SOL     OW83283   7.224   7.025   7.847  0.2048  0.3425 -0.0771
26456SOL    HW183284   7.136   7.021   7.810  1.2089 -1.7127 -2.5355
26456SOL    HW283285   7.241   7.119   7.857 -0.4676  1.2110 -4.5696
26457SOL     OW83286  10.113   6.563   1.748 -0.3376  0.5951 -0.0780
26457SOL    HW183287  10.159   6.521   1.820 -0.1678 -0.0025 -0.5240
26457SOL    HW283288  10.173   6.630   1.717 -0.5457  1.0772  0.5424
26458SOL     OW83289   9.373   9.119   7.805 -0.2558 -0.6757 -0.1132
26458SOL    HW183290   9.307   9.050   7.812 -0.1366 -0.9975 -1.7112
26458SOL    HW283291   9.326   9.194   7.769  0.2555 -0.9915 -1.5147
26459SOL     OW83292   6.753   6.671   9.889 -0.3165  0.7795  0.2896
26459SOL    HW183293   6.687   6.729   9.926  1.2313  0.8374  3.3079
26459SOL    HW283294   6.707   6.620   9.822 -2.7591  2.4078  0.6110
26460SOL     OW83295   7.104   2.655   3.468  0.0903 -0.1160  0.5472
26460SOL    HW183296   7.194   2.686   3.457 -0.1002  0.5034  0.6477
26460SOL    HW283297   7.096   2.641   3.563  0.6839 -2.1189  0.3350
26461SOL     OW83298   9.156   5.365   3.933 -0.0845 -0.2486 -0.6997
26461SOL    HW183299   9.086   5.311   3.897  0.4174 -1.7535  0.4480
26461SOL    HW283300   9.139   5.453   3.900 -2.2846 -0.6510 -0.7709
26462SOL     OW83301   3.399   9.543   4.615 -0.1757 -0.2567  0.0576
26462SOL    HW183302   3.314   9.581   4.638  0.3303  1.5242 -0.8128
26462SOL    HW283303   3.461   9.586   4.674  0.1887 -1.3044  0.4646
26463SOL     OW83304   1.257   2.195   1.898  0.1758 -0.7690 -0.5062
26463SOL    HW183305   1.263   2.115   1.951  0.9425 -1.5014 -1.6591
26463SOL    HW283306   1.252   2.164   1.808  0.3519  0.4863 -0.9687
26464SOL     OW83307   2.514   8.416   9.756 -0.4154 -0.4276 -0.3908
26464SOL    HW183308   2.540   8.383   9.842  0.3670 -1.4647 -0.9911
26464SOL    HW283309   2.496   8.509   9.770 -0.9799 -0.7217  1.0215
26465SOL     OW83310   1.222   5.766   7.130  0.0757 -0.3205 -0.1195
26465SOL    HW183311   1.189   5.791   7.216 -0.6979 -0.0068 -0.4938
26465SOL    HW283312   1.306   5.724   7.147  0.3651  0.5822  0.7041
26466SOL     OW83313   0.831   9.846   2.036 -0.1780  0.5697 -0.2363
26466SOL    HW183314   0.880   9.855   1.955 -0.6338  0.6844 -0.5014
26466SOL    HW283315   0.855   9.760   2.069  1.4677  1.2563  0.4886
26467SOL     OW83316   5.179   1.481   4.877 -0.4948  0.2762 -0.1957
26467SOL    HW183317   5.189   1.405   4.820  0.8655 -0.3716  0.8367
26467SOL    HW283318   5.122   1.451   4.948  1.3934 -0.3966  1.1223
26468SOL     OW83319   7.800   9.876   8.104 -0.9219 -0.4270 -0.3569
26468SOL    HW183320   7.809   9.783   8.122 -1.7484 -0.6444 -0.9859
26468SOL    HW283321   7.706   9.891   8.103 -0.7912  0.8583  1.8398
26469SOL     OW83322   8.787   6.780   8.676 -0.4491  0.5904 -0.5199
26469SOL    HW183323   8.710   6.813   8.722  1.0400 -0.3922  3.0154
26469SOL    HW283324   8.797   6.690   8.707  0.8176 -0.1307 -2.7526
26470SOL     OW83325   5.542   3.729   6.095  0.0212 -0.0709  0.3152
26470SOL    HW183326   5.599   3.731   6.018  0.3130  1.8771  0.5314
26470SOL    HW283327   5.459   3.765   6.063  0.1658  0.8095  0.9155
26471SOL     OW83328   5.296   9.110   1.142 -0.1911 -0.5756  0.5036
26471SOL    HW183329   5.270   9.055   1.216  2.3854 -0.4390  1.6525
26471SOL    HW283330   5.358   9.172   1.180 -1.8651  2.2129 -1.0565
26472SOL     OW83331   9.441   8.623   4.882 -0.1994  0.0400  0.1599
26472SOL    HW183332   9.444   8.564   4.958 -1.6146 -0.0798  0.1486
26472SOL    HW283333   9.406   8.704   4.917  0.6130  0.5053 -0.0757
26473SOL     OW83334   2.004   5.582   4.891  0.0513 -0.3636 -0.5817
26473SOL    HW183335   1.997   5.661   4.944 -2.2767 -1.6639  1.2878
26473SOL    HW283336   2.097   5.562   4.889  0.3173 -0.1251  3.0055
26474SOL     OW83337   1.535   6.024   9.077 -0.0737 -0.4586 -0.4154
26474SOL    HW183338   1.547   6.020   8.982 -1.4032  0.5563 -0.6500
26474SOL    HW283339   1.564   5.939   9.108  0.6867 -0.6991 -1.6889
26475SOL     OW83340   6.873   7.382   6.765  0.1393  0.2306  0.5224
26475SOL    HW183341   6.955   7.412   6.803  0.1324  0.1844  0.5734
26475SOL    HW283342   6.894   7.297   6.727  0.2141  0.4028  0.1760
26476SOL     OW83343   1.946   1.816   9.204 -0.0110 -0.3384  0.0746
26476SOL    HW183344   1.878   1.871   9.165 -0.4004 -0.2607  0.8461
26476SOL    HW283345   2.004   1.793   9.131 -1.5592 -1.4596 -0.8627
26477SOL     OW83346   9.667   4.300   6.026 -1.1941  0.3066  0.4452
26477SOL    HW183347   9.655   4.219   5.976 -0.4499  0.2540  0.3420
26477SOL    HW283348   9.654   4.369   5.961 -2.1333  0.2874  0.5972
26478SOL     OW83349   3.959   2.169   0.843  0.5812  0.0838  0.0581
26478SOL    HW183350   4.028   2.159   0.778  1.3174 -2.3431  1.1133
26478SOL    HW283351   3.878   2.149   0.795  0.4357  3.2471 -1.2578
26479SOL     OW83352   4.489   9.432   8.296  0.4924  0.5536 -0.4317
26479SOL    HW183353   4.513   9.521   8.273  0.3865  0.5016 -0.7366
26479SOL    HW283354   4.573   9.386   8.303  0.5260  0.5854 -0.6376
26480SOL     OW83355   1.825   6.886   8.831  0.4245  0.1794  0.4576
26480SOL    HW183356   1.767   6.927   8.895  1.8732  0.7506  1.4349
26480SOL    HW283357   1.911   6.924   8.847  0.8455  0.4230 -1.8975
26481SOL     OW83358   7.249   3.088   1.220 -0.6942  0.5737 -0.3352
26481SOL    HW183359   7.161   3.104   1.186  0.0549  2.4828 -1.5149
26481SOL    HW283360   7.303   3.074   1.142  0.3833  1.3287  0.2461
26482SOL     OW83361   4.494   7.409   1.897  0.0554  0.3477  0.1352
26482SOL    HW183362   4.440   7.462   1.838 -1.1422 -0.0256  0.8631
26482SOL    HW283363   4.489   7.454   1.981  0.5200  0.0593  0.3174
26483SOL     OW83364   5.524   6.574   8.842 -0.4571  0.0668 -0.5849
26483SOL    HW183365   5.463   6.521   8.791  1.8046 -0.0349 -3.4080
26483SOL    HW283366   5.509   6.664   8.812  0.4323  0.0961 -0.9687
26484SOL     OW83367   3.569   7.958   3.066  0.2036 -0.0804  0.6986
26484SOL    HW183368   3.553   8.046   3.102  0.1928  1.0710 -1.8782
26484SOL    HW283369   3.662   7.960   3.040  0.5757 -1.3544  1.8533
26485SOL     OW83370   5.511   2.265   1.132 -0.6017 -0.5589  0.2938
26485SOL    HW183371   5.539   2.237   1.219  1.5240 -0.1380 -0.1996
26485SOL    HW283372   5.469   2.350   1.146 -2.9834 -1.7794  1.2155
26486SOL     OW83373   6.745   4.485   1.869  0.4673 -0.1778 -0.0229
26486SOL    HW183374   6.762   4.438   1.951  1.4739 -1.3259 -0.8565
26486SOL    HW283375   6.701   4.566   1.897 -2.2283 -1.9950  1.3820
26487SOL     OW83376   4.346   7.134   0.664 -0.2421 -0.1339 -0.5935
26487SOL    HW183377   4.349   7.061   0.603 -0.9629 -1.2413  0.6506
26487SOL    HW283378   4.433   7.136   0.703 -0.0877 -0.0380 -0.9335
26488SOL     OW83379   0.493   9.610   2.618 -0.0213  0.3176 -0.0561
26488SOL    HW183380   0.496   9.657   2.535  0.3461  0.9195  0.2954
26488SOL    HW283381   0.582   9.577   2.631 -0.6819 -2.1570 -1.2336
26489SOL     OW83382   6.527   7.861   7.376 -0.3952  0.4170  0.2566
26489SOL    HW183383   6.525   7.872   7.471  1.3968  1.3898  0.2130
26489SOL    HW283384   6.440   7.888   7.347 -0.5488  1.3456  1.5087
26490SOL     OW83385   3.807   7.249   7.489  0.0033  0.0768 -0.0617
26490SOL    HW183386   3.835   7.205   7.409 -2.3198  1.5948 -1.8827
26490SOL    HW283387   3.752   7.185   7.533 -0.3042 -0.1408 -0.7378
26491SOL     OW83388   2.439   4.042   2.137  0.9806  0.0665 -0.0260
26491SOL    HW183389   2.408   3.982   2.070 -1.4192  1.8952 -0.6826
26491SOL    HW283390   2.378   4.031   2.210  0.0027  2.1556 -0.4558
26492SOL     OW83391   1.438   9.255   6.539  0.2642 -0.4161 -0.9709
26492SOL    HW183392   1.456   9.179   6.483  1.6437 -0.6129 -0.3015
26492SOL    HW283393   1.525   9.288   6.563 -0.3058  1.2020 -1.0004
26493SOL     OW83394   9.313   0.385   5.526  0.1138 -1.1026  0.4113
26493SOL    HW183395   9.313   0.345   5.613 -0.5522 -0.4807  0.7044
26493SOL    HW283396   9.300   0.478   5.543  1.7129 -0.7324 -0.2583
26494SOL     OW83397   0.356   1.626   9.260  0.1553  0.2945  0.1030
26494SOL    HW183398   0.358   1.721   9.274  0.2625  0.1049  1.5017
26494SOL    HW283399   0.427   1.610   9.199 -0.6264  1.2446 -1.1077
26495SOL     OW83400   3.596   1.380   1.399  0.6495 -0.3097  0.8408
26495SOL    HW183401   3.562   1.382   1.489  2.3354 -2.9757  1.6324
26495SOL    HW283402   3.685   1.345   1.407  0.5024 -1.6050 -1.9348
26496SOL     OW83403   4.039   6.074   1.748  0.6621  0.8164  0.5019
26496SOL    HW183404   3.947   6.101   1.755  1.5757  3.8875  2.3571
26496SOL    HW283405   4.051   6.009   1.817 -0.2712 -0.2715 -0.3247
26497SOL     OW83406   8.563   1.160   9.805  0.3784 -0.0145 -0.2106
26497SOL    HW183407   8.470   1.180   9.793 -0.0032 -1.9092 -0.8392
26497SOL    HW283408   8.596   1.147   9.716  0.6712 -1.5900  0.0993
26498SOL     OW83409   0.968   3.348   1.507 -0.1282 -0.2061 -0.1707
26498SOL    HW183410   0.896   3.385   1.558 -2.2240 -1.4607 -2.0298
26498SOL    HW283411   1.003   3.278   1.561 -1.7501 -0.9640 -0.0377
26499SOL     OW83412   6.968   8.115   5.177 -0.0205  0.5147 -0.0398
26499SOL    HW183413   6.962   8.034   5.127 -0.2106  0.2950  0.3363
26499SOL    HW283414   6.909   8.175   5.132  0.4687  0.5963 -0.5935
26500SOL     OW83415   3.579   8.683   2.589  0.4025  0.5175 -0.0781
26500SOL    HW183416   3.631   8.661   2.666 -0.1481 -0.4977  0.0174
26500SOL    HW283417   3.509   8.739   2.622 -0.7925 -1.2199  0.4875
26501SOL     OW83418   0.184   8.704   9.994 -0.5596 -0.9349 -0.5171
26501SOL    HW183419   0.237   8.763   9.940 -2.9856  0.6557 -1.3259
26501SOL    HW283420   0.243   8.678  10.065  0.9514  1.7177 -0.6522
26502SOL     OW83421   5.315   9.408   2.606  0.1971 -0.1851  0.0294
26502SOL    HW183422   5.227   9.445   2.602  0.4723  0.5024  0.2061
26502SOL    HW283423   5.357   9.454   2.679  0.6883 -0.5285 -0.0365
26503SOL     OW83424   3.289   5.618   3.956 -0.4116  0.5254 -0.3374
26503SOL    HW183425   3.212   5.565   3.976  0.7579 -0.3754  2.3372
26503SOL    HW283426   3.348   5.557   3.912  0.2672 -0.0144  1.2243
26504SOL     OW83427   6.945   6.613   4.906 -0.1883 -0.5522  0.0838
26504SOL    HW183428   7.027   6.580   4.869  0.5861 -1.5522  2.4794
26504SOL    HW283429   6.877   6.560   4.865  0.3383  0.0236 -1.6424
26505SOL     OW83430   5.132   3.894   3.829 -0.2070  0.3327 -0.5986
26505SOL    HW183431   5.061   3.856   3.777 -0.8576  0.6086  0.0831
26505SOL    HW283432   5.212   3.869   3.782 -0.6230 -1.6689 -0.3132
26506SOL     OW83433   6.825   2.532   3.487  0.0667  0.0748  0.2056
26506SOL    HW183434   6.895   2.529   3.421 -1.0209 -0.4084 -0.9771
26506SOL    HW283435   6.822   2.443   3.523 -1.0389 -0.4243 -1.0032
26507SOL     OW83436   1.712   8.992   5.565  0.2918  0.3446  0.1972
26507SOL    HW183437   1.714   8.919   5.628  0.2961  0.5632  0.4539
26507SOL    HW283438   1.651   8.964   5.498  2.1494 -0.9988 -1.0465
26508SOL     OW83439   8.215   1.691   3.910  0.1470  0.0193  0.1338
26508SOL    HW183440   8.260   1.773   3.926  0.2304  0.0210 -0.1026
26508SOL    HW283441   8.134   1.716   3.865 -0.0152  0.0038  0.4155
26509SOL     OW83442   8.363   5.161   8.207 -0.0921 -0.1165  0.2361
26509SOL    HW183443   8.354   5.256   8.197 -0.7613 -0.4091 -3.0812
26509SOL    HW283444   8.387   5.130   8.120  0.1952 -3.0191  1.2425
26510SOL     OW83445   5.825   7.365   9.893  0.4318 -0.5191 -0.0731
26510SOL    HW183446   5.786   7.321   9.817  0.1338  0.1852 -0.3345
26510SOL    HW283447   5.912   7.391   9.863 -0.6823  2.2843 -1.1773
26511SOL     OW83448   5.104   6.409   1.177 -0.3622 -0.3472 -0.2807
26511SOL    HW183449   5.154   6.490   1.173  0.5249 -0.7381  1.8168
26511SOL    HW283450   5.076   6.402   1.268 -0.8496 -2.1392 -0.5307
26512SOL     OW83451   5.561   7.188   1.538  0.7494 -0.2971  0.0277
26512SOL    HW183452   5.642   7.222   1.501  0.5453 -0.7061 -0.8250
26512SOL    HW283453   5.492   7.239   1.495  0.5777  1.4439  2.1931
26513SOL     OW83454   8.977   5.831   4.225  0.7639 -0.0236 -0.2081
26513SOL    HW183455   8.898   5.782   4.249  0.6185 -0.7535 -1.9482
26513SOL    HW283456   8.944   5.912   4.186  0.9302  0.3494  0.4169
26514SOL     OW83457   1.639   3.700   7.458 -0.4906  0.3191 -0.5833
26514SOL    HW183458   1.579   3.759   7.414 -0.5607 -0.0341 -0.9723
26514SOL    HW283459   1.675   3.646   7.388  0.5310  0.7410 -0.4008
26515SOL     OW83460   9.335   9.776   4.063 -0.1870 -0.3784 -0.9363
26515SOL    HW183461   9.289   9.694   4.079  1.7028 -1.3849 -0.3799
26515SOL    HW283462   9.347   9.814   4.150 -1.4215  0.7582 -1.2179
26516SOL     OW83463   4.484   0.898   2.139 -0.1825  0.5188 -0.6055
26516SOL    HW183464   4.510   0.812   2.107 -1.7704 -0.6461  1.0314
26516SOL    HW283465   4.564   0.936   2.176  1.0070  0.6899 -3.1137
26517SOL     OW83466   6.031   2.493   7.292  0.8305 -0.4407  0.2258
26517SOL    HW183467   6.047   2.443   7.213  1.0686 -0.7366  0.4571
26517SOL    HW283468   5.936   2.494   7.303  0.8424 -1.1239  0.3998
26518SOL     OW83469   5.924   5.114   6.244 -0.0771 -0.6862  0.2032
26518SOL    HW183470   5.894   5.202   6.220  0.2354 -0.6549 -0.0778
26518SOL    HW283471   6.018   5.124   6.257 -0.0558 -0.9624  0.2550
26519SOL     OW83472   5.671   2.648   8.245 -0.5511 -0.2729 -0.1728
26519SOL    HW183473   5.725   2.577   8.278 -1.0957 -0.5465  0.1534
26519SOL    HW283474   5.619   2.608   8.175 -0.5814 -0.1007 -0.2495
26520SOL     OW83475   7.502   1.323   8.579  0.3787 -0.1722 -0.0582
26520SOL    HW183476   7.585   1.369   8.568  0.1863  0.2037  0.0609
26520SOL    HW283477   7.440   1.370   8.523  0.1665 -0.2432  0.1142
26521SOL     OW83478   8.743   2.552   8.504 -0.5149 -0.3682 -0.3501
26521SOL    HW183479   8.795   2.472   8.504 -1.1296 -0.7853 -0.9817
26521SOL    HW283480   8.741   2.580   8.595  1.9790  0.4479 -0.4868
26522SOL     OW83481   3.373   9.589   0.479  0.3730  0.4986  0.4435
26522SOL    HW183482   3.465   9.617   0.477  0.3059  0.6861  0.0800
26522SOL    HW283483   3.360   9.543   0.396  0.5792 -0.9247  1.1730
26523SOL     OW83484   8.265   3.510   3.608 -0.1297  0.4281  0.0791
26523SOL    HW183485   8.357   3.483   3.606 -0.4026 -0.6294  0.6939
26523SOL    HW283486   8.258   3.578   3.541  0.6737 -0.8306 -1.3451
26524SOL     OW83487   3.592   2.176   8.301  0.1992  0.1102 -0.6477
26524SOL    HW183488   3.663   2.146   8.359 -1.0765 -0.5772  0.6307
26524SOL    HW283489   3.612   2.268   8.285  1.6424 -0.1850 -0.7412
26525SOL     OW83490   1.833   6.356  10.137 -0.0643  0.0084  0.6179
26525SOL    HW183491   1.751   6.404  10.148 -1.5204 -2.5043  1.4594
26525SOL    HW283492   1.810   6.282  10.080  1.1912 -1.6117  2.1164
26526SOL     OW83493   2.502   7.201   4.202  0.1132  0.5248  0.0774
26526SOL    HW183494   2.487   7.148   4.124 -0.4813  0.3519  0.2949
26526SOL    HW283495   2.416   7.203   4.245 -0.0142  2.1316 -0.2065
26527SOL     OW83496   9.092   8.539   6.014 -0.5461 -0.5470 -0.5460
26527SOL    HW183497   9.010   8.494   5.992 -1.3142  0.5026  0.0714
26527SOL    HW283498   9.071   8.591   6.092  1.0251 -1.1336  0.3225
26528SOL     OW83499   6.351  10.052   5.975  0.3496 -0.3208  0.1383
26528SOL    HW183500   6.354   9.958   5.996  0.0027 -0.1985  0.7433
26528SOL    HW283501   6.441  10.074   5.953  0.3454 -0.9144 -0.5256
26529SOL     OW83502   1.245   0.745   1.645  0.1056  0.6473  0.4258
26529SOL    HW183503   1.246   0.679   1.575 -0.2727  0.5826  0.4790
26529SOL    HW283504   1.187   0.708   1.712 -1.0186  1.5336 -0.0277
26530SOL     OW83505   7.183   8.850   7.792  0.4133 -0.2446 -0.3561
26530SOL    HW183506   7.154   8.760   7.806 -1.5521  0.4396  0.2971
26530SOL    HW283507   7.122   8.886   7.727 -0.8290  1.4988  1.6424
26531SOL     OW83508   0.485   9.011   8.025  0.0540 -0.4602 -0.5218
26531SOL    HW183509   0.498   8.976   7.937  1.0303 -1.5095  0.0027
26531SOL    HW283510   0.394   9.039   8.027 -0.5836 -2.3020 -1.2369
26532SOL     OW83511   8.011   0.332   4.088  0.5289 -0.6812 -0.2033
26532SOL    HW183512   8.011   0.400   4.156  1.6978 -0.5919 -0.2614
26532SOL    HW283513   7.933   0.281   4.105  0.0379  0.2109  0.3275
26533SOL     OW83514   7.784   7.581   6.490  0.2298 -0.2189 -0.1325
26533SOL    HW183515   7.872   7.543   6.499  0.7288  0.4840 -1.5979
26533SOL    HW283516   7.766   7.621   6.574  1.1933 -0.6319  0.2878
26534SOL     OW83517   9.704   6.369   5.484  0.5742  0.3450  0.9863
26534SOL    HW183518   9.644   6.431   5.441  1.4868  0.8174  0.3537
26534SOL    HW283519   9.782   6.421   5.502  1.9288 -0.9083 -0.8472
26535SOL     OW83520   4.975   2.184   6.553 -0.1357  0.4591  0.2017
26535SOL    HW183521   4.943   2.267   6.517  1.2649  1.6718  1.5244
26535SOL    HW283522   4.972   2.123   6.480  0.6234  2.2136 -1.3965
26536SOL     OW83523   7.474   8.489   4.764  0.4533 -0.1647 -0.7120
26536SOL    HW183524   7.411   8.484   4.692  0.3728 -0.6276 -0.6085
26536SOL    HW283525   7.441   8.560   4.820  0.4768  0.1468 -1.0863
26537SOL     OW83526   0.812   3.830   1.367  0.0141 -0.0331 -0.7248
26537SOL    HW183527   0.723   3.797   1.373 -0.0992  0.5149  1.1818
26537SOL    HW283528   0.803   3.916   1.326 -0.0721 -0.7647 -2.3409
26538SOL     OW83529   5.105   0.534   3.148  0.2209  0.2879 -0.0811
26538SOL    HW183530   5.173   0.514   3.083  3.6268  2.0595  2.6321
26538SOL    HW283531   5.082   0.626   3.130 -1.7424 -0.3277 -1.0571
26539SOL     OW83532   2.811   8.521   0.416  0.2349  0.2941  0.4517
26539SOL    HW183533   2.857   8.441   0.443  0.4279 -0.1549 -1.0696
26539SOL    HW283534   2.722   8.510   0.452  0.5006 -0.2019  0.9809
26540SOL     OW83535   4.861   0.502   5.512 -0.1828  0.7873 -0.5367
26540SOL    HW183536   4.926   0.517   5.444  0.3027  0.8401 -0.0646
26540SOL    HW283537   4.911   0.493   5.593 -0.7807  1.2609 -0.0964
26541SOL     OW83538   4.231   1.309  10.030 -0.4983 -0.2229  0.4935
26541SOL    HW183539   4.176   1.384  10.052  0.2197  0.2473  0.7267
26541SOL    HW283540   4.296   1.305  10.101 -0.4283 -0.9695  0.4000
26542SOL     OW83541   3.421   5.505   5.464  0.1839 -0.2949 -0.1209
26542SOL    HW183542   3.384   5.551   5.539  0.7107  1.2179 -0.7601
26542SOL    HW283543   3.357   5.437   5.444 -0.7589  0.3362  0.6604
26543SOL     OW83544   4.601   3.018   6.719 -0.2077  0.0360 -0.3213
26543SOL    HW183545   4.667   3.067   6.768 -0.6250 -0.7129  1.0451
26543SOL    HW283546   4.651   2.953   6.670  0.1095 -0.6535  0.8539
26544SOL     OW83547   6.383   4.936   4.169 -0.3263  0.3234 -0.0129
26544SOL    HW183548   6.376   5.031   4.160  1.9694  0.5294 -0.0782
26544SOL    HW283549   6.476   4.919   4.180 -0.6994 -1.9252  0.2094
26545SOL     OW83550   6.875   5.851   1.007  0.0772 -0.1433 -0.2702
26545SOL    HW183551   6.947   5.911   1.023 -0.2918  0.1388  0.3617
26545SOL    HW283552   6.797   5.906   1.011 -0.1415 -0.3095 -1.6716
26546SOL     OW83553   0.087   5.530   5.983 -0.4388  0.0760 -0.2517
26546SOL    HW183554   0.119   5.542   6.073 -0.9626  0.4104 -0.1023
26546SOL    HW283555  -0.008   5.522   5.993 -0.6798  1.7801 -0.9151
26547SOL     OW83556   4.275   8.940   3.395 -0.7076  0.5912 -0.1891
26547SOL    HW183557   4.368   8.958   3.411 -0.5956  0.0297 -0.1872
26547SOL    HW283558   4.229   9.008   3.444 -0.3732 -1.1268  2.7355
26548SOL     OW83559   3.299   6.408   4.002  0.5315  0.5407  0.4223
26548SOL    HW183560   3.295   6.454   4.086 -0.0050 -0.0867  0.7585
26548SOL    HW283561   3.301   6.477   3.936  2.0043  1.0556  0.9804
26549SOL     OW83562  10.021   7.776   5.745  0.1994  0.4379 -0.0347
26549SOL    HW183563  10.054   7.770   5.656  3.4616  2.3378  0.8823
26549SOL    HW283564  10.040   7.691   5.784 -0.5327 -0.1345 -0.8854
26550SOL     OW83565   2.186   6.727   2.267  0.6624 -0.1928  0.7333
26550SOL    HW183566   2.138   6.801   2.302  1.6316  0.0381  1.6196
26550SOL    HW283567   2.231   6.689   2.342  1.1175 -0.9657  0.0922
26551SOL     OW83568   8.848   5.036   8.954  0.5064 -0.5836  0.3560
26551SOL    HW183569   8.912   5.091   8.907  1.4293 -1.6205  0.3669
26551SOL    HW283570   8.806   5.097   9.014  0.5808  0.3936 -0.5297
26552SOL     OW83571   3.837   0.630   7.715  0.2394 -0.6158 -0.4575
26552SOL    HW183572   3.848   0.723   7.696 -0.7173  0.2167  2.4879
26552SOL    HW283573   3.764   0.602   7.661  0.7516  0.2417 -1.6188
26553SOL     OW83574   2.523   5.462   5.681 -0.7685 -0.5302 -0.3386
26553SOL    HW183575   2.432   5.457   5.650 -1.2082 -0.2828  0.8500
26553SOL    HW283576   2.524   5.407   5.760 -0.0896  0.1203  0.1177
26554SOL     OW83577   6.953   5.603   8.844  0.0929  0.0540  0.1636
26554SOL    HW183578   6.876   5.626   8.895  0.3814  0.0659  0.5951
26554SOL    HW283579   6.961   5.673   8.779 -0.9271 -0.5451 -0.6398
26555SOL     OW83580   8.062   2.810   2.493  0.2439  1.2435 -0.4337
26555SOL    HW183581   8.099   2.892   2.526  0.4807  0.4801  1.2862
26555SOL    HW283582   8.136   2.766   2.452  0.4884  1.1937  0.0528
26556SOL     OW83583   5.595   5.256   5.061 -0.4242 -0.1705 -0.4458
26556SOL    HW183584   5.621   5.347   5.050 -2.3483  0.2779 -1.6493
26556SOL    HW283585   5.673   5.214   5.098  0.4047  1.9904  0.4546
26557SOL     OW83586   3.863   0.789   8.393  0.5185 -0.1032  0.5355
26557SOL    HW183587   3.801   0.729   8.351  0.4007  0.7930 -0.6169
26557SOL    HW283588   3.933   0.732   8.424 -1.2144 -1.2438  2.6071
26558SOL     OW83589   4.636   5.642   1.461 -0.2446 -0.1049 -0.1280
26558SOL    HW183590   4.684   5.718   1.495 -0.6906  0.5507 -0.9348
26558SOL    HW283591   4.702   5.573   1.455 -0.3160 -0.6005  2.9972
26559SOL     OW83592   2.334   7.386   9.117 -0.5268  0.3423  0.2962
26559SOL    HW183593   2.261   7.365   9.176  0.8294  1.1749  2.3845
26559SOL    HW283594   2.354   7.477   9.136  2.2864 -0.3851  1.2670
26560SOL     OW83595   6.999   4.880   9.351  0.2649 -0.3266 -0.2136
26560SOL    HW183596   7.006   4.785   9.341  1.2320 -0.1798 -1.0735
26560SOL    HW283597   7.069   4.916   9.296 -0.6823  0.9220 -0.6706
26561SOL     OW83598   9.233   9.051   2.771 -0.3498  0.8075 -0.0086
26561SOL    HW183599   9.236   8.972   2.717  1.2075  0.6547  0.2651
26561SOL    HW283600   9.253   9.021   2.860 -0.8894  1.3474  0.3057
26562SOL     OW83601   4.931   7.519   3.261  0.4610 -0.3768 -0.1609
26562SOL    HW183602   4.882   7.502   3.342  0.5992 -1.8734 -0.3699
26562SOL    HW283603   4.911   7.610   3.241  0.3030 -0.0104  1.4689
26563SOL     OW83604   3.277   3.666   1.507  0.8026 -0.3187  0.0662
26563SOL    HW183605   3.345   3.655   1.573 -0.3096 -1.3717  1.0832
26563SOL    HW283606   3.221   3.735   1.541 -0.2617 -1.4558  0.6770
26564SOL     OW83607   8.236   0.266   4.948  0.1871 -0.1178  0.2666
26564SOL    HW183608   8.186   0.188   4.970 -0.4036  0.0433 -0.4572
26564SOL    HW283609   8.286   0.287   5.027  0.2574 -1.1508  0.5021
26565SOL     OW83610   1.604   5.582   7.641  0.1209  0.2042 -0.1398
26565SOL    HW183611   1.605   5.496   7.598 -0.6969  0.4345 -0.6217
26565SOL    HW283612   1.694   5.592   7.674  0.0908 -1.0765  0.4186
26566SOL     OW83613   9.391   7.883   0.444  0.2158 -0.0683 -0.2370
26566SOL    HW183614   9.350   7.797   0.457  4.3725 -1.9004  3.1736
26566SOL    HW283615   9.367   7.933   0.522 -0.6626  1.2682 -1.3257
26567SOL     OW83616   7.482   6.039   3.843  0.0660  0.4997 -0.2886
26567SOL    HW183617   7.439   6.117   3.810  0.2466  1.2090  1.0940
26567SOL    HW283618   7.505   6.060   3.933  2.4527 -0.1814 -0.6595
26568SOL     OW83619   8.203   2.682   9.666 -0.4257  0.7026 -0.2329
26568SOL    HW183620   8.186   2.645   9.753 -0.9907 -1.6760 -1.2853
26568SOL    HW283621   8.269   2.749   9.681  0.4944 -0.5776  1.8629
26569SOL     OW83622   1.245   6.957   3.658  0.2965  0.2394  0.1642
26569SOL    HW183623   1.298   6.972   3.580 -0.8852  0.3500 -0.6393
26569SOL    HW283624   1.293   7.000   3.728 -0.0274  2.7084 -1.0121
26570SOL     OW83625   8.749   8.351   3.375 -0.3379  0.1994  0.4078
26570SOL    HW183626   8.744   8.416   3.446  0.2502  0.5835  0.1027
26570SOL    HW283627   8.689   8.282   3.402  0.1217  0.1928  1.4323
26571SOL     OW83628   0.771   4.866   1.404  0.4802  0.1064 -0.7164
26571SOL    HW183629   0.741   4.931   1.468  1.4698 -0.4991  0.3848
26571SOL    HW283630   0.730   4.784   1.432  2.7426 -0.6639  0.5952
26572SOL     OW83631   8.672   2.840   6.960  0.6220  0.4043  0.3118
26572SOL    HW183632   8.672   2.806   7.050  1.5418  1.5249  0.7809
26572SOL    HW283633   8.704   2.768   6.907 -1.0052 -0.6451  0.7009
26573SOL     OW83634   0.809   8.051   3.398 -0.2865 -0.2180  0.2909
26573SOL    HW183635   0.844   7.985   3.458 -0.7285 -0.3174  0.4385
26573SOL    HW283636   0.741   8.096   3.448 -0.3133  0.0381  0.0314
26574SOL     OW83637   7.021   6.799   8.713  0.3726 -0.3338 -0.6403
26574SOL    HW183638   6.972   6.717   8.719 -2.6806  1.3197 -1.3344
26574SOL    HW283639   7.039   6.823   8.804  0.0033 -1.0049 -0.3820
26575SOL     OW83640   2.832   4.104   2.805 -0.3051  0.3802 -0.1746
26575SOL    HW183641   2.810   4.054   2.884 -1.4173  1.4959  0.2620
26575SOL    HW283642   2.778   4.183   2.811  0.1875  0.8651 -1.6605
26576SOL     OW83643   9.293   8.357   6.328 -0.1275 -0.1508 -0.1133
26576SOL    HW183644   9.299   8.377   6.234  1.0715  0.2358  0.0321
26576SOL    HW283645   9.264   8.439   6.368 -1.9750 -0.6741 -0.2587
26577SOL     OW83646   7.862   1.303   1.052  0.5089  0.5533 -0.2548
26577SOL    HW183647   7.833   1.394   1.059  0.9478  0.6448  0.5348
26577SOL    HW283648   7.839   1.277   0.963 -3.9102 -0.1001  0.8581
26578SOL     OW83649   8.333   9.756   9.872 -0.1508 -0.2168  0.1155
26578SOL    HW183650   8.324   9.702   9.950 -1.3183 -0.4203 -0.1304
26578SOL    HW283651   8.248   9.800   9.863 -0.0571 -0.2213 -1.0376
26579SOL     OW83652   0.789   9.569   2.629  0.5004  0.4421  0.2136
26579SOL    HW183653   0.795   9.476   2.650  0.7586  0.5691  0.7246
26579SOL    HW283654   0.819   9.613   2.708 -0.4430  0.9797  0.2931
26580SOL     OW83655   2.486   5.275   7.521  0.1087 -0.1879 -0.1411
26580SOL    HW183656   2.544   5.338   7.564 -1.2184  1.5010 -0.7018
26580SOL    HW283657   2.398   5.299   7.551 -0.6906 -0.0319 -2.3925
26581SOL     OW83658   7.687   0.357   2.637  0.2958  0.2912 -0.4480
26581SOL    HW183659   7.779   0.379   2.629 -0.1627  2.5100 -0.1618
26581SOL    HW283660   7.674   0.285   2.575  2.1430  0.1050 -0.6733
26582SOL     OW83661   9.625   0.044   1.879  0.0484  0.7074 -0.1455
26582SOL    HW183662   9.712   0.016   1.905  0.1640  0.9608 -0.2553
26582SOL    HW283663   9.576   0.050   1.961  0.3093  1.1649 -0.0243
26583SOL     OW83664   7.997   2.447   8.834 -0.3243  0.1300 -0.0967
26583SOL    HW183665   8.035   2.442   8.922 -0.2856 -1.7144 -0.1922
26583SOL    HW283666   7.919   2.393   8.838 -1.4245  1.6092 -0.6961
26584SOL     OW83667   6.783   5.065   9.929  0.3058 -0.3289 -0.0701
26584SOL    HW183668   6.815   5.106  10.010 -2.4747  2.3538 -0.1324
26584SOL    HW283669   6.807   5.128   9.861  0.7929 -1.5634 -1.0633
26585SOL     OW83670   0.197   6.528   0.482 -0.4637 -0.1696 -0.2231
26585SOL    HW183671   0.117   6.487   0.513 -0.3742 -0.1677  0.0090
26585SOL    HW283672   0.168   6.611   0.443 -0.4402  0.4385  1.0029
26586SOL     OW83673   3.815   5.953   2.926  0.4045  0.2171  0.4423
26586SOL    HW183674   3.801   6.003   2.845 -0.0189  2.0558  1.5778
26586SOL    HW283675   3.770   5.870   2.911  2.0958 -0.3847 -1.9615
26587SOL     OW83676   1.529   6.543   1.050  0.2361  0.3932  0.0700
26587SOL    HW183677   1.584   6.545   1.129  0.2861  1.4940  0.0229
26587SOL    HW283678   1.446   6.582   1.077 -0.9139 -2.1101  0.3844
26588SOL     OW83679   4.168   1.662   6.739 -0.7435 -0.6163  0.3016
26588SOL    HW183680   4.163   1.593   6.672  0.8144  0.7258 -1.2886
26588SOL    HW283681   4.102   1.726   6.713  0.3142  0.2280 -0.3743
26589SOL     OW83682   6.700   6.762   9.014  0.6679 -0.0405  0.0334
26589SOL    HW183683   6.684   6.857   9.006 -0.6895 -0.2388  0.1801
26589SOL    HW283684   6.685   6.728   8.926  0.5502 -0.1967  0.1135
26590SOL     OW83685   4.804   0.589   2.954  0.0844  0.2854 -0.0352
26590SOL    HW183686   4.765   0.531   2.888 -0.1829  1.8331 -1.3067
26590SOL    HW283687   4.895   0.599   2.926  0.4514 -0.4105  0.8509
26591SOL     OW83688   3.054   6.898   5.565  0.0287  0.1359 -0.2683
26591SOL    HW183689   3.026   6.986   5.541 -3.2173 -0.1991  1.6213
26591SOL    HW283690   3.116   6.910   5.637 -0.4269  0.8903  0.0041
26592SOL     OW83691   1.372   6.868   7.081 -0.2765 -0.4860 -0.0518
26592SOL    HW183692   1.325   6.940   7.039 -0.2233  0.2744  1.1356
26592SOL    HW283693   1.317   6.792   7.065 -1.5281  0.2359  0.5995
26593SOL     OW83694   6.870   8.818   9.977  0.1675  0.0518 -0.4950
26593SOL    HW183695   6.833   8.858  10.055 -2.2621  0.1616 -1.6048
26593SOL    HW283696   6.854   8.724   9.989  0.3457  0.0128 -0.5679
26594SOL     OW83697   0.647   5.536   9.955  0.3511 -0.0210  0.5742
26594SOL    HW183698   0.601   5.494   9.883  0.8506 -0.3888  0.4608
26594SOL    HW283699   0.578   5.565  10.015 -0.2879  2.5549 -1.2044
26595SOL     OW83700   8.582   8.514   2.832 -0.0957 -0.5375  0.2879
26595SOL    HW183701   8.603   8.499   2.924  1.0322  1.6336  0.4566
26595SOL    HW283702   8.570   8.609   2.826 -0.5208 -0.6883 -1.7250
26596SOL     OW83703   0.422   8.642   3.321  0.2645 -0.6555  0.3667
26596SOL    HW183704   0.448   8.658   3.412  1.1530 -2.4480  0.4697
26596SOL    HW283705   0.333   8.606   3.328 -0.3595  0.8230  0.3713
26597SOL     OW83706   8.170   2.217   1.317  0.1848  0.6369 -0.3429
26597SOL    HW183707   8.153   2.278   1.389 -2.5764 -0.3686  0.0077
26597SOL    HW283708   8.214   2.142   1.358  0.3210  0.8673 -0.0686
26598SOL     OW83709   7.171  10.183   0.557  0.2858  0.1616 -0.0745
26598SOL    HW183710   7.103  10.121   0.585  0.7471 -0.1575  0.3487
26598SOL    HW283711   7.184  10.164   0.464 -1.5549  1.5078 -0.6881
26599SOL     OW83712   7.012   4.397   3.935  0.0899  0.7609 -0.0774
26599SOL    HW183713   6.978   4.332   3.874 -0.5652  1.0518 -0.0237
26599SOL    HW283714   7.062   4.457   3.880 -0.9447  1.3312 -0.4227
26600SOL     OW83715   0.616   3.827   2.269  0.3645 -0.3061  0.0389
26600SOL    HW183716   0.655   3.783   2.345  0.0040 -0.8480 -0.0847
26600SOL    HW283717   0.581   3.755   2.215 -0.8139  0.1635  0.1503
26601SOL     OW83718   2.152   6.403   4.215  0.5182  0.2624  0.1860
26601SOL    HW183719   2.169   6.496   4.232 -0.3309  0.4126  0.2799
26601SOL    HW283720   2.097   6.375   4.289  0.6257 -0.2696  0.0672
26602SOL     OW83721   6.377   0.134   6.339 -0.1160 -0.0369 -0.1835
26602SOL    HW183722   6.298   0.132   6.284  1.1527 -1.7334 -2.1212
26602SOL    HW283723   6.406   0.225   6.336 -0.2812  0.0037 -2.1458
26603SOL     OW83724   6.186   8.101   3.563  0.4574  0.3158 -0.2360
26603SOL    HW183725   6.137   8.086   3.482  1.7962 -0.4240 -0.9436
26603SOL    HW283726   6.119   8.117   3.629 -0.7021  0.0280 -1.3041
26604SOL     OW83727   0.510   0.107   5.862 -0.4517  0.5422  0.2937
26604SOL    HW183728   0.420   0.098   5.891 -0.1212 -0.1948  1.1234
26604SOL    HW283729   0.504   0.148   5.776 -1.5350  1.2020  0.6676
26605SOL     OW83730   2.483   1.427   1.658  0.0342 -0.3671  0.2479
26605SOL    HW183731   2.547   1.378   1.606 -0.1358  1.0411 -1.3555
26605SOL    HW283732   2.400   1.417   1.611 -0.4374 -0.2691  1.0451
26606SOL     OW83733   9.496   3.160  10.096  0.2741 -1.0079  0.0163
26606SOL    HW183734   9.449   3.112  10.027  0.8645 -2.1557  0.3806
26606SOL    HW283735   9.437   3.158  10.171 -0.7454  0.9935 -0.6514
26607SOL     OW83736   4.724   6.273   0.137 -0.0312 -0.3025 -0.5146
26607SOL    HW183737   4.682   6.188   0.128  0.6668 -0.5948 -1.1176
26607SOL    HW283738   4.759   6.273   0.227 -1.9737  0.2768  0.3019
26608SOL     OW83739   9.133   8.597   4.915 -0.0857  0.0425 -0.4198
26608SOL    HW183740   9.182   8.661   4.967  0.2351 -0.2506 -0.3644
26608SOL    HW283741   9.192   8.574   4.843 -0.2842 -0.0323 -0.5611
26609SOL     OW83742   9.913   4.014   0.976 -0.5524 -0.2671 -0.4422
26609SOL    HW183743   9.939   4.071   1.048 -0.0753  0.4145 -1.1455
26609SOL    HW283744   9.885   3.933   1.019  1.5191 -0.5871  0.4291
26610SOL     OW83745   5.628   6.855   2.873 -0.0353  0.7876  0.4836
26610SOL    HW183746   5.582   6.791   2.817  1.0285  0.3801  0.0508
26610SOL    HW283747   5.603   6.940   2.837 -0.8257  0.5968  0.5549
26611SOL     OW83748   0.777   6.495   4.010 -0.0149  0.4905 -0.7507
26611SOL    HW183749   0.726   6.537   4.079 -0.7822  1.8111 -2.0707
26611SOL    HW283750   0.867   6.523   4.026  0.0676 -0.4900  0.6098
26612SOL     OW83751   5.021   5.634   4.399  0.0038 -0.7735 -0.1872
26612SOL    HW183752   4.985   5.594   4.478 -1.0029  0.9941  0.3039
26612SOL    HW283753   4.949   5.685   4.363  1.6965  2.1711  0.2987
26613SOL     OW83754   1.267   2.096   5.518 -0.1688  0.2601 -0.1550
26613SOL    HW183755   1.292   2.104   5.610  0.3730 -1.4792 -0.1048
26613SOL    HW283756   1.284   2.182   5.481  0.1724  0.8284  1.2343
26614SOL     OW83757   2.942   7.287   3.877  0.0567 -0.2888  0.4059
26614SOL    HW183758   2.870   7.348   3.865 -0.0417 -0.7281 -1.4877
26614SOL    HW283759   2.914   7.231   3.950 -1.1132  0.1121  0.2847
26615SOL     OW83760   2.452   1.565   8.218 -0.0824  0.6337 -0.7035
26615SOL    HW183761   2.527   1.610   8.255  0.2625 -1.4007  1.2911
26615SOL    HW283762   2.380   1.585   8.279 -0.1030 -0.7701 -0.2277
26616SOL     OW83763   8.343   4.562   9.741 -0.2808 -0.6392  0.1733
26616SOL    HW183764   8.306   4.600   9.662 -0.4866  0.2198  0.6657
26616SOL    HW283765   8.431   4.601   9.747 -0.1633 -0.9095  0.2256
26617SOL     OW83766   4.975   6.119   0.288  0.2069  0.0826 -0.3219
26617SOL    HW183767   4.952   6.201   0.332  0.4065 -1.1230  2.1798
26617SOL    HW283768   4.989   6.144   0.196 -0.3750  2.7059  0.2313
26618SOL     OW83769   9.515   7.484   3.734  0.3054 -0.0069 -0.6104
26618SOL    HW183770   9.558   7.418   3.788 -1.5339 -0.2789  0.6251
26618SOL    HW283771   9.552   7.568   3.762  0.3285 -0.2632  0.1256
26619SOL     OW83772   2.597   5.146   3.672  0.8838  0.0969 -0.2841
26619SOL    HW183773   2.548   5.075   3.714 -0.7265  0.4206 -1.5415
26619SOL    HW283774   2.655   5.103   3.610  0.7923 -0.1905 -0.1688
26620SOL     OW83775   3.866   0.181   1.808 -0.0782  0.5128  0.4006
26620SOL    HW183776   3.891   0.192   1.717 -0.5484 -0.0285  0.2021
26620SOL    HW283777   3.829   0.265   1.834 -2.7558 -0.1933 -0.8086
26621SOL     OW83778   9.765   9.524   9.277  0.0263 -0.4853 -0.8762
26621SOL    HW183779   9.840   9.521   9.336 -0.5566 -0.4255 -0.1144
26621SOL    HW283780   9.689   9.529   9.335 -0.4863  1.6837 -1.6338
26622SOL     OW83781   4.891   6.832   2.837 -0.1660  0.4640 -0.2384
26622SOL    HW183782   4.816   6.773   2.841 -0.3251  0.6025 -1.0113
26622SOL    HW283783   4.954   6.788   2.780  0.7958 -0.1290  1.2080
26623SOL     OW83784   7.607   6.745   4.204  0.1920  0.2392 -0.1971
26623SOL    HW183785   7.659   6.793   4.268  1.4877 -1.8074  0.3819
26623SOL    HW283786   7.668   6.681   4.166 -1.4635 -1.0892 -0.7614
26624SOL     OW83787   6.275   8.571   3.029 -0.4463  0.3700 -0.3167
26624SOL    HW183788   6.244   8.498   3.082 -0.1675  1.4189  1.3636
26624SOL    HW283789   6.196   8.609   2.990 -0.7795  0.2341  0.2210
26625SOL     OW83790   5.374   2.197   2.193  0.2548  0.2197 -0.0632
26625SOL    HW183791   5.376   2.110   2.232 -1.7846 -0.3987 -1.1789
26625SOL    HW283792   5.294   2.238   2.227  0.7969  1.3859 -0.1200
26626SOL     OW83793   7.795   1.776   5.331  0.1133  0.1598  0.4008
26626SOL    HW183794   7.888   1.800   5.333  0.1040  0.1734  0.7450
26626SOL    HW283795   7.761   1.820   5.253  0.1934  0.9310  0.7932
26627SOL     OW83796   4.535   7.016   3.408 -0.1154 -0.3579  0.1051
26627SOL    HW183797   4.465   7.082   3.403 -0.6998 -1.0351 -0.8904
26627SOL    HW283798   4.616   7.067   3.414 -0.4326  0.5088 -2.0520
26628SOL     OW83799   5.648   0.775   7.525  0.2442 -0.0015 -0.1474
26628SOL    HW183800   5.602   0.728   7.455 -0.9681  0.9270  0.0037
26628SOL    HW283801   5.709   0.711   7.561 -0.7698 -1.1985 -0.5046
26629SOL     OW83802   2.529   2.221   4.591 -0.3537 -0.5305 -0.1693
26629SOL    HW183803   2.615   2.262   4.600 -0.3175 -0.8822  1.5187
26629SOL    HW283804   2.528   2.152   4.657 -1.6901 -0.9736 -0.6122
26630SOL     OW83805   7.615   8.451   7.425 -0.7626  0.6592  0.3582
26630SOL    HW183806   7.692   8.429   7.478 -0.4805  1.7431  0.4217
26630SOL    HW283807   7.541   8.429   7.481 -0.4674  1.9990  1.3118
26631SOL     OW83808   8.951   7.671   8.813  0.0361  0.5139 -0.1610
26631SOL    HW183809   8.902   7.662   8.894 -0.5848  0.7445 -0.5019
26631SOL    HW283810   8.988   7.584   8.798  0.8964  0.6927  0.8180
26632SOL     OW83811   1.134   0.114   4.056 -0.0213  0.6741 -0.3538
26632SOL    HW183812   1.054   0.167   4.054  1.1235  2.5253  0.5556
26632SOL    HW283813   1.204   0.174   4.028  1.2783 -0.4615  0.3354
26633SOL     OW83814  10.175   2.535   6.454  1.1116  0.3604  0.2707
26633SOL    HW183815  10.192   2.536   6.548  0.5455  0.1827  0.3779
26633SOL    HW283816  10.146   2.446   6.435  1.5244  0.3031 -0.1325
26634SOL     OW83817   2.032   5.487   4.078 -0.1879  0.2889 -0.3138
26634SOL    HW183818   1.937   5.479   4.066 -0.3125  1.8293 -0.6414
26634SOL    HW283819   2.054   5.570   4.035  1.1368  0.4935  0.7087
26635SOL     OW83820   4.845   7.880   6.531  0.2515  0.1687  0.2892
26635SOL    HW183821   4.793   7.800   6.531  0.9732 -0.3855 -2.0530
26635SOL    HW283822   4.910   7.866   6.601 -1.8121  0.3291  2.3606
26636SOL     OW83823   2.160   2.071   4.273  0.4856  0.8457  0.6959
26636SOL    HW183824   2.235   2.068   4.332  1.4471  3.6049 -0.2231
26636SOL    HW283825   2.106   2.143   4.306  0.3359  1.5264 -0.9179
26637SOL     OW83826   8.763   3.571   3.318  0.0837  0.1134  0.2480
26637SOL    HW183827   8.797   3.607   3.236 -0.0289  0.3956  0.3271
26637SOL    HW283828   8.692   3.630   3.343  1.4577  1.2666  1.6551
26638SOL     OW83829   7.760   9.953   2.304  0.0689 -0.5965  0.0290
26638SOL    HW183830   7.745   9.867   2.264  1.2238 -0.7532 -0.1003
26638SOL    HW283831   7.781   9.933   2.396 -0.8967 -0.3491  0.3211
26639SOL     OW83832   1.014   4.941   2.413  0.2025  0.1090  0.2315
26639SOL    HW183833   1.011   4.860   2.464 -0.9428  0.8440  1.3846
26639SOL    HW283834   0.926   4.977   2.419  0.6155  1.3017 -0.4927
26640SOL     OW83835   7.121   5.163   9.901 -0.0141 -0.1727 -0.0510
26640SOL    HW183836   7.055   5.184   9.836  1.9445 -0.3513 -2.2387
26640SOL    HW283837   7.204   5.189   9.861  1.4809 -2.0419  1.5781
26641SOL     OW83838   8.671   7.154   2.717 -1.0175 -0.0908 -0.6491
26641SOL    HW183839   8.700   7.179   2.630 -2.3482  0.6197 -0.9159
26641SOL    HW283840   8.645   7.237   2.759  0.8077 -0.2395  0.9150
26642SOL     OW83841   6.492   2.316   7.389  0.0505  0.0666 -0.0387
26642SOL    HW183842   6.476   2.288   7.299 -0.7147  0.1374  0.0708
26642SOL    HW283843   6.419   2.280   7.439 -0.1239  0.9578  0.3655
26643SOL     OW83844   1.565   8.067   4.249  0.2035  0.0520 -0.1170
26643SOL    HW183845   1.633   8.115   4.297  1.0673  0.2115 -1.4320
26643SOL    HW283846   1.485   8.118   4.263  0.5021  0.2730  0.8598
26644SOL     OW83847   4.054   5.234   6.211  0.8889  1.0571 -0.1058
26644SOL    HW183848   4.067   5.323   6.179 -0.8104  1.9669  1.5243
26644SOL    HW283849   4.012   5.245   6.296  1.2502 -1.3054  0.4511
26645SOL     OW83850   6.356   7.485   3.631 -0.1056  0.3922 -1.3646
26645SOL    HW183851   6.394   7.422   3.570  1.6150  0.3811 -0.3388
26645SOL    HW283852   6.415   7.560   3.627 -0.1712  0.5362  0.0166
26646SOL     OW83853   0.149   2.019   5.243 -0.5408  0.3424  0.2951
26646SOL    HW183854   0.191   1.950   5.192  0.7902  1.0298  0.4217
26646SOL    HW283855   0.058   2.019   5.214 -0.6353 -1.6257  0.4694
26647SOL     OW83856   4.487   6.374   7.693 -0.2368  0.7515  0.8133
26647SOL    HW183857   4.438   6.292   7.697  0.4345  0.3753  1.5565
26647SOL    HW283858   4.423   6.441   7.721 -0.7209  0.4628  0.4173
26648SOL     OW83859   3.845   6.074   6.185  0.2471  0.4096 -0.2471
26648SOL    HW183860   3.899   6.138   6.231  0.5189 -0.1924  0.2932
26648SOL    HW283861   3.766   6.122   6.161  0.5098  0.9833  0.0138
26649SOL     OW83862   7.651   5.117   8.383 -0.4431  0.4231  0.5322
26649SOL    HW183863   7.651   5.033   8.338 -3.6994  0.3977  0.3330
26649SOL    HW283864   7.678   5.096   8.473 -0.5864 -0.7279  0.3234
26650SOL     OW83865   7.092   3.076   3.088  0.5687  0.2433 -0.3962
26650SOL    HW183866   7.014   3.049   3.040  0.3846 -2.6229  1.3065
26650SOL    HW283867   7.062   3.085   3.179  2.0139  0.0686  0.1147
26651SOL     OW83868   5.506   5.550   0.383  0.8901  0.5464 -0.0848
26651SOL    HW183869   5.442   5.607   0.427 -0.9517 -1.8083  0.5282
26651SOL    HW283870   5.588   5.567   0.429  0.6556  3.1983 -0.4520
26652SOL     OW83871   8.348   2.083   2.282 -0.2421  0.0702  0.1867
26652SOL    HW183872   8.287   2.040   2.222 -0.6484  0.7445  0.1111
26652SOL    HW283873   8.294   2.144   2.332 -0.4354 -2.2651  3.0868
26653SOL     OW83874   2.670   1.076  10.190  0.4363 -0.2894  0.4832
26653SOL    HW183875   2.651   1.156  10.239  0.6134 -0.4636  0.8450
26653SOL    HW283876   2.670   1.007  10.256  1.5909 -0.3983  0.3919
26654SOL     OW83877   5.706   2.489   6.963 -0.6151 -0.2377  0.2203
26654SOL    HW183878   5.790   2.456   6.996 -0.1704 -0.5241 -1.1224
26654SOL    HW283879   5.640   2.439   7.011 -0.0196 -0.1204  1.1818
26655SOL     OW83880  10.143   5.989   3.792  0.0016  0.3654 -0.4591
26655SOL    HW183881  10.050   5.997   3.769 -0.4923 -1.5859  0.6961
26655SOL    HW283882  10.187   5.984   3.707 -0.8733  1.6548 -1.0350
26656SOL     OW83883   5.973   7.952   6.299 -0.1126  0.2299  0.2865
26656SOL    HW183884   6.042   7.886   6.306  0.1416  0.4817  0.2069
26656SOL    HW283885   5.947   7.971   6.389 -0.8244 -0.6338  0.2749
26657SOL     OW83886   4.250   4.171   8.106 -0.2905  0.2658  0.4231
26657SOL    HW183887   4.269   4.159   8.013  0.6237  1.3777  0.4383
26657SOL    HW283888   4.333   4.152   8.150 -0.9285 -1.0878  1.1152
26658SOL     OW83889   0.445   2.908   6.028 -0.6625 -0.5619  0.5426
26658SOL    HW183890   0.487   2.886   5.945 -1.0308 -1.4642  0.5792
26658SOL    HW283891   0.434   2.824   6.072 -0.0222 -0.0492  1.7301
26659SOL     OW83892   3.243   1.710   0.803 -0.4887 -0.2438 -0.1999
26659SOL    HW183893   3.165   1.760   0.781  0.0935  0.4404 -0.7730
26659SOL    HW283894   3.312   1.748   0.748  0.5740  0.1276  1.3329
26660SOL     OW83895   0.591   7.173   9.200 -0.0281  0.4492  0.0020
26660SOL    HW183896   0.638   7.093   9.177  0.0725  0.6520 -0.5148
26660SOL    HW283897   0.657   7.242   9.193 -0.7870  1.0476 -2.6890
26661SOL     OW83898   0.666   5.144   0.542 -0.3848  0.4801 -0.4231
26661SOL    HW183899   0.694   5.184   0.624  0.3802  0.6685 -0.7662
26661SOL    HW283900   0.746   5.107   0.504 -0.6559  0.7148 -1.2573
26662SOL     OW83901   7.250   0.919   3.464 -0.3304  0.1193  0.5212
26662SOL    HW183902   7.182   0.910   3.397  0.2640 -1.6844  0.1034
26662SOL    HW283903   7.205   0.959   3.539 -1.2391  1.2447 -0.5816
26663SOL     OW83904   5.649   5.816   2.034  0.6653 -0.0880 -0.6109
26663SOL    HW183905   5.622   5.811   1.942 -1.2656  1.5743 -0.2063
26663SOL    HW283906   5.664   5.725   2.059 -0.6532 -0.7617 -2.0695
26664SOL     OW83907   0.459   7.962   8.469 -0.0001 -0.0564  0.0639
26664SOL    HW183908   0.371   7.931   8.489 -0.2230  0.1314 -0.6022
26664SOL    HW283909   0.452   8.001   8.382  0.1492  2.3750  1.0670
26665SOL     OW83910   4.876   0.682   6.909 -0.2205  0.0068  0.2699
26665SOL    HW183911   4.950   0.691   6.969 -0.0243  0.5630 -0.0386
26665SOL    HW283912   4.809   0.741   6.945 -0.1560  0.2293  0.0311
26666SOL     OW83913   1.385   0.965   1.516 -0.4501 -0.0722 -0.0311
26666SOL    HW183914   1.397   1.004   1.603 -1.3558  0.4463 -0.1182
26666SOL    HW283915   1.352   0.877   1.533 -3.1467  0.8762  0.2069
26667SOL     OW83916   2.154  10.108   1.186 -0.3334  0.4345  0.2490
26667SOL    HW183917   2.143  10.111   1.091  0.8877  1.4468  0.1081
26667SOL    HW283918   2.194  10.192   1.208  1.0380 -0.4709  1.4326
26668SOL     OW83919   2.171   3.348   1.022  0.2246 -0.3086 -0.1313
26668SOL    HW183920   2.116   3.333   1.100  0.8514  2.8572  1.0562
26668SOL    HW283921   2.125   3.302   0.952 -1.9002 -0.9475  1.5484
26669SOL     OW83922   5.985   4.570   1.826 -0.3052 -0.3265  0.6787
26669SOL    HW183923   5.928   4.494   1.810 -0.1931 -0.2872  0.0727
26669SOL    HW283924   6.016   4.595   1.739  0.2261 -0.0235  0.9551
26670SOL     OW83925   8.174   3.063   1.662 -1.0711  0.2535 -0.3725
26670SOL    HW183926   8.197   3.135   1.603 -0.2414  0.9459  0.7696
26670SOL    HW283927   8.160   3.105   1.747 -1.4684 -0.8329  0.1113
26671SOL     OW83928   9.872   8.832   4.327 -0.1792 -0.1115 -0.8407
26671SOL    HW183929   9.939   8.795   4.270  1.3664  1.0806  0.1333
26671SOL    HW283930   9.859   8.767   4.395  0.6347  0.0069 -0.5641
26672SOL     OW83931   0.434   6.017   0.724 -0.1413  0.3170  0.2077
26672SOL    HW183932   0.490   5.971   0.787 -0.3474  0.1623  0.2780
26672SOL    HW283933   0.367   5.953   0.700  0.8125 -0.1375 -1.3341
26673SOL     OW83934   4.752   5.245   0.204  0.4323 -0.1040 -0.4189
26673SOL    HW183935   4.712   5.164   0.174  0.5908 -0.4977  0.3931
26673SOL    HW283936   4.681   5.292   0.248  0.4536 -0.0183 -0.4757
26674SOL     OW83937   1.420   3.638   1.994  0.0554 -0.1289 -0.6302
26674SOL    HW183938   1.488   3.581   1.960  0.2295 -0.4539  0.2460
26674SOL    HW283939   1.440   3.724   1.957  2.2394  0.2828  1.3300
26675SOL     OW83940   4.501   2.111   6.061  0.4363  0.2364 -0.3199
26675SOL    HW183941   4.496   2.194   6.109 -1.3948 -0.1610  0.2368
26675SOL    HW283942   4.448   2.050   6.112 -1.9739 -0.1231 -3.0294
26676SOL     OW83943   8.380   7.242   7.811 -0.0883  0.1515 -0.5763
26676SOL    HW183944   8.329   7.307   7.764 -1.2677  0.7221  1.3597
26676SOL    HW283945   8.323   7.165   7.815 -0.1606  0.2314  0.1746
26677SOL     OW83946   3.249   4.159   4.835  0.2644  0.2535 -0.2852
26677SOL    HW183947   3.214   4.230   4.782  0.6332  0.5952 -0.0812
26677SOL    HW283948   3.235   4.080   4.783  2.0318  0.7602 -1.6089
26678SOL     OW83949   5.335   8.864   0.343 -0.1888  0.4464 -0.3485
26678SOL    HW183950   5.304   8.774   0.357 -0.8134  0.8772  1.2015
26678SOL    HW283951   5.422   8.865   0.384 -0.5168  0.7423  0.3630
26679SOL     OW83952   3.836   5.113   6.012  0.1741  0.5612 -0.5392
26679SOL    HW183953   3.817   5.048   6.079  0.5974 -0.3447 -1.2751
26679SOL    HW283954   3.918   5.154   6.041 -0.5913  1.4549  0.4145
26680SOL     OW83955   7.560   1.210   6.049 -0.1053 -0.2963 -0.2195
26680SOL    HW183956   7.618   1.285   6.057  0.4997 -0.7495 -0.3475
26680SOL    HW283957   7.474   1.248   6.028 -0.0623  0.4319  0.8418
26681SOL     OW83958   1.229   5.691   8.381  0.4671 -0.2040  0.5287
26681SOL    HW183959   1.168   5.619   8.366  2.2782 -1.7414  0.0522
26681SOL    HW283960   1.180   5.755   8.432 -1.3379 -1.6063  0.6330
26682SOL     OW83961   5.951   7.226   3.813 -0.3695  0.4203 -0.0512
26682SOL    HW183962   5.900   7.262   3.885 -0.5498 -0.0531  0.0566
26682SOL    HW283963   6.042   7.241   3.839 -0.4129 -0.4502  0.6453
26683SOL     OW83964  10.173   1.165   7.001  0.3765  0.6560 -0.2214
26683SOL    HW183965  10.153   1.234   7.064  0.0267  1.7603 -1.4905
26683SOL    HW283966  10.266   1.145   7.016 -0.0067 -0.0229  1.4672
26684SOL     OW83967   3.629   0.386   1.019 -0.3955  0.3053  0.2970
26684SOL    HW183968   3.625   0.465   0.965  2.0811 -0.2916 -0.9294
26684SOL    HW283969   3.618   0.314   0.957  0.3969 -0.3512  0.8988
26685SOL     OW83970   3.206   4.629   4.293 -0.2532  0.8050 -0.1700
26685SOL    HW183971   3.143   4.649   4.223 -0.1109  0.2894 -0.4462
26685SOL    HW283972   3.164   4.560   4.344  0.0396  0.5411 -0.2863
26686SOL     OW83973   1.897   9.444   9.457  0.1258  0.0783  0.6211
26686SOL    HW183974   1.924   9.446   9.549  0.6211  0.9198  0.4724
26686SOL    HW283975   1.812   9.487   9.456  0.2179  0.2654  0.6656
26687SOL     OW83976   3.320   1.487   8.987  0.5584 -0.4320  0.1362
26687SOL    HW183977   3.396   1.528   9.028 -0.5028 -0.4084  2.2004
26687SOL    HW283978   3.319   1.398   9.023  1.7193 -1.7770 -2.8067
26688SOL     OW83979   7.160   1.401   1.543  0.3606 -0.2452 -0.1054
26688SOL    HW183980   7.251   1.389   1.516 -0.1103 -1.5764 -1.2248
26688SOL    HW283981   7.165   1.458   1.620  2.2968 -1.7341  0.9772
26689SOL     OW83982   1.084   9.438  10.049  0.5563  0.0346  0.6892
26689SOL    HW183983   1.094   9.430  10.144  0.5535 -0.2366  0.6669
26689SOL    HW283984   1.173   9.428  10.015  0.4455 -0.7166  0.6064
26690SOL     OW83985   5.233   8.817   0.837  0.5490  0.1752 -0.1531
26690SOL    HW183986   5.200   8.728   0.834  1.6050 -0.4140  2.4670
26690SOL    HW283987   5.184   8.858   0.909 -1.5198  2.5137 -2.6652
26691SOL     OW83988   0.975   3.791   1.149  0.0715  0.2500  0.2617
26691SOL    HW183989   0.918   3.778   1.225 -0.7595 -0.7147 -0.5036
26691SOL    HW283990   1.048   3.844   1.183 -0.0187 -0.5827  1.8475
26692SOL     OW83991   0.378   0.259   6.814 -0.0925 -0.3833  0.6241
26692SOL    HW183992   0.466   0.273   6.778 -1.3247  2.1298 -1.7625
26692SOL    HW283993   0.328   0.224   6.740 -2.1150  2.4733  0.4961
26693SOL     OW83994   6.615   4.329   1.164  0.2601  0.3428  0.2750
26693SOL    HW183995   6.540   4.283   1.126 -0.0950  0.7438  0.4881
26693SOL    HW283996   6.691   4.288   1.123 -0.1171  0.9050 -1.0486
26694SOL     OW83997   0.394   7.969   9.299  0.7665 -0.1608  0.3727
26694SOL    HW183998   0.383   7.955   9.205  1.4751  0.2743  0.2153
26694SOL    HW283999   0.311   8.007   9.327  1.4328  2.1711 -0.5946
26695SOL     OW84000   3.815   8.412   4.518 -0.1508  0.5381  0.0981
26695SOL    HW184001   3.795   8.388   4.609  0.5511 -0.3330  0.0388
26695SOL    HW284002   3.776   8.342   4.465  1.2036 -0.0869 -0.1288
26696SOL     OW84003   2.012   9.973   0.593 -0.1404 -0.4561 -0.5338
26696SOL    HW184004   2.050  10.036   0.654  0.4341  0.3782 -1.7219
26696SOL    HW284005   1.921   9.962   0.623  0.3869 -0.7990  1.0233
26697SOL     OW84006   8.981   2.404   9.116  0.0775 -0.9358  0.3250
26697SOL    HW184007   9.031   2.335   9.159  1.2398  0.8440  1.9608
26697SOL    HW284008   8.890   2.382   9.133  0.4187 -2.1455  0.6531
26698SOL     OW84009   3.990   7.705  10.131  0.4772 -0.6268 -0.2424
26698SOL    HW184010   4.075   7.720  10.089  1.1855 -1.4124  0.8753
26698SOL    HW284011   4.010   7.690  10.223 -0.6099 -3.2607 -0.3403
26699SOL     OW84012   8.844   8.770   2.619 -0.2231 -0.1180 -0.0401
26699SOL    HW184013   8.903   8.790   2.547 -0.5815  0.1507 -0.2660
26699SOL    HW284014   8.818   8.679   2.604  2.1564 -1.1446  1.5218
26700SOL     OW84015   1.786   7.252   0.885  0.2400 -0.9945  0.4632
26700SOL    HW184016   1.707   7.240   0.832  1.7248 -1.7602 -1.7287
26700SOL    HW284017   1.791   7.347   0.900 -0.8854 -0.9082  0.3291
26701SOL     OW84018   7.730   9.618   6.619  0.0286 -0.1403  0.2695
26701SOL    HW184019   7.641   9.645   6.599  0.9611  1.6473 -1.8542
26701SOL    HW284020   7.776   9.699   6.641  1.7395 -0.5856 -1.3710
26702SOL     OW84021   9.089   0.472   7.827  0.6490 -0.5433 -0.5493
26702SOL    HW184022   9.079   0.390   7.780  0.1869  0.5743 -2.4842
26702SOL    HW284023   9.039   0.536   7.777  1.1752  0.9936  0.7672
26703SOL     OW84024   7.865   7.356   5.485 -0.1434  0.6216 -0.3051
26703SOL    HW184025   7.828   7.268   5.472  1.7457 -0.1094 -1.1778
26703SOL    HW284026   7.796   7.416   5.456 -0.2464 -0.6970 -3.1110
26704SOL     OW84027   9.741   8.113   1.076 -0.3079  0.1257  0.3413
26704SOL    HW184028   9.662   8.061   1.091 -1.7975  1.3022 -2.6645
26704SOL    HW284029   9.732   8.188   1.135 -2.4376  1.1792 -1.2147
26705SOL     OW84030   1.740   5.386   4.302 -0.0025  0.2931 -0.0659
26705SOL    HW184031   1.795   5.323   4.347 -1.5980 -2.5325 -1.8126
26705SOL    HW284032   1.728   5.457   4.365  2.6032 -0.6767  1.6617
26706SOL     OW84033   7.976   7.129   1.231 -0.3695  0.3594 -0.5492
26706SOL    HW184034   7.934   7.215   1.225  0.7201  1.0585  1.3134
26706SOL    HW284035   8.043   7.139   1.298 -0.7595 -2.1761  0.3143
26707SOL     OW84036   8.822   4.558   1.683  0.0280 -0.7100 -0.2328
26707SOL    HW184037   8.843   4.613   1.758 -1.8611  0.3221 -0.4204
26707SOL    HW284038   8.857   4.605   1.608 -0.7920 -0.1915 -0.2990
26708SOL     OW84039   7.081   4.643   1.642 -0.4999 -0.0050 -0.2078
26708SOL    HW184040   7.086   4.726   1.594 -0.4079 -0.7488 -1.5605
26708SOL    HW284041   7.157   4.644   1.700  0.7421  0.0012 -1.7372
26709SOL     OW84042   1.585   0.427   6.581 -0.6369 -0.0469 -0.1731
26709SOL    HW184043   1.511   0.380   6.621  0.5379 -1.2970  0.6147
26709SOL    HW284044   1.610   0.373   6.506 -0.1161  0.0089 -0.0444
26710SOL     OW84045   9.953   7.346   7.106 -0.2447  0.5008 -0.0952
26710SOL    HW184046  10.003   7.411   7.155 -0.6530  0.2759  0.6406
26710SOL    HW284047   9.932   7.389   7.023  0.3964  0.9171 -0.0491
26711SOL     OW84048   8.683   2.371   1.781  0.2476 -0.8619 -0.5339
26711SOL    HW184049   8.700   2.286   1.823 -1.0602 -1.6263 -1.4554
26711SOL    HW284050   8.628   2.349   1.705 -0.4041  0.8558 -0.5974
26712SOL     OW84051   8.453   2.653   4.326  0.2714 -0.0783  0.3844
26712SOL    HW184052   8.400   2.672   4.404  1.0762  0.6083  0.7894
26712SOL    HW284053   8.434   2.724   4.266  1.6053  0.8753  1.0170
26713SOL     OW84054   4.118   9.171  10.129 -0.5280  0.0068 -0.2319
26713SOL    HW184055   4.138   9.149  10.220 -1.8581 -1.2300 -0.1943
26713SOL    HW284056   4.190   9.228  10.102  0.8677 -1.0523  1.0345
26714SOL     OW84057   3.534   5.817   9.026 -0.0337  0.2693  0.4165
26714SOL    HW184058   3.524   5.905   9.063 -0.5626 -0.1936  1.4404
26714SOL    HW284059   3.449   5.775   9.042  0.0435 -0.2603 -0.5199
26715SOL     OW84060   5.258   1.787   6.252  0.0205 -0.5199 -0.1102
26715SOL    HW184061   5.258   1.870   6.204 -1.9733 -0.2001  0.3676
26715SOL    HW284062   5.176   1.744   6.226 -0.9330 -0.5371  2.6124
26716SOL     OW84063   0.129   7.465   4.033 -0.1724 -0.0775  0.1049
26716SOL    HW184064   0.095   7.553   4.014 -0.8968 -0.2897  0.3547
26716SOL    HW284065   0.131   7.421   3.949  1.0886  0.4670 -0.1716
26717SOL     OW84066   6.334   9.096   3.142 -0.7886 -0.2152 -0.0974
26717SOL    HW184067   6.327   9.147   3.223 -0.8307 -1.6051  0.8012
26717SOL    HW284068   6.424   9.062   3.144 -0.9896 -0.7555 -0.3229
26718SOL     OW84069   7.765   0.485  10.083 -0.1882 -0.1964 -0.6844
26718SOL    HW184070   7.725   0.461  10.167 -0.0377 -2.3857 -1.1772
26718SOL    HW284071   7.712   0.438  10.018  1.1377 -0.4552 -1.6078
26719SOL     OW84072   6.838   8.884   0.843  0.4199 -0.1827 -0.2296
26719SOL    HW184073   6.764   8.826   0.823 -0.8012  1.4770 -0.7519
26719SOL    HW284074   6.883   8.842   0.916 -0.5871 -1.6308 -0.4023
26720SOL     OW84075   2.549   0.008   8.930  0.5924 -0.2380 -0.1090
26720SOL    HW184076   2.554  -0.059   8.998  0.8273 -1.7198 -1.5323
26720SOL    HW284077   2.473  -0.018   8.877 -0.7085  1.9031  0.5635
26721SOL     OW84078   9.717   0.813   3.195 -0.1910  0.0231 -0.3402
26721SOL    HW184079   9.713   0.718   3.199  3.0385 -0.2046  0.7616
26721SOL    HW284080   9.653   0.843   3.260  1.6573 -1.6362  2.4416
26722SOL     OW84081   4.444   4.180   5.644 -0.1719  0.3449  0.4311
26722SOL    HW184082   4.402   4.109   5.692 -0.5873  0.7306  0.6476
26722SOL    HW284083   4.478   4.139   5.565 -1.5364  0.1254 -0.0821
26723SOL     OW84084   6.321   2.357   5.978 -0.1125  0.1832 -0.2018
26723SOL    HW184085   6.305   2.286   6.040 -1.0558  0.3483 -0.2436
26723SOL    HW284086   6.262   2.339   5.904  1.3440 -0.2815 -1.2927
26724SOL     OW84087   0.615   9.021   9.071  0.2039  0.1453 -0.6105
26724SOL    HW184088   0.570   8.944   9.104 -0.7231  0.2949 -1.4767
26724SOL    HW284089   0.567   9.095   9.109 -0.5666  0.3106 -1.8742
26725SOL     OW84090   7.317   3.799   5.670 -0.1384 -0.4741  0.1333
26725SOL    HW184091   7.324   3.830   5.579  0.5810  0.2054  0.4064
26725SOL    HW284092   7.346   3.874   5.722  2.6897 -1.8799  0.7953
26726SOL     OW84093   6.331   7.947   9.821  0.7409 -0.0944 -0.6115
26726SOL    HW184094   6.310   7.864   9.778  0.0795  1.0262 -2.5791
26726SOL    HW284095   6.274   7.949   9.898 -0.1020 -0.9310 -1.1922
26727SOL     OW84096   9.704   0.620   3.670  0.3687  0.0072  0.1714
26727SOL    HW184097   9.690   0.597   3.578 -0.9236 -3.2504  1.0372
26727SOL    HW284098   9.741   0.708   3.667 -1.0244  0.6615 -3.3730
26728SOL     OW84099   7.869   3.644   0.373  0.5663  0.1500 -0.0990
26728SOL    HW184100   7.938   3.584   0.346  0.3818 -1.4107  2.5021
26728SOL    HW284101   7.793   3.588   0.390 -0.5927  1.5217 -0.5151
26729SOL     OW84102   5.116   8.655   9.013 -0.0301  0.2941  0.0668
26729SOL    HW184103   5.160   8.598   8.951 -0.0897  0.8323 -0.4807
26729SOL    HW284104   5.127   8.612   9.097  1.7787  0.5460  0.0029
26730SOL     OW84105   5.663   6.686   4.698  0.5996 -0.0870  0.0117
26730SOL    HW184106   5.675   6.611   4.640 -1.4137  0.2494 -0.9055
26730SOL    HW284107   5.706   6.759   4.653  1.2654 -0.3483  0.2035
26731SOL     OW84108   5.900   4.546   3.244 -0.2080  0.3018  0.2822
26731SOL    HW184109   5.816   4.572   3.283 -1.6313  1.1785 -3.0587
26731SOL    HW284110   5.949   4.628   3.238 -0.5517  0.4321 -0.9303
26732SOL     OW84111   6.347   3.409   6.497  0.1610 -0.0921  0.3359
26732SOL    HW184112   6.439   3.387   6.509 -0.1790 -2.0958 -0.4182
26732SOL    HW284113   6.315   3.431   6.585  1.1647 -0.0655  0.7059
26733SOL     OW84114   3.734   4.566   7.498  0.1769 -0.3157  0.2387
26733SOL    HW184115   3.745   4.622   7.421  0.0478  1.6727  1.5831
26733SOL    HW284116   3.689   4.488   7.465 -0.9102  0.9676 -1.5098
26734SOL     OW84117   5.981   9.567   6.378 -0.7593 -0.3321  0.0956
26734SOL    HW184118   6.010   9.555   6.469  2.8749  0.1383 -0.8367
26734SOL    HW284119   5.946   9.656   6.376 -0.5758 -0.2285  0.9683
26735SOL     OW84120   1.487   9.979   5.626  0.7057 -0.1525  0.0279
26735SOL    HW184121   1.514   9.948   5.712  2.7000  1.8350  0.2046
26735SOL    HW284122   1.496   9.903   5.569  0.6364 -1.1410  1.3053
26736SOL     OW84123   1.540   7.227   3.722  0.1658  0.3011 -0.1740
26736SOL    HW184124   1.540   7.288   3.796 -0.9324 -0.1750  0.2493
26736SOL    HW284125   1.514   7.143   3.760 -0.8141  0.1348 -1.1483
26737SOL     OW84126   1.332   1.192   8.857 -0.1981 -0.5350 -0.1056
26737SOL    HW184127   1.365   1.111   8.897  1.5055  0.3753  0.3958
26737SOL    HW284128   1.269   1.226   8.921  0.8253 -0.2746  0.7924
26738SOL     OW84129   0.801   1.083   9.207 -0.7591 -0.0296  0.0206
26738SOL    HW184130   0.706   1.071   9.212 -0.7148 -0.4207  0.0003
26738SOL    HW284131   0.815   1.132   9.127 -0.9501  0.1054  0.0671
26739SOL     OW84132   8.937   5.067   8.600  0.1111 -0.5029 -0.3158
26739SOL    HW184133   8.971   5.010   8.531  0.8491 -0.8914  0.3535
26739SOL    HW284134   9.007   5.070   8.665 -1.7188 -2.6472  1.8961
26740SOL     OW84135   4.953   0.450   5.139 -0.4758  0.2294  0.0399
26740SOL    HW184136   4.962   0.541   5.112  0.8552  0.1701  0.1894
26740SOL    HW284137   4.962   0.400   5.058  0.4905  0.1777  0.1648
26741SOL     OW84138   3.456   1.151   5.582 -0.5001 -0.3435 -0.2591
26741SOL    HW184139   3.470   1.244   5.564 -0.4278 -0.2948  0.0390
26741SOL    HW284140   3.497   1.138   5.668 -1.2204 -0.4745  0.0639
26742SOL     OW84141   3.140   5.368   4.994  0.3189 -0.4569 -0.2651
26742SOL    HW184142   3.086   5.368   5.073  0.2400 -0.0917 -0.3177
26742SOL    HW284143   3.202   5.297   5.007  0.2336 -0.4673  0.0784
26743SOL     OW84144   0.151   3.697   6.928  0.2637 -0.3573  0.0482
26743SOL    HW184145   0.178   3.616   6.886 -0.9351  0.2343 -2.0323
26743SOL    HW284146   0.223   3.758   6.910 -0.2347 -0.1115 -1.2243
26744SOL     OW84147   5.379   9.208   4.638 -0.3505 -0.3010  0.0629
26744SOL    HW184148   5.300   9.214   4.692  0.0574 -0.7703  0.7305
26744SOL    HW284149   5.369   9.125   4.591  0.4194 -1.1194  1.2806
26745SOL     OW84150   6.477  10.019   0.820 -0.0522 -0.4296  0.6076
26745SOL    HW184151   6.516  10.055   0.900 -1.1168 -1.0138  1.4216
26745SOL    HW284152   6.496   9.925   0.824  0.7056 -0.3286 -0.3218
26746SOL     OW84153   0.789   8.108   7.425  0.6187 -0.1395 -0.5450
26746SOL    HW184154   0.836   8.165   7.365  0.9584 -1.3195 -1.4292
26746SOL    HW284155   0.722   8.164   7.464  2.3143  1.4139  0.2648
26747SOL     OW84156   9.826   9.009   8.948 -0.1540  0.0287 -0.1081
26747SOL    HW184157   9.859   9.043   9.031  1.0652  0.7221 -0.8480
26747SOL    HW284158   9.750   9.065   8.928 -0.5805 -0.2745  0.6143
26748SOL     OW84159   0.019   9.983   4.856  0.2210 -0.0189  0.0462
26748SOL    HW184160  -0.029  10.037   4.794 -2.0455 -1.5079  0.3792
26748SOL    HW284161   0.032   9.900   4.811  0.1313 -0.5212  0.9166
26749SOL     OW84162   1.223   7.434   2.473 -0.2192  0.5634  0.4895
26749SOL    HW184163   1.180   7.428   2.388 -0.0590 -2.5125  0.5135
26749SOL    HW284164   1.154   7.416   2.537  0.0181  1.0999  0.9104
26750SOL     OW84165   6.228   0.537   6.498  0.3105 -0.2622  0.3751
26750SOL    HW184166   6.233   0.474   6.426 -2.2943 -0.7969  0.5653
26750SOL    HW284167   6.184   0.613   6.460  0.6990  0.2423  0.9160
26751SOL     OW84168   9.080   0.274   3.537  0.2082  0.2448  0.5224
26751SOL    HW184169   9.000   0.320   3.561  0.0068  0.5085 -0.6162
26751SOL    HW284170   9.134   0.277   3.616 -0.5407  0.8395  1.0224
26752SOL     OW84171   7.917   2.573   7.100  0.3538  0.0863 -0.2932
26752SOL    HW184172   7.846   2.602   7.157  0.8069  0.1990  0.2242
26752SOL    HW284173   7.981   2.534   7.160  0.5395 -0.3926 -0.7974
26753SOL     OW84174   8.380   2.675   3.933  0.2312  0.3389  0.6908
26753SOL    HW184175   8.434   2.611   3.977 -0.9437 -0.1797  1.4238
26753SOL    HW284176   8.305   2.625   3.899  0.3663  0.9673 -0.6245
26754SOL     OW84177   0.347   5.611   3.257 -0.5137 -0.2003  0.4102
26754SOL    HW184178   0.341   5.703   3.232 -0.7788 -0.7385 -1.6993
26754SOL    HW284179   0.319   5.563   3.179  2.1097 -2.1510  0.5191
26755SOL     OW84180   7.467   0.566   5.278  0.5613  0.1380  0.0612
26755SOL    HW184181   7.548   0.592   5.234  1.2486 -0.8538  0.6973
26755SOL    HW284182   7.474   0.603   5.366  1.3121 -1.6507  0.8032
26756SOL     OW84183   3.325   0.836   0.470 -0.2493  0.2299  0.1343
26756SOL    HW184184   3.391   0.801   0.410  1.2896  2.1953  0.5777
26756SOL    HW284185   3.251   0.860   0.414  0.1336 -0.3257 -0.6223
26757SOL     OW84186   5.731   4.284   5.561  0.8267  0.1418 -0.4853
26757SOL    HW184187   5.748   4.376   5.543  1.0473  0.0985 -0.4910
26757SOL    HW284188   5.686   4.284   5.646  1.5042  0.1990 -0.1194
26758SOL     OW84189   0.428   9.173   1.685 -0.3922 -0.0083  0.2032
26758SOL    HW184190   0.480   9.208   1.613 -0.6279  1.1804  0.5791
26758SOL    HW284191   0.345   9.220   1.680  0.0944  1.1897  2.0781
26759SOL     OW84192   3.443   6.879   4.434  0.0087  0.0652  0.7235
26759SOL    HW184193   3.535   6.894   4.416  0.2752 -2.1089 -0.0359
26759SOL    HW284194   3.415   6.955   4.486  1.9370  1.2540  0.1170
26760SOL     OW84195  10.195   0.098   0.905 -0.4173  0.4174 -0.3868
26760SOL    HW184196  10.199   0.061   0.817  0.0055 -1.5418  0.3835
26760SOL    HW284197  10.101   0.105   0.924 -0.5360 -1.0967 -0.2821
26761SOL     OW84198   3.817   5.366   1.909  0.7151  0.2741  0.0219
26761SOL    HW184199   3.870   5.443   1.890  0.3438  0.7288  0.7738
26761SOL    HW284200   3.732   5.402   1.936  0.1132 -0.4254 -0.8650
26762SOL     OW84201   7.844   3.652   6.325  0.3572 -0.5546 -0.0079
26762SOL    HW184202   7.831   3.684   6.414 -0.3523 -0.2169 -0.2269
26762SOL    HW284203   7.806   3.564   6.326  0.3457 -0.5494  0.0147
26763SOL     OW84204   2.218   8.307   4.278  0.7396  0.0068  0.0679
26763SOL    HW184205   2.305   8.269   4.277  0.1912 -1.2891  0.3006
26763SOL    HW284206   2.172   8.262   4.349  0.0017  0.9637  0.2233
26764SOL     OW84207   5.303   5.122   8.415 -0.1161 -0.0949 -0.0587
26764SOL    HW184208   5.386   5.081   8.389 -1.0155 -0.5633 -2.3880
26764SOL    HW284209   5.318   5.150   8.505  3.4838  2.1521 -1.1438
26765SOL     OW84210   0.550   7.922   0.032 -0.1911 -0.7388 -0.3876
26765SOL    HW184211   0.584   7.907  -0.056 -0.8708 -1.6352 -0.5100
26765SOL    HW284212   0.535   7.834   0.067 -1.2003 -0.3726  0.1262
26766SOL     OW84213   9.351   0.561   3.052 -0.0468  0.5104  0.0096
26766SOL    HW184214   9.400   0.578   3.133  3.1423 -1.6191 -1.2794
26766SOL    HW284215   9.395   0.614   2.985 -1.2157  0.5320 -0.7781
26767SOL     OW84216   4.827   3.286   3.633 -0.4842  0.0866 -0.2746
26767SOL    HW184217   4.894   3.315   3.570  0.6702 -0.9035  0.4524
26767SOL    HW284218   4.786   3.367   3.664 -0.0566  0.6757 -1.2003
26768SOL     OW84219   0.165   4.486   0.988 -0.3072  0.2564  0.5441
26768SOL    HW184220   0.251   4.461   0.955 -0.9547  0.0586 -1.0823
26768SOL    HW284221   0.145   4.569   0.943 -2.6743 -1.7030 -2.4367
26769SOL     OW84222   4.408   1.325   6.406 -0.1765 -0.6021 -0.3061
26769SOL    HW184223   4.321   1.350   6.375 -0.0494 -1.7830 -1.7961
26769SOL    HW284224   4.420   1.236   6.371  1.6770 -0.3995 -0.2531
26770SOL     OW84225   5.564   5.277   3.258  0.5715  0.0296  0.5544
26770SOL    HW184226   5.546   5.185   3.277  3.2581 -0.3045  1.9638
26770SOL    HW284227   5.660   5.282   3.250  0.7038  2.9772  2.4057
26771SOL     OW84228   3.208   4.045   8.098  0.0571  0.4544  0.4887
26771SOL    HW184229   3.182   3.996   8.020  1.4737 -0.6968  0.6898
26771SOL    HW284230   3.251   4.123   8.064 -3.2618  2.3114  0.1524
26772SOL     OW84231   7.801   9.990   9.291  0.1916  0.2779  0.5437
26772SOL    HW184232   7.709  10.006   9.272  0.0741  0.2646  1.0933
26772SOL    HW284233   7.843  10.075   9.281  0.5284 -0.0833 -1.8749
26773SOL     OW84234   5.444   1.538   9.357  0.2208  0.1016  0.2724
26773SOL    HW184235   5.364   1.512   9.311  0.6580 -0.6401 -0.0827
26773SOL    HW284236   5.445   1.485   9.436 -0.1216  0.8032  0.7521
26774SOL     OW84237   6.155   7.069   8.662 -0.4877  0.0786 -0.6142
26774SOL    HW184238   6.069   7.090   8.698  0.1814  0.9353  0.5537
26774SOL    HW284239   6.174   7.142   8.602 -0.1955  0.3625 -0.1801
26775SOL     OW84240   8.042   2.619   1.375 -0.1375 -0.0566 -0.6661
26775SOL    HW184241   8.110   2.683   1.392  0.4294 -1.1986  1.7807
26775SOL    HW284242   8.020   2.631   1.282  1.7690  1.8479 -0.9393
26776SOL     OW84243   7.351   7.434   7.107  0.3906 -0.0652  0.0600
26776SOL    HW184244   7.335   7.340   7.113  1.1249 -0.2418 -0.5909
26776SOL    HW284245   7.299   7.472   7.178  1.0611 -1.0761  1.1160
26777SOL     OW84246   1.959   1.482   7.567  0.0362 -0.3243 -0.1117
26777SOL    HW184247   1.892   1.534   7.610  0.5995  1.7995 -1.6244
26777SOL    HW284248   1.931   1.391   7.578 -2.7694  0.4511 -0.2119
26778SOL     OW84249   8.732   8.638   2.065  0.0367  0.5455  0.0831
26778SOL    HW184250   8.659   8.691   2.032 -1.2529  0.0381  1.9276
26778SOL    HW284251   8.701   8.548   2.058  0.8402  0.2590  0.1236
26779SOL     OW84252  10.102   6.933   3.987 -0.7565  0.2049  0.2733
26779SOL    HW184253  10.166   6.999   3.963 -0.5996  0.8166  2.1848
26779SOL    HW284254  10.025   6.982   4.015 -1.8224 -0.5114 -1.2791
26780SOL     OW84255   3.396   4.231   2.947  0.3000 -0.1219 -0.2347
26780SOL    HW184256   3.336   4.234   3.021  0.4940  1.1175 -0.1152
26780SOL    HW284257   3.342   4.198   2.875 -0.2616  0.0280  0.1112
26781SOL     OW84258   5.631   9.697   3.292  0.7243 -0.2403  0.1587
26781SOL    HW184259   5.574   9.716   3.366  0.4845 -1.1416  0.2150
26781SOL    HW284260   5.657   9.606   3.303  0.9220 -0.3061 -0.7111
26782SOL     OW84261   1.017   1.579   2.578  0.3542  0.1556 -0.2191
26782SOL    HW184262   1.084   1.512   2.594 -0.1780 -1.2020 -3.0182
26782SOL    HW284263   0.934   1.532   2.587 -0.1700  1.1887  0.5731
26783SOL     OW84264   8.468   9.810  10.192  0.8494 -0.3812  0.3686
26783SOL    HW184265   8.410   9.768  10.255  0.7654 -0.3229  0.3295
26783SOL    HW284266   8.503   9.737  10.140 -0.4351 -0.2943 -0.6710
26784SOL     OW84267   0.060   5.764   3.313 -0.4364  0.0833  0.2384
26784SOL    HW184268   0.082   5.684   3.360  1.9009  0.1328 -0.6166
26784SOL    HW284269   0.020   5.820   3.379 -1.4807 -1.4971  1.0198
26785SOL     OW84270   0.287   7.008   2.601 -0.1750  0.4514  0.0144
26785SOL    HW184271   0.264   7.036   2.689 -0.0770  1.5768 -0.3040
26785SOL    HW284272   0.240   6.925   2.589 -1.4028  1.0479  0.5813
26786SOL     OW84273   1.292   3.738   9.110 -0.0922  0.2776 -0.2708
26786SOL    HW184274   1.302   3.834   9.112  0.3571  0.2325  1.2595
26786SOL    HW284275   1.263   3.719   9.021  0.7662  1.7458 -0.9128
26787SOL     OW84276   8.422   3.195   4.315  0.0214  0.7773  0.1117
26787SOL    HW184277   8.354   3.143   4.272  0.1417 -0.6005  1.5066
26787SOL    HW284278   8.461   3.135   4.378  1.6881  1.9308  0.2262
26788SOL     OW84279   6.761   8.950   1.709 -0.2571  0.8751  0.4675
26788SOL    HW184280   6.808   9.024   1.749  0.4688  1.0318 -0.6326
26788SOL    HW284281   6.778   8.877   1.768  0.5817  1.1628  0.5963
26789SOL     OW84282  10.099   8.194   3.383  0.4329  0.1419  0.3723
26789SOL    HW184283  10.094   8.233   3.470  0.6084  0.5990  0.1860
26789SOL    HW284284  10.176   8.137   3.386 -1.1823 -2.1385  1.3884
26790SOL     OW84285   6.413   1.869   5.691 -0.5969 -0.5126  0.4827
26790SOL    HW184286   6.462   1.909   5.763 -0.5107 -0.1850  0.2444
26790SOL    HW284287   6.394   1.780   5.721  0.4087 -0.7511  0.4619
26791SOL     OW84288   3.468   9.550   2.485 -0.3487 -0.1353  0.5626
26791SOL    HW184289   3.381   9.563   2.447 -1.6839 -1.3528  2.9900
26791SOL    HW284290   3.482   9.627   2.540 -0.1058 -0.1549  0.5272
26792SOL     OW84291   0.979   8.785   9.008 -0.1177 -0.0268  0.0984
26792SOL    HW184292   1.000   8.827   8.924  2.8664  0.1610  0.8115
26792SOL    HW284293   0.992   8.854   9.073  0.1842 -0.8354  0.9124
26793SOL     OW84294   4.123  10.163   6.549 -0.6064 -0.0526  0.1737
26793SOL    HW184295   4.031  10.136   6.549 -0.6945  0.2182 -0.5526
26793SOL    HW284296   4.137  10.201   6.462  0.0444  0.4327  0.4793
26794SOL     OW84297   2.584   1.038   2.377  0.7203  0.4770  0.1091
26794SOL    HW184298   2.633   0.998   2.448  2.8102  0.3279 -1.3387
26794SOL    HW284299   2.614   1.129   2.376 -1.8914  1.4635  1.5605
26795SOL     OW84300   8.091   2.874   7.250 -0.0733 -1.1539  0.1256
26795SOL    HW184301   8.023   2.870   7.317  0.3529  0.3861  0.6846
26795SOL    HW284302   8.164   2.823   7.286  0.4801  0.3796  1.2612
26796SOL     OW84303   9.710  10.115   6.878 -0.9594  0.2783 -0.4221
26796SOL    HW184304   9.671  10.060   6.946  0.4425 -0.6203 -0.3036
26796SOL    HW284305   9.708  10.203   6.915  0.0047 -0.2272  0.9199
26797SOL     OW84306   0.941   8.660   4.750 -0.2413 -0.0847  0.3098
26797SOL    HW184307   1.014   8.626   4.698 -0.5799 -0.1829 -0.1102
26797SOL    HW284308   0.913   8.738   4.703  0.7675  1.0132  1.4648
26798SOL     OW84309   0.529   0.814   4.926  0.1840 -0.0287  0.1118
26798SOL    HW184310   0.448   0.830   4.878  0.6380  1.7805 -0.1178
26798SOL    HW284311   0.595   0.803   4.858  0.2553 -0.8083  0.3044
26799SOL     OW84312   3.417   2.298  10.062 -0.6868 -0.2554 -0.0876
26799SOL    HW184313   3.502   2.257  10.045  0.3490  2.1170 -1.0488
26799SOL    HW284314   3.413   2.371  10.001 -2.4061  1.1177  1.5425
26800SOL     OW84315   6.599   8.611   7.634 -0.2255  0.4654  0.3616
26800SOL    HW184316   6.515   8.617   7.680 -0.2778  1.5212  0.1676
26800SOL    HW284317   6.617   8.518   7.629 -1.7389  0.1608 -0.1880
26801SOL     OW84318   0.273   4.489   5.897  0.6049  0.4239  0.3993
26801SOL    HW184319   0.255   4.579   5.872 -0.9500  0.4614  1.4942
26801SOL    HW284320   0.256   4.438   5.817  0.7072  1.0087 -0.0015
26802SOL     OW84321   1.195   1.629   6.639 -0.4607 -0.7375 -0.5571
26802SOL    HW184322   1.236   1.544   6.656  1.7263  0.3004 -0.3646
26802SOL    HW284323   1.210   1.679   6.720  0.5757  0.6591 -1.5658
26803SOL     OW84324   0.000   4.646   6.220 -0.5138  0.1765 -0.2842
26803SOL    HW184325   0.063   4.575   6.209 -1.0511 -0.2880 -0.3991
26803SOL    HW284326  -0.021   4.646   6.313 -0.8225 -0.0899 -0.3501
26804SOL     OW84327   4.457   7.273   9.976  0.1846  0.4687  0.1911
26804SOL    HW184328   4.488   7.273   9.886 -0.5091 -0.5503 -0.0681
26804SOL    HW284329   4.377   7.220   9.974 -0.4716  1.3771  1.1959
26805SOL     OW84330   9.890   5.759   5.043  0.4200 -0.1466 -0.3271
26805SOL    HW184331   9.972   5.805   5.061  0.3398 -0.1271 -0.0082
26805SOL    HW284332   9.839   5.822   4.991  0.0922  0.3457  0.5706
26806SOL     OW84333   3.393   6.552   3.304  0.5556  0.1283  0.2050
26806SOL    HW184334   3.396   6.503   3.386 -0.7517  0.3701  0.4156
26806SOL    HW284335   3.301   6.577   3.295  0.7072  0.1788 -1.2971
26807SOL     OW84336   2.520   2.107   3.150 -0.8131  0.6645 -0.8078
26807SOL    HW184337   2.548   2.117   3.059 -0.6168  0.7650 -0.7377
26807SOL    HW284338   2.426   2.091   3.145 -0.5031 -1.2910 -1.1319
26808SOL     OW84339   6.438   3.712   7.159 -0.1081 -0.1199 -0.2648
26808SOL    HW184340   6.381   3.637   7.171 -0.3070 -0.1399 -1.3118
26808SOL    HW284341   6.523   3.674   7.135  0.5470 -0.1226  1.8473
26809SOL     OW84342   0.168   3.189   6.626  0.0985 -0.3008 -0.0586
26809SOL    HW184343   0.110   3.212   6.554 -0.4988 -2.4326 -0.3362
26809SOL    HW284344   0.110   3.152   6.693  0.7590  0.7455  1.1495
26810SOL     OW84345   8.193   5.904   7.613 -0.2972 -0.1636  0.2251
26810SOL    HW184346   8.231   5.950   7.538  0.3219  0.4845  0.9187
26810SOL    HW284347   8.226   5.815   7.606  0.4355  0.1069  0.1822
26811SOL     OW84348   2.408   3.215   8.938 -0.4773  0.5629  0.2542
26811SOL    HW184349   2.468   3.289   8.933 -0.2365  0.4028  0.7613
26811SOL    HW284350   2.350   3.236   9.012  0.7705 -0.6126  1.6264
26812SOL     OW84351   2.901   7.351   9.807  0.1820  0.2311 -0.8175
26812SOL    HW184352   2.900   7.305   9.891  2.9767  2.2118  0.4406
26812SOL    HW284353   2.955   7.296   9.750 -1.1675 -0.7736 -1.2010
26813SOL     OW84354   6.471   3.252   3.923  0.7702 -0.2174 -0.0778
26813SOL    HW184355   6.455   3.239   3.830  0.6676 -0.7557  0.0142
26813SOL    HW284356   6.397   3.305   3.953  0.9856  0.2582 -0.3696
26814SOL     OW84357   4.341   7.565   9.785  0.1655  0.3863  0.1150
26814SOL    HW184358   4.313   7.657   9.792  0.0763  0.3634  0.0521
26814SOL    HW284359   4.268   7.520   9.744 -0.4479 -0.0308  1.6023
26815SOL     OW84360   7.978   0.696   0.914 -0.5291  0.6151  0.5402
26815SOL    HW184361   8.064   0.713   0.875  0.3643  1.0717  2.5736
26815SOL    HW284362   7.997   0.665   1.002 -2.4391 -0.8791  0.5054
26816SOL     OW84363   2.119   1.375   5.007  0.0484 -0.0480  0.1195
26816SOL    HW184364   2.169   1.414   4.935 -0.4387  1.0236  0.3377
26816SOL    HW284365   2.040   1.428   5.012 -0.8753 -1.3922  0.1331
26817SOL     OW84366   4.569   3.254   4.781  0.1896 -0.2913  0.0739
26817SOL    HW184367   4.508   3.304   4.835  2.0486 -0.1073  2.1425
26817SOL    HW284368   4.513   3.195   4.731 -1.9491  2.5593 -1.1798
26818SOL     OW84369   6.819   0.390   4.478  0.0757 -0.1305  0.1914
26818SOL    HW184370   6.879   0.341   4.422 -0.5198  0.0649 -0.6294
26818SOL    HW284371   6.733   0.379   4.438 -0.3988 -0.1453  1.1813
26819SOL     OW84372   8.208   0.740   0.773 -0.0466  0.0715  0.5954
26819SOL    HW184373   8.206   0.792   0.693  0.3355 -0.9169 -0.0787
26819SOL    HW284374   8.299   0.709   0.779  0.4925  1.7991  2.5324
26820SOL     OW84375   8.475   1.485   9.055  0.0113  0.0170  0.1190
26820SOL    HW184376   8.401   1.536   9.021  0.1584 -0.9559 -1.7932
26820SOL    HW284377   8.449   1.393   9.042  0.5800 -0.3861  1.6305
26821SOL     OW84378   5.713   0.871   3.776  0.3371  0.0390  0.2893
26821SOL    HW184379   5.792   0.923   3.758  0.4573 -0.0793  0.4768
26821SOL    HW284380   5.677   0.852   3.689  0.9944 -0.6527  0.1599
26822SOL     OW84381   8.650   9.240   3.420 -0.0509 -0.3336 -0.6087
26822SOL    HW184382   8.587   9.171   3.402  0.7152 -1.4781  0.8113
26822SOL    HW284383   8.681   9.268   3.334 -1.5695 -0.5897 -1.2678
26823SOL     OW84384   1.558   3.424   4.481 -0.6097  0.6513 -0.2204
26823SOL    HW184385   1.514   3.498   4.523 -0.8673  0.1467  0.4080
26823SOL    HW284386   1.650   3.449   4.478 -0.5566  0.6113  0.8303
26824SOL     OW84387   4.475   9.699   4.862 -0.3620 -0.0632  0.2830
26824SOL    HW184388   4.475   9.724   4.770  0.0109  0.6374  0.4677
26824SOL    HW284389   4.560   9.726   4.895  0.2002 -1.8582  0.4414
26825SOL     OW84390   0.728   1.970   6.220 -0.0832  0.0504  0.5743
26825SOL    HW184391   0.796   2.025   6.258  1.1772 -0.7809 -0.3545
26825SOL    HW284392   0.679   1.935   6.295  1.0781 -0.0091  1.3307
26826SOL     OW84393   2.083   1.786   4.783 -0.1176  0.3909 -0.1398
26826SOL    HW184394   2.056   1.708   4.735 -0.2787 -0.2169  0.9046
26826SOL    HW284395   2.008   1.846   4.774 -0.5613 -0.1072  0.1964
26827SOL     OW84396   3.161   1.655   7.334 -0.2318  0.2713  0.4873
26827SOL    HW184397   3.225   1.601   7.381  0.1512  1.3163  1.2109
26827SOL    HW284398   3.167   1.627   7.243 -2.1588 -2.9832  1.2141
26828SOL     OW84399   7.128   4.881   1.399 -0.0449  0.0195 -0.3113
26828SOL    HW184400   7.086   4.918   1.477  0.3179 -0.7820  0.2772
26828SOL    HW284401   7.091   4.931   1.326 -1.8465 -0.4823  0.1963
26829SOL     OW84402   7.113   7.254   9.019 -1.1010 -0.5980  0.2352
26829SOL    HW184403   7.145   7.321   9.079  0.2034 -0.5420 -0.4883
26829SOL    HW284404   7.165   7.266   8.940 -1.7444 -1.6414 -0.3684
26830SOL     OW84405   6.796   2.286   0.191 -0.6355 -0.4671 -0.1552
26830SOL    HW184406   6.839   2.201   0.196  2.5327  0.9016 -1.3312
26830SOL    HW284407   6.818   2.319   0.104 -2.4684  1.2213 -0.0401
26831SOL     OW84408   4.165   8.373   3.728 -0.0017  0.6557  0.1405
26831SOL    HW184409   4.197   8.385   3.817 -0.9041  0.8030  0.4531
26831SOL    HW284410   4.092   8.433   3.720 -0.3525  0.1588 -0.4778
26832SOL     OW84411   4.110   0.475   2.832  0.0862 -0.1896  0.3371
26832SOL    HW184412   4.032   0.425   2.854  0.1608  0.0651  1.2043
26832SOL    HW284413   4.180   0.410   2.830 -0.3438 -0.6859 -1.9069
26833SOL     OW84414   2.163   1.075   4.611 -0.5162 -0.2398 -0.0211
26833SOL    HW184415   2.095   1.138   4.586 -0.0423  0.2413 -0.1017
26833SOL    HW284416   2.203   1.049   4.529  1.3599  1.7012  0.1957
26834SOL     OW84417   1.347   1.069   0.395 -0.4134  0.2053 -0.1272
26834SOL    HW184418   1.385   1.002   0.338 -0.4103  1.4170 -1.6135
26834SOL    HW284419   1.256   1.077   0.365 -0.3822  0.9221 -0.0539
26835SOL     OW84420   3.223   1.272   8.089  0.5247 -0.1553 -0.4143
26835SOL    HW184421   3.151   1.333   8.107  0.6069  0.2949 -1.5773
26835SOL    HW284422   3.198   1.228   8.008  0.6706 -1.3804  0.1813
26836SOL     OW84423   8.267   2.208   5.612 -0.4784  0.0709 -0.3346
26836SOL    HW184424   8.361   2.193   5.602 -0.7125 -1.7167 -0.1525
26836SOL    HW284425   8.237   2.140   5.671 -1.9902  0.3034 -0.7640
26837SOL     OW84426   6.818   1.801   9.761  0.4107  0.1794  0.1921
26837SOL    HW184427   6.772   1.867   9.813  0.1060  0.4177 -0.3709
26837SOL    HW284428   6.909   1.806   9.790  0.3394  0.6646  0.3371
26838SOL     OW84429   1.198   9.629   3.288  0.2896 -0.4973  0.4271
26838SOL    HW184430   1.233   9.560   3.233 -0.2491 -0.4760  0.0482
26838SOL    HW284431   1.103   9.620   3.279  0.2171  0.6233 -0.0449
26839SOL     OW84432   1.426   4.380   1.109  0.0210 -0.0699  0.4823
26839SOL    HW184433   1.430   4.305   1.168 -1.7966  0.3732  1.2398
26839SOL    HW284434   1.491   4.441   1.143 -0.3042 -0.2408  1.4386
26840SOL     OW84435   2.238   2.933   1.188  0.3845 -0.3031 -0.0117
26840SOL    HW184436   2.243   3.028   1.194  2.3697 -0.2696 -1.1842
26840SOL    HW284437   2.250   2.914   1.095 -3.0225 -1.6242 -0.2929
26841SOL     OW84438   2.511   5.969   9.947 -0.1340 -0.4680  0.2896
26841SOL    HW184439   2.449   5.950  10.018  2.9147 -0.0148  3.3218
26841SOL    HW284440   2.505   6.064   9.935 -1.1682 -0.6263 -0.7079
26842SOL     OW84441   2.849   1.263   6.841  0.5494  0.1553 -0.0938
26842SOL    HW184442   2.901   1.182   6.843 -2.1864 -1.7475  0.2007
26842SOL    HW284443   2.821   1.271   6.750 -1.9738 -1.2650  0.4713
26843SOL     OW84444   8.679   3.214   7.639 -0.0790 -0.0120 -0.2226
26843SOL    HW184445   8.711   3.305   7.638 -1.9120  0.6707 -1.2452
26843SOL    HW284446   8.584   3.222   7.635 -0.3412 -1.9951  0.9575
26844SOL     OW84447   9.658   4.868   6.590 -0.0376 -0.4680 -0.3219
26844SOL    HW184448   9.631   4.943   6.536  0.6123  0.0234  0.0285
26844SOL    HW284449   9.752   4.860   6.574  0.1956 -0.1964  0.8919
26845SOL     OW84450   0.741   5.844   8.168 -0.4345  0.0904 -0.2670
26845SOL    HW184451   0.740   5.840   8.072 -2.1118 -0.3807 -0.2609
26845SOL    HW284452   0.749   5.753   8.195 -2.5580 -0.0769 -0.0099
26846SOL     OW84453   4.337   4.855  10.161  0.4582  0.8285 -0.0624
26846SOL    HW184454   4.292   4.784  10.114  0.0361  1.0602 -0.0149
26846SOL    HW284455   4.299   4.853  10.249  1.3099  0.3357  0.3105
26847SOL     OW84456   9.041   7.033   6.162 -0.2047 -0.0134  0.1737
26847SOL    HW184457   9.029   7.127   6.145  2.2975  0.5332  0.9920
26847SOL    HW284458   9.112   7.007   6.104  0.8534 -0.7619  1.7455
26848SOL     OW84459   8.515   0.745   0.531 -0.4027  0.1930 -0.1778
26848SOL    HW184460   8.501   0.735   0.626  0.4701  1.8485  0.1571
26848SOL    HW284461   8.445   0.693   0.492  0.3461 -2.1245  1.3406
26849SOL     OW84462  10.178   5.247   5.918 -0.0249 -0.3148 -0.0368
26849SOL    HW184463  10.216   5.161   5.904 -3.4215 -2.1492  0.8465
26849SOL    HW284464  10.178   5.259   6.013 -0.2785  0.2852 -0.1046
26850SOL     OW84465   1.569   2.401   2.817 -0.1965 -0.3556  0.0293
26850SOL    HW184466   1.605   2.490   2.821 -2.8683  0.8761 -1.0579
26850SOL    HW284467   1.532   2.386   2.904 -0.1543 -0.2261  0.0694
26851SOL     OW84468   5.837   4.837   7.719  0.3952  0.2259 -0.2332
26851SOL    HW184469   5.807   4.755   7.680  1.2854 -0.3485  0.2577
26851SOL    HW284470   5.871   4.812   7.805 -0.0835  1.2378  0.2584
26852SOL     OW84471   0.052   4.080   2.012  0.6170 -0.4357  0.1440
26852SOL    HW184472   0.105   4.038   2.079 -0.9783 -1.5220  0.7943
26852SOL    HW284473   0.115   4.110   1.946  1.9206 -3.0128  0.1156
26853SOL     OW84474   0.385   0.873   4.544 -0.2449 -0.7174 -0.0968
26853SOL    HW184475   0.331   0.951   4.530 -0.1993 -0.5668  0.5479
26853SOL    HW284476   0.471   0.897   4.510 -0.4591 -0.7998 -0.7102
26854SOL     OW84477   1.937   5.155   2.892  0.4922 -0.3114  0.2567
26854SOL    HW184478   1.842   5.165   2.887  0.5207  0.1668  0.5405
26854SOL    HW284479   1.955   5.142   2.985  0.7456  0.1060  0.2701
26855SOL     OW84480   7.877   8.907   4.948 -0.0751 -0.1087  0.2045
26855SOL    HW184481   7.797   8.862   4.922  0.3714 -1.8473  1.6641
26855SOL    HW284482   7.934   8.901   4.870 -0.6736 -0.4662 -0.2107
26856SOL     OW84483   9.562   6.294   6.088 -0.3034 -0.4577  0.1299
26856SOL    HW184484   9.519   6.295   6.003 -1.8452 -2.0432  0.8189
26856SOL    HW284485   9.550   6.383   6.123 -1.2763 -0.3245 -0.5356
26857SOL     OW84486   2.732   8.327   3.112 -0.4582 -0.7058  0.0180
26857SOL    HW184487   2.788   8.253   3.134  1.8992  1.4212  1.8769
26857SOL    HW284488   2.736   8.334   3.017  1.0718 -1.6444 -0.0070
26858SOL     OW84489   8.168   0.223   6.745 -0.0353 -0.3807 -0.2609
26858SOL    HW184490   8.171   0.127   6.747  2.6053 -0.3602  0.3187
26858SOL    HW284491   8.076   0.244   6.729 -0.6434 -3.0032 -0.6135
26859SOL     OW84492   6.490   1.029   7.223  0.2589 -0.2476 -0.2793
26859SOL    HW184493   6.544   0.969   7.275  0.4870 -0.9622 -1.3060
26859SOL    HW284494   6.553   1.089   7.183  0.5252 -1.8781 -2.5283
26860SOL     OW84495   5.557   1.145   2.002 -0.1876 -0.5359  0.3225
26860SOL    HW184496   5.611   1.097   1.939 -1.6391 -0.4514 -1.0539
26860SOL    HW284497   5.612   1.152   2.080  1.7891 -0.4197 -1.0010
26861SOL     OW84498   0.463   5.995   5.245  0.2582  0.5022 -0.1206
26861SOL    HW184499   0.432   5.908   5.272 -0.9773  0.9029 -0.1662
26861SOL    HW284500   0.557   5.994   5.261  0.2968 -0.9247 -0.3438
26862SOL     OW84501   5.381   3.343   0.770 -0.1629 -0.7388 -0.4706
26862SOL    HW184502   5.437   3.418   0.755  0.4589 -0.4874  2.4060
26862SOL    HW284503   5.294   3.372   0.743  0.4575  0.1564 -1.5789
26863SOL     OW84504   2.630   1.876  10.200  0.3537  0.2747  0.5289
26863SOL    HW184505   2.697   1.865  10.267  0.1721 -0.6373  0.5816
26863SOL    HW284506   2.548   1.850  10.244  0.3702 -1.3337 -0.2968
26864SOL     OW84507   1.596   4.499   7.970  0.2609  0.6425 -0.2890
26864SOL    HW184508   1.519   4.542   8.008  0.3886 -0.9628  1.9644
26864SOL    HW284509   1.669   4.556   7.994  0.1347  0.5103  0.4276
26865SOL     OW84510   7.553   1.534   0.324  0.0069 -0.3453  0.1059
26865SOL    HW184511   7.619   1.571   0.383 -0.8651 -1.1949  1.6770
26865SOL    HW284512   7.474   1.529   0.377 -0.9207 -0.7981 -1.2722
26866SOL     OW84513   4.802   8.520   7.242 -0.0516 -0.0212 -0.4506
26866SOL    HW184514   4.750   8.600   7.250  0.2726  0.3695 -1.9646
26866SOL    HW284515   4.749   8.463   7.186  1.5555  0.8230 -2.9936
26867SOL     OW84516   8.552   2.255   3.860 -0.7027  0.5625 -0.4451
26867SOL    HW184517   8.620   2.223   3.800 -0.5179 -0.4484  0.2896
26867SOL    HW284518   8.517   2.333   3.816  1.1676  1.3192 -0.6642
26868SOL     OW84519   5.592   2.440   7.835  0.2939 -0.1141  0.0153
26868SOL    HW184520   5.569   2.354   7.800 -1.8427  0.6535 -0.5845
26868SOL    HW284521   5.646   2.480   7.767  0.4790 -0.5988 -0.1257
26869SOL     OW84522   6.953   7.428   8.832 -0.1598  0.0221 -0.0300
26869SOL    HW184523   6.897   7.353   8.852  1.3171 -0.8036  1.2902
26869SOL    HW284524   6.973   7.419   8.739 -0.1039 -1.1767  0.0784
26870SOL     OW84525   5.691   2.511   0.116  0.0149  0.0443 -0.1149
26870SOL    HW184526   5.664   2.585   0.062 -0.2126  0.8731  1.0931
26870SOL    HW284527   5.618   2.450   0.111 -0.1546  0.2668 -0.4507
26871SOL     OW84528   3.619   8.658   6.820 -0.2050  0.0356 -0.1116
26871SOL    HW184529   3.581   8.746   6.813  0.8994  0.6174  0.9552
26871SOL    HW284530   3.697   8.661   6.765 -0.5222 -0.4948 -0.6007
26872SOL     OW84531   9.355   2.278   9.069  0.3967 -0.7962 -0.7934
26872SOL    HW184532   9.282   2.225   9.102 -0.8810  0.8003 -0.9399
26872SOL    HW284533   9.324   2.314   8.986  1.1885  0.2338 -0.6720
26873SOL     OW84534   4.320   3.636   3.662  0.5061  0.9111 -0.1072
26873SOL    HW184535   4.337   3.552   3.704  0.1308  0.6344 -0.4962
26873SOL    HW284536   4.339   3.621   3.570  0.2840  1.2077 -0.2028
26874SOL     OW84537   2.921   5.881   9.529  0.1714 -0.0182  0.6919
26874SOL    HW184538   2.948   5.948   9.591  0.7244 -0.1018  0.5427
26874SOL    HW284539   2.914   5.926   9.445 -0.1697  0.0048  0.7286
26875SOL     OW84540   1.634   2.212   7.546 -0.0153  0.9251  0.5158
26875SOL    HW184541   1.552   2.226   7.499 -1.2043  1.6439  2.6738
26875SOL    HW284542   1.685   2.155   7.488 -1.6664  1.1471 -1.2718
26876SOL     OW84543   9.051   0.165   4.507  0.6872  0.1136  0.4006
26876SOL    HW184544   9.009   0.250   4.519 -0.3223  0.0773 -2.2731
26876SOL    HW284545   8.980   0.101   4.518  1.2275 -0.3644  1.3210
26877SOL     OW84546   0.689  10.053   8.101 -0.1661  0.8339  0.0826
26877SOL    HW184547   0.743  10.077   8.176  1.6922  0.2385 -1.0168
26877SOL    HW284548   0.732  10.094   8.026 -0.9680 -0.0679 -0.8944
26878SOL     OW84549   3.152   3.195   2.316  0.4039 -0.2152  0.4047
26878SOL    HW184550   3.202   3.276   2.310  0.3862 -0.3087 -3.6269
26878SOL    HW284551   3.066   3.222   2.348  1.1978  0.8707  1.7293
26879SOL     OW84552  10.148   7.968   3.968  0.1086 -0.2125 -0.3947
26879SOL    HW184553  10.080   8.018   4.014 -0.4943 -0.6967 -0.7360
26879SOL    HW284554  10.225   8.025   3.969  0.0594 -0.1278  1.0276
26880SOL     OW84555   5.668   7.650   7.107  0.1687  0.1107 -0.5483
26880SOL    HW184556   5.636   7.687   7.025  1.3664 -1.1324 -1.6517
26880SOL    HW284557   5.763   7.660   7.102  0.2891 -0.3460  0.5058
26881SOL     OW84558   4.926   6.618   6.198 -0.3419  0.2150 -0.0296
26881SOL    HW184559   4.954   6.527   6.204  0.7091  0.5914  1.0402
26881SOL    HW284560   4.967   6.661   6.272 -0.4103  1.6764 -0.8029
26882SOL     OW84561   9.725   0.910   6.804  0.5582  0.6401  0.0394
26882SOL    HW184562   9.776   0.928   6.883 -0.2498  0.7349  0.5530
26882SOL    HW284563   9.790   0.891   6.737  1.2533  0.0483  0.8529
26883SOL     OW84564   6.862   0.510   1.962 -0.0788 -0.0854 -0.4573
26883SOL    HW184565   6.771   0.529   1.986 -0.2889 -2.4105  0.9005
26883SOL    HW284566   6.904   0.486   2.045  1.2904 -0.8248 -1.3267
26884SOL     OW84567   3.837   9.017   9.748  0.2901  0.0101  0.4416
26884SOL    HW184568   3.801   9.077   9.683  0.2369 -0.6190 -0.1167
26884SOL    HW284569   3.895   9.072   9.801 -1.5526  1.0875  1.4552
26885SOL     OW84570   5.203   3.198   4.432  0.5637  0.2559  0.0125
26885SOL    HW184571   5.180   3.202   4.339  1.3801  2.0338 -0.1415
26885SOL    HW284572   5.120   3.184   4.477 -0.1496  1.5446 -0.8541
26886SOL     OW84573   1.498   8.804   2.040  0.0856 -0.4136  0.4468
26886SOL    HW184574   1.568   8.826   1.979 -0.5096  1.5639  0.3989
26886SOL    HW284575   1.421   8.790   1.984 -0.6079  1.9986  0.6755
26887SOL     OW84576   4.166   3.025   1.060  0.0712 -0.4955 -0.6030
26887SOL    HW184577   4.154   3.004   0.967  1.5675  0.8176 -1.1389
26887SOL    HW284578   4.239   3.088   1.061  0.7682 -1.2492  1.5486
26888SOL     OW84579   3.490   4.606   0.281 -0.7012  0.2055  0.2662
26888SOL    HW184580   3.568   4.570   0.238 -0.7391  2.0266 -1.4675
26888SOL    HW284581   3.419   4.548   0.254  0.0628 -1.9727  2.5307
26889SOL     OW84582   0.650   4.363   1.325 -0.1030 -0.1134 -0.0554
26889SOL    HW184583   0.705   4.440   1.336 -0.1303 -0.3124  1.6335
26889SOL    HW284584   0.570   4.397   1.285  1.4792  0.0514 -3.4562
26890SOL     OW84585   1.035   3.177   6.035  0.2026  0.2910 -0.4409
26890SOL    HW184586   1.127   3.200   6.028  0.7458 -1.1974  1.0349
26890SOL    HW284587   1.003   3.176   5.945  0.6823  4.1600 -0.7868
26891SOL     OW84588   4.633   4.865   6.899 -0.1489 -0.4830  0.2572
26891SOL    HW184589   4.591   4.808   6.834  0.3802  0.4297 -0.9110
26891SOL    HW284590   4.619   4.953   6.867 -0.2492  0.0268  1.6337
26892SOL     OW84591   4.856   4.386   5.700  0.5540 -0.0584 -0.3147
26892SOL    HW184592   4.915   4.371   5.774  1.0216  0.4897 -0.5724
26892SOL    HW284593   4.816   4.471   5.717 -0.0192 -0.3372 -0.2422
26893SOL     OW84594   6.219   6.188   8.159 -0.1020 -0.0904  0.0874
26893SOL    HW184595   6.249   6.097   8.153 -1.3456 -0.4674 -1.0670
26893SOL    HW284596   6.275   6.236   8.098 -2.1896 -0.9386 -2.7154
26894SOL     OW84597   6.105   9.513   8.133  0.1285  0.5691  0.2689
26894SOL    HW184598   6.177   9.454   8.155  0.4541  0.6840 -0.4861
26894SOL    HW284599   6.143   9.578   8.075 -0.5381  0.7445  0.0178
26895SOL     OW84600   6.609   1.184   4.659 -0.1184  0.4114 -0.5560
26895SOL    HW184601   6.684   1.182   4.600 -0.8335 -0.8225 -1.4680
26895SOL    HW284602   6.598   1.277   4.681  0.9724  0.7342 -1.2932
26896SOL     OW84603   6.431   1.246   7.538  0.1517  0.2140 -0.7877
26896SOL    HW184604   6.508   1.192   7.519  0.1849  0.3401 -1.0198
26896SOL    HW284605   6.399   1.213   7.621  1.1003  0.8608 -0.1427
26897SOL     OW84606  10.012   4.917   5.525  0.5631  0.2933 -0.0180
26897SOL    HW184607   9.979   4.980   5.588  1.7065  0.2541  0.6534
26897SOL    HW284608   9.982   4.950   5.440 -1.1984  0.2124  0.5384
26898SOL     OW84609   3.396   4.719   6.977 -0.4274  0.1859  0.0237
26898SOL    HW184610   3.342   4.732   7.055 -1.8118  0.8675 -1.0107
26898SOL    HW284611   3.352   4.769   6.909  1.5469  0.7777 -0.8670
26899SOL     OW84612   1.960   9.804   0.803  0.1238  0.7585 -0.0768
26899SOL    HW184613   1.910   9.885   0.806 -0.0743  0.6216  0.5791
26899SOL    HW284614   1.895   9.735   0.820  0.5502  0.5975  1.0484
26900SOL     OW84615   4.181   7.147   7.760  0.1504  0.1198  0.7254
26900SOL    HW184616   4.186   7.173   7.852  0.6703  2.8579  0.0144
26900SOL    HW284617   4.109   7.198   7.724 -0.8354 -1.8021 -0.1918
26901SOL     OW84618   5.696   4.472   3.102 -0.5770 -0.5654  0.2699
26901SOL    HW184619   5.784   4.471   3.140 -0.7464 -1.2900  0.6519
26901SOL    HW284620   5.672   4.380   3.095 -0.1864 -0.5460 -2.4603
26902SOL     OW84621   5.047   9.181   3.583  0.3973 -0.1309  0.1382
26902SOL    HW184622   5.033   9.218   3.496  0.1235 -0.8424 -0.1327
26902SOL    HW284623   4.959   9.168   3.618  0.5107  0.5127  0.6899
26903SOL     OW84624   0.792   6.516   5.996  0.3033 -0.0325 -0.3393
26903SOL    HW184625   0.746   6.455   6.053 -0.9727 -0.7585 -2.0451
26903SOL    HW284626   0.880   6.481   5.988 -0.5206 -1.9785 -1.6295
26904SOL     OW84627   8.261  10.166   2.022  0.4841 -0.1306 -0.0668
26904SOL    HW184628   8.299  10.223   2.089  1.5889 -0.3405 -0.4973
26904SOL    HW284629   8.264  10.078   2.061  1.6985 -0.3459 -0.6089
26905SOL     OW84630   1.648   1.522   3.919  0.1078  0.0655 -0.5315
26905SOL    HW184631   1.660   1.616   3.936 -2.0095  0.5065 -1.1664
26905SOL    HW284632   1.681   1.479   3.998  2.7936  1.1761 -0.9440
26906SOL     OW84633  10.185   1.404   5.443 -0.4219  0.4383  0.3356
26906SOL    HW184634  10.201   1.310   5.450 -0.6896  0.3613 -0.0689
26906SOL    HW284635  10.251   1.436   5.382 -0.6726  0.4208  0.0526
26907SOL     OW84636   3.240   9.728   3.529 -0.2034  0.9246 -0.8555
26907SOL    HW184637   3.249   9.798   3.594 -1.4299 -0.1220  0.5153
26907SOL    HW284638   3.220   9.650   3.581  3.6762 -1.1438 -2.0327
26908SOL     OW84639   1.685   2.028   3.812 -0.5398  0.2610  0.1612
26908SOL    HW184640   1.674   1.954   3.871  0.6339  0.5116  0.7111
26908SOL    HW284641   1.758   2.003   3.756  0.1423  1.1670  0.6289
26909SOL     OW84642   1.429   6.056   4.808 -0.5475  0.0389 -0.4446
26909SOL    HW184643   1.407   5.963   4.818 -1.6386  0.2574 -0.6613
26909SOL    HW284644   1.406   6.077   4.718 -1.7982  0.8661  0.0236
26910SOL     OW84645   4.373   8.374   1.388 -0.1071 -0.0498 -0.2938
26910SOL    HW184646   4.279   8.392   1.387 -0.3789 -1.3063  0.3558
26910SOL    HW284647   4.392   8.353   1.479  1.2056  2.0085 -0.0291
26911SOL     OW84648   2.091   5.645   6.820  0.4097  0.5820 -0.3103
26911SOL    HW184649   2.125   5.710   6.759 -1.2417  0.5601 -1.3281
26911SOL    HW284650   2.003   5.676   6.841 -0.3787 -1.2176 -0.7367
26912SOL     OW84651   0.933   0.126   5.358  0.3464  0.1500  0.4132
26912SOL    HW184652   1.010   0.099   5.408  0.3850 -0.1448  0.1950
26912SOL    HW284653   0.865   0.140   5.425  0.5363  0.2432  0.5903
26913SOL     OW84654   7.639   1.852   6.523 -0.6654  0.7935  0.1284
26913SOL    HW184655   7.569   1.828   6.583 -1.1141  0.4877 -0.5023
26913SOL    HW284656   7.609   1.934   6.483 -1.9087 -0.5927 -2.0082
26914SOL     OW84657   8.243   3.493   8.356  0.0313 -0.2072 -0.0682
26914SOL    HW184658   8.269   3.401   8.354 -0.1882 -0.2590 -1.0886
26914SOL    HW284659   8.157   3.492   8.399 -0.7082 -0.6989 -1.4823
26915SOL     OW84660   8.651   5.163   6.942  0.2333 -0.5430  0.5511
26915SOL    HW184661   8.738   5.184   6.908  0.3616 -2.5026 -0.4484
26915SOL    HW284662   8.603   5.128   6.867 -1.7522  1.2820  0.8669
26916SOL     OW84663   1.005   1.211  10.073  0.7082  0.3832 -0.1145
26916SOL    HW184664   0.931   1.155  10.098  0.2706  0.3197 -1.5024
26916SOL    HW284665   1.010   1.204   9.978  1.1637  2.0752 -0.2432
26917SOL     OW84666   7.043   4.265   3.189 -0.3071 -0.4719  0.1011
26917SOL    HW184667   7.103   4.338   3.203 -0.9998 -0.0344  0.8795
26917SOL    HW284668   7.091   4.188   3.217  0.0843 -0.1969  0.1907
26918SOL     OW84669   7.417   8.000   9.975  0.3799  0.0021 -0.9979
26918SOL    HW184670   7.351   7.943  10.015  1.9571 -0.5775  0.9036
26918SOL    HW284671   7.387   8.089   9.996 -0.9040 -0.1376 -2.0584
26919SOL     OW84672   2.141   1.038   7.013 -0.4566  0.7238 -0.3860
26919SOL    HW184673   2.105   1.095   7.081  0.0559 -0.2219  0.7256
26919SOL    HW284674   2.209   1.091   6.971 -0.5183  1.1967  0.0998
26920SOL     OW84675   5.386   5.165   4.637  0.3832  0.3779 -0.4770
26920SOL    HW184676   5.305   5.143   4.591 -0.2953 -0.3145  0.9752
26920SOL    HW284677   5.368   5.250   4.678  0.4007  0.2469 -0.1949
26921SOL     OW84678   5.126   4.806   5.076 -0.3898 -0.0208  0.2915
26921SOL    HW184679   5.139   4.812   5.171 -1.0688 -1.2805  0.4951
26921SOL    HW284680   5.081   4.722   5.064  2.9371 -1.7423 -1.4909
26922SOL     OW84681   6.448   2.482   3.400 -0.3202 -0.4477  0.1216
26922SOL    HW184682   6.389   2.515   3.332 -1.2235  0.4149  1.2886
26922SOL    HW284683   6.459   2.389   3.380 -0.9043 -0.2968 -0.9544
26923SOL     OW84684   8.392   2.329   1.034 -0.1154  0.1929 -0.4827
26923SOL    HW184685   8.348   2.408   1.065 -2.1556 -1.2426  0.5372
26923SOL    HW284686   8.324   2.262   1.034  1.1348 -1.2248 -2.8866
26924SOL     OW84687   3.607   1.810   0.248 -0.0065 -0.3725 -0.1199
26924SOL    HW184688   3.628   1.737   0.306 -0.5174  0.2590  0.9114
26924SOL    HW284689   3.659   1.883   0.282 -0.6060  0.1045 -0.2089
26925SOL     OW84690   5.013   1.051   2.772 -0.1744  0.4287 -0.5396
26925SOL    HW184691   4.988   0.975   2.719  0.2381  0.6330 -1.0394
26925SOL    HW284692   4.975   1.126   2.726 -0.6926  0.5170  0.0230
26926SOL     OW84693   8.671   8.679   4.258 -0.2670 -0.2003 -0.2075
26926SOL    HW184694   8.709   8.717   4.337  1.3478  0.2857 -1.1809
26926SOL    HW284695   8.746   8.642   4.211 -1.3420 -1.4489 -1.0064
26927SOL     OW84696   7.128   4.532   2.579 -0.3010 -0.2184 -0.5741
26927SOL    HW184697   7.038   4.498   2.577 -0.6324  0.5973  0.1156
26927SOL    HW284698   7.118   4.627   2.586  0.6048 -0.2307  1.3679
26928SOL     OW84699   1.350   2.825   3.704 -0.2302  0.0448  0.2748
26928SOL    HW184700   1.415   2.865   3.762  0.1835 -0.3622  0.1004
26928SOL    HW284701   1.398   2.756   3.659 -0.2010  1.1520 -1.4955
26929SOL     OW84702   8.510   5.114   4.476 -0.1509 -0.3954 -0.8131
26929SOL    HW184703   8.523   5.208   4.478  1.6064 -0.5932 -1.1270
26929SOL    HW284704   8.446   5.100   4.406  1.3043  0.4258 -2.3775
26930SOL     OW84705   8.080   6.211   2.256 -0.2482 -0.2473  0.0112
26930SOL    HW184706   8.154   6.155   2.233  1.0501 -0.0656  3.2176
26930SOL    HW284707   8.019   6.154   2.303 -0.3576  0.3558  0.6316
26931SOL     OW84708   3.008   4.124   3.513 -0.0479 -0.0132  0.2530
26931SOL    HW184709   2.940   4.181   3.479 -1.7400 -2.1467 -0.1990
26931SOL    HW284710   3.013   4.144   3.607 -0.0168  1.3963 -0.0422
26932SOL     OW84711   7.171   7.551   6.766  0.0431  0.6455  0.3995
26932SOL    HW184712   7.140   7.514   6.849  0.7031  0.7674  0.7023
26932SOL    HW284713   7.102   7.614   6.742 -0.4650  0.1445  0.5212
26933SOL     OW84714   4.927   3.744   3.732 -0.2902 -0.3216 -0.4668
26933SOL    HW184715   4.980   3.666   3.713  0.2517  0.1549 -0.9244
26933SOL    HW284716   4.847   3.709   3.773 -0.7201 -1.2494 -2.0109
26934SOL     OW84717   2.116   4.679   4.044 -0.0532 -0.1419 -0.4499
26934SOL    HW184718   2.050   4.687   4.112  0.6236  0.2002  0.1886
26934SOL    HW284719   2.127   4.769   4.011 -1.0362 -0.4454 -1.6678
26935SOL     OW84720   5.313   2.367   1.404  0.1825  0.0386 -0.3557
26935SOL    HW184721   5.324   2.414   1.322 -0.1810  0.5761 -0.1066
26935SOL    HW284722   5.383   2.399   1.461  1.4077 -1.4870 -0.9492
26936SOL     OW84723   1.538   7.464   5.650  0.0222 -0.7272 -0.2430
26936SOL    HW184724   1.506   7.530   5.711 -0.5047 -1.5937  0.4560
26936SOL    HW284725   1.627   7.491   5.629 -0.6353  0.9164 -1.0377
26937SOL     OW84726   0.787   6.699   6.587  0.3969  0.0370 -0.1154
26937SOL    HW184727   0.849   6.656   6.528 -1.0413 -1.9273 -0.2964
26937SOL    HW284728   0.827   6.693   6.673  2.0841  2.0979 -0.6515
26938SOL     OW84729   3.995   2.593   5.639  0.4398  0.3180  0.3835
26938SOL    HW184730   4.085   2.622   5.653  0.9147 -0.8242 -0.1594
26938SOL    HW284731   4.003   2.514   5.586 -0.8550 -0.1735  0.8725
26939SOL     OW84732   6.335   3.369   6.905  0.1552  0.2604 -0.3847
26939SOL    HW184733   6.269   3.337   6.844 -0.5306 -1.1816  1.0184
26939SOL    HW284734   6.304   3.455   6.932 -0.8860 -0.1692 -0.1587
26940SOL     OW84735   7.123   9.432   8.861 -0.2590  0.0217 -0.1513
26940SOL    HW184736   7.133   9.469   8.773  2.9142  0.2676  0.1880
26940SOL    HW284737   7.121   9.337   8.846 -0.6903  0.0856 -0.5340
26941SOL     OW84738   7.089   0.509   3.230 -0.0498  0.1899 -0.2138
26941SOL    HW184739   7.091   0.430   3.284 -0.8578  0.0548 -0.3795
26941SOL    HW284740   7.181   0.537   3.226  0.4080 -1.2645 -0.9053
26942SOL     OW84741   4.577   4.089   9.495 -0.2977 -0.1730  0.7268
26942SOL    HW184742   4.581   4.048   9.582  0.5596 -0.4578  0.5675
26942SOL    HW284743   4.616   4.175   9.507  1.6630 -0.9433  0.2477
26943SOL     OW84744   1.163   6.835   7.871 -0.1227 -0.1186 -0.2762
26943SOL    HW184745   1.189   6.927   7.868  0.0265 -0.1781 -2.5106
26943SOL    HW284746   1.102   6.825   7.798  0.7114 -2.0087 -0.7727
26944SOL     OW84747   0.692   5.288   5.992  0.0708 -0.3493 -0.3805
26944SOL    HW184748   0.787   5.275   5.988  0.0791 -0.1244 -1.0134
26944SOL    HW284749   0.668   5.257   6.079  0.7761 -0.0600 -0.0755
26945SOL     OW84750   7.187   4.922   0.137 -0.4745  0.6678 -0.2836
26945SOL    HW184751   7.218   4.844   0.184  0.1566  1.2590  0.3084
26945SOL    HW284752   7.135   4.970   0.201 -0.2267  1.1162 -0.4144
26946SOL     OW84753   2.444   5.730   0.903 -0.2313 -0.2193 -0.1470
26946SOL    HW184754   2.538   5.716   0.907 -0.1131  0.5685  0.0226
26946SOL    HW284755   2.415   5.678   0.828  0.5225  0.4865 -0.9440
26947SOL     OW84756   9.476   8.502   1.251 -0.1616 -0.3070  0.5661
26947SOL    HW184757   9.499   8.562   1.180  1.1853  0.6854  1.7757
26947SOL    HW284758   9.391   8.466   1.226 -0.3756  1.0882 -0.8434
26948SOL     OW84759   9.900  10.154   2.583  0.5823 -0.2143 -0.3749
26948SOL    HW184760   9.931  10.113   2.664  1.0162 -0.3780 -0.6196
26948SOL    HW284761   9.980  10.183   2.539  0.2479  1.9595  0.3320
26949SOL     OW84762   8.626   7.705  10.021 -0.4000 -0.1126  0.0915
26949SOL    HW184763   8.631   7.653   9.941  1.5009 -1.5926  1.0994
26949SOL    HW284764   8.621   7.641  10.092 -2.0751  1.1532  1.2318
26950SOL     OW84765   4.620   9.898   6.745 -0.0390 -0.4843  0.2710
26950SOL    HW184766   4.684   9.933   6.807  1.3331 -1.8882 -0.2941
26950SOL    HW284767   4.646   9.933   6.660 -0.2430 -0.7554  0.0938
26951SOL     OW84768   1.446   8.081   2.784  0.4120 -0.3017 -0.0843
26951SOL    HW184769   1.449   8.065   2.690  0.3656 -0.1530 -0.1108
26951SOL    HW284770   1.354   8.100   2.802  0.9003  3.0482 -0.5548
26952SOL     OW84771   8.771   1.766   7.332 -0.0322  0.3914  0.5589
26952SOL    HW184772   8.711   1.823   7.283 -0.8059 -0.3522  0.6179
26952SOL    HW284773   8.717   1.691   7.358  0.5412  0.4240  1.9250
26953SOL     OW84774   0.966   7.852   0.383 -0.2250 -0.1133 -0.0081
26953SOL    HW184775   0.878   7.869   0.351  0.0616  1.1879 -0.1713
26953SOL    HW284776   0.973   7.906   0.462  0.0250 -1.1396  0.6909
26954SOL     OW84777   5.365   8.030   8.275 -0.0458  0.4638  0.1964
26954SOL    HW184778   5.448   7.982   8.266 -1.0334 -1.5623  1.2931
26954SOL    HW284779   5.330   8.034   8.186  1.0367  1.0095 -0.2210
26955SOL     OW84780   8.933   3.885   3.426 -0.0703  0.2092 -0.0514
26955SOL    HW184781   8.925   3.934   3.508  1.5679  1.3703 -0.5489
26955SOL    HW284782   8.869   3.814   3.435  0.4445 -0.0218  2.4407
26956SOL     OW84783   9.795   7.597   9.726 -0.2818  0.1420  0.4940
26956SOL    HW184784   9.771   7.506   9.714 -1.6264  0.8417 -4.3566
26956SOL    HW284785   9.714   7.645   9.713  1.0395  2.0921 -1.3322
26957SOL     OW84786   5.991   0.001   6.823  0.0007 -0.1015  0.5114
26957SOL    HW184787   5.908   0.043   6.848 -0.4421 -1.0545  0.6835
26957SOL    HW284788   6.022  -0.039   6.904 -0.3667 -1.4112  0.0263
26958SOL     OW84789   4.324   3.376   8.353  0.2962 -0.5343 -0.0731
26958SOL    HW184790   4.235   3.388   8.387 -0.5435 -0.3466 -2.1621
26958SOL    HW284791   4.317   3.401   8.261  3.1664  2.3640  0.3238
26959SOL     OW84792   9.797   7.829   7.757 -0.0095  0.4651  0.4345
26959SOL    HW184793   9.765   7.748   7.719 -0.1559  0.6027  0.2623
26959SOL    HW284794   9.892   7.819   7.760 -0.0567  0.1165  0.8061
26960SOL     OW84795   2.896   2.970   0.202  0.5618  0.3933 -0.3788
26960SOL    HW184796   2.923   3.002   0.288 -1.5187  0.5471  0.2724
26960SOL    HW284797   2.889   3.049   0.148 -1.5929  0.7858  0.3693
26961SOL     OW84798   6.814   1.749   0.280 -0.8431 -0.2213 -0.7960
26961SOL    HW184799   6.788   1.661   0.253 -1.9390  0.3351 -1.6227
26961SOL    HW284800   6.909   1.743   0.291 -1.0567 -1.8967  0.7055
26962SOL     OW84801   4.062   6.688   2.956 -0.0288 -0.7507 -0.7008
26962SOL    HW184802   4.024   6.619   3.010  1.6625 -1.4238 -0.3261
26962SOL    HW284803   4.087   6.645   2.875  2.7311 -1.0830  0.2235
26963SOL     OW84804   1.172   5.862   6.614  0.2514 -0.4647  0.1082
26963SOL    HW184805   1.242   5.806   6.645  0.6564 -0.1643 -0.2515
26963SOL    HW284806   1.094   5.833   6.662  0.9050  0.2131  1.6431
26964SOL     OW84807   0.030   2.597   7.718  0.2053  0.1751 -0.2214
26964SOL    HW184808   0.006   2.538   7.647  0.2967  0.1236 -0.2104
26964SOL    HW284809   0.081   2.542   7.778 -2.2825 -0.5885  1.3721
26965SOL     OW84810   2.979   5.352   2.944 -0.0835  0.1282 -0.7335
26965SOL    HW184811   3.027   5.411   3.002 -2.4310  0.9595  0.4608
26965SOL    HW284812   2.972   5.401   2.862  0.5402  0.2540 -0.7216
26966SOL     OW84813  10.021   4.906   2.250  0.2555 -0.4455 -0.1896
26966SOL    HW184814  10.002   4.999   2.239  0.5271 -0.4632 -0.9291
26966SOL    HW284815   9.992   4.885   2.339 -1.2286 -0.0194 -0.5452
26967SOL     OW84816   4.062   9.319   5.841  0.2053 -0.2854  0.4502
26967SOL    HW184817   4.115   9.381   5.792  2.5875 -2.3988  0.1911
26967SOL    HW284818   3.998   9.287   5.778 -0.6730  1.3783  0.4322
26968SOL     OW84819   6.928   4.636   2.893  0.3442  0.3379  0.3100
26968SOL    HW184820   6.940   4.544   2.917 -0.5720 -0.7223 -2.6920
26968SOL    HW284821   6.837   4.655   2.917 -1.2132 -1.3117 -3.4136
26969SOL     OW84822   4.339   0.874   7.803  0.4959 -0.2943  0.3094
26969SOL    HW184823   4.298   0.814   7.741  0.4697  0.3321 -0.2851
26969SOL    HW284824   4.289   0.862   7.884  0.4137 -0.9802  0.1597
26970SOL     OW84825   9.757   0.780   4.540  0.3344  0.4332  0.1384
26970SOL    HW184826   9.755   0.810   4.449 -2.1811 -1.3982 -0.5273
26970SOL    HW284827   9.816   0.705   4.539 -0.2455 -0.0328 -0.1923
26971SOL     OW84828   0.179   6.208   6.663 -0.5380  0.1779  0.4856
26971SOL    HW184829   0.111   6.246   6.608  0.5050  0.8732 -0.3582
26971SOL    HW284830   0.215   6.282   6.712  0.4893  0.0663 -0.0599
26972SOL     OW84831   0.101   8.330   8.517  0.0075 -0.4901  0.1011
26972SOL    HW184832   0.077   8.412   8.560  3.7103 -0.2673  2.1744
26972SOL    HW284833   0.147   8.357   8.437 -0.8817 -0.6698 -0.4824
26973SOL     OW84834   0.634   7.168   7.675 -0.0635  0.4205 -0.2494
26973SOL    HW184835   0.657   7.258   7.700  0.3751  0.2086  0.1191
26973SOL    HW284836   0.718   7.123   7.667 -0.3188 -0.7452  2.5168
26974SOL     OW84837   6.636   4.723   1.885  0.7066  0.1574 -0.0461
26974SOL    HW184838   6.603   4.805   1.921  2.0177 -0.3227  2.5167
26974SOL    HW284839   6.560   4.665   1.884  0.4970  0.3257  1.7419
26975SOL     OW84840   0.120   9.086   7.217 -0.2722  0.4500  0.2503
26975SOL    HW184841   0.171   9.007   7.201 -1.3479 -0.3329  0.5716
26975SOL    HW284842   0.029   9.055   7.220 -0.5109  1.1645  3.6654
26976SOL     OW84843   5.560   3.871   6.586 -0.1427  0.4964 -0.1973
26976SOL    HW184844   5.640   3.907   6.625 -0.3332 -0.5764  1.3116
26976SOL    HW284845   5.498   3.944   6.587  0.6234  1.1809 -0.8551
26977SOL     OW84846   8.362   0.743   4.032  0.4627 -0.6207  0.4257
26977SOL    HW184847   8.377   0.827   3.990  0.1453 -0.1309  1.2599
26977SOL    HW284848   8.385   0.757   4.124 -0.6019 -1.1280  0.7964
26978SOL     OW84849   6.218   8.291   3.876 -0.1794 -0.4794  0.6706
26978SOL    HW184850   6.197   8.305   3.968  2.0210  0.4151  1.1068
26978SOL    HW284851   6.258   8.204   3.873  1.3921  0.1802  0.9530
26979SOL     OW84852   6.443   8.910   3.885  0.3063  0.0765 -0.2015
26979SOL    HW184853   6.397   8.877   3.808 -0.2295 -1.2142  0.6555
26979SOL    HW284854   6.403   8.995   3.902  1.6574  1.2646 -2.3836
26980SOL     OW84855   0.777   2.331   8.823  0.1118  0.1364 -0.2298
26980SOL    HW184856   0.760   2.398   8.757 -0.2542  0.7271  0.4672
26980SOL    HW284857   0.820   2.261   8.774 -0.4748  0.4175 -1.1700
26981SOL     OW84858   1.594   8.645   6.543 -0.5291  0.2436  0.2298
26981SOL    HW184859   1.578   8.729   6.584  2.4420  1.7942 -1.4192
26981SOL    HW284860   1.684   8.622   6.569 -1.1028 -2.2775  0.3115
26982SOL     OW84861   4.965   3.820   7.513  0.1514 -0.2454  0.0959
26982SOL    HW184862   4.881   3.828   7.469  1.0740 -0.5251 -1.8028
26982SOL    HW284863   4.965   3.890   7.578 -0.9420  0.7350 -0.9192
26983SOL     OW84864   9.681   1.025   5.392  0.1082  0.3587 -0.1409
26983SOL    HW184865   9.753   0.962   5.388 -0.1556  0.1217 -2.3800
26983SOL    HW284866   9.606   0.980   5.354 -0.6382  1.3393  0.1144
26984SOL     OW84867   1.918   2.674  10.100 -0.6847 -0.1129 -0.3613
26984SOL    HW184868   1.828   2.695  10.124 -0.2132  0.1643  1.2298
26984SOL    HW284869   1.921   2.578  10.099 -0.8525 -0.1239  0.1192
26985SOL     OW84870   9.442   0.908   8.128 -0.3221  0.2921 -0.6445
26985SOL    HW184871   9.494   0.892   8.050 -0.3526  0.7749 -0.7625
26985SOL    HW284872   9.407   0.822   8.151  2.5912 -0.5952  0.9539
26986SOL     OW84873   1.757   0.942   2.154  0.0325  0.5336  0.1371
26986SOL    HW184874   1.738   0.892   2.233 -2.1630  0.3685 -0.4218
26986SOL    HW284875   1.740   1.033   2.179 -3.0831  0.3013 -0.6522
26987SOL     OW84876   6.762   7.263   0.294 -0.7283  0.1262  0.0565
26987SOL    HW184877   6.779   7.265   0.388 -0.1872  0.8782 -0.0528
26987SOL    HW284878   6.705   7.187   0.282 -0.8088  0.0284  0.9899
26988SOL     OW84879   3.117   3.421   1.450  0.6016  0.2078 -0.2693
26988SOL    HW184880   3.184   3.354   1.433  0.7060  0.4901 -0.9916
26988SOL    HW284881   3.168   3.500   1.470  0.4868 -0.0813  1.3124
26989SOL     OW84882   3.708   5.675   7.390 -0.2244  0.1563 -0.1642
26989SOL    HW184883   3.777   5.682   7.323 -1.0020  0.9810 -0.9001
26989SOL    HW284884   3.750   5.628   7.462  0.9342  0.1177 -0.8336
26990SOL     OW84885   2.539   1.813   7.948  0.1614 -0.5875  0.0800
26990SOL    HW184886   2.455   1.797   7.989 -0.3552 -0.7900 -1.0019
26990SOL    HW284887   2.558   1.905   7.964 -1.4451  0.1134 -1.6714
26991SOL     OW84888   7.119   9.177   6.651 -0.1985 -0.0087 -0.1455
26991SOL    HW184889   7.103   9.111   6.719  1.2149  0.0757  0.3103
26991SOL    HW284890   7.213   9.173   6.636 -0.4968 -0.1622 -2.2851
26992SOL     OW84891   0.150   7.421   1.377 -0.1427 -0.2186 -0.4529
26992SOL    HW184892   0.173   7.513   1.389 -0.2355 -0.0829 -1.2568
26992SOL    HW284893   0.098   7.400   1.454 -0.4953  0.5322 -0.4697
26993SOL     OW84894   1.291   7.818   5.079 -0.1636  0.2622 -0.1050
26993SOL    HW184895   1.364   7.812   5.017  1.1053 -1.3223  1.4778
26993SOL    HW284896   1.308   7.751   5.144 -2.1790  0.9723  1.2545
26994SOL     OW84897   8.294   7.160   0.613 -0.1460 -0.0156 -0.3092
26994SOL    HW184898   8.339   7.096   0.558  1.1910  0.0078  0.7172
26994SOL    HW284899   8.225   7.196   0.556  0.5341 -0.7125 -1.6227
26995SOL     OW84900   6.130   2.214   3.470  0.3274 -0.4082 -0.6948
26995SOL    HW184901   6.215   2.178   3.494  0.7222  0.3224 -0.9871
26995SOL    HW284902   6.098   2.156   3.401 -0.0709 -1.5373  0.3874
26996SOL     OW84903   3.094   4.391   4.370  0.0158 -0.0473 -0.7207
26996SOL    HW184904   3.006   4.374   4.338  0.6084 -2.0159 -1.4300
26996SOL    HW284905   3.152   4.353   4.304  1.3536 -0.2303  0.4977
26997SOL     OW84906   1.687   3.669   5.895 -0.5824  0.0873 -0.3839
26997SOL    HW184907   1.761   3.627   5.851 -1.4967 -1.1238 -0.8214
26997SOL    HW284908   1.711   3.670   5.987 -0.6198 -1.6862 -0.3184
26998SOL     OW84909  10.100   0.109   5.832 -0.0254 -0.0247 -0.0171
26998SOL    HW184910  10.111   0.166   5.756 -0.1932  0.2852  0.1843
26998SOL    HW284911  10.130   0.023   5.804  0.8386  0.3130 -0.1347
26999SOL     OW84912   4.821   8.337   4.735 -0.2753 -0.0314  0.6865
26999SOL    HW184913   4.785   8.331   4.646  1.7609  0.9142 -0.2607
26999SOL    HW284914   4.892   8.400   4.728  0.1140 -0.1373  2.9613
27000SOL     OW84915   7.816   1.512   5.417 -0.2442 -0.1507  0.4448
27000SOL    HW184916   7.742   1.455   5.396 -0.7680 -0.0580  1.9424
27000SOL    HW284917   7.789   1.598   5.387 -0.3839 -0.2703  0.2199
27001SOL     OW84918   2.188   8.699   0.916 -0.0226  0.1026  0.1291
27001SOL    HW184919   2.224   8.650   0.990  1.7436  0.4997 -0.4189
27001SOL    HW284920   2.244   8.777   0.910 -2.0951  1.6712  0.3149
27002SOL     OW84921   6.757   8.307   8.476  0.6854  0.0516 -0.4367
27002SOL    HW184922   6.701   8.335   8.404 -0.2652  0.0808  0.3009
27002SOL    HW284923   6.783   8.389   8.519 -0.6987 -0.0710  0.6827
27003SOL     OW84924   7.675   3.377   7.137 -0.3421 -0.5448 -0.4625
27003SOL    HW184925   7.616   3.450   7.155 -0.6268 -1.3651  2.4375
27003SOL    HW284926   7.630   3.326   7.069  0.4592  2.4928 -3.5357
27004SOL     OW84927   3.144   2.583   6.623 -0.1770  0.0372  0.1361
27004SOL    HW184928   3.057   2.582   6.662  0.2178 -1.8083  1.0966
27004SOL    HW284929   3.136   2.528   6.545 -0.1501  0.8911 -0.4780
27005SOL     OW84930   7.680   4.447   0.076 -0.0115  0.1096 -0.3873
27005SOL    HW184931   7.624   4.434   0.153  0.5974  0.9219  0.2064
27005SOL    HW284932   7.734   4.368   0.073  1.0001  0.7130  0.9238
27006SOL     OW84933   3.663  10.187   4.774  0.1516  0.5228  1.0370
27006SOL    HW184934   3.621  10.202   4.858  1.1983  0.9551  1.4878
27006SOL    HW284935   3.740  10.135   4.794  1.9583  2.9369  0.7429
27007SOL     OW84936   0.415   3.142   6.535 -0.2377 -0.0330 -0.8119
27007SOL    HW184937   0.327   3.161   6.568 -0.0242  0.1346 -0.3103
27007SOL    HW284938   0.402   3.081   6.464 -0.6004 -2.1412  0.9591
27008SOL     OW84939   1.677   8.141   8.058  0.5636  0.4963 -0.1236
27008SOL    HW184940   1.731   8.090   8.117 -0.4139  1.0259  1.2872
27008SOL    HW284941   1.699   8.109   7.970  1.3658 -0.9571  0.5829
27009SOL     OW84942   9.267   9.937   6.846  0.1204 -0.0200 -0.4093
27009SOL    HW184943   9.346   9.940   6.791 -0.1652  1.9424 -0.8115
27009SOL    HW284944   9.299   9.922   6.934  0.6961 -1.9003 -0.8807
27010SOL     OW84945   1.335   0.399   1.176  0.2224  0.0437  0.2786
27010SOL    HW184946   1.423   0.416   1.207 -0.2643 -0.2552  1.8966
27010SOL    HW284947   1.298   0.337   1.239 -0.4922 -1.3996 -1.4433
27011SOL     OW84948   2.535   1.079   1.378  0.5509 -0.0051  0.3830
27011SOL    HW184949   2.564   1.044   1.294 -1.0223 -0.2821 -0.0643
27011SOL    HW284950   2.475   1.150   1.356 -0.7270 -0.7808  1.2342
27012SOL     OW84951   3.044   2.942   6.934  0.1931  0.2970  0.0965
27012SOL    HW184952   2.960   2.901   6.960  0.6718  0.1826  1.5970
27012SOL    HW284953   3.103   2.868   6.922  0.2919  0.4129 -0.1148
27013SOL     OW84954   3.582   1.552   6.757  0.2544  0.6240  0.4979
27013SOL    HW184955   3.568   1.461   6.780 -1.8996  1.3087  2.3252
27013SOL    HW284956   3.584   1.598   6.841  0.3235  2.3522 -0.4022
27014SOL     OW84957   8.310   2.966   5.451  0.5383 -0.3058 -0.0165
27014SOL    HW184958   8.290   3.004   5.365 -2.4871  3.3831  2.0185
27014SOL    HW284959   8.244   2.898   5.463 -0.7946  0.9868  0.3188
27015SOL     OW84960   7.734   7.680  10.001 -0.0118 -0.2858 -0.4368
27015SOL    HW184961   7.687   7.621  10.060 -0.4902  1.9248  1.5799
27015SOL    HW284962   7.688   7.674   9.918  0.7790 -3.6409 -0.7506
27016SOL     OW84963   3.649   7.309   1.685 -0.4692  0.1898 -0.5025
27016SOL    HW184964   3.660   7.400   1.713  1.6031  0.0302 -0.6418
27016SOL    HW284965   3.730   7.289   1.639 -0.5190 -2.0098  0.2797
27017SOL     OW84966   8.771  10.122   3.893  0.5471  0.1534  0.3850
27017SOL    HW184967   8.824  10.073   3.957  0.3706  0.2091  0.5745
27017SOL    HW284968   8.681  10.110   3.923  0.2461 -1.5516 -1.0132
27018SOL     OW84969   5.639   9.188   0.415  0.0463  0.4025  0.7733
27018SOL    HW184970   5.677   9.114   0.463 -2.2131 -1.8352 -0.5868
27018SOL    HW284971   5.545   9.179   0.430 -0.6992  0.1999 -3.0453
27019SOL     OW84972   0.973   9.747   1.231  0.9124 -0.3251  0.1526
27019SOL    HW184973   0.888   9.760   1.189  1.0179  1.8764  0.4689
27019SOL    HW284974   0.985   9.652   1.234 -1.4703 -0.6889 -0.0116
27020SOL     OW84975   5.928   0.241   2.325 -0.5923  0.2385  0.0369
27020SOL    HW184976   5.845   0.211   2.287 -1.2836  1.1009  0.7956
27020SOL    HW284977   5.954   0.315   2.271 -1.0653  0.8492  0.6251
27021SOL     OW84978   1.553   8.833   6.220 -0.2139 -0.1172 -0.0329
27021SOL    HW184979   1.521   8.743   6.216 -1.0864  0.1459  0.6013
27021SOL    HW284980   1.492   8.877   6.280  1.5983  0.3036  1.6035
27022SOL     OW84981   5.481   5.524   2.499  0.2003  0.0740 -0.0345
27022SOL    HW184982   5.449   5.603   2.455 -0.8078 -1.1426 -1.5995
27022SOL    HW284983   5.500   5.553   2.588 -0.7799  1.9321 -0.3630
27023SOL     OW84984   9.349   5.476   7.279  0.1815  0.0591  0.7208
27023SOL    HW184985   9.261   5.464   7.316 -0.3666 -1.6889 -0.9715
27023SOL    HW284986   9.392   5.392   7.293  0.0829 -0.5445 -2.1155
27024SOL     OW84987   3.964   9.845   2.955  0.0100 -0.3329 -0.3987
27024SOL    HW184988   3.910   9.766   2.968 -0.8086  0.5280  1.8837
27024SOL    HW284989   4.031   9.839   3.022  2.2311 -0.8223 -2.5078
27025SOL     OW84990   0.939   1.009   8.412 -0.2511  0.0561 -0.9162
27025SOL    HW184991   0.945   1.010   8.317  0.4391  0.0385 -0.8798
27025SOL    HW284992   0.972   0.923   8.438  0.7071  0.5100 -0.5992
27026SOL     OW84993   4.020   3.877   3.396  0.2475  0.6329 -0.3180
27026SOL    HW184994   3.930   3.910   3.388 -0.7630 -1.9414 -0.4721
27026SOL    HW284995   4.044   3.897   3.487 -0.1959  1.9214 -0.4559
27027SOL     OW84996   0.676   4.116   2.001 -0.2044 -0.1269 -0.0100
27027SOL    HW184997   0.591   4.108   2.044  0.7610  0.9988  2.2959
27027SOL    HW284998   0.706   4.026   1.989 -0.9621 -0.4951  0.7558
27028SOL     OW84999   5.259   2.538   2.320  0.2633  0.0946  0.6633
27028SOL    HW185000   5.321   2.483   2.369  2.4518 -0.1396 -2.1003
27028SOL    HW285001   5.215   2.478   2.261 -2.4100  0.3506  2.2556
27029SOL     OW85002   6.983   3.547   5.004 -0.4159 -0.6355  0.0285
27029SOL    HW185003   6.947   3.512   4.922 -0.0996 -0.1493 -0.3213
27029SOL    HW285004   6.997   3.470   5.058  0.4699 -1.0816 -0.8097
27030SOL     OW85005   2.717   1.479   5.653  0.7968  0.8169 -0.5936
27030SOL    HW185006   2.668   1.423   5.713  1.4921  1.4699  0.6179
27030SOL    HW285007   2.797   1.431   5.635  0.2319  0.2552 -1.6745
27031SOL     OW85008   7.707   8.106   9.015  0.0386 -0.2088  0.1476
27031SOL    HW185009   7.663   8.048   9.077  0.4528 -0.4027  0.2652
27031SOL    HW285010   7.645   8.177   9.000 -0.8033 -1.0617 -0.5943
27032SOL     OW85011   0.961   1.048   8.727 -0.2547  0.7026  0.2203
27032SOL    HW185012   0.891   0.988   8.702 -1.7666  0.4141  4.3018
27032SOL    HW285013   1.034   0.991   8.754  0.5811  0.9389 -1.4381
27033SOL     OW85014   5.383   8.659   6.724  0.1728  0.0633  0.1320
27033SOL    HW185015   5.401   8.616   6.808 -0.9573 -0.6398  0.0458
27033SOL    HW285016   5.456   8.719   6.711  0.0695  0.6443  1.9244
27034SOL     OW85017   8.066   3.652   5.871  0.5042  0.0347 -0.1014
27034SOL    HW185018   7.992   3.675   5.927  0.5194 -1.0978  0.4070
27034SOL    HW285019   8.026   3.624   5.789  0.2878 -1.5552  0.5172
27035SOL     OW85020   3.121   3.107   4.925 -0.2621 -0.4147  0.0079
27035SOL    HW185021   3.105   3.050   5.000  1.4064 -1.6174 -0.5160
27035SOL    HW285022   3.216   3.110   4.916 -0.3884  0.7306 -1.2940
27036SOL     OW85023   2.201   9.944   9.510 -0.0430 -0.5065  0.3734
27036SOL    HW185024   2.163  10.006   9.449 -0.2210 -0.9445  0.0387
27036SOL    HW285025   2.252   9.884   9.455  2.9066  1.2604  0.9268
27037SOL     OW85026   2.262   6.794   8.215 -0.4557 -0.2079  0.7401
27037SOL    HW185027   2.257   6.718   8.156  0.3611  0.2158  0.0931
27037SOL    HW285028   2.269   6.869   8.156  3.4339  0.0375  1.2507
27038SOL     OW85029   2.685   8.673   6.415 -0.1035 -0.6339 -0.7407
27038SOL    HW185030   2.721   8.674   6.504  0.2876 -1.2752 -0.8919
27038SOL    HW285031   2.603   8.624   6.423 -1.0016  0.8270 -0.3967
27039SOL     OW85032   1.971   3.681   2.223  0.3126  0.3157  0.2920
27039SOL    HW185033   2.050   3.712   2.177  1.0563 -0.7575  0.8098
27039SOL    HW285034   1.997   3.679   2.315 -1.0364  2.0646  0.7617
27040SOL     OW85035   0.258   2.736   4.121  0.2178 -0.3167  0.5132
27040SOL    HW185036   0.176   2.688   4.133  0.2754 -0.3951  0.5983
27040SOL    HW285037   0.279   2.727   4.028  0.9891 -1.6949  0.7937
27041SOL     OW85038   2.980   7.206   3.302 -0.8641 -0.3808  0.1989
27041SOL    HW185039   2.929   7.225   3.224  0.6177 -1.5813 -1.1410
27041SOL    HW285040   2.995   7.112   3.298 -0.2867 -0.3700  1.6318
27042SOL     OW85041   9.925   9.988   6.392 -0.2958 -0.0853  0.2694
27042SOL    HW185042   9.985  10.019   6.324 -1.8084  1.3869 -0.4440
27042SOL    HW285043   9.838  10.012   6.361 -1.0602  0.4195  2.6093
27043SOL     OW85044   5.975   2.584   2.954  0.1052 -0.6438  0.4908
27043SOL    HW185045   5.948   2.655   2.897  0.0690  0.5181  1.8893
27043SOL    HW285046   5.916   2.511   2.933 -2.7632  1.0773  1.9008
27044SOL     OW85047   1.621   9.059   4.247  0.2666 -0.0867 -0.2077
27044SOL    HW185048   1.539   9.043   4.293 -0.1361  1.3002 -0.3743
27044SOL    HW285049   1.615   9.008   4.167 -0.4563  0.0450 -0.2389
27045SOL     OW85050   7.891   1.689   0.147 -0.3763 -0.3872  0.6692
27045SOL    HW185051   7.879   1.658   0.057  2.2063 -1.5632  0.6218
27045SOL    HW285052   7.845   1.772   0.151 -2.8555 -1.5780 -0.9072
27046SOL     OW85053   5.461   6.158   4.615  0.6715  0.3376 -0.4533
27046SOL    HW185054   5.406   6.095   4.662  0.1638  0.4131 -0.9474
27046SOL    HW285055   5.510   6.104   4.552  0.9214  0.3185 -0.2479
27047SOL     OW85056   4.119   6.868   6.059  0.0401 -0.1694  0.0278
27047SOL    HW185057   4.093   6.830   6.143 -0.3956 -0.4229 -0.2175
27047SOL    HW285058   4.106   6.797   5.996  1.6714 -0.4237 -0.0621
27048SOL     OW85059   4.011   3.693   0.307 -0.2157  0.0517 -0.0050
27048SOL    HW185060   3.996   3.600   0.328 -0.1294  0.4715  2.1082
27048SOL    HW285061   3.925   3.727   0.286 -0.2333 -0.5109 -0.9281
27049SOL     OW85062   2.625   5.701   8.354  1.1177  0.3275 -0.4061
27049SOL    HW185063   2.603   5.611   8.378 -2.2760  0.8951 -0.8912
27049SOL    HW285064   2.642   5.745   8.438 -1.4027  0.1341  0.2932
27050SOL     OW85065   4.600   8.646   3.875  0.0611 -0.2225 -0.2827
27050SOL    HW185066   4.686   8.603   3.884  0.6355  1.0091  0.3452
27050SOL    HW285067   4.567   8.651   3.965  0.5142  1.6212 -0.1891
27051SOL     OW85068   5.837   0.711   1.542  0.3922  0.5780  0.0128
27051SOL    HW185069   5.743   0.697   1.535  0.1173  1.1266  1.9095
27051SOL    HW285070   5.850   0.803   1.520  0.4477  0.5648 -0.0111
27052SOL     OW85071   1.241   9.612   5.560  0.4685  0.4089 -1.1541
27052SOL    HW185072   1.277   9.544   5.503  1.5388  0.5647 -0.7054
27052SOL    HW285073   1.233   9.570   5.646 -2.6863 -0.3196 -1.6994
27053SOL     OW85074   2.690   3.158   6.854  0.1787  0.1099 -0.1773
27053SOL    HW185075   2.774   3.178   6.894  0.4652  0.2637 -0.8337
27053SOL    HW285076   2.653   3.088   6.908  0.5411  0.3264  0.3523
27054SOL     OW85077   5.932  10.057   4.133 -0.4214  0.0020 -0.1704
27054SOL    HW185078   5.884   9.975   4.121  1.9890 -1.2936 -1.6267
27054SOL    HW285079   5.955  10.084   4.045  0.1950  1.4114  0.4081
27055SOL     OW85080   4.488   1.669   3.337 -0.4538  0.6534  0.4960
27055SOL    HW185081   4.442   1.749   3.312  0.9704  1.8776  1.6003
27055SOL    HW285082   4.567   1.699   3.382  0.5404 -1.3754  0.2489
27056SOL     OW85083   7.322   2.395   0.924  0.4278  0.2127 -0.0961
27056SOL    HW185084   7.227   2.389   0.912  0.3709  2.3671 -1.3590
27056SOL    HW285085   7.334   2.460   0.993  0.9840 -0.5567  0.5398
27057SOL     OW85086   0.647   5.474   0.621  0.1148  0.5535 -0.3014
27057SOL    HW185087   0.565   5.433   0.595  0.0959 -0.4979  1.3062
27057SOL    HW285088   0.647   5.559   0.576 -1.1481 -0.0315 -1.4666
27058SOL     OW85089   9.578   6.002   1.696  0.1325  0.1626 -0.2045
27058SOL    HW185090   9.614   5.915   1.679 -0.9260 -0.2199 -0.5313
27058SOL    HW285091   9.602   6.021   1.787  2.0311  0.3690 -0.6847
27059SOL     OW85092  10.186   6.923   3.197  0.0807  0.1299 -0.4986
27059SOL    HW185093  10.237   6.960   3.269  0.4352 -1.7080  0.2456
27059SOL    HW285094  10.251   6.896   3.132  0.0286 -1.3386  0.0298
27060SOL     OW85095   9.277  10.193   0.785  0.1584 -0.0138  0.3160
27060SOL    HW185096   9.314  10.106   0.802  0.1637  0.2655  1.8940
27060SOL    HW285097   9.353  10.249   0.771  0.2409  0.0732  1.0777
27061SOL     OW85098   8.056   2.585   5.495 -0.1102  0.1266 -0.5465
27061SOL    HW185099   8.147   2.574   5.467  0.0888 -0.1608  0.2031
27061SOL    HW285100   8.035   2.505   5.542 -2.3716 -2.2115 -4.8411
27062SOL     OW85101   1.625   1.235   4.126 -0.0666 -0.1393  0.3614
27062SOL    HW185102   1.539   1.222   4.167  0.5206 -1.7569  1.1563
27062SOL    HW285103   1.662   1.147   4.117  2.0876  0.5871  1.3277
27063SOL     OW85104   0.427   5.555   9.716  0.2641 -0.6217 -0.1355
27063SOL    HW185105   0.446   5.603   9.635 -0.2138 -0.1710  0.0175
27063SOL    HW285106   0.347   5.595   9.750  0.0662 -1.2769  0.1960
27064SOL     OW85107   1.847   1.185  10.178  0.5021  0.4822 -0.2007
27064SOL    HW185108   1.837   1.215  10.268 -0.3416 -2.4477  0.7878
27064SOL    HW285109   1.766   1.138  10.158  2.2497 -2.4534 -0.9578
27065SOL     OW85110   1.349   9.889   4.331 -0.0470  0.5452 -0.4296
27065SOL    HW185111   1.276   9.949   4.342 -0.1450  0.1426  1.4747
27065SOL    HW285112   1.323   9.831   4.260 -0.8101  1.4896 -0.9328
27066SOL     OW85113   1.974   4.322   2.739 -0.0183  0.1535  0.5471
27066SOL    HW185114   2.000   4.290   2.825  1.9363  0.2010  0.0318
27066SOL    HW285115   2.050   4.371   2.708 -0.1209 -0.9996 -1.7610
27067SOL     OW85116   8.057   8.379   9.261 -0.3150 -0.2387  0.1075
27067SOL    HW185117   8.017   8.460   9.295 -0.3093  0.1467 -0.7720
27067SOL    HW285118   7.986   8.335   9.215  0.0561  0.0474 -0.7636
27068SOL     OW85119   1.845   4.171   3.354  0.1896 -0.6116 -0.4210
27068SOL    HW185120   1.763   4.130   3.327  0.2064 -0.2021 -1.1280
27068SOL    HW285121   1.913   4.117   3.314  0.1935  0.9485 -2.7449
27069SOL     OW85122   4.852   8.096   7.090 -0.2900 -0.0485 -0.3253
27069SOL    HW185123   4.930   8.084   7.036  0.1895 -0.3443  0.4193
27069SOL    HW285124   4.870   8.175   7.141 -0.6287  0.0818 -0.4059
27070SOL     OW85125   9.497   8.785   0.672  0.0694 -0.1251 -0.0210
27070SOL    HW185126   9.442   8.820   0.742  1.1847  0.0896  0.7566
27070SOL    HW285127   9.473   8.693   0.666 -1.1704  0.2002 -0.4656
27071SOL     OW85128   3.474   4.578   4.687  0.0388 -0.0478  0.3123
27071SOL    HW185129   3.390   4.609   4.654  1.1685  1.6677 -1.1360
27071SOL    HW285130   3.487   4.493   4.646 -0.1782  0.5010 -0.9366
27072SOL     OW85131   9.246   2.743   3.409 -0.9689 -0.3195  0.4757
27072SOL    HW185132   9.203   2.768   3.327  0.2251  0.8235  0.1732
27072SOL    HW285133   9.238   2.647   3.411 -1.0553 -0.3690 -0.9588
27073SOL     OW85134   6.118   0.063   3.107  0.3797 -1.0029  0.2256
27073SOL    HW185135   6.205   0.084   3.074  0.3806  0.0639  0.8535
27073SOL    HW285136   6.059   0.085   3.035  0.4254  0.7963  0.6873
27074SOL     OW85137   6.110   4.624   8.941 -0.2820 -0.0133  0.6745
27074SOL    HW185138   6.174   4.674   8.889  0.0083 -1.4127 -0.3661
27074SOL    HW285139   6.149   4.619   9.028  0.2320  0.5618  0.4882
27075SOL     OW85140   9.081   5.891   3.430  0.0280 -0.0649  0.6155
27075SOL    HW185141   9.013   5.920   3.492 -2.4125  1.4942 -2.4800
27075SOL    HW285142   9.092   5.798   3.450 -1.9272 -0.0471  2.2403
27076SOL     OW85143   8.996   0.772   1.737 -0.3422  0.0179 -0.2705
27076SOL    HW185144   9.031   0.685   1.756 -0.6446  0.1980  1.2190
27076SOL    HW285145   8.905   0.768   1.764 -0.3835  0.7667 -0.2891
27077SOL     OW85146  10.023   2.524   6.071  0.6626 -0.0550  0.3078
27077SOL    HW185147  10.000   2.494   5.983  0.5923 -0.4259  0.4505
27077SOL    HW285148  10.031   2.619   6.063  0.5100 -0.0734 -0.0652
27078SOL     OW85149   4.269   1.939   7.488 -0.7260 -0.0161 -0.6301
27078SOL    HW185150   4.355   1.977   7.467  0.6549 -1.3871  1.9499
27078SOL    HW285151   4.213   1.964   7.415  2.0228  0.4259 -2.7513
27079SOL     OW85152   6.570   4.561   5.577 -0.5982  0.9085 -0.1880
27079SOL    HW185153   6.557   4.634   5.637 -0.7486  0.5975  0.1620
27079SOL    HW285154   6.524   4.488   5.618  0.4196  0.3490 -0.0131
27080SOL     OW85155   2.266   4.472   0.972  0.0357  0.5431  0.3086
27080SOL    HW185156   2.360   4.456   0.982 -0.0534  0.5381  1.2631
27080SOL    HW285157   2.248   4.453   0.880  0.7775 -0.4294  0.3436
27081SOL     OW85158  10.033   4.731   1.486 -0.3234 -0.3533 -0.2752
27081SOL    HW185159  10.049   4.695   1.399  1.7827  2.5194 -1.2753
27081SOL    HW285160   9.989   4.815   1.469 -2.1426 -0.8434  1.6577
27082SOL     OW85161   3.086   4.278   7.685  0.3450  0.3489 -0.4610
27082SOL    HW185162   3.018   4.228   7.642  0.0249  0.9755 -0.6998
27082SOL    HW285163   3.166   4.228   7.671 -0.2361 -0.9822  0.8134
27083SOL     OW85164   5.034   7.182   4.987  0.3943  0.2920 -0.2508
27083SOL    HW185165   4.993   7.256   4.942 -0.3720  0.0768  0.0697
27083SOL    HW285166   4.961   7.138   5.031  0.9298 -0.3053  0.0529
27084SOL     OW85167   0.946   8.249   1.565  0.0944 -0.5891 -0.7220
27084SOL    HW185168   0.899   8.288   1.638 -2.3115 -0.6192 -2.1340
27084SOL    HW285169   0.969   8.161   1.595 -3.2267 -1.6109 -0.7671
27085SOL     OW85170   3.133   7.121   6.265  0.2855 -0.2332  0.0315
27085SOL    HW185171   3.126   7.214   6.285  4.1314  0.4323 -0.9282
27085SOL    HW285172   3.074   7.108   6.190  1.5812  2.1231 -1.5288
27086SOL     OW85173   4.100  10.127   9.358 -0.1674  0.1052 -0.2650
27086SOL    HW185174   4.181  10.076   9.358 -1.1140 -1.4659 -0.9360
27086SOL    HW285175   4.118  10.202   9.415  1.8980  0.0433 -0.7769
27087SOL     OW85176   6.453   6.527   4.815  0.0663 -0.6477  0.0055
27087SOL    HW185177   6.527   6.588   4.812  0.9238 -1.5024  1.9689
27087SOL    HW285178   6.383   6.576   4.857 -0.1185 -0.1889 -0.8317
27088SOL     OW85179   8.582   0.026   4.618  0.2543  0.0698 -0.6824
27088SOL    HW185180   8.538   0.091   4.673  0.3474 -0.2280 -0.2489
27088SOL    HW285181   8.511  -0.024   4.579  0.1833 -0.9969  0.7209
27089SOL     OW85182   9.423   0.151   3.542  0.1748  0.8574  0.3938
27089SOL    HW185183   9.416   0.101   3.460 -0.2320  1.7347 -0.1285
27089SOL    HW285184   9.340   0.135   3.587  0.5824  0.0167  0.8476
27090SOL     OW85185   6.855   6.240   7.404 -0.3927  0.0166 -0.5000
27090SOL    HW185186   6.824   6.173   7.464  0.9508  0.8314  1.2159
27090SOL    HW285187   6.937   6.205   7.369  0.3117  0.7336  0.4012
27091SOL     OW85188   5.156   6.269   3.425 -0.2470 -0.0619 -0.1833
27091SOL    HW185189   5.093   6.225   3.482  1.6837 -1.1017  1.2676
27091SOL    HW285190   5.120   6.357   3.414 -1.5698 -0.3749  1.2289
27092SOL     OW85191   4.182   7.455   0.182 -0.0143 -0.2135 -0.1368
27092SOL    HW185192   4.182   7.509   0.103  0.2587  0.8385  0.5637
27092SOL    HW285193   4.266   7.409   0.181  0.5700  0.8348  0.2286
27093SOL     OW85194   6.929   5.792   2.250  0.1019 -0.5653 -0.0672
27093SOL    HW185195   6.872   5.755   2.183  1.9816 -0.9154 -1.5353
27093SOL    HW285196   6.902   5.747   2.331 -0.3092 -2.2561 -1.0953
27094SOL     OW85197   8.482   6.893   2.039  0.0851 -0.1435  0.0474
27094SOL    HW185198   8.412   6.955   2.019 -1.6544 -2.4784 -1.7048
27094SOL    HW285199   8.538   6.894   1.961  1.1110  0.4648  0.7553
27095SOL     OW85200   5.843   4.119   5.340  0.0172  0.7779  0.1469
27095SOL    HW185201   5.938   4.113   5.335 -0.0280 -0.3172  0.4204
27095SOL    HW285202   5.826   4.178   5.414  0.4813 -0.1122  0.9837
27096SOL     OW85203   8.254   8.205   1.991 -0.1893  0.5167  0.7504
27096SOL    HW185204   8.178   8.173   2.042 -0.9597  0.0828 -0.6191
27096SOL    HW285205   8.282   8.129   1.941  0.4682  0.9781  0.4102
27097SOL     OW85206   2.873   3.426   0.096 -0.2256 -1.0506 -0.4496
27097SOL    HW185207   2.786   3.466   0.099  0.5693  0.7598 -0.4454
27097SOL    HW285208   2.933   3.500   0.084  1.4667 -2.0340  1.4167
27098SOL     OW85209   6.640   6.150   2.025  0.0171 -0.1511 -0.3993
27098SOL    HW185210   6.630   6.081   1.959 -2.6122 -0.6193  0.3919
27098SOL    HW285211   6.552   6.186   2.035  1.0732  2.4826  0.1529
27099SOL     OW85212   1.293   0.315   3.379  0.1934 -0.5426 -0.1128
27099SOL    HW185213   1.246   0.390   3.415  0.0941 -0.6713  0.0240
27099SOL    HW285214   1.248   0.239   3.414  0.2865 -0.6677 -0.2620
27100SOL     OW85215   0.408   0.569   2.013 -0.0794 -0.3059 -0.1097
27100SOL    HW185216   0.344   0.632   2.045 -0.2973 -0.3477 -0.4571
27100SOL    HW285217   0.358   0.489   1.997 -0.3241  0.1871 -2.1291
27101SOL     OW85218   9.750   9.249   1.266 -0.0378  0.6277  0.5051
27101SOL    HW185219   9.691   9.211   1.201  0.3181 -1.6730  1.4291
27101SOL    HW285220   9.695   9.261   1.344  0.2149  0.5572  0.6931
27102SOL     OW85221   6.306   0.413   5.142 -0.1101  0.6925  0.0379
27102SOL    HW185222   6.383   0.468   5.129 -0.3515  0.7889 -1.0266
27102SOL    HW285223   6.235   0.475   5.161 -0.3930  0.7829 -1.2117
27103SOL     OW85224   0.905   1.188   8.972 -0.2254 -0.1107  0.8448
27103SOL    HW185225   0.927   1.143   8.891  1.8722  0.0384  1.2873
27103SOL    HW285226   0.979   1.246   8.989 -2.0556  2.3195  1.1824
27104SOL     OW85227   9.666   2.015   7.265  0.6295  0.5343  0.1709
27104SOL    HW185228   9.681   2.110   7.258 -0.4983  0.5849 -2.3505
27104SOL    HW285229   9.590   2.007   7.322  0.4016  1.1761 -0.0390
27105SOL     OW85230  10.027   0.369   8.970 -0.0796  0.2846  0.0394
27105SOL    HW185231  10.009   0.275   8.961  1.5080 -0.1619  1.0575
27105SOL    HW285232  10.086   0.389   8.898 -1.6445  0.9101 -1.1298
27106SOL     OW85233   6.476   2.467   8.971  0.1503 -0.2668  0.6967
27106SOL    HW185234   6.460   2.508   8.886  0.3760  1.5963  1.5054
27106SOL    HW285235   6.556   2.509   9.003 -0.1520 -0.6370  2.0040
27107SOL     OW85236   5.096   1.492   5.425  0.5247  0.0807  0.1234
27107SOL    HW185237   5.105   1.427   5.355  0.6947 -1.5718  1.6323
27107SOL    HW285238   5.009   1.530   5.411 -0.5548 -2.0823  0.5054
27108SOL     OW85239   5.656   9.783   2.688 -0.3630  0.2901 -0.5665
27108SOL    HW185240   5.669   9.778   2.783  1.1785 -0.1668 -0.7808
27108SOL    HW285241   5.670   9.694   2.657 -2.1940  0.1499 -1.1022
27109SOL     OW85242   6.936   2.005   1.815 -0.0531  0.5459  0.1080
27109SOL    HW185243   6.902   2.093   1.828  0.2484  0.8539 -1.0696
27109SOL    HW285244   6.873   1.963   1.756 -0.2603 -0.0697  0.7570
27110SOL     OW85245   3.830   4.619   0.741  0.0653  0.0338  0.1718
27110SOL    HW185246   3.858   4.689   0.800 -1.7482  1.0622 -0.1231
27110SOL    HW285247   3.793   4.664   0.665  1.9524 -1.2600 -1.6282
27111SOL     OW85248   9.914   9.584   3.761  0.2216 -0.1219  0.1762
27111SOL    HW185249   9.971   9.566   3.687 -0.6806 -0.3413 -0.4853
27111SOL    HW285250   9.970   9.574   3.838  0.9258 -0.8654 -0.4222
27112SOL     OW85251   7.462   8.801   8.110  0.1090  0.3453  0.2486
27112SOL    HW185252   7.403   8.803   8.186  0.3805  0.1141  0.4682
27112SOL    HW285253   7.538   8.852   8.138  1.9150 -2.7751  1.5736
27113SOL     OW85254   8.991   7.090   4.836  0.5536  0.4284  0.3433
27113SOL    HW185255   8.905   7.068   4.873 -0.3879 -0.5739 -2.2012
27113SOL    HW285256   9.031   7.146   4.902 -1.9151  0.6647  1.7951
27114SOL     OW85257  10.093   7.435   2.928 -0.0073 -0.0202  0.3709
27114SOL    HW185258  10.175   7.442   2.880  0.5740  0.0367  1.3641
27114SOL    HW285259  10.077   7.341   2.936  0.6465 -0.0527  1.3306
27115SOL     OW85260   9.289   5.329   4.787  0.0944  0.0449  0.1647
27115SOL    HW185261   9.344   5.400   4.754 -0.1376 -0.1989 -0.7958
27115SOL    HW285262   9.202   5.348   4.752 -0.0355 -0.5327  0.1618
27116SOL     OW85263   2.209   2.829   4.137  0.0394 -0.0463 -1.0976
27116SOL    HW185264   2.255   2.748   4.112 -1.0048 -1.2067  0.5626
27116SOL    HW285265   2.129   2.799   4.180  0.8370  1.7852  1.9332
27117SOL     OW85266   5.859   6.860   7.975 -0.9401 -0.2581  0.2999
27117SOL    HW185267   5.925   6.924   7.949 -2.4702  0.9857 -0.6894
27117SOL    HW285268   5.781   6.912   7.993 -1.4540 -1.6007  2.2827
27118SOL     OW85269   5.945   3.718   8.607 -0.0489 -0.5683 -0.1644
27118SOL    HW185270   5.896   3.758   8.679 -0.2269  0.3005 -0.7449
27118SOL    HW285271   6.028   3.766   8.605  0.3832 -1.2988  0.1230
27119SOL     OW85272   5.782   9.543   5.057 -0.4137  0.0466  0.1177
27119SOL    HW185273   5.723   9.604   5.012 -0.0865 -0.0854 -0.5044
27119SOL    HW285274   5.780   9.463   5.003 -0.1816 -0.1900  0.4548
27120SOL     OW85275   9.924   2.344   6.259 -0.3580 -0.0138 -0.2649
27120SOL    HW185276   9.934   2.423   6.207 -2.5601  1.0222  0.7674
27120SOL    HW285277   9.865   2.289   6.208  0.0761 -0.4276 -0.3343
27121SOL     OW85278   5.630   7.265   9.398 -0.2797  0.0970 -0.0854
27121SOL    HW185279   5.649   7.330   9.331  0.1397 -0.0107 -0.0762
27121SOL    HW285280   5.635   7.181   9.353  0.9074 -0.0374  0.2516
27122SOL     OW85281   0.586   1.068   2.954 -0.3165  0.3692  0.1104
27122SOL    HW185282   0.556   1.014   2.881 -0.1871  1.3571 -0.7032
27122SOL    HW285283   0.668   1.106   2.923  1.2675 -1.4263  1.8776
27123SOL     OW85284   4.051   3.216   5.247  0.1539  0.3486  0.0200
27123SOL    HW185285   4.070   3.148   5.183  1.0862 -1.1109  1.7357
27123SOL    HW285286   4.137   3.246   5.277 -0.2480  2.1425 -0.5190
27124SOL     OW85287   6.608   9.684   3.725 -0.1598 -0.1531 -0.1063
27124SOL    HW185288   6.672   9.686   3.796 -0.0521  1.6917 -0.2130
27124SOL    HW285289   6.656   9.649   3.650  0.0560 -0.9665  0.3972
27125SOL     OW85290   3.865   1.980   7.156  0.6429 -0.6438  0.7900
27125SOL    HW185291   3.922   1.936   7.092  0.6051  0.4847 -0.0362
27125SOL    HW285292   3.788   2.004   7.106  0.9554  0.9766  1.0484
27126SOL     OW85293   2.000   0.485   5.098  0.4434  0.4001  0.0158
27126SOL    HW185294   2.022   0.574   5.126 -0.6675  0.7484 -0.1522
27126SOL    HW285295   1.911   0.493   5.063  0.8215 -0.5247 -1.2250
27127SOL     OW85296   3.801   6.809   9.110  0.1594  0.8911 -0.4034
27127SOL    HW185297   3.814   6.899   9.082  1.0431  0.3240 -1.9223
27127SOL    HW285298   3.886   6.767   9.099 -0.1601 -0.0856  0.5510
27128SOL     OW85299  10.069   2.102   7.318 -0.2840 -0.0712 -0.6960
27128SOL    HW185300  10.019   2.021   7.321 -0.4932  0.0573  2.6371
27128SOL    HW285301  10.099   2.108   7.227 -0.3263 -3.8008 -1.1054
27129SOL     OW85302   2.540   0.839   8.070  0.2066 -0.1723 -0.0746
27129SOL    HW185303   2.572   0.860   8.158  2.7548 -1.6774 -0.5311
27129SOL    HW285304   2.496   0.755   8.079 -2.5528  1.2086  0.2725
27130SOL     OW85305   2.422   1.751   8.986  0.6113 -0.2747  0.1094
27130SOL    HW185306   2.512   1.739   9.015  0.6184 -0.1707  0.1302
27130SOL    HW285307   2.412   1.845   8.976 -0.1407 -0.0532  2.2739
27131SOL     OW85308   0.541   8.417   2.524  0.1335  0.0350  0.3167
27131SOL    HW185309   0.468   8.360   2.549 -1.2158  2.1296  1.4478
27131SOL    HW285310   0.524   8.439   2.433  0.0097 -0.4134  0.2283
27132SOL     OW85311   7.345   6.834   3.009 -0.2021 -0.5214 -0.0357
27132SOL    HW185312   7.437   6.857   3.017 -0.6219  0.6484  1.9754
27132SOL    HW285313   7.298   6.912   3.037 -1.8099 -1.3933 -0.1592
27133SOL     OW85314   9.568   0.726   9.658 -0.1761 -0.5359  0.1120
27133SOL    HW185315   9.547   0.665   9.728  1.0689 -0.7158  0.3496
27133SOL    HW285316   9.608   0.671   9.590 -0.2607 -0.1794 -0.2281
27134SOL     OW85317   2.510   8.888   0.381  0.0442 -0.3341 -0.4875
27134SOL    HW185318   2.445   8.824   0.411 -2.1662  1.2497 -1.6130
27134SOL    HW285319   2.527   8.943   0.457 -0.9537  0.0006 -0.4828
27135SOL     OW85320   2.598   1.783   4.598 -0.2282  0.4010 -0.2539
27135SOL    HW185321   2.549   1.764   4.678  1.0867 -1.0971  0.2398
27135SOL    HW285322   2.690   1.773   4.624  0.2219  0.0702 -1.9113
27136SOL     OW85323   1.591   3.319   5.068  0.1370  0.1651 -0.0484
27136SOL    HW185324   1.567   3.231   5.098 -0.3972  0.0361 -0.8203
27136SOL    HW285325   1.659   3.347   5.129 -0.2465 -0.4645  0.6915
27137SOL     OW85326   2.363   5.159   5.499  0.5895  0.2336 -0.3515
27137SOL    HW185327   2.316   5.186   5.578  2.4008 -0.8117  1.1804
27137SOL    HW285328   2.387   5.241   5.457  0.1104  0.8404  0.5088
27138SOL     OW85329   1.699   4.880   1.979  0.4451  0.1905 -0.2067
27138SOL    HW185330   1.768   4.915   1.922 -0.1142 -0.1224 -1.0957
27138SOL    HW285331   1.666   4.956   2.026 -1.1864  1.0606 -2.5654
27139SOL     OW85332   7.430   5.514   4.936  0.2023  0.1256  0.3367
27139SOL    HW185333   7.379   5.489   5.013  0.4278 -1.2716  0.0589
27139SOL    HW285334   7.513   5.467   4.947  0.8656  1.2037  0.0469
27140SOL     OW85335   5.154   2.216   9.511 -0.3532 -0.7304 -0.2383
27140SOL    HW185336   5.072   2.178   9.481  0.4658 -1.8546 -1.1058
27140SOL    HW285337   5.159   2.301   9.467  0.0884 -1.6935 -2.1092
27141SOL     OW85338   6.014   1.055   1.509  0.1550 -0.4093 -0.6925
27141SOL    HW185339   6.017   1.012   1.595  1.1844  2.8008  1.0244
27141SOL    HW285340   6.078   1.007   1.456  0.1558 -1.9094  0.6034
27142SOL     OW85341   1.031   0.768   0.359 -0.7627  0.4661 -0.1695
27142SOL    HW185342   1.119   0.779   0.322 -1.1146  0.4018 -1.0429
27142SOL    HW285343   1.047   0.739   0.449  0.1090 -0.0988 -0.4891
27143SOL     OW85344   2.804   3.440   1.580  0.3968 -0.0469 -0.0777
27143SOL    HW185345   2.880   3.394   1.614  1.6857  1.7372 -0.4260
27143SOL    HW285346   2.817   3.441   1.485 -1.2304 -1.6316 -0.3828
27144SOL     OW85347   7.492   9.667   5.682 -0.1537  0.2926 -0.4972
27144SOL    HW185348   7.546   9.700   5.753 -0.1242 -0.9502  0.0883
27144SOL    HW285349   7.554   9.626   5.622 -0.3430 -0.2732 -0.3120
27145SOL     OW85350   4.839   5.591   7.776  0.5777 -0.2533  0.2119
27145SOL    HW185351   4.746   5.613   7.769  0.1628 -1.6537  0.8228
27145SOL    HW285352   4.868   5.581   7.685 -0.2071 -1.0072  0.0237
27146SOL     OW85353   7.529   0.257   7.974 -0.3076  0.0220  0.0926
27146SOL    HW185354   7.501   0.323   8.037 -1.1087  0.9950 -1.2286
27146SOL    HW285355   7.518   0.174   8.020 -0.5641  0.7168  1.3339
27147SOL     OW85356   6.120   4.191   8.997  0.4066 -0.2499 -0.4566
27147SOL    HW185357   6.184   4.164   8.931  0.9640  0.3840 -0.1933
27147SOL    HW285358   6.111   4.115   9.054  1.8592  0.0359  0.2048
27148SOL     OW85359   2.177   4.678  10.011  0.5235  0.4799 -0.4823
27148SOL    HW185360   2.237   4.635   9.951  2.0188  0.2217  1.1189
27148SOL    HW285361   2.158   4.763   9.970  1.1066  0.1253 -1.5199
27149SOL     OW85362   2.145   4.584   0.216  0.6738  0.2480 -0.2168
27149SOL    HW185363   2.065   4.606   0.263  0.7911  0.7664 -0.2530
27149SOL    HW285364   2.141   4.489   0.203 -0.3675  0.3872 -1.0164
27150SOL     OW85365   8.183   0.523   2.624 -0.1153 -0.0704 -0.0256
27150SOL    HW185366   8.275   0.546   2.617 -0.4513  1.0972 -0.8991
27150SOL    HW285367   8.136   0.605   2.612 -1.2566 -0.3179  2.2830
27151SOL     OW85368   0.734   5.825   9.674  0.2505  0.0997  0.2132
27151SOL    HW185369   0.723   5.823   9.769  0.9970  1.9548  0.3613
27151SOL    HW285370   0.813   5.877   9.660  0.3702 -0.4778 -1.4235
27152SOL     OW85371  10.038   3.575   4.062 -0.0700  0.3015 -0.1898
27152SOL    HW185372   9.996   3.499   4.102 -0.0388  1.0273  1.2637
27152SOL    HW285373  10.130   3.568   4.086 -0.2181  1.2538  0.7286
27153SOL     OW85374   7.074   6.199   4.289 -0.1138  0.4061  0.6339
27153SOL    HW185375   7.058   6.118   4.336  0.6352  1.0000  1.9706
27153SOL    HW285376   7.162   6.226   4.317 -1.0377  2.5841  1.5991
27154SOL     OW85377   3.943   2.022   6.168 -0.6120 -0.0354  0.0670
27154SOL    HW185378   3.999   2.042   6.094 -1.4344 -0.5821 -0.7177
27154SOL    HW285379   3.917   1.931   6.156  0.8322 -0.8105  2.1018
27155SOL     OW85380   1.280   5.506   5.927  0.2199  0.5053 -0.4748
27155SOL    HW185381   1.359   5.540   5.970 -0.1448  1.4701 -0.5566
27155SOL    HW285382   1.293   5.411   5.926  0.2965  0.4411  1.6911
27156SOL     OW85383   5.270   7.706   8.379  0.3948 -0.0579  0.2746
27156SOL    HW185384   5.200   7.657   8.421  0.8056 -0.7328  0.1947
27156SOL    HW285385   5.239   7.722   8.290 -0.5311  1.4846  0.8394
27157SOL     OW85386   2.585   6.330   4.655 -0.0766 -0.5151 -0.3900
27157SOL    HW185387   2.542   6.304   4.736 -1.7103  1.0213 -0.7029
27157SOL    HW285388   2.672   6.360   4.683 -0.9556  0.9385  0.9843
27158SOL     OW85389   9.471   0.824   8.605  0.7241 -0.3012  0.0101
27158SOL    HW185390   9.554   0.792   8.641  0.9623 -1.4701 -1.4568
27158SOL    HW285391   9.495   0.902   8.555  0.8030 -0.1303  0.3163
27159SOL     OW85392   2.154   3.580   1.392 -0.8447 -0.5926 -0.0314
27159SOL    HW185393   2.089   3.599   1.324 -0.4869 -2.1714 -0.8649
27159SOL    HW285394   2.127   3.496   1.428 -0.3021 -0.3773  0.9102
27160SOL     OW85395   3.025   0.578   7.298  0.6217 -0.1007  0.1167
27160SOL    HW185396   2.994   0.570   7.207  0.9045  0.0711  0.0053
27160SOL    HW285397   3.078   0.500   7.312  0.7501 -0.0233  0.0654
27161SOL     OW85398   1.099   6.103   9.709 -0.5689 -0.6472 -0.0900
27161SOL    HW185399   1.071   6.188   9.673 -2.5022 -0.6602  1.2018
27161SOL    HW285400   1.038   6.087   9.781  0.4060 -2.6744  0.3482
27162SOL     OW85401   5.328   1.944   2.286  0.2915  0.0427  0.4046
27162SOL    HW185402   5.340   1.873   2.348 -0.6410 -0.8306 -0.3737
27162SOL    HW285403   5.349   1.905   2.201  3.0979  1.6305  0.2543
27163SOL     OW85404   9.897   1.282   4.960 -0.1703  0.1315  0.0046
27163SOL    HW185405   9.841   1.318   4.891 -1.3623 -1.8762 -0.1365
27163SOL    HW285406   9.870   1.191   4.968  1.1627 -0.1497  1.9211
27164SOL     OW85407   3.257   6.276   5.665  0.3142 -0.6518 -0.0774
27164SOL    HW185408   3.312   6.273   5.586  0.4503  2.4593 -0.2004
27164SOL    HW285409   3.294   6.347   5.718 -1.1907 -1.1394  1.7374
27165SOL     OW85410   1.822   7.869   0.554 -0.2472 -1.0670 -0.2269
27165SOL    HW185411   1.787   7.958   0.555 -0.2344 -1.0591 -0.5145
27165SOL    HW285412   1.903   7.875   0.605  0.0180 -0.8040 -0.6724
27166SOL     OW85413   6.258   9.093   9.617 -0.2023 -0.1703  0.0770
27166SOL    HW185414   6.310   9.116   9.694  1.0101 -0.1099 -0.7424
27166SOL    HW285415   6.214   9.174   9.591  1.6118  0.5338 -0.9524
27167SOL     OW85416   7.818   0.716   1.556  0.2093  0.5367  0.3655
27167SOL    HW185417   7.901   0.696   1.512  0.3648 -0.1386  0.9457
27167SOL    HW285418   7.841   0.717   1.649 -0.9719 -2.7109  0.8194
27168SOL     OW85419   1.370   2.485   1.766 -0.5283 -0.5048 -0.1108
27168SOL    HW185420   1.355   2.480   1.672 -2.2336  0.8874  0.0293
27168SOL    HW285421   1.369   2.579   1.785  1.3192 -0.6799  1.1082
27169SOL     OW85422   4.490   5.702   6.808  0.1299  0.1272 -0.0256
27169SOL    HW185423   4.534   5.727   6.889  0.4215 -0.9087  0.1460
27169SOL    HW285424   4.561   5.674   6.750 -0.1925 -0.4121 -0.1672
27170SOL     OW85425   1.128   5.978  10.182 -0.0067  0.3475  0.6783
27170SOL    HW185426   1.135   6.040  10.255  0.5333  0.0969  0.8428
27170SOL    HW285427   1.149   5.893  10.221 -0.8640  0.0309  0.4875
27171SOL     OW85428   8.802   7.151   2.033 -0.0572  0.4226 -0.0473
27171SOL    HW185429   8.878   7.099   2.007  0.3930  0.0773  1.8294
27171SOL    HW285430   8.800   7.223   1.970  0.7133 -0.5528 -1.2453
27172SOL     OW85431   0.314   7.718   9.070  0.1714  0.1338  0.0686
27172SOL    HW185432   0.261   7.647   9.034  1.1779  0.2302 -1.7166
27172SOL    HW285433   0.254   7.792   9.074 -0.8359 -0.7017  1.7510
27173SOL     OW85434   3.712   2.524   5.454  0.1807  0.5957  0.6323
27173SOL    HW185435   3.783   2.460   5.448 -0.6591 -0.4414  1.4221
27173SOL    HW285436   3.755   2.608   5.438  1.0505 -0.2394 -2.0640
27174SOL     OW85437   6.337   1.400   7.791  0.6906  0.0736  0.3639
27174SOL    HW185438   6.318   1.422   7.700 -0.7473 -0.0233  0.6124
27174SOL    HW285439   6.403   1.464   7.818  1.7218 -0.3778 -0.9494
27175SOL     OW85440   8.411   7.308   4.033  0.3100 -0.1662  0.0800
27175SOL    HW185441   8.381   7.297   3.942  0.8794 -0.6932 -0.0550
27175SOL    HW285442   8.333   7.335   4.081 -0.4696 -1.7880 -0.2066
27176SOL     OW85443   1.067   6.418   1.990 -0.0545  0.1860  0.4550
27176SOL    HW185444   1.005   6.430   1.918 -1.1181 -2.7536  0.7075
27176SOL    HW285445   1.123   6.345   1.961  1.5091  0.9727  1.3761
27177SOL     OW85446   6.817   1.881   7.808  0.0963  0.2697  0.5585
27177SOL    HW185447   6.810   1.898   7.901 -1.8290  0.7945  0.3745
27177SOL    HW285448   6.823   1.968   7.768 -1.0304  0.1604  0.1102
27178SOL     OW85449   7.796   0.279   3.129  0.3759  0.1737 -0.2275
27178SOL    HW185450   7.833   0.352   3.179  1.3462 -0.8119  0.5388
27178SOL    HW285451   7.843   0.280   3.047 -0.1770  0.8822 -0.5498
27179SOL     OW85452   7.430   6.983   7.407  0.1644  0.4479  0.1252
27179SOL    HW185453   7.419   7.014   7.497 -0.0653  0.2613  0.1612
27179SOL    HW285454   7.431   7.062   7.354 -0.8530  0.4965  0.1685
27180SOL     OW85455   2.256   8.669   8.668  0.5045  0.7772  0.3944
27180SOL    HW185456   2.279   8.581   8.698  0.1517  0.7896  0.7180
27180SOL    HW285457   2.325   8.726   8.701  0.8382  0.5961  0.0145
27181SOL     OW85458   3.014   3.752   4.140  0.2974 -0.6041 -0.4403
27181SOL    HW185459   3.010   3.818   4.070 -0.4476 -0.6279 -0.4372
27181SOL    HW285460   3.103   3.718   4.136  1.2037  1.4633  0.5433
27182SOL     OW85461   6.429   0.483   6.065 -0.5053 -0.7106  0.1751
27182SOL    HW185462   6.457   0.485   6.157  0.1806  0.7615 -0.0317
27182SOL    HW285463   6.376   0.404   6.058  0.2726 -1.4093  1.5912
27183SOL     OW85464   2.584   1.811   7.429 -0.6378 -0.4338 -0.2938
27183SOL    HW185465   2.573   1.751   7.503  0.2844 -1.9919 -1.3808
27183SOL    HW285466   2.500   1.810   7.384 -1.1121  0.3034  0.5442
27184SOL     OW85467   2.263   0.858  10.199  0.2352  0.2565  0.4971
27184SOL    HW185468   2.259   0.899  10.113 -0.1273 -0.1722  0.3018
27184SOL    HW285469   2.281   0.766  10.180  0.7853  0.2751  0.9113
27185SOL     OW85470   8.441   3.160   1.303  0.2505  0.2753 -0.1287
27185SOL    HW185471   8.418   3.071   1.277 -1.5110  0.7411 -0.3369
27185SOL    HW285472   8.367   3.213   1.273  0.8594  1.6836  0.7473
27186SOL     OW85473   5.902   1.541   2.016 -0.4406 -0.4349 -0.0358
27186SOL    HW185474   5.936   1.606   1.954  0.4217 -0.9733 -0.1497
27186SOL    HW285475   5.847   1.483   1.962 -0.7470 -0.1338 -0.0457
27187SOL     OW85476   1.440   1.311   5.192  0.2451  0.4944  0.1422
27187SOL    HW185477   1.490   1.326   5.112 -1.2142 -1.4556 -1.2330
27187SOL    HW285478   1.505   1.278   5.255  0.7244 -2.6786 -1.8119
27188SOL     OW85479   9.486   4.973   5.430 -0.2572 -0.0338 -0.2900
27188SOL    HW185480   9.577   4.987   5.404  0.0104 -0.6971  0.2604
27188SOL    HW285481   9.453   5.060   5.451  0.0336  0.3028 -1.1685
27189SOL     OW85482   3.613   2.476   7.823  0.6385 -0.1414  0.0294
27189SOL    HW185483   3.549   2.541   7.793  0.6916 -0.8509 -1.7245
27189SOL    HW285484   3.698   2.517   7.807  0.6611 -0.3526 -0.4002
27190SOL     OW85485   6.198   5.105   6.270 -0.0409  0.0554  0.2380
27190SOL    HW185486   6.273   5.163   6.257  0.0612 -0.3081 -0.8489
27190SOL    HW285487   6.233   5.017   6.262 -0.4507 -0.1357  0.4941
27191SOL     OW85488   3.132   3.110   4.633  0.3065  0.5450 -0.3967
27191SOL    HW185489   3.095   3.154   4.709 -0.1637  1.8949 -1.3800
27191SOL    HW285490   3.067   3.121   4.564  0.8123 -0.4835 -1.0755
27192SOL     OW85491   9.803   9.411   9.604  0.0101 -0.3112 -0.2394
27192SOL    HW185492   9.879   9.460   9.637  0.4265 -0.4704 -0.9331
27192SOL    HW285493   9.731   9.474   9.609  0.7938  0.8822 -2.3263
27193SOL     OW85494   2.764   6.506   1.837 -0.4892 -0.2624 -0.9623
27193SOL    HW185495   2.674   6.485   1.859 -0.1031 -0.2812  0.6765
27193SOL    HW285496   2.765   6.601   1.824 -0.1243  0.3447  2.5451
27194SOL     OW85497   4.320   3.708   6.146 -0.7115 -0.5482  0.1899
27194SOL    HW185498   4.380   3.640   6.115  0.9629  1.8088 -2.3605
27194SOL    HW285499   4.246   3.705   6.085 -1.2344 -0.8712  0.8369
27195SOL     OW85500   5.466   9.549   8.176 -0.5159 -0.0097  0.3969
27195SOL    HW185501   5.533   9.609   8.145  0.5710 -0.2009  2.2136
27195SOL    HW285502   5.424   9.516   8.096  1.6674 -0.0129 -0.8373
27196SOL     OW85503   1.923   1.312   5.452 -0.0146  0.2079  0.1621
27196SOL    HW185504   1.868   1.280   5.524 -0.8999 -1.1558 -1.0635
27196SOL    HW285505   1.991   1.245   5.441  1.3059  1.3593  0.9560
27197SOL     OW85506   9.915   8.233   9.447  0.0171 -0.0495  0.1654
27197SOL    HW185507   9.841   8.293   9.442  0.0846  0.0173 -0.0648
27197SOL    HW285508   9.933   8.211   9.355  1.1267  0.9684  0.1194
27198SOL     OW85509   8.737   8.547   3.560 -0.5002  0.1099 -0.1407
27198SOL    HW185510   8.722   8.635   3.527  0.1937  0.3191  0.0895
27198SOL    HW285511   8.830   8.530   3.543 -0.2088  0.0897  1.3650
27199SOL     OW85512   1.838   8.649   9.210  0.0154  0.2561  0.1627
27199SOL    HW185513   1.897   8.717   9.178 -0.5645  0.0787 -1.3673
27199SOL    HW285514   1.756   8.694   9.228 -0.5921 -0.1264 -1.5401
27200SOL     OW85515   2.484   2.079   2.249 -0.0852 -0.1480 -0.3655
27200SOL    HW185516   2.487   2.030   2.331 -1.1715  0.4418  0.0356
27200SOL    HW285517   2.420   2.148   2.264  0.6523  0.7728 -1.2740
27201SOL     OW85518   4.815   5.771   8.932  0.4016 -0.5752 -0.2284
27201SOL    HW185519   4.902   5.793   8.900 -0.4963  1.2552 -1.5814
27201SOL    HW285520   4.781   5.708   8.869  0.1542 -0.0787 -0.5910
27202SOL     OW85521   8.547   9.027   6.046  0.2807  0.3214 -0.1335
27202SOL    HW185522   8.569   8.971   5.971  0.6998 -0.1228  0.3139
27202SOL    HW285523   8.588   8.984   6.121  0.1223  0.9258  0.3080
27203SOL     OW85524   3.551   0.280   9.633  0.6360  0.8339  0.1264
27203SOL    HW185525   3.482   0.345   9.645  0.5619  1.1898 -1.8695
27203SOL    HW285526   3.615   0.300   9.701 -0.3322  1.6953  0.8144
27204SOL     OW85527   6.068   0.980   8.291  0.1814  0.1256 -0.1507
27204SOL    HW185528   6.032   0.897   8.259  1.3766 -0.4564 -0.0585
27204SOL    HW285529   6.102   1.023   8.213 -0.3786  0.5137 -0.1876
27205SOL     OW85530   6.482   5.846   9.415  0.0690  0.1410  0.3005
27205SOL    HW185531   6.457   5.768   9.464  0.8350  0.3635  1.0697
27205SOL    HW285532   6.570   5.868   9.447  0.4777  0.4536 -0.9846
27206SOL     OW85533   8.873   5.970   3.035 -0.1009  0.4668  0.0720
27206SOL    HW185534   8.923   5.943   3.112 -1.0123  0.4669  0.6906
27206SOL    HW285535   8.937   5.974   2.964  0.6806  0.0565  0.7378
27207SOL     OW85536   1.481   8.895   0.098 -0.6224 -0.6337 -0.7466
27207SOL    HW185537   1.460   8.802   0.107 -0.8330 -0.5933 -0.8023
27207SOL    HW285538   1.533   8.901   0.018  0.5591 -0.8910 -0.0139
27208SOL     OW85539   8.342   1.931   3.249 -0.9292  0.7597  0.4798
27208SOL    HW185540   8.359   1.907   3.158  0.0609  0.1971  0.7911
27208SOL    HW285541   8.348   1.848   3.297 -0.8066  1.1388  1.1393
27209SOL     OW85542   9.813   9.971   7.236  0.4249 -0.2589 -0.3256
27209SOL    HW185543   9.835  10.060   7.211 -0.5412 -0.0727 -0.5662
27209SOL    HW285544   9.755   9.940   7.167 -0.9320 -0.3266  0.7895
27210SOL     OW85545   3.351   5.683   5.227  0.3294  0.5805  0.0114
27210SOL    HW185546   3.424   5.636   5.268  1.1166 -0.0796 -2.0162
27210SOL    HW285547   3.294   5.707   5.300  1.4710 -0.8216  1.4411
27211SOL     OW85548   5.997   0.150   2.857  0.0744  0.1422  0.7411
27211SOL    HW185549   5.956   0.064   2.864  0.7127 -0.1750  0.6708
27211SOL    HW285550   6.038   0.150   2.770  0.6370  0.2656  1.0002
27212SOL     OW85551   5.775   5.198   9.799  0.3285  0.1845 -0.7568
27212SOL    HW185552   5.705   5.132   9.800  0.3059  0.2041 -0.0058
27212SOL    HW285553   5.833   5.170   9.728  1.0241 -1.4130  0.3723
27213SOL     OW85554   0.687   7.521   7.075  0.0523  0.4740  0.1690
27213SOL    HW185555   0.771   7.551   7.111  0.8461 -0.0687 -1.1692
27213SOL    HW285556   0.628   7.520   7.151  1.0800  1.4281  1.0321
27214SOL     OW85557   9.766   8.940   2.397 -0.1392  0.1728 -0.1322
27214SOL    HW185558   9.776   8.893   2.480 -1.7359  2.1003  1.2425
27214SOL    HW285559   9.722   9.021   2.420 -0.3883  0.9260 -2.8637
27215SOL     OW85560  10.095   2.672   5.478 -0.4352  0.3092  0.0909
27215SOL    HW185561  10.018   2.723   5.501 -0.4386  0.3786 -0.0740
27215SOL    HW285562  10.061   2.584   5.460 -0.2349 -0.1978  1.9727
27216SOL     OW85563   0.909   9.235   5.402 -0.3381  0.5228 -0.4077
27216SOL    HW185564   0.954   9.203   5.480  1.5756  0.6564 -1.4136
27216SOL    HW285565   0.887   9.156   5.353 -0.5676  0.5004 -0.2730
27217SOL     OW85566   8.358   1.117   6.297  0.4361 -0.8535 -0.5284
27217SOL    HW185567   8.452   1.132   6.285  0.0945  0.5210 -1.8322
27217SOL    HW285568   8.352   1.065   6.377  2.1400  2.3011  1.8984
27218SOL     OW85569   4.212   3.670   7.913  0.2728  0.4718  0.1583
27218SOL    HW185570   4.237   3.591   7.961 -0.6151  0.0840  0.0025
27218SOL    HW285571   4.277   3.676   7.843 -1.4095 -1.9712 -1.8006
27219SOL     OW85572   4.933   1.080   4.209 -0.5247  0.9618 -0.2046
27219SOL    HW185573   4.962   1.077   4.300 -0.2277  2.3103 -0.2442
27219SOL    HW285574   4.958   1.167   4.178  1.1449 -0.1139 -2.1588
27220SOL     OW85575   4.709   5.926   7.820 -0.3287  0.3402  0.1354
27220SOL    HW185576   4.796   5.910   7.783  0.1852 -0.6697  1.6776
27220SOL    HW285577   4.657   5.850   7.791 -1.1483  1.5927 -1.9151
27221SOL     OW85578   4.130   2.181   0.662 -0.4837  0.3257 -0.1068
27221SOL    HW185579   4.128   2.230   0.580  0.6753  0.9148  0.2027
27221SOL    HW285580   4.217   2.197   0.698 -0.9208 -0.0356  1.1731
27222SOL     OW85581   5.345   2.709   7.025  0.3490 -0.0477  0.0098
27222SOL    HW185582   5.255   2.738   7.010  1.2911  2.6795 -1.0585
27222SOL    HW285583   5.383   2.704   6.938  1.1539 -1.6076  0.4177
27223SOL     OW85584   1.385   6.996   5.277 -0.5229 -0.5433 -0.0552
27223SOL    HW185585   1.418   7.063   5.337 -0.1111 -0.0100 -0.8510
27223SOL    HW285586   1.460   6.975   5.221 -0.7505 -1.4177 -0.0431
27224SOL     OW85587   9.599   9.644   6.618  0.4904 -0.0407  0.3110
27224SOL    HW185588   9.636   9.666   6.703 -0.5558 -0.6336  0.9387
27224SOL    HW285589   9.516   9.600   6.638  0.2047 -0.1525 -1.0114
27225SOL     OW85590   2.527   4.432   4.813 -0.1107 -0.5355  0.0708
27225SOL    HW185591   2.462   4.494   4.781  1.4492  0.5640 -1.0811
27225SOL    HW285592   2.591   4.486   4.859  1.3567 -1.2622 -1.0771
27226SOL     OW85593   8.554   9.447   5.006 -0.4672 -0.0355 -0.5107
27226SOL    HW185594   8.528   9.425   5.095 -1.7815  0.4497 -0.7572
27226SOL    HW285595   8.570   9.541   5.009 -0.2362 -0.0685 -0.7228
27227SOL     OW85596   7.642   1.377   3.715 -0.1335 -0.4285 -0.5433
27227SOL    HW185597   7.664   1.318   3.787  1.2223  0.5233 -0.1413
27227SOL    HW285598   7.564   1.337   3.675 -0.6742 -1.2070  1.1626
27228SOL     OW85599   1.354   6.082   6.286 -0.3210 -0.1403 -0.1053
27228SOL    HW185600   1.400   5.999   6.278  0.2328  0.2612 -1.3871
27228SOL    HW285601   1.386   6.119   6.369  2.1264  0.3567 -1.1803
27229SOL     OW85602   8.090   4.862   5.991  0.1749 -1.0008 -0.0330
27229SOL    HW185603   8.027   4.792   5.978  0.4214 -1.1389 -0.5009
27229SOL    HW285604   8.073   4.923   5.919  1.1378 -1.4640 -0.6808
27230SOL     OW85605   4.699   7.939   8.586 -0.2628  0.2470 -0.2181
27230SOL    HW185606   4.650   7.878   8.531  1.1305  0.9441 -2.3715
27230SOL    HW285607   4.696   8.022   8.539  1.5467  0.7218  0.4166
27231SOL     OW85608   9.634   9.680   2.159 -0.1782  0.8130  0.3574
27231SOL    HW185609   9.663   9.699   2.248  0.9444 -3.5417  1.1713
27231SOL    HW285610   9.561   9.619   2.170  0.7729 -0.8054 -1.6113
27232SOL     OW85611   5.373   6.229   1.730  0.5678  0.2106 -0.2305
27232SOL    HW185612   5.377   6.221   1.634  0.2825  0.6557 -0.2829
27232SOL    HW285613   5.318   6.156   1.758 -2.1521  1.9638 -0.7119
27233SOL     OW85614   4.929   7.014   8.626  0.5433 -0.5521 -0.0734
27233SOL    HW185615   5.014   7.047   8.596 -0.4945  1.8602 -0.5512
27233SOL    HW285616   4.874   7.016   8.549 -0.6784  0.5407  0.7883
27234SOL     OW85617   1.178   4.391   0.385 -0.3148 -0.0888 -0.0169
27234SOL    HW185618   1.093   4.424   0.411  0.1811  0.7118  0.6408
27234SOL    HW285619   1.239   4.461   0.408  0.3716 -0.1067 -1.6762
27235SOL     OW85620   6.158   5.599   5.914 -0.4609 -0.0743  0.2446
27235SOL    HW185621   6.071   5.560   5.905 -0.7967  0.7885 -0.2654
27235SOL    HW285622   6.198   5.589   5.828 -0.4625  0.5159  0.1772
27236SOL     OW85623   3.782   5.387   7.784  0.2164 -0.4075  0.1735
27236SOL    HW185624   3.797   5.459   7.723 -1.4399 -0.4298 -0.3043
27236SOL    HW285625   3.689   5.366   7.775  0.4267 -1.9221  1.0629
27237SOL     OW85626   8.907   6.892   7.354 -0.1305  0.1846 -0.8737
27237SOL    HW185627   8.947   6.884   7.441  0.5096 -0.7347 -1.2416
27237SOL    HW285628   8.905   6.987   7.338 -2.6750  0.5899  1.2138
27238SOL     OW85629   8.252   2.168   3.464 -0.8543 -0.6727  0.2644
27238SOL    HW185630   8.287   2.090   3.421  0.1078  0.3280 -0.8178
27238SOL    HW285631   8.321   2.233   3.457 -2.3810  0.9506 -0.7194
27239SOL     OW85632   2.587   1.400   6.652 -0.0570  0.3931 -0.4430
27239SOL    HW185633   2.678   1.370   6.653  1.4313  4.3054 -1.6234
27239SOL    HW285634   2.573   1.436   6.739 -1.1279 -1.5840  0.2707
27240SOL     OW85635   7.239   8.851   8.323 -0.1766  0.3220 -0.3133
27240SOL    HW185636   7.191   8.769   8.333  1.5528 -0.5465  1.5310
27240SOL    HW285637   7.207   8.906   8.395 -2.4072  1.9713 -2.3664
27241SOL     OW85638   0.035   7.485   8.083  0.7283 -0.3806  0.5666
27241SOL    HW185639   0.074   7.420   8.024 -2.1144 -2.4523  0.7048
27241SOL    HW285640  -0.057   7.458   8.089  0.1192  1.8737  3.1654
27242SOL     OW85641   2.205   9.533   3.452 -0.0707  0.0918 -0.0639
27242SOL    HW185642   2.170   9.606   3.504  1.6423  1.0022 -0.1131
27242SOL    HW285643   2.128   9.491   3.415 -1.1299  1.6923  0.2258
27243SOL     OW85644   8.416   5.903   5.993 -0.0829  0.5027  0.0678
27243SOL    HW185645   8.333   5.883   5.949  0.6687  1.2737 -1.8617
27243SOL    HW285646   8.479   5.843   5.953  0.5902  1.0876  0.2314
27244SOL     OW85647   6.427   4.197   3.876 -0.4285  0.7348  0.1500
27244SOL    HW185648   6.496   4.198   3.810 -0.7699 -0.7843 -0.2705
27244SOL    HW285649   6.474   4.191   3.959 -0.0273 -0.2576 -0.1311
27245SOL     OW85650   7.004   6.122   1.748  0.0132 -0.2136 -0.2030
27245SOL    HW185651   7.001   6.218   1.745  0.9199 -0.0727  1.6356
27245SOL    HW285652   6.975   6.094   1.662 -2.7097  1.6430 -0.0090
27246SOL     OW85653   9.889   5.965   8.813 -0.4101  0.4994 -0.5033
27246SOL    HW185654   9.965   6.022   8.799 -0.8415  1.6714  1.5367
27246SOL    HW285655   9.831   5.984   8.740  1.0377 -0.1401 -1.8971
27247SOL     OW85656   2.944   7.769   4.508  0.1922  1.1785  0.1044
27247SOL    HW185657   2.881   7.838   4.530 -0.2598  0.2952  1.7056
27247SOL    HW285658   2.897   7.712   4.447 -0.3631  0.8507  0.8272
27248SOL     OW85659   3.495   9.991   7.570  0.2717  0.5383 -0.1315
27248SOL    HW185660   3.480  10.056   7.502  0.0971  2.3692  1.5639
27248SOL    HW285661   3.452  10.028   7.648  1.4629 -0.8918  1.2610
27249SOL     OW85662   9.701   7.224   3.027  0.3426 -0.3880  0.2007
27249SOL    HW185663   9.708   7.284   3.102  0.2186 -0.2429  0.0973
27249SOL    HW285664   9.624   7.255   2.979  0.6090 -0.2849 -0.1599
27250SOL     OW85665   1.775   6.608   0.418  0.1109  0.3043 -0.5529
27250SOL    HW185666   1.846   6.670   0.434  0.2678  0.2103 -0.8776
27250SOL    HW285667   1.812   6.523   0.439 -0.4913  0.4244  1.1381
27251SOL     OW85668   4.510   9.214   8.148  0.4999 -0.6605 -0.4231
27251SOL    HW185669   4.521   9.227   8.242  0.0646 -1.4882 -0.2458
27251SOL    HW285670   4.463   9.293   8.118  0.5386 -0.4474  0.0692
27252SOL     OW85671   3.357   6.144   5.944 -0.1933 -0.3194  0.2028
27252SOL    HW185672   3.407   6.123   5.865 -0.9718 -0.0691 -0.3717
27252SOL    HW285673   3.271   6.171   5.912  0.4381  2.9229  0.9261
27253SOL     OW85674   3.855   4.936   7.827  0.4560 -0.4036  0.1658
27253SOL    HW185675   3.912   4.962   7.755  0.8483 -0.7606  0.3461
27253SOL    HW285676   3.852   4.840   7.822  0.1628 -0.4076  0.3807
27254SOL     OW85677   0.380   9.910   2.490 -0.2562  0.0158 -0.5856
27254SOL    HW185678   0.285   9.904   2.480 -0.4987  0.2857  1.3030
27254SOL    HW285679   0.415   9.880   2.405 -1.9761 -1.4333 -0.8401
27255SOL     OW85680   8.037   7.178   4.409 -0.2581 -0.2175 -0.5901
27255SOL    HW185681   8.024   7.142   4.497  0.8145 -2.1115 -1.1533
27255SOL    HW285682   8.127   7.210   4.410 -0.9704  1.9519 -0.3267
27256SOL     OW85683   3.358   2.037   7.096  0.1546 -0.4002  0.1239
27256SOL    HW185684   3.445   2.041   7.057 -0.4786  1.4453 -1.2181
27256SOL    HW285685   3.374   2.016   7.188  1.9981 -0.2384 -0.1300
27257SOL     OW85686   7.672   0.327   4.287  0.5245  0.0992  0.1696
27257SOL    HW185687   7.644   0.238   4.309 -0.5693  1.1795  3.9776
27257SOL    HW285688   7.745   0.344   4.347 -1.5715  2.8458  2.2318
27258SOL     OW85689   2.363   5.824  10.170 -0.1259 -0.0947  0.6935
27258SOL    HW185690   2.361   5.860  10.259  0.0794  0.5860  0.4256
27258SOL    HW285691   2.367   5.729  10.184  1.6504  0.0424  1.4493
27259SOL     OW85692   6.427   4.579   9.333 -0.2709 -0.3744 -0.4826
27259SOL    HW185693   6.384   4.599   9.416 -0.8810  1.9851 -1.2819
27259SOL    HW285694   6.516   4.613   9.343  0.1096 -1.3718 -0.3333
27260SOL     OW85695   9.895   4.998   6.424 -0.7824 -0.0972 -0.6558
27260SOL    HW185696   9.912   4.939   6.497 -2.0311 -0.6890 -0.8095
27260SOL    HW285697   9.961   4.975   6.359  0.7107  0.8318  0.4821
27261SOL     OW85698   3.020   9.045   3.494  0.1944  0.0413 -0.5393
27261SOL    HW185699   3.003   9.093   3.414 -2.0228  0.5965  0.2048
27261SOL    HW285700   3.058   8.962   3.465  1.7268  1.1810 -1.9794
27262SOL     OW85701   3.174   9.322   8.826  0.0455  0.3458  0.3501
27262SOL    HW185702   3.154   9.321   8.920  0.8572 -0.0039  0.5232
27262SOL    HW285703   3.193   9.414   8.806  1.7839  0.1359  0.9455
27263SOL     OW85704   1.048   0.293  10.039 -0.0459 -0.2076  0.0156
27263SOL    HW185705   0.952   0.286  10.040 -0.0491 -0.0524  0.9191
27263SOL    HW285706   1.070   0.297   9.946 -0.9056 -0.3951 -0.2070
27264SOL     OW85707   6.242   9.839   3.471 -0.3390  0.1299 -0.4700
27264SOL    HW185708   6.213   9.811   3.385  1.2424 -0.3320 -0.8897
27264SOL    HW285709   6.265   9.758   3.517  1.9268  0.4879 -0.8242
27265SOL     OW85710  10.166   3.750   2.943 -0.5162 -0.1497 -0.1619
27265SOL    HW185711  10.160   3.819   3.010  1.3425  0.4908 -0.6103
27265SOL    HW285712  10.076   3.743   2.909 -0.9236  1.4674  0.4589
27266SOL     OW85713   5.946   2.168   6.325 -0.3194  0.1250 -0.2292
27266SOL    HW185714   5.977   2.246   6.372  2.6750 -1.3192  0.3847
27266SOL    HW285715   5.872   2.137   6.377 -0.2840  1.4294  0.6468
27267SOL     OW85716   7.102   0.441   2.867  0.4637  0.8170 -0.5506
27267SOL    HW185717   7.010   0.434   2.894  0.1492  0.5502 -1.6315
27267SOL    HW285718   7.150   0.390   2.932 -0.1802  0.7655 -0.1040
27268SOL     OW85719   4.876   7.451   5.150  0.3305 -0.0748 -0.9004
27268SOL    HW185720   4.877   7.367   5.196 -2.0977  0.3977  0.1515
27268SOL    HW285721   4.892   7.429   5.058 -1.2490 -1.8287 -0.8057
27269SOL     OW85722   6.501   3.974   7.186  0.4317  0.4340 -0.0785
27269SOL    HW185723   6.450   3.895   7.167 -0.6469  1.5368 -2.1457
27269SOL    HW285724   6.481   4.034   7.114  2.6364  1.9412  0.4417
27270SOL     OW85725   0.630   2.522   8.636 -0.1683 -0.0084 -0.2903
27270SOL    HW185726   0.624   2.434   8.600 -2.2067 -1.2573  2.7366
27270SOL    HW285727   0.587   2.578   8.570 -1.4595 -1.7372 -0.9897
27271SOL     OW85728   5.476   9.370   7.603 -0.0009 -0.4092  0.0526
27271SOL    HW185729   5.525   9.417   7.670  2.7410  1.8407 -3.2474
27271SOL    HW285730   5.503   9.279   7.613  1.4895  0.1076  1.0216
27272SOL     OW85731   1.963   1.578   6.946 -0.6530  0.2760 -0.1905
27272SOL    HW185732   1.961   1.637   7.021  0.1017  0.8332 -0.5987
27272SOL    HW285733   1.875   1.542   6.942 -0.6539  0.0680  1.0923
27273SOL     OW85734   1.170   2.852   4.054 -0.1724 -0.2388 -0.0814
27273SOL    HW185735   1.176   2.919   3.987 -0.1355  0.2801  0.4328
27273SOL    HW285736   1.163   2.900   4.136 -0.7633 -0.8597  0.2451
27274SOL     OW85737   2.656   5.690   2.984 -0.0447 -0.5655 -0.4607
27274SOL    HW185738   2.736   5.638   2.995 -0.2099 -0.4236  2.1380
27274SOL    HW285739   2.687   5.775   2.952  0.9677 -0.3295  1.0325
27275SOL     OW85740   7.629   1.095   8.462 -0.7164  0.1659  0.5101
27275SOL    HW185741   7.708   1.132   8.422 -0.6150 -0.5629  0.0173
27275SOL    HW285742   7.591   1.168   8.512 -1.5421  1.5077 -1.8821
27276SOL     OW85743   0.949   8.800   6.195 -0.4104  0.3190 -0.3726
27276SOL    HW185744   1.002   8.724   6.219 -1.6873 -0.4698  0.0378
27276SOL    HW285745   0.859   8.769   6.197 -0.9091  1.6109 -1.1190
27277SOL     OW85746   7.950   0.228   6.211 -0.1845 -0.0480 -0.6117
27277SOL    HW185747   7.925   0.240   6.120  0.0265  1.5767 -0.4866
27277SOL    HW285748   8.009   0.153   6.211 -1.3264 -0.9833 -1.5802
27278SOL     OW85749   3.051   6.191   2.908 -0.4024 -0.0423 -0.1954
27278SOL    HW185750   3.000   6.176   2.988  1.5203 -0.2132  1.0511
27278SOL    HW285751   3.099   6.272   2.925 -0.3235  0.1748 -1.3831
27279SOL     OW85752   7.544   4.370   6.261 -0.5703  0.5277  0.0232
27279SOL    HW185753   7.610   4.312   6.299 -0.8848 -1.2394 -1.8993
27279SOL    HW285754   7.594   4.439   6.218 -0.0001 -0.0943 -0.3362
27280SOL     OW85755   4.147   9.337   9.301  0.1364 -0.2784 -0.2016
27280SOL    HW185756   4.144   9.433   9.310 -0.6006 -0.2523 -0.5897
27280SOL    HW285757   4.079   9.306   9.361  0.9023 -0.6124  0.5027
27281SOL     OW85758   9.340   4.004   1.397 -0.8509 -0.1213  0.0234
27281SOL    HW185759   9.359   4.090   1.360 -1.3546 -0.0027  0.0406
27281SOL    HW285760   9.325   3.947   1.322 -0.9605 -0.0906  0.0216
27282SOL     OW85761   8.416   2.846   9.665 -0.0017 -0.3301 -0.1864
27282SOL    HW185762   8.435   2.935   9.636 -0.5646 -0.0508  0.2777
27282SOL    HW285763   8.503   2.807   9.682  0.3615 -0.5651 -2.3225
27283SOL     OW85764   0.073   4.858   2.149  0.5097  0.0992 -0.1454
27283SOL    HW185765  -0.015   4.851   2.186  0.2868 -1.4122 -0.8882
27283SOL    HW285766   0.099   4.949   2.166 -1.3164  0.6731 -0.2265
27284SOL     OW85767   1.975   4.752   6.706 -0.5479 -0.7150  0.0209
27284SOL    HW185768   1.974   4.802   6.788  0.1911 -0.2826 -0.2302
27284SOL    HW285769   2.059   4.706   6.707 -0.0226  0.1950 -1.0260
27285SOL     OW85770   4.309   9.182   2.864  0.2340  0.1998 -0.0937
27285SOL    HW185771   4.232   9.158   2.917  1.7006 -3.1724  0.7808
27285SOL    HW285772   4.313   9.277   2.870 -1.8230  0.2496  2.8634
27286SOL     OW85773   2.140   5.520   8.183 -0.1680 -0.1361 -0.1059
27286SOL    HW185774   2.161   5.463   8.257 -0.1474 -0.7096 -0.5386
27286SOL    HW285775   2.063   5.479   8.143  0.6419 -0.6339 -1.2103
27287SOL     OW85776   3.782   3.904   2.856  0.1488 -0.3591  0.3765
27287SOL    HW185777   3.770   3.864   2.942  0.3225  1.6770  1.4020
27287SOL    HW285778   3.712   3.968   2.849 -0.3047 -0.9881 -1.3517
27288SOL     OW85779   7.155   2.951   8.479  0.3687 -0.3511 -0.4121
27288SOL    HW185780   7.113   2.884   8.533  1.2954 -0.9195 -0.3646
27288SOL    HW285781   7.210   3.000   8.540 -0.9073  1.0116 -0.2940
27289SOL     OW85782   5.381   4.545   8.049 -0.0494 -0.4662  0.2874
27289SOL    HW185783   5.298   4.508   8.078  0.1486 -0.6033  0.6809
27289SOL    HW285784   5.368   4.562   7.955 -1.2782  1.5339  0.7621
27290SOL     OW85785   2.675   7.817   7.240 -0.1049 -0.4301  0.0848
27290SOL    HW185786   2.709   7.760   7.171  2.1830 -0.1078  0.8515
27290SOL    HW285787   2.708   7.904   7.218 -1.6893  0.2141  0.1266
27291SOL     OW85788   9.063   5.803  10.111  0.1105  0.1958 -0.7005
27291SOL    HW185789   8.999   5.788  10.181 -1.3989 -0.9545 -2.2378
27291SOL    HW285790   9.065   5.899  10.101  0.4776  0.3941  0.9781
27292SOL     OW85791   2.934   6.047   7.123 -0.3682 -0.2122 -0.1272
27292SOL    HW185792   2.893   6.011   7.044 -0.0314 -0.5362 -0.1563
27292SOL    HW285793   2.875   6.020   7.194 -0.3870 -0.3879 -0.2085
27293SOL     OW85794   2.600   4.431   0.271 -0.6701  0.8996 -0.5367
27293SOL    HW185795   2.577   4.346   0.234  0.5584  0.0921  0.5070
27293SOL    HW285796   2.535   4.491   0.233 -3.0016 -0.8497  0.4373
27294SOL     OW85797   4.156   4.978   2.976 -0.1536 -0.2643 -0.8895
27294SOL    HW185798   4.242   4.938   2.960 -0.5144 -0.3553 -2.9051
27294SOL    HW285799   4.167   5.069   2.951 -0.0155  0.3685  1.2838
27295SOL     OW85800   3.906   8.107   1.825 -0.5581  0.1484 -0.0229
27295SOL    HW185801   3.936   8.019   1.803 -1.4077 -0.8259  2.4215
27295SOL    HW285802   3.967   8.137   1.893  0.5955  2.1061 -1.7728
27296SOL     OW85803   9.714   5.499   4.850 -0.2017 -0.5499 -0.0495
27296SOL    HW185804   9.635   5.528   4.805 -0.2002 -1.0472 -0.3843
27296SOL    HW285805   9.785   5.523   4.790 -0.2270 -1.5397 -0.5014
27297SOL     OW85806   5.766   8.201   5.789 -0.2106 -0.0846 -0.2661
27297SOL    HW185807   5.812   8.254   5.724 -0.9419  0.5336 -0.2932
27297SOL    HW285808   5.752   8.261   5.863 -1.2091 -0.1699 -0.3722
27298SOL     OW85809   8.885   7.752   9.739 -0.2760  0.1171 -0.6521
27298SOL    HW185810   8.819   7.683   9.738  1.2693 -1.7503  3.1467
27298SOL    HW285811   8.841   7.827   9.777 -0.3959 -1.1128  1.8619
27299SOL     OW85812  10.200   6.252   5.147  0.6868  0.3524 -0.1411
27299SOL    HW185813  10.209   6.340   5.110 -0.7441  1.1384  1.2509
27299SOL    HW285814  10.290   6.225   5.166  1.1706  1.3880 -0.8207
27300SOL     OW85815   6.804   2.322   6.946 -0.0018 -0.8902 -0.1969
27300SOL    HW185816   6.881   2.361   6.987  0.1861 -1.1086 -0.3408
27300SOL    HW285817   6.838   2.246   6.897 -0.5178 -1.9737  1.0683
27301SOL     OW85818   9.802   7.480   6.863 -0.4209  0.1410  0.2933
27301SOL    HW185819   9.874   7.516   6.810 -1.1867 -1.6202 -2.1224
27301SOL    HW285820   9.803   7.532   6.943  2.3361  1.4130 -0.4413
27302SOL     OW85821   8.704   1.850   0.521 -0.5946 -0.1005  0.1678
27302SOL    HW185822   8.681   1.854   0.429  0.7712 -1.1466 -0.2516
27302SOL    HW285823   8.723   1.941   0.545  0.8912 -0.0222 -1.1131
27303SOL     OW85824   7.562   1.528   2.667 -0.0639  0.3263 -0.1123
27303SOL    HW185825   7.587   1.452   2.615  0.1823  0.4816 -0.2223
27303SOL    HW285826   7.466   1.526   2.667 -0.0649 -0.4358  0.5531
27304SOL     OW85827   8.002   2.818   4.698  0.3233  0.1886  0.0849
27304SOL    HW185828   8.090   2.809   4.733 -0.0169 -0.5471  0.8063
27304SOL    HW285829   8.001   2.903   4.655  1.8227 -0.4130 -1.2325
27305SOL     OW85830   0.368   7.554   0.001 -0.0416  0.4690  0.2161
27305SOL    HW185831   0.455   7.565   0.039 -1.0972 -2.4895  4.1645
27305SOL    HW285832   0.309   7.593   0.066 -1.8241 -1.3658 -0.2067
27306SOL     OW85833   6.355   8.687   1.420 -0.0206 -0.3129  0.0535
27306SOL    HW185834   6.265   8.682   1.388 -0.0682 -1.3024  0.3208
27306SOL    HW285835   6.367   8.779   1.443 -1.4894 -0.4643  1.5408
27307SOL     OW85836   8.898   6.604   2.873  0.1585  0.3124 -0.4638
27307SOL    HW185837   8.952   6.528   2.854  0.4923  0.5571 -0.4969
27307SOL    HW285838   8.920   6.668   2.806  2.2543  1.6395  1.3607
27308SOL     OW85839   5.824   7.243   4.189 -0.3979 -0.4731 -0.2010
27308SOL    HW185840   5.840   7.323   4.139  0.6346 -0.8518 -0.5096
27308SOL    HW285841   5.740   7.211   4.157 -1.5871  1.2722  1.0040
27309SOL     OW85842   9.086   9.236   3.949 -0.4255  0.3187  0.3215
27309SOL    HW185843   9.117   9.243   4.040 -0.5348 -1.1668  0.4968
27309SOL    HW285844   8.992   9.249   3.955 -0.2654  1.6855  0.2050
27310SOL     OW85845   5.556   7.449   4.798 -0.0633 -0.5317  0.0266
27310SOL    HW185846   5.488   7.388   4.769  0.6090 -1.8643  1.1132
27310SOL    HW285847   5.542   7.457   4.892 -1.4648  2.7534 -0.3241
27311SOL     OW85848   5.367   6.063   9.216  0.2636 -0.4873  0.0284
27311SOL    HW185849   5.274   6.043   9.211  0.2004 -0.2113  0.0548
27311SOL    HW285850   5.411   5.979   9.203  0.0058 -1.2764  3.4824
27312SOL     OW85851   7.027   1.192  10.191 -0.1502 -0.3226  0.0576
27312SOL    HW185852   7.088   1.187  10.265  1.7860 -2.2027 -1.5371
27312SOL    HW285853   7.061   1.265  10.139 -2.2170  1.8007  1.4677
27313SOL     OW85854   5.127   1.106   9.830 -0.0373 -0.3817 -0.2918
27313SOL    HW185855   5.068   1.035   9.853  1.2930 -1.0213  1.3659
27313SOL    HW285856   5.159   1.139   9.914  0.5132  1.1930 -1.0792
27314SOL     OW85857   2.854   1.755   4.743  0.2586  0.1831  0.2053
27314SOL    HW185858   2.866   1.700   4.820 -1.6218  2.7250  2.4892
27314SOL    HW285859   2.899   1.837   4.764 -0.5688  1.0645 -1.2622
27315SOL     OW85860   8.828   7.130   1.107  0.3682  0.7389 -0.2662
27315SOL    HW185861   8.760   7.093   1.163  0.3167 -0.2997 -0.9757
27315SOL    HW285862   8.907   7.080   1.128  0.2937  0.1743 -1.2557
27316SOL     OW85863   2.034   6.528   2.527 -0.5079  0.1818  0.0352
27316SOL    HW185864   1.959   6.498   2.579  0.2767  0.0192  1.1018
27316SOL    HW285865   2.026   6.623   2.526 -0.5735  0.1825  0.3917
27317SOL     OW85866   7.716   7.350   9.523  0.0602 -0.6049  0.1306
27317SOL    HW185867   7.765   7.415   9.572 -0.3184 -2.1572  2.7473
27317SOL    HW285868   7.782   7.306   9.469  1.1939 -1.1108  1.8447
27318SOL     OW85869   2.579   2.465   5.479  0.5878  0.3949 -0.4334
27318SOL    HW185870   2.622   2.467   5.393 -0.0843  2.6134 -0.8013
27318SOL    HW285871   2.612   2.543   5.524  0.2464 -0.2517  0.9899
27319SOL     OW85872   3.530   0.355   2.419  0.1611 -0.0018 -0.7198
27319SOL    HW185873   3.499   0.272   2.456  1.5555 -0.4950 -0.6090
27319SOL    HW285874   3.532   0.339   2.325  0.0224  0.0591 -0.7338
27320SOL     OW85875   4.687   1.384   8.807  0.5794 -0.3140  0.3510
27320SOL    HW185876   4.732   1.410   8.888  1.6414  1.5428 -0.7717
27320SOL    HW285877   4.720   1.444   8.741 -2.5586  0.2290 -0.8794
27321SOL     OW85878   2.879   7.923   3.662 -0.2441  0.6895  0.3228
27321SOL    HW185879   2.958   7.960   3.701 -1.0858  2.3448  0.5278
27321SOL    HW285880   2.885   7.829   3.681  0.7901  1.0303  1.9022
27322SOL     OW85881   7.940   5.975   3.104  0.0853  0.8593  0.5387
27322SOL    HW185882   8.026   5.951   3.139  0.0706  1.4478  0.9920
27322SOL    HW285883   7.881   5.970   3.178 -0.1109  1.2733  0.4170
27323SOL     OW85884   3.479   3.591   8.238  0.1699  0.0535  0.0269
27323SOL    HW185885   3.386   3.601   8.219  0.4334  1.5667 -0.5805
27323SOL    HW285886   3.498   3.499   8.217 -1.1175 -0.2084 -0.0679
27324SOL     OW85887   5.666   0.060   9.403  0.0975  0.9673  0.2522
27324SOL    HW185888   5.694   0.070   9.312 -2.4550  0.4957 -0.6533
27324SOL    HW285889   5.741   0.021   9.447  0.4640 -1.4916 -2.2821
27325SOL     OW85890   2.162   0.521   9.883  0.0569  0.2498  0.7642
27325SOL    HW185891   2.223   0.562   9.821 -0.3417  1.8410  1.3866
27325SOL    HW285892   2.118   0.454   9.831  0.9298  0.3982 -0.2221
27326SOL     OW85893   3.057   4.558   4.731  0.0336 -0.0728  0.3058
27326SOL    HW185894   2.996   4.606   4.675  1.9247  2.1258  0.0289
27326SOL    HW285895   3.054   4.604   4.815  2.4013  1.1039 -0.1804
27327SOL     OW85896   5.677   9.539   2.857  0.0755 -0.1993 -0.6788
27327SOL    HW185897   5.673   9.445   2.874  3.4380 -0.3360  0.2474
27327SOL    HW285898   5.611   9.578   2.914 -1.1332 -1.9406 -0.8316
27328SOL     OW85899  10.139   0.350   4.518 -0.4138 -0.0927 -0.1282
27328SOL    HW185900  10.109   0.404   4.444 -1.5428  0.1309  0.4636
27328SOL    HW285901  10.179   0.274   4.477  1.6085  1.3370 -1.0080
27329SOL     OW85902   5.197   0.433   2.922 -0.2268 -0.2656  0.3891
27329SOL    HW185903   5.282   0.405   2.956 -0.4684  1.1798  2.3037
27329SOL    HW285904   5.145   0.352   2.920  1.1450 -1.1774 -0.8603
27330SOL     OW85905   2.237   9.480   7.591  0.2769  0.2000 -0.0859
27330SOL    HW185906   2.265   9.393   7.563  1.1581  0.9277 -1.6194
27330SOL    HW285907   2.154   9.465   7.637  0.4393 -1.4419 -0.2571
27331SOL     OW85908   5.624   9.651   6.581  0.5142  0.2298 -0.4131
27331SOL    HW185909   5.702   9.677   6.533  1.2420  0.4258  0.8236
27331SOL    HW285910   5.557   9.638   6.514  1.2333  1.3645 -1.3912
27332SOL     OW85911   2.907   5.941   0.201  0.0841 -0.5383 -0.0817
27332SOL    HW185912   2.825   5.975   0.236  0.7484  2.3444 -1.0295
27332SOL    HW285913   2.967   5.945   0.276 -0.2591 -1.3208  0.2492
27333SOL     OW85914   6.426   2.686   2.138 -0.5066  0.1232 -0.1541
27333SOL    HW185915   6.466   2.772   2.125 -2.2968  0.9751 -0.3553
27333SOL    HW285916   6.368   2.676   2.062  0.9480 -2.0634 -1.0617
27334SOL     OW85917   2.257   9.766   9.834 -0.3761  0.1106  0.2926
27334SOL    HW185918   2.344   9.768   9.793 -0.1279 -1.8869  0.5974
27334SOL    HW285919   2.233   9.858   9.843  1.1835  0.6909 -0.8944
27335SOL     OW85920   9.267   3.228   3.052 -0.4026 -0.1887  0.3990
27335SOL    HW185921   9.305   3.174   2.982  0.1820 -1.4939  1.6570
27335SOL    HW285922   9.296   3.317   3.032  0.9955 -0.7489 -0.2210
27336SOL     OW85923   0.211   5.035   3.767 -0.2689 -0.6162  0.4253
27336SOL    HW185924   0.294   5.077   3.789  0.3437 -1.6940  0.2189
27336SOL    HW285925   0.198   5.056   3.674  1.0187 -2.4458 -0.2183
27337SOL     OW85926   8.175   7.834   5.311  0.4733  0.3516 -0.2642
27337SOL    HW185927   8.237   7.773   5.270  1.8069  1.1515  0.5019
27337SOL    HW285928   8.094   7.821   5.262  1.0887 -1.0968 -0.9681
27338SOL     OW85929   1.080   8.934   4.773  0.5788 -0.1059  0.5651
27338SOL    HW185930   1.003   8.982   4.804  0.2576  0.5965 -1.1695
27338SOL    HW285931   1.054   8.903   4.686  3.1227  2.4644 -1.2820
27339SOL     OW85932   4.244   6.487   5.908 -0.0257  0.4108  0.3932
27339SOL    HW185933   4.316   6.424   5.916 -0.0904  0.2654 -0.1331
27339SOL    HW285934   4.288   6.572   5.900  0.1862  0.1610 -1.7878
27340SOL     OW85935   9.034   9.810   2.156 -0.5329  0.2239  0.0033
27340SOL    HW185936   9.098   9.752   2.115  0.0259  1.3775 -0.8296
27340SOL    HW285937   9.037   9.889   2.102 -1.5473  0.8777  0.8818
27341SOL     OW85938   2.854   2.506   6.520  0.1438 -0.5110  0.8280
27341SOL    HW185939   2.854   2.536   6.611  0.1297 -1.5335  1.1798
27341SOL    HW285940   2.764   2.480   6.503  0.4101 -1.6460  1.0023
27342SOL     OW85941   1.799   6.645   9.599  0.3766  0.4519 -0.1916
27342SOL    HW185942   1.814   6.718   9.659  0.1592  0.0680  0.3352
27342SOL    HW285943   1.881   6.636   9.550  0.5945  0.6941  0.1289
27343SOL     OW85944   6.224   0.995   8.042 -0.5438  0.4654  0.0364
27343SOL    HW185945   6.293   1.053   8.075 -0.5253  0.9371 -0.7976
27343SOL    HW285946   6.269   0.937   7.981 -0.6531 -0.1151  0.4962
27344SOL     OW85947   7.523   6.546   8.128 -0.0313 -0.3033  0.2829
27344SOL    HW185948   7.463   6.608   8.169 -0.8856 -0.7002 -0.3221
27344SOL    HW285949   7.563   6.596   8.056 -1.1934 -0.6044 -0.6054
27345SOL     OW85950   1.408   5.071   8.742 -1.0140  0.3311  0.1046
27345SOL    HW185951   1.425   5.146   8.685  1.6066  0.5944  1.0940
27345SOL    HW285952   1.324   5.091   8.783 -1.3561  1.7293 -1.1737
27346SOL     OW85953   6.442   9.980   7.944  0.0918 -0.0948  0.1721
27346SOL    HW185954   6.409  10.061   7.904  1.6666  0.9926  0.9609
27346SOL    HW285955   6.416   9.986   8.036 -0.2517 -0.7728  0.1293
27347SOL     OW85956   9.505   7.817   0.845  0.3690  0.1402  0.1731
27347SOL    HW185957   9.571   7.865   0.795  0.8036 -1.2318 -0.5907
27347SOL    HW285958   9.433   7.803   0.783  0.8558 -1.4508 -0.0687
27348SOL     OW85959   0.378   8.327   2.770  0.2661  0.1952 -0.7421
27348SOL    HW185960   0.330   8.251   2.738  0.1665 -0.0140 -0.1048
27348SOL    HW285961   0.460   8.292   2.803  0.5148  0.4525 -1.0821
27349SOL     OW85962   2.966   9.149   6.098 -0.0152 -0.3581  0.4679
27349SOL    HW185963   3.028   9.081   6.070 -0.0916 -0.5651  0.7916
27349SOL    HW285964   3.013   9.197   6.166 -0.3008 -0.6795  0.8993
27350SOL     OW85965   1.811   2.199   3.380 -0.0698  0.2758  0.2753
27350SOL    HW185966   1.766   2.117   3.399 -0.0379  0.1225 -0.2976
27350SOL    HW285967   1.793   2.216   3.287  0.5697  0.5089  0.1827
27351SOL     OW85968   8.982   3.677   1.701  0.3429 -0.1985  0.4814
27351SOL    HW185969   9.070   3.708   1.677  0.2621 -0.5485 -0.3014
27351SOL    HW285970   8.960   3.727   1.780  1.1087  0.1361  0.4954
27352SOL     OW85971   8.649   1.846  10.184  0.1130 -0.8194  0.0967
27352SOL    HW185972   8.697   1.797  10.117  0.2406 -0.2104 -0.2565
27352SOL    HW285973   8.557   1.831  10.164 -0.1705  3.7289 -3.6847
27353SOL     OW85974   5.491   4.209   5.450 -0.6502  0.5978 -0.3997
27353SOL    HW185975   5.489   4.241   5.359  1.8609  0.4878 -0.5515
27353SOL    HW285976   5.568   4.252   5.488 -1.9500  1.0479  1.8725
27354SOL     OW85977   1.629   9.203   7.803 -0.1154  0.5364 -0.5463
27354SOL    HW185978   1.617   9.112   7.774  0.3395  0.6001 -0.9402
27354SOL    HW285979   1.709   9.201   7.856 -0.4597  0.5869 -0.0187
27355SOL     OW85980   1.274   7.419   1.181 -0.0438  0.3962 -0.3315
27355SOL    HW185981   1.268   7.364   1.258 -1.4805 -0.4730 -1.0355
27355SOL    HW285982   1.336   7.374   1.123  0.0289  0.3776 -0.2393
27356SOL     OW85983   7.537   9.129   9.067  0.0901 -0.3800 -0.1147
27356SOL    HW185984   7.511   9.186   8.995 -0.3446  1.5668  1.4883
27356SOL    HW285985   7.633   9.131   9.065  0.0882  0.8985  0.2574
27357SOL     OW85986   3.552   9.149   4.601  0.7873  0.0062 -0.1083
27357SOL    HW185987   3.608   9.225   4.584  0.0824  0.4733 -0.3498
27357SOL    HW285988   3.557   9.136   4.696  1.7696 -0.3277 -0.1845
27358SOL     OW85989   1.537   3.513   0.430 -0.1023 -0.2506 -0.4742
27358SOL    HW185990   1.465   3.570   0.403 -0.9684 -0.0772  1.8965
27358SOL    HW285991   1.517   3.428   0.393 -0.2928  0.3289 -1.7299
27359SOL     OW85992   7.619   6.889   9.905 -0.1690 -0.0075  0.3638
27359SOL    HW185993   7.626   6.860   9.814 -1.4435  1.4719 -0.2457
27359SOL    HW285994   7.650   6.979   9.903  0.6357 -0.2366  1.5907
27360SOL     OW85995   9.888   9.750   5.472 -0.3181 -0.1715  0.2420
27360SOL    HW185996   9.924   9.700   5.545 -0.3364  1.4954  1.4629
27360SOL    HW285997   9.798   9.769   5.498 -1.0000 -1.2243 -1.1554
27361SOL     OW85998   2.708   2.077   0.585 -0.1211 -0.4613 -0.1451
27361SOL    HW185999   2.689   2.092   0.678  0.8236 -3.3903  0.6208
27361SOL    HW286000   2.772   2.145   0.563  2.0963 -1.5940  2.2995
27362SOL     OW86001   8.096   8.677   4.873 -0.0046 -0.0074  0.4066
27362SOL    HW186002   8.094   8.756   4.926 -3.3782  0.0775  0.3280
27362SOL    HW286003   8.062   8.704   4.788  2.2073 -0.8649 -0.8556
27363SOL     OW86004   2.904   1.412   9.795 -0.7140  0.0500  0.1971
27363SOL    HW186005   2.956   1.492   9.792 -1.8648  0.8626  1.1586
27363SOL    HW286006   2.907   1.385   9.887 -1.1536 -0.4557  0.0658
27364SOL     OW86007  10.196   5.798   5.380  0.1137  0.2690  1.0497
27364SOL    HW186008  10.241   5.717   5.403  0.0506 -0.3170 -0.7135
27364SOL    HW286009  10.114   5.795   5.429  1.2525  0.6129  3.1026
27365SOL     OW86010   0.814   7.716   7.526  0.1687 -0.1358 -0.4646
27365SOL    HW186011   0.839   7.808   7.519 -1.2433  0.2315 -1.0824
27365SOL    HW286012   0.838   7.691   7.615 -1.0161  1.3363  0.3031
27366SOL     OW86013   0.629   6.042   4.550 -0.1554  0.1618  0.6083
27366SOL    HW186014   0.562   6.089   4.599  1.0390  2.0519  0.5106
27366SOL    HW286015   0.708   6.050   4.603  1.0211  1.6983 -1.2401
27367SOL     OW86016   0.791   9.079   3.577 -0.0256  0.1941 -1.2971
27367SOL    HW186017   0.698   9.061   3.595  0.4150  0.6042  2.1678
27367SOL    HW286018   0.832   8.993   3.578 -0.0999  0.1623 -0.8143
27368SOL     OW86019   7.979   0.358   2.621  0.5897 -0.1759  0.2900
27368SOL    HW186020   8.021   0.273   2.628  0.2352 -0.3673  0.0967
27368SOL    HW286021   8.051   0.421   2.628  0.7796 -0.4698  1.0938
27369SOL     OW86022   5.691   1.495   4.683 -0.3990 -0.1857 -0.4818
27369SOL    HW186023   5.746   1.470   4.609 -1.5073 -0.3256 -1.2808
27369SOL    HW286024   5.628   1.556   4.646 -1.8524 -1.3249  0.0404
27370SOL     OW86025   3.252   0.600   0.645 -0.6212 -0.0111  0.2450
27370SOL    HW186026   3.285   0.668   0.586 -1.8864 -0.1339 -0.6627
27370SOL    HW286027   3.262   0.636   0.732 -0.8116  1.1554 -0.1947
27371SOL     OW86028   3.326   9.890   1.219  0.3438  0.1579 -0.0194
27371SOL    HW186029   3.374   9.934   1.289 -0.3777 -0.8505  1.1434
27371SOL    HW286030   3.394   9.860   1.158  1.0759  0.0463  0.8376
27372SOL     OW86031   9.028   1.614   3.603  0.2996 -0.5451  0.2815
27372SOL    HW186032   9.008   1.703   3.632  1.6112 -0.5580  1.3451
27372SOL    HW286033   9.121   1.603   3.623 -0.2413 -2.7991  2.0300
27373SOL     OW86034   3.747   7.816   6.312  0.3725  0.4031  0.1236
27373SOL    HW186035   3.741   7.791   6.220 -0.3542  2.0010 -0.3063
27373SOL    HW286036   3.840   7.816   6.331  0.4671 -1.2127 -0.2176
27374SOL     OW86037   4.495   2.020   6.333  0.0153  0.3595 -0.3882
27374SOL    HW186038   4.500   1.925   6.319 -0.2307  0.6067 -2.6206
27374SOL    HW286039   4.531   2.034   6.420 -1.0344 -1.8967  0.4768
27375SOL     OW86040   4.630   9.777   7.585 -0.3870 -0.0519  0.3733
27375SOL    HW186041   4.658   9.697   7.541 -1.0617 -0.2538  0.3051
27375SOL    HW286042   4.534   9.772   7.585 -0.4457  0.9063  0.0851
27376SOL     OW86043   9.126   6.587   8.058 -0.1643 -0.5263 -0.0073
27376SOL    HW186044   9.092   6.573   7.969  0.4069 -0.8472 -0.1774
27376SOL    HW286045   9.193   6.520   8.068  0.3311  0.0271  0.3779
27377SOL     OW86046   4.863   7.089   7.002 -0.4704  0.1163 -0.9146
27377SOL    HW186047   4.856   7.039   7.084 -1.6287  0.8712 -0.5368
27377SOL    HW286048   4.825   7.032   6.936 -1.4139  0.3182 -0.5572
27378SOL     OW86049   4.587   0.057   6.007  0.0859  0.5795  0.0973
27378SOL    HW186050   4.523  -0.001   5.966  0.4694  0.7051 -0.7085
27378SOL    HW286051   4.541   0.141   6.017  0.4013  0.9761 -1.4202
27379SOL     OW86052   6.279   7.396   4.103  0.2198 -0.0257  0.6706
27379SOL    HW186053   6.232   7.476   4.127 -0.5754 -0.4476  0.5608
27379SOL    HW286054   6.361   7.401   4.152 -0.1918  0.4425  1.3393
27380SOL     OW86055   0.679   1.322   5.606  0.2527  0.1194 -0.3676
27380SOL    HW186056   0.743   1.337   5.675  1.1547  1.0237 -1.3680
27380SOL    HW286057   0.699   1.234   5.574  2.2985  1.0701 -1.9354
27381SOL     OW86058   6.595   7.730   0.748  0.3074 -0.2543 -0.6947
27381SOL    HW186059   6.647   7.656   0.779 -0.2151 -0.7144 -0.8865
27381SOL    HW286060   6.617   7.802   0.806 -0.6514 -1.0850  0.7510
27382SOL     OW86061   9.287   0.028   2.577  0.0556  0.0391  0.1027
27382SOL    HW186062   9.282  -0.003   2.487  1.2747 -1.1651  0.4192
27382SOL    HW286063   9.288   0.124   2.569  1.8112 -0.0512 -1.2937
27383SOL     OW86064   8.922   1.684   7.854  0.1536  0.5275 -0.0675
27383SOL    HW186065   8.968   1.685   7.770  0.7276  0.6516  0.2411
27383SOL    HW286066   8.943   1.599   7.892 -0.7585  0.1513 -0.3997
27384SOL     OW86067   5.898   2.804   1.148 -0.2435 -0.0317  0.7547
27384SOL    HW186068   5.808   2.795   1.118 -0.2264 -2.9236  1.3496
27384SOL    HW286069   5.951   2.764   1.079  0.2633 -1.4376  1.9139
27385SOL     OW86070   5.043   3.483   9.851  0.0408 -0.3575 -0.0502
27385SOL    HW186071   5.005   3.441   9.928 -1.5365 -1.8204 -1.5536
27385SOL    HW286072   5.033   3.419   9.781  0.7055  1.2173 -1.6627
27386SOL     OW86073   7.773   6.413   3.252 -0.6731  0.0039  0.0477
27386SOL    HW186074   7.792   6.455   3.168 -0.0391  0.3424  0.3570
27386SOL    HW286075   7.697   6.462   3.285 -0.8100 -0.0102 -0.2391
27387SOL     OW86076   5.292   3.839   5.950  0.1078  0.4605  0.3038
27387SOL    HW186077   5.207   3.884   5.943 -0.7672 -1.0526  0.8837
27387SOL    HW286078   5.311   3.810   5.861  0.0721  0.8854  0.1547
27388SOL     OW86079   2.998   4.660   2.841 -0.0651 -1.4621  0.1420
27388SOL    HW186080   3.080   4.698   2.810 -0.3354 -1.9337 -1.2032
27388SOL    HW286081   3.014   4.642   2.934  1.0295 -0.7107  0.1257
27389SOL     OW86082   1.616   4.622   5.623 -0.4083 -0.1700 -0.3366
27389SOL    HW186083   1.679   4.554   5.603  0.2823  0.4342 -0.2651
27389SOL    HW286084   1.663   4.681   5.682 -1.3004 -0.1330  0.3558
27390SOL     OW86085   0.780   7.581   6.326 -0.1768 -0.3336 -0.0566
27390SOL    HW186086   0.868   7.587   6.363 -0.1428  0.5276 -0.2525
27390SOL    HW286087   0.722   7.604   6.397 -0.2548 -0.9480  0.0855
27391SOL     OW86088   8.679   0.884   4.092 -0.5861  0.1969 -0.0208
27391SOL    HW186089   8.687   0.796   4.128 -0.6482  0.2054  0.0136
27391SOL    HW286090   8.703   0.875   4.000 -1.2153  0.0236 -0.1711
27392SOL     OW86091   8.469  10.090   0.520 -0.0435 -0.1607  0.5300
27392SOL    HW186092   8.539  10.153   0.503  1.5810 -1.8687  0.5317
27392SOL    HW286093   8.477  10.026   0.449 -0.7312 -1.1238  1.2959
27393SOL     OW86094   4.928   0.936   9.903 -0.8706  0.4075  0.1562
27393SOL    HW186095   4.870   0.861   9.916 -0.3476 -0.3367 -1.5559
27393SOL    HW286096   4.984   0.937   9.981 -1.0614 -0.8319  0.3258
27394SOL     OW86097   5.325   9.083   6.779  0.0166 -0.3914 -0.1329
27394SOL    HW186098   5.376   9.132   6.715  1.4637  1.6018  2.3478
27394SOL    HW286099   5.246   9.135   6.793 -0.3520 -0.8788 -0.3672
27395SOL     OW86100   2.757   6.294   5.730 -0.0669 -0.2752 -0.0962
27395SOL    HW186101   2.851   6.314   5.735  0.2460 -1.9293  2.3136
27395SOL    HW286102   2.752   6.199   5.737 -1.9284 -0.2981 -1.0774
27396SOL     OW86103   4.621   4.471   7.001  0.2057  0.1458  0.2516
27396SOL    HW186104   4.562   4.495   6.929  1.1555 -3.8654 -2.1723
27396SOL    HW286105   4.591   4.385   7.029  3.4632 -1.0593  0.4507
27397SOL     OW86106   1.035   7.580   4.239 -0.0713 -1.3328 -0.1180
27397SOL    HW186107   1.106   7.553   4.296 -0.2262 -1.5675 -0.0331
27397SOL    HW286108   0.958   7.584   4.296 -0.5603 -3.0756 -0.5880
27398SOL     OW86109   3.344   7.729   1.331 -0.0553 -0.4983 -0.7065
27398SOL    HW186110   3.417   7.784   1.360 -1.4701  0.8644  0.4371
27398SOL    HW286111   3.314   7.686   1.411 -1.9982  0.8547 -0.6296
27399SOL     OW86112   3.284   8.197   4.799  0.1117  0.3776 -0.2467
27399SOL    HW186113   3.240   8.114   4.777 -0.2282  0.3908  0.3485
27399SOL    HW286114   3.307   8.235   4.715 -1.6701  0.7237 -0.6336
27400SOL     OW86115   6.530   8.627   5.651 -0.4554 -0.1815 -0.0517
27400SOL    HW186116   6.512   8.716   5.620  0.3162  0.0736  0.2113
27400SOL    HW286117   6.448   8.580   5.638 -0.2545 -0.0191 -2.2164
27401SOL     OW86118   0.702   1.997   3.193 -0.0390 -0.1216  0.2508
27401SOL    HW186119   0.706   2.071   3.254 -0.6060  0.7713 -0.7810
27401SOL    HW286120   0.609   1.983   3.177  0.0061 -1.6417  1.0942
27402SOL     OW86121   9.519   4.064   3.052 -0.4385 -0.4416 -0.2037
27402SOL    HW186122   9.473   4.106   2.979 -0.4503 -0.8000 -0.4061
27402SOL    HW286123   9.457   4.067   3.125 -1.0984 -1.6051 -0.6832
27403SOL     OW86124   4.649   9.152   1.414  0.3693  0.4262 -0.2114
27403SOL    HW186125   4.649   9.062   1.446 -1.5876  0.7829  0.9875
27403SOL    HW286126   4.680   9.204   1.488 -1.0621  0.9519  0.0556
27404SOL     OW86127   5.027   4.249   5.347 -0.5419 -0.1764  0.1914
27404SOL    HW186128   4.958   4.292   5.297 -0.2047  0.0149 -0.1173
27404SOL    HW286129   4.982   4.211   5.422 -0.8181  0.9038  0.5899
27405SOL     OW86130  10.033   4.193   3.619 -0.5531 -0.2577  0.4177
27405SOL    HW186131  10.018   4.103   3.592 -0.7270 -0.7327  1.9949
27405SOL    HW286132  10.124   4.196   3.645 -0.4013  0.1804 -0.1244
27406SOL     OW86133   3.934   7.868   9.311 -0.1324  0.1983 -0.8373
27406SOL    HW186134   3.994   7.897   9.244 -0.3848  0.3160 -1.0122
27406SOL    HW286135   3.984   7.875   9.393 -0.1436  0.9824 -0.8904
27407SOL     OW86136   4.573   4.445   7.697  0.1447  0.5305 -0.4050
27407SOL    HW186137   4.496   4.404   7.657  0.4259  0.6140 -1.0608
27407SOL    HW286138   4.563   4.539   7.677 -0.2316  0.7238  0.6308
27408SOL     OW86139   6.563   5.257   8.971 -0.1289 -0.0740 -0.3323
27408SOL    HW186140   6.482   5.308   8.979 -0.2055  0.3315 -2.7623
27408SOL    HW286141   6.633   5.319   8.992 -0.3189  0.6164 -1.5952
27409SOL     OW86142   8.767   4.440   6.542  0.7409 -0.8081 -0.3974
27409SOL    HW186143   8.838   4.498   6.570  1.1935 -1.4529 -0.1736
27409SOL    HW286144   8.794   4.410   6.456  0.0350  0.0622 -0.9349
27410SOL     OW86145   6.615   1.591   7.248 -0.0534 -0.7697  0.1547
27410SOL    HW186146   6.638   1.526   7.314  1.0863 -0.0568  0.4943
27410SOL    HW286147   6.596   1.670   7.298  0.1757 -0.3940 -0.3437
27411SOL     OW86148  10.163   3.772   2.215  0.2014 -0.8569 -0.3297
27411SOL    HW186149  10.074   3.746   2.240  0.1203 -0.5021 -0.2432
27411SOL    HW286150  10.168   3.751   2.122  0.7399 -2.8423  0.1005
27412SOL     OW86151   7.140   9.310   3.803 -0.4867  0.3188  0.0849
27412SOL    HW186152   7.144   9.276   3.892 -1.4545 -2.3076 -0.7866
27412SOL    HW286153   7.215   9.369   3.796 -0.0006  0.0723  2.3921
27413SOL     OW86154   4.135   8.423   2.916  0.0404  0.5155 -0.0572
27413SOL    HW186155   4.228   8.401   2.914 -0.4233 -1.7103 -1.3910
27413SOL    HW286156   4.096   8.354   2.971 -0.7793  1.6922  0.8785
27414SOL     OW86157   7.321   7.558   0.605 -0.3657 -0.0779 -0.1855
27414SOL    HW186158   7.316   7.649   0.577  0.1994  0.1544  0.4557
27414SOL    HW286159   7.375   7.515   0.538 -3.0335 -0.6319 -2.1433
27415SOL     OW86160   6.673   8.722   0.460 -0.2385  0.3343  0.4088
27415SOL    HW186161   6.631   8.752   0.379 -2.7223  0.7902  1.7683
27415SOL    HW286162   6.604   8.674   0.507  1.8760 -2.2387  1.1266
27416SOL     OW86163   6.946   4.819   5.980  0.2633 -0.1699 -0.1765
27416SOL    HW186164   6.936   4.891   6.043  0.4838 -1.1110  0.9654
27416SOL    HW286165   7.037   4.826   5.950 -0.0864  0.8102 -1.0959
27417SOL     OW86166   3.350   8.068   2.691 -0.6244 -0.3718  0.0282
27417SOL    HW186167   3.279   8.110   2.741 -0.2397  1.0907 -0.5928
27417SOL    HW286168   3.395   8.014   2.755 -0.7709  0.6575  1.0452
27418SOL     OW86169   3.660   4.109   9.072 -0.3382 -0.0086 -0.3149
27418SOL    HW186170   3.673   4.116   8.977  0.5673  1.6887 -0.1123
27418SOL    HW286171   3.706   4.029   9.097  1.2136  0.6162 -1.0556
27419SOL     OW86172   7.869   1.517   7.183  0.6554 -0.8512 -0.1947
27419SOL    HW186173   7.837   1.570   7.256  2.3777  1.2113 -0.8008
27419SOL    HW286174   7.929   1.576   7.136  1.4890 -2.8922 -1.8487
27420SOL     OW86175   7.351   6.722   5.507  0.1293 -0.1432 -0.5716
27420SOL    HW186176   7.379   6.639   5.467  0.1455 -0.4088 -0.0219
27420SOL    HW286177   7.287   6.696   5.573 -3.0353  0.5788 -3.1206
27421SOL     OW86178   2.859   2.623   8.291  0.0638 -0.1955 -0.4435
27421SOL    HW186179   2.821   2.614   8.203  0.2670  1.7451 -0.7636
27421SOL    HW286180   2.945   2.583   8.284 -0.6395 -1.7866 -0.5698
27422SOL     OW86181   9.877  10.114  10.062  0.4599  0.3849 -0.1934
27422SOL    HW186182   9.803  10.108  10.122  0.0577 -0.3485 -0.7384
27422SOL    HW286183   9.950  10.146  10.115 -0.1060  0.5754  0.4761
27423SOL     OW86184   0.403   5.757   9.175  0.3630  0.1298 -0.3307
27423SOL    HW186185   0.399   5.797   9.089  3.0135  0.4840 -0.3743
27423SOL    HW286186   0.482   5.703   9.173 -0.1208 -0.7435  1.5277
27424SOL     OW86187  10.112   0.482   1.566 -0.5644  0.2158  0.0325
27424SOL    HW186188  10.094   0.483   1.472  1.8375  0.7272 -0.4968
27424SOL    HW286189  10.058   0.412   1.601  0.1373 -1.5065 -2.1377
27425SOL     OW86190   2.343   3.302   5.889 -0.1427 -0.1467  0.5179
27425SOL    HW186191   2.311   3.350   5.812  1.6186 -0.0419 -0.2049
27425SOL    HW286192   2.296   3.218   5.886 -0.4029  0.0203 -0.4500
27426SOL     OW86193   7.276   4.862   2.935 -0.3521  0.0900  0.0052
27426SOL    HW186194   7.306   4.934   2.880  2.1665 -0.6410  0.3158
27426SOL    HW286195   7.235   4.905   3.011 -0.4301  1.1511 -0.6242
27427SOL     OW86196   4.409   5.462   0.472 -0.0913 -0.2514  0.2633
27427SOL    HW186197   4.445   5.398   0.412  0.6688 -1.3188  1.7817
27427SOL    HW286198   4.333   5.499   0.426  1.3449  0.1426 -1.9406
27428SOL     OW86199   8.856   8.335   7.636  0.1901  0.7658 -0.0782
27428SOL    HW186200   8.930   8.273   7.641 -1.3893 -1.1819  0.3661
27428SOL    HW286201   8.883   8.397   7.568  1.4284 -1.0597 -1.3863
27429SOL     OW86202   9.029   7.230   6.764  0.3106  0.8545 -0.1500
27429SOL    HW186203   9.104   7.279   6.729  1.8124 -0.3733  1.1838
27429SOL    HW286204   9.066   7.146   6.791 -1.7477 -0.1488 -0.2567
27430SOL     OW86205   0.969   8.089   1.981 -0.3908 -0.0531  0.2216
27430SOL    HW186206   0.977   8.122   2.070 -1.5205  0.8857 -0.0087
27430SOL    HW286207   0.922   8.158   1.933  2.5528  0.7515 -1.8090
27431SOL     OW86208   4.038   9.761   6.992  0.4419 -0.4683 -0.2505
27431SOL    HW186209   4.094   9.691   7.026  0.2015 -0.5126  0.0556
27431SOL    HW286210   3.959   9.757   7.045 -0.0793 -0.7453 -1.0313
27432SOL     OW86211   3.282   3.663   4.133  0.1623 -0.6062 -0.1332
27432SOL    HW186212   3.345   3.673   4.062  0.3440  1.1184  0.2395
27432SOL    HW286213   3.329   3.691   4.212 -0.6072 -0.7174  0.3792
27433SOL     OW86214   0.836   7.752   5.571  0.0383  0.0145  0.1620
27433SOL    HW186215   0.812   7.763   5.479  0.4946  0.4369  0.0875
27433SOL    HW286216   0.904   7.817   5.586  1.7830 -1.6956  0.1202
27434SOL     OW86217   4.246   6.535   8.650 -0.0591  0.0512 -0.8533
27434SOL    HW186218   4.184   6.598   8.687  0.3214 -0.2303  0.2998
27434SOL    HW286219   4.222   6.451   8.689  0.3996 -0.2514 -1.2052
27435SOL     OW86220   0.560   3.407   1.069  0.1577 -0.1430  0.3131
27435SOL    HW186221   0.509   3.390   1.149  0.1551 -0.8441  0.1714
27435SOL    HW286222   0.651   3.413   1.100  0.0419  0.7354  0.5153
27436SOL     OW86223   5.962   6.884   6.230  0.1804  0.0809 -0.0157
27436SOL    HW186224   6.009   6.893   6.147  1.2381 -2.1780  0.2874
27436SOL    HW286225   5.869   6.889   6.204  0.4222  3.3081 -0.7654
27437SOL     OW86226   9.012   2.627   0.461 -0.1077 -0.4838 -0.3287
27437SOL    HW186227   8.924   2.591   0.467  0.2210 -1.4471 -1.0096
27437SOL    HW286228   9.029   2.664   0.548 -2.0263  1.8084 -0.8192
27438SOL     OW86229   7.497   6.095   8.552  0.4563 -0.0562 -0.1047
27438SOL    HW186230   7.433   6.126   8.488  1.2233 -0.3479 -1.0358
27438SOL    HW286231   7.449   6.093   8.635  0.0895  2.6547 -0.1482
27439SOL     OW86232   7.934   4.755   0.743  0.1419 -0.2411  0.1230
27439SOL    HW186233   7.929   4.662   0.724 -0.5835  0.0630 -1.2859
27439SOL    HW286234   8.018   4.783   0.706  0.7870 -0.4818  1.3445
27440SOL     OW86235   5.213   9.550   3.831  0.5019 -0.4191  0.3976
27440SOL    HW186236   5.186   9.600   3.754 -0.3625  0.8819  1.5080
27440SOL    HW286237   5.254   9.471   3.794  0.0465  0.1156 -1.3856
27441SOL     OW86238   6.753   9.697   6.758 -0.0446 -0.3058 -0.2788
27441SOL    HW186239   6.837   9.740   6.742  0.5604 -1.6495 -0.9205
27441SOL    HW286240   6.734   9.652   6.676 -1.2386 -0.2761 -0.0272
27442SOL     OW86241   6.860   9.314   3.737 -0.4303  0.1232  0.0479
27442SOL    HW186242   6.838   9.224   3.758 -1.0838 -0.1011 -1.4407
27442SOL    HW286243   6.953   9.322   3.759 -0.4696 -0.7768  0.5773
27443SOL     OW86244   8.126   7.047   0.807 -0.1625 -0.4031 -0.2806
27443SOL    HW186245   8.191   7.080   0.745 -0.9018 -0.9555 -1.3805
27443SOL    HW286246   8.042   7.064   0.765 -0.8315  1.3309  1.6232
27444SOL     OW86247   0.927   3.072   6.814  0.4863 -0.7624 -0.3361
27444SOL    HW186248   1.003   3.046   6.866  0.5509  1.3738  0.7125
27444SOL    HW286249   0.868   3.114   6.876 -0.3708  0.0039 -1.6116
27445SOL     OW86250   3.916   8.756   4.740 -0.6311  0.9858  0.2197
27445SOL    HW186251   3.853   8.771   4.670  1.0773 -0.5580 -1.7652
27445SOL    HW286252   4.000   8.786   4.705  0.2675  0.2443  1.6160
27446SOL     OW86253   6.676   2.487   1.485 -0.3683  0.2556 -0.3381
27446SOL    HW186254   6.706   2.397   1.475  0.7851  0.3968  1.3224
27446SOL    HW286255   6.756   2.540   1.477 -0.8188  1.0078  0.0317
27447SOL     OW86256   1.506   1.384   4.896  0.1320 -0.2991  0.0933
27447SOL    HW186257   1.562   1.379   4.819 -0.3439  1.8433 -0.4502
27447SOL    HW286258   1.511   1.475   4.923 -0.5184 -0.7868  2.0128
27448SOL     OW86259   9.618   0.408   2.959  0.0972 -0.2400  0.3711
27448SOL    HW186260   9.621   0.328   3.011  0.2041  0.1526  0.9787
27448SOL    HW286261   9.550   0.391   2.894  0.1097 -0.8188  0.4968
27449SOL     OW86262   2.261   6.659   6.832  0.0973  0.6036  0.3760
27449SOL    HW186263   2.282   6.739   6.784  0.4360  0.5217  0.3881
27449SOL    HW286264   2.258   6.591   6.765  0.9708  0.4147  0.5131
27450SOL     OW86265   4.156   4.247   4.503 -0.2643  0.2666 -0.2870
27450SOL    HW186266   4.158   4.274   4.595  1.9021 -0.2406 -0.1253
27450SOL    HW286267   4.239   4.279   4.467  0.2006 -1.8904 -1.3200
27451SOL     OW86268   2.259   8.289   9.602 -0.0469 -0.0111 -0.2817
27451SOL    HW186269   2.204   8.340   9.661  1.0887  2.3483 -1.1178
27451SOL    HW286270   2.343   8.336   9.601  0.7023 -1.2630 -2.0028
27452SOL     OW86271   1.806   6.659   8.451  0.4378 -0.3325 -0.3101
27452SOL    HW186272   1.844   6.575   8.427  0.9433  0.4971 -2.6373
27452SOL    HW286273   1.849   6.722   8.393 -0.1678  1.5048  1.1343
27453SOL     OW86274   3.947   3.560   7.801  0.0399  0.4211 -0.1709
27453SOL    HW186275   4.001   3.632   7.833 -0.7214  0.8207  0.2597
27453SOL    HW286276   4.007   3.505   7.752  0.6567  1.3187 -0.4619
27454SOL     OW86277   1.194   7.455   1.542 -0.5714  0.3811  0.1193
27454SOL    HW186278   1.258   7.526   1.536  0.2832 -0.3902 -0.0485
27454SOL    HW286279   1.111   7.496   1.517 -0.0820  1.3051 -0.0398
27455SOL     OW86280   8.220   7.422   2.896 -0.1990  0.5223  0.2571
27455SOL    HW186281   8.245   7.474   2.972  0.7738  0.4104  0.0254
27455SOL    HW286282   8.200   7.335   2.931  0.2433  0.4726  0.3872
27456SOL     OW86283   7.592   0.858   9.231 -0.4936  0.2833  0.2835
27456SOL    HW186284   7.526   0.789   9.235  0.0494 -0.2036  1.1481
27456SOL    HW286285   7.541   0.938   9.218 -1.3111 -0.0316  1.2959
27457SOL     OW86286   5.192   4.968   0.873  0.5302  0.0832 -0.2145
27457SOL    HW186287   5.110   4.963   0.823 -1.3502  0.0093  2.6349
27457SOL    HW286288   5.195   5.058   0.905  1.9564  0.2733 -0.8047
27458SOL     OW86289   7.423   4.208   8.024 -0.4229 -0.3289  0.3082
27458SOL    HW186290   7.409   4.149   8.098 -1.3560 -2.0675 -1.1545
27458SOL    HW286291   7.362   4.176   7.957 -0.6651  2.0835 -0.7172
27459SOL     OW86292   3.534   8.319   9.985 -0.6784 -1.1625 -0.0129
27459SOL    HW186293   3.583   8.252   9.938 -0.3427 -1.2713  0.4765
27459SOL    HW286294   3.461   8.273  10.025 -0.0065 -1.3978  0.9780
27460SOL     OW86295   0.990   3.340   0.833 -0.2519 -0.0465  0.0061
27460SOL    HW186296   1.000   3.321   0.926 -1.5394  0.7183  0.3215
27460SOL    HW286297   1.073   3.381   0.808 -0.2764  0.7123  1.0818
27461SOL     OW86298   7.579   1.757   2.426  0.4957  0.0729 -0.7956
27461SOL    HW186299   7.526   1.782   2.501 -0.3511  1.2937 -1.7468
27461SOL    HW286300   7.664   1.799   2.441  0.0557  1.0297 -0.9127
27462SOL     OW86301   7.976   0.768   6.721  0.0045  0.1933  0.1834
27462SOL    HW186302   8.016   0.681   6.731  1.7127  0.7282 -1.3420
27462SOL    HW286303   7.907   0.755   6.657 -0.7972 -0.3059  1.1172
27463SOL     OW86304   0.560   9.887   5.710  0.3139 -0.2724  0.4927
27463SOL    HW186305   0.579   9.953   5.644  0.9291 -0.5636  0.3776
27463SOL    HW286306   0.606   9.917   5.788 -1.7324  0.9533  1.3226
27464SOL     OW86307   9.906  10.053   0.171 -0.2670 -0.0768 -0.4581
27464SOL    HW186308   9.972  10.101   0.121 -0.1043  0.4143  0.2174
27464SOL    HW286309   9.956   9.993   0.227 -0.4818 -1.6294 -1.8414
27465SOL     OW86310   3.851   3.328   4.661 -0.0027 -0.7060 -0.0434
27465SOL    HW186311   3.780   3.264   4.663  1.2646 -2.1671 -0.1972
27465SOL    HW286312   3.810   3.407   4.625 -1.5329 -1.5177 -0.1881
27466SOL     OW86313   6.502   6.059   7.170  0.2498 -0.2435  0.0336
27466SOL    HW186314   6.575   6.119   7.185 -0.4844  1.0150 -1.1357
27466SOL    HW286315   6.541   5.986   7.120  0.7852  0.2044 -0.2149
27467SOL     OW86316   9.350   6.657   3.360  0.4327  0.0396  0.1734
27467SOL    HW186317   9.441   6.683   3.343  0.1978  0.3562 -0.6685
27467SOL    HW286318   9.312   6.731   3.406  0.3555  0.3018 -0.3011
27468SOL     OW86319   3.155   4.290   5.244 -0.0103  0.1614 -0.5562
27468SOL    HW186320   3.186   4.326   5.161  0.7860  0.6205 -0.0646
27468SOL    HW286321   3.199   4.341   5.311 -2.0057  0.9902  0.1845
27469SOL     OW86322   3.100   5.062   6.501 -0.5141  0.5125  0.3678
27469SOL    HW186323   3.126   5.153   6.514 -0.9245  0.6082  0.5612
27469SOL    HW286324   3.070   5.059   6.410  0.5334  0.3059  0.0206
27470SOL     OW86325   2.640   7.946   2.856 -0.0308  0.3499  0.1857
27470SOL    HW186326   2.581   7.997   2.911  0.6175  0.2905  0.9402
27470SOL    HW286327   2.683   8.011   2.800  0.5673  0.6084  0.9323
27471SOL     OW86328  10.000   0.649   4.448 -0.1323 -0.4207 -0.7974
27471SOL    HW186329  10.045   0.613   4.525  0.5031 -0.3117 -1.1027
27471SOL    HW286330  10.009   0.581   4.381  0.6946  0.1064 -1.2455
27472SOL     OW86331   4.649   1.433   5.703 -0.7057  0.0346  0.3777
27472SOL    HW186332   4.577   1.493   5.721 -0.5909  1.0408 -2.0891
27472SOL    HW286333   4.721   1.490   5.674  0.3669 -1.0961  0.7308
27473SOL     OW86334   1.482   1.678   4.487  0.2080  0.3460  0.2749
27473SOL    HW186335   1.511   1.767   4.508 -1.2571  0.5519  1.6250
27473SOL    HW286336   1.474   1.676   4.392 -0.1784  1.8001  0.2660
27474SOL     OW86337   3.282   6.919   7.367 -0.2619 -0.2160 -0.0121
27474SOL    HW186338   3.269   6.893   7.459  1.4989  2.4329  1.0823
27474SOL    HW286339   3.327   6.845   7.327 -1.9385 -1.8329  0.9275
27475SOL     OW86340   0.718   5.472   9.527 -0.6787 -0.4371  0.8949
27475SOL    HW186341   0.660   5.548   9.526 -0.7777 -0.5141  0.2655
27475SOL    HW286342   0.806   5.509   9.534 -0.7592 -0.2904  1.1479
27476SOL     OW86343   7.308   0.851   4.714 -0.2972  0.5654 -0.7999
27476SOL    HW186344   7.402   0.863   4.712 -0.1142 -0.7535 -1.3538
27476SOL    HW286345   7.289   0.820   4.803  0.2354 -2.0860 -1.5397
27477SOL     OW86346   3.459   0.083   7.981  1.1500  0.3686  0.2296
27477SOL    HW186347   3.435   0.101   8.072  1.1802  1.1662  0.0825
27477SOL    HW286348   3.533   0.022   7.988  2.5964  2.1124  0.8032
27478SOL     OW86349   3.558   4.833   5.405  0.3409  0.3231 -0.7644
27478SOL    HW186350   3.612   4.869   5.334 -0.0139  0.4345 -0.9819
27478SOL    HW286351   3.516   4.756   5.366  0.8560 -0.1465 -0.3941
27479SOL     OW86352   2.878   9.069   3.753  0.2410  0.0462  0.2507
27479SOL    HW186353   2.903   9.036   3.666  1.8017 -1.5343  1.2243
27479SOL    HW286354   2.960   9.074   3.801 -0.6494  0.4212  1.8048
27480SOL     OW86355   1.192   9.865   9.396  0.5818  0.2111 -0.1419
27480SOL    HW186356   1.249   9.806   9.445 -0.9803 -0.7957  0.5101
27480SOL    HW286357   1.128   9.896   9.460 -2.1728 -1.9771 -1.6554
27481SOL     OW86358   1.046   2.486  10.094  0.0404 -0.2855  0.3183
27481SOL    HW186359   1.106   2.439  10.037  0.4433 -0.1662  0.6429
27481SOL    HW286360   0.977   2.423  10.115  0.3885 -0.6128  0.4653
27482SOL     OW86361   5.430   2.517   5.113 -0.1535  0.5686  0.2881
27482SOL    HW186362   5.430   2.605   5.152  0.1383 -0.5815  3.1308
27482SOL    HW286363   5.522   2.498   5.095 -0.1637  0.6262  0.1711
27483SOL     OW86364   2.333   4.879   4.282  0.8245  0.1299  0.5195
27483SOL    HW186365   2.361   4.824   4.209 -0.4942  1.0515 -0.7709
27483SOL    HW286366   2.375   4.843   4.359  1.0206 -1.8591 -0.4764
27484SOL     OW86367   7.743   1.927   3.054  0.2997 -0.1338  0.0388
27484SOL    HW186368   7.832   1.950   3.077  0.1625  0.0937  0.3428
27484SOL    HW286369   7.716   1.862   3.120  0.6721 -1.1644 -0.7906
27485SOL     OW86370   4.235   0.949   2.934  0.3410  0.2237 -0.0626
27485SOL    HW186371   4.309   0.977   2.880 -0.3743  0.0798 -1.1420
27485SOL    HW286372   4.181   1.028   2.944  0.3648  0.1986  0.2734
27486SOL     OW86373   6.832   8.263   6.223  0.1047 -0.3389  0.5221
27486SOL    HW186374   6.767   8.318   6.267  0.0206  0.2315 -0.2898
27486SOL    HW286375   6.913   8.280   6.271  0.0547  0.4166  0.3539
27487SOL     OW86376   0.548  10.093   2.639  0.0902 -0.0653 -0.5873
27487SOL    HW186377   0.476  10.147   2.671 -0.7619  0.0056 -2.5069
27487SOL    HW286378   0.510  10.006   2.626  0.3677 -0.0493 -1.5472
27488SOL     OW86379   8.364   4.671   6.405  0.2377 -0.6195 -0.2121
27488SOL    HW186380   8.273   4.663   6.434  0.2882  0.0648  0.1515
27488SOL    HW286381   8.362   4.735   6.335  0.4194 -0.7309 -0.3218
27489SOL     OW86382   3.894  10.095   5.920 -0.2404 -0.3580 -0.0836
27489SOL    HW186383   3.854  10.182   5.917 -1.1468 -0.7444 -3.5773
27489SOL    HW286384   3.834  10.042   5.972 -2.3024  0.0510 -1.9199
27490SOL     OW86385   7.008   5.033   2.077  0.0343 -0.4227 -0.3470
27490SOL    HW186386   6.931   5.078   2.112  0.5234  0.8552 -0.8422
27490SOL    HW286387   7.007   4.947   2.119 -0.7298  0.1853  0.9413
27491SOL     OW86388   7.916   7.481   8.607  0.7092 -0.0124  0.0556
27491SOL    HW186389   7.837   7.475   8.661 -0.0765 -0.9389 -1.1491
27491SOL    HW286390   7.945   7.571   8.617 -1.1408  0.6797 -0.3319
27492SOL     OW86391   7.705   6.723   0.600 -0.0336 -0.4724 -0.2615
27492SOL    HW186392   7.722   6.633   0.627 -0.5501 -0.9149 -1.3580
27492SOL    HW286393   7.618   6.721   0.561  0.4133  0.2507 -1.3590
27493SOL     OW86394   8.193   5.154   3.627 -0.1718  0.0432 -0.2874
27493SOL    HW186395   8.148   5.188   3.705  1.2027 -1.6217  1.3288
27493SOL    HW286396   8.285   5.148   3.653  0.4398  0.0683 -2.2937
27494SOL     OW86397   1.541   7.610   2.517 -0.9386  0.0791  0.3519
27494SOL    HW186398   1.559   7.539   2.578 -1.0521  0.1883  0.5158
27494SOL    HW286399   1.485   7.670   2.567  0.4202  1.0576  0.7474
27495SOL     OW86400   4.807   0.183   8.318 -0.1168  0.5581 -0.7963
27495SOL    HW186401   4.860   0.183   8.397 -0.1470  0.8785 -0.7766
27495SOL    HW286402   4.856   0.129   8.256 -0.1414  0.2276 -0.5286
27496SOL     OW86403   8.922   2.481   6.340  0.1397 -0.3086  0.2286
27496SOL    HW186404   9.017   2.475   6.350  0.4935 -0.2089 -2.3918
27496SOL    HW286405   8.907   2.470   6.246 -2.2749  1.6731  0.2672
27497SOL     OW86406   9.442   1.857   2.604  0.3799  0.2812 -0.1464
27497SOL    HW186407   9.361   1.840   2.652  0.5279 -0.6603 -0.2057
27497SOL    HW286408   9.435   1.802   2.526  1.1552  0.0623 -0.0653
27498SOL     OW86409   5.379   2.566   6.006 -0.1507  0.4652 -0.0043
27498SOL    HW186410   5.313   2.585   6.073  0.5208  1.3649  0.4320
27498SOL    HW286411   5.454   2.535   6.055 -0.2619 -0.6258 -0.5064
27499SOL     OW86412   5.537   2.202   7.665 -0.2387 -0.3347  0.1814
27499SOL    HW186413   5.564   2.110   7.667  0.1266 -0.2311  0.2434
27499SOL    HW286414   5.599   2.243   7.605  1.3109  0.3723  2.1097
27500SOL     OW86415   5.230   4.092   8.508  0.3656 -0.1386  0.3440
27500SOL    HW186416   5.168   4.019   8.504  0.6708 -0.3582 -0.7983
27500SOL    HW286417   5.270   4.085   8.594 -0.0440 -0.9653  0.4776
27501SOL     OW86418   4.232   7.157   6.678 -0.9344  0.1860 -0.6357
27501SOL    HW186419   4.203   7.242   6.646 -0.0363  1.3234  1.3532
27501SOL    HW286420   4.281   7.177   6.758  1.4958 -1.9581 -1.4409
27502SOL     OW86421   5.308   7.453   2.357  0.4635 -0.3574 -0.0789
27502SOL    HW186422   5.263   7.430   2.275  0.4248 -1.4174  0.2333
27502SOL    HW286423   5.265   7.401   2.424  0.2544  0.7765  0.6963
27503SOL     OW86424   8.263   1.115   1.168 -0.4081  0.0950 -0.0833
27503SOL    HW186425   8.249   1.037   1.115 -2.0028  0.4917 -0.2849
27503SOL    HW286426   8.224   1.094   1.253 -1.6596  0.9684 -0.4174
27504SOL     OW86427   4.566   6.365   0.964  0.1493  0.2620  0.0409
27504SOL    HW186428   4.555   6.381   0.870  0.7497  1.2430  0.1187
27504SOL    HW286429   4.559   6.270   0.973  1.3175  0.0248 -1.1819
27505SOL     OW86430   0.290   4.255   7.525  0.3095  0.0677  0.0124
27505SOL    HW186431   0.321   4.165   7.512  0.3494  0.0104  0.5018
27505SOL    HW286432   0.360   4.297   7.576  0.3055  0.3842 -0.2404
27506SOL     OW86433   8.408   1.285   4.725 -0.3108  0.3760 -0.4026
27506SOL    HW186434   8.364   1.341   4.662 -0.8942 -0.2098 -0.5216
27506SOL    HW286435   8.449   1.217   4.673  0.8382  0.9680 -0.3030
27507SOL     OW86436   7.542   4.127   3.336  0.2680 -0.2384 -0.0679
27507SOL    HW186437   7.628   4.151   3.368  0.0711 -2.2353  2.2360
27507SOL    HW286438   7.489   4.206   3.347  1.0061  0.0439  1.7599
27508SOL     OW86439   9.487   6.193   2.041  0.4130 -0.1325 -0.7995
27508SOL    HW186440   9.464   6.228   1.955  0.4693  0.8879 -0.4121
27508SOL    HW286441   9.538   6.263   2.082  0.9527 -0.8742 -0.1938
27509SOL     OW86442   4.600   9.380   2.076 -0.0233 -0.2684 -0.4488
27509SOL    HW186443   4.646   9.383   2.160 -1.0539 -0.4950  0.1480
27509SOL    HW286444   4.643   9.309   2.028  1.8945  1.1552 -0.9549
27510SOL     OW86445   2.126   6.593   2.920  0.4631 -0.6492  0.7950
27510SOL    HW186446   2.145   6.589   3.014 -1.0276  2.6365  1.3918
27510SOL    HW286447   2.200   6.641   2.883  0.8541 -1.5917  0.3390
27511SOL     OW86448   6.937   7.584   4.509  0.3002 -0.1685  0.7647
27511SOL    HW186449   6.930   7.673   4.542 -1.1692 -0.6261  1.7687
27511SOL    HW286450   6.965   7.595   4.418  1.7779  1.2184  1.3206
27512SOL     OW86451   2.632   2.224   1.411  0.2804 -0.5023  0.0984
27512SOL    HW186452   2.603   2.314   1.405 -2.2080 -1.1028  1.6538
27512SOL    HW286453   2.624   2.189   1.322  2.7264  1.1193 -0.8515
27513SOL     OW86454   5.212   9.437   6.537  0.4956 -0.4065 -0.3175
27513SOL    HW186455   5.198   9.513   6.593 -0.2276 -0.1494 -0.8385
27513SOL    HW286456   5.124   9.407   6.514  0.7258  0.6766 -2.9338
27514SOL     OW86457   0.867   5.008   3.499  0.3769 -0.2837 -0.4588
27514SOL    HW186458   0.894   4.937   3.442  1.3080 -1.4953  1.3921
27514SOL    HW286459   0.949   5.052   3.522 -0.0468  0.5358 -0.4786
27515SOL     OW86460   2.034   7.997   2.137 -0.2068 -0.3311  0.0281
27515SOL    HW186461   2.085   8.038   2.207  0.0733 -1.4118  0.4806
27515SOL    HW286462   2.086   8.012   2.058 -0.0977  0.1534  0.1889
27516SOL     OW86463   6.653   3.287   2.746  0.2644  0.0214  0.0512
27516SOL    HW186464   6.746   3.311   2.748 -0.1625  1.8955 -1.0335
27516SOL    HW286465   6.613   3.342   2.813 -0.1637 -0.3768  0.1269
27517SOL     OW86466   9.039   3.218   0.311 -0.7090 -0.4774 -0.2520
27517SOL    HW186467   8.946   3.238   0.308 -0.9608 -1.5862 -0.1987
27517SOL    HW286468   9.055   3.188   0.400 -0.4292 -0.8699 -0.4297
27518SOL     OW86469   9.216   6.013   2.359  0.2721  0.1255  0.6800
27518SOL    HW186470   9.240   6.099   2.394  0.0899  1.6975 -2.6436
27518SOL    HW286471   9.125   6.001   2.384 -0.1677  1.6652 -0.0413
27519SOL     OW86472   7.601   2.298   5.004 -0.6031 -0.0703  0.2242
27519SOL    HW186473   7.652   2.376   5.026 -1.0984  0.4130 -0.3121
27519SOL    HW286474   7.662   2.242   4.956 -0.4520  0.3128 -0.0327
27520SOL     OW86475   4.863  10.114   8.973  0.3853 -0.4076 -0.5776
27520SOL    HW186476   4.953  10.102   9.004  0.0747  1.1270  1.0599
27520SOL    HW286477   4.820  10.031   8.993  0.6623 -0.0705  1.6102
27521SOL     OW86478   2.403   9.718   6.955  0.1482  0.4365  0.8352
27521SOL    HW186479   2.471   9.762   6.904  1.2194 -0.8182  1.1263
27521SOL    HW286480   2.398   9.766   7.037  0.0637  1.0461  0.4821
27522SOL     OW86481   4.971   6.462   9.112 -0.3738  0.5456 -0.0156
27522SOL    HW186482   5.051   6.452   9.060 -0.7322 -1.1424 -0.2998
27522SOL    HW286483   4.958   6.557   9.118  1.2542  0.8363 -0.5555
27523SOL     OW86484   5.741   5.132   0.965 -0.2646  0.0627 -0.3050
27523SOL    HW186485   5.654   5.154   0.931  0.3528  1.8907 -0.8318
27523SOL    HW286486   5.739   5.160   1.056 -0.3808 -0.3305 -0.1876
27524SOL     OW86487   4.449   5.961   2.271  0.5375  0.8668 -0.1178
27524SOL    HW186488   4.382   5.999   2.327  0.7724  1.0480  0.0382
27524SOL    HW286489   4.460   5.872   2.304  2.5439  1.7516  1.8272
27525SOL     OW86490   9.353   3.990   5.544 -0.7194  0.8395 -0.2107
27525SOL    HW186491   9.327   4.081   5.555  0.1207  1.2476 -1.4899
27525SOL    HW286492   9.345   3.952   5.632 -2.4889  1.7486  0.0546
27526SOL     OW86493   6.741   0.952   5.550 -0.1314 -0.2172  0.3252
27526SOL    HW186494   6.767   0.931   5.460  1.0340 -1.7588  0.9714
27526SOL    HW286495   6.823   0.975   5.594 -0.5702 -0.2700  1.1982
27527SOL     OW86496   4.179   7.348   6.945  0.3014  0.6481 -0.6489
27527SOL    HW186497   4.208   7.348   7.036 -0.5271 -0.5451 -0.3584
27527SOL    HW286498   4.167   7.440   6.923  0.1923  0.9335  0.5610
27528SOL     OW86499   3.207   3.024   7.219  0.3520 -0.2545 -0.4604
27528SOL    HW186500   3.129   2.990   7.264  0.0002 -0.1404 -0.9710
27528SOL    HW286501   3.182   3.025   7.126  0.7665  0.2970 -0.5708
27529SOL     OW86502   9.714   8.175   1.888 -0.7063 -0.6108 -0.4256
27529SOL    HW186503   9.708   8.102   1.950  0.4206 -0.4277 -0.0694
27529SOL    HW286504   9.806   8.180   1.865 -1.0128 -0.2766 -1.6678
27530SOL     OW86505   6.897   7.135   3.886 -0.2760  0.3296 -0.1865
27530SOL    HW186506   6.893   7.202   3.955  2.7334 -0.1224  0.5809
27530SOL    HW286507   6.863   7.056   3.928 -0.4149  0.5447  0.1097
27531SOL     OW86508   1.054   9.194   2.732  0.3178  0.2736 -0.0767
27531SOL    HW186509   0.980   9.145   2.695  0.9791  0.6456 -2.0253
27531SOL    HW286510   1.014   9.257   2.791 -0.9101  0.1791 -0.7661
27532SOL     OW86511   2.503   1.905   2.427  0.1300 -0.6062  0.4194
27532SOL    HW186512   2.471   1.815   2.435 -0.3819 -0.5956 -1.2577
27532SOL    HW286513   2.565   1.914   2.500  2.1237 -3.1325 -0.7873
27533SOL     OW86514   7.074   2.176   1.086 -0.2044 -0.2773  0.0330
27533SOL    HW186515   7.083   2.250   1.026  0.2210  1.8993  2.5944
27533SOL    HW286516   7.056   2.217   1.171 -2.0755 -3.2366  1.1920
27534SOL     OW86517   5.177   9.385   7.769 -0.4692 -0.0979  0.2379
27534SOL    HW186518   5.121   9.462   7.759 -0.9014 -0.6691 -2.9247
27534SOL    HW286519   5.139   9.320   7.711  0.0288 -2.6990  2.6181
27535SOL     OW86520   0.886  10.082   3.425 -0.3208 -0.3638  0.5043
27535SOL    HW186521   0.842  10.126   3.351 -1.0002  0.5941  1.4490
27535SOL    HW286522   0.863   9.990   3.415  1.3058 -0.6177 -1.6466
27536SOL     OW86523   2.279   7.623   0.990 -0.7834  0.0146  0.3295
27536SOL    HW186524   2.210   7.585   1.044 -0.3230  0.2820  1.1255
27536SOL    HW286525   2.239   7.701   0.952 -0.4506  1.1480  2.1538
27537SOL     OW86526   8.928   5.943   1.174 -0.7620  0.0117 -0.2352
27537SOL    HW186527   8.903   5.851   1.169 -2.6792  0.3107  2.1749
27537SOL    HW286528   8.985   5.947   1.251 -0.0967  0.7638 -0.7535
27538SOL     OW86529   7.134   5.593   8.549 -0.0678 -0.1974  0.5589
27538SOL    HW186530   7.086   5.675   8.560  0.6776  0.1708  1.2163
27538SOL    HW286531   7.070   5.524   8.568 -0.1103  0.3071  2.4713
27539SOL     OW86532   4.784   3.824   7.911 -0.3871 -0.1943  0.4787
27539SOL    HW186533   4.873   3.858   7.905 -0.6582  0.4833  0.2546
27539SOL    HW286534   4.734   3.876   7.848 -0.7213 -1.2897 -0.1846
27540SOL     OW86535   1.575   4.111   7.075  0.6808 -0.2952 -0.0582
27540SOL    HW186536   1.604   4.191   7.031 -0.2647 -0.3151 -0.7522
27540SOL    HW286537   1.652   4.054   7.075  0.9774  0.0895 -0.8036
27541SOL     OW86538   8.986   6.339   7.549  0.0680 -0.6166  0.0850
27541SOL    HW186539   8.897   6.317   7.523  0.0613 -1.0153  0.4250
27541SOL    HW286540   9.027   6.373   7.470 -0.6755  0.4879  0.1549
27542SOL     OW86541   9.674   7.965   0.709 -0.5706 -0.7146 -0.2468
27542SOL    HW186542   9.743   7.987   0.771 -1.7584 -1.9601  1.6399
27542SOL    HW286543   9.691   8.020   0.633  1.8831 -0.2628  0.5327
27543SOL     OW86544   2.350   5.733   7.027  0.6951  0.3018  0.5399
27543SOL    HW186545   2.362   5.686   6.944  1.6926 -0.4917  1.1131
27543SOL    HW286546   2.270   5.783   7.015  0.7595  0.0941 -0.8602
27544SOL     OW86547   5.665   5.539   5.023  0.3271 -0.0606  0.0619
27544SOL    HW186548   5.661   5.588   4.941 -1.3176 -1.8367 -1.0004
27544SOL    HW286549   5.732   5.584   5.075 -0.0298  2.3441 -1.4156
27545SOL     OW86550   1.903   1.278   4.824  0.4555 -0.0130 -0.4965
27545SOL    HW186551   1.923   1.367   4.795 -0.1685 -0.1839 -1.5050
27545SOL    HW286552   1.914   1.224   4.746 -1.1021 -0.5177 -0.4103
27546SOL     OW86553   1.412   8.497   2.199 -0.4289 -0.1535 -0.3183
27546SOL    HW186554   1.414   8.582   2.244 -0.8272 -0.5141  0.4080
27546SOL    HW286555   1.378   8.517   2.112 -1.2824  0.3413  0.1052
27547SOL     OW86556   8.868   1.271   8.883  0.6837  0.2806  0.1174
27547SOL    HW186557   8.922   1.335   8.929 -0.4351  0.6411  0.9742
27547SOL    HW286558   8.912   1.258   8.800  2.2505  0.3404  0.8976
27548SOL     OW86559   7.051   4.765   7.267 -0.4028 -0.3220  0.6829
27548SOL    HW186560   7.012   4.779   7.180 -0.0263 -0.8382  0.4293
27548SOL    HW286561   7.145   4.764   7.252 -0.3553 -1.1669  0.9815
27549SOL     OW86562   3.459   9.979   5.767 -0.6016 -0.0282  0.0806
27549SOL    HW186563   3.438  10.026   5.848 -2.4588 -1.5554  0.5601
27549SOL    HW286564   3.399   9.904   5.767 -0.1509 -0.4536 -2.3763
27550SOL     OW86565   3.380   1.974   5.667 -0.3575  0.2840 -0.3470
27550SOL    HW186566   3.408   1.941   5.752 -1.5644 -1.8148 -0.6850
27550SOL    HW286567   3.371   2.068   5.680 -0.9300 -0.0157  1.9937
27551SOL     OW86568   2.748   9.791   1.277  0.0076 -0.4099 -0.7188
27551SOL    HW186569   2.718   9.828   1.194  0.5634  1.2901 -0.2066
27551SOL    HW286570   2.844   9.799   1.274 -0.0366  1.6954  0.9039
27552SOL     OW86571   4.450   0.846   0.331 -0.1469  0.1427  0.9690
27552SOL    HW186572   4.543   0.823   0.336  0.2869  1.4213 -0.2217
27552SOL    HW286573   4.446   0.911   0.260 -2.1383 -0.7971  0.1464
27553SOL     OW86574   9.879   8.904   3.388 -0.0561  0.3441 -0.4685
27553SOL    HW186575   9.956   8.873   3.435 -0.7648 -0.5889  0.1057
27553SOL    HW286576   9.910   8.980   3.339  1.1472  0.1786  0.0049
27554SOL     OW86577   0.441   5.818   3.939 -0.5451 -0.1340 -0.5714
27554SOL    HW186578   0.347   5.832   3.930 -0.4671  1.2191  0.3834
27554SOL    HW286579   0.480   5.867   3.867 -0.5946 -1.8102 -1.7989
27555SOL     OW86580   6.920   3.750   5.433 -0.3512 -0.2591 -0.2844
27555SOL    HW186581   6.987   3.818   5.442 -0.4472 -0.2618  0.5157
27555SOL    HW286582   6.867   3.778   5.359 -0.5627  0.6925  0.2211
27556SOL     OW86583   4.784   8.521   1.765  0.1941  0.8086 -0.1553
27556SOL    HW186584   4.878   8.510   1.783  0.2239  2.3812  0.8781
27556SOL    HW286585   4.758   8.439   1.724  1.8635  0.0507  0.1877
27557SOL     OW86586   5.703   3.219   7.933  0.1082  0.0346  0.4373
27557SOL    HW186587   5.667   3.220   8.022  2.9344 -2.0761  1.7641
27557SOL    HW286588   5.673   3.135   7.897  0.3258  0.1304  0.0367
27558SOL     OW86589   4.059   4.921   8.527 -0.2285  0.6677 -0.4925
27558SOL    HW186590   4.038   5.014   8.533 -1.7461  0.2570  1.4432
27558SOL    HW286591   4.066   4.892   8.618 -0.9678 -1.3445 -1.0248
27559SOL     OW86592   9.877   6.754   1.152  0.0581  0.7701 -0.1114
27559SOL    HW186593   9.960   6.720   1.117  0.4843  0.7409  0.8698
27559SOL    HW286594   9.878   6.847   1.130  0.8567  0.9929  0.7575
27560SOL     OW86595   3.742   8.828   9.577 -0.4531 -0.2395 -0.3537
27560SOL    HW186596   3.763   8.883   9.652 -0.2958  0.6737 -1.0483
27560SOL    HW286597   3.827   8.811   9.535 -0.2863 -2.3082  0.6862
27561SOL     OW86598   7.209   7.712   8.358  0.0989  0.1496  0.1590
27561SOL    HW186599   7.301   7.728   8.336 -0.0521 -0.6458 -1.1467
27561SOL    HW286600   7.161   7.729   8.277 -0.9812  1.0812  0.9762
27562SOL     OW86601   5.017   2.245   1.248 -0.0398  0.0638  0.2693
27562SOL    HW186602   5.051   2.227   1.336 -0.0717  0.8455  0.4488
27562SOL    HW286603   5.066   2.186   1.191  1.5096  1.0233  0.5445
27563SOL     OW86604   0.204   5.708   9.815 -0.0322  0.2215  0.4796
27563SOL    HW186605   0.153   5.707   9.734 -0.5487  1.0842  0.7741
27563SOL    HW286606   0.153   5.655   9.876  0.2207 -0.2063  0.3215
27564SOL     OW86607   2.301   3.853   8.754 -0.4360  0.2631 -0.1515
27564SOL    HW186608   2.342   3.801   8.823  1.2874  1.0305 -0.5414
27564SOL    HW286609   2.359   3.928   8.744 -0.7458  0.2527 -2.3273
27565SOL     OW86610   6.594   1.985   6.741  0.6648  0.2866 -0.2943
27565SOL    HW186611   6.545   1.907   6.718 -0.7041  0.3532  2.1018
27565SOL    HW286612   6.591   2.039   6.662  0.2992 -1.4010 -1.4803
27566SOL     OW86613   1.748   5.678   2.218 -0.4856 -0.1945 -0.0112
27566SOL    HW186614   1.684   5.736   2.177  0.2559 -0.7297 -2.1109
27566SOL    HW286615   1.699   5.630   2.284 -2.0104  0.1432 -0.8387
27567SOL     OW86616   1.561   2.482   7.351 -0.1654 -0.2162 -0.3822
27567SOL    HW186617   1.524   2.394   7.358  1.3743 -0.8242  0.5755
27567SOL    HW286618   1.584   2.490   7.258 -1.2938 -0.3904 -0.6921
27568SOL     OW86619   6.934   0.311   3.969 -0.2663  0.1114  0.2535
27568SOL    HW186620   6.865   0.299   4.034 -1.0995  1.6031 -0.3048
27568SOL    HW286621   6.887   0.317   3.885  0.3229  2.5553  0.0021
27569SOL     OW86622   6.444   6.095   6.590 -0.1208 -0.0403 -0.6091
27569SOL    HW186623   6.460   6.003   6.569 -3.0626 -0.5459 -1.0700
27569SOL    HW286624   6.431   6.096   6.685 -1.6050 -0.4263 -0.7831
27570SOL     OW86625   7.817   4.593   1.674 -0.3875  0.4579 -0.0426
27570SOL    HW186626   7.889   4.603   1.736 -0.4498 -0.8654  0.2618
27570SOL    HW286627   7.859   4.587   1.589 -0.2272  1.0643 -0.0087
27571SOL     OW86628   8.992   8.802   4.739  0.2098  0.6953  0.2775
27571SOL    HW186629   9.074   8.815   4.691 -0.7606 -3.0922 -2.8548
27571SOL    HW286630   9.010   8.728   4.797 -0.3877  1.4617  1.5054
27572SOL     OW86631   9.738   0.328   8.046 -0.0981 -0.3493  0.1797
27572SOL    HW186632   9.832   0.345   8.046 -0.0506 -0.5246  1.6017
27572SOL    HW286633   9.730   0.233   8.058 -0.4622 -0.2143  1.0526
27573SOL     OW86634   2.792   7.559   4.400 -0.1857  0.1276  0.2628
27573SOL    HW186635   2.723   7.578   4.463 -0.7832 -1.8629  0.2608
27573SOL    HW286636   2.746   7.527   4.322  0.6948 -0.6947  0.0586
27574SOL     OW86637  10.131   8.861   3.499 -0.3850  0.9471 -0.0771
27574SOL    HW186638  10.141   8.767   3.512 -0.9195  1.0381  1.1500
27574SOL    HW286639  10.211   8.899   3.534 -0.1543  0.9438 -0.6045
27575SOL     OW86640   1.273   5.334   9.941  0.6594  0.2849 -0.3030
27575SOL    HW186641   1.367   5.345   9.950  0.7320 -0.9788  0.7136
27575SOL    HW286642   1.261   5.242   9.920 -0.3962  0.2300  0.4673
27576SOL     OW86643   3.922   7.882   0.831  0.6053 -0.9180 -0.0732
27576SOL    HW186644   3.897   7.795   0.801 -0.0113 -0.4309 -1.0336
27576SOL    HW286645   3.841   7.933   0.827  1.0747 -0.1527 -0.0641
27577SOL     OW86646   8.961   3.854   6.061 -0.8733 -0.5168  0.0503
27577SOL    HW186647   9.015   3.926   6.094 -2.0928  0.8568 -0.8038
27577SOL    HW286648   8.989   3.843   5.970  1.1512 -2.9884  0.8845
27578SOL     OW86649   2.554   9.282   7.377  0.5750 -0.2057  0.1230
27578SOL    HW186650   2.502   9.354   7.341  1.2631 -1.3214 -3.5429
27578SOL    HW286651   2.617   9.325   7.435 -1.2565  1.6713  0.8478
27579SOL     OW86652   2.083   7.720   7.261  0.1287 -0.4236  0.4777
27579SOL    HW186653   2.070   7.776   7.338  1.1078  0.2902  0.1426
27579SOL    HW286654   1.995   7.704   7.228 -0.1568  1.4095  0.2551
27580SOL     OW86655   7.613   7.542   4.191  0.5730  0.4513  0.1130
27580SOL    HW186656   7.565   7.459   4.186  0.7331  0.3591  0.1199
27580SOL    HW286657   7.704   7.519   4.173  0.6817  0.5634  0.4965
27581SOL     OW86658   3.491   6.119   3.624  0.0982  0.3074  0.4648
27581SOL    HW186659   3.399   6.093   3.618  0.5022 -1.1512  0.1878
27581SOL    HW286660   3.535   6.043   3.663  1.5018  0.1636 -1.2421
27582SOL     OW86661   6.857  10.188   4.961 -0.2882 -0.1072  0.3626
27582SOL    HW186662   6.915  10.117   4.935  1.9644  1.5796  0.4429
27582SOL    HW286663   6.785  10.145   5.006 -0.6172 -2.5435 -2.2253
27583SOL     OW86664   4.738   6.821   5.143  0.2061  0.2680  0.0485
27583SOL    HW186665   4.719   6.735   5.180  0.4059  0.4040  0.4756
27583SOL    HW286666   4.789   6.866   5.211 -1.8084  1.5666  0.8086
27584SOL     OW86667   8.084   2.722   7.720  0.1385  0.2638 -0.3703
27584SOL    HW186668   8.159   2.774   7.749 -1.0081  1.4976  0.4733
27584SOL    HW286669   8.025   2.722   7.795 -0.0124 -2.1163 -0.3988
27585SOL     OW86670   1.719   0.978   4.087 -0.1662  0.1904 -0.4331
27585SOL    HW186671   1.798   0.955   4.137 -0.5113 -0.3316 -0.1206
27585SOL    HW286672   1.678   0.894   4.068  0.3328  0.3020 -2.2313
27586SOL     OW86673   6.165   6.347   2.533  0.3814 -0.0903  0.4104
27586SOL    HW186674   6.191   6.325   2.622 -1.0436  0.4895  1.0123
27586SOL    HW286675   6.232   6.309   2.477  1.3275 -0.4136  1.7368
27587SOL     OW86676   5.405   8.493   5.888 -0.6513 -0.1566 -0.6508
27587SOL    HW186677   5.357   8.564   5.847 -0.8361  0.4620  0.5979
27587SOL    HW286678   5.350   8.465   5.961  0.2175 -0.3850 -0.0599
27588SOL     OW86679   3.303   9.406   4.844 -0.4724  0.4701 -0.0046
27588SOL    HW186680   3.255   9.372   4.769 -0.4750 -3.1241  1.3966
27588SOL    HW286681   3.238   9.412   4.914  0.2815 -0.5052  0.8200
27589SOL     OW86682   5.044   6.653   2.230  0.0334  0.0322  0.3911
27589SOL    HW186683   5.113   6.690   2.176  0.1495  0.3259  0.7344
27589SOL    HW286684   4.967   6.706   2.210 -0.3764 -0.9716 -0.7930
27590SOL     OW86685   3.868   7.362   1.976 -0.5691 -0.1472 -0.5537
27590SOL    HW186686   3.941   7.421   1.957  0.0691 -0.8219 -0.2591
27590SOL    HW286687   3.843   7.385   2.066  0.2921 -0.9322 -0.0946
27591SOL     OW86688   8.536   8.031   8.293 -0.4197  0.3492 -0.6680
27591SOL    HW186689   8.519   7.986   8.211 -0.1864 -0.2755 -0.3797
27591SOL    HW286690   8.596   7.973   8.340 -1.3440  0.2147  0.3741
27592SOL     OW86691   0.721   1.758   7.078  0.5813 -0.3526  0.5335
27592SOL    HW186692   0.630   1.733   7.093  0.4065  0.3667  0.7129
27592SOL    HW286693   0.761   1.681   7.038  0.1585 -1.0572  1.4283
27593SOL     OW86694   7.335   7.697   5.567  0.2757 -1.0065 -0.2027
27593SOL    HW186695   7.313   7.782   5.606  0.7977  0.1209 -2.2176
27593SOL    HW286696   7.254   7.648   5.569  0.1090 -0.7364  1.5756
27594SOL     OW86697   9.717   2.020   4.714  0.1940 -0.3686 -0.3956
27594SOL    HW186698   9.790   1.999   4.656 -0.9564 -0.7457 -1.7511
27594SOL    HW286699   9.656   2.069   4.660 -1.5918 -1.9866  0.0666
27595SOL     OW86700   6.351   8.568   7.756 -0.1313 -0.1377 -0.1575
27595SOL    HW186701   6.306   8.567   7.840 -1.6760  0.2833 -0.9451
27595SOL    HW286702   6.298   8.626   7.701  1.9325  1.1870 -0.8629
27596SOL     OW86703   2.057   7.583   2.552 -0.0661  0.5971  0.2535
27596SOL    HW186704   2.037   7.625   2.468 -0.1517 -0.4797 -0.2809
27596SOL    HW286705   2.144   7.616   2.575  0.1661  0.5320 -0.5044
27597SOL     OW86706   3.362   3.703   2.386 -0.1342 -0.1865 -0.5088
27597SOL    HW186707   3.375   3.725   2.479  3.2648 -1.3546 -0.5691
27597SOL    HW286708   3.361   3.788   2.342  0.2483  0.3063  0.3910
27598SOL     OW86709   3.348   6.318   1.747 -0.8748 -0.0988  0.8845
27598SOL    HW186710   3.390   6.326   1.833 -0.3778 -0.5241  0.6857
27598SOL    HW286711   3.259   6.350   1.761 -1.1521 -1.2062  1.8527
27599SOL     OW86712   8.517   6.384   2.546 -0.3077  0.1390  0.5890
27599SOL    HW186713   8.520   6.406   2.639  1.2250  0.2687  0.5477
27599SOL    HW286714   8.607   6.397   2.516 -0.4997 -1.1118 -0.6376
27600SOL     OW86715   8.548   4.633   5.881 -0.1089  0.5796  0.2588
27600SOL    HW186716   8.534   4.574   5.954  0.0368  1.4841  1.0418
27600SOL    HW286717   8.630   4.603   5.841 -0.4041 -0.1715  0.2134
27601SOL     OW86718   7.131   6.795   9.699 -0.3342  0.0521  0.2023
27601SOL    HW186719   7.193   6.775   9.628 -0.1477  1.7078 -0.1237
27601SOL    HW286720   7.185   6.794   9.779  0.0052  0.8511 -0.0061
27602SOL     OW86721   1.418   8.506   3.483 -0.6070  0.3696 -0.4853
27602SOL    HW186722   1.464   8.569   3.426 -0.4160  1.5808  0.9357
27602SOL    HW286723   1.456   8.421   3.460 -0.1864  0.8865 -1.8005
27603SOL     OW86724   2.412   6.938   3.060 -0.3684 -0.2164 -0.5671
27603SOL    HW186725   2.406   6.881   2.983 -1.6418  0.5122 -1.0371
27603SOL    HW286726   2.327   6.982   3.065  0.6347  1.8448 -0.3754
27604SOL     OW86727   6.131   5.121   9.856 -0.1666 -0.2032 -0.3087
27604SOL    HW186728   6.153   5.165   9.938 -0.3749 -0.4977 -0.0947
27604SOL    HW286729   6.186   5.043   9.855 -2.2840 -1.8035  0.9923
27605SOL     OW86730   7.643   2.630   4.809  0.1096  0.3606 -0.5242
27605SOL    HW186731   7.726   2.633   4.857  0.2801 -0.7038 -0.7115
27605SOL    HW286732   7.623   2.721   4.789  1.5218  0.5978 -0.9563
27606SOL     OW86733   6.055   6.205   5.804 -0.0232  0.5991  0.5028
27606SOL    HW186734   6.129   6.154   5.773 -0.1204 -0.6882  2.2556
27606SOL    HW286735   6.007   6.229   5.725  0.1701 -1.8359 -0.4187
27607SOL     OW86736   8.292   6.441   0.975  0.1324  0.3151 -0.2533
27607SOL    HW186737   8.225   6.376   0.949  0.5223 -0.3559  0.3830
27607SOL    HW286738   8.283   6.447   1.070 -1.1254  2.5724 -0.4582
27608SOL     OW86739   2.871   6.429   3.414 -0.1618 -0.1271  0.3486
27608SOL    HW186740   2.956   6.461   3.383 -0.5372  0.6913  0.1348
27608SOL    HW286741   2.892   6.375   3.490  0.5325  0.2897  0.4615
27609SOL     OW86742   5.314   1.764   4.689  0.0720 -0.4102  0.4082
27609SOL    HW186743   5.242   1.727   4.741 -0.4927 -1.1078 -0.8416
27609SOL    HW286744   5.373   1.801   4.755 -2.3331  1.9626  1.4277
27610SOL     OW86745   8.751   7.232   9.760  0.2126  0.7380 -0.3742
27610SOL    HW186746   8.713   7.316   9.787  0.3207  0.9123 -0.7655
27610SOL    HW286747   8.767   7.241   9.666 -0.4049  0.0416 -0.5603
27611SOL     OW86748   7.400   4.016   5.045  0.3361 -0.1670  0.1572
27611SOL    HW186749   7.425   4.053   4.961  0.7784  0.7392  0.6729
27611SOL    HW286750   7.394   4.091   5.104 -0.5135 -0.7262  0.8066
27612SOL     OW86751   7.334   0.884   2.145  0.8924  0.4532 -0.4065
27612SOL    HW186752   7.284   0.802   2.141  0.9023  0.3713  0.7274
27612SOL    HW286753   7.305   0.933   2.069  1.6367 -1.0077 -1.6925
27613SOL     OW86754   6.236   8.305   3.167 -0.1521 -0.3512  0.2663
27613SOL    HW186755   6.164   8.251   3.132 -0.3938 -0.8959  1.5398
27613SOL    HW286756   6.309   8.244   3.177  0.1987 -0.0025 -0.1246
27614SOL     OW86757   9.125   4.101   5.779  0.1461 -0.5702  0.4394
27614SOL    HW186758   9.114   4.006   5.784 -0.1382 -0.5596  0.0973
27614SOL    HW286759   9.036   4.135   5.794  0.4584 -0.3071  1.8234
27615SOL     OW86760   8.792   6.152   8.460 -0.2022 -0.5536  0.1268
27615SOL    HW186761   8.857   6.222   8.464  0.0718 -0.7170 -1.2201
27615SOL    HW286762   8.741   6.162   8.541  1.5140 -0.4525  1.2390
27616SOL     OW86763   5.353   6.951   5.117  0.1850 -0.8781 -0.0348
27616SOL    HW186764   5.433   6.980   5.075 -0.4045 -0.7447 -1.1003
27616SOL    HW286765   5.311   6.893   5.053 -2.1682  1.6086 -0.9218
27617SOL     OW86766   0.843   4.291   2.114  0.1988  0.2272 -0.4240
27617SOL    HW186767   0.765   4.245   2.082  0.6408 -0.3905 -0.6253
27617SOL    HW286768   0.908   4.223   2.127  1.0588  0.8555 -1.2765
27618SOL     OW86769   8.688   1.825   5.690  0.1013  0.1029 -0.2982
27618SOL    HW186770   8.693   1.915   5.722 -1.1221  0.4900 -1.1118
27618SOL    HW286771   8.777   1.791   5.698  0.4846  1.2433  0.4266
27619SOL     OW86772   3.967   8.180   1.132  0.3647 -0.0686 -0.1537
27619SOL    HW186773   4.019   8.258   1.115 -0.1740  0.4260  0.4684
27619SOL    HW286774   3.885   8.195   1.085 -0.4630  0.5579  1.4355
27620SOL     OW86775   1.827   0.056   0.824  0.4615  0.3229 -0.2513
27620SOL    HW186776   1.915   0.034   0.854 -0.2005  0.5231  2.0175
27620SOL    HW286777   1.802  -0.018   0.769  0.2559 -2.2689  3.0202
27621SOL     OW86778   6.162   3.360   2.417  0.1498  0.2001 -0.0883
27621SOL    HW186779   6.118   3.436   2.380 -1.6563 -1.6353 -1.9599
27621SOL    HW286780   6.242   3.351   2.365  0.1234  0.5078 -0.1822
27622SOL     OW86781   8.697   5.092   3.955 -0.4004 -0.5016 -0.0710
27622SOL    HW186782   8.750   5.016   3.978  0.4857  0.0719 -0.1354
27622SOL    HW286783   8.726   5.116   3.868 -1.5435 -0.8063 -0.5552
27623SOL     OW86784   6.487   7.547   3.085  0.3217  0.1425 -0.2211
27623SOL    HW186785   6.539   7.626   3.099 -0.2730  0.3504  0.9837
27623SOL    HW286786   6.410   7.560   3.140 -0.2774 -0.8226 -0.8207
27624SOL     OW86787   5.177   5.366   4.148  0.0767 -0.0454  0.2718
27624SOL    HW186788   5.203   5.453   4.180  1.1025  0.0824 -0.8076
27624SOL    HW286789   5.095   5.347   4.193  0.1025  1.2583  0.9251
27625SOL     OW86790   3.586   5.495   9.276 -0.7086 -0.5220  0.0276
27625SOL    HW186791   3.632   5.579   9.272 -0.2269 -0.7848 -0.0845
27625SOL    HW286792   3.502   5.515   9.318 -0.6547  0.0367 -0.1248
27626SOL     OW86793   4.661   6.576   6.185  0.2078  0.1796 -0.4818
27626SOL    HW186794   4.644   6.501   6.242  0.0777  0.4202 -0.2014
27626SOL    HW286795   4.755   6.591   6.193  0.0706  0.7189  0.3184
27627SOL     OW86796  10.135   8.491   7.414  0.5170  0.1093  0.5788
27627SOL    HW186797  10.165   8.476   7.503 -0.0872  1.7371  1.0845
27627SOL    HW286798  10.126   8.586   7.406 -2.3665 -0.1202 -0.2135
27628SOL     OW86799   5.548   8.111   3.252 -0.6340  0.3303 -0.7527
27628SOL    HW186800   5.491   8.187   3.244 -2.5535 -0.9056  0.4503
27628SOL    HW286801   5.631   8.139   3.214 -1.1858  3.1054 -0.1067
27629SOL     OW86802   9.682   4.287   4.819  0.0576  0.3136 -0.4916
27629SOL    HW186803   9.749   4.338   4.774 -2.1303  2.3332 -1.7175
27629SOL    HW286804   9.601   4.338   4.807 -1.7154 -1.9700  0.8817
27630SOL     OW86805   7.458   8.737   6.328  0.1025 -0.5620  0.0698
27630SOL    HW186806   7.373   8.779   6.313 -0.3404 -0.9335  1.3495
27630SOL    HW286807   7.522   8.803   6.302 -0.5697  0.9772  2.0321
27631SOL     OW86808   3.741   2.275   2.315 -0.7733 -0.5012 -0.2639
27631SOL    HW186809   3.736   2.225   2.234  0.2047 -0.1657 -0.5536
27631SOL    HW286810   3.824   2.247   2.354  0.9279  2.3826 -1.4837
27632SOL     OW86811   6.525   4.351   8.682 -0.0591 -0.1986  0.7046
27632SOL    HW186812   6.548   4.392   8.599 -1.3502  0.9281  0.8626
27632SOL    HW286813   6.605   4.306   8.711  0.2903 -0.9715 -1.3276
27633SOL     OW86814   6.316   4.171   5.757 -0.0306 -0.2030  0.3012
27633SOL    HW186815   6.313   4.133   5.845 -0.9477  0.6983  0.6729
27633SOL    HW286816   6.335   4.097   5.699 -0.2415 -0.9450  1.1660
27634SOL     OW86817   6.567   5.453  10.011  1.1522 -0.4637  0.2624
27634SOL    HW186818   6.623   5.492   9.944  2.4439  0.3074  1.7224
27634SOL    HW286819   6.496   5.517  10.022  1.1480 -0.4074 -0.0704
27635SOL     OW86820   7.896   4.583   1.152 -0.1668 -0.0896  0.0252
27635SOL    HW186821   7.937   4.655   1.105  0.2936  0.7419  1.6474
27635SOL    HW286822   7.930   4.504   1.109  1.5821  0.6149  0.0365
27636SOL     OW86823   5.427   6.501   8.115 -0.1527  0.0766 -0.7466
27636SOL    HW186824   5.341   6.501   8.158 -0.1847 -0.6584 -0.7947
27636SOL    HW286825   5.455   6.409   8.117  2.5957  0.7970  3.0522
27637SOL     OW86826   6.003   0.216   0.976 -0.5450 -0.2624  0.2027
27637SOL    HW186827   5.958   0.298   0.997 -0.3764 -0.8270  3.1780
27637SOL    HW286828   5.951   0.177   0.905 -2.3253  1.0384  0.7376
27638SOL     OW86829   6.436   0.309   2.671  0.1522  0.2237 -0.1380
27638SOL    HW186830   6.415   0.255   2.595  0.5922  0.2241 -0.2612
27638SOL    HW286831   6.507   0.366   2.642 -1.0598  1.6871 -0.3840
27639SOL     OW86832   1.982   6.113   3.909  0.0348 -0.3920  0.5545
27639SOL    HW186833   1.977   6.038   3.851 -1.3186  1.2033 -1.5404
27639SOL    HW286834   1.900   6.161   3.894  0.2688  0.8576  2.7651
27640SOL     OW86835   5.835   6.039   6.653 -0.2108  0.0523  0.2494
27640SOL    HW186836   5.825   6.053   6.559  3.5023  2.6503  0.0004
27640SOL    HW286837   5.800   6.119   6.693  0.1154 -0.1096  0.8761
27641SOL     OW86838   5.776   6.701   2.583 -0.2608  0.0826 -0.0098
27641SOL    HW186839   5.783   6.791   2.551  0.9043 -0.1580 -0.4801
27641SOL    HW286840   5.731   6.655   2.512  1.0493 -0.1463 -0.7140
27642SOL     OW86841   6.451   5.780   3.405  0.5398 -0.1749  0.4197
27642SOL    HW186842   6.451   5.776   3.309 -1.1192 -2.2918  0.4223
27642SOL    HW286843   6.369   5.825   3.426 -1.7723 -4.0832  0.7451
27643SOL     OW86844   3.611   3.975   4.403 -0.3369 -0.1529 -0.1284
27643SOL    HW186845   3.674   4.042   4.378 -0.2830  0.1451  0.7736
27643SOL    HW286846   3.583   3.999   4.491 -1.3516 -0.5507 -0.3203
27644SOL     OW86847   2.298   6.150   7.988  0.0437 -0.4859 -0.5489
27644SOL    HW186848   2.329   6.203   7.915  0.7041 -1.4528 -0.9961
27644SOL    HW286849   2.207   6.129   7.965 -0.5708  1.2725  0.1328
27645SOL     OW86850   3.441   7.209   1.551 -0.4468 -0.0929  0.0802
27645SOL    HW186851   3.511   7.251   1.601 -1.4393  0.9564  0.6138
27645SOL    HW286852   3.475   7.121   1.533  0.8341  0.2537  0.6802
27646SOL     OW86853   6.550   4.210   3.108  0.1196  0.8818 -0.1033
27646SOL    HW186854   6.578   4.229   3.198  0.0131  1.0940 -0.1133
27646SOL    HW286855   6.632   4.199   3.059  0.1985 -1.5616  0.4785
27647SOL     OW86856   1.954   4.140   2.504 -0.5372  0.2130  0.1632
27647SOL    HW186857   1.954   4.213   2.442 -2.9985 -0.1295 -0.3158
27647SOL    HW286858   1.956   4.182   2.590 -0.9541  0.8257 -0.1177
27648SOL     OW86859   4.721   3.476   4.199 -0.5260 -0.0907 -0.2913
27648SOL    HW186860   4.744   3.414   4.130  0.8000  1.6539 -1.5398
27648SOL    HW286861   4.626   3.468   4.209 -0.4651 -1.8334 -0.8475
27649SOL     OW86862   9.345   6.872   8.967  0.9810  0.3648  0.2942
27649SOL    HW186863   9.304   6.948   9.008 -0.1311  0.5689 -1.1031
27649SOL    HW286864   9.275   6.834   8.913  1.9763 -0.7094 -0.2714
27650SOL     OW86865   3.329   4.443   2.322 -0.2613 -0.3008 -0.3663
27650SOL    HW186866   3.261   4.381   2.296 -1.6581  0.9395  0.1718
27650SOL    HW286867   3.397   4.434   2.256 -1.8506 -0.1667 -2.1059
27651SOL     OW86868   5.634   3.883   0.528 -0.3480 -0.6250  0.0049
27651SOL    HW186869   5.636   3.941   0.604 -0.8831 -0.3146 -0.2182
27651SOL    HW286870   5.654   3.939   0.453 -0.8438 -0.7229 -0.2090
27652SOL     OW86871   0.865   8.474   8.368 -0.7857 -0.2467 -0.4513
27652SOL    HW186872   0.927   8.483   8.441 -2.0030 -1.5226  0.8022
27652SOL    HW286873   0.916   8.433   8.298 -0.3430 -1.9593  0.8065
27653SOL     OW86874   5.504   9.439   0.792  0.3851 -0.2301  0.2466
27653SOL    HW186875   5.529   9.388   0.869  0.0250  1.0125  1.2133
27653SOL    HW286876   5.583   9.444   0.739  1.1643  0.4437  1.4271
27654SOL     OW86877   7.849   0.531   3.944  0.1644 -1.2555 -0.1815
27654SOL    HW186878   7.844   0.621   3.915 -1.7912  0.0498  3.4759
27654SOL    HW286879   7.943   0.512   3.949  0.6052  0.5318 -1.0523
27655SOL     OW86880   0.586   4.417   8.495  0.2571  0.2768 -0.2961
27655SOL    HW186881   0.555   4.496   8.451 -0.1313 -0.9990 -2.4640
27655SOL    HW286882   0.530   4.409   8.572 -1.7719  0.5612 -1.6437
27656SOL     OW86883   7.876   1.879   8.445 -0.0086 -0.1594  0.2510
27656SOL    HW186884   7.962   1.915   8.467  0.3152 -1.5288  1.3528
27656SOL    HW286885   7.891   1.828   8.365 -0.0316  0.4549 -0.1490
27657SOL     OW86886   8.671   1.504   3.463 -0.5616  0.1416 -0.2752
27657SOL    HW186887   8.646   1.570   3.528 -1.4443  0.7435 -1.2060
27657SOL    HW286888   8.766   1.495   3.473 -0.7651 -0.4207  1.6815
27658SOL     OW86889   0.753   2.672   8.250  0.0735 -0.1208 -0.1591
27658SOL    HW186890   0.671   2.681   8.298  1.0317 -0.6539  1.6970
27658SOL    HW286891   0.793   2.593   8.287  1.3280  0.0148 -1.1577
27659SOL     OW86892   3.366   4.894   4.521 -0.0864  0.4320 -0.5906
27659SOL    HW186893   3.274   4.916   4.508 -0.7002 -1.6909 -0.3173
27659SOL    HW286894   3.402   4.968   4.570 -2.3334  0.1711  1.6707
27660SOL     OW86895   3.879   0.815   0.267 -0.0019  0.0623  0.0664
27660SOL    HW186896   3.827   0.880   0.221 -0.3954 -0.0897  0.2911
27660SOL    HW286897   3.959   0.862   0.292  0.1624  0.1750 -0.6582
27661SOL     OW86898   3.159   1.911   5.494 -0.1978 -0.2600  0.2076
27661SOL    HW186899   3.242   1.941   5.531 -0.6051  0.9112  0.2251
27661SOL    HW286900   3.153   1.819   5.518 -0.1160  0.2769  2.4523
27662SOL     OW86901   0.198   9.720   8.217 -0.2747  0.2446 -0.4881
27662SOL    HW186902   0.178   9.743   8.127 -0.2728 -0.0617 -0.5673
27662SOL    HW286903   0.132   9.655   8.240  1.5959 -2.1141 -1.3151
27663SOL     OW86904   6.970   9.716   6.445 -0.2785 -0.6692 -0.4280
27663SOL    HW186905   6.978   9.712   6.350 -3.4384  2.3587 -1.0352
27663SOL    HW286906   6.876   9.707   6.461  0.1610 -1.0288  2.4495
27664SOL     OW86907   8.848   4.996   1.013  0.3070 -0.1841 -0.3306
27664SOL    HW186908   8.792   4.984   1.089  0.1483  1.1621 -0.2221
27664SOL    HW286909   8.846   4.911   0.968 -0.7970 -0.5319  0.3526
27665SOL     OW86910   3.692   0.478   2.743 -0.1913 -0.3005  0.4742
27665SOL    HW186911   3.780   0.499   2.710  0.0688 -0.0941  1.2696
27665SOL    HW286912   3.633   0.524   2.683  0.1796 -1.3401 -0.7378
27666SOL     OW86913   1.386   2.035   7.143  0.6412  0.4892  0.0503
27666SOL    HW186914   1.407   2.065   7.054  0.7892 -0.8376 -0.3863
27666SOL    HW286915   1.304   1.987   7.133 -0.2061  1.7065  0.9416
27667SOL     OW86916   8.103   6.752   0.718  0.3080 -0.9183 -0.1015
27667SOL    HW186917   8.115   6.845   0.738 -0.5841 -0.6242 -0.9003
27667SOL    HW286918   8.039   6.721   0.782 -0.3435 -0.6706 -0.6196
27668SOL     OW86919   3.454   8.813   4.294  0.5102  0.1862 -0.6266
27668SOL    HW186920   3.460   8.750   4.222  1.5247  0.0408 -0.4287
27668SOL    HW286921   3.524   8.788   4.354 -0.8710 -0.2493  0.8814
27669SOL     OW86922   4.162   4.666   0.196  0.1253 -0.2513 -0.2865
27669SOL    HW186923   4.094   4.633   0.137 -1.5391 -1.0676  1.9653
27669SOL    HW286924   4.221   4.592   0.208 -1.2505 -1.1599  1.3940
27670SOL     OW86925   7.796   9.048   1.701 -0.0548  0.3923 -0.4308
27670SOL    HW186926   7.844   9.038   1.783  1.6375  0.2799 -1.3769
27670SOL    HW286927   7.785   9.143   1.691  2.7874  0.7018 -1.6459
27671SOL     OW86928   1.013   3.997   0.190  0.1205  0.1828  0.0324
27671SOL    HW186929   0.992   4.029   0.278  2.7430 -0.1975  0.8888
27671SOL    HW286930   0.997   3.903   0.193 -2.1897  0.4779 -0.7548
27672SOL     OW86931   7.894   8.550   3.258  0.4372 -0.1726  0.3513
27672SOL    HW186932   7.816   8.494   3.258  0.4621 -0.3667  3.2526
27672SOL    HW286933   7.861   8.637   3.278  0.9018 -0.2389  1.5042
27673SOL     OW86934   3.786   3.227   3.648 -0.4944  0.3895  0.4595
27673SOL    HW186935   3.786   3.282   3.569 -0.4228  1.4541  1.1777
27673SOL    HW286936   3.876   3.234   3.681 -0.0283 -1.4432 -0.2691
27674SOL     OW86937   8.410   2.502   7.295  0.0198  0.5712 -0.4786
27674SOL    HW186938   8.484   2.506   7.355  0.2032 -1.2369 -0.5203
27674SOL    HW286939   8.449   2.480   7.210 -0.4614  0.7474 -0.7491
27675SOL     OW86940   3.067   1.743   5.148  0.3783 -0.3535 -0.4315
27675SOL    HW186941   2.990   1.705   5.190 -0.3608  0.5625 -0.9254
27675SOL    HW286942   3.073   1.698   5.064 -1.9859  2.2026 -2.1421
27676SOL     OW86943   5.822   0.697   0.735  0.2760  0.3438  0.2751
27676SOL    HW186944   5.797   0.670   0.647 -3.1126 -0.3743  1.3381
27676SOL    HW286945   5.873   0.624   0.770 -3.0828 -1.9654  0.7447
27677SOL     OW86946   9.286   4.625   6.346 -0.3244 -0.1771 -0.2706
27677SOL    HW186947   9.363   4.582   6.310  0.0716  1.3684 -1.3731
27677SOL    HW286948   9.221   4.623   6.275 -0.5312  0.4109 -0.1093
27678SOL     OW86949   7.631   9.025   3.174 -0.1325 -0.8408 -0.4281
27678SOL    HW186950   7.614   9.067   3.258  2.7405 -0.8475  0.2830
27678SOL    HW286951   7.634   8.931   3.194  0.1342 -0.8722 -0.6047
27679SOL     OW86952   8.824   2.382   5.785  0.4560  0.7629 -0.7811
27679SOL    HW186953   8.870   2.455   5.826  0.3985  0.2089  0.3097
27679SOL    HW286954   8.795   2.328   5.859 -0.0971  0.0015 -1.5429
27680SOL     OW86955   5.547   7.146   2.210 -0.1277  0.5146  0.2514
27680SOL    HW186956   5.491   7.223   2.213  1.3151  1.6093  0.5463
27680SOL    HW286957   5.489   7.074   2.185 -1.4444  1.7579 -0.4037
27681SOL     OW86958   1.874   5.038   6.060 -0.0464  0.3669 -0.6438
27681SOL    HW186959   1.950   5.007   6.109 -0.0156  1.3990 -0.0151
27681SOL    HW286960   1.875   4.985   5.979 -0.5907 -1.9705  0.7777
27682SOL     OW86961   2.385   3.210   9.850  0.0946 -0.2275 -0.1264
27682SOL    HW186962   2.378   3.275   9.781  1.9017 -0.9215 -1.0273
27682SOL    HW286963   2.416   3.258   9.926  0.5198  0.1187 -0.5181
27683SOL     OW86964   9.686   9.494   8.769  0.0889  0.8807 -0.2348
27683SOL    HW186965   9.685   9.590   8.766 -0.8163  0.8600 -2.2093
27683SOL    HW286966   9.680   9.467   8.677 -0.5252 -1.0693  0.3301
27684SOL     OW86967   8.053   4.362   9.490 -0.5792 -0.1183 -0.2102
27684SOL    HW186968   8.039   4.385   9.398 -1.4740  0.9129  0.1546
27684SOL    HW286969   8.071   4.268   9.489 -0.8268 -0.1705 -1.4136
27685SOL     OW86970   2.994   6.001   8.420 -0.4588 -0.3360 -0.7471
27685SOL    HW186971   3.084   6.032   8.410 -0.6342  0.1328 -0.9023
27685SOL    HW286972   2.990   5.967   8.510  0.7188 -3.2575 -1.6764
27686SOL     OW86973   6.708   7.863   8.134 -0.3033  0.1590 -1.2393
27686SOL    HW186974   6.662   7.848   8.217  0.0315  0.7053 -0.9477
27686SOL    HW286975   6.727   7.957   8.135  0.7661 -0.0501 -1.3756
27687SOL     OW86976   9.253   7.680   0.121  0.5200  0.1486  0.1215
27687SOL    HW186977   9.262   7.739   0.046 -1.8048  0.6401  0.1456
27687SOL    HW286978   9.199   7.608   0.089 -1.4939  0.9327  1.5235
27688SOL     OW86979   2.527   3.108   2.973 -0.4650 -0.6223 -0.9571
27688SOL    HW186980   2.471   3.171   2.929 -0.6552 -0.3450 -0.3328
27688SOL    HW286981   2.467   3.055   3.026 -0.2952 -1.2508 -1.3754
27689SOL     OW86982   0.668   4.696   2.685  0.6344  0.2583  0.1761
27689SOL    HW186983   0.727   4.707   2.759  0.8331  1.8851 -0.1986
27689SOL    HW286984   0.715   4.734   2.611  0.4423 -1.3523 -0.8129
27690SOL     OW86985   0.706   4.662   3.337 -0.4613  0.2889 -0.3232
27690SOL    HW186986   0.668   4.697   3.257  0.8127  1.9671 -0.2551
27690SOL    HW286987   0.728   4.571   3.315 -1.2734  0.3342 -1.4447
27691SOL     OW86988   5.804   0.453   7.045 -0.3068  0.2223  0.1880
27691SOL    HW186989   5.888   0.484   7.012  0.7173 -1.9511  0.6086
27691SOL    HW286990   5.826   0.380   7.103 -2.2765  1.4633  2.7348
27692SOL     OW86991   2.997   5.673   5.691 -0.3497 -0.1113  0.1360
27692SOL    HW186992   3.003   5.624   5.609  2.2099 -0.2250  0.2948
27692SOL    HW286993   3.021   5.763   5.667 -0.0452 -0.0449  0.6680
27693SOL     OW86994   2.832   3.274   6.618  0.0503  0.1488  0.1449
27693SOL    HW186995   2.882   3.355   6.615 -0.0908  0.2422  0.3564
27693SOL    HW286996   2.821   3.255   6.711 -1.1588  0.6537  0.1256
27694SOL     OW86997   3.390   9.744   0.829  0.0711  0.0548 -0.0432
27694SOL    HW186998   3.471   9.768   0.874  0.9626  0.4018 -1.7384
27694SOL    HW286999   3.398   9.651   0.812  0.0308  0.0503 -0.0385
27695SOL     OW87000   2.174   1.679   2.629  0.4808 -0.2110 -0.0887
27695SOL    HW187001   2.104   1.721   2.679  0.2082  0.6402 -1.1412
27695SOL    HW287002   2.173   1.588   2.657 -2.4194 -0.7127 -1.5222
27696SOL     OW87003   4.100   4.740   4.386  0.3486 -0.2314 -0.0395
27696SOL    HW187004   4.051   4.661   4.407 -0.7618 -0.3643 -2.7338
27696SOL    HW287005   4.034   4.808   4.378  1.0706  0.5321  0.3322
27697SOL     OW87006   4.602   6.712   2.350  0.0284  0.1337  0.3172
27697SOL    HW187007   4.562   6.664   2.423  0.3978  1.3698  1.3817
27697SOL    HW287008   4.545   6.788   2.337  2.4268  2.5565  2.6130
27698SOL     OW87009   3.783   1.323   3.951  0.5601 -0.3491  0.4536
27698SOL    HW187010   3.821   1.277   4.026 -0.1953 -3.2178 -0.7779
27698SOL    HW287011   3.693   1.340   3.977  0.1156 -1.9086  0.0294
27699SOL     OW87012   8.073   5.858   2.373  0.6547  0.3623  0.3456
27699SOL    HW187013   8.130   5.900   2.308 -2.2606  2.1358 -1.2835
27699SOL    HW287014   8.093   5.902   2.455  0.4516  2.1771 -0.5414
27700SOL     OW87015   5.067   3.093   5.225  0.1832 -0.2882  0.2066
27700SOL    HW187016   5.124   3.168   5.205 -1.9570  2.1966  2.6525
27700SOL    HW287017   5.045   3.057   5.139  1.5401  1.6831 -1.0689
27701SOL     OW87018   0.851   5.185   7.329 -0.2931  0.0968  0.5936
27701SOL    HW187019   0.777   5.130   7.302 -0.1869 -0.5721  1.6327
27701SOL    HW287020   0.928   5.141   7.293 -0.3586  0.6578 -0.2713
27702SOL     OW87021   4.514   2.550   2.051 -0.5115 -0.4180  0.6076
27702SOL    HW187022   4.602   2.588   2.057 -1.0464  1.0483 -0.2008
27702SOL    HW287023   4.528   2.463   2.016  0.8780 -1.5387  3.5835
27703SOL     OW87024   5.339   9.547   9.049 -0.2228 -0.1322 -0.1900
27703SOL    HW187025   5.249   9.535   9.020  0.2102 -1.4222 -1.1559
27703SOL    HW287026   5.387   9.571   8.969  0.1731  1.2968  0.4547
27704SOL     OW87027   2.840   2.101   9.940 -0.3020 -0.3208  0.3512
27704SOL    HW187028   2.781   2.175   9.923 -1.3563 -1.2273 -0.0331
27704SOL    HW287029   2.904   2.104   9.869 -0.3290  0.2368  0.3482
27705SOL     OW87030   4.673   1.554   9.277  0.0699  0.0619  0.2928
27705SOL    HW187031   4.586   1.582   9.307 -1.1912 -0.3149 -2.6514
27705SOL    HW287032   4.733   1.617   9.316 -1.5023  0.4208  2.3231
27706SOL     OW87033   8.231   6.443   9.486 -0.4214  0.4283 -0.0845
27706SOL    HW187034   8.171   6.461   9.559  0.1472  0.5365  0.3566
27706SOL    HW287035   8.195   6.364   9.444 -0.3177 -0.0827  0.7761
27707SOL     OW87036   4.060   5.437   1.443 -0.1706  0.1533  0.1423
27707SOL    HW187037   4.145   5.482   1.443 -0.1732  0.1964  1.8050
27707SOL    HW287038   4.006   5.488   1.503 -0.4662 -1.5275  1.3481
27708SOL     OW87039   6.048   3.288   6.784 -0.9180  0.6955 -0.3222
27708SOL    HW187040   6.045   3.192   6.788  0.5842  0.6534  1.5401
27708SOL    HW287041   6.030   3.316   6.874 -2.5160  2.2529 -1.0710
27709SOL     OW87042   3.780   6.709   8.861  0.3348 -0.0334  0.0830
27709SOL    HW187043   3.705   6.725   8.803  1.4186  2.8533 -0.7026
27709SOL    HW287044   3.756   6.754   8.943  0.7434 -0.0568  0.2186
27710SOL     OW87045   6.066   5.956   1.067  0.5630 -0.1119 -0.6665
27710SOL    HW187046   6.081   5.974   0.974 -0.7933 -0.5459 -0.9996
27710SOL    HW287047   6.006   6.025   1.095 -0.6430 -1.1164 -0.6616
27711SOL     OW87048   9.448   2.814   5.431  0.1183  0.5442  0.1451
27711SOL    HW187049   9.515   2.747   5.449 -2.0267 -1.4758  1.0920
27711SOL    HW287050   9.460   2.879   5.500  0.6173 -0.1917  0.7692
27712SOL     OW87051  10.132   2.507   2.697  0.4810 -0.6227  0.2377
27712SOL    HW187052  10.202   2.568   2.674 -0.2333 -0.6146 -2.2488
27712SOL    HW287053  10.089   2.487   2.613 -0.3942 -3.2137  1.1987
27713SOL     OW87054   1.521   3.065   5.228 -0.0336 -0.1010 -0.5575
27713SOL    HW187055   1.599   3.053   5.283 -0.1374  0.6859 -0.2240
27713SOL    HW287056   1.517   2.985   5.175  2.1490  0.6639 -2.0318
27714SOL     OW87057   2.135   9.802   4.381  0.0457 -0.0654 -0.5213
27714SOL    HW187058   2.205   9.831   4.323  0.7055 -1.1302 -0.2756
27714SOL    HW287059   2.065   9.771   4.323 -1.0520  2.6726 -0.8392
27715SOL     OW87060   8.056   9.816   5.819  0.3439  0.1429 -0.0975
27715SOL    HW187061   8.016   9.816   5.732 -1.0153 -2.3002  0.4225
27715SOL    HW287062   8.143   9.778   5.805 -1.0580 -3.4861 -0.1000
27716SOL     OW87063   9.071   5.629   3.868 -0.3200  0.1234  0.7036
27716SOL    HW187064   9.065   5.713   3.823  0.7965  0.7919  1.7386
27716SOL    HW287065   9.118   5.649   3.949  2.1245 -1.8867 -0.0862
27717SOL     OW87066   9.368   5.608   8.495 -0.5445 -0.0599  0.1511
27717SOL    HW187067   9.376   5.649   8.582 -1.4238  0.8646 -0.1830
27717SOL    HW287068   9.287   5.643   8.460  1.0304  1.6358 -2.0935
27718SOL     OW87069   9.625   8.477   0.159  0.2395 -0.7679 -0.3034
27718SOL    HW187070   9.602   8.444   0.246  1.0029 -0.8357 -0.1147
27718SOL    HW287071   9.585   8.416   0.098 -0.3150 -0.7140 -0.0070
27719SOL     OW87072   5.212   1.612   2.412 -0.7647  0.0860 -0.0373
27719SOL    HW187073   5.147   1.617   2.342 -0.8959  0.5482  0.1113
27719SOL    HW287074   5.294   1.638   2.371 -0.7354 -0.1848 -0.1501
27720SOL     OW87075   2.539   5.293   0.715  0.0726  0.3859  0.1017
27720SOL    HW187076   2.564   5.220   0.772  2.2817 -0.1887 -1.4674
27720SOL    HW287077   2.615   5.350   0.715 -0.6415  1.3717 -0.7425
27721SOL     OW87078   5.298   6.958   4.475 -0.6190 -0.2438 -0.7671
27721SOL    HW187079   5.377   6.905   4.467 -0.5029 -0.4847  1.4770
27721SOL    HW287080   5.322   7.042   4.434  0.6079 -0.5250 -0.6800
27722SOL     OW87081   7.921   9.779   0.941  0.2039  0.0004  0.0165
27722SOL    HW187082   8.013   9.770   0.915 -0.3483 -2.3164 -1.4309
27722SOL    HW287083   7.908   9.873   0.951  2.4304  0.4681 -0.9139
27723SOL     OW87084   6.743   6.577   6.203 -0.0279  0.6046  0.7169
27723SOL    HW187085   6.801   6.580   6.126  0.8962 -0.6098  1.3271
27723SOL    HW287086   6.715   6.668   6.215 -2.3195  0.5230 -2.5620
27724SOL     OW87087   8.366   5.010   2.856 -0.0669 -0.0839 -0.5089
27724SOL    HW187088   8.423   5.080   2.888 -1.3532  0.3548  0.9523
27724SOL    HW287089   8.335   5.042   2.771  2.5530 -0.7750 -1.8340
27725SOL     OW87090   2.841   6.444   2.665  0.5476 -0.1807  0.4945
27725SOL    HW187091   2.819   6.409   2.752 -2.0102 -0.3038 -0.1443
27725SOL    HW287092   2.758   6.472   2.628  1.4691 -0.6821 -2.1925
27726SOL     OW87093   9.171   1.463   1.881 -0.0919  0.6121  0.0787
27726SOL    HW187094   9.134   1.540   1.837 -1.6772  0.0037  0.2505
27726SOL    HW287095   9.097   1.427   1.931  0.9125 -0.3799  0.8879
27727SOL     OW87096   0.442   2.772   1.838 -0.1041  0.0201  0.3439
27727SOL    HW187097   0.402   2.735   1.917 -0.4399 -0.3679 -0.0052
27727SOL    HW287098   0.495   2.701   1.802 -2.8121 -1.0995 -1.7877
27728SOL     OW87099   3.954   7.016   3.454 -0.6676  0.1681  0.3225
27728SOL    HW187100   4.011   6.967   3.395  1.0278  0.9358  1.2548
27728SOL    HW287101   3.895   6.950   3.490 -0.6594 -0.5859 -0.9880
27729SOL     OW87102   5.445   9.410   1.883 -0.3245 -0.4114 -0.3568
27729SOL    HW187103   5.441   9.317   1.858 -0.9748 -0.1981 -1.0956
27729SOL    HW287104   5.447   9.409   1.978  1.5009 -1.2307 -0.3622
27730SOL     OW87105   3.119   5.016   4.459  0.2193 -0.2453 -0.0823
27730SOL    HW187106   3.141   5.107   4.441  0.0096  0.0404  1.0489
27730SOL    HW287107   3.028   5.018   4.488 -0.1639 -0.9736 -1.1600
27731SOL     OW87108   2.680   6.932   7.665  0.1188  0.5264  0.2488
27731SOL    HW187109   2.636   7.007   7.705 -1.2773  0.7415 -1.5580
27731SOL    HW287110   2.672   6.862   7.730  0.1356  1.5005  1.3486
27732SOL     OW87111   2.082   0.054   5.071  0.4329 -0.0002 -0.5586
27732SOL    HW187112   2.030   0.023   5.145  2.8169 -0.6377  0.9559
27732SOL    HW287113   2.092  -0.022   5.014  1.5704 -0.5335  0.3170
27733SOL     OW87114   7.728   6.042   8.683  0.5522  0.3597  0.2139
27733SOL    HW187115   7.649   6.073   8.640 -0.6911 -2.0251  0.6040
27733SOL    HW287116   7.713   6.058   8.776 -0.9160 -2.7359  0.6343
27734SOL     OW87117   8.334   9.604   2.785  0.3020  0.2830 -0.3622
27734SOL    HW187118   8.243   9.634   2.776  0.2382  0.2535  0.1238
27734SOL    HW287119   8.330   9.537   2.853  0.7821  0.7340  0.1189
27735SOL     OW87120   6.038   1.975   8.603  0.0916 -0.0795  0.2885
27735SOL    HW187121   5.986   1.901   8.572  0.5297  0.0658 -0.8670
27735SOL    HW287122   6.123   1.937   8.624 -0.0639 -0.0992  0.9070
27736SOL     OW87123   7.566   9.471   7.707  0.3184  0.0691 -0.0177
27736SOL    HW187124   7.471   9.475   7.694  0.4531  1.2660 -0.7753
27736SOL    HW287125   7.577   9.445   7.798 -0.7302 -1.0814 -0.1964
27737SOL     OW87126   4.164   8.884   4.950  0.2999 -0.2400  0.0127
27737SOL    HW187127   4.211   8.858   4.871  0.7106 -2.6613  0.9557
27737SOL    HW287128   4.091   8.822   4.956  0.4516 -0.2945  1.6701
27738SOL     OW87129   6.408  10.182   7.212 -0.0278 -0.4277  0.5761
27738SOL    HW187130   6.460  10.127   7.154 -1.8596 -1.0906 -0.5202
27738SOL    HW287131   6.361  10.120   7.268  1.4816  0.1924  2.6513
27739SOL     OW87132   1.432   2.424   4.882  0.0156 -0.0526  0.1575
27739SOL    HW187133   1.473   2.344   4.848  1.5284  0.4895  0.6131
27739SOL    HW287134   1.400   2.401   4.968  0.4221 -0.1897  0.2745
27740SOL     OW87135   1.729   4.460   0.309  0.1637 -0.7298  0.2080
27740SOL    HW187136   1.778   4.378   0.306 -1.1251 -1.5484  0.7815
27740SOL    HW287137   1.790   4.523   0.350  0.8324 -1.6271  0.6219
27741SOL     OW87138   4.556   3.386   8.979  0.0734  0.0975  0.2999
27741SOL    HW187139   4.623   3.435   8.932 -0.0528  1.5329  1.5468
27741SOL    HW287140   4.600   3.306   9.009  0.8194  0.3475 -0.1227
27742SOL     OW87141   3.213   5.842   3.381  0.6980 -0.0436 -0.4585
27742SOL    HW187142   3.265   5.892   3.444  0.8840 -0.2760 -0.4223
27742SOL    HW287143   3.248   5.867   3.296 -1.4574  2.4689 -0.7106
27743SOL     OW87144   6.167   9.347   2.819 -0.2955 -0.0824 -0.0287
27743SOL    HW187145   6.096   9.402   2.853 -0.3791  0.1151 -0.5153
27743SOL    HW287146   6.166   9.363   2.725 -0.2192 -0.8094 -0.1534
27744SOL     OW87147   9.171   7.896   9.168 -0.5723 -0.4385  0.1542
27744SOL    HW187148   9.193   7.890   9.075  0.1934  2.2325  0.0764
27744SOL    HW287149   9.075   7.900   9.170 -0.7247 -2.6464 -0.2868
27745SOL     OW87150   3.230   1.600   7.022  0.1241  0.3107 -0.0446
27745SOL    HW187151   3.301   1.643   7.069  0.3883  0.6893 -0.7828
27745SOL    HW287152   3.161   1.667   7.017 -0.2796 -0.0436  0.6398
27746SOL     OW87153   5.106   7.681   8.794 -0.1574 -0.6441 -0.4437
27746SOL    HW187154   5.186   7.724   8.824  1.3832 -3.6957  0.1888
27746SOL    HW287155   5.035   7.731   8.835  1.5042  0.8479  0.7500
27747SOL     OW87156   2.658   0.248   1.907  0.9083  0.0366 -0.3754
27747SOL    HW187157   2.728   0.284   1.962  0.0325  0.5135  0.4536
27747SOL    HW287158   2.660   0.300   1.827  2.0329 -0.5011 -0.7208
27748SOL     OW87159   0.025   7.967   5.187  0.1615 -0.1962 -0.4454
27748SOL    HW187160  -0.017   8.030   5.245 -0.0144  0.1321 -0.9278
27748SOL    HW287161  -0.028   7.968   5.108  0.7032 -0.2646 -0.8128
27749SOL     OW87162   1.303   0.088   2.486 -0.4365 -0.4720  0.0511
27749SOL    HW187163   1.217   0.118   2.458 -1.3641 -3.2672 -0.4062
27749SOL    HW287164   1.304   0.102   2.580 -0.7817  0.9368 -0.1399
27750SOL     OW87165   8.362   4.580  10.002  0.2470 -0.7145 -0.0819
27750SOL    HW187166   8.307   4.649  10.039 -2.1054 -1.7088 -1.4384
27750SOL    HW287167   8.344   4.584   9.908  2.4874 -1.2006 -0.5865
27751SOL     OW87168   9.511   0.694   4.248  0.3021  0.1846 -0.1635
27751SOL    HW187169   9.576   0.750   4.206 -0.3633  0.6896 -0.5459
27751SOL    HW287170   9.502   0.730   4.336 -0.4876  1.0210 -0.5641
27752SOL     OW87171   8.343   5.067   6.253 -0.2179 -0.3562  0.3051
27752SOL    HW187172   8.315   5.137   6.194 -1.7807  1.1886  2.6671
27752SOL    HW287173   8.437   5.082   6.264 -0.3209  0.7049 -0.0784
27753SOL     OW87174   6.892   3.796   5.089  0.0135 -0.0728 -0.3754
27753SOL    HW187175   6.897   3.824   4.997 -1.5482 -1.0487 -0.7941
27753SOL    HW287176   6.931   3.709   5.089  0.9153  0.3121  0.1107
27754SOL     OW87177   7.176   9.997   0.029  0.3203  0.5922  0.6973
27754SOL    HW187178   7.257   9.962  -0.008 -0.4290 -1.0794  0.5770
27754SOL    HW287179   7.151  10.068  -0.030  0.3661 -0.5259 -0.6962
27755SOL     OW87180   6.009   1.656   3.094  0.6940  0.0192  0.5467
27755SOL    HW187181   6.050   1.669   3.180  1.5622 -1.5074  0.4102
27755SOL    HW287182   5.968   1.740   3.074  3.8648  1.7777  0.6622
27756SOL     OW87183   3.565   2.158   9.397  0.4965 -0.0743 -0.8181
27756SOL    HW187184   3.474   2.172   9.424  0.6643  2.9816 -1.5132
27756SOL    HW287185   3.561   2.082   9.338 -1.4103 -0.5918 -0.0972
27757SOL     OW87186   6.352   1.422   8.346  0.2723 -0.5425  0.4957
27757SOL    HW187187   6.406   1.416   8.267 -1.2114 -0.4139 -0.5596
27757SOL    HW287188   6.313   1.335   8.355 -0.7626 -0.1264  0.1845
27758SOL     OW87189   0.784   2.711   8.774  0.0208  0.4028  0.0346
27758SOL    HW187190   0.719   2.647   8.746 -0.3892  1.7889 -2.5322
27758SOL    HW287191   0.793   2.698   8.868 -0.3312 -3.1072 -0.2960
27759SOL     OW87192   1.287   7.771   6.169  0.3357 -0.1046  0.1383
27759SOL    HW187193   1.214   7.790   6.109 -0.3463  0.2695  1.0684
27759SOL    HW287194   1.363   7.809   6.125  0.1694 -1.2880 -1.2845
27760SOL     OW87195   8.511   8.988   3.377  0.1916 -0.0341 -0.4704
27760SOL    HW187196   8.498   9.018   3.287  0.5026 -0.3183 -0.6108
27760SOL    HW287197   8.423   8.966   3.407  0.0784  0.1205 -0.6809
27761SOL     OW87198   6.936   3.502   9.088 -0.5126 -0.4837  0.8145
27761SOL    HW187199   6.933   3.567   9.158  1.9889  0.0133  0.5478
27761SOL    HW287200   6.892   3.544   9.014 -0.0763  0.4067  1.0455
27762SOL     OW87201  10.044   9.770   2.811 -0.0261 -0.0575 -0.4265
27762SOL    HW187202  10.024   9.704   2.877 -1.2866  0.8309  0.1355
27762SOL    HW287203  10.119   9.735   2.763  0.8617 -0.7730  1.4077
27763SOL     OW87204   3.875   9.593   2.098 -0.1517  0.3332 -0.0864
27763SOL    HW187205   3.834   9.584   2.184  0.1931 -2.0670 -0.0956
27763SOL    HW287206   3.826   9.533   2.042  0.8955  0.3512 -1.0597
27764SOL     OW87207   1.239   7.225   0.928 -0.4015 -0.6943 -0.2979
27764SOL    HW187208   1.325   7.201   0.894 -0.0215  0.4328 -0.1670
27764SOL    HW287209   1.181   7.222   0.852 -0.2986 -1.6437 -0.3509
27765SOL     OW87210   5.212   0.442   5.917 -0.1907 -0.7575 -0.1771
27765SOL    HW187211   5.254   0.389   5.849  1.2912  0.4948 -0.3206
27765SOL    HW287212   5.224   0.392   5.998  1.1752 -0.6770 -0.3046
27766SOL     OW87213   5.549   5.428   3.740  0.5349  0.0415  0.2822
27766SOL    HW187214   5.529   5.374   3.817  0.0709  0.0155  0.1480
27766SOL    HW287215   5.516   5.376   3.666 -1.4798  1.2413  0.2729
27767SOL     OW87216   4.549   7.491   9.596  0.4539  0.2275 -0.0680
27767SOL    HW187217   4.459   7.523   9.595  0.4895  0.4111 -1.7831
27767SOL    HW287218   4.543   7.400   9.623 -0.6677 -0.6998 -3.0610
27768SOL     OW87219   0.990   8.716   5.221 -0.2074 -0.0781 -0.4282
27768SOL    HW187220   1.054   8.724   5.150 -2.1102  1.6329 -2.1011
27768SOL    HW287221   0.972   8.622   5.226  0.3448 -0.3008 -1.9167
27769SOL     OW87222   2.552   6.476   6.833  0.2778  0.1032  0.8578
27769SOL    HW187223   2.469   6.434   6.855  1.6852 -1.5256  3.7596
27769SOL    HW287224   2.581   6.431   6.754 -0.7744 -0.5682  0.8254
27770SOL     OW87225   6.955  10.069   9.856  0.2523 -0.1235 -0.0225
27770SOL    HW187226   6.875  10.121   9.866  0.6134  0.6430 -0.9421
27770SOL    HW287227   7.011  10.099   9.928  0.0386 -0.0459  0.1137
27771SOL     OW87228   8.603   2.748   7.670  0.6717  0.0220 -0.2882
27771SOL    HW187229   8.678   2.706   7.714  0.8658  0.9829  0.3172
27771SOL    HW287230   8.633   2.837   7.651 -0.3262  0.4316 -0.0092
27772SOL     OW87231   3.022   8.404   3.150  0.3048  0.3489 -0.6581
27772SOL    HW187232   2.972   8.352   3.213 -0.0602  2.8576  1.3256
27772SOL    HW287233   3.002   8.366   3.065 -0.4892 -2.1996  0.5867
27773SOL     OW87234   3.090   6.598   2.713  0.0132 -0.0580 -0.3561
27773SOL    HW187235   3.101   6.693   2.703 -3.2414  0.6440  1.2030
27773SOL    HW287236   3.020   6.576   2.652  0.4336 -1.3986 -0.3861
27774SOL     OW87237   3.977   9.661   8.277  0.0846 -0.2868  0.4282
27774SOL    HW187238   3.993   9.726   8.207 -0.9746 -1.1370 -0.6364
27774SOL    HW287239   4.011   9.579   8.241 -1.7490 -1.0296  0.2905
27775SOL     OW87240   7.243   0.113   6.969 -0.4128 -0.0640  0.5554
27775SOL    HW187241   7.305   0.072   7.030 -1.0232 -0.3227  1.0147
27775SOL    HW287242   7.269   0.205   6.967  1.0387 -0.4504 -0.5606
27776SOL     OW87243   9.726   6.080   6.130  0.2650 -0.2174 -0.1275
27776SOL    HW187244   9.639   6.119   6.127 -0.0570 -0.9054 -0.0764
27776SOL    HW287245   9.785   6.149   6.102 -0.4076 -0.0437 -1.1460
27777SOL     OW87246   8.543   0.248   7.703 -0.5185  0.3564  0.2430
27777SOL    HW187247   8.529   0.200   7.621  0.2678  1.3437 -0.4979
27777SOL    HW287248   8.622   0.209   7.740  0.2414  1.1955 -0.4656
27778SOL     OW87249   3.491   0.220   7.101 -0.6016  0.7014 -0.0746
27778SOL    HW187250   3.561   0.252   7.044 -1.7722  2.0210 -0.8534
27778SOL    HW287251   3.460   0.140   7.059 -0.1591  0.5908 -0.1997
27779SOL     OW87252   1.415   5.677   5.657 -0.0796  0.0105 -0.4063
27779SOL    HW187253   1.394   5.697   5.566 -0.2270  1.7453 -0.0147
27779SOL    HW287254   1.348   5.722   5.708 -0.6331 -1.7953  0.5656
27780SOL     OW87255   4.147   9.761   3.705  0.2221 -0.6252 -0.5613
27780SOL    HW187256   4.088   9.719   3.643  0.0768 -1.8520  0.3801
27780SOL    HW287257   4.151   9.852   3.675 -0.8223 -0.8959 -1.6265
27781SOL     OW87258   8.791   1.932   6.680 -0.0544  0.1034 -0.1704
27781SOL    HW187259   8.873   1.883   6.691  0.8759  0.7215 -3.3083
27781SOL    HW287260   8.728   1.868   6.649  0.6567  0.4108 -2.4549
27782SOL     OW87261   6.782   5.914  10.165 -0.3534  0.0681  0.5141
27782SOL    HW187262   6.692   5.884  10.183  0.7917 -4.2902  0.0842
27782SOL    HW287263   6.833   5.881  10.239  1.1358  1.3922  0.1281
27783SOL     OW87264   4.856   1.535   8.634 -0.0665 -0.1967 -0.1284
27783SOL    HW187265   4.942   1.495   8.643 -0.1211 -0.3187 -0.1412
27783SOL    HW287266   4.873   1.628   8.620  0.0310  0.0186  1.2613
27784SOL     OW87267   2.111   5.105   4.715 -0.3187  0.6188  1.3146
27784SOL    HW187268   2.063   5.071   4.639  0.6648  1.1004  0.4521
27784SOL    HW287269   2.046   5.154   4.765 -0.6376  1.7359 -0.1270
27785SOL     OW87270   1.460   3.668   4.161  0.2875  0.4880  0.6542
27785SOL    HW187271   1.470   3.683   4.255 -0.0893 -0.2259  0.8163
27785SOL    HW287272   1.366   3.679   4.145  0.6607  3.3907 -0.1615
27786SOL     OW87273   7.360   7.090   1.314 -0.1036 -0.4407 -0.1607
27786SOL    HW187274   7.449   7.123   1.322  0.1500 -1.3417  1.1340
27786SOL    HW287275   7.334   7.072   1.404 -2.0227  0.8627 -0.3880
27787SOL     OW87276   5.650   5.250   1.742 -0.6383 -0.3498 -0.5453
27787SOL    HW187277   5.622   5.166   1.780 -1.5346 -0.1985 -0.8571
27787SOL    HW287278   5.569   5.297   1.724 -0.4563 -1.2201 -4.6144
27788SOL     OW87279   4.522   5.306   3.831  0.1472 -0.0560 -0.2310
27788SOL    HW187280   4.488   5.270   3.913 -2.3575 -1.3012 -1.7097
27788SOL    HW287281   4.599   5.252   3.811 -0.2171 -0.8508  0.4524
27789SOL     OW87282   8.603   1.178   2.199  0.2729 -0.3238  0.1393
27789SOL    HW187283   8.637   1.216   2.117 -1.4078 -1.2345 -1.0533
27789SOL    HW287284   8.671   1.117   2.226  1.4347  0.9131  0.1637
27790SOL     OW87285   9.017   6.128   1.791 -0.2767  0.8064  0.5238
27790SOL    HW187286   9.030   6.221   1.812 -0.1895  0.7474  0.7387
27790SOL    HW287287   9.012   6.085   1.877  0.6957  0.4757  0.4266
27791SOL     OW87288   5.844   7.428   8.643  0.5452  0.0345 -0.4904
27791SOL    HW187289   5.781   7.370   8.600 -0.4529 -0.4976  1.5924
27791SOL    HW287290   5.863   7.495   8.577 -0.4861 -1.0401 -1.9396
27792SOL     OW87291   1.555   7.163   0.780 -0.0939  0.1410 -0.1266
27792SOL    HW187292   1.594   7.123   0.702 -0.9364 -0.0566 -0.4630
27792SOL    HW287293   1.522   7.089   0.831  0.7826  0.2438  0.6182
27793SOL     OW87294   7.406   8.564   5.803 -0.5156  0.1187  0.2234
27793SOL    HW187295   7.426   8.643   5.754 -1.1829 -0.7408 -1.5302
27793SOL    HW287296   7.488   8.514   5.803 -0.2666  0.5206  0.7899
27794SOL     OW87297   4.494   6.882   6.787 -0.9569  0.1836 -0.5711
27794SOL    HW187298   4.531   6.965   6.759 -1.7972  0.3348 -1.2663
27794SOL    HW287299   4.421   6.905   6.845 -0.4541 -0.0974  0.1912
27795SOL     OW87300   7.719   0.362   8.662 -0.1605 -0.3816  0.5891
27795SOL    HW187301   7.649   0.406   8.615  0.5226 -1.1805 -1.2626
27795SOL    HW287302   7.799   0.405   8.633  0.2479 -0.4321  1.5821
27796SOL     OW87303   4.014   6.635   9.153  0.2379 -0.5000 -0.0776
27796SOL    HW187304   4.024   6.589   9.236 -2.1451 -2.0182 -0.5281
27796SOL    HW287305   4.097   6.620   9.107  0.7503 -1.5414  1.1278
27797SOL     OW87306   6.640   1.294   8.481  0.1750  0.1517  0.3443
27797SOL    HW187307   6.601   1.262   8.563 -3.6013  0.3734 -1.1632
27797SOL    HW287308   6.596   1.377   8.464 -1.5298 -1.2593 -3.3079
27798SOL     OW87309   5.894   4.673   6.704 -0.3588  0.3680  0.3834
27798SOL    HW187310   5.805   4.697   6.733 -0.5341 -0.8506  0.8919
27798SOL    HW287311   5.886   4.665   6.609 -0.7950  0.2775  0.4224
27799SOL     OW87312   8.229   6.304   9.064 -0.2971 -0.0717 -0.1537
27799SOL    HW187313   8.181   6.368   9.117  0.9942  1.0378 -0.2565
27799SOL    HW287314   8.306   6.352   9.033  0.8201 -1.7458 -0.0784
27800SOL     OW87315   4.352   1.616   7.908 -0.2333 -0.3324  0.3002
27800SOL    HW187316   4.384   1.596   7.820 -0.0385 -0.2996  0.3624
27800SOL    HW287317   4.257   1.619   7.899 -0.1779  0.6362 -0.1148
27801SOL     OW87318   9.422   4.093   0.754 -0.1831 -0.2338  0.6153
27801SOL    HW187319   9.498   4.132   0.799  0.7527 -1.0026 -0.2410
27801SOL    HW287320   9.410   4.008   0.797 -2.3392  0.9770  2.6108
27802SOL     OW87321   5.859   8.632   9.671 -0.0848 -0.2074  0.4052
27802SOL    HW187322   5.888   8.716   9.708  0.7606 -0.4689  0.3548
27802SOL    HW287323   5.939   8.582   9.659 -0.2718 -0.0655 -2.0175
27803SOL     OW87324   9.471   5.879   6.867 -0.0498 -0.2003 -0.0486
27803SOL    HW187325   9.450   5.799   6.915  2.0661 -0.1929  1.0052
27803SOL    HW287326   9.513   5.848   6.786 -1.1636 -0.1596 -0.6617
27804SOL     OW87327   7.692   3.123   5.952 -0.4120  0.3730 -0.2688
27804SOL    HW187328   7.631   3.053   5.975  1.4377 -1.9002 -1.8186
27804SOL    HW287329   7.695   3.122   5.857  2.7327 -0.3907 -0.2895
27805SOL     OW87330   5.919   9.134   7.287  0.0961  0.2431 -0.5027
27805SOL    HW187331   5.889   9.098   7.203  0.9159  0.9087 -1.0960
27805SOL    HW287332   6.009   9.100   7.297  0.9427  2.1762 -1.1386
27806SOL     OW87333   5.262   2.028   7.526 -0.0743  0.1146 -0.4897
27806SOL    HW187334   5.227   1.945   7.493  0.6694  0.7725 -3.1336
27806SOL    HW287335   5.349   2.006   7.558  0.0271 -0.1687 -0.9495
27807SOL     OW87336   2.288   7.016   5.893 -0.1398  0.5040 -0.1850
27807SOL    HW187337   2.208   7.016   5.841 -0.5861 -2.0151  0.3608
27807SOL    HW287338   2.353   6.975   5.836 -0.3676 -1.3195  0.7985
27808SOL     OW87339   6.524   4.993   5.661  0.1090 -0.0771 -0.1563
27808SOL    HW187340   6.540   5.087   5.667  1.0328 -0.2750  0.7203
27808SOL    HW287341   6.590   4.953   5.718 -0.7745 -1.2147  0.1166
27809SOL     OW87342   6.323   2.192   9.467  0.1364 -0.4868  0.1325
27809SOL    HW187343   6.250   2.237   9.510  0.3034  1.2748 -1.3567
27809SOL    HW287344   6.367   2.145   9.539 -0.3656  1.2791  1.6673
27810SOL     OW87345   8.687   2.831   4.419  0.5297 -0.0617  0.2696
27810SOL    HW187346   8.629   2.798   4.351  0.7557 -0.5124  0.2967
27810SOL    HW287347   8.630   2.883   4.476 -0.1939 -1.8600  1.2538
27811SOL     OW87348   0.183   7.868   0.824  0.0585  0.6264  0.1731
27811SOL    HW187349   0.254   7.881   0.762  0.9140  2.2459  1.4227
27811SOL    HW287350   0.210   7.791   0.875 -0.0851  0.0107 -0.6541
27812SOL     OW87351   3.634   1.907   4.065  0.1810 -0.6027 -0.0834
27812SOL    HW187352   3.564   1.903   4.131  0.5380 -2.0697  0.2498
27812SOL    HW287353   3.688   1.830   4.084  1.0980 -0.2524 -1.2100
27813SOL     OW87354   4.985   2.889   9.272 -0.2793  0.4938 -0.6550
27813SOL    HW187355   4.926   2.814   9.280 -0.2845  0.5452 -0.1857
27813SOL    HW287356   5.056   2.858   9.217 -0.4368  0.2394 -0.7183
27814SOL     OW87357   4.826   7.154   3.238  0.0581  0.1132 -0.7836
27814SOL    HW187358   4.772   7.207   3.180 -1.2562 -0.7267 -0.3717
27814SOL    HW287359   4.881   7.103   3.179  1.1046  1.6278 -1.1944
27815SOL     OW87360   9.405   2.422   2.048 -0.0826 -0.4669  0.1109
27815SOL    HW187361   9.478   2.362   2.031 -1.3893 -2.7043  1.8402
27815SOL    HW287362   9.381   2.454   1.961 -0.0287 -3.4018 -1.1325
27816SOL     OW87363   1.853   4.130   7.416 -0.0611 -0.2660  0.5332
27816SOL    HW187364   1.845   4.121   7.321  0.0856  2.1244  0.2188
27816SOL    HW287365   1.769   4.100   7.450  0.2460 -2.0997 -0.2320
27817SOL     OW87366   3.037   1.174   6.014 -0.2042 -0.2163  0.2016
27817SOL    HW187367   3.025   1.083   5.984  0.1076 -0.3032  0.3380
27817SOL    HW287368   3.089   1.166   6.094  2.6968  0.2443 -1.5012
27818SOL     OW87369   3.757   5.183   8.662  0.4109 -0.1905 -0.3684
27818SOL    HW187370   3.788   5.176   8.753  0.1837 -0.2363 -0.2919
27818SOL    HW287371   3.836   5.189   8.610  0.5338  0.8154 -0.0890
27819SOL     OW87372   1.599   4.712   2.634  0.1438 -0.4331 -0.1509
27819SOL    HW187373   1.622   4.708   2.541 -1.6706 -0.5158 -0.6291
27819SOL    HW287374   1.584   4.805   2.650  1.0844 -0.3360  0.2509
27820SOL     OW87375   2.972   8.338   0.757 -0.2260  0.2806 -0.2793
27820SOL    HW187376   3.032   8.406   0.788  0.0053 -0.2981  0.5837
27820SOL    HW287377   3.010   8.256   0.789  0.5139 -0.4728 -2.8583
27821SOL     OW87378   3.497   0.238   3.468  0.3748 -0.2080  0.3301
27821SOL    HW187379   3.447   0.308   3.426  1.3174  0.4546  0.2927
27821SOL    HW287380   3.530   0.276   3.549  0.4153 -0.7994  0.6023
27822SOL     OW87381   9.555   4.649   2.459  0.1149 -0.6302  0.7038
27822SOL    HW187382   9.617   4.582   2.428  1.0899  0.2585  0.6456
27822SOL    HW287383   9.474   4.630   2.412  0.2233 -2.0454  1.0461
27823SOL     OW87384   1.085   5.797   3.122 -0.8560 -0.2230 -0.0507
27823SOL    HW187385   1.032   5.876   3.132  1.3548  1.4633 -0.7934
27823SOL    HW287386   1.125   5.806   3.036  0.7841 -1.3015  0.5600
27824SOL     OW87387   6.163   2.034   2.301  0.4651 -0.0920  0.0877
27824SOL    HW187388   6.231   2.022   2.234  0.1038  0.1342 -0.3218
27824SOL    HW287389   6.191   2.112   2.349 -0.5696  1.2911 -1.4271
27825SOL     OW87390   5.259   6.944   1.743 -0.4868  0.3124 -0.0969
27825SOL    HW187391   5.205   6.866   1.736 -1.8985  1.0703  1.6113
27825SOL    HW287392   5.201   7.016   1.719  0.0583  1.0544  0.7485
27826SOL     OW87393   9.373   7.401   7.775 -0.3442  0.4101  0.1944
27826SOL    HW187394   9.429   7.332   7.809 -2.0470 -1.0651  0.1550
27826SOL    HW287395   9.407   7.419   7.687 -0.3320 -0.9213 -0.0836
27827SOL     OW87396   7.130   6.629   0.412 -0.0297 -0.1594  0.3353
27827SOL    HW187397   7.060   6.693   0.425  0.1302 -0.0904  0.9082
27827SOL    HW287398   7.133   6.615   0.318 -0.7997 -0.1454  0.3029
27828SOL     OW87399   0.138   4.737   8.281  0.0755 -0.1514  0.1584
27828SOL    HW187400   0.227   4.702   8.285 -0.9833 -3.1765 -0.2071
27828SOL    HW287401   0.138   4.795   8.205  1.9364  0.6040  0.7034
27829SOL     OW87402   8.738   2.602   6.817  0.0863 -0.3116  0.5172
27829SOL    HW187403   8.698   2.531   6.867 -2.3054 -0.8266 -1.9248
27829SOL    HW287404   8.778   2.559   6.741  0.0622  0.8031 -0.1456
27830SOL     OW87405   5.113   3.633   5.236  0.0260 -1.1776 -0.5198
27830SOL    HW187406   5.075   3.684   5.165 -1.6103 -0.9997  0.4547
27830SOL    HW287407   5.194   3.679   5.257  0.1109 -0.7453 -1.6818
27831SOL     OW87408   3.644   7.938   9.679  0.2623 -0.6356 -0.0348
27831SOL    HW187409   3.718   7.889   9.715 -0.5023 -0.7790  1.4547
27831SOL    HW287410   3.609   7.882   9.610  0.1794 -1.6349  0.7914
27832SOL     OW87411   6.973   6.072   8.477  0.0212  0.4488  0.1720
27832SOL    HW187412   7.019   6.004   8.428  0.8659  0.8352  0.3942
27832SOL    HW287413   6.997   6.055   8.569 -2.4096 -0.9365  0.6330
27833SOL     OW87414   0.247   7.364   6.571 -0.0247 -0.2427 -0.0979
27833SOL    HW187415   0.299   7.428   6.522  0.1566  0.5003  1.0198
27833SOL    HW287416   0.307   7.290   6.585  0.0731 -0.2542 -0.5803
27834SOL     OW87417   7.612   9.709   7.167 -0.5315 -0.5217  0.3465
27834SOL    HW187418   7.672   9.781   7.185 -1.8120  0.4857  0.7011
27834SOL    HW287419   7.633   9.683   7.077  0.6721 -0.4520  0.5841
27835SOL     OW87420   1.024   4.505   5.100  0.7063  0.5862  0.0192
27835SOL    HW187421   1.040   4.559   5.177  0.5572  1.7271 -0.7180
27835SOL    HW287422   0.932   4.481   5.106  0.5721  1.0736 -0.0413
27836SOL     OW87423   0.047   3.817   0.431  0.4975 -1.0981 -0.1019
27836SOL    HW187424  -0.013   3.766   0.486  0.1950 -0.4983  0.1373
27836SOL    HW287425   0.049   3.903   0.472  0.9286 -0.8893 -0.5559
27837SOL     OW87426   2.341   2.093   9.603 -0.3728  0.4872 -0.3426
27837SOL    HW187427   2.291   2.170   9.577  1.2126  1.6414 -0.1245
27837SOL    HW287428   2.427   2.105   9.562  0.6364 -0.0328  1.4958
27838SOL     OW87429   9.657   4.383   2.773 -0.0078 -0.0450 -0.2397
27838SOL    HW187430   9.584   4.321   2.782  0.0505 -0.2805 -1.2304
27838SOL    HW287431   9.735   4.330   2.787  0.0203 -0.0874 -0.5468
27839SOL     OW87432   7.702   7.208   2.403 -0.6331  0.6534 -0.0212
27839SOL    HW187433   7.743   7.185   2.486 -1.0197  0.2512  0.0617
27839SOL    HW287434   7.775   7.230   2.346 -0.3090  0.1171  0.1786
27840SOL     OW87435   0.492   4.902   8.149  0.0111  0.2779  0.0339
27840SOL    HW187436   0.466   4.832   8.209 -0.4082  1.1284  0.8700
27840SOL    HW287437   0.499   4.979   8.204 -2.3911  1.5583 -1.2862
27841SOL     OW87438   8.115   0.500   9.616  0.1394 -0.2948  0.1713
27841SOL    HW187439   8.116   0.443   9.539  0.6251 -2.0631  1.4224
27841SOL    HW287440   8.092   0.442   9.688 -0.3733  1.3358  1.3766
27842SOL     OW87441   3.850   4.030   0.287  0.1770  0.2967  0.4033
27842SOL    HW187442   3.837   3.936   0.295 -0.7154  0.4673  1.0606
27842SOL    HW287443   3.921   4.049   0.349  0.8510 -0.0297 -0.2431
27843SOL     OW87444   7.403   2.232   1.678  0.0393  0.0317  0.1293
27843SOL    HW187445   7.469   2.287   1.636 -0.0338 -0.2873 -0.4118
27843SOL    HW287446   7.362   2.289   1.743  1.3621  0.0150  1.0085
27844SOL     OW87447   9.906   0.986   4.877 -0.2146  0.5117 -0.1643
27844SOL    HW187448   9.903   0.984   4.973  0.2833  0.1433 -0.1599
27844SOL    HW287449   9.850   0.913   4.850  2.1012 -1.3757 -0.1214
27845SOL     OW87450   4.687   2.652   7.878  0.2580  0.1058  0.5981
27845SOL    HW187451   4.746   2.685   7.945 -0.7237  1.8001  0.6641
27845SOL    HW287452   4.691   2.717   7.808 -1.3973  0.1670  0.5401
27846SOL     OW87453   4.507   9.736   4.063 -0.0960  0.0819 -0.4827
27846SOL    HW187454   4.456   9.814   4.042 -0.3385  0.5032  1.4407
27846SOL    HW287455   4.559   9.719   3.985 -0.8012  1.5604 -1.3138
27847SOL     OW87456   9.627   9.178   0.120 -0.0181 -0.5755 -0.1516
27847SOL    HW187457   9.688   9.247   0.093 -1.8219  0.8390 -0.8263
27847SOL    HW287458   9.565   9.173   0.047 -0.7423 -1.9314  0.5445
27848SOL     OW87459   5.906   2.551   5.279  0.2708 -0.1383  0.0510
27848SOL    HW187460   5.884   2.542   5.372 -0.1841 -0.6822 -0.1058
27848SOL    HW287461   5.941   2.639   5.271 -1.2092  0.5102  0.4440
27849SOL     OW87462   1.444   8.566   6.192  0.5030  0.4640 -0.2879
27849SOL    HW187463   1.446   8.474   6.217 -1.4122  0.6762  0.8292
27849SOL    HW287464   1.395   8.609   6.262 -1.8563  1.7191 -2.5177
27850SOL     OW87465   2.423   9.846   5.696  0.2426 -0.0662  0.6063
27850SOL    HW187466   2.343   9.798   5.717  0.5102 -0.1791  1.3944
27850SOL    HW287467   2.422   9.922   5.755 -0.2945  1.0696 -0.7807
27851SOL     OW87468   3.896   4.608   1.832 -0.0450 -0.3362  0.5695
27851SOL    HW187469   3.907   4.697   1.866 -0.4190  0.3730 -1.0894
27851SOL    HW287470   3.985   4.578   1.814 -0.0093  0.4930 -0.7534
27852SOL     OW87471   6.304   0.058   9.590  0.0686 -0.9212  0.1876
27852SOL    HW187472   6.212   0.079   9.575  0.4358  0.2468 -0.4836
27852SOL    HW287473   6.302  -0.005   9.663 -1.1663  0.1704  1.1365
27853SOL     OW87474   9.329   7.329   1.544  0.2453 -0.4207 -0.0934
27853SOL    HW187475   9.287   7.247   1.517 -1.7293  0.9168 -1.2818
27853SOL    HW287476   9.395   7.345   1.477 -0.4352 -0.2446 -0.7226
27854SOL     OW87477   8.836   0.945   2.538  0.1470 -0.3945 -0.4252
27854SOL    HW187478   8.781   0.911   2.468 -0.8063 -0.2321  0.2217
27854SOL    HW287479   8.803   1.034   2.554  0.9933 -0.0691 -0.4315
27855SOL     OW87480   2.779   7.485   2.275 -0.5276 -0.0442 -0.2986
27855SOL    HW187481   2.828   7.562   2.245  0.4190 -0.3271  0.4508
27855SOL    HW287482   2.723   7.518   2.345  0.4248 -0.1528  0.5343
27856SOL     OW87483   3.897   6.103   3.462 -0.1514  0.7242 -0.3620
27856SOL    HW187484   3.932   6.022   3.501  0.4103  0.7494 -0.7935
27856SOL    HW287485   3.815   6.076   3.421  0.6817  0.0594 -1.6644
27857SOL     OW87486   5.341   0.054   3.121  0.3482  0.6194  0.3293
27857SOL    HW187487   5.384  -0.031   3.127  0.0051  0.5463  2.2195
27857SOL    HW287488   5.268   0.049   3.183 -1.0817  1.5177 -1.1917
27858SOL     OW87489   6.188   4.227   0.165 -0.3532 -0.1470  0.1937
27858SOL    HW187490   6.122   4.247   0.099 -2.5395 -0.5376  2.1228
27858SOL    HW287491   6.197   4.132   0.163 -0.3075 -0.1461  0.3322
27859SOL     OW87492   8.061   2.558   0.276 -0.3621  0.6205 -0.7977
27859SOL    HW187493   7.976   2.594   0.301  0.1494  2.2949 -1.3240
27859SOL    HW287494   8.057   2.549   0.181 -0.2563 -0.1615 -0.7349
27860SOL     OW87495   9.437   9.652   2.976 -0.9819  0.5347  0.3840
27860SOL    HW187496   9.416   9.600   3.054 -0.6636 -1.6442 -0.8843
27860SOL    HW287497   9.354   9.695   2.953 -2.2009 -1.9762 -0.2830
27861SOL     OW87498   6.623   2.864   0.880  0.2938  0.3777  0.0985
27861SOL    HW187499   6.672   2.784   0.860  1.3930  1.4834 -1.9501
27861SOL    HW287500   6.550   2.863   0.819 -0.9322 -0.0505  1.5060
27862SOL     OW87501   6.343   9.375   1.609 -0.0326 -0.0574 -0.2503
27862SOL    HW187502   6.247   9.374   1.605 -0.1249  0.9245  1.0435
27862SOL    HW287503   6.363   9.338   1.695  0.8962 -2.7042 -1.4886
27863SOL     OW87504   2.712   5.302   8.599 -0.2422  0.1493 -0.3399
27863SOL    HW187505   2.618   5.288   8.594 -0.0073 -1.3729 -1.0278
27863SOL    HW287506   2.728   5.330   8.690 -1.5480  2.3683 -0.7266
27864SOL     OW87507   1.060   6.963   2.055  0.5196  0.0538 -0.2938
27864SOL    HW187508   1.078   7.003   1.970  1.8426 -2.5884 -1.3900
27864SOL    HW287509   0.982   6.909   2.040 -0.0269  0.5708  0.5792
27865SOL     OW87510   8.830   1.033   2.208 -0.7075 -0.1736 -0.2988
27865SOL    HW187511   8.881   1.078   2.140 -0.6821 -0.6852 -0.6200
27865SOL    HW287512   8.852   0.941   2.198  1.5192 -0.0475  2.2511
27866SOL     OW87513   1.104   7.456   9.149 -0.1009  0.1927 -0.3093
27866SOL    HW187514   1.018   7.489   9.121 -0.9388 -0.6297  1.1675
27866SOL    HW287515   1.089   7.424   9.238  1.9480  0.7658  0.2806
27867SOL     OW87516   3.980   1.732   3.927 -0.4286  0.2415 -0.0118
27867SOL    HW187517   4.014   1.719   3.838  1.4640  0.0728  0.7089
27867SOL    HW287518   3.941   1.819   3.925 -0.3396  0.2768 -0.9722
27868SOL     OW87519   2.657   7.282   2.054  0.6619 -0.5490 -0.0652
27868SOL    HW187520   2.614   7.197   2.038  2.2695 -1.3979 -0.0766
27868SOL    HW287521   2.645   7.297   2.148 -1.5760  0.3559 -0.4425
27869SOL     OW87522   9.445   0.009   5.845 -0.0767 -0.0862  0.2506
27869SOL    HW187523   9.397   0.084   5.880 -0.6840 -0.4688  0.2425
27869SOL    HW287524   9.492   0.044   5.769  0.6291  0.5676  0.9656
27870SOL     OW87525   5.896   0.501   8.188 -0.2377 -0.2513 -0.2891
27870SOL    HW187526   5.932   0.431   8.134 -0.2412  0.8715 -1.7950
27870SOL    HW287527   5.802   0.481   8.194 -0.2663 -0.2794 -0.8539
27871SOL     OW87528   4.019   3.137   1.919  0.6615  0.0719 -0.0790
27871SOL    HW187529   3.988   3.047   1.928 -0.4493  0.1258 -2.6142
27871SOL    HW287530   3.942   3.191   1.935  0.5347  0.4113 -1.6948
27872SOL     OW87531   2.485   1.075   9.086 -0.2059 -0.4333  0.2292
27872SOL    HW187532   2.537   1.050   9.163 -0.6620 -0.6738  0.4638
27872SOL    HW287533   2.427   1.145   9.119  1.4092  1.3475 -0.5362
27873SOL     OW87534  10.188   7.531   0.700  0.3882  0.8789 -0.1063
27873SOL    HW187535  10.199   7.504   0.609  2.5190  0.2643  0.2683
27873SOL    HW287536  10.109   7.585   0.700  0.1444  0.6124 -2.2429
27874SOL     OW87537   8.277   3.939   5.522 -0.2738 -0.2177  0.3012
27874SOL    HW187538   8.272   3.943   5.618 -0.7870  0.8450  0.2415
27874SOL    HW287539   8.309   4.026   5.496  1.1453 -0.9292 -0.4217
27875SOL     OW87540   2.910   3.598   8.520 -0.0513 -0.1748  0.0142
27875SOL    HW187541   2.928   3.505   8.505  2.3025  0.5978 -2.7911
27875SOL    HW287542   2.855   3.624   8.445  1.6188  1.2170 -0.8070
27876SOL     OW87543   6.985   4.488   9.989  0.4671 -0.4047 -0.2436
27876SOL    HW187544   7.060   4.477   9.930  0.7174  0.2692 -0.0570
27876SOL    HW287545   7.004   4.431  10.063  0.7553 -0.3021 -0.2377
27877SOL     OW87546   1.283   1.260   9.499 -0.4162  0.0519 -0.1426
27877SOL    HW187547   1.245   1.300   9.421 -0.6298  0.2247  0.0506
27877SOL    HW287548   1.219   1.195   9.526 -1.3895  1.4952  1.1647
27878SOL     OW87549   8.057   2.458   6.462 -0.2858  0.1364  0.0507
27878SOL    HW187550   7.969   2.484   6.492 -0.0697  3.2916 -1.6383
27878SOL    HW287551   8.040   2.397   6.390 -1.0141 -0.4725  0.7143
27879SOL     OW87552   9.937   7.253   8.304 -0.1867  0.1690  0.4772
27879SOL    HW187553   9.993   7.325   8.334  0.4322 -0.2059  0.2285
27879SOL    HW287554   9.896   7.287   8.224  0.9480 -0.1353 -0.2601
27880SOL     OW87555   9.724  10.125   3.155  0.6772 -0.0350 -0.6718
27880SOL    HW187556   9.818  10.138   3.146  0.6846 -0.2072 -0.8534
27880SOL    HW287557   9.689  10.213   3.170  0.9189 -0.0361 -0.0823
27881SOL     OW87558   3.586   8.718   8.092 -0.1139  0.5219  0.1179
27881SOL    HW187559   3.538   8.743   8.013  0.7820  0.3962 -0.4793
27881SOL    HW287560   3.668   8.766   8.086  0.3543 -0.2148  0.5031
27882SOL     OW87561   7.889   8.841   1.122  0.1822  0.0484 -0.0446
27882SOL    HW187562   7.809   8.799   1.091 -0.1704  0.1706  0.6754
27882SOL    HW287563   7.923   8.782   1.189 -0.3335  0.9079  0.9937
27883SOL     OW87564   8.365   9.107   3.948  0.1435  0.4906 -0.0682
27883SOL    HW187565   8.417   9.086   4.025  1.7883 -0.4239 -1.3440
27883SOL    HW287566   8.391   9.196   3.925  1.3956 -0.0581 -0.8521
27884SOL     OW87567   1.536   7.035   2.116 -0.1938  0.1279 -0.4213
27884SOL    HW187568   1.529   6.947   2.078 -1.6353  1.1217 -2.6459
27884SOL    HW287569   1.554   7.092   2.042  1.2708  1.7167  1.0504
27885SOL     OW87570   3.661   4.803   6.980  0.3834  0.2801  0.1469
27885SOL    HW187571   3.566   4.795   6.990  0.3626  1.8439  1.8603
27885SOL    HW287572   3.673   4.835   6.891 -0.5956 -1.1479 -0.5173
27886SOL     OW87573   2.075   7.229   4.719 -0.0768  0.1114  1.0547
27886SOL    HW187574   2.005   7.288   4.745 -0.5555 -0.0437  0.1578
27886SOL    HW287575   2.142   7.287   4.681 -1.5094 -0.0146 -1.9795
27887SOL     OW87576   4.776   1.992   0.630 -0.1648 -0.5129 -0.0298
27887SOL    HW187577   4.737   1.923   0.685 -0.9487  0.1335  0.2350
27887SOL    HW287578   4.860   2.011   0.672 -0.8461  0.1236  1.0980
27888SOL     OW87579   5.919   7.123   1.832  0.4170  0.0197  0.4184
27888SOL    HW187580   5.855   7.194   1.835  0.3908  0.1793 -2.0272
27888SOL    HW287581   6.002   7.167   1.814  0.4108 -0.5414 -1.0797
27889SOL     OW87582   7.858   8.705   6.165 -0.0179  0.5160 -0.0680
27889SOL    HW187583   7.934   8.680   6.113 -0.3509  0.3755 -0.4905
27889SOL    HW287584   7.855   8.639   6.235 -2.0412 -1.9778 -2.2769
27890SOL     OW87585   3.341   2.948   1.696  0.7426  0.2034 -0.5429
27890SOL    HW187586   3.396   2.921   1.622  2.0274  0.6685  0.2154
27890SOL    HW287587   3.349   3.044   1.698 -0.4618  0.3201 -0.6845
27891SOL     OW87588   4.337   0.814   0.833  0.2174 -0.0149 -0.3474
27891SOL    HW187589   4.395   0.861   0.774 -1.2342 -0.1960 -1.9907
27891SOL    HW287590   4.343   0.723   0.806  0.8836 -0.3973  0.9932
27892SOL     OW87591   6.142   0.711   9.695 -0.0288 -0.1591 -0.2934
27892SOL    HW187592   6.178   0.783   9.748 -1.3808  2.0748 -2.2349
27892SOL    HW287593   6.086   0.663   9.756  0.7978  0.5083  1.0418
27893SOL     OW87594   3.926   6.905   7.906  0.4981 -0.5192  0.5311
27893SOL    HW187595   3.855   6.844   7.886  1.0649 -1.8151  2.3087
27893SOL    HW287596   3.994   6.884   7.843 -1.5569  2.6663 -3.2223
27894SOL     OW87597   2.664   0.694   2.448 -0.1502  0.2094 -0.0131
27894SOL    HW187598   2.724   0.750   2.497 -1.9344  1.8722  0.3937
27894SOL    HW287599   2.674   0.607   2.488  3.0507  0.0133 -0.9920
27895SOL     OW87600   0.146   8.587   7.724  0.0345 -0.3215 -0.3918
27895SOL    HW187601   0.164   8.512   7.667 -3.8239 -1.3455 -0.5036
27895SOL    HW287602   0.057   8.613   7.703 -0.4007  1.3875  2.8466
27896SOL     OW87603   1.324   0.748   2.063  0.1625  1.0482 -0.1066
27896SOL    HW187604   1.271   0.672   2.085 -0.3752  1.3253 -0.4352
27896SOL    HW287605   1.265   0.806   2.017  0.9261  1.0617 -1.1046
27897SOL     OW87606   5.107   9.606   8.820  0.0315  0.2578  0.5972
27897SOL    HW187607   5.063   9.617   8.735 -0.6846 -0.2187  0.9030
27897SOL    HW287608   5.157   9.525   8.811  0.0471  0.2676  0.5971
27898SOL     OW87609   1.891   9.696   3.908  0.1479 -0.0221 -0.3837
27898SOL    HW187610   1.912   9.640   3.833  0.2690 -0.9995  0.3625
27898SOL    HW287611   1.936   9.656   3.982 -1.0327  0.1567  0.4743
27899SOL     OW87612   5.835   2.118   3.619  0.2238 -0.0697  0.0967
27899SOL    HW187613   5.892   2.194   3.613 -0.0566  0.2885  1.6069
27899SOL    HW287614   5.838   2.078   3.532  0.0545  1.8821 -0.8534
27900SOL     OW87615   5.094   9.483   4.898 -0.5019 -0.3318  0.2812
27900SOL    HW187616   5.067   9.544   4.967 -0.7087  1.4624 -1.3029
27900SOL    HW287617   5.180   9.514   4.871 -0.4859 -0.9164 -0.3566
27901SOL     OW87618   4.990   7.238   1.137  0.1454 -0.5119  0.0125
27901SOL    HW187619   4.934   7.252   1.213 -0.6181 -1.9788 -0.2415
27901SOL    HW287620   5.016   7.326   1.109 -0.2407  0.0802  1.4568
27902SOL     OW87621   5.668   9.029   3.673  0.2197  0.3547  0.4055
27902SOL    HW187622   5.710   9.004   3.590 -0.0786  0.3597  0.2515
27902SOL    HW287623   5.711   8.975   3.739 -0.9006 -1.1238 -0.0108
27903SOL     OW87624   6.634   5.446   2.771 -0.1404 -0.0239 -0.3869
27903SOL    HW187625   6.580   5.444   2.850  1.0356  0.0426  0.4562
27903SOL    HW287626   6.676   5.360   2.769  1.8317  0.8419  0.5494
27904SOL     OW87627   6.854   8.326   6.820 -0.1691  0.2295 -0.1463
27904SOL    HW187628   6.871   8.352   6.729  0.2749  0.6566  0.0533
27904SOL    HW287629   6.783   8.263   6.814 -1.0040  1.1973 -0.6861
27905SOL     OW87630   9.033   1.801   6.710 -0.3052  0.1409  0.0660
27905SOL    HW187631   9.038   1.718   6.662  0.3474 -0.1901  0.6849
27905SOL    HW287632   9.121   1.838   6.704 -0.9035  1.4082 -1.2506
27906SOL     OW87633   7.096   5.480   0.772  0.0538  0.0593 -1.1146
27906SOL    HW187634   7.065   5.570   0.762 -0.2710 -0.1317 -1.8964
27906SOL    HW287635   7.031   5.427   0.726 -0.0323 -0.6245 -0.2149
27907SOL     OW87636   7.111   7.430   1.777 -0.7682  0.0213 -0.1378
27907SOL    HW187637   7.057   7.378   1.836  1.3296 -1.1322  0.8498
27907SOL    HW287638   7.120   7.376   1.699 -1.9793  0.7364 -0.8027
27908SOL     OW87639   7.204   9.514   0.738 -0.1026  0.4616  0.5322
27908SOL    HW187640   7.235   9.485   0.653  0.7980 -0.0073  1.0007
27908SOL    HW287641   7.266   9.475   0.800 -2.4976 -1.8688  1.6565
27909SOL     OW87642   6.185   3.904   7.060 -0.1134 -0.4141  0.1271
27909SOL    HW187643   6.240   3.981   7.077 -1.5275  0.6675  0.0542
27909SOL    HW287644   6.176   3.902   6.965 -0.3360 -0.4800  0.1486
27910SOL     OW87645  10.045   3.267   1.907  0.2855  0.0207 -0.3660
27910SOL    HW187646  10.087   3.238   1.988  0.5110 -1.3373 -0.9420
27910SOL    HW287647   9.954   3.284   1.932  0.1961 -1.0122  0.0574
27911SOL     OW87648   0.794   5.792   2.836  0.5792 -0.4852  0.1719
27911SOL    HW187649   0.873   5.752   2.799  0.7446 -0.6611  0.7037
27911SOL    HW287650   0.785   5.751   2.922  2.4852  2.6889  2.1106
27912SOL     OW87651   6.399   7.256   8.264  0.6866 -0.2072  0.3556
27912SOL    HW187652   6.413   7.242   8.358  3.6493 -0.2011 -0.0155
27912SOL    HW287653   6.406   7.168   8.226  1.1683  0.0064 -0.0454
27913SOL     OW87654   1.391   9.250   5.875 -0.3776  0.5247 -0.5298
27913SOL    HW187655   1.427   9.301   5.948 -0.3801  0.8850 -0.7788
27913SOL    HW287656   1.366   9.166   5.914 -0.4583  0.7485 -0.1014
27914SOL     OW87657   3.217   4.985  10.031 -0.3364  0.4343  0.0557
27914SOL    HW187658   3.264   4.941   9.960 -0.1650  0.0011  0.4323
27914SOL    HW287659   3.251   5.075  10.030  0.4038  0.1645  0.2340
27915SOL     OW87660   8.492   0.873   9.202 -0.3303  0.3371  0.0299
27915SOL    HW187661   8.524   0.868   9.112 -2.0450  0.2067 -0.6118
27915SOL    HW287662   8.526   0.956   9.234  1.5112 -0.2754 -0.2129
27916SOL     OW87663   3.052   8.803   2.399 -0.1006 -1.2498  0.0829
27916SOL    HW187664   3.092   8.878   2.355  0.0049 -0.4797  1.4225
27916SOL    HW287665   2.964   8.832   2.421 -0.3600 -1.8390 -0.1543
27917SOL     OW87666   1.750   2.979   7.365  0.0702  0.0764  0.6086
27917SOL    HW187667   1.835   2.998   7.326 -0.0241 -1.0266 -0.1644
27917SOL    HW287668   1.762   2.897   7.412 -0.9175 -0.8945 -0.7593
27918SOL     OW87669   6.209   2.913   7.259  0.1949  0.2867  0.4150
27918SOL    HW187670   6.153   2.881   7.330 -0.7837  0.1403 -0.4081
27918SOL    HW287671   6.149   2.955   7.198  0.9726  0.0777 -0.5185
27919SOL     OW87672   7.680   7.780   0.542  0.8754  0.1055 -0.1355
27919SOL    HW187673   7.773   7.785   0.523  1.0143  0.2924  0.5427
27919SOL    HW287674   7.662   7.859   0.593  0.2188  0.3781 -0.7804
27920SOL     OW87675   0.233   4.015   2.824  0.4077 -0.0291  0.1521
27920SOL    HW187676   0.199   4.063   2.900  1.1572  0.7274  0.0235
27920SOL    HW287677   0.317   3.979   2.854  1.3058  1.3035 -0.6643
27921SOL     OW87678   9.422   7.542   9.541 -0.3724  0.5132  0.0186
27921SOL    HW187679   9.491   7.478   9.521  1.6249  1.9542  1.7785
27921SOL    HW287680   9.376   7.504   9.616 -0.0347  0.5361  0.2417
27922SOL     OW87681   0.764   4.752   6.509  0.3387  0.3864 -0.4684
27922SOL    HW187682   0.735   4.773   6.420  0.3238 -0.8913 -0.7761
27922SOL    HW287683   0.850   4.711   6.497 -0.2917 -1.1191 -0.0308
27923SOL     OW87684   8.344   3.645   8.685 -0.0087  0.5733 -0.4306
27923SOL    HW187685   8.302   3.561   8.701 -0.2446  1.0383  1.5892
27923SOL    HW287686   8.272   3.704   8.661  0.1336  0.2917 -1.6434
27924SOL     OW87687   6.485   3.679   5.230 -0.0461 -0.5734 -0.2406
27924SOL    HW187688   6.485   3.600   5.283 -0.7900 -0.3340  0.1181
27924SOL    HW287689   6.403   3.723   5.250 -0.2076 -0.3220 -1.3636
27925SOL     OW87690   2.098   8.116   0.427 -0.1171 -0.4965  0.2114
27925SOL    HW187691   2.056   8.188   0.475 -0.4742 -0.0328 -0.7757
27925SOL    HW287692   2.131   8.157   0.347 -0.2009 -1.4087 -0.2965
27926SOL     OW87693   4.602   6.854   3.189 -0.7616 -0.7379  0.2206
27926SOL    HW187694   4.587   6.926   3.251 -0.7282 -0.2281 -0.3608
27926SOL    HW287695   4.652   6.790   3.239  0.0637  0.0696  0.4616
27927SOL     OW87696   5.789   6.295   3.605 -0.1671  0.2093  0.2687
27927SOL    HW187697   5.813   6.301   3.698  0.2559  1.7596  0.0754
27927SOL    HW287698   5.740   6.375   3.588 -0.6614 -0.3006 -0.7332
27928SOL     OW87699   1.125   6.652   8.285 -0.4656 -0.1822  0.5666
27928SOL    HW187700   1.045   6.645   8.336 -1.3944  0.1636 -0.7995
27928SOL    HW287701   1.125   6.742   8.252  0.3083 -0.2801  0.2726
27929SOL     OW87702   0.397   3.338   1.280  0.1879 -0.3588 -0.0576
27929SOL    HW187703   0.437   3.355   1.366  0.4866 -2.6481  0.3135
27929SOL    HW287704   0.305   3.362   1.291  0.1658 -0.8656  1.0042
27930SOL     OW87705   9.999   0.900   1.757  0.7596 -0.5264  0.2197
27930SOL    HW187706  10.051   0.967   1.802 -0.8539 -0.1313  1.6191
27930SOL    HW287707  10.035   0.817   1.788 -0.8496 -0.2927  3.1220
27931SOL     OW87708   3.383   2.445   8.674 -0.7373  0.4164  0.4537
27931SOL    HW187709   3.388   2.487   8.760 -0.7309 -0.6817  1.0161
27931SOL    HW287710   3.432   2.363   8.685  0.6487  0.9934 -1.0655
27932SOL     OW87711   8.615   5.683   1.147 -0.1612 -0.4017  1.0139
27932SOL    HW187712   8.584   5.622   1.214  0.7337 -1.0764  0.8391
27932SOL    HW287713   8.547   5.751   1.142 -0.9424 -1.1285  1.5505
27933SOL     OW87714   4.981   6.220   9.235 -0.0753 -0.0798  0.1454
27933SOL    HW187715   4.952   6.301   9.194  1.2340  0.6685  0.6499
27933SOL    HW287716   5.034   6.177   9.169 -0.0776 -0.1226  0.1712
27934SOL     OW87717   8.206  10.031   0.357 -0.1511 -0.4652 -0.3792
27934SOL    HW187718   8.122   9.985   0.364  0.0476 -1.1387 -1.9301
27934SOL    HW287719   8.269   9.962   0.340  0.2798  0.2600 -1.9667
27935SOL     OW87720   7.527   1.046   1.751  0.3463 -0.3600  0.1198
27935SOL    HW187721   7.553   1.138   1.751  1.4666 -0.6519  0.0130
27935SOL    HW287722   7.499   1.029   1.661 -1.0233  0.1669  0.4328
27936SOL     OW87723   8.854   9.321   2.108 -0.1178 -0.0297 -0.2351
27936SOL    HW187724   8.810   9.253   2.057  0.1752  1.4012 -2.5901
27936SOL    HW287725   8.940   9.329   2.067 -0.0331  1.5118  0.1878
27937SOL     OW87726   3.575   5.131   2.935 -0.0837  0.1313 -0.5461
27937SOL    HW187727   3.536   5.174   3.011  1.0409 -1.3407  0.9294
27937SOL    HW287728   3.666   5.114   2.961 -0.2568 -2.3490 -1.3485
27938SOL     OW87729   5.497   3.195   0.113  0.0010  0.0345 -0.2560
27938SOL    HW187730   5.495   3.242   0.197  0.9559 -0.3725  0.0015
27938SOL    HW287731   5.484   3.263   0.047 -0.8532  0.3471  0.2220
27939SOL     OW87732   1.477   5.749  10.146  0.1248 -0.3986 -0.1849
27939SOL    HW187733   1.465   5.843  10.133 -0.0845 -0.5626 -1.1776
27939SOL    HW287734   1.443   5.732  10.234  0.4342  0.5010  0.1139
27940SOL     OW87735   3.167   4.152   6.689  0.3134  0.0590 -0.3617
27940SOL    HW187736   3.188   4.160   6.596  0.2282  0.7856 -0.3269
27940SOL    HW287737   3.115   4.073   6.695 -1.5208  1.1296 -1.2831
27941SOL     OW87738   4.826   8.718   6.874  0.0827  0.0329  0.3470
27941SOL    HW187739   4.887   8.685   6.940  1.8560  1.6066 -0.4005
27941SOL    HW287740   4.785   8.793   6.915 -0.7462 -0.5076  0.5340
27942SOL     OW87741   0.969   9.116   6.787 -0.9560 -0.4133  0.2022
27942SOL    HW187742   0.927   9.198   6.811 -0.1051  0.7563 -2.0372
27942SOL    HW287743   0.960   9.111   6.692  2.1192 -1.0868 -0.1622
27943SOL     OW87744   9.224   9.332   7.687  0.1456 -0.2082 -0.1810
27943SOL    HW187745   9.291   9.398   7.671 -0.0326 -0.0159 -0.1417
27943SOL    HW287746   9.170   9.369   7.757 -0.6160  0.1033 -0.9080
27944SOL     OW87747   6.758   5.931   3.143 -0.4462 -0.6635 -0.2445
27944SOL    HW187748   6.774   6.022   3.117  1.1529 -0.8938 -0.2202
27944SOL    HW287749   6.671   5.912   3.110 -0.9091  0.9454 -0.0572
27945SOL     OW87750   9.397   2.036   5.136 -0.6328 -0.1896  0.5599
27945SOL    HW187751   9.388   2.111   5.194 -0.3442 -0.3633  0.8368
27945SOL    HW287752   9.386   1.960   5.193  1.2700 -0.3982  0.7149
27946SOL     OW87753   7.217   6.647   6.309  0.4085 -0.6366  0.2073
27946SOL    HW187754   7.154   6.691   6.366 -0.4522 -0.0116 -1.1577
27946SOL    HW287755   7.173   6.566   6.283  0.6050 -0.7006  0.0730
27947SOL     OW87756   3.391   9.380   6.659  0.2683  0.0376 -0.2588
27947SOL    HW187757   3.323   9.353   6.721 -0.0812 -0.6527 -0.9325
27947SOL    HW287758   3.446   9.441   6.709 -0.0604 -0.4326  0.7031
27948SOL     OW87759   7.246   1.392   7.174  0.3195 -0.4676  0.5235
27948SOL    HW187760   7.164   1.409   7.220  1.1167  1.5472  1.3271
27948SOL    HW287761   7.313   1.395   7.242  1.4208  1.6016 -0.5434
27949SOL     OW87762   8.295   6.349   4.555 -0.4232  0.3097 -0.0482
27949SOL    HW187763   8.268   6.374   4.466 -0.3396  0.3821 -0.0539
27949SOL    HW287764   8.223   6.376   4.611  0.0797  1.4670  0.0700
27950SOL     OW87765   2.370   9.214   7.727 -0.3531  0.5555 -0.0325
27950SOL    HW187766   2.439   9.244   7.787 -0.9580  0.2058  0.8564
27950SOL    HW287767   2.416   9.156   7.666  0.2961  1.0013  0.0163
27951SOL     OW87768   9.669   9.688   6.892 -0.1914  0.5528 -0.0955
27951SOL    HW187769   9.680   9.648   6.979  0.1023 -0.9096 -0.7802
27951SOL    HW287770   9.671   9.782   6.909 -0.4756  0.2957  1.5284
27952SOL     OW87771   8.602   4.166   2.584  0.4401  0.4867 -0.1350
27952SOL    HW187772   8.566   4.121   2.661  0.3708  2.1386  0.8617
27952SOL    HW287773   8.545   4.140   2.512 -0.7390  0.4561  0.7725
27953SOL     OW87774   5.158   9.230   4.825  0.1929  0.4262  0.0646
27953SOL    HW187775   5.089   9.169   4.853 -0.4819  2.1497  2.5519
27953SOL    HW287776   5.118   9.316   4.836  1.9482  1.4023 -0.8954
27954SOL     OW87777   7.586   9.420   0.567 -0.3396  0.0819  0.7576
27954SOL    HW187778   7.544   9.439   0.651  0.6801  0.6801  1.1496
27954SOL    HW287779   7.679   9.430   0.584 -0.0138 -1.2569 -0.0860
27955SOL     OW87780   3.883   0.038   1.529  0.5410 -0.5346  0.4281
27955SOL    HW187781   3.803   0.015   1.482 -1.1588 -0.4472  3.0994
27955SOL    HW287782   3.879   0.134   1.536  1.2791 -0.4621 -0.0384
27956SOL     OW87783   8.727   0.143   7.312 -0.7970 -0.4375  0.0789
27956SOL    HW187784   8.796   0.082   7.339 -1.5256 -0.9060  0.9237
27956SOL    HW287785   8.751   0.168   7.223 -0.6324 -2.2349 -0.4327
27957SOL     OW87786   9.211   3.518   5.769  0.5746  0.1795  0.2730
27957SOL    HW187787   9.184   3.610   5.773  0.9661  0.2834  0.6423
27957SOL    HW287788   9.276   3.509   5.839 -1.5830 -1.1154  2.2492
27958SOL     OW87789   7.674   2.295   2.318 -0.3421  0.1199  0.8027
27958SOL    HW187790   7.716   2.358   2.377 -0.3467 -0.2485  1.2031
27958SOL    HW287791   7.582   2.322   2.316 -0.3484  0.1168  0.9941
27959SOL     OW87792   6.719   2.080   9.860 -0.0637  0.3784 -0.3685
27959SOL    HW187793   6.790   2.083   9.795 -0.1220 -1.2857 -0.5588
27959SOL    HW287794   6.639   2.083   9.809 -0.1205  0.3873 -0.2798
27960SOL     OW87795   4.779   9.475   7.085 -0.4449 -0.2055  0.4479
27960SOL    HW187796   4.741   9.460   7.171 -2.3193  0.6671 -0.1569
27960SOL    HW287797   4.815   9.564   7.090  0.0322 -0.4019  0.5206
27961SOL     OW87798   5.021   4.452   1.215 -0.0064 -0.0599 -0.3131
27961SOL    HW187799   5.082   4.512   1.256  1.7443 -1.4339 -0.7723
27961SOL    HW287800   4.964   4.508   1.163  1.2225  1.2446 -0.3204
27962SOL     OW87801   5.629   7.491  10.051 -0.7850 -0.0384 -0.2988
27962SOL    HW187802   5.680   7.570  10.070 -0.7819 -0.1692  0.2563
27962SOL    HW287803   5.687   7.437   9.998 -0.3599 -0.1689  0.2947
27963SOL     OW87804   2.858   7.409   6.769 -1.0492 -0.2618 -0.4207
27963SOL    HW187805   2.865   7.490   6.818  0.9665 -0.5195 -0.1978
27963SOL    HW287806   2.840   7.437   6.679 -2.5537  0.2935  0.0158
27964SOL     OW87807   3.779   7.086   9.481 -0.2224 -0.2585 -0.4048
27964SOL    HW187808   3.807   6.994   9.478  1.1654  0.1288  0.0440
27964SOL    HW287809   3.806   7.122   9.397  2.9518  0.7154  0.8979
27965SOL     OW87810   0.988   2.244   4.668  0.0129 -0.1056  0.1131
27965SOL    HW187811   0.968   2.210   4.756  0.8289  1.8553  1.1204
27965SOL    HW287812   1.047   2.317   4.684 -2.2803  2.3776 -1.8358
27966SOL     OW87813   4.442   4.183   9.822 -0.3573  0.0330 -0.5777
27966SOL    HW187814   4.376   4.203   9.889 -1.9125 -0.3483 -1.9171
27966SOL    HW287815   4.455   4.266   9.776  0.6129  0.2660  0.1153
27967SOL     OW87816   7.904   4.001   9.362 -0.1241 -0.3313  0.6865
27967SOL    HW187817   7.920   3.951   9.282 -0.1862  1.5749 -0.6025
27967SOL    HW287818   7.985   4.051   9.376 -1.0138  1.3168  0.2530
27968SOL     OW87819   8.977   2.046   4.136  0.6622 -0.0791  0.0295
27968SOL    HW187820   9.065   2.085   4.140 -0.0195  1.6948 -0.9652
27968SOL    HW287821   8.932   2.081   4.213 -0.3218  2.2254 -1.4794
27969SOL     OW87822   9.680   5.601   7.637  0.6631  0.2092 -0.3233
27969SOL    HW187823   9.767   5.628   7.606 -0.0381  1.8559 -0.9566
27969SOL    HW287824   9.675   5.508   7.613  2.1720  0.1206 -0.4345
27970SOL     OW87825   5.254   3.513   7.034 -0.7673  0.6388  0.3908
27970SOL    HW187826   5.223   3.425   7.010 -2.0672  0.9444  0.8628
27970SOL    HW287827   5.349   3.503   7.044 -0.7795 -0.5010 -0.4415
27971SOL     OW87828   0.508   5.939   1.177  0.0790 -0.5946  0.2103
27971SOL    HW187829   0.590   5.946   1.226  2.2399 -0.7149 -3.0154
27971SOL    HW287830   0.483   5.847   1.184  0.8270 -0.7886  0.4287
27972SOL     OW87831   4.104   3.175   1.558 -0.3569  0.2449 -0.4310
27972SOL    HW187832   4.048   3.150   1.631  1.1509  0.7190  0.9588
27972SOL    HW287833   4.169   3.105   1.552  0.8714  1.2900  0.1962
27973SOL     OW87834   8.761   3.289   0.234  0.8850 -0.1385 -0.1942
27973SOL    HW187835   8.721   3.203   0.225  0.3640  0.1772 -0.9801
27973SOL    HW287836   8.737   3.318   0.322  0.4666 -0.4946 -0.1890
27974SOL     OW87837   7.833   3.390   2.155  0.4757 -0.3250  0.2695
27974SOL    HW187838   7.864   3.332   2.225  2.6384  0.6160  0.1802
27974SOL    HW287839   7.818   3.332   2.081 -0.8525 -1.1970  1.1628
27975SOL     OW87840   1.328   0.192   2.768  0.2958  0.2633 -0.5322
27975SOL    HW187841   1.354   0.129   2.835  0.4079 -0.3750 -1.1593
27975SOL    HW287842   1.407   0.242   2.750  0.0061  1.1330  0.5370
27976SOL     OW87843   1.666   2.631   5.095  0.3543 -0.0414 -0.0041
27976SOL    HW187844   1.632   2.720   5.103  1.1436  0.2217  0.5471
27976SOL    HW287845   1.643   2.604   5.006 -1.3790  0.0723  0.3660
27977SOL     OW87846   7.952   9.728   1.861  0.0355 -0.2538  0.1308
27977SOL    HW187847   7.953   9.818   1.895  1.1275  0.4429 -1.6285
27977SOL    HW287848   7.877   9.727   1.800 -0.5460 -0.8375  0.8362
27978SOL     OW87849   4.611   8.013   8.084  0.0443  0.2121 -0.3818
27978SOL    HW187850   4.547   8.080   8.109 -0.4698 -0.7693  1.0461
27978SOL    HW287851   4.568   7.930   8.106  0.1370 -0.7102 -3.2325
27979SOL     OW87852   1.509   1.396   3.208 -0.2218  0.8647 -0.3152
27979SOL    HW187853   1.425   1.382   3.253 -0.5944  2.6641 -0.3622
27979SOL    HW287854   1.541   1.479   3.244  0.6462  1.1296 -1.6452
27980SOL     OW87855   8.234   2.152   0.598 -0.2788 -0.3338  0.3720
27980SOL    HW187856   8.171   2.209   0.552  0.6681  0.6401  0.2488
27980SOL    HW287857   8.207   2.157   0.690  0.8934  1.8591  0.6626
27981SOL     OW87858   2.027   7.325   9.598  0.4264  0.2368 -0.1673
27981SOL    HW187859   2.062   7.359   9.680 -0.5131  1.5230 -0.2572
27981SOL    HW287860   2.097   7.271   9.562  2.5169  2.9544 -0.5106
27982SOL     OW87861   4.973   0.072   7.806  0.2774 -0.2061  0.1797
27982SOL    HW187862   4.911   0.060   7.734  0.2199  1.0858 -0.0058
27982SOL    HW287863   5.024  -0.009   7.808 -0.4130 -0.6734 -0.6300
27983SOL     OW87864   0.444   7.025   1.132  0.2136  0.2261  0.0949
27983SOL    HW187865   0.459   7.107   1.085 -1.1869  1.0362  1.0161
27983SOL    HW287866   0.349   7.014   1.132  0.3725 -1.4078  0.0120
27984SOL     OW87867   5.649   3.526   3.729  0.8329 -0.2343 -0.2419
27984SOL    HW187868   5.718   3.464   3.703  1.6326  0.9685 -1.0810
27984SOL    HW287869   5.688   3.574   3.803 -0.7819 -2.4661  2.2475
27985SOL     OW87870   6.876   5.980   1.565 -0.0231  0.0353  0.2258
27985SOL    HW187871   6.833   5.922   1.628  0.0500  1.5761  1.7676
27985SOL    HW287872   6.806   6.036   1.532  0.5414  1.8717  1.9817
27986SOL     OW87873   7.622   4.148   4.039  0.0450  0.7306 -0.6562
27986SOL    HW187874   7.655   4.104   3.960  1.9960  0.5311  0.2222
27986SOL    HW287875   7.671   4.230   4.043 -0.2441  0.8634  0.2108
27987SOL     OW87876   0.584   1.149   3.499  0.3110 -0.8391 -0.2387
27987SOL    HW187877   0.553   1.210   3.566 -0.9073 -1.9752  0.2764
27987SOL    HW287878   0.513   1.146   3.435  0.6307 -1.2458 -0.5803
27988SOL     OW87879   2.559   4.977   5.576 -0.1641 -0.1823  0.0051
27988SOL    HW187880   2.637   5.005   5.530 -0.5970  1.1828  0.0390
27988SOL    HW287881   2.487   5.018   5.528 -0.8065 -0.8549  0.3763
27989SOL     OW87882   2.862   3.356   5.460  0.3705 -0.1117 -0.5742
27989SOL    HW187883   2.776   3.396   5.473  0.7392  0.6957 -0.5551
27989SOL    HW287884   2.924   3.421   5.493  1.0940  0.1224 -2.3208
27990SOL     OW87885   0.813   8.126   9.358  0.2974 -0.1016 -0.2169
27990SOL    HW187886   0.843   8.049   9.406 -1.1585  0.0519  1.0024
27990SOL    HW287887   0.807   8.195   9.424  1.1441  0.9599 -1.2032
27991SOL     OW87888   2.748   3.768   4.518  0.0098 -0.2584  0.0482
27991SOL    HW187889   2.804   3.845   4.510 -3.1611  2.3813  0.7967
27991SOL    HW287890   2.758   3.741   4.609 -0.8587  1.0658  0.5698
27992SOL     OW87891   4.886   0.283   9.045 -0.2244 -0.3829  0.2116
27992SOL    HW187892   4.958   0.226   9.020 -0.5162 -0.6397 -0.0448
27992SOL    HW287893   4.841   0.237   9.115  0.7109  0.4274  1.3727
27993SOL     OW87894   3.699   8.109   7.618 -0.1814  0.2528  0.2327
27993SOL    HW187895   3.710   8.165   7.541  1.2361  0.7402  0.7572
27993SOL    HW287896   3.751   8.151   7.686 -0.0363 -1.0856  0.9803
27994SOL     OW87897   6.777   8.897   6.023 -0.8734 -0.0477  0.4757
27994SOL    HW187898   6.811   8.844   5.950 -0.1800  2.5528 -1.2558
27994SOL    HW287899   6.689   8.921   5.995 -0.2747  1.7178 -0.0088
27995SOL     OW87900   2.376   8.631   2.146 -0.3708 -0.1896  0.3531
27995SOL    HW187901   2.290   8.613   2.183 -0.9899  1.5116 -0.1818
27995SOL    HW287902   2.358   8.672   2.061  0.9858 -2.7798 -1.3443
27996SOL     OW87903   7.833   8.375   7.705 -0.0283 -0.2014 -0.2326
27996SOL    HW187904   7.786   8.312   7.649 -0.3558 -0.3231  0.1743
27996SOL    HW287905   7.923   8.344   7.706 -0.1048 -0.4294 -0.3705
27997SOL     OW87906   3.046   3.671   2.530  0.1225  0.0517  0.1334
27997SOL    HW187907   3.047   3.683   2.435 -1.1526 -0.8368 -0.0065
27997SOL    HW287908   2.954   3.658   2.552  0.3867  0.3736  1.5212
27998SOL     OW87909   1.252   9.138   4.723  0.4676 -0.0569 -0.3840
27998SOL    HW187910   1.198   9.060   4.735 -0.1677  0.4240 -0.0191
27998SOL    HW287911   1.218   9.179   4.643  0.6462 -0.0383 -0.4497
27999SOL     OW87912   2.878   3.946   9.538 -0.3919 -0.0252  0.2517
27999SOL    HW187913   2.800   3.911   9.580  0.7157  0.1940  2.6885
27999SOL    HW287914   2.906   3.876   9.479 -1.5174 -0.7824  0.5665
28000SOL     OW87915   3.574   7.851   9.438  0.0834 -0.6416  0.6391
28000SOL    HW187916   3.535   7.933   9.409  2.7169  0.5413  0.1292
28000SOL    HW287917   3.581   7.799   9.359 -0.9290 -1.1069  0.8377
28001SOL     OW87918   2.060   8.121   3.564  0.1359  0.6676 -0.4623
28001SOL    HW187919   2.136   8.133   3.508 -0.1494  2.4623 -0.5286
28001SOL    HW287920   2.072   8.184   3.635 -1.3576  1.1518 -0.5905
28002SOL     OW87921   7.218   2.837   7.196  0.9168 -0.4183 -0.2442
28002SOL    HW187922   7.241   2.924   7.228  0.7427 -0.9289  1.3681
28002SOL    HW287923   7.252   2.777   7.264 -3.2924 -1.3577  1.3241
28003SOL     OW87924   8.289   8.636   2.881 -0.0130 -0.0329 -0.2663
28003SOL    HW187925   8.361   8.652   2.942  1.0758 -0.0238 -1.5067
28003SOL    HW287926   8.274   8.542   2.884 -0.2669  0.0230  0.3268
28004SOL     OW87927   8.807   1.656   3.791  0.1017 -0.2806  0.0252
28004SOL    HW187928   8.889   1.608   3.783 -0.3360 -1.2751  1.0875
28004SOL    HW287929   8.798   1.702   3.708  2.7379  1.5407  0.6285
28005SOL     OW87930   9.107   5.839   8.684 -0.0774  0.1629  0.3381
28005SOL    HW187931   9.112   5.911   8.621  0.1988 -0.8131 -0.7724
28005SOL    HW287932   9.058   5.770   8.639 -0.9092 -0.1338  1.6238
28006SOL     OW87933   4.420   5.388   2.317  0.1751  0.4175 -0.0894
28006SOL    HW187934   4.469   5.445   2.257 -0.3713  1.0886  0.0873
28006SOL    HW287935   4.445   5.419   2.405 -0.0682  0.3404  0.0074
28007SOL     OW87936   6.981   4.445   4.727 -0.5806 -0.1012  0.1425
28007SOL    HW187937   6.997   4.539   4.719 -0.0548 -0.1065  0.9971
28007SOL    HW287938   6.944   4.434   4.814  0.6105 -0.8275  0.5796
28008SOL     OW87939   0.682   2.615   6.433 -0.6288 -0.0642  0.0421
28008SOL    HW187940   0.675   2.709   6.414 -1.6210 -0.0884  0.2611
28008SOL    HW287941   0.593   2.588   6.455 -0.0478 -0.6482  1.8662
28009SOL     OW87942   2.414   3.861   3.754 -0.9615 -0.3769  0.0524
28009SOL    HW187943   2.510   3.860   3.752 -0.8937  1.3674  0.4930
28009SOL    HW287944   2.389   3.899   3.670 -1.0414  2.7531  1.3367
28010SOL     OW87945   0.207   6.820   8.162 -0.5473 -0.5634 -0.1624
28010SOL    HW187946   0.253   6.768   8.227 -0.1970 -0.1741 -0.0923
28010SOL    HW287947   0.269   6.890   8.139 -1.3929  0.4300  0.5025
28011SOL     OW87948   0.298   4.170   5.478 -0.1398  0.0933  0.3224
28011SOL    HW187949   0.263   4.083   5.464 -0.0406  0.4766 -3.3136
28011SOL    HW287950   0.390   4.156   5.497 -0.0914 -0.6155 -0.3817
28012SOL     OW87951   1.896   1.072   0.876  0.0748 -0.0352 -0.6098
28012SOL    HW187952   1.878   0.983   0.847  0.9492 -0.8437  1.2002
28012SOL    HW287953   1.814   1.101   0.916 -0.1383 -0.0878 -0.9993
28013SOL     OW87954   9.515   5.943   7.142 -0.3370 -0.4975  0.3908
28013SOL    HW187955   9.482   5.898   7.064 -0.3799  0.6480 -0.2752
28013SOL    HW287956   9.478   5.894   7.216 -2.1720 -0.2654 -0.3258
28014SOL     OW87957   4.994   7.814   1.699 -0.5739  0.1164  0.5277
28014SOL    HW187958   4.984   7.730   1.655 -0.6199 -0.4309  1.5450
28014SOL    HW287959   5.069   7.855   1.657 -0.3945 -0.5435  0.1912
28015SOL     OW87960   2.787   8.933   4.339 -0.4915 -0.1638  0.2239
28015SOL    HW187961   2.838   8.856   4.314  0.3822  0.2619  0.6437
28015SOL    HW287962   2.766   8.919   4.432  0.3151  0.4332  0.5111
28016SOL     OW87963   8.744   9.825   5.754 -0.4737 -0.5926 -0.1039
28016SOL    HW187964   8.715   9.748   5.704  0.5178  0.3748 -2.3003
28016SOL    HW287965   8.834   9.838   5.726 -0.8410  1.7880 -0.3421
28017SOL     OW87966   7.147   1.554   5.787 -0.1967 -0.4169 -0.2087
28017SOL    HW187967   7.067   1.599   5.816  0.4397  1.0532 -0.6259
28017SOL    HW287968   7.117   1.468   5.758 -1.6897  0.2316 -0.6970
28018SOL     OW87969   7.366   3.166   2.052  0.2387 -0.4197 -0.6663
28018SOL    HW187970   7.375   3.086   2.000 -0.8901 -1.8266  1.1330
28018SOL    HW287971   7.398   3.141   2.139  1.1128  1.5188 -0.3935
28019SOL     OW87972   2.387   7.465  10.010  0.6039 -0.4030  0.6434
28019SOL    HW187973   2.348   7.553  10.010 -1.6934 -1.3535  1.1062
28019SOL    HW287974   2.480   7.480   9.991 -0.0196  1.9774 -0.9636
28020SOL     OW87975   4.626   1.276   5.422  0.0578 -0.0171 -0.0768
28020SOL    HW187976   4.650   1.362   5.385 -0.6420 -0.4465 -1.6355
28020SOL    HW287977   4.631   1.216   5.347  0.9919 -1.4603  1.0838
28021SOL     OW87978   0.796   3.527   1.647 -0.5796 -0.4959  0.6824
28021SOL    HW187979   0.717   3.545   1.594 -0.6566  0.6686  1.1482
28021SOL    HW287980   0.776   3.565   1.733  1.4072  2.2008  0.1130
28022SOL     OW87981   6.194   1.795   4.179  0.2397 -0.3546 -0.0840
28022SOL    HW187982   6.201   1.713   4.226  1.5380 -0.7040 -0.8298
28022SOL    HW287983   6.281   1.809   4.142  0.8580  2.6812  2.1630
28023SOL     OW87984   7.109   3.659   2.658 -0.0158 -0.6620  0.2689
28023SOL    HW187985   7.074   3.651   2.746 -2.1013  1.7975 -0.2216
28023SOL    HW287986   7.060   3.595   2.606 -0.5794 -0.3685  0.4347
28024SOL     OW87987   5.593   1.128   9.596 -0.5771  0.3711  0.1535
28024SOL    HW187988   5.521   1.065   9.589 -0.0882 -0.2860  0.9103
28024SOL    HW287989   5.637   1.106   9.678 -0.4156  1.7380  0.4584
28025SOL     OW87990   9.433   7.943   5.131 -0.4653 -0.1734 -0.5850
28025SOL    HW187991   9.343   7.942   5.164 -0.0903 -1.1468  0.4983
28025SOL    HW287992   9.487   7.954   5.209  0.4053 -1.2048 -1.0195
28026SOL     OW87993   5.508   2.671   9.915  0.0644 -0.0746 -0.3585
28026SOL    HW187994   5.512   2.588   9.868  1.3628  0.3612 -1.0798
28026SOL    HW287995   5.558   2.732   9.860  1.4658  0.5188  1.4615
28027SOL     OW87996   6.356   6.336   4.095 -0.2666  0.0237 -0.2362
28027SOL    HW187997   6.262   6.352   4.084 -0.3116  0.0355  0.1410
28027SOL    HW287998   6.398   6.406   4.046 -0.4499 -0.3606 -0.9609
28028SOL     OW87999   6.898   3.348   6.496  0.5269 -0.4044  0.0905
28028SOL    HW188000   6.927   3.438   6.482 -2.5757  0.7406  0.3079
28028SOL    HW288001   6.911   3.332   6.589 -0.3627  0.4427  0.3795
28029SOL     OW88002   4.445   7.023   8.048  0.0331  0.2716  0.0689
28029SOL    HW188003   4.417   7.053   8.135  0.1042  0.2419  0.1015
28029SOL    HW288004   4.381   6.955   8.025  0.8028 -0.6775  0.6769
28030SOL     OW88005   1.317   5.536   2.794 -0.6203 -0.0274  0.2100
28030SOL    HW188006   1.307   5.441   2.787 -1.3575  0.0596 -0.0041
28030SOL    HW288007   1.408   5.549   2.820 -0.9541 -0.8524  1.8768
28031SOL     OW88008   9.024   1.813   0.515 -0.5707  0.3091  0.3854
28031SOL    HW188009   9.025   1.887   0.454 -2.3241  0.3824  0.3845
28031SOL    HW288010   9.009   1.736   0.459  3.8792 -0.5410  0.0346
28032SOL     OW88011   6.762   1.654   6.597  0.3290  0.0394  0.7573
28032SOL    HW188012   6.813   1.587   6.643 -0.8972 -0.2533  1.7368
28032SOL    HW288013   6.675   1.649   6.636 -1.0295 -0.7305 -2.1332
28033SOL     OW88014   9.540   5.362   4.458 -0.6861  0.4440 -0.1364
28033SOL    HW188015   9.563   5.452   4.480  1.9738  0.2206 -1.5958
28033SOL    HW288016   9.445   5.363   4.450 -0.7862  2.9431  0.5359
28034SOL     OW88017   1.398   7.349   7.681 -0.0565  0.7431 -0.1031
28034SOL    HW188018   1.324   7.409   7.688  0.8734  1.7507  1.9146
28034SOL    HW288019   1.384   7.285   7.751  0.2058  0.0176 -0.6990
28035SOL     OW88020   0.455   6.425   6.521 -0.2151  0.2070 -0.0500
28035SOL    HW188021   0.372   6.436   6.568  0.6956 -1.5333  2.0858
28035SOL    HW288022   0.429   6.392   6.435 -1.8316  1.9327 -0.2859
28036SOL     OW88023   6.802   8.759   1.928 -0.7151  0.1256  0.4066
28036SOL    HW188024   6.880   8.709   1.900 -0.6412  1.4959 -2.1842
28036SOL    HW288025   6.776   8.719   2.010  0.1024 -3.3368 -0.8507
28037SOL     OW88026   3.311   2.265   9.021  0.4126  0.1630  0.0208
28037SOL    HW188027   3.237   2.247   8.963  2.0283 -0.1258 -2.0618
28037SOL    HW288028   3.314   2.360   9.028 -0.8271  0.1535  1.1083
28038SOL     OW88029   0.184   9.914   9.906 -0.2962 -0.6314  0.1289
28038SOL    HW188030   0.135   9.832   9.907  1.5066 -1.7476  0.4714
28038SOL    HW288031   0.252   9.901   9.840 -0.2540  0.7873 -0.1511
28039SOL     OW88032   2.684   4.671   8.364 -0.5834  0.0333 -0.1424
28039SOL    HW188033   2.734   4.733   8.417 -1.8621  0.5997  0.4243
28039SOL    HW288034   2.747   4.640   8.299 -0.1820  2.8029 -1.2187
28040SOL     OW88035  10.087   8.572   0.995 -0.5845  0.4822 -0.5030
28040SOL    HW188036  10.024   8.513   0.954 -0.1801  0.7674 -1.5641
28040SOL    HW288037  10.052   8.660   0.978 -0.2569  0.6158 -0.4878
28041SOL     OW88038   1.475   0.807   8.206  0.4784 -0.0617 -0.2516
28041SOL    HW188039   1.473   0.743   8.277  0.3840  0.2685  0.0436
28041SOL    HW288040   1.386   0.840   8.201  0.5118 -0.0008 -0.4502
28042SOL     OW88041   1.333   2.908   2.708  0.6682 -0.2604 -0.2225
28042SOL    HW188042   1.308   2.988   2.664  0.9599 -0.4430 -0.7277
28042SOL    HW288043   1.289   2.912   2.793 -1.9936 -1.0848 -1.4738
28043SOL     OW88044   4.388   6.149   3.257 -0.2812 -0.2593 -0.1231
28043SOL    HW188045   4.382   6.191   3.343  3.3597 -2.3473  1.3448
28043SOL    HW288046   4.371   6.056   3.274 -0.2442 -0.6067 -1.8031
28044SOL     OW88047   0.856   6.031   3.485 -0.1232  0.3045  0.0947
28044SOL    HW188048   0.874   6.066   3.573 -1.1992  0.6499  0.2033
28044SOL    HW288049   0.892   5.943   3.487  2.4465  1.2612 -0.1021
28045SOL     OW88050   3.723   2.472   0.413  0.3894 -0.7220  0.3825
28045SOL    HW188051   3.656   2.485   0.345  0.8845 -2.5067 -0.5190
28045SOL    HW288052   3.804   2.499   0.371  0.4200  0.3418  1.0845
28046SOL     OW88053   5.298   1.510   7.752 -0.1908  0.8180  0.1861
28046SOL    HW188054   5.253   1.461   7.683 -0.5601  0.4375  0.6946
28046SOL    HW288055   5.388   1.519   7.720  0.2473 -1.3730  0.6859
28047SOL     OW88056   9.764  10.157   6.598 -0.0873 -1.0367  0.0653
28047SOL    HW188057   9.739  10.151   6.690  0.1734  0.1159  0.2229
28047SOL    HW288058   9.859  10.164   6.599  0.2179 -3.8122 -0.4586
28048SOL     OW88059   7.368   4.365   2.160  0.4302 -0.0894  1.0617
28048SOL    HW188060   7.328   4.340   2.244  1.0205 -1.3899  0.9870
28048SOL    HW288061   7.300   4.345   2.096  0.6107 -0.8023  1.0805
28049SOL     OW88062   4.663   1.227   6.279  0.1663 -0.0490 -0.0407
28049SOL    HW188063   4.596   1.160   6.294 -0.2471  0.4463  0.3731
28049SOL    HW288064   4.620   1.293   6.225  0.6462 -0.2229 -0.6528
28050SOL     OW88065   0.430   8.605   2.752  0.3572 -0.1484  0.1653
28050SOL    HW188066   0.455   8.595   2.844 -1.1811  0.5836  0.6967
28050SOL    HW288067   0.417   8.515   2.721 -0.3792 -0.3573  1.0451
28051SOL     OW88068   4.043   4.996   9.333  0.5928 -0.4219 -0.3723
28051SOL    HW188069   4.003   4.943   9.403  0.7025 -0.3779 -0.2763
28051SOL    HW288070   4.044   4.938   9.257  0.4522 -0.4629 -0.3441
28052SOL     OW88071   1.537   9.612   2.156  0.1168 -0.8916  0.0240
28052SOL    HW188072   1.547   9.555   2.079 -1.0198 -0.0555 -0.7912
28052SOL    HW288073   1.471   9.567   2.210  0.0168 -0.8829 -0.0898
28053SOL     OW88074   0.898   9.742   0.032  0.3033  0.3643 -0.3892
28053SOL    HW188075   0.956   9.671   0.060 -1.5142 -0.6338  1.0110
28053SOL    HW288076   0.810   9.710   0.050 -0.8007  1.5290 -3.1197
28054SOL     OW88077   8.526   7.251   8.761 -0.0544 -0.2512  0.0162
28054SOL    HW188078   8.509   7.158   8.748 -0.8690  0.2825 -4.0348
28054SOL    HW288079   8.439   7.291   8.759  0.1204  0.5797  3.5261
28055SOL     OW88080   1.050   0.773   8.492  0.5648 -0.1218  0.4449
28055SOL    HW188081   1.028   0.680   8.501  1.4243 -0.2803  0.9499
28055SOL    HW288082   1.096   0.795   8.572  2.9997 -0.0233 -0.8849
28056SOL     OW88083   1.127   3.869   4.853  0.4482  0.2209  0.4834
28056SOL    HW188084   1.114   3.957   4.818  0.7394 -0.0216 -0.2412
28056SOL    HW288085   1.071   3.813   4.799  1.6130 -0.2895 -0.2172
28057SOL     OW88086   6.655   3.498   5.002  0.0140  0.8288 -0.2956
28057SOL    HW188087   6.742   3.533   4.984  0.0901  3.2429  3.7077
28057SOL    HW288088   6.595   3.568   4.978 -0.7148  0.0157 -0.9407
28058SOL     OW88089  10.097   1.407   7.225 -0.1819  0.4147  0.3883
28058SOL    HW188090  10.028   1.352   7.263 -0.2543  0.3022  0.0981
28058SOL    HW288091  10.050   1.477   7.180 -0.1614 -0.3649 -0.9002
28059SOL     OW88092  10.103   9.038   5.486  0.0976 -0.5947  0.1706
28059SOL    HW188093  10.164   8.982   5.534 -0.2782  0.2297  1.6955
28059SOL    HW288094  10.084   8.990   5.406 -0.1624 -2.6353  1.3773
28060SOL     OW88095   9.381   9.638   1.546 -0.2265  0.1446 -0.3741
28060SOL    HW188096   9.293   9.631   1.584  0.1625 -1.1641  0.3456
28060SOL    HW288097   9.370   9.698   1.472 -1.2604  1.7951  1.0356
28061SOL     OW88098   1.489   3.401   9.796 -0.0231  0.1706 -0.4010
28061SOL    HW188099   1.478   3.373   9.887  0.4706  1.1401 -0.0242
28061SOL    HW288100   1.570   3.453   9.796  0.3699 -0.3942 -1.5364
28062SOL     OW88101   0.183   9.531   6.951 -0.4565 -0.1805 -0.6393
28062SOL    HW188102   0.119   9.492   7.011  0.2163  0.9207  0.8637
28062SOL    HW288103   0.268   9.514   6.992  0.0317  0.5404 -1.3150
28063SOL     OW88104   7.009   8.191   5.724  0.2963 -0.1332 -0.2791
28063SOL    HW188105   6.999   8.285   5.707 -0.0926  0.0259  0.7326
28063SOL    HW288106   6.936   8.170   5.783  2.1724 -0.3698  2.1066
28064SOL     OW88107   8.756   4.545   5.196  0.4172  0.0439  0.1722
28064SOL    HW188108   8.826   4.611   5.193  1.1684 -0.7310  0.1903
28064SOL    HW288109   8.682   4.587   5.152  1.5863  0.0741 -1.8862
28065SOL     OW88110   6.161   6.157   9.859  0.4978  0.0631 -0.1079
28065SOL    HW188111   6.212   6.083   9.826  0.5802  0.3705 -0.6824
28065SOL    HW288112   6.222   6.230   9.858  0.8537 -0.1496  1.8540
28066SOL     OW88113   5.210   0.769   5.630  0.0639  0.9353 -0.1610
28066SOL    HW188114   5.232   0.863   5.632  0.1165  0.9196  0.0205
28066SOL    HW288115   5.221   0.740   5.721  2.3977  0.2084 -0.6035
28067SOL     OW88116   0.867   0.490   6.175  0.2707  0.0971 -0.1743
28067SOL    HW188117   0.951   0.469   6.214 -1.2086 -2.5367  1.8920
28067SOL    HW288118   0.807   0.497   6.249 -1.8375 -0.8408 -1.6858
28068SOL     OW88119   7.229   9.271   1.318  0.0161 -0.8441  0.3957
28068SOL    HW188120   7.153   9.215   1.307  0.7842 -2.0322  0.9493
28068SOL    HW288121   7.200   9.340   1.377 -0.7755 -0.9896  0.1845
28069SOL     OW88122   6.970   5.408   6.840 -0.3811  0.3945  0.1583
28069SOL    HW188123   7.007   5.322   6.819 -1.3382  0.4421 -2.0753
28069SOL    HW288124   7.000   5.427   6.929  0.7519 -1.7518  0.2918
28070SOL     OW88125   9.411   8.422  10.040  0.3353 -0.1483 -0.6464
28070SOL    HW188126   9.328   8.384  10.010  1.3888 -2.1648 -1.1896
28070SOL    HW288127   9.418   8.395  10.131  0.5906 -0.3785 -0.7317
28071SOL     OW88128   5.818   2.986   6.534  0.2843 -0.8290  0.0625
28071SOL    HW188129   5.823   3.028   6.448 -2.2689  0.2684  0.3528
28071SOL    HW288130   5.797   2.895   6.515  0.8436 -0.8465 -0.4861
28072SOL     OW88131   7.138   1.342   1.882  0.4309 -0.0391  0.2490
28072SOL    HW188132   7.221   1.339   1.834  0.6416 -0.0926  0.6179
28072SOL    HW288133   7.151   1.408   1.949  0.7552 -1.1916  1.3667
28073SOL     OW88134   7.605   5.237   2.284 -0.5892  0.3226  0.3157
28073SOL    HW188135   7.655   5.231   2.203 -0.9218  0.4225  0.1013
28073SOL    HW288136   7.671   5.243   2.353 -0.2837 -1.2720  0.1812
28074SOL     OW88137   0.740   8.828   1.487 -0.7779 -0.0145  0.0441
28074SOL    HW188138   0.676   8.883   1.532 -0.1127 -0.5611  1.7212
28074SOL    HW288139   0.759   8.758   1.549 -1.4678 -2.0932 -1.9549
28075SOL     OW88140   0.182   6.688   3.820 -0.1965 -0.2396  0.2077
28075SOL    HW188141   0.273   6.704   3.845 -0.3249  0.3788  0.3038
28075SOL    HW288142   0.177   6.716   3.728 -0.5286  0.7503  0.5067
28076SOL     OW88143   9.161   1.121   2.173 -0.0095  0.2160  0.7262
28076SOL    HW188144   9.093   1.188   2.170 -0.8687 -0.5720  1.7016
28076SOL    HW288145   9.127   1.055   2.234  2.1461  0.3754  2.2309
28077SOL     OW88146   2.457   0.372   6.810  1.0623  0.3955  1.0646
28077SOL    HW188147   2.480   0.449   6.862  0.7994  0.7693  0.6303
28077SOL    HW288148   2.384   0.332   6.856  1.3063  0.3070  1.3811
28078SOL     OW88149   5.084   7.536   0.762  0.2549 -0.2162 -0.0743
28078SOL    HW188150   5.173   7.547   0.795 -0.4038 -0.5492  2.0243
28078SOL    HW288151   5.043   7.476   0.825 -2.1248  1.8151  0.4856
28079SOL     OW88152   9.011   9.485   0.907  0.2369 -0.3489  0.3630
28079SOL    HW188153   9.024   9.565   0.855 -2.4536  0.7921  1.2648
28079SOL    HW288154   9.016   9.414   0.843 -0.5134  0.8214 -1.0564
28080SOL     OW88155   3.246   8.638   2.047  0.1250 -0.1100  0.1825
28080SOL    HW188156   3.229   8.544   2.039 -1.9885  0.2571 -0.4225
28080SOL    HW288157   3.292   8.647   2.131  0.8766 -1.7279 -0.0275
28081SOL     OW88158   4.341   8.679   2.249 -0.2890 -0.0741  0.2958
28081SOL    HW188159   4.299   8.655   2.167  1.1966 -0.7387 -0.3049
28081SOL    HW288160   4.394   8.756   2.228 -0.6520  0.3388  0.8691
28082SOL     OW88161   8.083   6.073   5.352  0.0723  0.0540  0.2396
28082SOL    HW188162   8.012   6.135   5.368  1.0184  0.8643  1.3829
28082SOL    HW288163   8.081   6.059   5.257 -0.4846  1.4317  0.0323
28083SOL     OW88164   4.518   2.462   5.096  0.0184 -0.1942  0.2892
28083SOL    HW188165   4.462   2.388   5.120 -1.4710  1.0848  0.8663
28083SOL    HW288166   4.580   2.469   5.168 -1.2324  0.4521  1.3469
28084SOL     OW88167   8.054   4.837   2.326  0.0290  0.2297  0.2074
28084SOL    HW188168   8.029   4.749   2.298 -0.1046  0.1863  0.4590
28084SOL    HW288169   8.090   4.878   2.247 -0.0736  0.0114  0.0456
28085SOL     OW88170   4.999   2.297   7.810 -0.0967 -0.3470  0.3996
28085SOL    HW188171   5.092   2.304   7.785 -0.6027  2.0844 -1.2559
28085SOL    HW288172   4.973   2.211   7.780  0.4998  0.7442 -3.9740
28086SOL     OW88173   7.021   2.378   6.044 -0.1060 -0.0691 -0.3223
28086SOL    HW188174   7.002   2.460   6.091  0.7745 -0.1940  0.2770
28086SOL    HW288175   6.997   2.309   6.105  1.8613 -0.2310  0.3286
28087SOL     OW88176   4.435   4.875   2.710 -0.3150 -0.0343 -0.2107
28087SOL    HW188177   4.399   4.812   2.772  0.2704  1.5724  1.8873
28087SOL    HW288178   4.529   4.872   2.726 -0.1681  0.4691 -0.9754
28088SOL     OW88179   7.211   2.129   2.893 -0.2250 -0.3751 -0.2410
28088SOL    HW188180   7.259   2.107   2.813  1.6937 -0.0869  0.7500
28088SOL    HW288181   7.142   2.189   2.865  0.9370  0.3873 -1.5907
28089SOL     OW88182  10.197   2.338   8.414  0.4651  0.2361 -0.3321
28089SOL    HW188183  10.164   2.308   8.499 -1.8870 -1.2157 -1.6612
28089SOL    HW288184  10.289   2.313   8.414  0.8986  1.5171  2.2953
28090SOL     OW88185   8.264   0.776   6.304 -0.5878  0.7337  0.1154
28090SOL    HW188186   8.187   0.719   6.316 -0.1683 -0.1735 -1.2724
28090SOL    HW288187   8.239   0.859   6.345 -1.7283 -0.0229  1.0108
28091SOL     OW88188   1.357   7.985   7.951  0.5058 -0.5583 -0.2007
28091SOL    HW188189   1.404   8.067   7.968 -1.3694  0.3781  0.8213
28091SOL    HW288190   1.265   8.008   7.960 -0.0760 -3.1798  2.1600
28092SOL     OW88191   5.445   0.491   6.825 -0.4074  0.1403 -0.6278
28092SOL    HW188192   5.486   0.425   6.881  0.9318  0.6314 -0.9706
28092SOL    HW288193   5.476   0.471   6.737  1.4672  2.1596 -0.5364
28093SOL     OW88194   8.237   8.388   3.053  0.4739  0.3895  0.4453
28093SOL    HW188195   8.231   8.469   3.105  3.2543  1.1059 -0.1633
28093SOL    HW288196   8.269   8.323   3.115  1.3162  0.5996  0.2486
28094SOL     OW88197   0.185   8.899   0.440  0.0741 -0.4810 -0.2948
28094SOL    HW188198   0.192   8.942   0.525  1.7591 -1.0231 -0.1201
28094SOL    HW288199   0.091   8.881   0.429 -0.2032 -0.1048  1.2853
28095SOL     OW88200   3.936   9.724   6.087 -0.0809  0.0674 -0.2681
28095SOL    HW188201   3.924   9.742   5.994  0.6653  2.5593  0.0424
28095SOL    HW288202   4.029   9.739   6.103  0.0182 -1.3457  0.7180
28096SOL     OW88203   1.065   8.086   7.888  0.1394  0.5509  0.5431
28096SOL    HW188204   1.041   8.090   7.795  0.7304 -0.0074  0.3615
28096SOL    HW288205   1.008   8.018   7.924  1.1034 -0.4669  0.2043
28097SOL     OW88206   5.078   9.937   0.539 -0.4250  0.2014 -0.0056
28097SOL    HW188207   5.015  10.003   0.571 -1.5407  0.0065 -1.6836
28097SOL    HW288208   5.023   9.862   0.516  0.6185 -0.5501 -0.0742
28098SOL     OW88209   0.391   5.370   7.343 -0.5252  0.3188 -0.0507
28098SOL    HW188210   0.427   5.415   7.267 -0.1670  1.4872  0.7849
28098SOL    HW288211   0.464   5.363   7.404 -1.3327  1.4124  1.0843
28099SOL     OW88212   9.475   0.687   0.258 -0.2231  0.0183  0.5156
28099SOL    HW188213   9.436   0.670   0.344  1.4037 -1.7763  0.9688
28099SOL    HW288214   9.430   0.627   0.199  0.3251 -0.4925  0.6102
28100SOL     OW88215   8.534   5.086   3.183  0.3111  0.0342 -0.2069
28100SOL    HW188216   8.495   5.001   3.162  2.2167 -1.2964  1.2433
28100SOL    HW288217   8.564   5.121   3.100  0.7776 -1.4035 -0.6562
28101SOL     OW88218   7.935   5.477   6.695  0.1840 -0.0655 -0.3197
28101SOL    HW188219   7.865   5.416   6.719 -2.3690  1.5064 -3.0062
28101SOL    HW288220   7.994   5.425   6.640 -0.0216 -0.9378  0.2629
28102SOL     OW88221   6.094   7.539   8.359 -0.2715 -0.0102  0.0458
28102SOL    HW188222   6.145   7.598   8.304  0.5983  0.1536  0.9866
28102SOL    HW288223   6.017   7.590   8.385 -0.3258  0.1530 -0.4357
28103SOL     OW88224   7.227   9.867   3.431  0.0589  0.0404  0.1053
28103SOL    HW188225   7.154   9.928   3.444 -0.4237 -0.6440  0.6580
28103SOL    HW288226   7.229   9.852   3.336 -2.2780 -2.0256  0.2936
28104SOL     OW88227   7.657   6.739   3.019 -0.0473 -0.2936  0.1187
28104SOL    HW188228   7.703   6.657   3.001  0.2066  0.1301 -1.3138
28104SOL    HW288229   7.700   6.774   3.097  1.5147 -0.3282 -0.6781
28105SOL     OW88230   8.676   9.833   3.790 -0.1178  0.1664 -0.0163
28105SOL    HW188231   8.616   9.898   3.826 -0.7948 -0.6925  0.4529
28105SOL    HW288232   8.763   9.870   3.803 -0.4369  0.5347  1.1817
28106SOL     OW88233   2.617   1.808   0.603  0.1399  0.1943 -0.1716
28106SOL    HW188234   2.673   1.885   0.612  0.5144  0.0251 -0.9245
28106SOL    HW288235   2.643   1.751   0.676  1.4705 -0.1889 -0.9021
28107SOL     OW88236   8.406   8.441   1.876 -0.1345  0.0217 -0.0001
28107SOL    HW188237   8.350   8.405   1.945  1.1740  0.4868  1.3619
28107SOL    HW288238   8.489   8.393   1.886  0.9511  1.9060  0.5055
28108SOL     OW88239   4.682   6.132   8.683 -0.3240  0.4172 -0.4448
28108SOL    HW188240   4.628   6.126   8.762 -0.2462 -0.5781 -0.4619
28108SOL    HW288241   4.759   6.078   8.701  0.1098  0.8830 -0.8718
28109SOL     OW88242   0.158  10.005   1.687 -0.1926  0.4278  0.7335
28109SOL    HW188243   0.143   9.939   1.755 -0.9587  1.4068  1.5270
28109SOL    HW288244   0.202  10.077   1.732  1.0903  0.3031 -0.2308
28110SOL     OW88245   3.263   6.359   6.850 -0.0794  1.2076  0.7005
28110SOL    HW188246   3.208   6.292   6.891  0.3126  0.9579  0.8230
28110SOL    HW288247   3.321   6.387   6.920 -0.2660  1.7085  0.6599
28111SOL     OW88248   2.648   9.136   7.165  0.6380 -0.2564 -0.3766
28111SOL    HW188249   2.608   9.179   7.089 -0.3090  1.0300  0.7896
28111SOL    HW288250   2.615   9.186   7.240 -0.1727 -2.7469  1.0457
28112SOL     OW88251   7.269   2.115   9.953  0.3684 -0.1474 -0.3842
28112SOL    HW188252   7.312   2.041   9.997 -1.1022 -1.3517 -0.8520
28112SOL    HW288253   7.247   2.081   9.866  2.0046  1.7393 -1.6142
28113SOL     OW88254   9.973   7.360   2.281 -0.0329 -0.0945 -0.5686
28113SOL    HW188255  10.046   7.299   2.273  0.8710  0.9820 -0.9012
28113SOL    HW288256   9.989   7.406   2.363 -0.6798 -0.2751 -0.3375
28114SOL     OW88257   6.063   4.256   1.502 -0.4922  0.3280  0.2555
28114SOL    HW188258   6.001   4.193   1.466 -0.6030 -0.4480  1.7130
28114SOL    HW288259   6.142   4.246   1.448 -0.7317 -0.6177  0.0580
28115SOL     OW88260   8.994   7.870   2.233  0.5493  0.2707  0.1040
28115SOL    HW188261   8.917   7.908   2.275  0.1380 -0.1194 -0.2941
28115SOL    HW288262   8.960   7.798   2.180  1.4322 -1.6396  1.9506
28116SOL     OW88263   2.519   4.654   2.041  0.0091 -0.4592 -0.2852
28116SOL    HW188264   2.613   4.667   2.049 -0.0806  0.3982 -0.4437
28116SOL    HW288265   2.483   4.743   2.045 -0.5802 -0.5227 -2.6886
28117SOL     OW88266   7.348   1.763   6.992 -0.0316  0.3965 -0.1060
28117SOL    HW188267   7.415   1.698   7.012 -0.3761  0.3834  1.0490
28117SOL    HW288268   7.272   1.712   6.964  0.1613  0.3787 -0.6146
28118SOL     OW88269   9.704   9.286   5.908  0.2960 -0.0628 -0.3241
28118SOL    HW188270   9.623   9.333   5.892  0.1483 -0.0090  0.5666
28118SOL    HW288271   9.745   9.278   5.821 -0.3210  0.5109 -0.6705
28119SOL     OW88272   3.017   2.145   8.926  0.1681 -0.0332 -0.2232
28119SOL    HW188273   3.051   2.120   8.840 -0.8421  0.0935 -0.6739
28119SOL    HW288274   2.997   2.062   8.969 -2.1659 -0.1225 -1.3043
28120SOL     OW88275   4.446   0.182   8.570  0.4756 -0.3862 -0.2558
28120SOL    HW188276   4.501   0.225   8.504  1.7664  0.2669  1.1652
28120SOL    HW288277   4.361   0.172   8.528  1.4436 -0.6945 -2.2651
28121SOL     OW88278   4.376   5.333   1.095 -0.2598 -0.3158  0.2749
28121SOL    HW188279   4.289   5.307   1.124 -0.1354  1.2677  2.2563
28121SOL    HW288280   4.435   5.270   1.137 -0.1922  1.1220  2.4881
28122SOL     OW88281   2.396   1.601   1.126  0.2421  0.0769 -0.4519
28122SOL    HW188282   2.486   1.575   1.145  0.4956  1.1884 -0.0673
28122SOL    HW288283   2.347   1.518   1.125  0.9302 -0.4060  1.2143
28123SOL     OW88284   9.368   4.326   2.421 -0.4687 -0.3091  0.2938
28123SOL    HW188285   9.327   4.272   2.354 -1.1192  1.3693 -0.7107
28123SOL    HW288286   9.387   4.409   2.378  0.3148  0.3692  1.8405
28124SOL     OW88287   4.706   3.844   4.874  0.3982  0.3794  0.6568
28124SOL    HW188288   4.673   3.763   4.833 -0.2134  1.0586 -0.2386
28124SOL    HW288289   4.733   3.899   4.800 -3.4967  2.8555  0.7878
28125SOL     OW88290   9.269   0.658   6.196 -0.1217 -0.2860  0.8215
28125SOL    HW188291   9.197   0.680   6.254  0.4207 -1.5063  2.0100
28125SOL    HW288292   9.270   0.729   6.131  1.0397  2.8504  3.9148
28126SOL     OW88293   6.202   8.994   6.622  0.1136  0.5747  0.2998
28126SOL    HW188294   6.245   8.949   6.549  1.6164  2.6966 -0.1990
28126SOL    HW288295   6.119   9.024   6.586  0.6469  1.2150 -0.4228
28127SOL     OW88296   3.098   1.543   6.320  0.4730 -0.2405 -0.4662
28127SOL    HW188297   3.190   1.566   6.306  1.2138 -2.4598  0.3100
28127SOL    HW288298   3.096   1.504   6.408 -0.8478 -1.8441 -1.1535
28128SOL     OW88299   6.654   4.298   3.369 -0.0065  0.5548 -0.0927
28128SOL    HW188300   6.710   4.356   3.421 -0.3384  0.9430 -0.1629
28128SOL    HW288301   6.698   4.213   3.372  1.0663  1.0558 -0.8996
28129SOL     OW88302   3.788   9.828   7.158  0.2733  0.4244  0.2362
28129SOL    HW188303   3.811   9.882   7.233  0.0644 -0.5868  1.0623
28129SOL    HW288304   3.733   9.758   7.195 -0.4768  0.3359 -0.9871
28130SOL     OW88305   2.128   9.258   8.090 -0.0620 -0.3556 -0.0183
28130SOL    HW188306   2.080   9.250   8.007 -0.1140 -0.4959  0.0247
28130SOL    HW288307   2.060   9.257   8.157 -0.0538  0.2499  0.0010
28131SOL     OW88308   9.663   9.320   7.543 -0.0403 -0.1213  0.1051
28131SOL    HW188309   9.647   9.401   7.494  0.3162 -0.8841 -1.3124
28131SOL    HW288310   9.575   9.292   7.571 -0.1266  0.9539  0.9804
28132SOL     OW88311   8.164   5.092   3.017  0.3942  0.3549 -0.0546
28132SOL    HW188312   8.238   5.093   2.956  0.6264  2.0599  0.2143
28132SOL    HW288313   8.187   5.156   3.084 -1.4669  1.1833 -0.1526
28133SOL     OW88314   6.655   9.406  10.038 -0.0164 -0.3945 -0.1049
28133SOL    HW188315   6.741   9.382  10.073  0.2951  0.5529 -0.1938
28133SOL    HW288316   6.648   9.358   9.956  0.6456 -0.0859 -0.3474
28134SOL     OW88317   3.234   4.353   8.825  0.2884 -0.1699 -0.3357
28134SOL    HW188318   3.320   4.313   8.816 -0.2784 -1.8534  1.0378
28134SOL    HW288319   3.212   4.341   8.918 -1.8541 -0.7478 -0.8602
28135SOL     OW88320   6.944   9.600  10.203  0.0172  0.2561 -0.1055
28135SOL    HW188321   6.871   9.660  10.188  1.2689  1.6578 -0.8836
28135SOL    HW288322   6.908   9.513  10.187 -1.7460  0.8169  0.6122
28136SOL     OW88323   3.986   0.450   8.752 -0.4064 -0.0561 -0.1494
28136SOL    HW188324   3.996   0.380   8.687 -1.0245 -0.7662  0.5120
28136SOL    HW288325   4.075   0.466   8.784 -0.2610 -0.5442 -0.2987
28137SOL     OW88326   2.701   5.178   6.945  0.8096  0.2259  0.2350
28137SOL    HW188327   2.686   5.111   6.879 -2.2248  1.1265 -0.1302
28137SOL    HW288328   2.686   5.261   6.899 -0.4568  0.9129  1.7916
28138SOL     OW88329   9.348   8.339   7.489 -0.2961  0.2761  0.2196
28138SOL    HW188330   9.304   8.397   7.426 -0.6941 -0.2850 -0.0238
28138SOL    HW288331   9.321   8.251   7.463 -0.5834  0.0449  1.2776
28139SOL     OW88332   9.828   0.870   0.355  0.0509  0.4005  0.0313
28139SOL    HW188333   9.843   0.887   0.448 -0.0084  0.3076  0.0577
28139SOL    HW288334   9.807   0.777   0.350 -0.4507  0.5107 -0.0103
28140SOL     OW88335   7.857   9.859   6.659 -0.2801  0.2098 -0.0331
28140SOL    HW188336   7.894   9.903   6.735  1.1425 -1.0175  0.0101
28140SOL    HW288337   7.789   9.919   6.628  1.1752  2.1660  0.3706
28141SOL     OW88338   1.071   7.243   9.821  0.3994 -0.0615 -0.0199
28141SOL    HW188339   0.977   7.226   9.819  0.7300 -2.9948  2.2260
28141SOL    HW288340   1.105   7.199   9.743  0.1146 -1.0404  0.3904
28142SOL     OW88341   0.561   3.653   7.008 -0.0403  0.5671 -0.4723
28142SOL    HW188342   0.619   3.704   7.064 -1.5801  0.1531  1.6399
28142SOL    HW288343   0.518   3.718   6.952 -1.1867  1.5747  1.4416
28143SOL     OW88344   1.026   9.463   5.310  0.3097 -0.2346 -0.0162
28143SOL    HW188345   1.100   9.432   5.258 -2.1312 -1.8145 -2.8133
28143SOL    HW288346   0.996   9.386   5.358 -1.3224 -0.4182 -1.2738
28144SOL     OW88347   5.933   0.085   6.108  0.4182  0.5885  0.5416
28144SOL    HW188348   5.917   0.022   6.038 -0.8813  1.2704  0.1977
28144SOL    HW288349   6.024   0.069   6.135  0.9653  0.3659 -1.3322
28145SOL     OW88350   9.268   2.011   1.214 -0.0430 -0.0650  0.1114
28145SOL    HW188351   9.195   2.048   1.264 -2.0467 -2.6771 -0.6647
28145SOL    HW288352   9.272   2.066   1.136 -1.1653  0.1777  0.1992
28146SOL     OW88353   7.074   8.614   7.088 -0.4781  0.6755  0.7592
28146SOL    HW188354   7.097   8.523   7.106  0.2846  0.5064 -0.8466
28146SOL    HW288355   7.050   8.651   7.173  0.7770 -0.5797  1.7019
28147SOL     OW88356   2.715   6.724   3.118 -0.3576  0.0743 -0.1369
28147SOL    HW188357   2.645   6.668   3.086  1.5205 -1.7929 -1.2153
28147SOL    HW288358   2.756   6.759   3.039 -0.7205  2.0678  0.4981
28148SOL     OW88359   1.815   5.271   0.306 -0.0466  0.2907 -0.0103
28148SOL    HW188360   1.831   5.337   0.238  0.3928 -1.3689 -1.5950
28148SOL    HW288361   1.843   5.314   0.388  0.0212  2.1211 -0.9403
28149SOL     OW88362   2.379   9.722   2.781 -0.0927  0.2425 -0.8538
28149SOL    HW188363   2.452   9.770   2.742 -1.0302 -0.0426 -3.0876
28149SOL    HW288364   2.397   9.724   2.875  1.6416  2.0243 -1.1612
28150SOL     OW88365   8.808   2.930   3.791 -0.2717  0.2087 -0.5466
28150SOL    HW188366   8.887   2.952   3.840 -1.1422 -2.5535  2.4288
28150SOL    HW288367   8.838   2.873   3.721  0.5637  0.8713 -0.7516
28151SOL     OW88368   1.504   4.705   7.176  0.2455 -0.3137 -0.3155
28151SOL    HW188369   1.522   4.799   7.169  1.2086 -0.4421  0.2689
28151SOL    HW288370   1.529   4.669   7.091 -0.0867 -0.0553 -0.5269
28152SOL     OW88371   3.949   0.080   0.857 -0.2421 -0.4202  0.3812
28152SOL    HW188372   3.868   0.060   0.810 -0.0663 -2.3118  0.8069
28152SOL    HW288373   3.937   0.169   0.891 -2.7399 -1.1758  1.6610
28153SOL     OW88374   8.552   5.635   7.571 -0.1642  0.5453 -0.1184
28153SOL    HW188375   8.639   5.600   7.551 -0.7149 -0.6553 -0.5225
28153SOL    HW288376   8.565   5.729   7.581  1.3038  0.3000  0.5526
28154SOL     OW88377   2.518   2.172   5.424 -0.1782  0.6006  0.1729
28154SOL    HW188378   2.503   2.260   5.459 -0.3909  0.7483 -0.2905
28154SOL    HW288379   2.546   2.121   5.500 -0.6915  0.9081  0.5748
28155SOL     OW88380   6.301   7.550   7.421 -0.1254 -0.2145  0.4733
28155SOL    HW188381   6.281   7.586   7.334  1.6968 -0.8759 -0.2489
28155SOL    HW288382   6.288   7.456   7.412  0.5462 -0.3404  0.7755
28156SOL     OW88383   6.157   6.215   3.775 -0.0185 -0.9040 -0.2728
28156SOL    HW188384   6.174   6.137   3.722  0.0604 -1.1323  0.0918
28156SOL    HW288385   6.061   6.221   3.778 -0.0234 -0.9222 -0.3954
28157SOL     OW88386   6.536   4.837   5.086  0.0560 -0.1877 -0.5549
28157SOL    HW188387   6.446   4.807   5.078 -1.1619  2.4275  1.4922
28157SOL    HW288388   6.537   4.923   5.044  1.4393  0.0912 -0.0343
28158SOL     OW88389   9.315   1.249   1.608 -0.0790 -0.3630 -0.2101
28158SOL    HW188390   9.377   1.300   1.661  0.4157 -3.3652  2.4125
28158SOL    HW288391   9.255   1.211   1.672 -2.6775 -0.2131 -2.3825
28159SOL     OW88392   8.582   2.966   2.242 -0.1761 -0.1690  0.0048
28159SOL    HW188393   8.549   2.899   2.182  0.1764  1.1820 -1.7806
28159SOL    HW288394   8.670   2.937   2.264 -0.3776 -0.7767  0.0290
28160SOL     OW88395  10.010   1.598   3.394  0.0638 -0.1166 -0.0479
28160SOL    HW188396   9.957   1.666   3.353 -0.1643  0.2179  0.7752
28160SOL    HW288397  10.048   1.641   3.471 -1.3914 -1.3586  1.4113
28161SOL     OW88398   1.489   3.215   3.611 -0.0390 -0.3001 -0.2671
28161SOL    HW188399   1.514   3.179   3.696  1.1131 -1.5204 -1.0814
28161SOL    HW288400   1.437   3.146   3.569  0.3796 -0.1829 -1.0065
28162SOL     OW88401   6.923   7.048   9.062  0.2694 -0.0665  0.3453
28162SOL    HW188402   6.993   7.112   9.078  0.8458 -0.2353 -1.3504
28162SOL    HW288403   6.858   7.096   9.010 -0.6173 -0.0915  1.3883
28163SOL     OW88404   5.925   4.492   7.389  0.4851 -0.3258 -0.5660
28163SOL    HW188405   5.863   4.562   7.410  0.6659  0.5271 -2.7031
28163SOL    HW288406   5.900   4.421   7.448  0.3256  1.4974  1.7062
28164SOL     OW88407   9.299   5.208   1.750 -0.4899 -0.7559  0.1086
28164SOL    HW188408   9.283   5.123   1.791 -2.4923 -0.8667 -0.7969
28164SOL    HW288409   9.303   5.269   1.824  0.7191 -1.5862  0.7499
28165SOL     OW88410   2.336   0.358   5.028  0.2885 -0.2008 -0.3843
28165SOL    HW188411   2.381   0.275   5.009  1.3427  0.4448 -0.7841
28165SOL    HW288412   2.318   0.395   4.941  1.1674  0.6867 -0.2023
28166SOL     OW88413   4.902   2.637   9.011  0.3767  0.0552  0.5849
28166SOL    HW188414   4.940   2.617   9.096  2.0355 -0.4873 -0.2280
28166SOL    HW288415   4.937   2.569   8.953  0.8784  1.5352 -0.9149
28167SOL     OW88416   8.859   0.499   2.425 -0.2563  0.5634  0.3209
28167SOL    HW188417   8.786   0.538   2.474 -1.0562 -1.2831  0.6837
28167SOL    HW288418   8.824   0.416   2.392  0.9743  0.7212 -1.5115
28168SOL     OW88419   2.102   0.249   2.519  0.4667  0.0451  0.3220
28168SOL    HW188420   2.189   0.287   2.519  0.3608  0.2910 -0.0650
28168SOL    HW288421   2.114   0.161   2.484  0.3695  0.5283 -0.9462
28169SOL     OW88422   9.033   6.472   7.812  0.1237 -0.3797 -0.1012
28169SOL    HW188423   9.004   6.436   7.728 -0.0669  3.1095 -1.7041
28169SOL    HW288424   9.127   6.490   7.798 -0.1551  1.2611 -0.0489
28170SOL     OW88425   4.210   3.892   7.722  0.8058 -0.2418 -0.1002
28170SOL    HW188426   4.286   3.845   7.689  0.7806 -0.3921  0.0578
28170SOL    HW288427   4.196   3.856   7.809  1.1686  0.4896  0.2713
28171SOL     OW88428   8.929   7.565   4.540  0.2072  0.0389  0.1685
28171SOL    HW188429   8.988   7.576   4.466  0.8742 -1.0692  0.5123
28171SOL    HW288430   8.950   7.479   4.575 -1.2776 -0.1737  0.6106
28172SOL     OW88431   5.808   5.493   7.198 -0.2186 -0.0473 -0.4987
28172SOL    HW188432   5.774   5.569   7.244  0.9401 -0.3993  1.0061
28172SOL    HW288433   5.898   5.517   7.175  0.3020 -1.0979  0.3692
28173SOL     OW88434   5.270   1.592   5.644  0.5235 -0.6390 -0.0459
28173SOL    HW188435   5.229   1.596   5.557  0.1447  0.5350  0.1640
28173SOL    HW288436   5.358   1.626   5.629  0.2676  0.1141  0.1245
28174SOL     OW88437   3.032   0.310   8.749 -0.4003 -0.2995 -0.0347
28174SOL    HW188438   3.024   0.348   8.837 -0.8787  0.9862 -0.6177
28174SOL    HW288439   3.024   0.384   8.690  0.3677 -1.0947 -1.1660
28175SOL     OW88440   0.726   4.569   9.497  0.1420  0.2776  0.6597
28175SOL    HW188441   0.734   4.499   9.562  2.3672 -0.4235 -0.2718
28175SOL    HW288442   0.774   4.643   9.535 -0.3905  0.5949  0.7244
28176SOL     OW88443  10.117   1.688   4.572  0.0413 -0.6577 -0.1369
28176SOL    HW188444  10.129   1.638   4.653 -0.0162 -0.0618  0.2471
28176SOL    HW288445  10.042   1.646   4.530  0.7628 -1.6728 -0.4379
28177SOL     OW88446   9.990   7.442   6.488  0.1803 -0.2412 -0.2059
28177SOL    HW188447  10.071   7.486   6.463 -0.4589  0.2367 -1.5188
28177SOL    HW288448   9.979   7.464   6.581  1.4861 -0.2241 -0.0406
28178SOL     OW88449   3.472   3.020   8.811  0.6609  0.3648  0.4050
28178SOL    HW188450   3.517   2.976   8.883 -1.7237  0.9334  2.3783
28178SOL    HW288451   3.470   2.955   8.741  0.5422 -1.3003  1.8923
28179SOL     OW88452   8.006   3.871   5.509  0.2589 -0.3634 -0.1436
28179SOL    HW188453   7.965   3.947   5.552 -1.2269 -1.1773 -0.0830
28179SOL    HW288454   8.100   3.887   5.519 -0.0216  1.2336  0.2876
28180SOL     OW88455   2.387   0.976   5.285 -0.2445  0.5262 -0.3720
28180SOL    HW188456   2.455   0.949   5.223  0.9438  1.5598  0.4324
28180SOL    HW288457   2.430   1.040   5.342 -2.1101  1.7872 -0.3017
28181SOL     OW88458   1.158   7.881   9.511  0.0864 -0.0096 -0.3276
28181SOL    HW188459   1.239   7.905   9.466 -0.2878  0.7067 -0.6467
28181SOL    HW288460   1.102   7.958   9.501 -1.1470 -0.9889 -1.3195
28182SOL     OW88461   3.486   0.863   6.012 -0.0559 -0.7171  0.0393
28182SOL    HW188462   3.414   0.819   6.058  0.1749  1.0407  2.2435
28182SOL    HW288463   3.564   0.815   6.039  0.2162  0.9887  2.5809
28183SOL     OW88464   9.949   4.234   2.244 -0.5900 -0.1267  0.3265
28183SOL    HW188465   9.888   4.173   2.203 -1.0298  1.0890 -0.8946
28183SOL    HW288466   9.933   4.318   2.201  0.9106  0.5694  1.0264
28184SOL     OW88467   2.799   0.433   9.399 -0.0398  0.2098 -0.4570
28184SOL    HW188468   2.770   0.342   9.399 -0.1485  0.1353  2.6848
28184SOL    HW288469   2.888   0.430   9.364 -0.2095 -1.0317 -0.8300
28185SOL     OW88470   6.580   9.568   2.187 -0.0754 -0.4246  0.9774
28185SOL    HW188471   6.575   9.632   2.115  3.1261  1.1021  1.9314
28185SOL    HW288472   6.533   9.610   2.259  1.2624  0.5612  1.3264
28186SOL     OW88473   2.346   8.757   0.594  0.5834 -0.1076 -0.7371
28186SOL    HW188474   2.333   8.680   0.650  1.4974  0.1861 -0.1057
28186SOL    HW288475   2.282   8.746   0.524 -0.2491 -0.7383  0.0947
28187SOL     OW88476   9.550   7.368   2.808 -0.2485 -0.2545 -0.6256
28187SOL    HW188477   9.576   7.457   2.831  0.1690 -0.2349 -1.1508
28187SOL    HW288478   9.460   7.376   2.777 -0.9756 -0.3434  1.3425
28188SOL     OW88479   5.622   3.333   9.529 -0.1249  0.2884  0.1861
28188SOL    HW188480   5.592   3.421   9.504  0.4823  0.4403 -0.0293
28188SOL    HW288481   5.643   3.291   9.446 -2.0068 -0.6766  0.1427
28189SOL     OW88482   6.704   2.253   8.133  0.0922 -0.0508 -0.4372
28189SOL    HW188483   6.642   2.302   8.079 -2.4061 -2.1129  0.3169
28189SOL    HW288484   6.692   2.289   8.221  0.4857  0.0094 -0.4086
28190SOL     OW88485   8.755   9.570   1.051 -0.2794 -0.0689 -0.0319
28190SOL    HW188486   8.798   9.520   0.982 -1.5034  0.2064 -1.0487
28190SOL    HW288487   8.788   9.660   1.039  0.2055 -0.1990  0.3347
28191SOL     OW88488   8.089   0.191   2.048 -0.3861  0.6877  0.5076
28191SOL    HW188489   8.093   0.111   2.101  1.7923  3.0412  4.4026
28191SOL    HW288490   7.996   0.211   2.040 -0.8925 -1.3770  0.7952
28192SOL     OW88491   8.908   1.547   2.502  0.0703  0.2772 -0.3472
28192SOL    HW188492   8.952   1.527   2.584  0.2822 -0.4591 -0.6338
28192SOL    HW288493   8.818   1.566   2.527  0.6053  2.1750  0.2887
28193SOL     OW88494   8.441   9.887   2.345 -0.4973  0.6732 -0.0903
28193SOL    HW188495   8.445   9.911   2.438  0.7299 -0.4402  0.1810
28193SOL    HW288496   8.456   9.793   2.344 -1.8837  0.4391 -1.3432
28194SOL     OW88497   6.671   2.911   8.212  0.0743  0.4452 -0.0985
28194SOL    HW188498   6.688   2.844   8.145 -0.9351  1.2559 -1.2164
28194SOL    HW288499   6.752   2.962   8.214  0.5536 -0.2987  0.1774
28195SOL     OW88500   5.852  10.111   5.916 -0.6733 -0.1586 -0.3941
28195SOL    HW188501   5.926  10.052   5.930  0.4820  1.3973  0.3907
28195SOL    HW288502   5.775  10.058   5.935  0.1640 -1.9855 -1.7643
28196SOL     OW88503   5.093   8.327   9.733 -0.2608 -0.0058  0.0566
28196SOL    HW188504   5.048   8.404   9.699  0.9656  0.6607 -0.0782
28196SOL    HW288505   5.091   8.338   9.828 -0.0820  0.1904  0.0369
28197SOL     OW88506   9.821   8.093   8.375  0.3034 -1.0103  0.4103
28197SOL    HW188507   9.741   8.140   8.352  0.8002 -0.3846 -0.0678
28197SOL    HW288508   9.883   8.116   8.306  0.5503 -2.3994  0.1344
28198SOL     OW88509   2.177   9.424   1.833  0.1098  0.4635 -0.1999
28198SOL    HW188510   2.097   9.440   1.783 -0.8910  0.9357  1.4573
28198SOL    HW288511   2.172   9.331   1.858 -0.5908  0.7924  0.9575
28199SOL     OW88512   9.739   3.607   1.332  0.1030 -0.1728  0.4647
28199SOL    HW188513   9.763   3.588   1.423 -1.9006 -1.1054  0.8530
28199SOL    HW288514   9.658   3.658   1.339 -0.4038 -0.7661 -0.7785
28200SOL     OW88515   6.593   0.433   5.257 -0.0428  0.7456 -0.4470
28200SOL    HW188516   6.619   0.454   5.167 -0.7662 -0.1419 -0.8853
28200SOL    HW288517   6.649   0.487   5.312  1.4817  0.1970 -1.3984
28201SOL     OW88518   3.295   6.776   1.752 -0.0790  0.7252 -0.3853
28201SOL    HW188519   3.213   6.785   1.801 -0.1597  0.6654 -0.5088
28201SOL    HW288520   3.278   6.704   1.691  1.1911 -1.6708  1.8846
28202SOL     OW88521   8.148   6.617   3.828 -0.5301 -0.0193  0.0930
28202SOL    HW188522   8.205   6.666   3.769 -1.0914  1.0538  0.4245
28202SOL    HW288523   8.081   6.580   3.770 -1.2316  1.2475  0.0742
28203SOL     OW88524   9.259   7.079   2.187  0.2726  0.2879  0.1369
28203SOL    HW188525   9.192   7.035   2.134  1.9441 -0.8727 -1.0789
28203SOL    HW288526   9.235   7.171   2.185 -2.4158 -0.2719  1.4041
28204SOL     OW88527   6.879   1.469   0.210  0.4915 -0.0623 -0.2974
28204SOL    HW188528   6.840   1.435   0.130  1.8062  0.9867 -1.4414
28204SOL    HW288529   6.969   1.438   0.208  0.6932  0.4438  0.4928
28205SOL     OW88530   8.171   0.843   1.763 -0.1177 -0.0545 -0.0523
28205SOL    HW188531   8.105   0.893   1.715 -0.0112 -1.8648 -2.2617
28205SOL    HW288532   8.251   0.855   1.713  0.5921 -0.1041  1.0407
28206SOL     OW88533   7.395   9.974  10.034 -0.0783 -0.0559 -0.3106
28206SOL    HW188534   7.362  10.063  10.026 -2.2946 -0.9286 -2.1988
28206SOL    HW288535   7.426   9.952   9.945  0.3454 -1.1933  0.0987
28207SOL     OW88536   0.195   9.336   7.325  0.1794 -1.1074  0.1688
28207SOL    HW188537   0.177   9.270   7.259 -0.6571  0.1708 -0.9210
28207SOL    HW288538   0.132   9.318   7.395 -0.4963 -1.0507 -0.4242
28208SOL     OW88539   5.514   7.666   2.888 -0.0697  0.1409 -0.0113
28208SOL    HW188540   5.480   7.733   2.947 -0.1586 -0.7551  0.9818
28208SOL    HW288541   5.436   7.628   2.848 -0.0619  0.0947  0.0182
28209SOL     OW88542   0.449   0.621   3.693 -0.2947 -0.0787  0.0811
28209SOL    HW188543   0.428   0.604   3.785 -4.4389  2.8551 -0.0419
28209SOL    HW288544   0.509   0.696   3.695 -1.6378  1.0147  0.4551
28210SOL     OW88545   0.737   5.849   7.172 -0.2362  0.2512  0.0272
28210SOL    HW188546   0.777   5.931   7.201 -1.4235  0.5353  0.9583
28210SOL    HW288547   0.678   5.874   7.101 -0.9709  0.2875  0.6427
28211SOL     OW88548  10.206   0.743   4.096  0.1976  0.6568 -0.2705
28211SOL    HW188549  10.225   0.665   4.148  1.0253 -1.2889 -3.2640
28211SOL    HW288550  10.276   0.804   4.119  1.2179 -0.5984  0.0694
28212SOL     OW88551   7.516   6.448   9.607 -0.0032 -0.4065  0.0492
28212SOL    HW188552   7.456   6.415   9.540  3.5750 -2.6664 -2.4242
28212SOL    HW288553   7.498   6.542   9.611 -2.6510 -0.7362 -1.4993
28213SOL     OW88554   3.351   3.992   5.567 -0.1324 -0.0365  0.4600
28213SOL    HW188555   3.269   4.010   5.522  0.9202 -1.3895 -2.1714
28213SOL    HW288556   3.414   4.052   5.528  0.4627 -0.0019  1.4327
28214SOL     OW88557   0.054   2.541   1.473  0.2736 -0.0560  0.0020
28214SOL    HW188558   0.052   2.622   1.525 -1.0476  0.1055 -0.2688
28214SOL    HW288559   0.119   2.487   1.517  0.4391  0.7574  0.7987
28215SOL     OW88560   3.876   6.374   0.856  0.5419 -0.5737  0.1958
28215SOL    HW188561   3.863   6.285   0.888 -0.7915 -0.6116 -0.4038
28215SOL    HW288562   3.861   6.368   0.762  3.9937 -0.3929 -0.5006
28216SOL     OW88563   6.330   0.874   9.806  0.5076 -0.0966 -0.2833
28216SOL    HW188564   6.376   0.922   9.874  0.2792 -0.8718  0.4385
28216SOL    HW288565   6.292   0.942   9.750  0.0147  0.5705  0.8299
28217SOL     OW88566   2.599   0.538   9.161 -0.1047 -0.2149 -0.0140
28217SOL    HW188567   2.543   0.475   9.116  1.0747  0.2118 -2.2221
28217SOL    HW288568   2.676   0.487   9.187 -1.2266 -0.7188  2.6919
28218SOL     OW88569  10.108   9.231   4.343 -0.1921 -0.2423  0.2988
28218SOL    HW188570  10.094   9.183   4.261 -0.3679  1.1431 -0.5127
28218SOL    HW288571  10.181   9.290   4.324  0.6680 -0.8496  1.5855
28219SOL     OW88572   8.148   1.891   0.633  0.0583  0.1204  0.4698
28219SOL    HW188573   8.168   1.983   0.617  2.1553 -0.4267 -0.3903
28219SOL    HW288574   8.232   1.852   0.657 -0.6383 -1.7339  0.0824
28220SOL     OW88575   2.466   0.133   3.629 -0.1731 -0.0713 -0.1031
28220SOL    HW188576   2.440   0.174   3.547 -0.7901  0.8665  0.5495
28220SOL    HW288577   2.560   0.117   3.618 -0.5704 -1.6552 -1.6932
28221SOL     OW88578   8.087   6.205   0.209  0.1915 -0.0424 -0.2539
28221SOL    HW188579   8.134   6.242   0.134  0.5785 -1.5053 -0.7616
28221SOL    HW288580   8.115   6.260   0.283  0.3567  0.9746 -1.0410
28222SOL     OW88581   9.950   3.336   4.182 -0.1359  0.0664  0.4729
28222SOL    HW188582   9.857   3.314   4.177  0.0084 -0.2655 -2.5877
28222SOL    HW288583   9.970   3.335   4.276 -3.8849  3.2718  1.5335
28223SOL     OW88584   1.225   9.374   6.272 -0.1026  0.0533 -0.5314
28223SOL    HW188585   1.238   9.457   6.226 -3.1615  2.0385  1.7111
28223SOL    HW288586   1.137   9.346   6.245  0.3837 -1.8218 -0.2853
28224SOL     OW88587   8.232   9.974   0.731  0.1513 -0.1338  0.0922
28224SOL    HW188588   8.318  10.006   0.704  0.2725 -0.8448 -0.4038
28224SOL    HW288589   8.250   9.889   0.771 -0.3589 -0.4729 -0.3847
28225SOL     OW88590   9.842   0.120   6.190  0.0972 -0.0733  0.1287
28225SOL    HW188591   9.789   0.042   6.201 -2.1453  1.5397  1.6671
28225SOL    HW288592   9.924   0.100   6.237 -0.5698 -1.3516  0.7985
28226SOL     OW88593   7.081   3.861   2.488  0.0723 -0.0357  0.2262
28226SOL    HW188594   7.129   3.827   2.413  0.5392  0.0882  0.4669
28226SOL    HW288595   7.095   3.797   2.557  0.6582  0.4575  0.5722
28227SOL     OW88596   5.497   8.049   9.183  0.0771  0.0121  0.2978
28227SOL    HW188597   5.421   8.094   9.220  0.8863  0.2478  1.7518
28227SOL    HW288598   5.545   8.118   9.136  0.1546  0.1842  0.6271
28228SOL     OW88599   7.624   2.570   4.504 -0.2035 -0.5811 -0.0001
28228SOL    HW188600   7.692   2.630   4.474  0.1060  0.1466  2.0389
28228SOL    HW288601   7.637   2.563   4.599 -2.4713 -1.0532  0.3404
28229SOL     OW88602   2.422   3.805   2.715  0.3099 -0.5371  0.2879
28229SOL    HW188603   2.430   3.723   2.667  1.3534 -1.6715  2.2699
28229SOL    HW288604   2.485   3.864   2.672 -1.2907 -0.3073 -1.8991
28230SOL     OW88605   0.963   2.409   7.393  0.3239  0.1130  0.5587
28230SOL    HW188606   0.923   2.329   7.359  0.7793  0.2183 -0.2538
28230SOL    HW288607   0.903   2.479   7.367  0.8381  0.2323 -0.3650
28231SOL     OW88608   3.970   4.068   0.990  0.3858 -0.1045  0.0921
28231SOL    HW188609   3.924   4.123   0.926  1.2353 -0.1482 -0.5827
28231SOL    HW288610   3.961   3.979   0.956  2.0974  0.0255 -0.8037
28232SOL     OW88611   2.579   9.856   3.688  0.1931 -0.1607 -0.1888
28232SOL    HW188612   2.529   9.779   3.663 -0.5358  0.0059  0.7037
28232SOL    HW288613   2.540   9.928   3.638  0.1769 -0.1865 -0.2126
28233SOL     OW88614   7.934   5.653   3.716 -0.2874  0.4731  0.1948
28233SOL    HW188615   7.876   5.578   3.703 -1.2299  1.2658 -0.3654
28233SOL    HW288616   7.916   5.709   3.640  0.3586  1.2890  0.6392
28234SOL     OW88617   8.848   5.102   1.640 -0.0654  0.3257  0.1015
28234SOL    HW188618   8.929   5.130   1.597  0.3296 -2.5893 -1.3052
28234SOL    HW288619   8.797   5.061   1.570 -1.7525  0.0062  1.4524
28235SOL     OW88620   6.955   6.779   5.438 -0.3651 -0.0245  0.3400
28235SOL    HW188621   7.018   6.806   5.505 -1.0555  3.3216 -0.1605
28235SOL    HW288622   6.970   6.841   5.366 -1.2950 -1.9515 -1.6054
28236SOL     OW88623   6.161   6.576   6.617 -0.4493 -0.1922  0.3306
28236SOL    HW188624   6.237   6.518   6.616 -0.8136 -0.6841  0.7647
28236SOL    HW288625   6.198   6.664   6.605  0.2229 -0.3797  0.9858
28237SOL     OW88626   9.542   6.234   9.286 -0.3994 -0.5363 -0.1043
28237SOL    HW188627   9.609   6.252   9.221 -2.8173 -0.3899 -2.7624
28237SOL    HW288628   9.491   6.315   9.292 -1.0817 -1.0103  0.8945
28238SOL     OW88629   6.304   1.469   6.809 -0.2490  0.4243 -0.0479
28238SOL    HW188630   6.263   1.403   6.754  0.2966  0.7270 -0.8425
28238SOL    HW288631   6.370   1.421   6.860  1.4636  0.5910 -1.9792
28239SOL     OW88632   6.077   3.757   6.811 -0.4323  0.1395  0.1146
28239SOL    HW188633   6.039   3.688   6.865  1.4470 -0.1888  1.1082
28239SOL    HW288634   6.028   3.836   6.833  0.4362  0.0733  2.5845
28240SOL     OW88635   9.986   9.342   7.566  0.2786  0.1895 -0.2264
28240SOL    HW188636   9.913   9.398   7.543  0.8987  1.0331 -0.1698
28240SOL    HW288637  10.004   9.362   7.658  0.0111 -0.6722  0.0278
28241SOL     OW88638  10.122   3.957   0.243 -0.5067  0.1170 -0.0017
28241SOL    HW188639  10.154   3.924   0.159 -1.6101 -2.2968  0.4341
28241SOL    HW288640  10.192   3.935   0.306 -0.5272  0.1076  0.0175
28242SOL     OW88641   4.992   8.208   2.134  0.0695  0.6744 -0.1466
28242SOL    HW188642   4.978   8.301   2.120 -0.4170  0.6875  0.3643
28242SOL    HW288643   5.087   8.199   2.145  0.1939  1.0000 -0.8936
28243SOL     OW88644   8.925   0.165   2.684 -0.6835  0.1041  0.2256
28243SOL    HW188645   8.943   0.072   2.678  1.3092  0.4859 -0.5821
28243SOL    HW288646   8.858   0.182   2.618  0.3588 -0.4537 -0.9990
28244SOL     OW88647   0.633   0.010   2.205 -0.4400  0.3197 -0.2716
28244SOL    HW188648   0.718   0.002   2.247 -0.5218  0.7467 -0.0168
28244SOL    HW288649   0.644  -0.031   2.119  0.1200  0.6772 -0.3768
28245SOL     OW88650   0.731   8.136   1.342  0.3974  0.2097  0.2371
28245SOL    HW188651   0.731   8.067   1.409  1.4843  1.3028  1.4117
28245SOL    HW288652   0.730   8.217   1.392  1.5952  1.0672 -1.0716
28246SOL     OW88653   7.223   3.011   8.232 -0.5404  0.0137 -0.0812
28246SOL    HW188654   7.200   2.960   8.310  1.6419 -0.2678  0.4422
28246SOL    HW288655   7.306   3.053   8.255 -0.8728  1.5459 -1.5506
28247SOL     OW88656   3.800   1.249   3.466  0.4201 -0.4434  0.4335
28247SOL    HW188657   3.866   1.207   3.411  3.5004  0.3927  3.1634
28247SOL    HW288658   3.811   1.209   3.552 -2.6862 -0.2043  1.0585
28248SOL     OW88659   6.554   2.458   7.937  0.3287 -0.5605 -0.1717
28248SOL    HW188660   6.470   2.449   7.982  0.6356  0.1151  0.5636
28248SOL    HW288661   6.542   2.413   7.854 -1.8232  2.1512 -1.5160
28249SOL     OW88662   2.811   7.158   7.252 -0.2165 -0.2509 -0.4070
28249SOL    HW188663   2.736   7.182   7.197  0.1290  0.3418 -0.6200
28249SOL    HW288664   2.783   7.077   7.295 -0.1306 -1.2565 -2.1643
28250SOL     OW88665   7.669   7.425   8.731 -0.3216  0.0983 -0.5628
28250SOL    HW188666   7.592   7.456   8.682 -0.9804 -0.8948 -0.1901
28250SOL    HW288667   7.668   7.330   8.720  0.8186  0.0673 -0.4790
28251SOL     OW88668   7.869   0.408   4.450 -0.3542  0.5028 -0.6756
28251SOL    HW188669   7.846   0.499   4.428 -1.2209  0.0634 -1.6652
28251SOL    HW288670   7.962   0.402   4.431 -0.1677  1.3267 -0.0958
28252SOL     OW88671   4.673   6.565   8.471  0.1785  0.4120  0.2185
28252SOL    HW188672   4.756   6.562   8.519  0.7270 -1.6802 -0.7283
28252SOL    HW288673   4.698   6.566   8.379 -0.8642  1.0557 -0.0755
28253SOL     OW88674   9.433   9.789   3.651 -0.0245  0.7891  0.2103
28253SOL    HW188675   9.499   9.723   3.628 -0.8260  0.1635 -0.3499
28253SOL    HW288676   9.449   9.808   3.744 -0.1039 -0.5826  0.5205
28254SOL     OW88677   6.333   3.599   8.251 -0.1676 -0.0844  0.6195
28254SOL    HW188678   6.296   3.526   8.301 -0.7616  0.8735  1.6295
28254SOL    HW288679   6.261   3.661   8.242  0.3591  0.4260 -0.1210
28255SOL     OW88680   8.794   3.724   1.506 -0.2408 -0.2020  0.3251
28255SOL    HW188681   8.755   3.646   1.467  0.1455 -0.2823  0.0979
28255SOL    HW288682   8.872   3.692   1.551  0.0864  0.0963 -0.0248
28256SOL     OW88683   6.782   8.497   4.028  0.4113  0.1959 -0.4808
28256SOL    HW188684   6.753   8.588   4.016  1.2006  0.5453  0.2044
28256SOL    HW288685   6.832   8.498   4.110  0.2344 -0.9084 -0.3420
28257SOL     OW88686   9.232   4.847   5.041  0.0682  0.0973  0.2179
28257SOL    HW188687   9.317   4.811   5.016  1.2556  0.7428  2.9855
28257SOL    HW288688   9.226   4.930   4.993  1.1211  0.1707  0.1823
28258SOL     OW88689   6.766   5.756   0.566 -0.6562  0.1415  0.1744
28258SOL    HW188690   6.722   5.729   0.485  0.1630  1.5490 -0.7807
28258SOL    HW288691   6.706   5.821   0.604  0.7955  2.6964 -1.5557
28259SOL     OW88692   3.874   9.807   5.412  0.4164 -0.1030  0.8027
28259SOL    HW188693   3.837   9.723   5.436 -1.0309  0.9294  2.4634
28259SOL    HW288694   3.969   9.795   5.420  0.3285 -1.9348 -0.4322
28260SOL     OW88695   0.491   9.074   0.927  0.5785  0.4036 -0.5921
28260SOL    HW188696   0.440   9.155   0.923 -0.5660 -0.2977 -0.6223
28260SOL    HW288697   0.549   9.079   0.851  0.7250  1.3227 -0.4329
28261SOL     OW88698   9.849   7.922   7.234 -0.2126 -0.1705 -0.1694
28261SOL    HW188699   9.831   8.009   7.269  0.1137  0.4133 -1.4094
28261SOL    HW288700   9.863   7.868   7.312  0.3864  1.0631  0.6225
28262SOL     OW88701   4.917   4.969   5.022  0.2642  0.6374  0.5844
28262SOL    HW188702   4.926   5.064   5.011  1.5478  0.4429 -0.2312
28262SOL    HW288703   5.005   4.940   5.047 -0.1198 -0.3523  0.8268
28263SOL     OW88704   7.098   1.191   6.791  0.2116  0.1061 -0.5522
28263SOL    HW188705   7.128   1.252   6.724  0.9584 -0.8194 -1.0740
28263SOL    HW288706   7.007   1.172   6.767  0.0627  0.7872 -0.5428
28264SOL     OW88707   9.993   8.530   5.174 -0.0108  0.4807  0.1709
28264SOL    HW188708  10.064   8.556   5.233 -1.4281  1.2364  1.6189
28264SOL    HW288709   9.967   8.611   5.130 -1.6080  0.7541  1.5269
28265SOL     OW88710   9.000   1.844   8.049  0.3549  0.0618  0.0442
28265SOL    HW188711   8.926   1.895   8.081  0.7588  0.7635 -0.1313
28265SOL    HW288712   8.965   1.796   7.974  0.0296  0.2268  0.0876
28266SOL     OW88713   9.860   4.461   0.164  0.4721  0.5560 -0.4224
28266SOL    HW188714   9.780   4.410   0.149  0.3126 -0.9139  4.0129
28266SOL    HW288715   9.908   4.454   0.082 -3.0776  0.0192 -2.6973
28267SOL     OW88716   4.445   0.154   0.673 -0.1812 -0.3290  0.0373
28267SOL    HW188717   4.360   0.187   0.703 -0.8503 -0.0904 -1.9894
28267SOL    HW288718   4.424   0.099   0.597  1.4676 -0.4423 -0.3751
28268SOL     OW88719   9.282   0.251   4.627  0.4152  0.0275 -0.8706
28268SOL    HW188720   9.203   0.242   4.574  0.7608 -0.4410 -1.3128
28268SOL    HW288721   9.285   0.171   4.680 -0.9716  1.3191  1.3204
28269SOL     OW88722   7.816   8.897   9.803  0.0134  0.4252 -0.1586
28269SOL    HW188723   7.758   8.852   9.864 -1.7123  1.1792 -1.1661
28269SOL    HW288724   7.876   8.830   9.773  0.8666 -0.0006  2.2312
28270SOL     OW88725   6.756   0.490   1.000  0.1007 -0.7035  0.0164
28270SOL    HW188726   6.847   0.481   0.971  0.2016 -1.1554  0.4430
28270SOL    HW288727   6.704   0.480   0.921  0.4380  0.0570 -0.3140
28271SOL     OW88728   5.943   3.911   1.086 -0.2873  0.2045 -0.3017
28271SOL    HW188729   5.882   3.837   1.091  0.1018 -0.0738  0.4085
28271SOL    HW288730   5.999   3.901   1.162  0.0796  0.9674 -0.4652
28272SOL     OW88731   2.660   9.588   8.062  0.2729 -0.2829  0.3641
28272SOL    HW188732   2.723   9.603   7.992  0.9063 -2.3342  0.4422
28272SOL    HW288733   2.588   9.647   8.042  0.8006 -0.2280 -1.5452
28273SOL     OW88734   9.771   1.302   5.815  0.4484 -0.2222 -0.0705
28273SOL    HW188735   9.822   1.351   5.750 -0.8055 -1.2853 -1.9731
28273SOL    HW288736   9.760   1.215   5.776 -2.1397 -0.2599  0.5573
28274SOL     OW88737   8.049   7.505   9.302 -0.2317 -0.1087 -0.0202
28274SOL    HW188738   8.081   7.510   9.212 -1.4400 -1.9325 -0.6140
28274SOL    HW288739   7.974   7.565   9.305 -0.9654 -0.9638 -0.6297
28275SOL     OW88740   3.084   7.694   4.726  0.8827 -0.4697 -0.1664
28275SOL    HW188741   3.052   7.728   4.642  0.9874  0.7972  0.2824
28275SOL    HW288742   3.028   7.737   4.791  1.3229 -0.8320  0.4532
28276SOL     OW88743   4.911   5.721   9.659  0.3510  0.2771  0.1683
28276SOL    HW188744   4.907   5.807   9.702 -1.1168 -0.1661  0.9799
28276SOL    HW288745   4.832   5.717   9.606  1.0364 -0.0998 -0.8557
28277SOL     OW88746   5.473   1.319   7.964  0.2755 -0.0341 -0.4941
28277SOL    HW188747   5.454   1.251   8.029 -0.7365  2.3498  1.9413
28277SOL    HW288748   5.386   1.347   7.934  0.6402  0.5134 -1.0410
28278SOL     OW88749   7.007   6.433   7.140  0.3519  0.0834 -0.4079
28278SOL    HW188750   7.074   6.405   7.202  1.1459 -0.2258 -1.3813
28278SOL    HW288751   7.055   6.478   7.071 -0.5478  0.6754 -0.6675
28279SOL     OW88752   9.082   6.121   1.504  0.2258  0.2401  0.3954
28279SOL    HW188753   9.074   6.212   1.473 -0.4649 -0.3396 -1.2347
28279SOL    HW288754   9.074   6.128   1.599 -1.4180  1.7318  0.2152
28280SOL     OW88755   4.250   3.230   2.608  0.2941 -0.0449  0.1477
28280SOL    HW188756   4.308   3.260   2.539  0.1811  0.5076  0.2925
28280SOL    HW288757   4.264   3.291   2.681 -1.5466  1.0381 -0.3390
28281SOL     OW88758   8.662   9.367   2.533  0.3557  0.3028 -0.4204
28281SOL    HW188759   8.601   9.310   2.580  0.6051 -1.2008 -1.8268
28281SOL    HW288760   8.640   9.456   2.563  0.9391 -0.5788  2.9580
28282SOL     OW88761   9.638   2.694   7.598 -0.2654  0.1438 -0.3159
28282SOL    HW188762   9.652   2.786   7.617  1.1813 -0.2637  0.7847
28282SOL    HW288763   9.613   2.692   7.505  0.0409  1.5913 -0.4514
28283SOL     OW88764   8.298   4.123   6.421 -0.1610 -0.2215 -0.3326
28283SOL    HW188765   8.364   4.175   6.466  0.1042 -0.3686 -0.5492
28283SOL    HW288766   8.348   4.060   6.369 -0.4525 -0.0284 -0.8670
28284SOL     OW88767   8.572   3.903   4.797  0.1462 -0.3015 -0.0479
28284SOL    HW188768   8.607   3.992   4.805  1.5405 -0.8382  0.0508
28284SOL    HW288769   8.477   3.914   4.806  0.3619  1.0650  0.9545
28285SOL     OW88770   7.232   9.069   7.956  0.1482  0.0356  0.6956
28285SOL    HW188771   7.179   9.027   8.025  2.0111 -0.8782  1.6518
28285SOL    HW288772   7.236   9.005   7.886  0.5822 -0.2129  0.9411
28286SOL     OW88773   6.862   9.450   6.054 -0.1685  0.2730 -0.8609
28286SOL    HW188774   6.888   9.362   6.027 -1.3851 -0.3803  0.0259
28286SOL    HW288775   6.898   9.507   5.986  0.4282 -0.9239 -1.5833
28287SOL     OW88776   6.204   8.094   8.597 -0.8552 -0.1368 -0.2472
28287SOL    HW188777   6.113   8.097   8.569 -0.1702 -1.9856 -3.1155
28287SOL    HW288778   6.244   8.026   8.543  2.1248  0.1967  1.2963
28288SOL     OW88779   8.987   9.289   4.387 -0.1103  0.2308  0.0890
28288SOL    HW188780   8.917   9.227   4.409  0.2140 -1.0875 -2.2892
28288SOL    HW288781   9.066   9.235   4.381  0.6072  1.2469  0.0621
28289SOL     OW88782   4.935   2.496   3.574 -0.1202  0.9238 -0.2764
28289SOL    HW188783   4.978   2.421   3.614 -0.0801  0.1881 -1.6459
28289SOL    HW288784   4.885   2.536   3.646  0.3538 -0.0308  0.6158
28290SOL     OW88785   7.467   2.369   5.935 -0.7372  0.2140 -0.4473
28290SOL    HW188786   7.416   2.328   6.005  0.4393 -0.5443 -0.0052
28290SOL    HW288787   7.507   2.296   5.888 -1.1069  0.7337 -1.6236
28291SOL     OW88788   5.385   2.819   0.447  0.1411  0.1716  0.5075
28291SOL    HW188789   5.413   2.816   0.355 -0.8432  0.7802  0.1635
28291SOL    HW288790   5.459   2.856   0.494  1.2185 -1.5142  0.2028
28292SOL     OW88791   1.691   4.141   0.038  0.4204  0.7338  0.3724
28292SOL    HW188792   1.739   4.177  -0.036  0.1230  1.0929  0.3551
28292SOL    HW288793   1.703   4.046   0.030  1.8519  0.8450  0.8504
28293SOL     OW88794   6.624   9.476   1.548  1.0510 -0.0247  0.1879
28293SOL    HW188795   6.543   9.460   1.597  0.6255 -2.2321 -1.0659
28293SOL    HW288796   6.631   9.571   1.543 -2.3986  0.3082 -1.0331
28294SOL     OW88797   2.645   4.169   4.810 -0.1355 -0.0192 -0.4034
28294SOL    HW188798   2.613   4.146   4.897  0.4621 -1.4425 -0.5279
28294SOL    HW288799   2.627   4.263   4.801 -1.1570 -0.0748  0.8298
28295SOL     OW88800   6.053   1.762   1.870 -0.3373 -0.6142 -0.4840
28295SOL    HW188801   6.018   1.813   1.796  0.7197  0.8076 -0.0601
28295SOL    HW288802   6.148   1.773   1.863 -0.2126 -0.5993  0.9904
28296SOL     OW88803   1.165   9.817   2.445  0.0293  0.0425  0.5221
28296SOL    HW188804   1.080   9.774   2.435  0.0423  0.4103 -1.6619
28296SOL    HW288805   1.229   9.752   2.419  0.2119  0.5631 -0.3856
28297SOL     OW88806   8.562   6.623   8.230 -0.4101  0.5176  0.2897
28297SOL    HW188807   8.499   6.592   8.165  1.2578 -0.9489 -0.7312
28297SOL    HW288808   8.555   6.719   8.227 -1.4028  0.4281 -0.9870
28298SOL     OW88809   7.262   2.767   1.449 -0.0416 -0.1619 -0.7051
28298SOL    HW188810   7.218   2.841   1.492  0.8807 -1.3930  2.6077
28298SOL    HW288811   7.190   2.715   1.412 -0.8494  1.1724 -1.0803
28299SOL     OW88812   4.651   3.585   8.243  0.0730 -0.4439 -0.4708
28299SOL    HW188813   4.629   3.508   8.295  0.0065  1.0792  1.8704
28299SOL    HW288814   4.566   3.619   8.213 -0.1221  0.2392  0.8127
28300SOL     OW88815   5.737   8.935   8.725 -0.0232 -0.1713  0.0803
28300SOL    HW188816   5.769   9.009   8.673  0.2400  1.4092  2.3281
28300SOL    HW288817   5.806   8.869   8.718  0.2516  0.2182 -1.0873
28301SOL     OW88818   2.761   4.126   6.579  0.3533  0.0267  0.4372
28301SOL    HW188819   2.753   4.103   6.671 -2.4868  0.2845  0.3517
28301SOL    HW288820   2.717   4.211   6.571  2.4867  1.1088 -0.8269
28302SOL     OW88821   7.904   6.980   9.165  0.1981 -0.1156 -0.0441
28302SOL    HW188822   7.998   6.979   9.187  0.4819 -2.3917 -1.0746
28302SOL    HW288823   7.902   6.997   9.071 -0.5181  0.8823  0.1361
28303SOL     OW88824   6.240   9.220   7.973 -0.2235 -0.0806  0.1215
28303SOL    HW188825   6.267   9.194   7.885 -1.0996 -1.6486  0.2714
28303SOL    HW288826   6.145   9.209   7.974 -0.1701 -0.7180  1.4327
28304SOL     OW88827   7.531   9.962   9.237 -0.3279  0.0354  0.1235
28304SOL    HW188828   7.447   9.922   9.214  0.1710  1.0300 -4.0871
28304SOL    HW288829   7.540  10.035   9.177  2.4748  1.5741  2.1746
28305SOL     OW88830   1.273   3.965   9.749  0.0666 -0.0727  0.2426
28305SOL    HW188831   1.256   4.058   9.764  0.0874 -0.2471  1.4029
28305SOL    HW288832   1.190   3.922   9.773  0.7880 -0.5553  2.0136
28306SOL     OW88833   7.632   0.552   2.947 -0.0898  0.4485  0.2150
28306SOL    HW188834   7.549   0.508   2.925  0.0258  0.2400  0.1873
28306SOL    HW288835   7.628   0.635   2.901 -0.7861  0.9358  1.1245
28307SOL     OW88836   2.750   8.062   7.228  0.1669 -0.1142  0.4078
28307SOL    HW188837   2.712   8.134   7.278  0.1184 -0.4811  0.9031
28307SOL    HW288838   2.839   8.090   7.209 -0.4571  0.9519 -1.1444
28308SOL     OW88839   2.993   2.012   0.329 -0.0383 -0.1947  0.1462
28308SOL    HW188840   2.963   2.088   0.379 -0.5488 -0.8905  0.9302
28308SOL    HW288841   2.920   1.991   0.272  0.8841  1.1652 -1.6329
28309SOL     OW88842   0.749   4.109   3.426 -0.1969  0.1819  0.3946
28309SOL    HW188843   0.664   4.069   3.447 -0.4896  0.4207 -0.3413
28309SOL    HW288844   0.807   4.034   3.410 -0.4219  0.0347  0.2737
28310SOL     OW88845   2.365   4.134   1.774 -0.4926  0.1932 -0.0346
28310SOL    HW188846   2.340   4.215   1.819 -1.0194 -1.4998  2.9557
28310SOL    HW288847   2.286   4.106   1.729 -0.1015  1.6562 -1.7416
28311SOL     OW88848   8.985   6.498   3.825  0.3729 -0.2021  0.2504
28311SOL    HW188849   8.936   6.464   3.901  0.3487  1.2426  0.9171
28311SOL    HW288850   8.955   6.589   3.817 -0.7854 -0.7273 -2.4645
28312SOL     OW88851   9.986   0.460   4.258 -0.4903  0.5466  0.0656
28312SOL    HW188852   9.912   0.484   4.203  1.0509  2.3799 -1.2943
28312SOL    HW288853  10.049   0.418   4.199  0.2237  0.3985  0.8915
28313SOL     OW88854   1.595   5.069   6.172  0.0077  0.2183  0.8880
28313SOL    HW188855   1.683   5.099   6.149 -0.0982  1.8844  2.3951
28313SOL    HW288856   1.560   5.033   6.090  2.7753 -2.4788  0.7089
28314SOL     OW88857   2.964   8.645   9.234  0.4827  0.1523 -0.2989
28314SOL    HW188858   3.014   8.727   9.230  1.0869 -0.0678  1.6754
28314SOL    HW288859   2.880   8.671   9.272  0.7510 -0.1568  0.5221
28315SOL     OW88860   8.331   7.045   7.045 -0.3899 -0.1925  0.0997
28315SOL    HW188861   8.340   7.135   7.012 -0.1428 -0.0992  0.4183
28315SOL    HW288862   8.416   7.024   7.082 -0.2605 -0.7755 -0.4999
28316SOL     OW88863   7.911   5.780   5.187 -0.4516 -0.3491 -0.2981
28316SOL    HW188864   7.955   5.842   5.130  0.9535 -1.5414 -0.5664
28316SOL    HW288865   7.978   5.752   5.249 -0.7754 -2.2153 -0.7145
28317SOL     OW88866   7.864   5.794   4.444  0.6676 -0.2366  0.6329
28317SOL    HW188867   7.883   5.785   4.351  2.5718 -0.9711  1.0464
28317SOL    HW288868   7.813   5.717   4.466  1.8512 -1.0669  0.5563
28318SOL     OW88869   2.033   2.395   5.669  0.6162  0.0563 -0.3535
28318SOL    HW188870   1.989   2.343   5.601  0.3372 -0.1275 -0.0394
28318SOL    HW288871   2.114   2.425   5.629 -0.4223  1.5817 -1.4374
28319SOL     OW88872   0.179   2.930   3.627  0.1140 -0.9577  0.1978
28319SOL    HW188873   0.242   2.952   3.558 -1.0913  0.7962 -0.4125
28319SOL    HW288874   0.112   2.998   3.620 -1.4253 -2.2945  1.3614
28320SOL     OW88875   6.974   3.859   4.655  0.0140  1.0016  0.5396
28320SOL    HW188876   7.025   3.870   4.735  3.3547 -0.1831 -1.1951
28320SOL    HW288877   7.027   3.799   4.602 -3.2944 -0.3584 -1.5418
28321SOL     OW88878   7.783   6.503   4.315  0.2031  0.0591 -0.1223
28321SOL    HW188879   7.801   6.452   4.235  0.4704  1.3626 -0.9207
28321SOL    HW288880   7.866   6.545   4.335  0.0777 -0.1004  0.7371
28322SOL     OW88881   2.210   2.783   9.760  0.4239 -0.5770  0.3759
28322SOL    HW188882   2.271   2.727   9.712  1.6134  2.4864 -2.0540
28322SOL    HW288883   2.264   2.856   9.790 -1.0837 -0.4839  3.1742
28323SOL     OW88884   7.444   0.945   1.378 -0.0841  0.5561 -0.3022
28323SOL    HW188885   7.539   0.928   1.377 -0.1416  0.1255  0.6127
28323SOL    HW288886   7.405   0.861   1.357 -0.2813  0.3958  0.6335
28324SOL     OW88887   1.230   1.138   2.411 -0.1362 -0.2942  0.4529
28324SOL    HW188888   1.264   1.067   2.357  0.1450 -0.0171  0.2660
28324SOL    HW288889   1.284   1.214   2.389  1.5819 -0.7099  2.8501
28325SOL     OW88890   2.270   0.732   7.374  0.0189  0.0446 -0.5929
28325SOL    HW188891   2.205   0.800   7.356 -2.1090 -1.6733  0.3000
28325SOL    HW288892   2.339   0.748   7.309 -1.0272  2.2141 -1.2670
28326SOL     OW88893  10.042   2.134   3.023  0.2240 -0.3761  0.0492
28326SOL    HW188894   9.974   2.196   2.996  0.8199  0.6447  0.8253
28326SOL    HW288895   9.994   2.066   3.070 -0.2962  0.2288  0.4164
28327SOL     OW88896   2.496   5.106   4.592 -0.2221  0.0680 -0.3839
28327SOL    HW188897   2.463   5.162   4.522 -0.7088  0.7797  0.3914
28327SOL    HW288898   2.571   5.154   4.627 -1.5344  1.0330  1.2748
28328SOL     OW88899   1.320   2.704   6.610 -0.3209 -0.6049 -0.0682
28328SOL    HW188900   1.274   2.767   6.554 -1.3335 -0.5188  0.8207
28328SOL    HW288901   1.256   2.682   6.678  0.9537 -0.4855  1.2165
28329SOL     OW88902   0.078   1.055   0.558 -0.5077 -0.1216 -0.5917
28329SOL    HW188903   0.154   1.011   0.521  0.0881 -0.3843  0.8597
28329SOL    HW288904   0.040   1.104   0.485 -0.0143 -1.4393 -1.7703
28330SOL     OW88905   5.444   3.148   5.389  0.6709  0.4153 -0.3145
28330SOL    HW188906   5.361   3.115   5.424  0.1270  0.7059 -1.2901
28330SOL    HW288907   5.468   3.218   5.450 -0.4416  1.1533 -0.6851
28331SOL     OW88908   4.253   7.417   2.616  0.9192 -0.1897  0.0402
28331SOL    HW188909   4.172   7.463   2.594  0.1335 -1.4032  0.3212
28331SOL    HW288910   4.323   7.476   2.587 -0.0637  0.2838 -1.4347
28332SOL     OW88911   1.248   5.086   5.758  0.8943 -0.6083 -0.3523
28332SOL    HW188912   1.200   5.090   5.841  1.2916 -0.8018 -0.1112
28332SOL    HW288913   1.331   5.045   5.780  1.8694  1.2576 -0.4548
28333SOL     OW88914   3.309   5.625   0.593  0.3423  0.1202 -0.3575
28333SOL    HW188915   3.335   5.559   0.529  0.7443  0.6793 -0.7807
28333SOL    HW288916   3.388   5.643   0.643  0.1955  0.1671 -0.1415
28334SOL     OW88917   2.161   8.310   2.982 -0.1970  0.6609  0.0280
28334SOL    HW188918   2.165   8.231   3.037  2.4079  1.6133  1.3591
28334SOL    HW288919   2.219   8.292   2.909 -2.3401  0.0672 -1.6242
28335SOL     OW88920   9.864   3.124   6.537  0.4730 -0.1685 -0.4790
28335SOL    HW188921   9.912   3.043   6.519  2.7039  1.0262 -0.2897
28335SOL    HW288922   9.862   3.170   6.453 -0.7779 -0.3822 -0.5878
28336SOL     OW88923   3.403   8.657   3.125 -0.6691 -0.1087  0.3940
28336SOL    HW188924   3.313   8.666   3.156 -0.3878  1.6142  0.8286
28336SOL    HW288925   3.454   8.715   3.183  0.4643  0.1684 -0.8278
28337SOL     OW88926   6.010   5.316   5.840 -0.9650 -0.0218  0.0778
28337SOL    HW188927   5.982   5.348   5.754  1.4495 -1.9140 -1.5606
28337SOL    HW288928   6.097   5.280   5.824 -0.8920 -1.4474  3.1292
28338SOL     OW88929   2.482   5.745   8.116 -0.0228  0.3570  0.6820
28338SOL    HW188930   2.541   5.808   8.073  1.1159 -1.5192 -0.6408
28338SOL    HW288931   2.525   5.726   8.200  0.4741  0.1356  0.3811
28339SOL     OW88932   2.726   9.801   8.379  0.6401 -0.3698 -0.0517
28339SOL    HW188933   2.676   9.834   8.453 -0.2103 -1.4042 -0.1519
28339SOL    HW288934   2.703   9.708   8.373 -0.7877  0.0844 -2.7709
28340SOL     OW88935   1.848   1.952   6.037  0.3219  0.3609 -0.4354
28340SOL    HW188936   1.879   2.042   6.046 -0.0838  0.2715  2.8287
28340SOL    HW288937   1.753   1.958   6.042  0.3315 -0.3142  1.8595
28341SOL     OW88938   3.990   6.705  10.205 -0.1626  0.2084  0.2307
28341SOL    HW188939   4.008   6.739  10.293  1.0538  0.1430  0.0275
28341SOL    HW288940   3.894   6.705  10.198 -0.2356  1.7369  0.9510
28342SOL     OW88941   2.993   5.076   9.876 -0.2379 -0.4524 -0.3725
28342SOL    HW188942   3.071   5.072   9.931 -0.5277 -2.2426 -0.0449
28342SOL    HW288943   2.950   5.158   9.903  1.1526  0.2251 -0.0958
28343SOL     OW88944   9.345   6.959   2.560 -0.4357  0.7968 -0.0364
28343SOL    HW188945   9.308   6.967   2.649 -0.0098 -0.3220  0.2521
28343SOL    HW288946   9.384   7.045   2.543  0.3544  0.7267  1.2635
28344SOL     OW88947   3.157   0.189   4.077  0.0211  0.0625  0.3101
28344SOL    HW188948   3.189   0.137   4.151  2.7642  1.4774  0.2541
28344SOL    HW288949   3.225   0.255   4.064 -1.9067  1.8204 -1.4887
28345SOL     OW88950   4.917   1.923  10.183 -0.6149 -0.0691  0.2669
28345SOL    HW188951   5.006   1.890  10.170  0.1843  1.9067  0.3312
28345SOL    HW288952   4.876   1.917  10.096 -0.7298 -1.7283  0.4042
28346SOL     OW88953   5.969   4.313   3.383 -0.3119 -0.1980 -0.3893
28346SOL    HW188954   5.978   4.401   3.346  2.6416 -0.4590 -0.4839
28346SOL    HW288955   6.048   4.267   3.355  0.3374 -1.5529  3.1725
28347SOL     OW88956   2.152   5.288   2.766 -0.3975  0.2621  0.3632
28347SOL    HW188957   2.178   5.199   2.744  0.3447 -0.1139  2.4982
28347SOL    HW288958   2.073   5.278   2.819 -1.3986  1.0155 -0.9505
28348SOL     OW88959   7.322   0.772   7.346 -0.3963 -0.1951 -0.1124
28348SOL    HW188960   7.414   0.773   7.318 -0.8403 -0.9472 -1.7303
28348SOL    HW288961   7.273   0.759   7.266 -1.6910 -4.1713  1.0544
28349SOL     OW88962   1.928   1.458   2.157 -0.3407  0.6595  0.2679
28349SOL    HW188963   1.968   1.545   2.150  1.2334 -0.1494 -2.1019
28349SOL    HW288964   1.992   1.406   2.206 -0.5527  0.4447  0.3187
28350SOL     OW88965   8.936   0.147   3.894 -0.3575 -0.2873 -0.3112
28350SOL    HW188966   8.895   0.215   3.840 -1.7083  0.4540  1.5448
28350SOL    HW288967   8.879   0.071   3.884 -0.0363 -0.4792 -0.7114
28351SOL     OW88968   2.531   6.962   0.895  0.1627  0.6386 -0.0962
28351SOL    HW188969   2.501   7.051   0.916  1.1950  1.2063 -0.8915
28351SOL    HW288970   2.619   6.958   0.933  0.4699  0.2825 -0.8306
28352SOL     OW88971  10.107   8.148   5.339 -0.2813  0.0627  0.2713
28352SOL    HW188972  10.029   8.184   5.296  0.3413  0.3666 -0.6547
28352SOL    HW288973  10.099   8.175   5.430 -2.0878 -1.3545  0.5734
28353SOL     OW88974   6.617   4.962   3.001  0.1120  0.3843 -0.1211
28353SOL    HW188975   6.707   4.932   2.989 -0.0009 -0.3930  0.8629
28353SOL    HW288976   6.587   4.917   3.079 -0.4211  2.2898  0.8317
28354SOL     OW88977   1.571   0.773   0.856  0.3686 -0.3553  0.0350
28354SOL    HW188978   1.512   0.699   0.868 -0.1613  0.0615  0.0743
28354SOL    HW288979   1.622   0.778   0.937  0.1128 -0.4244  0.2006
28355SOL     OW88980   3.735   3.948   3.401  0.4204  0.3101 -0.5466
28355SOL    HW188981   3.653   3.983   3.366 -0.2093 -0.6957 -0.1158
28355SOL    HW288982   3.737   3.980   3.491  1.6810  2.2867 -1.2107
28356SOL     OW88983   3.823   5.080   9.060 -0.4751  0.4261  0.0977
28356SOL    HW188984   3.762   5.126   9.117 -0.0531  1.0167  0.0795
28356SOL    HW288985   3.855   5.147   8.999 -1.4039 -0.3191 -1.2716
28357SOL     OW88986   6.048   5.930   0.532  0.9768 -0.7550  0.7156
28357SOL    HW188987   5.986   5.881   0.478 -1.0301  0.1565  2.0629
28357SOL    HW288988   6.030   6.022   0.511 -0.1967 -0.3462  3.1636
28358SOL     OW88989   1.364   9.222   2.316  0.5035 -0.0480 -0.3465
28358SOL    HW188990   1.275   9.185   2.321  0.8545 -0.8947 -0.1835
28358SOL    HW288991   1.381   9.230   2.223  0.1838  0.3062 -0.3783
28359SOL     OW88992   1.014   6.794   3.658 -0.3323  0.1503 -0.5504
28359SOL    HW188993   1.079   6.860   3.635  0.0806 -0.0033  0.1408
28359SOL    HW288994   0.994   6.811   3.750 -2.1635  0.9445 -1.0560
28360SOL     OW88995   2.041   6.602   7.622  0.5941 -0.2356 -0.1726
28360SOL    HW188996   2.063   6.687   7.659  0.3042 -0.0989 -0.3154
28360SOL    HW288997   1.948   6.592   7.638  0.5519 -0.3635 -0.4873
28361SOL     OW88998   0.200   9.454   4.685  0.0223 -0.1332  0.0535
28361SOL    HW188999   0.261   9.405   4.628  0.4931 -0.6632  0.9917
28361SOL    HW289000   0.218   9.546   4.665 -0.5655 -0.3068 -1.4177
28362SOL     OW89001   9.074   0.930   2.377  0.1615 -0.0793  0.0772
28362SOL    HW189002   9.067   0.842   2.340 -0.1456  0.1813 -0.5037
28362SOL    HW289003   8.999   0.937   2.436  0.5475 -0.4337  0.6082
28363SOL     OW89004   1.141   0.318   7.483  0.6159 -0.1151  0.3159
28363SOL    HW189005   1.162   0.404   7.447 -1.2325 -0.8773 -2.9811
28363SOL    HW289006   1.068   0.335   7.543  0.0886  0.5864 -0.5091
28364SOL     OW89007   2.930   3.070   9.197 -0.1606 -0.4375  0.0520
28364SOL    HW189008   2.915   2.996   9.256 -0.5302 -0.0431  0.4552
28364SOL    HW289009   2.972   3.136   9.251 -1.5188  0.3632  0.1844
28365SOL     OW89010   0.103   5.795   4.822 -0.2561 -0.0392 -0.6339
28365SOL    HW189011   0.144   5.833   4.900  0.2605 -2.4137  0.3600
28365SOL    HW289012   0.059   5.716   4.854 -2.7783  0.5951 -2.2655
28366SOL     OW89013   2.795   8.271   7.967 -0.4748 -0.7232 -0.3715
28366SOL    HW189014   2.721   8.220   8.000 -0.1394 -0.8839  0.1494
28366SOL    HW289015   2.756   8.335   7.908 -1.3141  0.7003  1.6359
28367SOL     OW89016   2.179   7.044   2.523 -0.2723  0.1354 -0.4778
28367SOL    HW189017   2.207   7.120   2.473 -2.2069  1.1339 -0.1585
28367SOL    HW289018   2.227   7.050   2.605  0.5809  0.2488 -0.9759
28368SOL     OW89019   8.041   7.565   3.396  0.5575 -0.0845  0.7120
28368SOL    HW189020   8.005   7.572   3.484 -0.0642 -0.6419  0.5070
28368SOL    HW289021   8.065   7.655   3.373  2.5486 -0.1563  2.1864
28369SOL     OW89022   5.220   5.995   1.691  0.3491  0.2746 -0.2534
28369SOL    HW189023   5.239   5.916   1.742  0.7315  0.7968  0.4262
28369SOL    HW289024   5.210   5.963   1.601 -1.0174 -0.7560  0.2279
28370SOL     OW89025   0.730   5.715   1.558  0.5941  0.0093 -0.1237
28370SOL    HW189026   0.789   5.752   1.623 -0.9358  0.8540  0.8442
28370SOL    HW289027   0.739   5.773   1.482  1.4349 -0.2278 -0.2156
28371SOL     OW89028   6.334   1.538   2.370 -0.4354 -0.5654 -0.0340
28371SOL    HW189029   6.268   1.582   2.424 -0.3315 -0.7830  0.2727
28371SOL    HW289030   6.304   1.552   2.280 -0.3650  0.1885  0.0523
28372SOL     OW89031   4.020   1.703   2.500 -0.3963  0.3027  0.0328
28372SOL    HW189032   4.053   1.671   2.585  0.7300 -1.3290 -0.9598
28372SOL    HW289033   3.931   1.669   2.495 -0.4053  0.2481  0.4955
28373SOL     OW89034   2.392   3.877   3.486  0.1683  0.4191  0.0368
28373SOL    HW189035   2.311   3.923   3.463 -0.4607 -0.5776  0.1985
28373SOL    HW289036   2.425   3.842   3.404  0.4069  0.7756 -0.0203
28374SOL     OW89037   1.922   9.420  10.106 -0.3108 -0.1883 -0.6096
28374SOL    HW189038   1.981   9.346  10.102 -0.6965 -0.4747 -1.0730
28374SOL    HW289039   1.969   9.486  10.157  0.8393 -0.0092 -1.8597
28375SOL     OW89040   7.458   0.543   3.212 -0.6979 -0.3673 -0.4432
28375SOL    HW189041   7.540   0.518   3.170  0.9374 -0.6906  2.7008
28375SOL    HW289042   7.446   0.635   3.188  0.3669 -0.4156 -1.2440
28376SOL     OW89043   9.030   2.680   7.392 -0.2610 -0.3358 -0.1783
28376SOL    HW189044   8.982   2.668   7.310 -2.2990 -1.0924  1.0348
28376SOL    HW289045   9.060   2.592   7.415 -0.0038 -0.1893  0.0477
28377SOL     OW89046   8.801   1.322   3.964 -0.2946  0.1175 -0.3095
28377SOL    HW189047   8.857   1.398   3.977 -0.0965 -0.1893  0.7107
28377SOL    HW289048   8.819   1.265   4.039 -1.6082 -0.2161 -0.2170
28378SOL     OW89049   5.952   1.174   6.252  0.0044 -0.4591  0.4170
28378SOL    HW189050   5.859   1.197   6.258 -0.1816 -0.7819 -0.7856
28378SOL    HW289051   5.996   1.236   6.310 -1.0994 -1.3264  2.2519
28379SOL     OW89052   1.684   8.041   2.373 -0.4554  0.2216 -0.1046
28379SOL    HW189053   1.700   7.958   2.328 -0.4683  0.0112  0.2811
28379SOL    HW289054   1.659   8.101   2.303  0.6272  0.1881 -0.5418
28380SOL     OW89055   9.452   0.727   7.022  0.4861  0.5983  0.3764
28380SOL    HW189056   9.506   0.680   6.959  0.3315  0.0885  0.6170
28380SOL    HW289057   9.436   0.813   6.982  0.2903  0.2407 -0.3263
28381SOL     OW89058   1.300   0.541   6.495 -0.1124 -0.6357  0.5557
28381SOL    HW189059   1.268   0.625   6.461  0.4199 -0.6346  0.0359
28381SOL    HW289060   1.360   0.510   6.428 -0.4395 -1.5227  0.6655
28382SOL     OW89061   0.500   4.507   2.268  0.4114 -0.2787  0.1057
28382SOL    HW189062   0.493   4.554   2.185  0.0572  0.1350  0.3670
28382SOL    HW289063   0.410   4.481   2.289  0.2719  0.9819  1.1338
28383SOL     OW89064   2.499   4.353   2.972  0.1148 -0.4565  0.3526
28383SOL    HW189065   2.575   4.385   2.923  0.6632  1.6024  2.3638
28383SOL    HW289066   2.533   4.336   3.060 -1.9058  1.8541  1.7017
28384SOL     OW89067   7.344   5.291   4.767 -0.3210  0.0165 -0.1254
28384SOL    HW189068   7.368   5.298   4.675 -2.0163  0.0827 -0.5934
28384SOL    HW289069   7.339   5.382   4.797  0.8630 -0.0218  0.2221
28385SOL     OW89070   2.791   6.652   3.536 -0.0229  0.2552 -0.1952
28385SOL    HW189071   2.817   6.562   3.515 -2.0113 -0.3684 -0.2301
28385SOL    HW289072   2.749   6.684   3.456 -2.9387 -0.2718  0.9810
28386SOL     OW89073   9.417   2.882   2.428  0.0597 -0.3828  0.2916
28386SOL    HW189074   9.450   2.798   2.461  1.1220  0.5619  1.7745
28386SOL    HW289075   9.415   2.872   2.333 -4.1452 -3.6472  0.4323
28387SOL     OW89076   7.322   4.241   3.579 -0.0430 -0.4930  0.2401
28387SOL    HW189077   7.390   4.298   3.614 -1.0683  0.6310  0.4644
28387SOL    HW289078   7.254   4.301   3.548 -0.2223 -1.5363 -1.5018
28388SOL     OW89079   3.599   3.164   5.693  0.2477 -0.2886 -0.5351
28388SOL    HW189080   3.548   3.244   5.679 -0.9976 -1.1543 -1.1558
28388SOL    HW289081   3.684   3.181   5.653  0.0153  0.7470 -0.6002
28389SOL     OW89082   2.647   7.776   6.168  0.0743  0.5261 -0.2641
28389SOL    HW189083   2.703   7.848   6.137  0.0557 -0.3721 -2.5412
28389SOL    HW289084   2.559   7.813   6.168  0.2939  1.0820  0.5379
28390SOL     OW89085   6.940   3.448   3.977  0.7148 -0.3526 -0.1704
28390SOL    HW189086   6.871   3.405   4.028  0.5038 -1.0713 -1.0448
28390SOL    HW289087   6.897   3.521   3.933  1.1464  1.0515  1.6025
28391SOL     OW89088   5.503   8.303   9.543 -0.6833  0.3758  0.1428
28391SOL    HW189089   5.457   8.361   9.482  0.1592  0.9970  0.0866
28391SOL    HW289090   5.440   8.288   9.613 -1.2956  0.4854 -0.3723
28392SOL     OW89091   6.422  10.201   4.159  0.0931 -0.0209 -0.5462
28392SOL    HW189092   6.478  10.133   4.196  0.4035  0.7255  0.3791
28392SOL    HW289093   6.408  10.174   4.068 -1.1581 -2.1845  0.2271
28393SOL     OW89094   0.396   8.893   2.804 -0.1164  0.0465  0.4316
28393SOL    HW189095   0.337   8.966   2.785 -0.9822 -0.7887 -0.2093
28393SOL    HW289096   0.351   8.844   2.873 -0.5920 -1.0589 -0.6437
28394SOL     OW89097   6.905   3.007   7.019  0.0894  0.1511 -0.3934
28394SOL    HW189098   6.840   3.077   7.013 -0.1451 -0.1703 -1.8777
28394SOL    HW289099   6.954   3.011   6.937  2.7158  1.0470  1.1068
28395SOL     OW89100   1.415   5.227   5.971 -0.3190 -0.3821  0.5147
28395SOL    HW189101   1.395   5.177   6.051 -0.3048 -1.1955  0.0214
28395SOL    HW289102   1.447   5.161   5.910 -2.3293 -0.1645 -0.8806
28396SOL     OW89103   5.121  10.108   0.948 -0.0439  0.4770  0.4406
28396SOL    HW189104   5.167  10.130   1.029  1.1310 -0.5422  0.0654
28396SOL    HW289105   5.143  10.180   0.888  1.3040 -0.1395  0.1771
28397SOL     OW89106  10.113  10.137   1.702 -0.1255  0.4329  0.0297
28397SOL    HW189107  10.202  10.103   1.704  0.1451  0.9405 -1.6390
28397SOL    HW289108  10.075  10.100   1.622 -2.4103 -2.0368  2.0409
28398SOL     OW89109   2.583   9.072   3.039 -0.4098 -0.0240 -0.6320
28398SOL    HW189110   2.598   8.983   3.007 -1.1423  0.4948 -2.5683
28398SOL    HW289111   2.661   9.120   3.013 -0.5559  0.1702 -0.7149
28399SOL     OW89112   3.293   4.964   3.458 -0.3897 -0.3843  0.2494
28399SOL    HW189113   3.244   5.008   3.527 -0.1093  0.8562 -0.3219
28399SOL    HW289114   3.268   5.009   3.378  0.3049 -0.9345 -0.2928
28400SOL     OW89115   7.822   1.535  10.075  0.0561 -0.6601 -0.1452
28400SOL    HW189116   7.784   1.467  10.130  1.2579 -0.4732  0.9626
28400SOL    HW289117   7.906   1.498  10.047  0.5922  0.2452  0.2432
28401SOL     OW89118   7.082   4.604   8.854  0.0637  0.5503 -0.4653
28401SOL    HW189119   7.097   4.698   8.854 -1.3073  0.7966 -1.2250
28401SOL    HW289120   7.129   4.572   8.931 -1.1179  2.1265  0.9690
28402SOL     OW89121   9.490   9.004   8.550 -0.3759  0.2854 -0.0609
28402SOL    HW189122   9.447   8.950   8.616 -0.9421  0.0599 -0.6088
28402SOL    HW289123   9.583   8.986   8.561 -0.4414  0.4558  0.8519
28403SOL     OW89124   9.695   8.277   8.702  1.0625 -0.4856  0.0922
28403SOL    HW189125   9.668   8.360   8.661  1.3687 -1.1547 -1.5573
28403SOL    HW289126   9.790   8.275   8.693  1.1545 -0.5628  1.0431
28404SOL     OW89127   0.131   7.159   5.274 -0.0635 -0.0686 -0.0132
28404SOL    HW189128   0.222   7.156   5.301  0.0481  1.0106 -0.2152
28404SOL    HW289129   0.134   7.184   5.182 -0.5381 -0.8974 -0.2610
28405SOL     OW89130   3.444   6.320   9.522 -0.4479 -0.2479 -0.1810
28405SOL    HW189131   3.522   6.372   9.505 -1.3747  0.7267 -1.7289
28405SOL    HW289132   3.381   6.350   9.456 -1.8386 -1.6038  0.4800
28406SOL     OW89133   8.114   4.325   0.174  0.3483  0.4350 -0.3670
28406SOL    HW189134   8.207   4.346   0.168  0.2445  0.6384 -1.2966
28406SOL    HW289135   8.097   4.267   0.101 -0.2315  0.3001 -0.1301
28407SOL     OW89136   3.997   6.224   1.159  0.6265 -0.0350 -0.5549
28407SOL    HW189137   3.984   6.176   1.077  0.8143 -1.5955  0.2792
28407SOL    HW289138   3.943   6.177   1.223 -1.1057  2.3235 -0.1341
28408SOL     OW89139   2.173   6.413   6.196 -0.4219  0.5096 -0.2497
28408SOL    HW189140   2.151   6.470   6.122 -0.0696  1.8031  0.6117
28408SOL    HW289141   2.256   6.371   6.171 -1.2408 -0.5169 -1.3583
28409SOL     OW89142   5.513   5.415   0.160 -0.1589 -0.1066  0.6436
28409SOL    HW189143   5.574   5.355   0.201  2.2770  1.4626 -0.4035
28409SOL    HW289144   5.484   5.473   0.230 -0.3154 -0.7531  1.1169
28410SOL     OW89145   3.576   8.762   1.171 -0.5071 -0.7266  0.0231
28410SOL    HW189146   3.511   8.701   1.205 -0.3354 -0.2233  1.2887
28410SOL    HW289147   3.624   8.793   1.248  0.5903 -0.3440 -0.7791
28411SOL     OW89148   3.908   6.108   4.327  0.6910  0.6387 -0.3507
28411SOL    HW189149   3.905   6.075   4.237  1.1851  1.3162 -0.6224
28411SOL    HW289150   3.817   6.119   4.352  0.4832 -1.4352 -0.0530
28412SOL     OW89151   3.192   4.351   0.767  0.2108 -0.3005 -0.1235
28412SOL    HW189152   3.248   4.278   0.742  0.4694  0.1863 -0.9929
28412SOL    HW289153   3.244   4.402   0.829  0.8261  0.2707 -1.0946
28413SOL     OW89154   2.998   8.602   7.278  0.1302  0.3115 -0.0838
28413SOL    HW189155   3.070   8.554   7.318 -1.5774 -2.7969 -0.4176
28413SOL    HW289156   3.039   8.656   7.211  2.2550 -0.1552  0.7709
28414SOL     OW89157   4.742   0.218   7.851 -0.0515  0.8770  0.1362
28414SOL    HW189158   4.833   0.189   7.845 -1.0747 -2.5654 -1.3549
28414SOL    HW289159   4.737   0.266   7.933  2.4642 -1.5381  1.8680
28415SOL     OW89160   8.626   2.179   0.947  0.1535  0.4872  0.2665
28415SOL    HW189161   8.551   2.231   0.976  0.5615  2.3434 -1.7488
28415SOL    HW289162   8.597   2.136   0.867  0.6738 -0.2699  0.4726
28416SOL     OW89163   3.910   3.440   5.173 -0.4275 -0.4645  0.2860
28416SOL    HW189164   3.960   3.367   5.209 -0.3906  0.2462  1.7556
28416SOL    HW289165   3.856   3.401   5.104  0.3953 -1.6683  0.3023
28417SOL     OW89166   3.468   0.723   7.792 -0.9344  0.0264 -0.3283
28417SOL    HW189167   3.498   0.747   7.704 -0.7985 -2.8443 -1.1725
28417SOL    HW289168   3.537   0.667   7.827 -1.3789  0.4431  1.2690
28418SOL     OW89169   7.171   4.317   4.576  0.5226  0.1570 -0.1626
28418SOL    HW189170   7.144   4.232   4.541  2.6266 -0.7748  0.3097
28418SOL    HW289171   7.089   4.362   4.596 -0.6665 -1.1931 -1.7137
28419SOL     OW89172   4.126   2.054   2.107 -0.6442 -0.0334  0.5616
28419SOL    HW189173   4.094   1.968   2.134  2.0919 -1.2586  0.1954
28419SOL    HW289174   4.082   2.071   2.023 -0.8101 -1.3125  0.3729
28420SOL     OW89175  10.192   7.955   1.706  0.4177  0.3172  0.0129
28420SOL    HW189176  10.157   8.027   1.654 -1.2695 -0.3496  0.1430
28420SOL    HW289177  10.218   7.995   1.789  1.7863  1.1422 -0.7732
28421SOL     OW89178   8.883   2.847   2.598  0.8768  0.4715 -0.6289
28421SOL    HW189179   8.933   2.823   2.520  3.1226  1.1700  0.4968
28421SOL    HW289180   8.877   2.767   2.649 -0.9091 -0.0718 -1.6324
28422SOL     OW89181   9.094   4.275   1.617 -0.3206 -0.7048 -0.3290
28422SOL    HW189182   9.040   4.328   1.558  1.0275  1.1706  0.0348
28422SOL    HW289183   9.030   4.227   1.671 -1.5775 -0.6274 -1.6807
28423SOL     OW89184   7.095   3.090   6.839 -0.0526 -0.1500 -0.7819
28423SOL    HW189185   7.163   3.122   6.899 -0.9407  0.9346 -0.3201
28423SOL    HW289186   7.124   3.002   6.815  0.1180 -0.7959  1.5652
28424SOL     OW89187   4.568   9.474   9.888 -0.1263 -0.0692  0.2261
28424SOL    HW189188   4.643   9.454   9.944  0.9151  1.5086 -0.5169
28424SOL    HW289189   4.607   9.498   9.804 -1.6494 -2.5179 -1.2934
28425SOL     OW89190   3.949   8.731   6.771  0.8337  0.7113  0.4980
28425SOL    HW189191   4.011   8.802   6.788  1.2018 -0.0758  2.7484
28425SOL    HW289192   3.981   8.690   6.690  0.4206  3.2211 -1.0553
28426SOL     OW89193   6.328   8.119   1.015 -0.4428 -0.4494 -0.3173
28426SOL    HW189194   6.339   8.045   1.074 -0.5339  1.1335  1.7936
28426SOL    HW289195   6.308   8.193   1.072  0.5155  1.4119 -2.2558
28427SOL     OW89196   4.450   1.329   7.634  0.1027  0.1321 -0.1256
28427SOL    HW189197   4.520   1.295   7.578 -0.3014 -0.8306 -0.0733
28427SOL    HW289198   4.381   1.263   7.627 -0.6565  0.8944  0.1045
28428SOL     OW89199   6.267   9.782   4.154  0.1548 -0.4696  0.0412
28428SOL    HW189200   6.278   9.692   4.123 -2.1938 -0.0662 -2.3318
28428SOL    HW289201   6.324   9.834   4.097  1.2926 -0.3976  1.2212
28429SOL     OW89202   5.075   7.240   5.961  0.4287  0.0933  0.0573
28429SOL    HW189203   5.061   7.224   6.054  0.8141 -1.6204 -0.1517
28429SOL    HW289204   4.991   7.272   5.929 -0.3792 -1.4092  0.5872
28430SOL     OW89205   3.965   7.733   3.073 -0.5633  0.2052 -0.1398
28430SOL    HW189206   3.981   7.681   2.995 -0.4812  1.3553 -0.9029
28430SOL    HW289207   3.937   7.669   3.139  2.0498 -1.1709 -0.2524
28431SOL     OW89208   3.453   7.695   9.063  0.7863 -0.2349 -0.8496
28431SOL    HW189209   3.476   7.703   9.156  1.6350 -1.7981 -0.8803
28431SOL    HW289210   3.432   7.784   9.035  1.7885  0.4693  0.5274
28432SOL     OW89211   4.549   2.696   1.613  0.5035 -0.3455  0.0538
28432SOL    HW189212   4.582   2.606   1.612  0.1632 -0.4639 -1.2182
28432SOL    HW289213   4.503   2.706   1.530 -0.6225  0.5799  0.7514
28433SOL     OW89214   5.093   3.872   5.661  0.4922 -0.0768  0.3310
28433SOL    HW189215   5.134   3.947   5.617 -0.5694  1.0018  1.0996
28433SOL    HW289216   5.109   3.798   5.603  1.3787  0.7925 -0.5746
28434SOL     OW89217   0.191   5.853   3.784 -0.0459 -0.1083 -0.4688
28434SOL    HW189218   0.114   5.899   3.819  0.1390  0.5214 -0.8721
28434SOL    HW289219   0.203   5.890   3.696 -0.0363 -1.1080 -0.9046
28435SOL     OW89220   3.464   0.641   9.851 -0.0675 -0.0499 -0.0579
28435SOL    HW189221   3.402   0.692   9.800  1.0661  0.3203 -1.1133
28435SOL    HW289222   3.421   0.556   9.863 -1.3734  0.6663  0.5208
28436SOL     OW89223   8.664   5.369   8.224 -0.1951 -0.3205  0.1009
28436SOL    HW189224   8.671   5.424   8.302  1.5494 -0.1551 -0.1410
28436SOL    HW289225   8.612   5.421   8.163 -1.4484 -0.3886  1.0593
28437SOL     OW89226   3.107   8.465   5.706 -0.7306 -0.6306 -0.1558
28437SOL    HW189227   3.094   8.381   5.661  0.6357 -1.2780  0.6036
28437SOL    HW289228   3.037   8.468   5.772 -1.6813 -0.4683 -1.1304
28438SOL     OW89229   6.295   5.807   8.761 -0.1660  0.6054  0.7385
28438SOL    HW189230   6.304   5.769   8.849 -1.2869 -0.4237  0.4305
28438SOL    HW289231   6.229   5.753   8.718 -0.0634  1.4647 -0.5486
28439SOL     OW89232   1.611   6.360   7.073  0.3759  0.2502 -0.4725
28439SOL    HW189233   1.684   6.301   7.092  0.6193  0.3632 -1.0253
28439SOL    HW289234   1.648   6.448   7.078 -0.1975  0.4252  1.2731
28440SOL     OW89235   4.517   7.774   3.658 -0.2720  0.2564  0.5086
28440SOL    HW189236   4.519   7.860   3.700  0.3489  0.7989 -0.5959
28440SOL    HW289237   4.579   7.721   3.708  0.2869  0.8215  0.4147
28441SOL     OW89238   1.141   4.326   8.828  0.1042  0.0285 -0.3518
28441SOL    HW189239   1.071   4.279   8.785 -0.5281  1.6256 -1.1449
28441SOL    HW289240   1.158   4.402   8.772  2.1923 -0.0813  0.0217
28442SOL     OW89241   9.612   2.049   3.934  0.0814 -0.0170 -0.5168
28442SOL    HW189242   9.607   2.144   3.928  2.1824  0.1788  0.0040
28442SOL    HW289243   9.657   2.023   3.854  2.1598 -0.2309  0.6495
28443SOL     OW89244   2.779   4.381   5.674 -0.0412 -0.1956 -0.5632
28443SOL    HW189245   2.826   4.327   5.738  0.3485  2.5301  1.6481
28443SOL    HW289246   2.706   4.417   5.723  0.8240  2.7946 -1.2889
28444SOL     OW89247   7.954   4.134   5.249 -0.2418 -0.1635  0.0900
28444SOL    HW189248   7.966   4.175   5.163  1.5911  0.2507  0.4935
28444SOL    HW289249   7.861   4.110   5.251 -0.5014  0.4825 -1.6984
28445SOL     OW89250   6.461   4.741   5.757  0.0769 -0.3409 -0.0202
28445SOL    HW189251   6.451   4.823   5.710 -0.2197 -0.6640 -0.5214
28445SOL    HW289252   6.515   4.764   5.833  1.5768 -0.0506 -1.1275
28446SOL     OW89253   4.005   7.667   8.556  0.3474  0.1055 -0.4308
28446SOL    HW189254   3.938   7.732   8.576  0.6283  1.1340 -2.5804
28446SOL    HW289255   3.956   7.585   8.546 -0.4491  0.6262 -0.8944
28447SOL     OW89256   7.656   2.600   8.907  0.4469  0.1814 -0.0007
28447SOL    HW189257   7.694   2.607   8.994  0.4623  0.4878 -0.0328
28447SOL    HW289258   7.576   2.653   8.910  0.8822  0.8746 -0.4162
28448SOL     OW89259   0.572   4.210   2.327 -0.2646 -0.0716  0.3052
28448SOL    HW189260   0.613   4.296   2.332 -1.0312  0.4539 -1.5767
28448SOL    HW289261   0.491   4.225   2.278  0.7749 -2.1955 -2.3377
28449SOL     OW89262   6.983   9.381   2.783 -0.0675 -0.1555  0.1079
28449SOL    HW189263   7.070   9.342   2.788  0.6497  1.4976  1.4476
28449SOL    HW289264   6.973   9.409   2.692  1.3890  0.8379  0.2258
28450SOL     OW89265   4.418   5.612   8.831 -0.2922 -0.1037 -0.1550
28450SOL    HW189266   4.411   5.548   8.760 -0.6176 -1.3559  0.9616
28450SOL    HW289267   4.365   5.686   8.801  0.9728  0.1385 -1.9548
28451SOL     OW89268   2.337   5.554   7.254 -0.5899  0.3458  0.3989
28451SOL    HW189269   2.424   5.585   7.229  0.5733 -2.3538  0.7630
28451SOL    HW289270   2.285   5.563   7.175  0.3373  0.8572 -0.1759
28452SOL     OW89271   6.074   6.219   0.975  0.6850  0.1760 -0.3688
28452SOL    HW189272   6.114   6.298   0.938  0.7540 -0.8705 -2.7043
28452SOL    HW289273   6.013   6.189   0.907 -1.0089 -0.5846  1.3929
28453SOL     OW89274   8.863   4.710   1.960 -0.4308 -0.0476  0.1388
28453SOL    HW189275   8.802   4.784   1.965  1.8746  1.9377  0.8530
28453SOL    HW289276   8.874   4.682   2.051  0.7690  0.5850  0.2089
28454SOL     OW89277   0.734   5.478   5.358 -0.1085  0.4193  0.0205
28454SOL    HW189278   0.693   5.545   5.303 -0.7531 -0.1670 -0.2448
28454SOL    HW289279   0.827   5.498   5.355  0.3491 -1.3341 -3.8492
28455SOL     OW89280   8.298   9.098   2.575 -0.3070  0.4728 -0.0618
28455SOL    HW189281   8.291   9.010   2.611  0.0149 -0.9749 -3.1738
28455SOL    HW289282   8.258   9.092   2.488  2.0895  2.6434 -1.4806
28456SOL     OW89283   0.175   4.295   4.499  0.1730  0.1430 -0.1938
28456SOL    HW189284   0.249   4.287   4.559 -0.7047  0.1129  0.9303
28456SOL    HW289285   0.199   4.242   4.423  1.3757  0.2918  0.0680
28457SOL     OW89286   1.849   2.120   0.822 -0.0995  0.2287  1.1131
28457SOL    HW189287   1.860   2.151   0.912 -0.6797  1.8161  0.6818
28457SOL    HW289288   1.833   2.200   0.772 -0.5339 -0.7049 -0.2832
28458SOL     OW89289   4.616   6.179   0.711 -0.8467  0.3996 -0.3234
28458SOL    HW189290   4.701   6.224   0.712  0.0928 -1.2772 -0.3341
28458SOL    HW289291   4.603   6.152   0.802 -0.3854 -1.0263 -0.6485
28459SOL     OW89292   9.676   0.899   4.205  0.1206 -0.2417 -0.1809
28459SOL    HW189293   9.769   0.905   4.227  0.9225  1.1867 -3.3473
28459SOL    HW289294   9.645   0.990   4.208 -1.5623 -0.8169  1.9762
28460SOL     OW89295   3.313   6.133   5.286  0.5509  0.2026 -0.4662
28460SOL    HW189296   3.287   6.054   5.237  0.7530 -1.6224  2.1664
28460SOL    HW289297   3.380   6.102   5.347  2.0720  2.8838 -0.6548
28461SOL     OW89298   7.619   4.862   2.592 -0.2660  0.0452 -0.2525
28461SOL    HW189299   7.641   4.772   2.567  0.0373 -0.0821  0.4470
28461SOL    HW289300   7.565   4.895   2.520  1.7573  0.1823 -1.8064
28462SOL     OW89301   3.104   0.584   6.764 -0.2069 -0.1304  0.6773
28462SOL    HW189302   3.085   0.639   6.689  0.7782 -0.2785  0.3004
28462SOL    HW289303   3.021   0.540   6.783 -0.2425 -0.8353 -0.9494
28463SOL     OW89304   7.335   3.060   7.297 -0.1774  0.2152  0.0971
28463SOL    HW189305   7.427   3.082   7.315  0.1435 -0.9446 -0.0429
28463SOL    HW289306   7.295   3.055   7.384 -0.3584  1.6766  0.1197
28464SOL     OW89307   7.096   0.737   4.411  0.1385  0.3120  0.6869
28464SOL    HW189308   7.144   0.817   4.434  0.7139  0.3509 -0.5785
28464SOL    HW289309   7.163   0.677   4.378 -0.6298  0.3111 -0.9699
28465SOL     OW89310   0.501   3.647   2.010 -0.1805 -0.2887 -0.1769
28465SOL    HW189311   0.529   3.603   2.090 -1.8379  1.1005  1.2422
28465SOL    HW289312   0.406   3.649   2.015 -0.3596 -0.5044 -2.4158
28466SOL     OW89313   8.333   3.615   7.705 -0.4559 -0.1187  0.5824
28466SOL    HW189314   8.277   3.658   7.769  0.1350 -1.0073  1.7444
28466SOL    HW289315   8.422   3.639   7.732 -0.2163  0.0665 -0.3375
28467SOL     OW89316   5.169   2.554   0.939 -0.0615 -0.3457  0.0526
28467SOL    HW189317   5.146   2.527   0.850  0.4355  0.0983 -0.2209
28467SOL    HW289318   5.089   2.543   0.990 -0.0988 -1.5292 -0.2265
28468SOL     OW89319   3.750   8.822   3.680 -0.2756  0.0417 -0.0509
28468SOL    HW189320   3.812   8.838   3.609 -0.5783  1.9580  0.0459
28468SOL    HW289321   3.677   8.777   3.638  0.0482  0.1115 -0.7111
28469SOL     OW89322   7.358   8.383   7.892 -0.5019 -0.2845  0.5043
28469SOL    HW189323   7.382   8.476   7.890 -0.4297 -0.3063  0.3013
28469SOL    HW289324   7.264   8.382   7.907 -0.4267 -0.1903  1.0337
28470SOL     OW89325   5.975   9.654   8.806 -0.2264 -0.1980  0.7933
28470SOL    HW189326   5.977   9.632   8.713 -1.2431 -0.4172  0.8022
28470SOL    HW289327   5.929   9.580   8.847 -0.1548  0.0876  1.4075
28471SOL     OW89328   8.997   3.090   5.215 -0.5176  0.0571 -0.3198
28471SOL    HW189329   8.943   3.167   5.234 -1.3018 -1.0228  2.3077
28471SOL    HW289330   8.981   3.072   5.122 -2.0963  1.7130 -0.4274
28472SOL     OW89331   0.328   1.347   4.771  0.1168 -0.7662  0.0346
28472SOL    HW189332   0.333   1.287   4.696  0.5115 -0.4592 -0.1892
28472SOL    HW289333   0.295   1.293   4.843 -2.5005 -0.5689 -0.8872
28473SOL     OW89334   9.888   6.748   6.123  0.2240  0.2551 -0.0882
28473SOL    HW189335   9.967   6.803   6.119  2.4319 -2.5883  1.1031
28473SOL    HW289336   9.873   6.734   6.216 -0.7748 -0.5203 -0.3505
28474SOL     OW89337   7.828   0.755   1.819 -0.4666  0.0025  0.0374
28474SOL    HW189338   7.890   0.732   1.889  0.6948 -2.5921 -1.7041
28474SOL    HW289339   7.743   0.727   1.853 -0.7239  2.7270  2.0606
28475SOL     OW89340   7.264   6.688   1.670  0.3568  0.1304  0.2236
28475SOL    HW189341   7.178   6.727   1.682  0.3776 -0.0683  1.0113
28475SOL    HW289342   7.314   6.716   1.746  1.6034  1.8492 -1.1328
28476SOL     OW89343   9.455   5.384   8.906  0.8305 -0.0035  0.5626
28476SOL    HW189344   9.501   5.438   8.843  0.6549  0.2467  0.6443
28476SOL    HW289345   9.396   5.445   8.951  1.6459  0.0222  1.6376
28477SOL     OW89346   6.356   9.652   5.401  0.1484  0.2246  0.1540
28477SOL    HW189347   6.389   9.604   5.476 -0.7782  0.0202  0.4353
28477SOL    HW289348   6.330   9.737   5.436  1.8501  0.9927 -0.3524
28478SOL     OW89349   4.807   7.891   5.970 -0.3408  0.1457 -0.0114
28478SOL    HW189350   4.729   7.920   5.922 -0.6515 -0.4968  0.0919
28478SOL    HW289351   4.856   7.972   5.986  0.9061  0.2189 -3.3491
28479SOL     OW89352   9.225   8.057   7.770  0.1686 -0.1705  0.3137
28479SOL    HW189353   9.130   8.058   7.757  0.1499  2.1893  0.0945
28479SOL    HW289354   9.237   8.026   7.859 -0.6498 -2.1708 -0.2123
28480SOL     OW89355   4.317   1.121   4.921  0.0762 -0.6945 -0.2822
28480SOL    HW189356   4.391   1.174   4.891  0.4002 -0.9077  0.1192
28480SOL    HW289357   4.342   1.031   4.899 -0.6377 -0.6575 -1.3082
28481SOL     OW89358   6.287   8.444   0.105  0.0978 -0.1758  0.3139
28481SOL    HW189359   6.290   8.350   0.123  0.0332 -0.2113  0.1450
28481SOL    HW289360   6.351   8.458   0.036 -1.0006 -0.3575 -0.7837
28482SOL     OW89361   3.671   0.637   1.421 -0.1081  0.0364  0.3538
28482SOL    HW189362   3.665   0.541   1.420 -1.3595  0.1039  0.5560
28482SOL    HW289363   3.599   0.667   1.366  0.7786  0.8645 -0.3929
28483SOL     OW89364   4.176   8.232   6.333 -0.2792 -0.3771 -0.0243
28483SOL    HW189365   4.217   8.146   6.342 -1.0055 -0.8003 -0.5678
28483SOL    HW289366   4.235   8.281   6.276  0.6757 -0.1370  1.1358
28484SOL     OW89367   2.073   0.526   4.490  0.0779 -0.0440  0.3527
28484SOL    HW189368   2.013   0.504   4.560 -4.0080 -0.9351 -2.9966
28484SOL    HW289369   2.110   0.443   4.461  1.0928  0.2190  0.8315
28485SOL     OW89370   6.907   7.318   4.077  0.1980 -0.6846 -0.2967
28485SOL    HW189371   6.895   7.282   4.164  2.4402  0.6403  0.6580
28485SOL    HW289372   6.902   7.412   4.088 -1.9762 -0.4900 -2.1095
28486SOL     OW89373   6.493   2.599   4.134  0.6098  0.0036  0.0335
28486SOL    HW189374   6.535   2.667   4.187  0.8520  1.3399 -1.7716
28486SOL    HW289375   6.499   2.632   4.044 -0.7106 -1.6783 -0.7217
28487SOL     OW89376   4.854   4.008   9.936  0.1209 -0.1798 -0.1511
28487SOL    HW189377   4.807   4.042  10.012 -1.5592 -1.3061 -0.6458
28487SOL    HW289378   4.910   3.939   9.971  0.5431  0.3609  0.2653
28488SOL     OW89379   4.170   8.953   6.321 -0.3777  0.2236 -0.0748
28488SOL    HW189380   4.121   8.978   6.242  0.4693 -0.9308 -1.0100
28488SOL    HW289381   4.234   9.024   6.332  1.5553 -1.0221 -2.3022
28489SOL     OW89382   6.878   5.190   7.181  0.2636 -0.2419 -0.3773
28489SOL    HW189383   6.841   5.116   7.134  0.5561 -0.6873  0.0862
28489SOL    HW289384   6.847   5.267   7.133  0.1647 -0.6686 -1.0108
28490SOL     OW89385   2.687   9.173   5.292  0.0304 -0.1394  0.3104
28490SOL    HW189386   2.767   9.179   5.344 -0.6814  0.7658  1.3703
28490SOL    HW289387   2.654   9.085   5.308 -0.7690  0.4652  2.3978
28491SOL     OW89388   9.178   4.264   3.857  0.2238 -0.3895  0.5651
28491SOL    HW189389   9.115   4.336   3.856  2.0669  1.3720  2.1225
28491SOL    HW289390   9.169   4.223   3.771 -2.0148  0.6645  0.2336
28492SOL     OW89391   1.124   0.940   6.957  0.5108  0.0344  0.2663
28492SOL    HW189392   1.134   0.898   7.042  0.9199  2.9043  1.7369
28492SOL    HW289393   1.036   0.977   6.958  0.0554 -0.9181 -1.0989
28493SOL     OW89394   4.691   4.543   5.446  0.1767  0.0070 -0.1823
28493SOL    HW189395   4.655   4.610   5.388 -1.5462  0.7980  1.6885
28493SOL    HW289396   4.786   4.551   5.435 -0.0351  1.7318 -1.1257
28494SOL     OW89397   8.334   2.495   5.283 -0.0357 -0.0860  0.4062
28494SOL    HW189398   8.371   2.430   5.223  0.1374  0.2707  0.1183
28494SOL    HW289399   8.251   2.456   5.311 -0.3386 -0.0655 -0.4283
28495SOL     OW89400   0.596   5.014   8.962 -0.2465  0.3172  0.3269
28495SOL    HW189401   0.596   4.983   9.052  0.3912  0.2104  0.2942
28495SOL    HW289402   0.541   5.092   8.964 -2.1610 -0.9717  0.3315
28496SOL     OW89403   0.692   4.537   6.689  0.6188 -0.6183  0.4427
28496SOL    HW189404   0.706   4.606   6.624 -0.0619  0.1976  1.1453
28496SOL    HW289405   0.637   4.473   6.644 -0.0842  0.0740  0.2896
28497SOL     OW89406   2.950   0.173   3.720  0.0875 -0.0493 -0.1312
28497SOL    HW189407   3.021   0.133   3.671  0.4033 -0.3458  0.5554
28497SOL    HW289408   2.960   0.140   3.809 -0.3125  0.6847  0.1999
28498SOL     OW89409   0.744   2.523   2.027  0.6585 -0.1419  0.5438
28498SOL    HW189410   0.684   2.554   1.959  0.9675 -0.1055  0.2832
28498SOL    HW289411   0.806   2.467   1.980  1.6221  0.8735  0.5697
28499SOL     OW89412   0.884   4.730   9.714 -0.4017 -0.5609  0.0016
28499SOL    HW189413   0.967   4.696   9.682  0.2749  0.4245  0.6777
28499SOL    HW289414   0.883   4.708   9.807 -1.7247 -2.1505 -0.3319
28500SOL     OW89415   1.205   8.318   7.879  0.0993 -0.0215  0.0088
28500SOL    HW189416   1.162   8.233   7.872  0.3209 -0.0620 -0.9325
28500SOL    HW289417   1.265   8.308   7.953 -0.9073 -0.2095  0.8354
28501SOL     OW89418   4.364   3.449   7.405  0.9877 -0.2416  0.6149
28501SOL    HW189419   4.387   3.419   7.493  0.6975  0.9043  1.0897
28501SOL    HW289420   4.287   3.397   7.381  0.5689  0.0221  1.3712
28502SOL     OW89421   2.476   5.684   3.439  0.1471 -0.0640 -0.3366
28502SOL    HW189422   2.416   5.733   3.494 -0.2367 -0.5450 -0.3129
28502SOL    HW289423   2.563   5.718   3.460  0.1295 -1.0018  1.3962
28503SOL     OW89424   3.780   4.574   8.365  0.0006  0.1367 -0.6496
28503SOL    HW189425   3.854   4.531   8.408 -1.0572 -0.9927  0.1112
28503SOL    HW289426   3.783   4.664   8.398 -0.9243 -0.7283  2.1078
28504SOL     OW89427   5.479   1.404   2.787 -0.3410  0.1989 -0.4537
28504SOL    HW189428   5.451   1.381   2.698  0.0589 -1.1073 -0.2532
28504SOL    HW289429   5.573   1.385   2.788  0.0248  1.8915 -0.2701
28505SOL     OW89430   4.897   4.712   9.049  0.1920 -0.4910  0.4424
28505SOL    HW189431   4.952   4.744   9.120 -0.1782 -0.0102  0.5252
28505SOL    HW289432   4.957   4.696   8.976  0.3267  1.1228  0.1491
28506SOL     OW89433   1.861   3.912   1.118 -0.3008  0.3837 -0.0505
28506SOL    HW189434   1.925   3.976   1.086 -1.5973  1.4771 -0.5494
28506SOL    HW289435   1.852   3.849   1.046  0.4924 -0.0061  0.1816
28507SOL     OW89436   0.050   9.539   4.240 -0.2347  0.4447  0.6180
28507SOL    HW189437   0.110   9.612   4.252  0.1824  0.1913  0.1430
28507SOL    HW289438   0.003   9.559   4.159  1.8930 -1.1102 -1.1571
28508SOL     OW89439   7.243   9.269   5.633  0.5223 -0.8842  0.0013
28508SOL    HW189440   7.192   9.188   5.633  1.3280 -1.4032  0.4789
28508SOL    HW289441   7.333   9.241   5.614  1.1572 -0.3557  1.9739
28509SOL     OW89442   6.444   2.684   8.135 -0.2106 -0.3114  0.7614
28509SOL    HW189443   6.501   2.651   8.065 -0.7781 -1.9234  1.0065
28509SOL    HW289444   6.476   2.772   8.152  0.7952 -0.3705 -0.6102
28510SOL     OW89445   2.299   6.130   5.874 -0.8529 -0.7161  0.4505
28510SOL    HW189446   2.258   6.180   5.804 -2.4302 -0.8638  1.2277
28510SOL    HW289447   2.316   6.194   5.943  0.6339 -0.5847 -0.0004
28511SOL     OW89448   8.582   1.587   2.561 -0.4302  0.3633 -0.2579
28511SOL    HW189449   8.575   1.677   2.594 -4.1501  0.2281 -0.3389
28511SOL    HW289450   8.613   1.598   2.471 -1.9021  1.7092 -0.6517
28512SOL     OW89451   0.324   4.911   1.606 -0.6848 -0.3805  0.5099
28512SOL    HW189452   0.298   4.975   1.672 -2.1977  1.2283 -1.5312
28512SOL    HW289453   0.418   4.899   1.621 -0.6101  1.3197  1.7861
28513SOL     OW89454   3.815   7.648   2.768 -0.0606 -0.2821 -0.0236
28513SOL    HW189455   3.750   7.687   2.710  1.6129  1.3154 -0.9090
28513SOL    HW289456   3.769   7.639   2.852 -1.4222  0.8364 -0.6098
28514SOL     OW89457  10.022   6.734   7.825 -0.5226  0.2100 -0.4819
28514SOL    HW189458  10.015   6.740   7.729  2.1088  0.1358 -0.7604
28514SOL    HW289459  10.090   6.798   7.847 -1.3350  0.4654  1.3978
28515SOL     OW89460   4.883   1.831   1.094  0.3869  0.0689 -0.2050
28515SOL    HW189461   4.827   1.782   1.154 -1.2235 -1.5883 -2.8307
28515SOL    HW289462   4.828   1.844   1.016  1.3830  4.4821 -0.4397
28516SOL     OW89463   0.439   0.013   6.195 -0.6371 -0.0936  0.0530
28516SOL    HW189464   0.527   0.041   6.170 -0.4833 -1.5992 -1.3186
28516SOL    HW289465   0.388   0.018   6.114 -1.2993 -1.0200  0.3834
28517SOL     OW89466   3.608   0.685   0.817  0.2855 -0.1744 -0.2021
28517SOL    HW189467   3.687   0.669   0.764 -0.0151  0.0097 -0.7079
28517SOL    HW289468   3.641   0.728   0.896  0.9127 -1.6907  0.4050
28518SOL     OW89469   1.384   4.112   3.526 -0.4657 -0.4405  0.1430
28518SOL    HW189470   1.413   4.039   3.470  1.2021  1.2305 -1.3129
28518SOL    HW289471   1.312   4.075   3.578  0.3836 -3.1453 -0.4232
28519SOL     OW89472   0.659   9.636   0.113 -0.5943 -0.3961 -0.1256
28519SOL    HW189473   0.601   9.560   0.120  1.8822 -2.2336  2.1885
28519SOL    HW289474   0.654   9.679   0.199 -1.2419  1.6217 -1.0937
28520SOL     OW89475   7.372   9.286   6.700 -0.1464 -0.0310  0.9863
28520SOL    HW189476   7.347   9.278   6.792  0.1369 -0.8004  1.0074
28520SOL    HW289477   7.464   9.312   6.703  0.1104 -0.9150  0.9294
28521SOL     OW89478   4.400   8.032   5.908 -0.1908 -0.1457 -0.1639
28521SOL    HW189479   4.358   8.102   5.858 -0.0483 -0.9489 -1.4366
28521SOL    HW289480   4.485   8.068   5.933 -0.7991  0.7626  0.7291
28522SOL     OW89481   7.749   0.203   6.885  0.6033 -0.0866 -0.1518
28522SOL    HW189482   7.758   0.108   6.889  1.0485 -0.0436  0.0050
28522SOL    HW289483   7.812   0.229   6.817 -0.6303 -0.0410 -1.3060
28523SOL     OW89484   6.767   8.873   0.049  0.1746 -0.0286  0.2853
28523SOL    HW189485   6.677   8.848   0.068  0.7328 -1.2482  1.4837
28523SOL    HW289486   6.770   8.967   0.065 -0.8511 -0.0002  0.3480
28524SOL     OW89487   3.429   2.886   8.585 -0.1761  0.4567 -0.1069
28524SOL    HW189488   3.427   2.961   8.525  0.0426 -0.0605 -0.7709
28524SOL    HW289489   3.413   2.810   8.529  0.2150 -0.0517  0.4649
28525SOL     OW89490   5.863   3.247   1.228  0.1937  0.4165 -0.1472
28525SOL    HW189491   5.955   3.223   1.222  0.0855  0.2007 -1.0610
28525SOL    HW289492   5.843   3.286   1.143 -0.5705  0.4109  0.0243
28526SOL     OW89493   9.437   7.106   3.273  1.1401 -0.7738  0.2997
28526SOL    HW189494   9.405   7.026   3.314  1.8203 -1.2427 -0.0694
28526SOL    HW289495   9.394   7.110   3.188  0.5338 -0.3486  0.6191
28527SOL     OW89496   3.117   7.537   6.804  0.0255  0.4892 -0.1249
28527SOL    HW189497   3.091   7.531   6.896  0.0709 -0.8842 -0.1834
28527SOL    HW289498   3.099   7.628   6.780  2.4679  1.6707  1.9842
28528SOL     OW89499   1.096   9.821   3.035 -0.7625  0.1676 -0.3059
28528SOL    HW189500   1.075   9.809   2.943  1.5378 -1.5583 -0.6930
28528SOL    HW289501   1.069   9.740   3.077  0.3545 -0.0234  0.0802
28529SOL     OW89502   4.589   2.317   2.464 -0.6252 -0.1806  0.1320
28529SOL    HW189503   4.608   2.411   2.461 -0.0602 -0.2860  0.3801
28529SOL    HW289504   4.674   2.275   2.477 -1.0374 -0.6392  1.5830
28530SOL     OW89505   3.660   0.120   6.526  0.1472  0.1843  0.2208
28530SOL    HW189506   3.613   0.190   6.572 -0.5949 -0.9121  1.1623
28530SOL    HW289507   3.592   0.074   6.477  0.2900 -1.0859  1.1699
28531SOL     OW89508   2.946   8.365   5.919  0.0849 -0.8441 -0.0314
28531SOL    HW189509   2.920   8.309   5.993  0.0008 -0.6034  0.1219
28531SOL    HW289510   2.868   8.369   5.864 -0.7304  1.1082  1.1815
28532SOL     OW89511   1.436   1.502   9.380  0.6785  0.4743 -0.0771
28532SOL    HW189512   1.434   1.407   9.364 -1.9727  0.5578 -0.7091
28532SOL    HW289513   1.491   1.537   9.310  1.1690 -0.5470 -0.2174
28533SOL     OW89514   2.486   4.589   5.620 -0.5147  0.2665  0.2319
28533SOL    HW189515   2.516   4.529   5.551 -1.3569 -0.7516  0.7261
28533SOL    HW289516   2.533   4.560   5.699 -1.6598 -0.3984  0.6888
28534SOL     OW89517   5.195   0.682   8.896  0.0743 -0.1613 -0.5907
28534SOL    HW189518   5.208   0.602   8.846  5.5399  0.2073 -0.4098
28534SOL    HW289519   5.190   0.653   8.988 -2.7815 -0.3828 -0.7166
28535SOL     OW89520   9.798   6.851   8.934  0.0906 -0.6608  0.1119
28535SOL    HW189521   9.708   6.857   8.902  0.2348  1.1590 -0.0727
28535SOL    HW289522   9.797   6.780   8.998 -1.9258  0.5122  1.4781
28536SOL     OW89523   2.839   6.511   6.072  0.1338  0.5820  0.0263
28536SOL    HW189524   2.911   6.485   6.015  0.4508  1.6343 -0.0603
28536SOL    HW289525   2.835   6.606   6.065 -1.5500  0.5212 -0.3130
28537SOL     OW89526   7.005   6.435   8.114 -0.2489 -0.0938  0.5980
28537SOL    HW189527   7.026   6.348   8.149  1.3517 -0.1045 -0.2534
28537SOL    HW289528   7.044   6.434   8.026 -2.0614  0.7531 -0.2598
28538SOL     OW89529   8.596   3.711   5.013 -0.0118 -0.6957 -0.6451
28538SOL    HW189530   8.622   3.765   4.939 -1.2441  1.8928  0.6562
28538SOL    HW289531   8.501   3.703   5.004 -0.3406  0.5596  1.1008
28539SOL     OW89532   1.281   8.882   6.866  0.1460 -0.4384 -0.1466
28539SOL    HW189533   1.268   8.952   6.930  1.3876 -1.9002  1.8054
28539SOL    HW289534   1.196   8.838   6.861 -0.5256  0.9147 -1.0849
28540SOL     OW89535   0.337   8.867   7.587 -0.1332 -0.2300  0.2398
28540SOL    HW189536   0.300   8.785   7.553 -0.3698 -0.0311  0.0058
28540SOL    HW289537   0.264   8.929   7.581  0.7797  0.7457 -2.2782
28541SOL     OW89538   2.014   1.120   7.545  0.2171 -0.2203  0.3901
28541SOL    HW189539   2.079   1.107   7.614  0.7790  1.8615  0.3281
28541SOL    HW289540   1.933   1.142   7.592  0.0700 -0.8315  0.4247
28542SOL     OW89541   0.996   3.748   2.462  0.2525  0.2029  0.0532
28542SOL    HW189542   1.026   3.753   2.552  0.8280  0.3515 -0.1459
28542SOL    HW289543   0.908   3.710   2.468  0.2071  0.3992  0.6877
28543SOL     OW89544   0.876   6.182   1.897 -0.1003 -0.4452  0.4256
28543SOL    HW189545   0.904   6.225   1.816 -1.4969  1.3317  0.8251
28543SOL    HW289546   0.958   6.155   1.939  0.8840  1.7524  0.0553
28544SOL     OW89547   4.155   6.150   2.386 -0.0987  0.1076  0.5123
28544SOL    HW189548   4.230   6.194   2.345  1.0540 -1.3955  0.9475
28544SOL    HW289549   4.087   6.152   2.318  0.8124  0.2063 -0.4292
28545SOL     OW89550   4.612   8.267   9.386  0.0045  0.5461 -0.3037
28545SOL    HW189551   4.594   8.180   9.420 -0.2567  0.0701 -1.5917
28545SOL    HW289552   4.634   8.319   9.463 -0.3867 -0.5122  0.5480
28546SOL     OW89553   9.849   9.862   7.494  0.1823  0.1632  0.3211
28546SOL    HW189554   9.790   9.932   7.523  1.5787  0.5427  2.4811
28546SOL    HW289555   9.837   9.858   7.399 -0.3670  2.9555  0.1874
28547SOL     OW89556   4.144   4.592   6.496 -0.6378  0.3900 -0.2380
28547SOL    HW189557   4.125   4.503   6.467  1.0527 -0.0215 -0.1704
28547SOL    HW289558   4.076   4.611   6.561 -0.4902 -1.1948  0.4263
28548SOL     OW89559   6.676   2.355   0.492  0.5332  0.0437 -0.4739
28548SOL    HW189560   6.688   2.437   0.540 -0.2593 -0.5634  0.8123
28548SOL    HW289561   6.684   2.380   0.399 -2.3722  2.1054 -0.3125
28549SOL     OW89562   7.264   5.596  10.009  0.4467 -0.0061 -0.2952
28549SOL    HW189563   7.169   5.596  10.017  0.3404 -0.5090 -1.3203
28549SOL    HW289564   7.281   5.650   9.932  1.0137  0.3690  0.0914
28550SOL     OW89565   2.379   7.664   7.976  0.3407 -0.3292  0.2290
28550SOL    HW189566   2.413   7.595   7.919  1.2713  0.3711 -0.0993
28550SOL    HW289567   2.310   7.706   7.925  1.7811  0.8903 -0.8106
28551SOL     OW89568   5.719   5.666   8.509 -0.2160 -0.0986  0.5983
28551SOL    HW189569   5.679   5.600   8.564  0.7830  0.2212  1.7437
28551SOL    HW289570   5.779   5.714   8.567  1.0613  0.0963 -0.7970
28552SOL     OW89571   0.846   0.632   4.950  0.0950 -0.1810 -0.3389
28552SOL    HW189572   0.863   0.703   4.888  0.8629 -0.1607 -0.1084
28552SOL    HW289573   0.905   0.562   4.923  0.7214 -0.0309  0.6014
28553SOL     OW89574   0.786   1.042   5.862  0.3747 -0.1171 -0.3311
28553SOL    HW189575   0.805   1.076   5.950  2.6806 -0.8227 -0.4944
28553SOL    HW289576   0.809   0.950   5.867 -1.6376 -0.7065 -1.1057
28554SOL     OW89577   0.322   5.504   2.994 -0.5959  0.0570  0.0518
28554SOL    HW189578   0.307   5.421   2.949 -0.8963  0.2383 -0.1874
28554SOL    HW289579   0.258   5.564   2.956 -0.1816  0.4811  0.0107
28555SOL     OW89580   0.939   1.988   3.803  0.5556 -0.7615  0.0140
28555SOL    HW189581   0.945   1.898   3.834 -0.7351 -0.7204  0.4527
28555SOL    HW289582   1.019   2.002   3.753  0.1443 -2.5709 -1.2143
28556SOL     OW89583   6.247   8.194  10.201 -0.6925  0.4628 -0.2855
28556SOL    HW189584   6.170   8.250  10.192  0.4545  2.3231  0.8463
28556SOL    HW289585   6.285   8.192  10.113 -1.7610 -0.1208 -0.7560
28557SOL     OW89586   9.377   1.430   2.862 -0.1584 -0.0733 -0.4150
28557SOL    HW189587   9.341   1.492   2.799  0.0339  0.0658 -0.3916
28557SOL    HW289588   9.308   1.418   2.928 -0.9530 -1.3771 -1.4299
28558SOL     OW89589   3.792   8.937   5.439 -0.6684 -0.4177  0.6859
28558SOL    HW189590   3.741   8.862   5.407 -2.9421  1.1471  0.3584
28558SOL    HW289591   3.739   8.974   5.509  1.0374  0.1468  1.7413
28559SOL     OW89592   5.057   5.843   8.058  0.1989 -0.0422  0.6168
28559SOL    HW189593   5.136   5.861   8.006  0.7075 -1.2131  0.9444
28559SOL    HW289594   5.000   5.918   8.042  2.0577  1.6951  1.6911
28560SOL     OW89595   4.275   8.395   8.586  0.2651 -0.1574  0.4961
28560SOL    HW189596   4.194   8.393   8.637  1.2008  1.2399  2.1612
28560SOL    HW289597   4.251   8.440   8.505 -0.4280  1.2836  1.4443
28561SOL     OW89598   3.669   8.468   1.533 -0.0606  0.1176  0.2084
28561SOL    HW189599   3.698   8.525   1.462  0.9946 -0.5066  0.1276
28561SOL    HW289600   3.750   8.434   1.572 -0.6539 -2.2187 -0.4703
28562SOL     OW89601   6.418   9.101   2.404  0.6306  0.7697 -0.0734
28562SOL    HW189602   6.327   9.082   2.428  0.5654  2.7834  1.5784
28562SOL    HW289603   6.412   9.172   2.340  1.0295  0.4245 -0.4986
28563SOL     OW89604   7.898   4.588   3.570 -0.7858 -0.1420  0.6835
28563SOL    HW189605   7.921   4.663   3.515  1.0049 -0.6463  0.6793
28563SOL    HW289606   7.911   4.512   3.514  1.5975 -0.7129  1.8313
28564SOL     OW89607   3.221   1.571   2.523  0.4636 -0.8060 -0.4340
28564SOL    HW189608   3.274   1.650   2.534 -1.5591  0.8765 -1.8373
28564SOL    HW289609   3.235   1.545   2.432 -0.0670 -1.1473 -0.4240
28565SOL     OW89610   7.799   2.483   2.448  0.4372 -0.0992  0.3375
28565SOL    HW189611   7.818   2.557   2.391 -1.2765  0.1182 -0.0118
28565SOL    HW289612   7.815   2.517   2.537  3.6094 -0.5996  0.0428
28566SOL     OW89613   7.002   9.607   2.273  0.3635 -0.0414  0.2350
28566SOL    HW189614   7.017   9.696   2.242 -0.2943 -0.4240 -1.3214
28566SOL    HW289615   6.932   9.574   2.216 -0.0098 -1.2601  1.3553
28567SOL     OW89616   3.644   6.826   0.307  0.4286 -0.4886  0.7018
28567SOL    HW189617   3.728   6.852   0.345  0.1493  0.1288  0.9125
28567SOL    HW289618   3.579   6.871   0.360 -0.0790 -1.5421  1.0008
28568SOL     OW89619   9.307   3.179   0.800  0.0091 -0.0163 -0.0569
28568SOL    HW189620   9.357   3.260   0.801 -0.9457  0.5939 -0.1209
28568SOL    HW289621   9.216   3.208   0.804 -0.5319 -0.9294 -3.1626
28569SOL     OW89622   0.343   2.229   7.607 -0.3084 -0.3597  0.8044
28569SOL    HW189623   0.377   2.144   7.579 -1.4186 -0.9657  1.2381
28569SOL    HW289624   0.370   2.290   7.538  0.7585 -0.9883  0.6409
28570SOL     OW89625   0.852   8.111   5.493  0.2219  0.0589  0.3181
28570SOL    HW189626   0.781   8.052   5.469 -0.0575  1.4785 -2.9144
28570SOL    HW289627   0.926   8.053   5.513 -0.8445 -1.3895  0.2144
28571SOL     OW89628   4.737  10.125   5.283 -0.6546  0.2869  0.3046
28571SOL    HW189629   4.791  10.178   5.342 -0.0881 -0.3958  0.4032
28571SOL    HW289630   4.788  10.120   5.202 -2.7271  3.8177 -1.4635
28572SOL     OW89631   7.054   2.447   8.009  0.0481  0.2193  0.2130
28572SOL    HW189632   6.970   2.488   8.029 -0.2854 -0.0326 -0.6329
28572SOL    HW289633   7.065   2.460   7.915  1.3216  0.9124  0.4297
28573SOL     OW89634   6.553   8.285   2.952  0.0859  0.3836 -0.2345
28573SOL    HW189635   6.517   8.229   3.021  1.3542 -0.1546  0.0084
28573SOL    HW289636   6.477   8.312   2.901 -0.8682  0.6375  1.2480
28574SOL     OW89637   7.034   7.607   7.664 -0.5283 -0.2570  0.0910
28574SOL    HW189638   7.021   7.698   7.692  0.6922 -0.2536  0.6895
28574SOL    HW289639   6.970   7.558   7.715 -1.0936  0.2343 -0.1237
28575SOL     OW89640   8.544   9.989   6.175  0.1560 -0.2861  0.1297
28575SOL    HW189641   8.612  10.022   6.233  1.5295 -1.0894 -0.9555
28575SOL    HW289642   8.523   9.902   6.210  0.5166 -0.5025 -0.1819
28576SOL     OW89643   5.131   6.086   9.028  0.4538  0.7974  0.9913
28576SOL    HW189644   5.128   5.991   9.019 -2.4124  0.7256  1.6708
28576SOL    HW289645   5.188   6.115   8.957  0.0827 -1.3282 -0.2632
28577SOL     OW89646   9.425   1.427   9.028 -0.1653  0.5387 -0.1085
28577SOL    HW189647   9.454   1.496   8.969 -0.6376  1.3442  0.5795
28577SOL    HW289648   9.476   1.350   9.003  0.6712  1.2474 -0.6041
28578SOL     OW89649  10.065   0.832   1.021 -0.3252  0.0373  0.3136
28578SOL    HW189650   9.991   0.878   0.981  0.2387 -0.3520 -1.2835
28578SOL    HW289651  10.049   0.739   1.002  1.2463  0.0431 -1.3967
28579SOL     OW89652   5.224   4.584   8.394 -0.0669  0.0570  0.5366
28579SOL    HW189653   5.156   4.555   8.333  0.2451 -0.7999  0.5805
28579SOL    HW289654   5.268   4.503   8.421  0.3979  0.5173  1.1882
28580SOL     OW89655   8.931   5.812   5.406 -0.2380  0.0456 -0.9369
28580SOL    HW189656   8.879   5.883   5.443  2.6365  2.1872 -0.6010
28580SOL    HW289657   8.914   5.815   5.312 -0.1117  1.2807 -0.9371
28581SOL     OW89658   8.879   8.566   8.950 -0.0013 -0.4147 -0.3381
28581SOL    HW189659   8.806   8.599   9.002 -0.6885 -2.0873 -0.1733
28581SOL    HW289660   8.885   8.626   8.876 -1.3499 -0.0663 -0.1919
28582SOL     OW89661   3.936   1.836   8.336  0.9091 -0.0924  0.1330
28582SOL    HW189662   3.854   1.874   8.369  0.2755 -1.1112 -0.2093
28582SOL    HW289663   3.907   1.762   8.281  1.9624  0.8472 -1.7758
28583SOL     OW89664   7.504   7.395   1.125 -0.0892 -0.0699 -0.5478
28583SOL    HW189665   7.471   7.471   1.174  0.6479 -1.0151  1.5141
28583SOL    HW289666   7.434   7.375   1.063 -1.7125  0.3782  1.0283
28584SOL     OW89667   6.824  10.001   3.026  0.4507 -0.4764 -0.0578
28584SOL    HW189668   6.744  10.034   2.985  0.6845 -1.6527 -1.5875
28584SOL    HW289669   6.805  10.000   3.120 -1.6049 -1.3597 -0.4319
28585SOL     OW89670   9.933   0.916   7.607  0.2675  0.1855  0.2294
28585SOL    HW189671   9.838   0.920   7.592  0.6182 -0.3359 -2.6235
28585SOL    HW289672   9.962   1.006   7.599  0.2745  0.0707 -1.4444
28586SOL     OW89673   3.503   1.087   3.407 -0.3723  0.1868 -0.5261
28586SOL    HW189674   3.512   1.153   3.475 -1.9796 -1.4703  1.4333
28586SOL    HW289675   3.505   1.003   3.453 -1.1128 -1.0411 -2.5531
28587SOL     OW89676   7.807   1.036   1.985  0.0708  0.2910  0.4030
28587SOL    HW189677   7.745   0.964   1.982 -2.1298  2.1270 -1.1518
28587SOL    HW289678   7.852   1.033   1.901 -0.5144  1.1086  0.0518
28588SOL     OW89679   3.254   5.362   2.161 -0.2772  0.2491 -0.3720
28588SOL    HW189680   3.270   5.379   2.068 -0.6239  1.1691 -0.2756
28588SOL    HW289681   3.193   5.289   2.161  0.3268 -0.2672 -0.8451
28589SOL     OW89682   6.358   4.192   1.042 -0.1846 -0.4242  0.1846
28589SOL    HW189683   6.313   4.229   1.118  0.8596 -0.1302  0.6705
28589SOL    HW289684   6.342   4.256   0.972 -0.8285 -0.5058  0.2536
28590SOL     OW89685   5.339   3.717   8.615  0.6221  0.4974  0.0297
28590SOL    HW189686   5.321   3.665   8.693  0.1950  0.3102 -0.1935
28590SOL    HW289687   5.347   3.653   8.545 -0.1219  0.7421 -0.2847
28591SOL     OW89688   0.925   5.979   9.128  0.0480  0.7710 -0.5426
28591SOL    HW189689   0.861   5.995   9.197  0.5624 -0.0762  0.1478
28591SOL    HW289690   1.009   5.980   9.173  0.6209  2.4641 -1.5177
28592SOL     OW89691   1.578   5.456   5.731  0.7224  0.0764 -0.1615
28592SOL    HW189692   1.580   5.459   5.827  3.5423  1.5994 -0.1440
28592SOL    HW289693   1.532   5.535   5.705  0.9861  0.2721 -0.0391
28593SOL     OW89694   6.962   5.656   4.578 -0.7171 -0.1634  0.1458
28593SOL    HW189695   6.944   5.645   4.485 -0.0516 -0.6671  0.0733
28593SOL    HW289696   7.033   5.594   4.597 -1.9512 -1.2827  1.3415
28594SOL     OW89697   2.916   9.569   2.806  0.0422  0.0622  0.8797
28594SOL    HW189698   2.940   9.483   2.771  0.4101  0.4229  0.2275
28594SOL    HW289699   2.994   9.623   2.795 -0.7493  1.0085 -0.4324
28595SOL     OW89700   5.991   2.697   8.676  0.2908 -0.4412 -0.3470
28595SOL    HW189701   6.048   2.667   8.606  1.0260 -1.5322  0.6762
28595SOL    HW289702   5.925   2.628   8.686  0.2878 -0.3773  0.1248
28596SOL     OW89703   9.386   8.045   2.530  0.0154  0.4550 -0.3667
28596SOL    HW189704   9.473   8.012   2.506 -0.1964  0.1378 -0.6973
28596SOL    HW289705   9.341   7.968   2.566 -0.1106  0.6314 -0.1480
28597SOL     OW89706   7.183   7.310   7.901 -0.6251  0.3383  0.0580
28597SOL    HW189707   7.180   7.298   7.995 -0.9634  1.9508  0.2809
28597SOL    HW289708   7.100   7.351   7.878 -0.8803 -0.7539 -1.0665
28598SOL     OW89709   9.839   3.402   5.525  0.0055 -0.0626 -0.0632
28598SOL    HW189710   9.905   3.383   5.457  0.4290 -1.8324  0.7928
28598SOL    HW289711   9.799   3.317   5.544 -2.3322  0.9066 -0.2935
28599SOL     OW89712   7.438   4.978   6.538 -0.1345  0.1295 -0.5452
28599SOL    HW189713   7.353   4.934   6.525 -0.1995  0.7381 -2.4363
28599SOL    HW289714   7.417   5.071   6.540  0.4835  0.2920 -1.1689
28600SOL     OW89715   3.075   1.003   8.809 -0.0816  0.2043 -0.3623
28600SOL    HW189716   3.012   0.988   8.880  0.1743  1.1716  0.0816
28600SOL    HW289717   3.133   0.927   8.812 -1.0675 -0.5768 -0.6142
28601SOL     OW89718   3.933   2.912   9.964 -0.2672  0.4278  0.0312
28601SOL    HW189719   3.908   2.940   9.876  2.3334 -0.0604 -0.9714
28601SOL    HW289720   3.915   2.818   9.965  0.0136  0.3699 -0.1252
28602SOL     OW89721   5.638   0.570   2.489  0.0993  0.0016 -0.0169
28602SOL    HW189722   5.581   0.619   2.549  2.3362  0.3929  1.9314
28602SOL    HW289723   5.671   0.497   2.542  1.1125 -0.4201 -1.1964
28603SOL     OW89724   1.889   7.140   0.207  0.2402 -0.0411  0.2173
28603SOL    HW189725   1.859   7.190   0.131  1.9141 -0.1341 -0.5517
28603SOL    HW289726   1.809   7.112   0.250 -0.8031 -0.8322 -2.0699
28604SOL     OW89727   4.120   0.061   0.307  0.3768 -0.0421  0.0054
28604SOL    HW189728   4.052   0.100   0.362 -0.6706 -0.5956 -0.8447
28604SOL    HW289729   4.153   0.134   0.255 -1.8112 -0.2232 -1.8243
28605SOL     OW89730   0.593   4.096   4.035  0.5891 -0.1944 -0.2335
28605SOL    HW189731   0.582   4.192   4.033 -1.0760 -0.3485  0.0460
28605SOL    HW289732   0.614   4.073   3.945  2.1030  0.5310 -0.0937
28606SOL     OW89733   3.558   4.475   2.166  0.3972 -0.1808 -0.3710
28606SOL    HW189734   3.631   4.483   2.228 -0.1523 -1.1232  0.4324
28606SOL    HW289735   3.587   4.524   2.089  1.7019 -0.1741  0.0855
28607SOL     OW89736   2.735   0.889   4.069  0.4365  0.1237  0.0721
28607SOL    HW189737   2.760   0.981   4.060 -1.0945  0.4394 -1.4106
28607SOL    HW289738   2.713   0.861   3.980  0.8990 -1.7048  0.4843
28608SOL     OW89739   2.132   8.469   3.507 -0.0629 -0.0873  0.6088
28608SOL    HW189740   2.130   8.552   3.555  2.3632 -1.2361  2.9555
28608SOL    HW289741   2.092   8.406   3.567  0.5460 -1.0805  0.0006
28609SOL     OW89742   8.785   9.464   9.486 -0.1842 -0.0572  0.1721
28609SOL    HW189743   8.847   9.528   9.523 -0.9740  0.8958 -0.1077
28609SOL    HW289744   8.747   9.421   9.562  1.5033 -1.3742  0.3469
28610SOL     OW89745   1.757   8.581   1.921  0.4742 -0.2803  0.4213
28610SOL    HW189746   1.711   8.648   1.871  0.0163 -0.6695  0.3148
28610SOL    HW289747   1.691   8.515   1.939  0.7072 -0.2896  1.2894
28611SOL     OW89748   7.624   6.245   9.914 -0.1503 -0.4158 -0.1731
28611SOL    HW189749   7.692   6.263   9.979  0.1008  0.7583 -0.7364
28611SOL    HW289750   7.544   6.236   9.965  0.1022  0.1339  0.3378
28612SOL     OW89751   9.043   2.648   1.014  0.0630  0.5082 -0.4101
28612SOL    HW189752   9.092   2.625   0.935  1.7044 -0.2531  0.7684
28612SOL    HW289753   9.086   2.726   1.048 -0.5603  0.7692 -0.1917
28613SOL     OW89754   6.698   9.663   6.358  0.7624 -0.1984 -0.6725
28613SOL    HW189755   6.629   9.661   6.291  0.3595 -0.2550 -0.2659
28613SOL    HW289756   6.749   9.584   6.342 -0.5704 -1.3100  0.3556
28614SOL     OW89757   6.038   6.209   0.520 -0.0507 -0.3682 -0.4653
28614SOL    HW189758   6.016   6.289   0.568  1.6956  0.0930 -0.3711
28614SOL    HW289759   6.108   6.235   0.460  0.5661 -1.8270 -0.4294
28615SOL     OW89760   8.178   2.844   3.031  0.1585 -0.2321  0.0199
28615SOL    HW189761   8.218   2.886   3.107 -1.6366 -0.2459  1.0334
28615SOL    HW289762   8.084   2.844   3.051 -0.1909 -1.7617 -1.4417
28616SOL     OW89763   8.246   1.672   1.954 -0.3891 -0.6534 -0.0698
28616SOL    HW189764   8.276   1.750   2.001  0.2279  0.0395 -1.5802
28616SOL    HW289765   8.254   1.601   2.019  1.1153  0.1483  0.6757
28617SOL     OW89766   3.830   7.328   0.655  0.6072 -0.0400 -0.4603
28617SOL    HW189767   3.919   7.295   0.648  0.8355  0.7400 -1.4505
28617SOL    HW289768   3.812   7.367   0.569  0.5350  2.8214  0.7548
28618SOL     OW89769   7.430   8.570   3.510 -0.4163 -0.3691  0.4375
28618SOL    HW189770   7.407   8.658   3.537 -0.3019 -0.2037  0.0036
28618SOL    HW289771   7.371   8.550   3.437 -0.9368 -0.9301  0.9975
28619SOL     OW89772   7.044   2.735   0.370  0.8680 -0.3393 -0.7817
28619SOL    HW189773   7.101   2.731   0.294  0.3160 -2.3401 -1.1540
28619SOL    HW289774   7.102   2.723   0.445  1.1218 -0.9550 -1.0716
28620SOL     OW89775  10.151   0.779   5.862  0.5974  0.3076 -0.3902
28620SOL    HW189776  10.124   0.735   5.781  2.6019 -0.7836 -0.5373
28620SOL    HW289777  10.222   0.837   5.835 -1.3349  3.0664 -0.0258
28621SOL     OW89778   2.675   4.603   3.147 -0.0397  0.0524  0.2986
28621SOL    HW189779   2.677   4.509   3.129  2.7005  0.0179  0.4412
28621SOL    HW289780   2.661   4.643   3.061 -1.6854 -0.4365  0.2973
28622SOL     OW89781   5.223   8.226   5.574  0.2265 -0.4323  0.2691
28622SOL    HW189782   5.311   8.189   5.584 -0.0671 -1.1794  0.1451
28622SOL    HW289783   5.173   8.157   5.532  0.2438  0.9484 -2.1988
28623SOL     OW89784   4.680   4.463   9.392  0.3726 -0.4797 -0.2500
28623SOL    HW189785   4.733   4.538   9.418  0.2161 -0.1298 -0.9113
28623SOL    HW289786   4.706   4.394   9.452  2.2356 -0.5859 -1.0840
28624SOL     OW89787   5.149   3.419   2.728  0.2776  0.8505 -0.3381
28624SOL    HW189788   5.078   3.424   2.792  0.4843 -0.3682  0.0276
28624SOL    HW289789   5.112   3.370   2.655  0.9971 -0.6831  0.2775
28625SOL     OW89790   0.627   2.043   1.213 -0.8534 -0.6522 -0.0248
28625SOL    HW189791   0.566   2.116   1.225 -1.4055 -0.5192 -2.9062
28625SOL    HW289792   0.696   2.059   1.277 -0.0312  3.4287 -1.6150
28626SOL     OW89793   4.527   6.496   0.708 -0.1839  0.0602 -0.0037
28626SOL    HW189794   4.533   6.447   0.627 -1.0842 -0.7345  0.3850
28626SOL    HW289795   4.476   6.574   0.686 -4.9253 -2.4700  0.6915
28627SOL     OW89796   5.635   1.424   8.235  0.3239  0.1599  0.1411
28627SOL    HW189797   5.590   1.363   8.177  0.7063 -0.4039  0.4308
28627SOL    HW289798   5.613   1.511   8.200  2.4004 -0.1840 -2.2363
28628SOL     OW89799   6.791   3.869   9.408  0.1630  0.0747  0.1637
28628SOL    HW189800   6.856   3.814   9.364 -0.1793 -1.8526  1.9135
28628SOL    HW289801   6.718   3.875   9.347 -0.3562 -2.6265  0.4219
28629SOL     OW89802   8.826   8.975   4.103 -0.2400 -0.2232  0.1167
28629SOL    HW189803   8.818   9.066   4.075  0.3620 -0.2786 -0.2419
28629SOL    HW289804   8.882   8.977   4.180  2.0134 -0.5396 -1.4308
28630SOL     OW89805   2.550  10.097   4.069  0.5827 -0.1480 -0.3358
28630SOL    HW189806   2.633  10.064   4.035  1.1826  1.2348 -0.2900
28630SOL    HW289807   2.483  10.052   4.018  1.3660 -0.9050 -0.7289
28631SOL     OW89808   4.263   9.015   1.346 -0.2439  0.2220 -0.6366
28631SOL    HW189809   4.343   8.983   1.303 -0.0105  0.4085 -0.3455
28631SOL    HW289810   4.218   8.935   1.374  1.2220  0.1142  1.7007
28632SOL     OW89811   9.503   4.747   5.593  0.2475  0.9796 -0.3223
28632SOL    HW189812   9.563   4.700   5.536  1.0131 -0.0115  1.2132
28632SOL    HW289813   9.464   4.814   5.537 -0.1646 -0.8596 -2.3545
28633SOL     OW89814   6.304   7.290   5.651  0.3440  0.2701 -0.0201
28633SOL    HW189815   6.245   7.221   5.622  0.0020  0.6806 -0.3127
28633SOL    HW289816   6.246   7.363   5.675  0.7877  2.0428 -3.7333
28634SOL     OW89817   5.750   1.056   1.464  0.3510  0.5564 -0.2593
28634SOL    HW189818   5.747   1.005   1.383  0.2747  2.3156 -1.4180
28634SOL    HW289819   5.843   1.067   1.483  0.4539 -2.3867  1.6599
28635SOL     OW89820   2.621   8.662   5.417  0.9917 -0.5793 -0.0895
28635SOL    HW189821   2.565   8.648   5.494  0.4338  0.7550 -0.2180
28635SOL    HW289822   2.645   8.755   5.422  2.6912 -0.9644 -0.3898
28636SOL     OW89823   3.666   7.050   6.222  0.0370 -0.0962  0.1983
28636SOL    HW189824   3.680   6.974   6.165  0.0153  0.3096 -0.3666
28636SOL    HW289825   3.586   7.091   6.189  1.3133  1.5242 -1.0973
28637SOL     OW89826   5.869   0.522   3.934  0.0173 -0.4539  0.0604
28637SOL    HW189827   5.951   0.567   3.914 -0.5333  1.0521  1.0402
28637SOL    HW289828   5.895   0.431   3.947  1.5014 -0.0483  0.1926
28638SOL     OW89829   1.091   7.833   3.097 -0.6820 -0.1632 -0.2730
28638SOL    HW189830   1.049   7.791   3.172 -1.0698  0.1647 -0.3054
28638SOL    HW289831   1.127   7.760   3.046  0.0689 -0.3604  0.5146
28639SOL     OW89832   3.405   1.911   0.090 -0.2761 -0.0041 -0.3374
28639SOL    HW189833   3.334   1.962   0.128 -0.0996  0.5578 -0.7437
28639SOL    HW289834   3.459   1.884   0.164 -0.6414 -0.0165 -0.0769
28640SOL     OW89835   8.413   9.095   1.401 -0.4540 -0.1409  0.2177
28640SOL    HW189836   8.321   9.069   1.392 -0.6536  0.5081  0.3591
28640SOL    HW289837   8.454   9.021   1.447 -0.9805 -0.2804  0.4697
28641SOL     OW89838   2.784   4.151   0.253 -0.2022  0.0106  0.4073
28641SOL    HW189839   2.706   4.181   0.206 -0.8590 -1.5276  0.4213
28641SOL    HW289840   2.826   4.089   0.193  1.3181  1.1916  0.2004
28642SOL     OW89841   2.417   8.578   8.107  0.5391  0.4453  0.1538
28642SOL    HW189842   2.403   8.665   8.145 -1.4388  0.5352 -0.7068
28642SOL    HW289843   2.331   8.537   8.105  1.0659 -0.7111 -1.4659
28643SOL     OW89844   7.375   0.167   8.826  0.6174 -0.0050 -0.3705
28643SOL    HW189845   7.330   0.192   8.746  0.6142  0.1305 -0.3261
28643SOL    HW289846   7.306   0.125   8.879  0.3725  0.8039 -0.0205
28644SOL     OW89847   4.879   5.673   4.926 -0.3966  0.0346 -0.4149
28644SOL    HW189848   4.828   5.754   4.925 -0.1944  0.1623 -0.4027
28644SOL    HW289849   4.850   5.627   5.005  0.7004  0.8674  0.4884
28645SOL     OW89850   7.497   7.621   1.264  0.0931 -0.0366 -0.1933
28645SOL    HW189851   7.546   7.703   1.262 -0.4615  0.3523 -3.1312
28645SOL    HW289852   7.489   7.600   1.357  2.5208  1.8276  0.5482
28646SOL     OW89853   0.307   1.940   6.590 -0.4884 -0.0067  0.1402
28646SOL    HW189854   0.266   1.952   6.675  1.3823 -1.2321  1.3081
28646SOL    HW289855   0.273   1.857   6.558  0.6056 -0.7722  0.8770
28647SOL     OW89856   8.694   8.478   6.790  0.1553  0.2421 -0.0449
28647SOL    HW189857   8.755   8.527   6.845 -0.5588  0.3606  0.6690
28647SOL    HW289858   8.654   8.414   6.850  0.8435 -1.0171 -0.8902
28648SOL     OW89859   6.414   4.566   1.933 -0.4451 -0.7211  0.0102
28648SOL    HW189860   6.427   4.472   1.950 -0.8622 -0.7818  0.0070
28648SOL    HW289861   6.325   4.583   1.963 -1.7005 -1.0787 -3.0871
28649SOL     OW89862   6.174   2.728   1.549  0.4534 -0.1992  0.1042
28649SOL    HW189863   6.100   2.772   1.590 -1.9105 -2.4817 -1.4006
28649SOL    HW289864   6.182   2.769   1.463  0.4643 -0.4642 -0.0203
28650SOL     OW89865   4.438   1.291   8.206 -0.3232 -0.3212 -0.0150
28650SOL    HW189866   4.442   1.203   8.170  0.1445 -0.0363 -0.6781
28650SOL    HW289867   4.466   1.348   8.134  0.0974  0.3040  0.6264
28651SOL     OW89868   7.605   3.372   9.375 -0.1816  0.2088  0.2796
28651SOL    HW189869   7.646   3.289   9.399 -1.4367 -0.3314  0.6312
28651SOL    HW289870   7.647   3.437   9.431  0.5881 -0.2303  0.2215
28652SOL     OW89871  10.091  10.068   8.444 -0.4931  0.2735  0.5092
28652SOL    HW189872  10.097  10.154   8.485  0.6772  0.8781 -0.8272
28652SOL    HW289873  10.153  10.014   8.492 -0.2499  0.5516  0.5099
28653SOL     OW89874   9.280   9.060   0.381 -0.1582 -0.0967  0.1798
28653SOL    HW189875   9.252   8.978   0.420  1.8456 -0.1962  1.5551
28653SOL    HW289876   9.316   9.110   0.455 -2.1796  2.4514 -0.4175
28654SOL     OW89877   7.877   6.527   4.903  0.4276 -0.8577 -0.3301
28654SOL    HW189878   7.853   6.594   4.840 -1.1455 -1.7654 -0.7593
28654SOL    HW289879   7.810   6.533   4.971 -0.3783 -2.6436 -0.8994
28655SOL     OW89880   1.711   2.824   9.439 -0.1799  0.2144  0.3911
28655SOL    HW189881   1.657   2.867   9.505 -0.3899  1.0771 -0.3246
28655SOL    HW289882   1.651   2.765   9.393 -0.1790  0.0947  0.5431
28656SOL     OW89883   4.446   8.218   8.165 -0.0165  0.1159 -0.0368
28656SOL    HW189884   4.356   8.230   8.196 -0.2719 -0.4094 -0.5521
28656SOL    HW289885   4.488   8.303   8.177 -0.4369  0.2241  0.6802
28657SOL     OW89886   8.060   2.556  10.207 -0.1118 -0.3462 -0.9992
28657SOL    HW189887   7.997   2.628  10.205 -0.4741 -0.6678 -1.2210
28657SOL    HW289888   8.037   2.502  10.132 -0.5242 -1.2655 -0.2265
28658SOL     OW89889   7.267   3.899   2.001 -0.2368 -0.4296  0.2877
28658SOL    HW189890   7.287   3.930   1.913 -4.1860 -1.4822 -1.1729
28658SOL    HW289891   7.351   3.866   2.034  1.6977  1.3349 -2.4184
28659SOL     OW89892   1.638   0.321   2.760 -0.0186 -0.4834  0.0173
28659SOL    HW189893   1.631   0.234   2.799 -0.3399 -0.7947 -0.7270
28659SOL    HW289894   1.732   0.335   2.750  0.0252 -0.8599 -0.1224
28660SOL     OW89895   9.928   8.659   0.662 -0.6817  0.1749 -0.5462
28660SOL    HW189896   9.965   8.676   0.576 -0.4125  1.3376 -0.2122
28660SOL    HW289897   9.979   8.584   0.695  1.8725  2.0793  0.1488
28661SOL     OW89898   0.072   3.537   0.291  0.0226  0.2675 -0.3696
28661SOL    HW189899   0.041   3.447   0.303 -0.3861  0.6912  2.7656
28661SOL    HW289900  -0.004   3.591   0.312  0.2889  1.3760 -2.1199
28662SOL     OW89901   8.621   3.468   1.076 -0.1324  0.0319 -0.1387
28662SOL    HW189902   8.645   3.376   1.066 -0.3396 -0.0102 -0.2750
28662SOL    HW289903   8.525   3.468   1.074 -0.1456  0.2081  0.2416
28663SOL     OW89904   9.884   1.722   3.109  0.0545 -0.6512  0.0156
28663SOL    HW189905   9.874   1.815   3.127 -0.2295 -0.4000 -1.2861
28663SOL    HW289906   9.830   1.679   3.175 -1.9918  0.2645 -0.9437
28664SOL     OW89907   1.420   7.708   7.929 -0.0957 -0.1684  0.7160
28664SOL    HW189908   1.393   7.799   7.940  2.3096  0.4149  2.8998
28664SOL    HW289909   1.390   7.664   8.009  1.3173 -0.5264  1.0827
28665SOL     OW89910   3.550   0.278   0.510  0.0270 -0.0353 -0.2010
28665SOL    HW189911   3.468   0.321   0.487 -0.1379  0.2221  0.7982
28665SOL    HW289912   3.616   0.346   0.504  0.0406 -0.0522 -0.2451
28666SOL     OW89913   9.898   4.478   5.612  0.1698  0.1596 -0.0706
28666SOL    HW189914   9.982   4.479   5.568  0.5856  0.2121  0.7054
28666SOL    HW289915   9.896   4.559   5.663  0.0365 -0.2606  0.6067
28667SOL     OW89916   9.183   7.319   3.871  0.3227 -0.4904  0.2735
28667SOL    HW189917   9.116   7.325   3.940  0.1751  0.5769  0.0473
28667SOL    HW289918   9.138   7.346   3.791  0.5833 -1.3985 -0.2012
28668SOL     OW89919   7.110   2.456   8.935  0.3404 -0.8577  0.5334
28668SOL    HW189920   7.060   2.533   8.961  3.4032  1.8395 -0.7911
28668SOL    HW289921   7.174   2.443   9.005  1.8887 -0.0569 -0.6353
28669SOL     OW89922   2.061   9.106   4.705 -0.5085 -0.4255 -0.1986
28669SOL    HW189923   2.015   9.072   4.628 -1.5551  0.6699 -0.0890
28669SOL    HW289924   2.018   9.189   4.724  1.0343  0.2730  0.3959
28670SOL     OW89925   0.779   5.774   0.108 -0.1248 -0.1401 -0.3184
28670SOL    HW189926   0.818   5.763   0.195  0.3240 -1.0543 -0.6298
28670SOL    HW289927   0.788   5.867   0.089  1.9877 -0.3273 -0.4206
28671SOL     OW89928   6.138   6.912   0.456 -0.5603  0.0144 -0.1414
28671SOL    HW189929   6.108   6.989   0.504  1.6004 -0.3645  2.0370
28671SOL    HW289930   6.190   6.948   0.384  0.9367  0.6963  1.1975
28672SOL     OW89931   0.656   3.856   0.566 -0.3033 -0.2051  0.7805
28672SOL    HW189932   0.746   3.830   0.583 -0.4959 -1.9503 -0.5911
28672SOL    HW289933   0.634   3.916   0.638  1.9071  0.2285  1.1456
28673SOL     OW89934   4.236   4.433   6.131 -0.3212  0.5243  0.5189
28673SOL    HW189935   4.280   4.369   6.187 -0.6099 -0.4154 -0.3088
28673SOL    HW289936   4.268   4.518   6.163  0.4075 -0.0403  1.3455
28674SOL     OW89937   1.170   1.768   2.701  0.7601 -0.1170 -0.1993
28674SOL    HW189938   1.138   1.703   2.640  0.1224 -0.6306  0.6529
28674SOL    HW289939   1.113   1.759   2.778  1.4528  0.5885  0.4208
28675SOL     OW89940   0.899   0.245   8.495  0.2649 -0.3889 -0.2161
28675SOL    HW189941   0.878   0.245   8.402  0.3592 -0.4240 -0.2379
28675SOL    HW289942   0.853   0.169   8.531 -0.0607 -0.1670 -0.1669
28676SOL     OW89943   8.091   8.175   1.166 -0.3154 -0.7042 -0.0087
28676SOL    HW189944   8.074   8.199   1.075 -0.4180  1.4248  0.5331
28676SOL    HW289945   8.016   8.122   1.192 -2.0760  1.5616 -0.1717
28677SOL     OW89946   4.055   2.147   2.927 -0.4143 -0.2547 -0.1547
28677SOL    HW189947   4.014   2.088   2.863  1.5151 -1.1368 -0.6514
28677SOL    HW289948   4.000   2.226   2.926 -0.3653 -0.1782 -3.0212
28678SOL     OW89949   0.842   0.042   8.922 -0.0854 -0.4978  0.1553
28678SOL    HW189950   0.866   0.127   8.885 -0.3271 -0.1631  0.7657
28678SOL    HW289951   0.837  -0.016   8.846  1.7609 -0.3809 -0.1044
28679SOL     OW89952   7.004   7.794   2.662  0.0787  0.0276 -0.5979
28679SOL    HW189953   6.969   7.772   2.576  1.0960 -1.5109 -0.6625
28679SOL    HW289954   6.941   7.856   2.699 -0.4457  0.6076 -2.3785
28680SOL     OW89955   9.041   1.422   9.266 -0.0221 -0.0434  0.8686
28680SOL    HW189956   9.055   1.505   9.312 -1.1847  0.9066 -0.3837
28680SOL    HW289957   8.994   1.367   9.329 -1.7485  1.2918  0.8238
28681SOL     OW89958   7.660   4.966   2.934  0.4172  0.1361 -0.2931
28681SOL    HW189959   7.753   4.978   2.917  0.3366 -1.4500 -2.2382
28681SOL    HW289960   7.618   5.041   2.892  0.7922  1.0612  0.9157
28682SOL     OW89961   7.358   4.242   1.802 -0.0616  0.2555 -0.4930
28682SOL    HW189962   7.314   4.291   1.733  0.3380 -0.3483 -1.1939
28682SOL    HW289963   7.313   4.267   1.883 -0.5783  0.9197 -0.9821
28683SOL     OW89964   1.488   6.471   4.957  0.3575  0.0083 -0.1622
28683SOL    HW189965   1.416   6.464   4.894 -0.5605 -1.7393  0.9895
28683SOL    HW289966   1.462   6.543   5.014  0.6043  0.8119 -1.0521
28684SOL     OW89967   0.223   7.275   2.091  0.1658 -0.0926  0.3630
28684SOL    HW189968   0.231   7.180   2.089  2.4208  0.0323 -1.4547
28684SOL    HW289969   0.304   7.304   2.135  0.3592  0.9978 -0.6643
28685SOL     OW89970   5.039   6.534   7.165 -0.0898  0.0790  0.7304
28685SOL    HW189971   4.981   6.558   7.093 -1.8214 -0.6934  1.8065
28685SOL    HW289972   5.090   6.614   7.182 -1.1518  0.9393  0.0488
28686SOL     OW89973   6.311   0.242   1.647 -0.0518 -0.5781 -0.0692
28686SOL    HW189974   6.322   0.147   1.635 -0.3899 -0.4762 -1.3748
28686SOL    HW289975   6.354   0.280   1.570  1.4969  0.4297  1.2380
28687SOL     OW89976   8.916   9.436   8.502 -0.0495  0.0657 -0.4063
28687SOL    HW189977   8.824   9.454   8.519 -0.5288 -1.1470 -1.5971
28687SOL    HW289978   8.954   9.422   8.588 -0.8164  1.2466  0.1495
28688SOL     OW89979   5.751   6.781   4.979  0.0994 -0.1916 -0.0106
28688SOL    HW189980   5.764   6.772   5.074  2.5397 -1.0618 -0.3597
28688SOL    HW289981   5.732   6.693   4.949 -0.1510 -0.0052 -0.4085
28689SOL     OW89982   6.788   6.808   3.685 -0.1256  0.0234 -0.0699
28689SOL    HW189983   6.860   6.868   3.703  0.7226 -0.8304 -0.4923
28689SOL    HW289984   6.709   6.863   3.685  0.6596  1.1799 -0.7538
28690SOL     OW89985   0.677   9.823   6.506  0.0520 -0.3102  0.0328
28690SOL    HW189986   0.765   9.838   6.540 -0.2900  1.6698  0.1581
28690SOL    HW289987   0.644   9.748   6.555  1.1767 -0.2228  0.9367
28691SOL     OW89988   1.714   6.611  10.055  0.0128  0.2599 -0.3670
28691SOL    HW189989   1.647   6.583   9.992 -0.4305 -0.1394  0.2747
28691SOL    HW289990   1.796   6.581  10.016 -0.3645 -1.0779 -0.1875
28692SOL     OW89991   9.461   4.103   2.130 -0.4635 -0.3024  0.1211
28692SOL    HW189992   9.406   4.177   2.156 -1.2175 -0.4559 -0.9589
28692SOL    HW289993   9.549   4.127   2.158 -0.8064  0.7240  0.3455
28693SOL     OW89994   9.657   1.345   1.650  0.0860  0.8857 -0.0335
28693SOL    HW189995   9.609   1.335   1.732  0.2913  0.0229 -0.0156
28693SOL    HW289996   9.638   1.435   1.623 -0.8593  0.8365  0.4005
28694SOL     OW89997   0.311   4.135   3.383 -0.6698 -0.1171  0.2923
28694SOL    HW189998   0.227   4.129   3.337 -0.5754 -0.3805  0.1531
28694SOL    HW289999   0.313   4.225   3.416 -0.0687  0.5763 -1.5032
28695SOL     OW90000   8.690   9.507   9.082  0.0096 -0.3984 -0.0124
28695SOL    HW190001   8.619   9.551   9.128  1.1944  0.7039  0.8132
28695SOL    HW290002   8.683   9.539   8.992 -0.7951 -0.6580 -0.0551
28696SOL     OW90003   4.669   0.884   1.825 -0.1537  0.0191 -0.0571
28696SOL    HW190004   4.676   0.793   1.797 -1.6205 -0.4946  1.1401
28696SOL    HW290005   4.592   0.886   1.883  0.5063  1.7888  0.8322
28697SOL     OW90006   6.392   4.810   8.103  0.5058 -0.3808  0.0820
28697SOL    HW190007   6.480   4.772   8.094  1.7003  1.9458  1.0994
28697SOL    HW290008   6.381   4.866   8.027  0.2405 -0.0454  0.3606
28698SOL     OW90009   5.424   0.386   4.832 -0.4339  0.6558 -0.8358
28698SOL    HW190010   5.453   0.318   4.771 -1.3072  1.6019 -2.3687
28698SOL    HW290011   5.505   0.425   4.864  0.1653 -1.8926  1.1149
28699SOL     OW90012   9.381   6.131   6.985  0.1802  0.2676 -0.0955
28699SOL    HW190013   9.437   6.115   7.061  0.3049  0.9339 -0.0373
28699SOL    HW290014   9.358   6.044   6.953  1.6762 -0.0377 -0.4318
28700SOL     OW90015   4.443   3.834   8.013 -0.5750 -0.5291 -0.1228
28700SOL    HW190016   4.443   3.819   8.107  1.4671 -0.4681 -0.0761
28700SOL    HW290017   4.457   3.928   8.003 -1.2933 -0.4564 -0.4931
28701SOL     OW90018   7.248   9.726   5.573 -0.5045 -0.3066 -0.0283
28701SOL    HW190019   7.246   9.820   5.589 -0.2423 -0.7307  3.0727
28701SOL    HW290020   7.330   9.697   5.613 -0.2443 -1.8077 -1.5305
28702SOL     OW90021   9.605   2.964   6.404  0.1128 -0.2625  0.2855
28702SOL    HW190022   9.691   2.935   6.373 -1.0653 -4.5066  0.3326
28702SOL    HW290023   9.610   2.955   6.499  0.1082  1.2178  0.4421
28703SOL     OW90024   3.017   1.033   5.322  0.7859 -0.1688  0.2862
28703SOL    HW190025   3.047   1.121   5.348  1.2847  0.0218 -0.8578
28703SOL    HW290026   3.090   0.976   5.343  1.8651  0.2283 -2.0822
28704SOL     OW90027   9.411   5.989   9.248 -0.1263  0.3582  0.3484
28704SOL    HW190028   9.335   5.956   9.296  0.2677  0.8903  1.3430
28704SOL    HW290029   9.431   6.073   9.287  0.1373  0.8697 -0.8321
28705SOL     OW90030   8.657   0.737   5.998  0.7117  0.7634  0.4093
28705SOL    HW190031   8.681   0.829   5.988  0.6739  0.7582  0.2698
28705SOL    HW290032   8.644   0.705   5.908  0.2144  0.7586  0.4814
28706SOL     OW90033   9.742   8.937   0.224 -0.0901  0.4676 -0.2092
28706SOL    HW190034   9.693   9.001   0.173  0.7242 -0.2187 -1.9408
28706SOL    HW290035   9.681   8.864   0.235 -0.0050  0.2741 -0.9636
28707SOL     OW90036   9.456   6.648   2.171 -0.2780 -0.5885 -0.3900
28707SOL    HW190037   9.405   6.648   2.090 -2.9363 -2.8984  1.1401
28707SOL    HW290038   9.484   6.739   2.181 -2.6931  0.4609 -2.1960
28708SOL     OW90039   4.733   1.161   5.791  0.0536 -0.8099  0.6821
28708SOL    HW190040   4.772   1.167   5.879  2.9488 -2.7701 -0.3018
28708SOL    HW290041   4.789   1.215   5.736  0.6224 -2.5526 -0.5535
28709SOL     OW90042   3.628   7.587   7.172 -0.4331  0.2168 -0.5489
28709SOL    HW190043   3.690   7.607   7.242 -1.7054  0.5483  0.5391
28709SOL    HW290044   3.666   7.513   7.126  0.2305 -0.3131  0.7992
28710SOL     OW90045   4.174   0.610   5.756  0.2533  0.3186 -0.1245
28710SOL    HW190046   4.260   0.601   5.714 -0.7111 -0.5560 -1.9980
28710SOL    HW290047   4.111   0.596   5.686 -1.4502  0.8568  1.2358
28711SOL     OW90048   0.327   2.934   2.397  0.6050 -0.6561 -0.6205
28711SOL    HW190049   0.255   2.916   2.456  0.4287 -0.5265 -0.7939
28711SOL    HW290050   0.286   2.973   2.320  0.8745 -0.4415 -0.6592
28712SOL     OW90051   8.498   7.510   8.921  0.1243  0.1301  0.3235
28712SOL    HW190052   8.543   7.428   8.902 -1.1982 -0.4069 -0.6060
28712SOL    HW290053   8.486   7.510   9.016  0.3796 -0.6039  0.3584
28713SOL     OW90054   7.824   4.554   9.266 -0.0234 -0.8107  0.5762
28713SOL    HW190055   7.780   4.580   9.186  1.5325 -2.0536 -0.7592
28713SOL    HW290056   7.794   4.617   9.332 -2.5002 -0.6754 -0.5887
28714SOL     OW90057   6.563   5.812   9.113 -0.5086  0.6860 -0.1974
28714SOL    HW190058   6.557   5.765   9.196  0.2429  0.7843 -0.0816
28714SOL    HW290059   6.495   5.879   9.119 -0.3437  0.8104  0.4213
28715SOL     OW90060   6.020   2.649   2.231  0.2355 -0.2820  0.0786
28715SOL    HW190061   5.965   2.700   2.171 -0.3582 -0.1615  0.7153
28715SOL    HW290062   6.071   2.592   2.174 -0.3363 -0.1794 -0.5452
28716SOL     OW90063   1.768   6.932   1.095  0.0016  0.6226 -0.6591
28716SOL    HW190064   1.745   7.025   1.091 -0.4418  0.5548  0.0183
28716SOL    HW290065   1.861   6.931   1.115  0.2581  0.9120 -1.7833
28717SOL     OW90066   2.960   7.902   7.423 -0.1090  0.0418  0.1121
28717SOL    HW190067   2.966   7.861   7.337 -0.7480 -0.1463  0.1581
28717SOL    HW290068   2.870   7.888   7.451 -1.1469  3.4922 -0.9003
28718SOL     OW90069   4.431   3.719   7.748  0.5360 -0.5454 -0.1281
28718SOL    HW190070   4.467   3.701   7.835  0.1377  1.3142  0.4662
28718SOL    HW290071   4.499   3.770   7.705  0.5155 -1.0145 -0.7158
28719SOL     OW90072   8.407   6.095   8.331 -0.0264 -0.0959 -0.3149
28719SOL    HW190073   8.324   6.055   8.357  0.8530 -1.7508  0.1108
28719SOL    HW290074   8.433   6.148   8.407  0.3998 -1.4207  0.5030
28720SOL     OW90075   4.814   6.393   4.830 -0.0362 -0.0750  0.9506
28720SOL    HW190076   4.848   6.309   4.799 -0.3953  0.0393  0.2318
28720SOL    HW290077   4.749   6.370   4.896  0.2588 -0.3372  1.1576
28721SOL     OW90078   0.291   9.644   8.553 -0.5421  0.3661 -0.2052
28721SOL    HW190079   0.227   9.698   8.507 -0.7460  0.3282  0.0294
28721SOL    HW290080   0.241   9.600   8.621 -0.0752  1.1077  0.6300
28722SOL     OW90081   7.749   4.378   3.993 -0.3071  0.1558  0.2036
28722SOL    HW190082   7.819   4.392   3.930 -0.4598 -0.3806 -0.0985
28722SOL    HW290083   7.702   4.461   3.996  1.3644  1.1116  1.7367
28723SOL     OW90084   6.609   7.459   9.446 -0.1477  0.3510  0.6411
28723SOL    HW190085   6.631   7.549   9.424  0.3476  0.0408 -0.1660
28723SOL    HW290086   6.660   7.406   9.385 -2.8894 -0.4433 -1.1515
28724SOL     OW90087   7.445   6.957   4.177 -0.0597 -0.2470 -0.4742
28724SOL    HW190088   7.498   6.877   4.175 -0.2065 -0.3204 -1.8857
28724SOL    HW290089   7.387   6.950   4.102 -1.2454  0.4186  0.3379
28725SOL     OW90090   3.852   7.805   9.784 -0.4536 -0.3238  0.1198
28725SOL    HW190091   3.864   7.768   9.696  2.1901  0.6648 -0.0146
28725SOL    HW290092   3.865   7.731   9.843  1.8320 -0.3047 -0.2508
28726SOL     OW90093   4.122   6.829   9.777  0.3307  0.1191  0.0834
28726SOL    HW190094   4.186   6.778   9.827  1.8450  0.8457 -1.0073
28726SOL    HW290095   4.121   6.787   9.691 -0.2007  0.4879 -0.0898
28727SOL     OW90096   7.836   2.018   6.381  0.0297 -0.7884  0.4086
28727SOL    HW190097   7.754   2.066   6.381  0.8480  0.7041 -0.3381
28727SOL    HW290098   7.842   1.979   6.468 -1.8816 -1.7251  0.1505
28728SOL     OW90099   8.949   2.360   8.430 -0.3218 -0.1052  0.5389
28728SOL    HW190100   9.010   2.308   8.379 -0.2843  1.4497 -1.1208
28728SOL    HW290101   8.877   2.301   8.450  0.2047 -1.0689 -0.3397
28729SOL     OW90102   3.319   0.735   3.338 -0.4364  0.2413 -0.3415
28729SOL    HW190103   3.319   0.772   3.426  0.4456  0.7344 -0.5376
28729SOL    HW290104   3.391   0.780   3.293 -0.6778 -0.2263 -1.2174
28730SOL     OW90105   3.533   1.464   7.807  0.3288 -0.4996 -0.7088
28730SOL    HW190106   3.567   1.392   7.861  2.0093  0.5139 -0.3523
28730SOL    HW290107   3.605   1.486   7.748  0.6135  2.1319  0.4646
28731SOL     OW90108   3.088   5.402   7.348  0.2288 -0.0360 -0.4710
28731SOL    HW190109   3.065   5.359   7.266 -1.7189  1.5568 -0.8388
28731SOL    HW290110   3.132   5.483   7.322 -1.5066  1.0958 -0.0453
28732SOL     OW90111   1.182   7.535   3.399 -0.2110  0.1051 -0.7438
28732SOL    HW190112   1.237   7.466   3.363 -0.3985 -1.2470  1.3707
28732SOL    HW290113   1.241   7.584   3.457 -0.6084  0.2952 -0.4966
28733SOL     OW90114   3.636   7.162   2.615 -0.5045 -0.3473  0.1981
28733SOL    HW190115   3.550   7.173   2.655 -0.2735 -1.3176  1.0158
28733SOL    HW290116   3.628   7.202   2.529 -1.0191  1.8488  1.1870
28734SOL     OW90117   9.529   3.666   3.969  0.1935 -0.8779  0.5317
28734SOL    HW190118   9.600   3.624   4.019 -0.9537 -1.8233  1.4288
28734SOL    HW290119   9.518   3.752   4.010  1.6159 -0.2091 -0.4086
28735SOL     OW90120   8.152   6.287   3.747  0.3050  0.3397  0.6240
28735SOL    HW190121   8.067   6.320   3.777 -0.1784 -0.8287  0.5708
28735SOL    HW290122   8.188   6.359   3.694 -1.3785  0.2532 -0.7282
28736SOL     OW90123   2.358   1.496   8.922  0.1067  0.2898 -0.2517
28736SOL    HW190124   2.436   1.447   8.895  0.3162  0.8675 -0.7347
28736SOL    HW290125   2.393   1.579   8.956 -0.3232  0.7948 -1.0260
28737SOL     OW90126   4.199   0.324   9.704 -0.2774  0.1631  0.2822
28737SOL    HW190127   4.143   0.392   9.667 -0.6941  0.6915  1.8172
28737SOL    HW290128   4.256   0.371   9.765  1.1550 -0.5159 -0.4844
28738SOL     OW90129   7.645   9.369   7.187  0.0900  0.3344  0.2210
28738SOL    HW190130   7.575   9.433   7.174  1.2229  1.4841 -0.4776
28738SOL    HW290131   7.686   9.396   7.269  1.5314  1.5259 -0.8173
28739SOL     OW90132   2.877   7.990   8.383 -0.2383 -0.4251 -0.1680
28739SOL    HW190133   2.898   8.068   8.333 -1.7379  0.2222  0.1575
28739SOL    HW290134   2.959   7.941   8.388  0.2905  0.2266 -1.9492
28740SOL     OW90135   9.286   5.751   4.572 -0.4174 -0.0034 -0.0952
28740SOL    HW190136   9.268   5.844   4.587  0.0976  0.0242  0.3785
28740SOL    HW290137   9.280   5.741   4.477 -0.8863  0.4245 -0.1173
28741SOL     OW90138   9.636   8.224   7.206 -0.1488  0.7214  0.2443
28741SOL    HW190139   9.690   8.294   7.241  0.2943  0.7983 -0.5616
28741SOL    HW290140   9.676   8.203   7.122  2.1951 -3.1506  2.0380
28742SOL     OW90141   8.701   7.100   0.322 -0.1100  0.2364  0.8260
28742SOL    HW190142   8.747   7.112   0.238 -2.5443 -0.0678 -0.6429
28742SOL    HW290143   8.666   7.187   0.343  0.9490  0.4391  1.8737
28743SOL     OW90144   9.244   1.587   6.815 -0.8337 -0.5871  0.4101
28743SOL    HW190145   9.226   1.544   6.898 -0.3454 -3.4300 -0.8283
28743SOL    HW290146   9.178   1.657   6.809 -1.6398 -1.0806  2.5980
28744SOL     OW90147   4.868   4.014   5.769 -0.3788 -0.2572  0.0265
28744SOL    HW190148   4.854   3.985   5.859 -0.4792  2.2895  0.9219
28744SOL    HW290149   4.959   3.992   5.751  0.6911  2.0391  2.0190
28745SOL     OW90150   2.163   2.244   5.873  0.0448  0.6315 -0.1030
28745SOL    HW190151   2.191   2.169   5.821  1.6562  0.6000  0.7664
28745SOL    HW290152   2.135   2.309   5.809 -0.2791 -0.2764 -0.9046
28746SOL     OW90153   2.642   3.912   1.714  0.0163 -0.1149  0.0243
28746SOL    HW190154   2.683   3.839   1.668  2.5946 -0.4522  2.5600
28746SOL    HW290155   2.583   3.951   1.650 -0.8261 -3.8207 -1.7404
28747SOL     OW90156   1.900   2.251   6.604 -0.3885 -0.4508  0.2307
28747SOL    HW190157   1.913   2.258   6.510 -1.3111 -1.1151  0.0305
28747SOL    HW290158   1.963   2.185   6.632 -0.2616 -0.4111  0.0393
28748SOL     OW90159   0.286   4.039   3.731  0.0983 -0.9711 -0.1646
28748SOL    HW190160   0.238   3.957   3.747 -0.2871 -0.5229  1.1675
28748SOL    HW290161   0.375   4.011   3.713 -0.3627 -1.7546 -1.3220
28749SOL     OW90162   6.873   1.256   8.190  0.2416  0.0175  0.3418
28749SOL    HW190163   6.802   1.196   8.165  0.9338 -1.2038  1.2134
28749SOL    HW290164   6.939   1.200   8.229  1.2308  1.2835  0.5510
28750SOL     OW90165   8.166   8.660   7.572  0.0263 -0.0854 -0.2796
28750SOL    HW190166   8.163   8.698   7.484  0.6071  0.8846  0.0968
28750SOL    HW290167   8.076   8.669   7.604 -0.2313 -0.6117 -0.8317
28751SOL     OW90168   1.684   5.842   9.252  0.0801 -0.3796 -0.4590
28751SOL    HW190169   1.676   5.751   9.223  0.3347 -0.2644 -0.9092
28751SOL    HW290170   1.778   5.858   9.255  0.0394 -0.1874 -0.1959
28752SOL     OW90171   2.973   2.948   8.955  0.0525  0.3777 -0.6892
28752SOL    HW190172   2.934   2.989   9.032  1.7907 -0.4517  0.6967
28752SOL    HW290173   3.003   3.020   8.901  0.5257  0.9713  0.3442
28753SOL     OW90174   6.855   3.578   3.649 -0.3162  0.8355  0.4693
28753SOL    HW190175   6.941   3.613   3.625 -1.1923  1.4409 -2.1119
28753SOL    HW290176   6.835   3.619   3.733  1.2874  1.8141  0.4177
28754SOL     OW90177   1.963   1.330   8.361  0.5803 -0.3211  0.6301
28754SOL    HW190178   2.024   1.265   8.325  2.7279  1.3396  1.0512
28754SOL    HW290179   1.937   1.382   8.285  1.8072  0.5801  0.7940
28755SOL     OW90180   4.901   7.704   3.595 -0.3265 -0.2901  0.2209
28755SOL    HW190181   4.849   7.699   3.675 -0.3610  0.9784  0.2993
28755SOL    HW290182   4.948   7.787   3.602  1.5458 -1.2770  0.0377
28756SOL     OW90183   1.284   9.687   1.613  0.0408 -0.4187 -0.5233
28756SOL    HW190184   1.266   9.631   1.537  3.1614  0.2028 -1.8813
28756SOL    HW290185   1.365   9.651   1.651  0.7814  1.6826  0.0288
28757SOL     OW90186   9.936   2.347   7.331  0.1774 -0.2029  0.0081
28757SOL    HW190187   9.850   2.343   7.289  1.0280  2.4387 -2.3141
28757SOL    HW290188   9.982   2.270   7.297 -0.4197 -0.1801 -0.9045
28758SOL     OW90189   0.800   9.942   1.757 -0.0808  0.0611 -0.5759
28758SOL    HW190190   0.804   9.955   1.663  0.5233 -0.3253 -0.6092
28758SOL    HW290191   0.776   9.850   1.768  0.7334 -0.1349 -0.3632
28759SOL     OW90192   2.001   7.127   3.476  0.0520  0.8330 -0.0793
28759SOL    HW190193   1.935   7.125   3.545  0.0618  1.1974 -0.0551
28759SOL    HW290194   2.068   7.186   3.509  0.4102  0.4388 -0.0895
28760SOL     OW90195   7.490   3.432   7.821 -0.6259  1.0579 -0.2778
28760SOL    HW190196   7.405   3.413   7.781 -0.6971  2.0086 -0.5934
28760SOL    HW290197   7.509   3.523   7.796  0.6639  0.7367 -0.5385
28761SOL     OW90198   2.436   3.220   6.323  0.0147  0.7035  0.0000
28761SOL    HW190199   2.414   3.137   6.365  2.2183 -0.0093 -0.1275
28761SOL    HW290200   2.490   3.267   6.388  0.3877  1.1822 -0.6394
28762SOL     OW90201   0.789   7.008   4.851 -0.1238 -0.4144 -0.1451
28762SOL    HW190202   0.838   7.020   4.932  0.6406 -0.3941 -0.5992
28762SOL    HW290203   0.699   6.990   4.880  0.2714 -1.1032  0.7228
28763SOL     OW90204   7.102   3.410   9.837 -0.1820 -0.1863  0.3470
28763SOL    HW190205   7.108   3.330   9.785 -1.6597  1.2341 -2.2760
28763SOL    HW290206   7.192   3.440   9.846  0.2451 -1.2779 -0.1067
28764SOL     OW90207   4.319   6.546   7.828  0.2500 -0.3599  0.1997
28764SOL    HW190208   4.342   6.629   7.871 -1.0738 -0.3086  0.8848
28764SOL    HW290209   4.355   6.479   7.886  1.1255 -0.2724 -0.2353
28765SOL     OW90210   7.634   8.090   8.116 -0.2466 -0.0184  0.2592
28765SOL    HW190211   7.665   8.009   8.075 -0.1479  0.3062 -0.3273
28765SOL    HW290212   7.544   8.070   8.141 -0.7965  0.2027 -1.4096
28766SOL     OW90213  10.027   9.533   1.096  0.1818 -0.4934 -0.1882
28766SOL    HW190214  10.044   9.614   1.049 -0.6122 -1.4035 -2.1497
28766SOL    HW290215   9.999   9.471   1.028 -0.0595 -2.1668  1.3606
28767SOL     OW90216   4.064   0.365   6.865  0.0103 -0.1859  0.1193
28767SOL    HW190217   4.095   0.319   6.943  0.3617  0.7154  0.5405
28767SOL    HW290218   3.988   0.316   6.835 -0.3332 -0.3463  1.2363
28768SOL     OW90219   8.634   6.751   1.627  0.0796 -0.1420 -0.0847
28768SOL    HW190220   8.546   6.718   1.640 -0.3323  0.6126 -0.8835
28768SOL    HW290221   8.650   6.741   1.533  0.9155 -0.4363  0.0794
28769SOL     OW90222   7.369   4.018   6.140 -0.3252 -0.1692 -0.7956
28769SOL    HW190223   7.319   3.936   6.138  0.4015 -0.6290 -2.7870
28769SOL    HW290224   7.444   3.998   6.197 -1.1207 -0.2470  0.2583
28770SOL     OW90225   6.964   1.071   2.955  0.0143 -0.3212 -0.5779
28770SOL    HW190226   6.937   1.138   3.018 -0.0159 -1.5252  0.7200
28770SOL    HW290227   6.898   1.003   2.962  0.7813 -1.1151 -0.8785
28771SOL     OW90228   9.136   2.845   9.410  0.3736  0.0118 -0.2969
28771SOL    HW190229   9.120   2.865   9.502  0.0909  0.0373 -0.3500
28771SOL    HW290230   9.215   2.893   9.388  1.1341 -0.9634  0.2610
28772SOL     OW90231   0.802   0.032   2.897  0.0797 -0.0082  0.0447
28772SOL    HW190232   0.716   0.064   2.870 -0.8295 -1.7368  0.7322
28772SOL    HW290233   0.853   0.028   2.816 -1.3876 -1.5636 -0.8427
28773SOL     OW90234   9.294   9.493   2.581 -0.0911 -0.2082  0.5066
28773SOL    HW190235   9.209   9.537   2.577 -0.3742 -0.7232  0.6463
28773SOL    HW290236   9.272   9.400   2.586  0.4985 -0.4368 -0.6915
28774SOL     OW90237   7.532   0.204   3.142  0.0514  0.2156 -0.2875
28774SOL    HW190238   7.626   0.221   3.137  0.3761 -0.7384  1.5464
28774SOL    HW290239   7.515   0.190   3.235 -1.7600 -0.4687 -0.6651
28775SOL     OW90240   5.982   1.477   5.238  0.3236 -0.5750 -0.5690
28775SOL    HW190241   5.964   1.390   5.204  2.2254 -0.5436 -1.8564
28775SOL    HW290242   5.947   1.537   5.172 -0.7234 -0.3466  0.1732
28776SOL     OW90243   2.230   3.032   5.174  0.0310  0.1836 -0.7474
28776SOL    HW190244   2.142   3.000   5.192 -0.6273  2.0128 -0.4611
28776SOL    HW290245   2.258   2.984   5.096 -0.7731 -1.1899 -0.2205
28777SOL     OW90246   4.538   8.525   8.212  0.5160 -0.2865  0.2114
28777SOL    HW190247   4.541   8.564   8.300 -0.6477  0.3653 -0.0121
28777SOL    HW290248   4.490   8.590   8.160  2.0442 -0.1936 -1.1583
28778SOL     OW90249   0.807   3.272   4.575  0.2088 -0.6619  0.2153
28778SOL    HW190250   0.902   3.285   4.576  0.3349 -1.5311  1.2700
28778SOL    HW290251   0.775   3.332   4.508  1.4346  0.0990  0.2899
28779SOL     OW90252   5.322   9.593   8.400  0.1266  0.0483 -0.0027
28779SOL    HW190253   5.391   9.590   8.334  0.2109 -0.3558  0.1027
28779SOL    HW290254   5.362   9.637   8.475  0.3598 -0.4420  0.1611
28780SOL     OW90255   0.697   3.190   1.642  0.4067 -0.0325  0.3003
28780SOL    HW190256   0.703   3.255   1.712 -0.1768 -1.2592  1.5387
28780SOL    HW290257   0.775   3.137   1.651  0.8720  0.4562 -0.6969
28781SOL     OW90258   6.232   2.166   6.908  0.0344  0.0230 -0.3557
28781SOL    HW190259   6.185   2.084   6.927  0.3691 -0.1306 -0.1828
28781SOL    HW290260   6.322   2.149   6.937 -0.3834  1.2341  1.8287
28782SOL     OW90261   7.142   9.796   0.388 -0.9052 -0.8011 -0.2024
28782SOL    HW190262   7.087   9.822   0.314 -0.5152 -1.7855 -0.8681
28782SOL    HW290263   7.231   9.794   0.352 -0.8596 -2.5031 -0.0596
28783SOL     OW90264   8.589   4.635   9.809 -0.0341  0.3681  0.2440
28783SOL    HW190265   8.630   4.548   9.811 -0.9495 -0.1933 -1.8855
28783SOL    HW290266   8.654   4.690   9.765 -0.3791  0.1603 -0.5507
28784SOL     OW90267   2.173   9.469   0.536 -0.0164  0.2046  0.4055
28784SOL    HW190268   2.214   9.556   0.543 -1.2896  0.7861  1.0365
28784SOL    HW290269   2.106   9.481   0.469  0.5203 -0.6075 -0.2903
28785SOL     OW90270   6.654   9.632   8.011  0.2734 -0.2696  0.7305
28785SOL    HW190271   6.623   9.699   7.950  0.6596  1.3279  2.2265
28785SOL    HW290272   6.711   9.577   7.958 -0.1723  0.4737 -0.5814
28786SOL     OW90273   6.140   4.265   7.141  0.3499 -0.3465 -0.5320
28786SOL    HW190274   6.142   4.193   7.205 -0.1543 -0.8477 -1.0678
28786SOL    HW290275   6.060   4.251   7.091  0.4647  0.3489 -0.9269
28787SOL     OW90276   8.418   3.928   8.140 -0.2535  0.3684 -0.1122
28787SOL    HW190277   8.418   4.004   8.082  1.0897  0.5584  0.0909
28787SOL    HW290278   8.476   3.953   8.212  1.4189 -1.3461 -0.7665
28788SOL     OW90279   9.728   9.733   3.418  0.0837  0.6966  0.3186
28788SOL    HW190280   9.665   9.695   3.356  0.7807  1.0471 -0.6147
28788SOL    HW290281   9.796   9.667   3.426  0.2363  0.8580  0.3453
28789SOL     OW90282  10.025   9.088   0.662 -0.3883  0.2663  0.0131
28789SOL    HW190283   9.950   9.093   0.720  0.6897 -0.3909  1.5215
28789SOL    HW290284   9.988   9.059   0.578 -1.9023  0.7135  0.4961
28790SOL     OW90285   9.015   4.174   6.961  0.1851  0.0974  0.2057
28790SOL    HW190286   8.971   4.090   6.949  1.0060 -0.2452 -0.5511
28790SOL    HW290287   8.946   4.239   6.951 -0.3324 -0.4542  0.1036
28791SOL     OW90288   8.944   4.695   6.420 -0.2869  0.4479  0.2816
28791SOL    HW190289   8.970   4.669   6.332 -3.0792 -1.7998 -0.0198
28791SOL    HW290290   8.949   4.791   6.420 -1.2047  0.5674 -2.6658
28792SOL     OW90291   5.568   6.891   7.767  0.3549 -0.2564 -0.1207
28792SOL    HW190292   5.610   6.947   7.833  1.2787 -1.3082  0.2272
28792SOL    HW290293   5.633   6.823   7.750 -0.5117 -0.8888 -0.9640
28793SOL     OW90294   2.285   0.876   4.741 -0.0729 -0.1464 -0.1323
28793SOL    HW190295   2.245   0.927   4.811  0.5231  1.2882 -0.7903
28793SOL    HW290296   2.233   0.897   4.664  0.2869 -0.4035 -0.4478
28794SOL     OW90297   5.570   6.264   5.530 -0.4858  0.0179 -0.6504
28794SOL    HW190298   5.532   6.338   5.577 -1.2608 -0.3107 -0.7551
28794SOL    HW290299   5.610   6.303   5.452 -1.1784  0.2952 -0.8760
28795SOL     OW90300   3.885   5.593   7.598  0.0719  0.3506 -0.1527
28795SOL    HW190301   3.979   5.588   7.615 -0.1711  0.1085  1.2432
28795SOL    HW290302   3.856   5.671   7.645 -0.9275 -1.2974  2.1586
28796SOL     OW90303   9.136   1.348   5.402 -0.2623 -0.4246 -0.4676
28796SOL    HW190304   9.200   1.299   5.454 -0.7694 -1.3895 -0.7280
28796SOL    HW290305   9.189   1.409   5.350  0.3072 -0.0021  0.5736
28797SOL     OW90306   8.916   1.328   9.482 -0.2050 -0.4017 -0.1273
28797SOL    HW190307   8.941   1.272   9.555 -0.5824  0.5139  0.7244
28797SOL    HW290308   8.821   1.339   9.491 -0.3117 -0.5724 -0.9669
28798SOL     OW90309   4.025   9.046   8.415  0.8068  0.2698 -0.6893
28798SOL    HW190310   4.006   9.140   8.405 -1.5390 -0.2489 -1.8070
28798SOL    HW290311   3.972   9.019   8.490 -0.4231 -0.5746 -1.8102
28799SOL     OW90312   2.428   0.990   1.630  0.8938  0.4321  0.3597
28799SOL    HW190313   2.366   0.921   1.605  0.5002  0.2348  1.7708
28799SOL    HW290314   2.444   1.039   1.549 -2.8062  1.8466  0.3080
28800SOL     OW90315   9.846   8.131   2.642 -0.6596  0.4005 -0.6810
28800SOL    HW190316   9.772   8.191   2.630 -0.8638  0.4985  0.8785
28800SOL    HW290317   9.867   8.137   2.735 -0.2367 -1.4237 -0.6171
28801SOL     OW90318   0.489   0.907   6.852  0.0053  0.2686 -0.0238
28801SOL    HW190319   0.523   0.988   6.890  0.0789 -0.1469  0.8233
28801SOL    HW290320   0.415   0.883   6.908 -0.2170 -0.0834 -0.4553
28802SOL     OW90321   2.141   2.148   1.487  0.3215  0.3781  0.5884
28802SOL    HW190322   2.215   2.209   1.488  1.4081 -0.8660  2.8254
28802SOL    HW290323   2.133   2.121   1.395  1.3997  1.9573 -0.0161
28803SOL     OW90324   7.479   3.692   2.393 -0.2744  0.0690  0.2141
28803SOL    HW190325   7.499   3.762   2.454 -0.7109  0.3245  0.0667
28803SOL    HW290326   7.420   3.731   2.329  0.8919  0.0664 -0.9142
28804SOL     OW90327   0.550   6.305   1.735 -0.5626 -0.2803 -0.1958
28804SOL    HW190328   0.476   6.311   1.795 -0.4632 -1.3234  0.0551
28804SOL    HW290329   0.578   6.214   1.740 -0.5978 -0.4324 -1.8887
28805SOL     OW90330   2.192  10.064   4.138  0.3788 -0.2438  0.0844
28805SOL    HW190331   2.106  10.026   4.121  0.6402 -0.5964 -0.4920
28805SOL    HW290332   2.241  10.048   4.057  1.0539 -0.2539  0.4917
28806SOL     OW90333   4.912   5.701   6.279  0.2149 -0.2052 -0.0975
28806SOL    HW190334   4.995   5.719   6.236  0.8631 -1.6401  0.5123
28806SOL    HW290335   4.882   5.620   6.239 -1.1427  0.5175 -0.6316
28807SOL     OW90336   0.926   6.374   0.133  0.2938  0.3847  0.1934
28807SOL    HW190337   0.917   6.321   0.054 -0.8124  0.0169  0.5340
28807SOL    HW290338   0.880   6.323   0.200  0.7805  0.9308  0.9470
28808SOL     OW90339   2.295   0.225   8.408 -0.0895 -0.3566  0.3093
28808SOL    HW190340   2.261   0.302   8.363  0.6162 -0.0682  0.2475
28808SOL    HW290341   2.270   0.151   8.353 -0.3672 -0.1284  0.1284
28809SOL     OW90342   5.192   7.965   4.359 -0.2819 -0.2462  0.7140
28809SOL    HW190343   5.113   7.916   4.337 -0.8524  1.0745 -0.3382
28809SOL    HW290344   5.245   7.903   4.409 -2.9613 -0.4613  3.5788
28810SOL     OW90345   4.168   4.840   8.291 -0.1492  0.2055 -0.2161
28810SOL    HW190346   4.123   4.845   8.375  0.5846  2.1285  0.1128
28810SOL    HW290347   4.158   4.927   8.253  1.8256  0.1954 -0.8817
28811SOL     OW90348   5.239   3.557   0.602  0.2584  0.2003 -0.1530
28811SOL    HW190349   5.268   3.604   0.524  2.5062  0.1724  0.6081
28811SOL    HW290350   5.221   3.626   0.666 -1.7091  0.2306 -0.6710
28812SOL     OW90351   4.747   0.244   7.411 -0.1429 -0.8730  0.6893
28812SOL    HW190352   4.819   0.308   7.416 -0.3319 -0.7071  1.4103
28812SOL    HW290353   4.671   0.290   7.445 -1.3643 -0.0613 -2.7295
28813SOL     OW90354   1.738   9.208   1.985 -0.4262  0.6675 -0.0540
28813SOL    HW190355   1.709   9.226   1.895 -2.0322  0.9483  0.4898
28813SOL    HW290356   1.804   9.275   2.002  1.0771 -0.3582 -1.5426
28814SOL     OW90357   3.881   4.183   9.871 -1.2221 -0.1110  0.3047
28814SOL    HW190358   3.826   4.106   9.858 -0.4970 -0.5381 -0.3606
28814SOL    HW290359   3.844   4.250   9.813 -0.6781 -0.5944 -0.6207
28815SOL     OW90360   6.364   7.499   5.181 -0.2784 -0.4666 -0.2779
28815SOL    HW190361   6.374   7.420   5.234 -1.2697 -0.6593 -0.3606
28815SOL    HW290362   6.453   7.534   5.174 -0.0376 -0.7605  1.0032
28816SOL     OW90363   7.056   0.724   2.471 -0.1833 -0.3807  0.4144
28816SOL    HW190364   7.139   0.695   2.433  0.3574 -0.0918  1.3608
28816SOL    HW290365   7.002   0.744   2.395  0.9943  0.4980 -0.2265
28817SOL     OW90366   4.814   1.826   8.523 -0.5928  0.3819  0.5109
28817SOL    HW190367   4.771   1.814   8.608 -0.6816 -1.6629  0.2306
28817SOL    HW290368   4.746   1.808   8.458  0.6803 -3.8706  0.0552
28818SOL     OW90369   3.731   4.880   3.721 -0.1017 -0.1922 -0.5352
28818SOL    HW190370   3.780   4.823   3.779 -0.2743 -1.3243 -1.4738
28818SOL    HW290371   3.764   4.861   3.634 -1.4851 -0.2642 -1.0768
28819SOL     OW90372   8.772   0.494   5.339  0.0458  0.4889  0.1849
28819SOL    HW190373   8.848   0.540   5.373  1.0589  0.9953 -2.4958
28819SOL    HW290374   8.792   0.401   5.352 -0.1616  0.6503  1.9216
28820SOL     OW90375   1.659   5.072   8.187  0.1035 -0.2636  0.1332
28820SOL    HW190376   1.636   5.134   8.257 -1.4685 -0.1958 -0.4059
28820SOL    HW290377   1.596   5.000   8.197  0.4598 -0.6989 -0.6434
28821SOL     OW90378   6.223   7.320   4.837  0.3139 -0.2902  0.3715
28821SOL    HW190379   6.170   7.241   4.847 -2.2542  1.5084  2.6249
28821SOL    HW290380   6.283   7.319   4.912  0.7933 -0.4531 -0.0125
28822SOL     OW90381   7.048   2.754   9.882 -0.0512 -0.0478  0.1443
28822SOL    HW190382   7.038   2.668   9.923  2.0682 -0.0650  0.7413
28822SOL    HW290383   7.050   2.735   9.788  1.9445 -0.9062  0.3072
28823SOL     OW90384   8.383   3.603   3.117  0.3503  0.5885  0.5090
28823SOL    HW190385   8.433   3.599   3.036 -0.3599 -3.3418  0.0710
28823SOL    HW290386   8.314   3.668   3.099  1.1250  0.9647 -1.4112
28824SOL     OW90387   6.649   8.048   5.238  0.5012  0.2498  0.0990
28824SOL    HW190388   6.677   7.969   5.283 -0.3606  0.3886  0.9057
28824SOL    HW290389   6.647   8.023   5.145 -0.1928 -0.8249  0.3782
28825SOL     OW90390   2.441   8.147   4.397 -0.5310  0.0461  0.2009
28825SOL    HW190391   2.524   8.185   4.425 -1.2666  1.0270  1.1364
28825SOL    HW290392   2.465   8.071   4.344  0.9605  0.7075 -0.1008
28826SOL     OW90393   9.931   1.808   8.812  0.0420  0.2295 -0.2260
28826SOL    HW190394  10.012   1.781   8.855 -0.4933 -2.0562 -0.5245
28826SOL    HW290395   9.940   1.777   8.722 -0.8249  0.6888 -0.4820
28827SOL     OW90396   8.961   3.200   4.200  0.3279  0.1784  0.0229
28827SOL    HW190397   9.045   3.244   4.203  1.3288 -1.6467  0.4888
28827SOL    HW290398   8.909   3.250   4.137  0.7977  2.8700  1.6097
28828SOL     OW90399   7.797   2.126   9.682 -0.2635 -0.0067  0.2351
28828SOL    HW190400   7.732   2.094   9.745  0.4381 -2.0917 -0.0244
28828SOL    HW290401   7.847   2.049   9.658  2.2503  1.4953  0.2971
28829SOL     OW90402   1.238   0.709   9.273 -0.2460  0.1800  0.0657
28829SOL    HW190403   1.231   0.791   9.323 -2.2413  1.0517 -1.5219
28829SOL    HW290404   1.156   0.703   9.225  1.5401 -0.5941 -3.1561
28830SOL     OW90405   2.191   0.325   0.343 -0.0276 -0.3088 -0.3530
28830SOL    HW190406   2.128   0.393   0.318 -0.9046 -1.2554 -0.7779
28830SOL    HW290407   2.269   0.344   0.290 -1.1194 -1.0433 -2.3125
28831SOL     OW90408   3.930   6.028   6.497 -0.5008  0.2966  0.0925
28831SOL    HW190409   3.858   6.088   6.513 -1.0276  0.1493 -1.5194
28831SOL    HW290410   3.941   6.027   6.401  0.9916 -0.4337  0.2267
28832SOL     OW90411   1.255   5.399   6.753 -0.2954  0.2661 -0.1431
28832SOL    HW190412   1.292   5.439   6.832 -1.4401  0.9099  0.0766
28832SOL    HW290413   1.324   5.409   6.687 -0.8722  3.5466 -0.4040
28833SOL     OW90414   6.785   1.080   5.960 -0.0051 -0.2138  0.2927
28833SOL    HW190415   6.856   1.015   5.951  0.2258  0.0877 -0.0903
28833SOL    HW290416   6.707   1.034   5.930  0.4347  0.1828 -1.5937
28834SOL     OW90417   7.466   1.369   4.010  0.4990 -0.4243 -0.0391
28834SOL    HW190418   7.470   1.281   4.046  2.4041 -2.0124 -3.6274
28834SOL    HW290419   7.549   1.410   4.037  1.0188 -0.9025 -0.8495
28835SOL     OW90420   2.148   2.713   4.594 -0.2045 -0.4032 -0.1096
28835SOL    HW190421   2.061   2.753   4.589  0.0160  0.0545 -0.4078
28835SOL    HW290422   2.153   2.658   4.516  0.8018  1.7326 -1.6655
28836SOL     OW90423   8.710   1.023   7.096 -0.4053  0.6302  0.5766
28836SOL    HW190424   8.630   1.072   7.076  0.0058  1.3935  0.7519
28836SOL    HW290425   8.741   0.992   7.011 -1.0307  0.0817  0.5365
28837SOL     OW90426   0.257   2.140   2.929 -0.2591  0.6240 -0.2734
28837SOL    HW190427   0.262   2.047   2.909 -2.6821 -0.3288  2.8560
28837SOL    HW290428   0.174   2.168   2.890 -1.9470  0.1804  2.6788
28838SOL     OW90429   0.983   6.741  10.088 -0.2320 -1.1736  0.3191
28838SOL    HW190430   1.065   6.691  10.092  0.4780  0.0231  1.9836
28838SOL    HW290431   0.985   6.783  10.002 -0.2782 -3.0052 -0.6224
28839SOL     OW90432   3.282   4.105   1.025  0.1119 -0.6727  0.2969
28839SOL    HW190433   3.267   4.014   1.050 -1.7068 -0.5936 -0.3410
28839SOL    HW290434   3.237   4.156   1.092  0.5412 -0.2741  0.2817
28840SOL     OW90435   2.180   8.797   7.238  0.5592 -0.2756 -0.1227
28840SOL    HW190436   2.236   8.843   7.176 -0.3861 -0.6894 -1.3250
28840SOL    HW290437   2.167   8.859   7.309  2.1068  0.0057 -0.0588
28841SOL     OW90438   2.354   8.277   0.551 -0.2138  0.2696 -0.4128
28841SOL    HW190439   2.309   8.209   0.600  1.2107  0.0140  0.5797
28841SOL    HW290440   2.284   8.337   0.523 -1.3355 -0.9595 -0.3035
28842SOL     OW90441   2.202  10.052   9.975  0.0635  0.3009 -0.0533
28842SOL    HW190442   2.129  10.114   9.973 -0.6627 -0.4808 -3.3447
28842SOL    HW290443   2.162   9.970  10.003  0.0477  0.2705 -0.1663
28843SOL     OW90444   5.123   0.134   0.274 -0.1100 -0.1746  0.2959
28843SOL    HW190445   5.207   0.118   0.233 -0.2764  0.0473 -0.1371
28843SOL    HW290446   5.124   0.081   0.354  0.9556  0.8155  0.9806
28844SOL     OW90447   5.727   2.044   9.160  0.1058  0.7083  0.4731
28844SOL    HW190448   5.734   1.966   9.104 -0.4343  1.7664 -1.1447
28844SOL    HW290449   5.647   2.030   9.211 -1.8582  1.5567 -2.1471
28845SOL     OW90450   8.266   5.258   3.197 -0.4731 -0.1360 -0.2052
28845SOL    HW190451   8.257   5.346   3.234 -0.1688 -0.9109  1.8740
28845SOL    HW290452   8.355   5.256   3.162 -0.2402  0.2031  0.3392
28846SOL     OW90453   5.383  10.032   7.265 -0.1325  0.1562  0.0844
28846SOL    HW190454   5.349  10.121   7.263 -1.7661 -0.4359 -1.2388
28846SOL    HW290455   5.461  10.035   7.209  0.7843  1.0588  1.3499
28847SOL     OW90456   5.553   0.698   1.554  0.3606  0.2194 -0.1726
28847SOL    HW190457   5.491   0.629   1.532  1.1606 -1.4335  2.4030
28847SOL    HW290458   5.502   0.762   1.602 -0.0242  0.5983 -1.0667
28848SOL     OW90459   7.104  10.183  10.059 -0.1237  0.3796  0.0150
28848SOL    HW190460   7.046  10.202  10.132 -1.0029 -1.3334 -0.1745
28848SOL    HW290461   7.149  10.266  10.041 -0.9633  1.2017  1.5261
28849SOL     OW90462   5.406   7.529   1.875  0.2764 -0.2184 -0.0174
28849SOL    HW190463   5.323   7.553   1.917 -0.2022 -1.5769 -0.1501
28849SOL    HW290464   5.380   7.483   1.795  1.0728 -2.7264  1.0679
28850SOL     OW90465   8.304   2.832   7.828  0.1023  0.4685  0.1938
28850SOL    HW190466   8.366   2.760   7.815  2.1125  2.0559  0.4398
28850SOL    HW290467   8.344   2.885   7.897 -1.2665  1.8616 -0.0503
28851SOL     OW90468   0.656   8.787   2.761 -0.3461  0.4911 -0.2310
28851SOL    HW190469   0.713   8.852   2.719 -0.1806 -0.7513 -2.0735
28851SOL    HW290470   0.681   8.789   2.853  2.4926  0.2275 -0.9068
28852SOL     OW90471   9.486   4.341   4.451 -0.3455  0.1766  0.0567
28852SOL    HW190472   9.535   4.413   4.492  3.2062 -1.9095 -0.1540
28852SOL    HW290473   9.467   4.373   4.362 -3.8275  2.8363  1.5138
28853SOL     OW90474   3.639   5.048   6.618  0.1355  0.8469  0.0951
28853SOL    HW190475   3.638   5.143   6.611 -0.5701  0.9926  1.7562
28853SOL    HW290476   3.574   5.018   6.555  0.5225  1.4351 -0.5954
28854SOL     OW90477   6.145   9.037   2.491  0.6246  0.0436  0.4725
28854SOL    HW190478   6.096   9.038   2.409  0.1236 -2.2698  0.6846
28854SOL    HW290479   6.081   9.061   2.558  1.1374  2.3814  0.2111
28855SOL     OW90480   0.674   9.429   8.275  0.2016  0.0395  0.2619
28855SOL    HW190481   0.674   9.367   8.202 -0.1847  2.1138 -1.6021
28855SOL    HW290482   0.598   9.404   8.327 -0.5699 -0.4076 -1.0267
28856SOL     OW90483   1.760   4.008   4.949  0.5213 -0.0059  0.2695
28856SOL    HW190484   1.730   3.983   4.861  0.8333 -2.5779  0.8392
28856SOL    HW290485   1.737   4.101   4.955 -0.7731 -0.0823 -2.0029
28857SOL     OW90486   7.449   9.660   6.530  0.1707 -0.2069 -0.0796
28857SOL    HW190487   7.397   9.737   6.504  0.2051  1.3423  3.7418
28857SOL    HW290488   7.438   9.598   6.457 -1.7345  2.4899 -2.3383
28858SOL     OW90489   4.261   5.294   7.208  0.3257 -0.2057  0.1785
28858SOL    HW190490   4.211   5.367   7.245 -1.4351 -0.7460 -0.9752
28858SOL    HW290491   4.256   5.226   7.275 -1.6399 -0.6910 -0.3965
28859SOL     OW90492   6.900   3.890   9.089  0.1793  0.3152  0.0310
28859SOL    HW190493   6.978   3.836   9.105 -0.5576 -0.0271  2.9460
28859SOL    HW290494   6.933   3.980   9.095  1.2223  0.3822 -3.8980
28860SOL     OW90495   1.123   3.586   2.694  0.0466 -0.5542  0.0455
28860SOL    HW190496   1.129   3.681   2.698 -0.8292 -0.5270  1.6580
28860SOL    HW290497   1.214   3.557   2.692  0.3222  0.3091 -0.5706
28861SOL     OW90498   4.018   2.702   4.232  0.2654 -0.5153 -0.4222
28861SOL    HW190499   4.081   2.681   4.301  0.2567  0.6542 -0.0207
28861SOL    HW290500   4.039   2.792   4.207 -1.0893 -0.1724 -0.4251
28862SOL     OW90501   2.307   0.066   3.149  0.2040  0.3074  0.6790
28862SOL    HW190502   2.272  -0.012   3.192  0.9946 -0.4925 -0.0728
28862SOL    HW290503   2.360   0.109   3.216  3.0475 -1.9661  0.1063
28863SOL     OW90504   5.825   7.352   4.708  0.1922 -0.0345  0.1335
28863SOL    HW190505   5.806   7.434   4.662 -0.1348 -1.0468 -1.6453
28863SOL    HW290506   5.844   7.379   4.798  1.3605  2.1365 -0.6667
28864SOL     OW90507   1.767   2.926   5.969 -0.2627 -0.1361 -0.2283
28864SOL    HW190508   1.857   2.948   5.991 -0.5882  0.1469  0.8791
28864SOL    HW290509   1.774   2.843   5.922  0.5547 -0.2399  0.0514
28865SOL     OW90510   8.280   7.028   8.114 -0.4250  0.8949 -0.1062
28865SOL    HW190511   8.365   7.064   8.137 -0.3570  0.6738 -0.0053
28865SOL    HW290512   8.284   6.936   8.143 -0.6624  0.8592 -0.1814
28866SOL     OW90513   7.094   5.948   6.218  0.5081 -0.3585 -0.1149
28866SOL    HW190514   7.183   5.984   6.219 -0.2491  1.6926  1.0442
28866SOL    HW290515   7.073   5.935   6.310 -1.4418  2.2461 -0.0652
28867SOL     OW90516   2.436   2.664   3.550  0.2743  0.4724  0.5092
28867SOL    HW190517   2.471   2.671   3.461  1.1796  0.8151  0.8799
28867SOL    HW290518   2.485   2.730   3.600 -0.4380  0.4893  1.1953
28868SOL     OW90519   0.250   8.175   0.406 -0.2512 -0.3395  0.2151
28868SOL    HW190520   0.214   8.091   0.379 -1.1112  0.0389  0.1719
28868SOL    HW290521   0.252   8.171   0.502  1.0246 -0.9410  0.1842
28869SOL     OW90522   5.097   0.198   1.993 -0.0183  0.7886 -0.0042
28869SOL    HW190523   5.072   0.214   2.084 -0.6668  0.5316 -0.1280
28869SOL    HW290524   5.063   0.111   1.974 -1.4431  1.5160 -1.0132
28870SOL     OW90525   8.562   2.874   2.708  0.4672 -0.3129 -0.5902
28870SOL    HW190526   8.578   2.933   2.782 -0.3543  0.1539 -0.7782
28870SOL    HW290527   8.635   2.812   2.711  1.1135  0.4455 -0.1248
28871SOL     OW90528   4.623   5.351   7.395  0.4414 -0.1012 -0.1977
28871SOL    HW190529   4.536   5.377   7.427  0.4695  2.3309 -1.8454
28871SOL    HW290530   4.608   5.267   7.352 -0.7633 -0.4686  0.8658
28872SOL     OW90531   6.466   4.472   7.325 -0.0883 -0.2695 -0.0011
28872SOL    HW190532   6.551   4.441   7.294  0.0963  0.1635  0.0646
28872SOL    HW290533   6.412   4.393   7.330 -0.2244 -0.3335 -1.7209
28873SOL     OW90534   7.168   5.506   4.663 -0.1158 -0.2688 -0.1967
28873SOL    HW190535   7.251   5.482   4.622  0.2871  2.5781 -1.2469
28873SOL    HW290536   7.124   5.422   4.677  3.3356 -2.0429  1.4916
28874SOL     OW90537   3.375   6.252   8.294  0.4345 -0.3490  0.8535
28874SOL    HW190538   3.342   6.207   8.217  0.6539  1.0606 -0.1088
28874SOL    HW290539   3.301   6.256   8.354 -0.7168  1.2668 -0.5769
28875SOL     OW90540   3.886   6.826   9.469  0.2109 -0.1723 -0.2071
28875SOL    HW190541   3.924   6.783   9.392 -1.5000 -0.9613 -0.6585
28875SOL    HW290542   3.875   6.755   9.532 -0.8923 -0.0671 -0.2600
28876SOL     OW90543   1.439   7.494   5.133 -0.2696  0.1785 -0.5220
28876SOL    HW190544   1.427   7.490   5.038 -1.1151 -1.6864 -0.3898
28876SOL    HW290545   1.409   7.408   5.164  0.6323  0.4967  1.3644
28877SOL     OW90546   8.145   4.531   4.540  0.4908 -0.1247  0.2874
28877SOL    HW190547   8.152   4.461   4.475 -1.9700 -0.1816 -0.0167
28877SOL    HW290548   8.143   4.612   4.488  1.0164  0.0235  0.4876
28878SOL     OW90549   3.724   9.235   2.794  0.0321  0.5720  0.0172
28878SOL    HW190550   3.639   9.279   2.788  0.4053  1.1413 -1.7364
28878SOL    HW290551   3.716   9.159   2.735  0.0099 -0.6967  1.5996
28879SOL     OW90552   9.837   4.661   6.385 -0.5333 -0.1182  0.0102
28879SOL    HW190553   9.862   4.570   6.396 -1.0216 -0.3206 -0.5106
28879SOL    HW290554   9.898   4.696   6.320 -1.0736 -0.3940 -0.6572
28880SOL     OW90555   2.934   0.482   1.147  0.1440  0.0779 -0.3460
28880SOL    HW190556   3.008   0.537   1.120  0.3932 -0.2348 -0.3096
28880SOL    HW290557   2.946   0.472   1.242  0.8530 -1.1134 -0.5321
28881SOL     OW90558   3.064   4.641   3.109  0.0388  0.2757  0.2064
28881SOL    HW190559   3.020   4.722   3.135  2.0680  1.2297  0.9108
28881SOL    HW290560   3.018   4.572   3.157 -0.3494  1.2699  1.3171
28882SOL     OW90561   3.271   7.099   1.944 -0.0713 -1.1403  0.0246
28882SOL    HW190562   3.343   7.056   1.898  0.9759  0.8651 -0.3240
28882SOL    HW290563   3.260   7.048   2.024  1.2020 -1.9595 -0.2914
28883SOL     OW90564   7.317   1.015   9.663 -0.3565  0.5683  0.4296
28883SOL    HW190565   7.333   1.044   9.753  0.1278  0.3140  0.4285
28883SOL    HW290566   7.307   0.920   9.669 -1.6061  0.6699  0.3861
28884SOL     OW90567   2.248   4.303   0.430 -0.1811  0.5890  0.2000
28884SOL    HW190568   2.287   4.219   0.407 -1.0066  0.2706 -0.0706
28884SOL    HW290569   2.165   4.281   0.471 -0.3117  1.2693  0.3109
28885SOL     OW90570   3.451   7.777   8.165 -0.0230 -0.3133 -0.1264
28885SOL    HW190571   3.463   7.706   8.102  0.9605  0.2888 -0.6383
28885SOL    HW290572   3.488   7.743   8.247 -1.3784 -1.1269  0.1781
28886SOL     OW90573   0.745   2.296   8.205  0.5222  0.0521 -0.3081
28886SOL    HW190574   0.820   2.246   8.172  0.4107 -0.6442  0.4790
28886SOL    HW290575   0.673   2.233   8.207  0.2948  0.3268  0.3818
28887SOL     OW90576   9.466   8.917   7.984  0.2707 -0.3609  0.4227
28887SOL    HW190577   9.479   9.005   7.949 -0.0707 -0.3327  0.3566
28887SOL    HW290578   9.411   8.929   8.061  0.7886 -0.4526  0.8095
28888SOL     OW90579   3.456   8.929   3.354  0.7426  0.5434 -0.1377
28888SOL    HW190580   3.387   8.877   3.396  0.4401  0.2638 -0.9640
28888SOL    HW290581   3.457   9.011   3.403  0.5040  0.1668  0.5128
28889SOL     OW90582   9.098   0.639   2.344 -0.3278  0.5843 -0.0364
28889SOL    HW190583   9.164   0.582   2.304  0.5021  2.8170 -2.0663
28889SOL    HW290584   9.023   0.581   2.359  1.3333 -1.5754  0.4521
28890SOL     OW90585   9.221   0.188   1.948  0.1570  0.7387 -0.1382
28890SOL    HW190586   9.258   0.111   1.903  0.2431  0.4104  0.4871
28890SOL    HW290587   9.144   0.212   1.896 -0.7664 -0.7029  0.5119
28891SOL     OW90588   4.018   7.869   4.933  0.1355 -0.4620 -0.1660
28891SOL    HW190589   4.037   7.781   4.900 -0.0843 -0.0782 -1.3213
28891SOL    HW290590   3.938   7.895   4.889  2.0367  1.7350 -2.5984
28892SOL     OW90591   4.245   9.581   0.379  0.2408 -0.0766  0.2481
28892SOL    HW190592   4.207   9.550   0.462 -0.4679 -0.1965 -0.1089
28892SOL    HW290593   4.274   9.501   0.335  1.3956  0.0570  0.7408
28893SOL     OW90594   2.572   1.249   5.709  0.4047  0.3120 -0.4191
28893SOL    HW190595   2.628   1.173   5.723 -0.0742  0.0513  0.1070
28893SOL    HW290596   2.493   1.230   5.759 -0.0627  0.7808 -0.9722
28894SOL     OW90597   8.497  10.027   3.880 -0.1136 -0.4144  0.4285
28894SOL    HW190598   8.462  10.063   3.962 -1.0052 -2.5902  1.0707
28894SOL    HW290599   8.422  10.018   3.823  0.6670  2.1613 -1.1557
28895SOL     OW90600   4.371   9.020   0.602 -0.4086  0.1535 -0.2493
28895SOL    HW190601   4.310   9.076   0.553 -0.5575  0.0785 -0.1520
28895SOL    HW290602   4.458   9.052   0.578 -0.5013  1.0294  0.4976
28896SOL     OW90603   7.049   3.758   0.552 -0.2550  0.8147  0.1838
28896SOL    HW190604   7.085   3.671   0.537  0.3793  1.4174 -2.2050
28896SOL    HW290605   6.958   3.751   0.524  0.4604  1.4861 -2.5737
28897SOL     OW90606   4.891   1.292   0.904 -0.0690  0.0243  0.3811
28897SOL    HW190607   4.821   1.232   0.928 -0.2071 -0.4809 -1.2037
28897SOL    HW290608   4.958   1.278   0.971 -0.6143 -0.9806  0.7442
28898SOL     OW90609  10.200   8.755   7.413 -0.1023  0.0078  0.1632
28898SOL    HW190610  10.187   8.831   7.356  0.6993  1.2397  1.5218
28898SOL    HW290611  10.288   8.724   7.392 -0.8446 -1.2953 -1.1794
28899SOL     OW90612   6.346   6.237  10.084 -0.0366  0.2019  0.2781
28899SOL    HW190613   6.348   6.161  10.027  1.2245 -0.7401  1.5079
28899SOL    HW290614   6.324   6.310  10.026  0.2026 -0.8524 -1.2014
28900SOL     OW90615   3.303   2.184   1.200  0.3401 -0.5359 -0.0005
28900SOL    HW190616   3.276   2.227   1.281  1.2726  1.9852 -0.9206
28900SOL    HW290617   3.345   2.103   1.228  2.7471  1.3280  2.3081
28901SOL     OW90618   4.284   9.934   1.936  0.5761 -0.4840  0.2176
28901SOL    HW190619   4.290  10.023   1.972 -0.2849 -0.3041 -0.0414
28901SOL    HW290620   4.256   9.948   1.845 -1.5692 -1.0712  0.7317
28902SOL     OW90621   5.422   8.994   3.863  0.0672  0.2306 -0.3665
28902SOL    HW190622   5.483   9.041   3.807  1.4369 -0.6181  0.3656
28902SOL    HW290623   5.452   9.011   3.952 -0.2470 -0.8662 -0.0319
28903SOL     OW90624   1.309   7.094   8.706  0.3981  0.3253  0.1304
28903SOL    HW190625   1.304   7.111   8.612 -1.5765  0.2028  0.1660
28903SOL    HW290626   1.345   7.006   8.713 -0.4808 -0.1060 -0.5798
28904SOL     OW90627   4.311   1.590   9.896  0.3651 -0.1304  0.0339
28904SOL    HW190628   4.376   1.561   9.961 -0.9575 -1.3414  0.8829
28904SOL    HW290629   4.271   1.668   9.936 -0.4109 -0.8436  0.6930
28905SOL     OW90630   3.128   7.253   5.797 -0.5346 -0.4122 -0.1663
28905SOL    HW190631   3.033   7.258   5.805 -0.4617  0.1548  0.4595
28905SOL    HW290632   3.145   7.250   5.703 -1.1206  0.6629 -0.3147
28906SOL     OW90633   2.288   6.905   1.083  0.8122 -0.3878 -0.1661
28906SOL    HW190634   2.354   6.835   1.083  0.9804 -0.3464  2.7720
28906SOL    HW290635   2.330   6.978   1.129 -0.5023  0.4414 -0.2227
28907SOL     OW90636   6.787   8.083   1.888 -0.8410  0.2669  0.1806
28907SOL    HW190637   6.763   8.155   1.947 -0.0286  0.2113  0.5911
28907SOL    HW290638   6.725   8.013   1.909 -2.3408  1.1943 -0.9684
28908SOL     OW90639   5.560   7.128   3.381  0.2851 -0.0713  0.2493
28908SOL    HW190640   5.575   7.040   3.348  1.2502 -0.0476  0.5932
28908SOL    HW290641   5.568   7.184   3.303  1.8746 -0.0823  0.3698
28909SOL     OW90642   0.093   6.564  10.203  0.5044  0.0304 -0.5848
28909SOL    HW190643   0.164   6.511  10.238  0.2886  0.3173  0.3201
28909SOL    HW290644   0.114   6.653  10.228  0.8149  0.3879 -2.0144
28910SOL     OW90645   6.940   2.548   2.745  0.1106 -0.7553  0.4676
28910SOL    HW190646   6.939   2.583   2.834  2.3616 -0.1747  0.3229
28910SOL    HW290647   6.992   2.610   2.695 -0.7743 -1.2789 -1.1941
28911SOL     OW90648   1.402   4.413   6.287  0.1885 -0.0514 -0.5879
28911SOL    HW190649   1.484   4.423   6.238  1.0563 -0.5246  0.6881
28911SOL    HW290650   1.356   4.342   6.243  0.9888 -0.5335 -0.6697
28912SOL     OW90651   6.338   9.479   9.581  0.0054  0.0693 -0.9985
28912SOL    HW190652   6.390   9.423   9.523  0.7138  0.5295 -0.8223
28912SOL    HW290653   6.354   9.568   9.550  2.9559  0.6895  1.7082
28913SOL     OW90654   3.177   9.841   3.281  0.4595  0.2589  0.1203
28913SOL    HW190655   3.271   9.850   3.265  0.5014  1.9781  1.1448
28913SOL    HW290656   3.171   9.816   3.374 -0.0579 -2.0634 -0.4689
28914SOL     OW90657   6.849  10.120   0.316  0.3803 -0.1468 -0.6113
28914SOL    HW190658   6.871  10.115   0.409 -0.4325  0.5923 -0.3695
28914SOL    HW290659   6.888  10.041   0.278 -1.2068 -1.6518  0.7421
28915SOL     OW90660   4.680   9.055   3.881 -0.3550 -0.6735 -0.5932
28915SOL    HW190661   4.655   9.147   3.893  0.5394 -0.3677 -1.0135
28915SOL    HW290662   4.741   9.037   3.952 -0.8732 -1.0817 -0.2468
28916SOL     OW90663   1.494   2.093   4.103 -0.3187  0.2217 -0.5313
28916SOL    HW190664   1.416   2.056   4.145  2.0207 -1.2755  2.9832
28916SOL    HW290665   1.535   2.019   4.059  1.3038 -0.1182  1.4275
28917SOL     OW90666   5.358   6.309   2.567  0.1972 -0.4599  0.1933
28917SOL    HW190667   5.333   6.373   2.501 -0.9750 -0.0012  1.0585
28917SOL    HW290668   5.355   6.225   2.520 -0.4777 -0.1288 -0.3825
28918SOL     OW90669   4.039   0.496   0.113  0.3750  0.1975 -0.1753
28918SOL    HW190670   3.953   0.500   0.156 -0.4813  0.2912 -1.8346
28918SOL    HW290671   4.061   0.587   0.096  0.1546  0.1014 -0.9896
28919SOL     OW90672   0.559   2.772   4.617  0.0666 -0.0571 -0.1655
28919SOL    HW190673   0.548   2.804   4.528  0.3455  0.9535  0.1586
28919SOL    HW290674   0.637   2.817   4.650  0.2565 -0.7889  0.4308
28920SOL     OW90675   8.433   6.906   2.819  0.3379  0.4258 -0.6240
28920SOL    HW190676   8.480   6.954   2.751 -1.2539 -0.0068 -2.0714
28920SOL    HW290677   8.341   6.914   2.796 -0.1874 -0.5889  0.9278
28921SOL     OW90678   3.453   2.423   1.110  0.0165  0.0525 -0.1075
28921SOL    HW190679   3.394   2.348   1.120  0.5413 -0.3142  0.2868
28921SOL    HW290680   3.540   2.389   1.130  0.4890  0.4048 -1.3970
28922SOL     OW90681   4.649   5.972   1.200 -0.3848  0.0947 -0.3350
28922SOL    HW190682   4.729   6.022   1.183 -0.8373  0.6893 -0.7584
28922SOL    HW290683   4.645   5.965   1.295  2.2566 -3.3994 -0.2670
28923SOL     OW90684   6.605   8.543   9.594 -0.1902  0.2854 -0.6063
28923SOL    HW190685   6.582   8.599   9.669 -0.9215 -0.3744 -0.3199
28923SOL    HW290686   6.625   8.605   9.524  2.6129  0.9894  0.6672
28924SOL     OW90687   4.920   0.950   7.441  0.0515 -0.1021  0.1674
28924SOL    HW190688   4.998   0.979   7.488 -0.4322 -0.5217  1.2649
28924SOL    HW290689   4.888   1.028   7.396  0.5245  0.3174  0.5556
28925SOL     OW90690   8.768   9.464   8.086 -0.1266 -0.4871  0.4577
28925SOL    HW190691   8.842   9.449   8.145  1.3760  0.0462 -1.2306
28925SOL    HW290692   8.724   9.379   8.080  0.9060 -1.0526  0.7493
28926SOL     OW90693   4.602   9.059   2.986  0.2560 -0.1936 -0.0876
28926SOL    HW190694   4.546   8.986   3.014 -1.0372  0.2666 -1.3613
28926SOL    HW290695   4.557   9.137   3.019  1.6133  0.0776  1.2364
28927SOL     OW90696   9.178   5.023   2.335  0.3116  0.3417  0.5153
28927SOL    HW190697   9.142   4.981   2.257  0.3919 -0.0667  0.6924
28927SOL    HW290698   9.269   5.042   2.312  0.4211 -0.0520  0.6093
28928SOL     OW90699   7.058   0.665   0.154  0.2430 -0.2047  0.2325
28928SOL    HW190700   6.983   0.716   0.184  2.2482  1.2125  3.3753
28928SOL    HW290701   7.029   0.574   0.159 -1.9285  0.3757 -0.8765
28929SOL     OW90702   9.709   8.231   7.782  0.1403  0.2989 -0.6364
28929SOL    HW190703   9.677   8.294   7.716  1.2955  1.7675  0.1429
28929SOL    HW290704   9.785   8.274   7.820  1.5780 -2.0413 -0.7330
28930SOL     OW90705   1.009   3.606   1.411 -0.4561 -0.6320 -0.8106
28930SOL    HW190706   0.976   3.520   1.439 -3.1853 -0.2004 -2.2826
28930SOL    HW290707   0.947   3.669   1.449  0.5518  0.5576 -1.0872
28931SOL     OW90708   9.815   5.366   1.985  0.2885 -0.1661 -0.2433
28931SOL    HW190709   9.733   5.341   2.029  0.1545  0.7594  0.0531
28931SOL    HW290710   9.814   5.315   1.903 -0.0236 -1.0225  0.2773
28932SOL     OW90711   3.336   8.353   9.521 -0.1457 -0.5250  0.3805
28932SOL    HW190712   3.346   8.382   9.611 -0.0952  0.4833  0.0676
28932SOL    HW290713   3.350   8.432   9.469 -0.4739 -1.0283 -0.4959
28933SOL     OW90714   5.734   8.750   0.452 -0.4516  0.5611  0.2555
28933SOL    HW190715   5.728   8.712   0.365 -1.4476  2.5397 -0.6078
28933SOL    HW290716   5.644   8.748   0.485 -0.3919  1.4541  0.4952
28934SOL     OW90717   3.291   1.424   9.658  0.6071 -0.2923  0.2713
28934SOL    HW190718   3.262   1.339   9.691 -1.9137  0.8968  1.2871
28934SOL    HW290719   3.240   1.488   9.706  1.3421  1.7769 -1.5397
28935SOL     OW90720   5.970   9.047   5.721 -0.3279  0.6693  0.5465
28935SOL    HW190721   6.028   9.096   5.779  2.0601 -1.4051  0.0914
28935SOL    HW290722   5.967   8.959   5.758 -1.2613  0.1059 -0.7913
28936SOL     OW90723   5.162   3.634   5.532  0.3014  0.3120  0.1294
28936SOL    HW190724   5.255   3.633   5.512  0.5847 -2.0253  1.2519
28936SOL    HW290725   5.119   3.608   5.451  0.7692 -0.4007  0.1078
28937SOL     OW90726   5.274   8.294  10.180 -0.0204 -0.0837  0.2149
28937SOL    HW190727   5.322   8.348  10.243 -1.1446 -0.8745  1.8125
28937SOL    HW290728   5.339   8.232  10.147  0.3070 -0.5160  1.6153
28938SOL     OW90729   4.917   4.431   0.885  0.2348  0.1222 -0.5187
28938SOL    HW190730   4.930   4.350   0.934  0.4667 -0.7091 -1.8990
28938SOL    HW290731   4.879   4.492   0.949  1.2623 -0.6524  0.8852
28939SOL     OW90732   9.904   8.137   8.099  0.1009 -0.0833  0.2076
28939SOL    HW190733   9.855   8.220   8.095 -1.2765 -0.8994 -1.8778
28939SOL    HW290734   9.995   8.163   8.113  0.0800  2.0023 -2.6693
28940SOL     OW90735   5.060   9.469   2.602  0.6676 -0.6446 -0.1210
28940SOL    HW190736   5.019   9.541   2.650 -0.7960 -0.5310 -1.4687
28940SOL    HW290737   5.008   9.392   2.626  0.5105 -0.7521 -0.7850
28941SOL     OW90738   3.059   5.077   8.487 -0.2249 -0.4307  0.1050
28941SOL    HW190739   2.973   5.056   8.525 -1.1706  0.9835 -1.1247
28941SOL    HW290740   3.118   5.013   8.525 -1.9618 -1.9108  0.4779
28942SOL     OW90741   1.305   2.177   6.232  0.3581  0.1533 -0.3783
28942SOL    HW190742   1.275   2.250   6.287 -1.3472  0.2235 -1.3487
28942SOL    HW290743   1.396   2.198   6.211  0.2162  1.4495  0.2428
28943SOL     OW90744   9.434   7.295  10.001  0.0221 -0.1128 -0.0705
28943SOL    HW190745   9.458   7.385  10.024 -0.6637 -0.3079  1.5593
28943SOL    HW290746   9.418   7.253  10.085  1.4153 -2.0945 -0.7322
28944SOL     OW90747   0.664   2.478   7.789 -0.4638 -0.1873  0.3408
28944SOL    HW190748   0.749   2.468   7.832 -0.9168 -1.5782  0.9569
28944SOL    HW290749   0.684   2.511   7.702  0.7058 -0.5706  0.4606
28945SOL     OW90750   8.340   7.785   6.176 -0.0925 -0.0671 -0.0060
28945SOL    HW190751   8.296   7.707   6.208  0.7843 -0.4281  0.3308
28945SOL    HW290752   8.379   7.758   6.093  2.3148 -0.7450  1.2630
28946SOL     OW90753   3.604   8.403   6.363  0.1715 -0.5535  0.1736
28946SOL    HW190754   3.550   8.439   6.433  1.2401  2.0004 -0.2052
28946SOL    HW290755   3.686   8.452   6.368  0.4252 -0.5203 -2.6109
28947SOL     OW90756   6.416   4.482   3.978  0.1767 -0.1981  0.7500
28947SOL    HW190757   6.331   4.524   3.986  0.5444  1.2965 -2.0216
28947SOL    HW290758   6.398   4.396   3.941 -0.0736  1.0683 -2.3041
28948SOL     OW90759   5.214   5.649   9.324  0.6481 -0.3120 -0.5664
28948SOL    HW190760   5.273   5.573   9.320  1.2665  0.0504  0.8238
28948SOL    HW290761   5.137   5.622   9.275  1.0969 -1.6218 -0.6059
28949SOL     OW90762   6.360   2.331   0.613  0.3908  0.2198 -0.1701
28949SOL    HW190763   6.365   2.292   0.700  0.6497 -0.0162 -0.2901
28949SOL    HW290764   6.403   2.268   0.555 -2.0036 -0.8811 -0.9188
28950SOL     OW90765   7.899   1.680   5.028  0.0052  0.0824  0.0937
28950SOL    HW190766   7.891   1.611   4.962  0.2783  0.4404 -0.3174
28950SOL    HW290767   7.836   1.747   5.000  0.7428  0.6222 -0.2913
28951SOL     OW90768   4.217   1.381   9.754 -0.0528 -0.0437  0.0672
28951SOL    HW190769   4.245   1.468   9.782 -0.4488  0.2612 -0.4664
28951SOL    HW290770   4.210   1.331   9.835  3.6767 -0.6619  0.1599
28952SOL     OW90771   8.007   4.286   5.000  0.6691  0.1563 -0.1234
28952SOL    HW190772   8.086   4.292   4.945 -0.6805  0.8601 -2.1008
28952SOL    HW290773   7.976   4.377   5.006  1.1245  0.2058  2.4421
28953SOL     OW90774   5.388   3.723   4.562 -0.2020 -0.2599  0.0101
28953SOL    HW190775   5.473   3.711   4.519  1.0052 -0.3129  2.2439
28953SOL    HW290776   5.343   3.639   4.550  0.1354 -0.3077 -1.0025
28954SOL     OW90777   4.141   7.217   4.503  0.3926  0.4993  0.7562
28954SOL    HW190778   4.069   7.155   4.508 -0.1687  1.0642 -0.0624
28954SOL    HW290779   4.200   7.180   4.436  1.4978 -0.5663  2.2365
28955SOL     OW90780   1.774   1.580   8.873 -0.7643  0.3493  0.0849
28955SOL    HW190781   1.854   1.558   8.921 -0.9356 -2.1831 -0.6315
28955SOL    HW290782   1.703   1.566   8.936 -0.6833  3.3913  0.9718
28956SOL     OW90783   5.627   7.917   1.446  0.0983 -0.0563 -0.0420
28956SOL    HW190784   5.593   7.976   1.512  1.5967  0.4172  0.3461
28956SOL    HW290785   5.655   7.974   1.374 -0.0561 -0.4394 -0.4140
28957SOL     OW90786   3.996   9.281   5.184  0.7574  0.0242  0.1735
28957SOL    HW190787   4.028   9.371   5.193  0.6059  0.2155 -1.1249
28957SOL    HW290788   4.008   9.260   5.092  0.1333 -1.0439  0.3234
28958SOL     OW90789   1.666   7.740   3.582 -0.0922 -0.0131 -0.0692
28958SOL    HW190790   1.612   7.713   3.508 -1.2948  0.4215  0.6179
28958SOL    HW290791   1.736   7.792   3.543  2.1515 -3.6700 -1.4181
28959SOL     OW90792   2.520  10.030   6.308  0.1906 -0.2616 -0.2752
28959SOL    HW190793   2.439  10.077   6.285  0.7930  1.6488  1.2241
28959SOL    HW290794   2.490   9.946   6.342 -1.1296  0.1323 -0.4016
28960SOL     OW90795   8.113   7.304   7.887  0.3606 -0.0553 -1.0057
28960SOL    HW190796   8.090   7.300   7.794  0.8355 -0.3385 -1.1153
28960SOL    HW290797   8.102   7.396   7.910 -1.4137 -0.2701 -0.9041
28961SOL     OW90798   8.474   3.162   4.930 -0.6674 -0.0223 -0.3846
28961SOL    HW190799   8.537   3.233   4.936  0.2114 -0.8284  0.2410
28961SOL    HW290800   8.412   3.190   4.863  1.4406 -0.0249 -2.4627
28962SOL     OW90801   8.879   9.528   6.559 -0.6451  0.0182 -0.6995
28962SOL    HW190802   8.854   9.608   6.606  0.8867  0.8490 -1.2288
28962SOL    HW290803   8.890   9.556   6.468 -1.4024 -1.1056 -1.1646
28963SOL     OW90804   4.609   8.432   2.132  0.2671  0.1645 -0.2819
28963SOL    HW190805   4.602   8.397   2.221 -0.2224  1.5179  0.2359
28963SOL    HW290806   4.703   8.447   2.120  0.4216 -0.7543 -0.3054
28964SOL     OW90807   9.302   5.804   5.503 -0.1233  0.6466 -0.2389
28964SOL    HW190808   9.363   5.877   5.489  0.8200 -0.2489 -0.9755
28964SOL    HW290809   9.265   5.787   5.416  1.4336 -1.2344 -0.6165
28965SOL     OW90810   0.876   0.226   7.643 -0.1130 -0.3959  0.2108
28965SOL    HW190811   0.825   0.237   7.723 -1.1663 -1.7398 -0.2366
28965SOL    HW290812   0.924   0.144   7.657  0.7020  0.0242 -0.0333
28966SOL     OW90813   0.453   5.248   2.270 -0.2928 -0.1314  0.0309
28966SOL    HW190814   0.537   5.230   2.312 -0.3214 -0.3933 -0.0229
28966SOL    HW290815   0.473   5.318   2.207 -0.4210  0.8261  1.0370
28967SOL     OW90816   2.763   9.657   4.679  0.8890  0.6983  0.3961
28967SOL    HW190817   2.806   9.731   4.637  2.0476 -0.9601 -1.5259
28967SOL    HW290818   2.827   9.625   4.743  0.6081  1.0140  0.8402
28968SOL     OW90819   1.912   2.864   6.281  0.3546 -0.1103  0.7463
28968SOL    HW190820   1.819   2.855   6.260  0.3544 -0.4547  0.8871
28968SOL    HW290821   1.952   2.895   6.200  0.0551  0.4210  0.8012
28969SOL     OW90822   4.474   7.166   7.813 -0.1257 -0.0582 -0.2304
28969SOL    HW190823   4.389   7.144   7.775 -0.8573  0.1940  1.2193
28969SOL    HW290824   4.476   7.122   7.897 -1.0169  3.8773  2.1193
28970SOL     OW90825   0.683   5.073   8.715  0.1659 -0.1725  0.2754
28970SOL    HW190826   0.678   5.021   8.795  0.0469 -0.8390 -0.1527
28970SOL    HW290827   0.708   5.160   8.744  1.3654 -0.7046  0.9213
28971SOL     OW90828   9.764   5.913   1.145  0.1324  0.1736 -0.0338
28971SOL    HW190829   9.761   6.008   1.153  1.1754  0.0642  2.8884
28971SOL    HW290830   9.675   5.885   1.167 -0.1175  0.4548 -0.6703
28972SOL     OW90831   7.835   0.950   4.616  0.3753  0.2609 -0.3323
28972SOL    HW190832   7.917   0.967   4.662 -0.3913 -1.6221  1.9013
28972SOL    HW290833   7.788   1.034   4.618  0.9549  0.5709  1.1569
28973SOL     OW90834   3.710   8.840   1.941 -0.4616 -0.8643  0.3021
28973SOL    HW190835   3.711   8.766   1.880  0.2203 -1.4001  0.9511
28973SOL    HW290836   3.634   8.892   1.913  0.9647  0.0147 -2.3012
28974SOL     OW90837   3.326   9.788   9.615 -0.0607  0.4977 -0.1135
28974SOL    HW190838   3.287   9.806   9.530 -1.0513 -0.2921  0.1533
28974SOL    HW290839   3.253   9.795   9.677  0.2221 -0.8459  0.4167
28975SOL     OW90840   6.389   0.578   2.147 -0.0585 -0.0293  0.5310
28975SOL    HW190841   6.329   0.550   2.079  0.1664  0.4474  0.1312
28975SOL    HW290842   6.333   0.601   2.221 -0.3341 -0.0912  0.3402
28976SOL     OW90843   5.277   9.079   3.163 -0.1978 -0.4075 -0.2600
28976SOL    HW190844   5.226   9.081   3.082 -1.7528  0.7563  0.6708
28976SOL    HW290845   5.311   8.990   3.168 -3.1635 -1.6911 -0.4003
28977SOL     OW90846   9.588   9.247   9.514 -0.0078 -0.2237  0.1544
28977SOL    HW190847   9.671   9.248   9.562  0.6103  1.0144 -0.8817
28977SOL    HW290848   9.588   9.164   9.467  1.2318  0.2722 -0.7791
28978SOL     OW90849   1.844   4.030   6.556 -0.3038  0.0101 -0.4995
28978SOL    HW190850   1.785   4.097   6.521 -0.5319  0.3004  0.4191
28978SOL    HW290851   1.926   4.076   6.572 -0.6300  0.2240  0.6606
28979SOL     OW90852   7.441  10.173   0.892  0.3341  0.3196 -0.0061
28979SOL    HW190853   7.389  10.236   0.842  1.3895  1.2005 -0.0465
28979SOL    HW290854   7.468  10.221   0.970  2.7104  0.6228 -0.9093
28980SOL     OW90855   2.994   6.207   8.647  0.5327  0.1194  0.3351
28980SOL    HW190856   2.981   6.293   8.687  0.8018  0.3947 -0.1582
28980SOL    HW290857   2.986   6.223   8.553  0.3338 -0.4448  0.2536
28981SOL     OW90858   1.442   3.057   6.292  0.0104  0.0747  0.8924
28981SOL    HW190859   1.361   3.028   6.250  0.6485  2.7626 -2.6838
28981SOL    HW290860   1.486   2.976   6.317 -2.2005 -1.6034 -0.2575
28982SOL     OW90861   0.817   4.828   2.094  0.4730 -0.5735 -0.0234
28982SOL    HW190862   0.896   4.777   2.109  1.6450  1.3631  0.7428
28982SOL    HW290863   0.839   4.885   2.020 -0.5516 -0.6339 -0.3927
28983SOL     OW90864   7.727   8.120   2.706  0.1663 -0.0520 -0.5347
28983SOL    HW190865   7.785   8.186   2.667 -0.7816  1.3197  0.2496
28983SOL    HW290866   7.641   8.140   2.668 -0.1083 -0.9806 -0.4170
28984SOL     OW90867   3.449   3.414   9.082 -0.5681 -0.1301 -0.0884
28984SOL    HW190868   3.401   3.334   9.061  0.7320 -0.7611 -0.7946
28984SOL    HW290869   3.448   3.419   9.177 -2.5007  0.2049 -0.0792
28985SOL     OW90870   7.808   4.124   3.429 -0.2059  0.0883  0.1494
28985SOL    HW190871   7.834   4.214   3.449 -2.1656  0.6734  0.2714
28985SOL    HW290872   7.856   4.070   3.491  1.3510  0.9967 -0.2250
28986SOL     OW90873   5.630   7.032   2.502 -0.6836  0.2949  0.1798
28986SOL    HW190874   5.574   6.987   2.438 -0.9569 -1.2943  1.4692
28986SOL    HW290875   5.719   7.012   2.474 -0.7798  0.6808 -0.4211
28987SOL     OW90876   0.347   5.698   1.219 -0.4480 -0.1128  0.0839
28987SOL    HW190877   0.362   5.621   1.274 -0.9624  0.3916  0.9515
28987SOL    HW290878   0.298   5.664   1.144 -2.8277 -0.3006  1.6021
28988SOL     OW90879   6.351   0.162   3.453  0.2897  0.1052 -0.0657
28988SOL    HW190880   6.376   0.173   3.361 -1.4902  0.7521 -0.5015
28988SOL    HW290881   6.306   0.078   3.456  0.8549 -0.1881  0.3432
28989SOL     OW90882   8.909   7.485   6.800 -0.4971  0.1830  0.6618
28989SOL    HW190883   8.897   7.397   6.764 -0.7970 -0.1332  1.4984
28989SOL    HW290884   9.000   7.507   6.781 -0.4694 -0.2360  0.2940
28990SOL     OW90885   7.319   8.003   1.462  0.0625  0.6265  0.3956
28990SOL    HW190886   7.377   8.075   1.487  1.3914  0.5855 -2.2414
28990SOL    HW290887   7.244   8.047   1.422 -1.2353  0.6173  2.6203
28991SOL     OW90888   6.305   3.134   4.165  0.0266 -0.2043 -0.2895
28991SOL    HW190889   6.355   3.214   4.151  0.0801 -0.1346  0.2923
28991SOL    HW290890   6.235   3.159   4.226 -0.0034 -0.5793 -0.1682
28992SOL     OW90891   2.016   5.397   2.072 -0.4264  0.5772 -0.3861
28992SOL    HW190892   1.973   5.426   1.992 -1.5714 -0.3148 -0.1247
28992SOL    HW290893   2.088   5.341   2.043 -0.1255  1.1858 -0.8109
28993SOL     OW90894   4.381   2.972   2.676 -0.3251 -0.1401 -0.0687
28993SOL    HW190895   4.348   3.056   2.645 -0.6548 -0.7728 -1.5135
28993SOL    HW290896   4.303   2.919   2.690 -0.0782 -1.3431 -2.6246
28994SOL     OW90897   7.289   2.871   2.280 -0.0078 -0.3989 -0.2046
28994SOL    HW190898   7.205   2.858   2.325  0.8728 -2.4189  0.9847
28994SOL    HW290899   7.264   2.904   2.193 -1.8799  1.1737  0.8361
28995SOL     OW90900   7.124   3.562   2.090  0.5411  0.7000 -0.0753
28995SOL    HW190901   7.196   3.518   2.045  0.5752  1.5664 -0.8991
28995SOL    HW290902   7.092   3.497   2.153  0.9082 -0.3328 -0.9115
28996SOL     OW90903   2.950   8.650   5.062 -0.0211 -0.0927 -0.9028
28996SOL    HW190904   3.044   8.631   5.057  0.2025  1.0279 -1.3284
28996SOL    HW290905   2.937   8.686   5.149 -0.3996 -1.8788 -0.1878
28997SOL     OW90906   0.578   7.041   1.941  0.4055 -0.1829  0.0132
28997SOL    HW190907   0.652   7.101   1.950  1.5376 -1.5891  0.3994
28997SOL    HW290908   0.570   6.999   2.027 -0.2740 -0.7082 -0.2963
28998SOL     OW90909   6.402   1.160   0.675  0.1602 -1.0815 -0.0493
28998SOL    HW190910   6.465   1.214   0.628 -0.6935 -0.4716 -0.5262
28998SOL    HW290911   6.362   1.106   0.607 -0.2920 -0.9903  0.1413
28999SOL     OW90912   5.608   9.120   5.149 -0.0228  0.2737 -0.1087
28999SOL    HW190913   5.555   9.183   5.198 -0.4298 -1.2773  1.5377
28999SOL    HW290914   5.562   9.112   5.065 -0.0380  2.0092 -0.3154
29000SOL     OW90915   6.234  10.148   9.220 -0.1778 -0.1739  0.0264
29000SOL    HW190916   6.203  10.059   9.237 -0.2870  0.0910  1.3517
29000SOL    HW290917   6.307  10.160   9.280 -2.1689  1.6763  2.3009
29001SOL     OW90918   6.676   0.514   8.132  0.1006  0.1024  0.1881
29001SOL    HW190919   6.664   0.609   8.123  2.0767  0.3430 -0.4702
29001SOL    HW290920   6.755   0.505   8.184 -0.3560 -1.2229  0.6930
29002SOL     OW90921   8.310   7.501   6.169  0.2404  0.5771  0.1242
29002SOL    HW190922   8.316   7.501   6.074  0.5906 -0.6186  0.1395
29002SOL    HW290923   8.394   7.467   6.199  0.0668  0.7738  0.8637
29003SOL     OW90924   0.076   3.822   4.399 -0.3226  0.0969 -0.5319
29003SOL    HW190925   0.065   3.730   4.422 -1.6183  0.5073  0.6344
29003SOL    HW290926   0.165   3.828   4.365 -0.1066 -1.5155 -0.3101
29004SOL     OW90927   7.504   3.497   2.979 -0.2143  0.3350  0.2100
29004SOL    HW190928   7.507   3.461   3.068  0.9528  0.4773  0.2553
29004SOL    HW290929   7.500   3.420   2.922 -0.6272  0.2308  0.3798
29005SOL     OW90930   2.233   4.732   1.080  0.0095  0.2551  0.0381
29005SOL    HW190931   2.199   4.723   1.170  2.9802 -0.1808  1.2255
29005SOL    HW290932   2.233   4.643   1.046 -0.1410  0.2685  0.0042
29006SOL     OW90933   0.191   8.132   1.200 -0.0468 -0.2408 -0.4722
29006SOL    HW190934   0.269   8.181   1.173  1.0702 -2.4353 -1.5198
29006SOL    HW290935   0.119   8.177   1.156  0.9641  0.3293 -1.6374
29007SOL     OW90936   6.035   2.724   0.913 -0.1474 -0.1518  0.7711
29007SOL    HW190937   6.037   2.756   0.823 -0.6325 -0.6095  0.5954
29007SOL    HW290938   6.108   2.663   0.920 -0.6657 -0.8209  0.4184
29008SOL     OW90939   8.588   3.642   8.565 -0.3113 -0.3794  0.3096
29008SOL    HW190940   8.505   3.652   8.611  0.8917  1.6091  2.2764
29008SOL    HW290941   8.566   3.651   8.472 -2.2321  0.5888  0.8157
29009SOL     OW90942   7.757   8.804   6.498  0.5315 -0.1451 -0.3597
29009SOL    HW190943   7.849   8.832   6.497  0.7108 -0.6577  0.5072
29009SOL    HW290944   7.753   8.734   6.433  0.4206  0.8092 -1.4232
29010SOL     OW90945   4.126   1.012   1.018 -0.0843 -0.3331 -0.1363
29010SOL    HW190946   4.151   0.984   0.930  0.4101  0.3795 -0.2335
29010SOL    HW290947   4.030   1.016   1.015 -0.1557 -1.8174 -0.1577
29011SOL     OW90948   4.967   8.212   0.556  0.8123 -0.2659 -0.1236
29011SOL    HW190949   4.976   8.139   0.618 -2.6447 -0.2609  0.5506
29011SOL    HW290950   4.954   8.170   0.471  1.4717 -0.3437 -0.1929
29012SOL     OW90951   6.964   2.848   3.927  0.1189 -0.3122 -0.0842
29012SOL    HW190952   6.996   2.826   4.015  1.2062 -0.4289 -0.4901
29012SOL    HW290953   6.873   2.872   3.940  0.2689 -0.3054  1.0850
29013SOL     OW90954   2.122   4.291   4.970  0.3848  0.2621  0.0508
29013SOL    HW190955   2.146   4.199   4.977  0.6081  0.3336  0.2286
29013SOL    HW290956   2.127   4.311   4.877 -0.6849 -0.1803 -0.1177
29014SOL     OW90957   7.913   4.308   9.918 -0.2952 -0.0870 -0.9381
29014SOL    HW190958   7.915   4.257   9.837  0.4833 -0.0019 -0.9816
29014SOL    HW290959   8.003   4.303   9.951 -0.7653 -0.6851  0.2775
29015SOL     OW90960   3.878   4.233   5.773  0.1825  0.2989  0.0035
29015SOL    HW190961   3.964   4.253   5.811  0.5704 -2.2009  0.6015
29015SOL    HW290962   3.816   4.276   5.832  0.9014 -1.0294  1.8268
29016SOL     OW90963   7.088   7.002   5.918  0.2114 -0.3212  0.1053
29016SOL    HW190964   7.162   6.959   5.961 -0.7226 -1.7141  0.3514
29016SOL    HW290965   7.111   7.095   5.920  1.2095 -0.5602  1.6647
29017SOL     OW90966   9.114   4.197   0.044  0.1368  0.1141  0.4024
29017SOL    HW190967   9.066   4.141   0.105  1.1112 -1.4981 -0.2474
29017SOL    HW290968   9.123   4.144  -0.035  2.2297  0.6695  0.2072
29018SOL     OW90969   9.842   4.123   4.676  0.0682 -1.0737  0.0842
29018SOL    HW190970   9.838   4.027   4.676  0.7583 -1.1335 -1.9328
29018SOL    HW290971   9.756   4.149   4.710 -0.6761 -2.4065 -0.6626
29019SOL     OW90972   1.505   6.439   7.683 -0.2114  0.4019 -0.1345
29019SOL    HW190973   1.595   6.431   7.651  0.1825  0.1034  1.0191
29019SOL    HW290974   1.459   6.364   7.644  0.5368 -0.6180  0.8700
29020SOL     OW90975   1.738   1.339   7.341 -0.0032 -0.6472 -0.6103
29020SOL    HW190976   1.725   1.370   7.431  0.5000  1.6831 -1.2884
29020SOL    HW290977   1.753   1.245   7.351  0.3292 -0.4133  1.7663
29021SOL     OW90978   6.122   2.390   0.711  0.5228 -0.4766  0.7646
29021SOL    HW190979   6.041   2.392   0.660 -0.4959 -1.8628  2.2292
29021SOL    HW290980   6.191   2.406   0.646 -0.8269 -0.2908 -0.6986
29022SOL     OW90981   2.392   9.443   2.799 -0.2631 -0.4860 -0.1596
29022SOL    HW190982   2.357   9.530   2.784  0.5907 -0.0862  0.1177
29022SOL    HW290983   2.464   9.434   2.735  0.7499 -0.3161  0.9154
29023SOL     OW90984   5.756   6.407   1.771 -0.1758  0.8042 -0.3958
29023SOL    HW190985   5.710   6.413   1.855  0.6206  0.2764  0.0954
29023SOL    HW290986   5.736   6.319   1.740  1.4905  0.0850  0.4409
29024SOL     OW90987   5.986   0.085   5.330 -0.6200 -0.5437 -0.5446
29024SOL    HW190988   6.078   0.083   5.358 -0.5010  0.6046 -0.7984
29024SOL    HW290989   5.950   0.002   5.359  0.7708 -1.4729 -1.3689
29025SOL     OW90990   0.159   6.999   2.141 -0.8797 -0.9042  0.0257
29025SOL    HW190991   0.252   6.987   2.160 -0.6735  0.6359  0.0552
29025SOL    HW290992   0.117   6.996   2.227 -0.7905 -1.0343  0.0661
29026SOL     OW90993   2.526   9.957   1.717 -0.0725 -0.4677 -0.2424
29026SOL    HW190994   2.519   9.902   1.640 -1.7652 -0.3893 -0.1832
29026SOL    HW290995   2.528  10.047   1.682  3.4958 -0.4473 -0.3939
29027SOL     OW90996   4.351   4.886   7.010 -0.1664  0.3531 -0.2707
29027SOL    HW190997   4.336   4.822   7.080  0.3964  1.5192  0.9602
29027SOL    HW290998   4.443   4.876   6.987  0.3123  1.6827  0.9576
29028SOL     OW90999   5.057   2.965   3.426  0.5049  0.5429  0.2196
29028SOL    HW191000   5.038   2.904   3.355  2.3960 -0.3840  0.4509
29028SOL    HW291001   5.110   3.033   3.386  2.4890 -0.5398  0.8900
29029SOL     OW91002   2.095   0.007   7.052  0.6951 -0.3577 -0.1041
29029SOL    HW191003   2.105   0.027   6.959  1.5102 -1.1186 -0.1895
29029SOL    HW291004   2.172  -0.045   7.074  0.3194 -0.5071  0.9117
29030SOL     OW91005   0.131   2.190   5.581  0.5761 -0.2852 -0.2074
29030SOL    HW191006   0.087   2.275   5.585 -1.8810 -1.5444  1.9957
29030SOL    HW291007   0.210   2.202   5.633 -0.5950  0.2552  1.5227
29031SOL     OW91008   0.779   3.655   3.513  0.0662 -0.0361 -0.2712
29031SOL    HW191009   0.828   3.652   3.595 -0.0968  1.6497 -0.0896
29031SOL    HW291010   0.786   3.566   3.478 -0.1014 -0.8612  1.6917
29032SOL     OW91011   4.073   6.142   5.539 -0.1413 -0.6191  0.0450
29032SOL    HW191012   4.127   6.083   5.592 -1.2206 -0.7733  1.0215
29032SOL    HW291013   4.124   6.157   5.460  2.1797  0.6811  1.6563
29033SOL     OW91014   3.401   4.919   6.483  0.4074 -0.3471  0.2034
29033SOL    HW191015   3.388   4.834   6.441  1.6132 -0.0973 -0.7548
29033SOL    HW291016   3.390   4.982   6.411  0.2787  0.2545  0.7466
29034SOL     OW91017   3.601   2.685   6.066  0.0594 -0.0654  0.3414
29034SOL    HW191018   3.576   2.773   6.037 -0.1048 -0.3170 -0.2823
29034SOL    HW291019   3.660   2.653   5.998 -0.8861 -0.9342 -0.0961
29035SOL     OW91020   1.979   8.836   8.464  0.2519  0.2242 -0.3011
29035SOL    HW191021   1.889   8.807   8.451  0.2175  0.1610  0.0799
29035SOL    HW291022   1.973   8.931   8.472  0.3236  0.3150 -1.1740
29036SOL     OW91023   9.469   0.141   9.397  0.0079 -0.1693  0.5251
29036SOL    HW191024   9.413   0.063   9.393  0.7860 -0.7728  1.1686
29036SOL    HW291025   9.543   0.115   9.450  0.7853  0.7094 -0.0930
29037SOL     OW91026   5.507   2.670   1.353 -0.1519 -0.3861 -0.2509
29037SOL    HW191027   5.600   2.656   1.373 -0.4934 -1.2673  0.8359
29037SOL    HW291028   5.467   2.692   1.437 -1.1090 -1.1184 -0.4888
29038SOL     OW91029   5.021   2.920   1.293  0.5457 -0.0021  0.3788
29038SOL    HW191030   5.019   2.930   1.198  0.2341  1.1848  0.5032
29038SOL    HW291031   5.030   2.825   1.306  0.7319 -0.1731 -0.8241
29039SOL     OW91032   6.157   0.322   0.610 -0.1143  0.0813 -0.5673
29039SOL    HW191033   6.139   0.285   0.523 -1.0000  1.7188 -1.1329
29039SOL    HW291034   6.204   0.253   0.656 -0.8824 -1.3704 -1.8566
29040SOL     OW91035   9.019   9.591   7.357 -0.3466 -0.2349 -0.0238
29040SOL    HW191036   9.043   9.682   7.374  0.0537 -0.3638  0.1007
29040SOL    HW291037   9.086   9.559   7.296 -0.4852 -0.4457 -0.0676
29041SOL     OW91038   5.107   3.710   6.806  0.1526  0.0231 -0.0105
29041SOL    HW191039   5.194   3.698   6.843 -0.1886 -1.7039  0.3230
29041SOL    HW291040   5.079   3.622   6.783 -1.5967  0.5318  0.0694
29042SOL     OW91041   5.777   9.563   0.621 -0.4012 -0.0679  0.2765
29042SOL    HW191042   5.731   9.523   0.547 -1.3469  0.2991  0.6484
29042SOL    HW291043   5.863   9.585   0.587 -1.2990  1.3894 -1.1357
29043SOL     OW91044   1.956   3.219   5.434  0.0353  0.6308 -0.0498
29043SOL    HW191045   2.040   3.262   5.418 -0.5487  1.6818 -0.3958
29043SOL    HW291046   1.962   3.188   5.524  1.0914 -0.0213 -0.3260
29044SOL     OW91047   5.250   2.473   7.129 -0.1814 -0.6721 -0.5198
29044SOL    HW191048   5.269   2.554   7.082 -1.3256 -1.2960 -2.1622
29044SOL    HW291049   5.328   2.419   7.117  1.3362  0.7318  2.0671
29045SOL     OW91050   4.202   6.559   7.438 -0.1752 -0.0629  0.1008
29045SOL    HW191051   4.202   6.510   7.520  0.1900 -2.0047 -0.9942
29045SOL    HW291052   4.207   6.492   7.370  0.1477  1.5132 -1.5080
29046SOL     OW91053   2.518   9.607   2.440  0.2103  0.3773  0.2248
29046SOL    HW191054   2.424   9.614   2.456  0.4899  2.3057  1.4120
29046SOL    HW291055   2.531   9.518   2.407 -2.0616  0.2063 -0.3427
29047SOL     OW91056   8.842   9.975   7.137 -0.0852 -0.8975  1.1715
29047SOL    HW191057   8.825   9.884   7.116  2.0706 -0.9554 -0.6134
29047SOL    HW291058   8.779  10.024   7.085 -1.0274 -1.3108  1.8843
29048SOL     OW91059   2.556  10.174   8.019  0.5526  0.2999  0.2371
29048SOL    HW191060   2.619  10.152   8.087  0.0589  2.4075  1.4363
29048SOL    HW291061   2.476  10.128   8.044  1.2618 -1.5869 -0.7642
29049SOL     OW91062   3.989   0.393   7.743  0.0029  0.2438 -0.0842
29049SOL    HW191063   3.958   0.482   7.731 -1.3267 -0.2684 -0.5386
29049SOL    HW291064   4.084   0.402   7.753  0.0852  1.5595 -1.7433
29050SOL     OW91065   3.072   5.077   6.219  0.5530 -0.7440  0.2351
29050SOL    HW191066   3.144   5.122   6.176  0.7196 -1.0824  0.1589
29050SOL    HW291067   2.993   5.122   6.188  0.7737  0.2087  1.0159
29051SOL     OW91068   5.581   2.118   9.742  0.0074 -0.0353 -0.0408
29051SOL    HW191069   5.597   2.112   9.837 -2.2092  1.0574  0.4797
29051SOL    HW291070   5.666   2.100   9.702  0.4824 -3.2753  2.0241
29052SOL     OW91071   5.079   0.179   1.560 -0.6553 -0.2419 -0.3845
29052SOL    HW191072   5.108   0.187   1.469 -2.1712 -0.7236 -0.9493
29052SOL    HW291073   4.996   0.131   1.554 -1.1844  0.4190  1.1826
29053SOL     OW91074   6.437   4.992   2.784 -0.3353  0.8825  0.1432
29053SOL    HW191075   6.494   5.001   2.860  0.3508  0.1685 -0.2739
29053SOL    HW291076   6.350   5.016   2.816 -0.2375 -0.3585  1.3906
29054SOL     OW91077   0.525   8.843   7.796 -0.3479 -0.2751 -0.2411
29054SOL    HW191078   0.478   8.859   7.714 -0.9019 -2.6790 -0.4743
29054SOL    HW291079   0.581   8.768   7.777 -0.6158 -1.0016  1.5983
29055SOL     OW91080   4.009   0.392   0.469  0.1877  0.3238 -0.1971
29055SOL    HW191081   4.102   0.388   0.446 -0.0252  2.0561 -1.5779
29055SOL    HW291082   3.980   0.301   0.466  1.2651 -0.0307 -2.5353
29056SOL     OW91083  10.177   9.501   6.166  0.3514  0.3875  0.0566
29056SOL    HW191084  10.136   9.520   6.081  0.5676  0.1992 -0.0915
29056SOL    HW291085  10.108   9.518   6.230 -0.6253 -1.8933 -0.3105
29057SOL     OW91086   2.403   2.653   5.798 -0.9615 -0.3763  0.4262
29057SOL    HW191087   2.394   2.619   5.887 -0.1910 -0.2478  0.5535
29057SOL    HW291088   2.497   2.653   5.780 -1.0608  0.1967 -0.1536
29058SOL     OW91089   3.266   9.034  10.074 -0.5158 -0.2752 -0.0883
29058SOL    HW191090   3.358   9.060  10.077  0.0066 -1.9956  0.0844
29058SOL    HW291091   3.269   8.938  10.077 -2.3280 -0.3474  0.1560
29059SOL     OW91092   4.936   7.250   2.904 -0.1140  0.5476  0.3548
29059SOL    HW191093   4.943   7.178   2.966  0.9106  0.2224 -0.1172
29059SOL    HW291094   4.861   7.226   2.849 -0.4500  0.3876  0.8699
29060SOL     OW91095   1.679   3.243   3.390  0.1718  0.9256 -0.0507
29060SOL    HW191096   1.611   3.243   3.458  1.0638 -1.8524  0.9791
29060SOL    HW291097   1.733   3.319   3.411 -0.7608  1.3185  1.0744
29061SOL     OW91098   5.962   1.700   0.286  0.1125  0.4348  0.5000
29061SOL    HW191099   5.981   1.751   0.364 -0.5759 -1.2072  1.8099
29061SOL    HW291100   5.951   1.610   0.318  2.0098 -0.7097 -1.7885
29062SOL     OW91101  10.119   9.353   1.994  0.0507 -0.9960  0.8867
29062SOL    HW191102  10.169   9.348   1.913 -0.2863 -0.5160  0.6458
29062SOL    HW291103  10.028   9.365   1.965  0.0472  0.2133  1.3398
29063SOL     OW91104   7.028   8.594   7.792 -0.1158 -0.5912  0.3581
29063SOL    HW191105   7.033   8.612   7.886  3.3114  1.4672 -0.0371
29063SOL    HW291106   6.967   8.659   7.758  0.6045  0.3626  0.8643
29064SOL     OW91107   9.449   1.405   4.058 -0.3381  0.0788  0.2374
29064SOL    HW191108   9.501   1.453   4.122 -0.5327 -1.6399  1.7766
29064SOL    HW291109   9.395   1.472   4.016  1.6025  1.6081  0.0332
29065SOL     OW91110   8.961   3.030   9.882 -0.1555 -0.2443 -0.0976
29065SOL    HW191111   8.886   3.025   9.823 -1.2826 -2.5919  1.3854
29065SOL    HW291112   8.928   2.997   9.966  2.0243  0.5740  1.1676
29066SOL     OW91113   8.306   9.355   2.972 -0.1009 -0.2591  0.4425
29066SOL    HW191114   8.354   9.352   3.055  0.3780 -0.5159  0.1568
29066SOL    HW291115   8.223   9.312   2.991 -0.1089 -0.0599  0.8669
29067SOL     OW91116   8.831   6.665   5.375  0.3579 -0.0184 -0.3415
29067SOL    HW191117   8.756   6.695   5.324 -2.2437 -1.4099  2.3783
29067SOL    HW291118   8.850   6.578   5.341 -1.3693 -0.9437  0.9010
29068SOL     OW91119   2.956   0.313   1.634  0.0632 -0.1576  0.0700
29068SOL    HW191120   2.944   0.408   1.635  1.5474  0.0440  0.6296
29068SOL    HW291121   2.894   0.283   1.568 -1.3050  1.0589  0.7254
29069SOL     OW91122   1.154   7.769   8.780  0.1814  0.0744 -0.3109
29069SOL    HW191123   1.080   7.826   8.799 -0.3382 -0.5817 -0.3280
29069SOL    HW291124   1.158   7.709   8.855  0.3311 -0.2649 -0.5864
29070SOL     OW91125   2.536   8.677   5.173  0.4036 -0.1087 -0.4478
29070SOL    HW191126   2.557   8.673   5.266 -0.4307  0.0453 -0.2475
29070SOL    HW291127   2.480   8.601   5.158 -0.5820  0.6119 -0.5216
29071SOL     OW91128   7.763   0.657   8.374 -0.5179  0.7819 -0.4083
29071SOL    HW191129   7.791   0.599   8.445  0.3110  0.7412 -0.7662
29071SOL    HW291130   7.746   0.598   8.300  0.8387  1.0235 -0.9364
29072SOL     OW91131   5.100   4.340   1.681  0.1695  0.1576  0.5612
29072SOL    HW191132   5.093   4.435   1.684 -0.6342  0.1716 -0.8485
29072SOL    HW291133   5.041   4.309   1.749  0.4698  0.6679  1.0596
29073SOL     OW91134   5.745   2.129   3.890 -0.7466  0.3305 -0.2568
29073SOL    HW191135   5.766   2.085   3.808  1.1014 -0.0667  0.3970
29073SOL    HW291136   5.680   2.072   3.931 -0.1002 -0.5733 -0.4719
29074SOL     OW91137   3.046   6.739   1.874 -0.1589  0.0928  0.1574
29074SOL    HW191138   2.989   6.748   1.951 -1.0469 -1.3701 -0.2946
29074SOL    HW291139   2.999   6.787   1.805  0.6249  1.3825  0.4862
29075SOL     OW91140  10.034   3.808   3.915  0.2821  0.6656 -0.5859
29075SOL    HW191141  10.076   3.783   3.997  1.0040  2.1810 -0.4547
29075SOL    HW291142   9.966   3.870   3.941 -0.9228 -0.4572 -0.9609
29076SOL     OW91143   1.138   8.381   8.567  0.1132  0.2624 -0.4893
29076SOL    HW191144   1.192   8.379   8.487 -1.1288  1.9010 -1.4279
29076SOL    HW291145   1.146   8.470   8.599 -0.2712 -0.0915  0.6245
29077SOL     OW91146   4.299   2.121   7.161  0.2048  0.3803 -0.3920
29077SOL    HW191147   4.365   2.052   7.169 -0.1801 -0.0491 -0.8066
29077SOL    HW291148   4.316   2.162   7.076 -1.8202 -1.6709 -1.9180
29078SOL     OW91149   9.176   7.168   2.738  0.0914  0.0179  0.4826
29078SOL    HW191150   9.223   7.244   2.705  0.2418 -0.8089 -1.3453
29078SOL    HW291151   9.108   7.152   2.672 -2.1740  0.5738  2.5235
29079SOL     OW91152   7.970   3.856   0.588  0.6644  0.1183 -0.0810
29079SOL    HW191153   8.055   3.834   0.627  0.7934  1.1480  0.2475
29079SOL    HW291154   7.962   3.797   0.513  2.3717  1.0116 -1.0285
29080SOL     OW91155   6.532   3.262   9.071  0.8387  0.1620  0.5693
29080SOL    HW191156   6.463   3.275   9.136 -0.1124  0.5016 -0.4817
29080SOL    HW291157   6.588   3.195   9.109 -0.4467 -0.6125  1.1647
29081SOL     OW91158   6.689   0.467   4.998 -0.8135 -0.5299  0.6827
29081SOL    HW191159   6.662   0.515   4.920  1.3634  0.5900  0.5380
29081SOL    HW291160   6.649   0.381   4.988  0.1444 -0.7504 -2.1609
29082SOL     OW91161   4.218   8.726   7.819 -0.4700 -0.3815 -0.1282
29082SOL    HW191162   4.220   8.818   7.846 -0.2376 -0.7412  1.0974
29082SOL    HW291163   4.225   8.730   7.723 -1.7396  0.9312 -0.2072
29083SOL     OW91164   7.463   8.534   7.018 -0.6102  0.0135  0.0479
29083SOL    HW191165   7.378   8.538   6.975  0.6079 -0.2760 -2.5559
29083SOL    HW291166   7.477   8.622   7.053 -2.6007 -0.3369  1.9966
29084SOL     OW91167   0.634   7.275   7.370  0.0364 -0.1753  0.1587
29084SOL    HW191168   0.718   7.244   7.405  0.3778  0.2234 -0.2948
29084SOL    HW291169   0.645   7.369   7.361  0.3887 -0.3882 -2.1527
29085SOL     OW91170   3.885   7.529   4.294  0.1344  0.2053 -0.6912
29085SOL    HW191171   3.886   7.554   4.202 -0.7865 -1.7633 -1.3081
29085SOL    HW291172   3.889   7.433   4.293 -1.8642  0.0013  1.2063
29086SOL     OW91173   1.530   0.752   3.062 -0.0619 -0.1884 -0.0515
29086SOL    HW191174   1.476   0.776   3.137  0.8051  1.3250  0.1379
29086SOL    HW291175   1.617   0.783   3.084  0.6714 -1.5997 -0.8209
29087SOL     OW91176   1.085   8.014   0.559  0.4950 -0.1618 -0.0766
29087SOL    HW191177   1.120   8.035   0.645  0.4973 -0.7340  0.0658
29087SOL    HW291178   1.097   8.094   0.508 -0.7924  0.6626  0.8489
29088SOL     OW91179   3.244   6.041   8.481  0.0992  0.1464  0.5330
29088SOL    HW191180   3.244   6.123   8.530  0.6764  1.1609 -1.0799
29088SOL    HW291181   3.315   5.990   8.520 -0.6396  0.1149  1.9359
29089SOL     OW91182   1.773   8.720   3.782  0.1691  0.0423 -0.2019
29089SOL    HW191183   1.784   8.716   3.687 -0.4860  0.7128 -0.3183
29089SOL    HW291184   1.823   8.797   3.809 -0.6100  0.5540 -0.1723
29090SOL     OW91185   1.601   7.143   6.028  0.1199 -0.6189 -0.0952
29090SOL    HW191186   1.512   7.174   6.012 -0.4680 -1.8605  0.6478
29090SOL    HW291187   1.592   7.076   6.095  1.6246 -0.7798 -0.0124
29091SOL     OW91188   3.957   4.267   4.960 -0.5968  0.5139  0.4115
29091SOL    HW191189   4.022   4.288   5.027 -0.0008 -1.3281  0.4826
29091SOL    HW291190   3.875   4.259   5.008 -0.0567 -1.4701  1.1159
29092SOL     OW91191   5.667   5.627   0.738 -0.3186 -0.1637 -0.3026
29092SOL    HW191192   5.709   5.607   0.654  2.2729 -2.3391  1.3276
29092SOL    HW291193   5.578   5.593   0.730  0.7726 -3.1610 -1.2829
29093SOL     OW91194   6.268   5.652   9.750 -0.5827  0.0924  0.4196
29093SOL    HW191195   6.196   5.607   9.705 -0.5101 -0.0609  0.4564
29093SOL    HW291196   6.347   5.625   9.704 -0.4025 -0.8369  1.2287
29094SOL     OW91197   1.181  10.028   8.612 -0.1641 -0.4907 -0.0226
29094SOL    HW191198   1.183  10.019   8.707  0.1779 -0.7068 -0.0485
29094SOL    HW291199   1.202   9.941   8.578  1.8633  0.0367 -0.2759
29095SOL     OW91200   3.944   8.759   8.926 -0.4462  0.1039  0.4888
29095SOL    HW191201   3.870   8.702   8.945  0.0720 -0.8914 -0.3706
29095SOL    HW291202   3.999   8.754   9.004 -0.5376 -0.3672  0.5242
29096SOL     OW91203   6.387   0.411   1.125  0.2772 -0.2898  0.1539
29096SOL    HW191204   6.383   0.506   1.114  1.8583 -0.3790 -1.7424
29096SOL    HW291205   6.312   0.379   1.075  0.4678 -0.0761 -0.2831
29097SOL     OW91206   5.355   1.843   2.042 -0.0156 -0.2694  0.5615
29097SOL    HW191207   5.438   1.854   1.996 -0.5448  1.1461 -0.1171
29097SOL    HW291208   5.288   1.871   1.979 -0.8813  0.1547  1.6298
29098SOL     OW91209   5.899   3.790   4.296  0.4748 -0.3413 -0.2255
29098SOL    HW191210   5.888   3.714   4.238 -1.3341  0.7724 -1.4284
29098SOL    HW291211   5.945   3.854   4.242 -1.2409  0.7168 -0.5171
29099SOL     OW91212   3.967   5.656   4.243  0.1851 -0.1408 -0.4236
29099SOL    HW191213   3.932   5.596   4.178  1.5535 -3.2688  1.5185
29099SOL    HW291214   3.890   5.689   4.290 -0.6738  0.7184 -2.3440
29100SOL     OW91215   6.348   5.582   9.184  0.0932 -0.0919  0.3402
29100SOL    HW191216   6.277   5.545   9.132  0.2026  0.5568 -0.2884
29100SOL    HW291217   6.309   5.658   9.227  0.4794  0.4441 -0.2469
29101SOL     OW91218   6.725   5.649   2.107 -0.0844 -0.4787 -0.3503
29101SOL    HW191219   6.652   5.697   2.069 -1.0228 -0.4859  1.3520
29101SOL    HW291220   6.684   5.581   2.160  1.1855 -1.2297 -0.2809
29102SOL     OW91221   5.213   7.504   1.251 -0.2191 -0.0951 -0.5142
29102SOL    HW191222   5.239   7.569   1.317 -1.5336 -1.1790  1.1582
29102SOL    HW291223   5.123   7.528   1.230  0.2388  0.3393 -2.1148
29103SOL     OW91224   8.607   2.365   6.868 -0.3129  0.4706 -0.2619
29103SOL    HW191225   8.635   2.290   6.816 -0.5544 -1.0094  1.6368
29103SOL    HW291226   8.522   2.390   6.830 -0.2877 -0.2966 -0.8370
29104SOL     OW91227   0.889   6.000   3.209  0.3336  0.3158 -0.7035
29104SOL    HW191228   0.943   6.077   3.190  0.9122 -0.1700 -1.0426
29104SOL    HW291229   0.848   6.020   3.293  0.9164  0.7642 -0.5199
29105SOL     OW91230   9.528   3.257   1.428 -0.0070 -0.1721  0.4851
29105SOL    HW191231   9.488   3.344   1.431 -1.8242 -0.8756 -1.0723
29105SOL    HW291232   9.517   3.229   1.337  2.2385 -1.3119  0.4781
29106SOL     OW91233   3.078   9.530   5.784  0.0759 -0.8073  0.0533
29106SOL    HW191234   3.122   9.449   5.811  0.6920 -1.7444 -3.2283
29106SOL    HW291235   3.145   9.598   5.791  0.9384 -1.4804 -1.1823
29107SOL     OW91236   7.258   8.854   5.784  0.9656 -0.1615  0.3884
29107SOL    HW191237   7.318   8.855   5.709  0.8246 -1.0576  0.2582
29107SOL    HW291238   7.299   8.913   5.848  1.3051  0.2731 -0.2198
29108SOL     OW91239   6.809   4.058   6.306 -0.0094 -0.1776  0.6995
29108SOL    HW191240   6.722   4.094   6.288 -0.1409 -0.5328  0.5960
29108SOL    HW291241   6.869   4.114   6.257 -0.4669 -1.9836 -2.2434
29109SOL     OW91242   0.533   2.142   5.327 -0.1375  0.6646 -0.4729
29109SOL    HW191243   0.617   2.188   5.327  0.5046 -0.4756 -1.3200
29109SOL    HW291244   0.490   2.171   5.246 -0.1667  0.5403 -0.5014
29110SOL     OW91245   4.075   2.277   2.288  0.2396  0.5661 -0.3414
29110SOL    HW191246   4.034   2.253   2.371  0.8184 -1.2673 -0.5442
29110SOL    HW291247   4.094   2.194   2.245  1.2175  1.4418 -1.6995
29111SOL     OW91248  10.169   7.704   7.146 -0.6319 -0.3070  0.0146
29111SOL    HW191249  10.253   7.662   7.126 -1.4398 -1.5292 -1.0157
29111SOL    HW291250  10.115   7.633   7.181 -1.4254  0.3346  0.1151
29112SOL     OW91251   3.949   9.254   3.364 -0.1014  0.5492  0.2185
29112SOL    HW191252   3.902   9.226   3.443  0.3665 -0.8614  0.0239
29112SOL    HW291253   4.039   9.225   3.379  0.5312  2.3633  0.1673
29113SOL     OW91254   4.099   4.336   8.251 -0.1070 -0.6774  0.1294
29113SOL    HW191255   4.134   4.267   8.194 -0.7861 -0.7380 -0.2388
29113SOL    HW291256   4.140   4.416   8.220 -2.2345 -0.3149 -2.1321
29114SOL     OW91257   4.684   8.715   2.527 -0.2547  0.1608 -0.4270
29114SOL    HW191258   4.631   8.697   2.605  0.9109 -0.5988  0.2117
29114SOL    HW291259   4.624   8.760   2.467 -2.4353 -2.8514 -0.7630
29115SOL     OW91260   7.320   0.663   0.998 -0.2820 -0.1879  0.0921
29115SOL    HW191261   7.379   0.588   0.994  2.1011  1.6222 -0.8873
29115SOL    HW291262   7.233   0.625   0.988  0.8477 -2.7597 -1.0166
29116SOL     OW91263   2.610   1.639   5.053  0.1589  0.0989 -0.3926
29116SOL    HW191264   2.634   1.671   5.140  1.8396 -0.4888 -0.6033
29116SOL    HW291265   2.565   1.557   5.070 -1.5192  1.0565  0.0021
29117SOL     OW91266   2.512   8.557   6.020 -0.4855 -0.4727 -0.0368
29117SOL    HW191267   2.513   8.496   6.094 -0.2795 -0.0917  0.2741
29117SOL    HW291268   2.428   8.540   5.977 -0.2327 -1.2957 -0.2196
29118SOL     OW91269   6.548   5.765   5.392 -0.4840 -0.3136  0.2669
29118SOL    HW191270   6.508   5.841   5.433 -0.1680 -0.6411  1.2108
29118SOL    HW291271   6.570   5.707   5.465 -1.3064 -1.6057 -0.4648
29119SOL     OW91272   4.011   7.487   6.452  0.3216 -0.5764 -0.0750
29119SOL    HW191273   4.047   7.441   6.375 -1.5603  0.2738 -1.5419
29119SOL    HW291274   3.934   7.436   6.476  0.5508 -0.4856  0.8985
29120SOL     OW91275   3.406   6.158   3.950  0.3710 -0.0370  0.2144
29120SOL    HW191276   3.376   6.238   3.994  1.2202  0.5325 -0.2147
29120SOL    HW291277   3.499   6.174   3.931 -0.4359  0.9321 -4.1729
29121SOL     OW91278   3.166   6.198   3.815  0.3243 -0.1754 -0.3289
29121SOL    HW191279   3.257   6.208   3.844  0.0722 -1.3034  0.9509
29121SOL    HW291280   3.114   6.248   3.878 -0.0087 -0.2826 -0.5136
29122SOL     OW91281   8.297   2.980   3.272  0.0634  0.0660  0.1521
29122SOL    HW191282   8.357   3.041   3.315  0.6667 -0.3856 -0.0174
29122SOL    HW291283   8.251   2.937   3.344 -0.3710  0.7139  0.2709
29123SOL     OW91284   0.292   5.291   2.833  0.4979 -0.0991  0.0156
29123SOL    HW191285   0.200   5.270   2.816  0.4328  0.3125 -0.1471
29123SOL    HW291286   0.334   5.282   2.747  0.8603 -1.5139  0.3088
29124SOL     OW91287   7.604   9.906   3.074 -0.3532  0.5240  0.0394
29124SOL    HW191288   7.542   9.863   3.016 -0.6633  2.1655 -0.9166
29124SOL    HW291289   7.689   9.896   3.031 -0.8482  3.5446 -1.9520
29125SOL     OW91290   2.121   6.578   2.062  0.0742  0.1955  0.1816
29125SOL    HW191291   2.142   6.624   2.143 -0.4037  0.4790  0.1507
29125SOL    HW291292   2.079   6.496   2.090 -1.3497  0.9056  0.2266
29126SOL     OW91293   0.687   6.693   9.612  0.1321 -0.3077 -0.5283
29126SOL    HW191294   0.643   6.607   9.619  2.9528 -1.7683  0.7735
29126SOL    HW291295   0.712   6.699   9.520 -2.8382  0.7005 -1.3882
29127SOL     OW91296   0.148   5.232   9.985 -0.1603  0.1177  0.1745
29127SOL    HW191297   0.229   5.281   9.976  0.2688 -0.0417  2.6103
29127SOL    HW291298   0.093   5.264   9.913  2.3092 -0.4271 -2.1040
29128SOL     OW91299   7.406   8.336   7.617 -0.7585  0.3610  0.0588
29128SOL    HW191300   7.411   8.329   7.713 -2.1212 -1.5615  0.0231
29128SOL    HW291301   7.342   8.405   7.602 -2.5710 -1.1210  0.6012
29129SOL     OW91302   6.215   4.194   3.305 -0.1375  0.2048 -0.5586
29129SOL    HW191303   6.259   4.265   3.258 -3.4695  2.6188 -0.3864
29129SOL    HW291304   6.255   4.194   3.392 -0.2035  2.0712 -0.4973
29130SOL     OW91305   8.765   9.197   5.620 -0.1186 -0.0134 -0.3715
29130SOL    HW191306   8.751   9.224   5.530 -0.6726  0.4147 -0.1577
29130SOL    HW291307   8.794   9.276   5.665  2.1528 -0.6463 -0.5913
29131SOL     OW91308   7.483   6.173   2.320  0.3131 -0.1899  0.1851
29131SOL    HW191309   7.457   6.140   2.406  1.3367 -0.0602  0.5524
29131SOL    HW291310   7.402   6.212   2.284  0.0506  0.4323  1.3997
29132SOL     OW91311   1.137   2.296   8.708 -0.3237  0.8817  0.4433
29132SOL    HW191312   1.087   2.318   8.629  0.0450  0.5411  0.1115
29132SOL    HW291313   1.112   2.206   8.728  0.6433  0.4782 -0.1091
29133SOL     OW91314   6.136   8.140   5.340 -0.2672 -0.0242  0.0187
29133SOL    HW191315   6.162   8.208   5.403  1.5603  0.2713 -1.0128
29133SOL    HW291316   6.087   8.188   5.273  1.0939  0.3372 -0.7530
29134SOL     OW91317   3.055   6.371   0.531  0.0125 -0.0013  0.6029
29134SOL    HW191318   3.074   6.299   0.472 -1.3846  0.1983 -0.1170
29134SOL    HW291319   3.132   6.428   0.525  0.4968 -0.6994  0.0795
29135SOL     OW91320   2.534   1.641   5.978  0.0850  0.0031  0.2835
29135SOL    HW191321   2.456   1.589   5.959  0.6609 -0.2868 -1.5052
29135SOL    HW291322   2.598   1.578   6.010 -0.3922  0.2472  1.7911
29136SOL     OW91323   7.150   2.688   3.772  0.2365  0.4987 -0.4174
29136SOL    HW191324   7.128   2.633   3.848  0.2957 -0.2908 -0.9632
29136SOL    HW291325   7.114   2.774   3.794 -1.5932 -0.2293 -0.3857
29137SOL     OW91326   1.260   5.344   1.848 -0.0987 -0.4575 -0.0753
29137SOL    HW191327   1.265   5.332   1.943 -3.3792  1.0804  0.4427
29137SOL    HW291328   1.313   5.422   1.831  0.3307 -0.6125  0.5035
29138SOL     OW91329   0.665   0.102   3.431 -0.4448 -0.4105  0.7065
29138SOL    HW191330   0.683   0.098   3.337 -1.9077  0.8204  0.3302
29138SOL    HW291331   0.751   0.101   3.473  0.3462  1.1715 -0.7700
29139SOL     OW91332   8.377   5.336   7.496  0.6581  0.0121  0.2324
29139SOL    HW191333   8.460   5.302   7.530  1.2162  0.8980 -0.2129
29139SOL    HW291334   8.323   5.349   7.574  1.8329  1.7898  0.7884
29140SOL     OW91335   9.473   6.556   8.295  0.1529  0.1238  0.2356
29140SOL    HW191336   9.527   6.581   8.370  0.0361  0.6762  0.1436
29140SOL    HW291337   9.503   6.468   8.271  0.2638 -0.0120  0.8591
29141SOL     OW91338   7.635   9.998   0.557  0.7789 -0.1309  0.6971
29141SOL    HW191339   7.604   9.961   0.639 -1.0158  0.1636  0.2105
29141SOL    HW291340   7.668   9.923   0.507 -0.5580 -0.7286  0.6726
29142SOL     OW91341   7.148   0.447   1.804 -0.0019  0.0347  0.0532
29142SOL    HW191342   7.169   0.452   1.898 -0.7120 -1.4111  0.3289
29142SOL    HW291343   7.093   0.369   1.797 -0.1233  0.2406 -1.5508
29143SOL     OW91344   7.616   5.363   3.914 -0.1679 -0.2604  0.0868
29143SOL    HW191345   7.657   5.395   3.995 -0.6941  0.2116  0.1743
29143SOL    HW291346   7.525   5.344   3.939 -1.0957  2.3491 -0.9326
29144SOL     OW91347   3.270   6.667   9.811  0.1426 -0.3456 -0.0877
29144SOL    HW191348   3.319   6.587   9.793 -0.6503 -0.9909  0.5804
29144SOL    HW291349   3.224   6.649   9.893  1.0887  1.3282  0.8674
29145SOL     OW91350   0.807   7.102   4.340  0.9110  0.2355 -0.9183
29145SOL    HW191351   0.844   7.090   4.428 -0.8130  0.8569 -0.0559
29145SOL    HW291352   0.810   7.015   4.301 -2.8518 -1.3887  1.7079
29146SOL     OW91353   5.876   7.384   8.113 -0.0797 -0.3002 -0.1604
29146SOL    HW191354   5.897   7.469   8.153 -1.6655  0.5320 -1.0114
29146SOL    HW291355   5.894   7.396   8.020 -0.2641 -0.9128 -0.2771
29147SOL     OW91356   3.804   0.696   4.271  0.1728 -0.2118  0.1418
29147SOL    HW191357   3.828   0.707   4.363  2.0655  1.2260 -0.4626
29147SOL    HW291358   3.709   0.710   4.269 -0.3116 -2.5296  2.1394
29148SOL     OW91359   3.547   3.607   8.663  0.1173 -0.4335 -0.2321
29148SOL    HW191360   3.589   3.693   8.655 -1.2597  0.2263 -0.6602
29148SOL    HW291361   3.573   3.560   8.584  0.9332 -0.4600  0.0364
29149SOL     OW91362   6.073   3.212   9.372 -0.1686 -0.4832  0.3991
29149SOL    HW191363   6.030   3.165   9.301 -0.4136 -0.5332  0.5800
29149SOL    HW291364   6.026   3.184   9.451 -0.8891  0.7237  0.4198
29150SOL     OW91365   7.127   9.273   5.021 -0.1000  0.2741  0.0238
29150SOL    HW191366   7.187   9.277   5.096  0.2164 -5.2806  0.4308
29150SOL    HW291367   7.040   9.268   5.061 -1.0381  5.6900 -0.5259
29151SOL     OW91368   0.333   3.426   3.356 -0.0710  0.5547 -0.3838
29151SOL    HW191369   0.328   3.451   3.264 -0.3379 -2.3898 -1.2823
29151SOL    HW291370   0.267   3.478   3.400 -0.3645  1.5727 -1.9772
29152SOL     OW91371  10.060   1.175   4.342  0.2005  0.1091  0.4754
29152SOL    HW191372  10.095   1.253   4.386  0.0650  0.9384 -0.8190
29152SOL    HW291373  10.127   1.153   4.278 -0.6130  0.3381 -0.4762
29153SOL     OW91374   4.774   0.683   9.853 -0.2134  0.0245 -0.2751
29153SOL    HW191375   4.788   0.598   9.813  0.5746  0.5513 -1.1583
29153SOL    HW291376   4.696   0.718   9.810  0.5150  0.5034 -1.2574
29154SOL     OW91377   2.065   3.793   3.985  0.0978  0.4994 -0.1453
29154SOL    HW191378   1.984   3.841   4.005  0.2717 -0.2621  2.8849
29154SOL    HW291379   2.047   3.703   4.012  1.1488 -0.2503 -1.8312
29155SOL     OW91380   5.282   6.524   7.620  0.3584  0.3489 -0.1263
29155SOL    HW191381   5.342   6.486   7.683  1.1111 -0.5548 -1.3375
29155SOL    HW291382   5.196   6.491   7.646  0.5154  0.7598  0.9655
29156SOL     OW91383  10.003   2.474   7.922  0.2868 -0.2509 -0.2997
29156SOL    HW191384   9.916   2.435   7.926  0.0784  0.2984  1.9732
29156SOL    HW291385  10.062   2.404   7.951  0.4844 -0.3214 -0.8708
29157SOL     OW91386   5.841   8.368   5.377 -0.2366  0.3089  0.1853
29157SOL    HW191387   5.771   8.404   5.323 -0.7619 -0.1743  0.5371
29157SOL    HW291388   5.890   8.312   5.317 -0.0154  0.8089 -0.1137
29158SOL     OW91389   2.573   9.047   0.597 -0.0512  0.1997 -0.4219
29158SOL    HW191390   2.519   9.118   0.633 -0.3553 -1.0659  1.8253
29158SOL    HW291391   2.634   9.091   0.538 -0.5636  2.2713  0.4851
29159SOL     OW91392   6.739   1.259   6.265  0.1364 -0.2670 -0.0881
29159SOL    HW191393   6.680   1.281   6.193  0.4139  1.5170  0.1827
29159SOL    HW291394   6.699   1.299   6.342  0.8102 -0.5452  0.4214
29160SOL     OW91395   4.929   3.517   9.458 -0.1961 -0.3023 -0.2208
29160SOL    HW191396   4.940   3.445   9.520  0.7881 -0.2743 -0.3446
29160SOL    HW291397   4.956   3.595   9.507 -1.3910  0.0157 -0.0431
29161SOL     OW91398   9.165   8.626   0.534  0.3495  0.0156  0.1701
29161SOL    HW191399   9.130   8.599   0.450 -0.5803 -0.0983  0.5811
29161SOL    HW291400   9.197   8.545   0.574 -0.1345 -0.0858  0.3506
29162SOL     OW91401   5.212   0.551   3.393 -0.5065 -0.4119 -0.2697
29162SOL    HW191402   5.284   0.613   3.397  1.1398 -2.1165 -1.2658
29162SOL    HW291403   5.175   0.563   3.306 -0.1803 -0.7726 -0.4672
29163SOL     OW91404   3.972   2.292   9.545  0.0793  0.2662  0.0824
29163SOL    HW191405   4.025   2.346   9.486  1.4400  1.3155  2.1431
29163SOL    HW291406   3.979   2.203   9.510  0.9080  0.8401 -1.2676
29164SOL     OW91407   6.348   9.291   9.882 -0.5791 -0.2843 -0.1024
29164SOL    HW191408   6.363   9.290   9.977  1.7841  0.8775 -0.3919
29164SOL    HW291409   6.349   9.384   9.859 -0.9984 -0.5623 -1.2848
29165SOL     OW91410   9.836   4.501   5.291 -0.2345 -0.3247 -0.1953
29165SOL    HW191411   9.887   4.511   5.371 -1.4273 -0.8899  0.6705
29165SOL    HW291412   9.753   4.544   5.309 -0.4788 -0.3529 -1.1763
29166SOL     OW91413   4.351   4.888   0.386  0.3841  0.5622  0.0189
29166SOL    HW191414   4.308   4.946   0.449  0.9854  0.9774  0.0577
29166SOL    HW291415   4.280   4.859   0.328  0.0014  1.0015  0.2588
29167SOL     OW91416   7.714   9.748   4.998 -0.2425 -0.3415 -0.2806
29167SOL    HW191417   7.708   9.787   4.911  0.3914 -1.1594 -0.7004
29167SOL    HW291418   7.806   9.760   5.023 -0.9504  2.3443  1.4613
29168SOL     OW91419   2.411   2.337   1.209 -0.3657  0.0086  0.5769
29168SOL    HW191420   2.419   2.402   1.139  3.6033  0.0176  0.8001
29168SOL    HW291421   2.420   2.253   1.164 -1.6740 -0.2114  0.7030
29169SOL     OW91422   9.206   4.293   7.090 -0.0786 -0.0487  0.8046
29169SOL    HW191423   9.274   4.291   7.023 -0.4292 -1.8232  0.4511
29169SOL    HW291424   9.126   4.265   7.045 -0.9685  1.5430  1.3189
29170SOL     OW91425   6.446   8.580   2.640  0.5028  0.2887 -0.5177
29170SOL    HW191426   6.413   8.670   2.643  0.4120  0.2796 -1.0756
29170SOL    HW291427   6.512   8.582   2.571  1.6962  0.3112  0.5890
29171SOL     OW91428   8.752   2.146   3.684 -0.3525 -0.2070 -0.4014
29171SOL    HW191429   8.783   2.092   3.612  0.6883 -0.6265  0.3359
29171SOL    HW291430   8.777   2.098   3.763 -1.3241  0.3211  0.2452
29172SOL     OW91431  10.010   4.724   4.847  0.2968 -0.0733 -0.3633
29172SOL    HW191432  10.046   4.762   4.767 -1.7752 -0.2987 -1.4438
29172SOL    HW291433   9.929   4.772   4.862  0.0485 -0.8649  0.9316
29173SOL     OW91434   4.816   6.262   8.438 -0.1606 -0.1064  0.0680
29173SOL    HW191435   4.762   6.269   8.518  0.2416 -1.6163  0.4965
29173SOL    HW291436   4.768   6.201   8.382 -1.1964  2.0496 -1.5313
29174SOL     OW91437   2.179   5.214   8.023 -0.2632 -0.0225 -0.5097
29174SOL    HW191438   2.203   5.258   8.104  2.3087 -2.8287  0.4202
29174SOL    HW291439   2.212   5.271   7.954 -0.1896  1.1771  0.4829
29175SOL     OW91440   8.128   9.082   4.880 -0.7609 -0.6072 -0.6236
29175SOL    HW191441   8.139   9.047   4.792 -3.2032 -0.2207 -1.1704
29175SOL    HW291442   8.077   9.163   4.868  1.3261  1.0625  0.9386
29176SOL     OW91443   5.507   2.367  10.176  0.3353 -0.0079  0.1221
29176SOL    HW191444   5.470   2.287  10.139  0.5877 -0.3058  0.5098
29176SOL    HW291445   5.556   2.407  10.105 -0.6333  0.3306 -0.3703
29177SOL     OW91446   0.179   9.698   9.700  0.0645 -0.0523 -0.3248
29177SOL    HW191447   0.166   9.604   9.686 -0.3641 -0.1079  0.3810
29177SOL    HW291448   0.103   9.725   9.752  0.3992  0.6034 -0.1682
29178SOL     OW91449   1.365   7.411   8.479  0.6377 -0.1491 -0.0153
29178SOL    HW191450   1.420   7.462   8.420 -1.8563  1.2447 -1.2893
29178SOL    HW291451   1.372   7.456   8.563 -0.0457  1.2144 -0.6577
29179SOL     OW91452   9.599   0.924   3.422  0.3686  1.0769  0.1149
29179SOL    HW191453   9.528   0.914   3.486  1.5819  0.3096  1.4036
29179SOL    HW291454   9.678   0.928   3.475  1.3800  1.0113 -1.3405
29180SOL     OW91455   0.230   9.285   3.195  0.1367 -0.0979 -0.1162
29180SOL    HW191456   0.296   9.247   3.252 -0.1268  0.3568  0.5060
29180SOL    HW291457   0.199   9.363   3.242  1.8749  1.9197 -2.1048
29181SOL     OW91458   1.460   1.236   5.557  0.3417  0.2367 -0.0242
29181SOL    HW191459   1.507   1.189   5.489  0.8611  0.8861 -0.1337
29181SOL    HW291460   1.395   1.289   5.510  0.8073  0.8076 -0.0449
29182SOL     OW91461   8.720   8.825   8.036 -0.4179  0.4207 -0.0752
29182SOL    HW191462   8.764   8.907   8.013  1.3630 -0.4288  0.1389
29182SOL    HW291463   8.636   8.853   8.073  0.7338  2.2558  1.3547
29183SOL     OW91464   9.756   1.545   6.257  0.2164 -0.2737  0.2211
29183SOL    HW191465   9.665   1.570   6.270 -0.2677 -1.8228  0.0124
29183SOL    HW291466   9.761   1.513   6.167  0.8502 -0.6674  0.3850
29184SOL     OW91467   2.967   6.105   8.069  0.1395 -0.1374  0.0096
29184SOL    HW191468   2.892   6.123   8.126 -0.2800 -2.5109  0.3484
29184SOL    HW291469   2.964   6.010   8.056  0.4264  0.2397 -3.7487
29185SOL     OW91470   0.440   0.301   7.194  0.4012  0.2952 -0.1324
29185SOL    HW191471   0.523   0.269   7.160  0.1670  0.2063 -0.6331
29185SOL    HW291472   0.441   0.279   7.287  1.5343  1.5233  0.1848
29186SOL     OW91473   8.857   2.416   9.673  0.3147 -0.8446  0.0154
29186SOL    HW191474   8.803   2.435   9.596 -0.4573  1.8923  1.1116
29186SOL    HW291475   8.807   2.350   9.721  0.3553 -1.8939 -1.3253
29187SOL     OW91476   0.233   5.543   4.031 -0.0084  0.3987  0.0437
29187SOL    HW191477   0.315   5.499   4.007  0.0536  0.9681 -0.8335
29187SOL    HW291478   0.214   5.600   3.956 -1.4942 -0.1305  0.0049
29188SOL     OW91479   0.857   3.847   4.725  0.4955 -0.6465 -0.0280
29188SOL    HW191480   0.778   3.887   4.760  0.7396 -0.6351  0.5200
29188SOL    HW291481   0.881   3.901   4.650 -0.1817 -0.8283 -0.3800
29189SOL     OW91482   1.567   7.277   9.844 -0.1759 -0.2391  0.4737
29189SOL    HW191483   1.616   7.354   9.873 -0.5378  0.8460 -1.6257
29189SOL    HW291484   1.477   7.308   9.835  0.0086 -0.3045 -2.2801
29190SOL     OW91485   9.655   1.960   9.153 -0.4168 -0.2813 -0.0043
29190SOL    HW191486   9.577   1.937   9.202 -0.4734  0.5188  0.2991
29190SOL    HW291487   9.657   2.056   9.155 -0.8006 -0.1862 -2.1622
29191SOL     OW91488   3.650   0.194   9.392  0.0169 -0.3625 -0.4066
29191SOL    HW191489   3.623   0.233   9.476  0.4984  0.0965 -0.4598
29191SOL    HW291490   3.580   0.218   9.331 -0.0174 -0.1389 -0.2828
29192SOL     OW91491   3.528  10.192   9.010 -0.2214  0.3537 -0.2572
29192SOL    HW191492   3.594  10.155   8.952  0.7179  0.9941  0.3641
29192SOL    HW291493   3.490  10.116   9.055  0.6111  0.0161 -0.0938
29193SOL     OW91494   5.183   9.826   9.105 -0.1604 -0.4006  0.1855
29193SOL    HW191495   5.174   9.731   9.098  1.7481 -0.5188 -1.6240
29193SOL    HW291496   5.274   9.839   9.134  0.1950  0.8715 -1.3835
29194SOL     OW91497   2.293   0.568   0.587 -0.0308 -0.1682 -0.4599
29194SOL    HW191498   2.275   0.632   0.655  1.3568 -0.5328  0.2904
29194SOL    HW291499   2.212   0.562   0.536 -1.2058 -0.1120  1.3472
29195SOL     OW91500   4.496   9.484   7.583 -0.0068 -0.1611  0.3529
29195SOL    HW191501   4.504   9.402   7.632 -1.1182 -0.7530 -0.4202
29195SOL    HW291502   4.418   9.473   7.530  0.9914  0.5794 -1.3649
29196SOL     OW91503   9.026   1.781   4.030 -0.5200 -0.5701  0.4232
29196SOL    HW191504   9.104   1.782   3.974 -1.6724 -1.0372 -1.2606
29196SOL    HW291505   9.004   1.873   4.043  0.1761 -0.4418  0.7405
29197SOL     OW91506   3.241   6.869   6.379 -0.0498  0.0984  0.0201
29197SOL    HW191507   3.279   6.911   6.456 -1.3551  0.0854  0.6924
29197SOL    HW291508   3.203   6.940   6.328  0.1551  0.0260 -0.2365
29198SOL     OW91509   5.468   2.036   9.265  0.5261  0.2089 -0.5184
29198SOL    HW191510   5.384   2.012   9.225  2.0515 -2.3727 -2.4543
29198SOL    HW291511   5.467   1.992   9.350 -0.2695  0.6786 -0.2679
29199SOL     OW91512   4.755   0.107   3.927 -0.4429 -0.0971  0.3343
29199SOL    HW191513   4.690   0.140   3.865 -1.1111 -2.2266 -0.2108
29199SOL    HW291514   4.839   0.125   3.887 -0.6996  1.9314  0.6313
29200SOL     OW91515   9.034   1.480   8.991 -0.8859  0.1259  0.2856
29200SOL    HW191516   8.993   1.563   9.014 -1.7285 -0.0367 -0.5888
29200SOL    HW291517   9.040   1.433   9.074 -1.1775  0.7145  0.6486
29201SOL     OW91518   3.597   5.163   5.255  0.7897  0.4160  0.2467
29201SOL    HW191519   3.605   5.246   5.302  1.4648 -0.0829  1.0455
29201SOL    HW291520   3.688   5.139   5.235  0.7949 -1.2710  2.0757
29202SOL     OW91521   0.993   7.032   3.419 -0.2468 -0.1999 -0.2711
29202SOL    HW191522   1.080   7.071   3.414 -0.1585 -0.3781 -0.1201
29202SOL    HW291523   0.995   6.960   3.355  0.5424 -1.8157  1.4879
29203SOL     OW91524   4.914   9.851  10.038  0.3402  0.1757 -0.0772
29203SOL    HW191525   4.882   9.795  10.109 -1.4856 -0.5964 -1.4074
29203SOL    HW291526   4.838   9.862   9.981  1.1800  2.5042 -0.8483
29204SOL     OW91527   1.732  10.097   1.998  0.7075  0.0029  0.7680
29204SOL    HW191528   1.664  10.112   2.064 -0.4192  0.1601 -0.4056
29204SOL    HW291529   1.781  10.180   1.995  0.7293  0.0172  1.3459
29205SOL     OW91530   3.791   1.112   4.161 -0.4054  0.0212 -0.4466
29205SOL    HW191531   3.739   1.161   4.225  0.1514  0.1229 -0.0660
29205SOL    HW291532   3.880   1.118   4.193 -0.3387 -1.4057 -0.2835
29206SOL     OW91533   8.372   4.477   8.692 -0.4663 -0.1727 -0.2265
29206SOL    HW191534   8.302   4.492   8.629  0.0571 -0.7257 -0.9536
29206SOL    HW291535   8.453   4.499   8.645 -0.2257  2.7029  1.2814
29207SOL     OW91536   5.578   7.531   2.072  0.4658  0.3107  0.4329
29207SOL    HW191537   5.518   7.514   1.999 -0.0491 -1.0224  1.1328
29207SOL    HW291538   5.588   7.626   2.073 -0.7754  0.4779 -0.3857
29208SOL     OW91539   5.072   3.219   3.717 -0.3631  0.4180  0.4436
29208SOL    HW191540   4.986   3.252   3.692 -0.9960 -0.6967  1.0552
29208SOL    HW291541   5.054   3.155   3.787  0.8760 -0.4108  0.0437
29209SOL     OW91542  10.120   2.466   7.490  0.1281  0.6259  0.3719
29209SOL    HW191543  10.063   2.423   7.427 -0.5922 -0.6001  1.7897
29209SOL    HW291544  10.209   2.444   7.462 -0.2003 -1.6599  0.8841
29210SOL     OW91545   7.549   6.631   8.535 -0.6340  0.4708 -0.1091
29210SOL    HW191546   7.503   6.620   8.451  1.0819 -1.8501 -0.8533
29210SOL    HW291547   7.593   6.716   8.527 -1.7204  0.9943 -0.8989
29211SOL     OW91548   7.294   4.774   2.683  0.6082 -0.3379  0.0261
29211SOL    HW191549   7.302   4.809   2.772 -1.3427 -0.5300  0.3120
29211SOL    HW291550   7.382   4.743   2.662  1.6744  1.7864  0.9786
29212SOL     OW91551  10.064   0.810   5.237  0.3535 -0.5566 -0.4335
29212SOL    HW191552  10.139   0.863   5.212 -0.2087  1.7586  2.2755
29212SOL    HW291553  10.101   0.738   5.288  0.8555 -0.2779 -0.3946
29213SOL     OW91554   8.214   2.839   6.218  0.5445  0.1551  0.2110
29213SOL    HW191555   8.142   2.899   6.231  0.5988 -0.0926  1.8774
29213SOL    HW291556   8.196   2.797   6.133 -1.0817  0.3173  0.4530
29214SOL     OW91557   4.902   2.515   5.900 -0.8179 -0.2257 -0.0701
29214SOL    HW191558   4.848   2.437   5.913 -0.6487 -0.5927 -1.4699
29214SOL    HW291559   4.913   2.522   5.806  1.6193 -0.2067  0.1481
29215SOL     OW91560   2.262   2.089   5.384  0.5632 -0.0225  0.0647
29215SOL    HW191561   2.251   2.012   5.439 -0.9772  1.4461  1.9684
29215SOL    HW291562   2.356   2.110   5.389  0.4491  0.1631  2.3556
29216SOL     OW91563   2.270   9.855   1.218  0.4177  0.0122 -0.1870
29216SOL    HW191564   2.209   9.801   1.269 -0.3729 -0.6234 -1.7502
29216SOL    HW291565   2.218   9.931   1.191  0.9067  0.4717  0.1310
29217SOL     OW91566   1.085   9.486   0.894 -0.3237 -0.0553  0.3697
29217SOL    HW191567   1.140   9.547   0.942  1.0915 -1.6623  0.8651
29217SOL    HW291568   1.023   9.453   0.959 -0.4228  0.0800  0.3444
29218SOL     OW91569   6.894   9.160   1.422 -0.1902  0.4016 -0.1609
29218SOL    HW191570   6.924   9.098   1.489  0.6977  0.5863 -0.3761
29218SOL    HW291571   6.893   9.245   1.467  1.0647  0.6408 -0.5422
29219SOL     OW91572   1.240   5.853   0.523 -0.1262 -0.3769  0.0041
29219SOL    HW191573   1.320   5.896   0.491 -0.2456 -0.1131  0.0585
29219SOL    HW291574   1.177   5.924   0.533 -0.1976 -0.5030  0.4894
29220SOL     OW91575   4.768   9.373   8.058  0.4383  0.3745  0.0810
29220SOL    HW191576   4.730   9.313   8.122  0.4331  1.2759  0.9526
29220SOL    HW291577   4.692   9.416   8.018  0.4232 -0.4463 -0.8245
29221SOL     OW91578   9.447   3.984   4.692  0.3090 -0.0287 -0.3850
29221SOL    HW191579   9.451   4.079   4.684  1.6780 -0.1522 -1.5282
29221SOL    HW291580   9.376   3.968   4.755  0.3515  1.7410  0.1579
29222SOL     OW91581   0.780   6.221   5.976  0.0360  0.7353 -0.2038
29222SOL    HW191582   0.873   6.239   5.991  0.7077 -0.2944 -2.5590
29222SOL    HW291583   0.767   6.240   5.883 -1.5617 -1.2466 -0.4629
29223SOL     OW91584   1.142   7.327   3.030  0.2680  0.6235 -0.1599
29223SOL    HW191585   1.103   7.276   3.101 -1.3434  1.3874 -0.4594
29223SOL    HW291586   1.105   7.290   2.950  0.0702  1.4175 -0.4445
29224SOL     OW91587   2.262   9.758   8.559 -0.1057  0.1876 -0.1843
29224SOL    HW191588   2.251   9.810   8.480  0.1417 -1.2253 -1.1991
29224SOL    HW291589   2.337   9.797   8.603  0.5468  0.2549 -1.3085
29225SOL     OW91590   6.016   3.985   4.137  0.1365  0.7161  0.0610
29225SOL    HW191591   6.093   3.972   4.080  0.4089  0.9882  0.3609
29225SOL    HW291592   6.025   4.075   4.169  1.3218 -0.1587  2.4671
29226SOL     OW91593   9.000   0.575   3.904 -0.1902 -0.3522 -0.5591
29226SOL    HW191594   8.938   0.648   3.911 -0.1858 -0.3826 -0.1958
29226SOL    HW291595   9.057   0.584   3.981  0.1984 -0.3801 -0.8422
29227SOL     OW91596   0.303   2.569   0.964 -0.0554  0.2485 -0.3050
29227SOL    HW191597   0.272   2.577   1.054  0.5026 -1.0246  0.0102
29227SOL    HW291598   0.287   2.478   0.941  0.9185  0.2621 -1.0824
29228SOL     OW91599   6.259   9.883   2.237 -0.0357 -0.8076 -0.0219
29228SOL    HW191600   6.276   9.812   2.299 -1.0640 -1.1515 -0.1139
29228SOL    HW291601   6.268   9.842   2.151  0.5847 -0.5259 -0.0930
29229SOL     OW91602   3.077   0.588   0.234 -0.8582 -0.5276 -0.8151
29229SOL    HW191603   3.069   0.674   0.275 -1.1132 -0.0244 -1.8637
29229SOL    HW291604   3.172   0.574   0.226 -0.7673  0.6229 -2.4802
29230SOL     OW91605   1.705  10.097   0.427 -0.1741 -0.0610  0.4144
29230SOL    HW191606   1.688  10.190   0.411 -0.6387  0.1647  2.0398
29230SOL    HW291607   1.691  10.055   0.342 -2.6859  0.9930  0.2027
29231SOL     OW91608   5.843   0.229   0.756  0.3038 -0.3406  0.3722
29231SOL    HW191609   5.763   0.239   0.809 -0.5037 -0.1770 -0.8372
29231SOL    HW291610   5.811   0.220   0.667  1.7296  2.0404 -0.4726
29232SOL     OW91611   9.229   8.156   7.104  0.1630  0.4119  0.0316
29232SOL    HW191612   9.229   8.225   7.037 -2.7340 -0.6876 -1.2422
29232SOL    HW291613   9.294   8.093   7.072  0.9241  1.2614 -0.1645
29233SOL     OW91614   0.504   8.496  10.196  0.7494  0.1996 -0.2351
29233SOL    HW191615   0.513   8.586  10.165  1.6179  0.3531  0.4518
29233SOL    HW291616   0.427   8.499  10.254  1.3732  0.7216  0.5816
29234SOL     OW91617   5.602   2.450   3.081  0.2445  0.3120 -0.0125
29234SOL    HW191618   5.694   2.424   3.085  0.2522  0.3324 -0.0617
29234SOL    HW291619   5.567   2.426   3.167 -0.0460 -0.9853 -0.4630
29235SOL     OW91620   5.649   9.808   0.687 -0.0918  0.1200 -0.0696
29235SOL    HW191621   5.691   9.829   0.770  0.0330 -0.4528  0.0190
29235SOL    HW291622   5.677   9.718   0.668  1.1683  0.7838 -1.5316
29236SOL     OW91623   9.030   7.401   9.488 -0.2431 -0.5057 -0.3380
29236SOL    HW191624   9.021   7.496   9.481  0.1411 -0.3518  0.9759
29236SOL    HW291625   8.941   7.370   9.499 -0.2420 -0.1157  0.9312
29237SOL     OW91626   1.372   7.177   2.302 -0.0566  0.1791 -0.0530
29237SOL    HW191627   1.310   7.124   2.352 -1.1754  2.8784  1.6258
29237SOL    HW291628   1.438   7.115   2.271 -1.9323 -2.3319  0.6978
29238SOL     OW91629   1.175   9.837   0.942  0.0721 -0.2861 -0.1346
29238SOL    HW191630   1.091   9.883   0.938  0.4011  0.5812  1.7022
29238SOL    HW291631   1.181   9.807   1.032  1.6950 -0.4031 -0.2561
29239SOL     OW91632   4.736   9.429   6.155 -0.0108  0.4374 -0.1329
29239SOL    HW191633   4.733   9.387   6.069  3.7493  2.5563 -1.5617
29239SOL    HW291634   4.830   9.438   6.174 -0.6965  1.5566  3.4554
29240SOL     OW91635   1.962   1.562   4.662 -0.3656  0.3505 -0.0150
29240SOL    HW191636   1.978   1.502   4.590 -2.6195 -1.4521  0.8399
29240SOL    HW291637   1.867   1.571   4.665 -0.4702 -0.4562  3.2684
29241SOL     OW91638   3.382   4.732   0.606 -0.2026  0.3791  0.2838
29241SOL    HW191639   3.318   4.671   0.568 -0.2441  0.6133 -0.0217
29241SOL    HW291640   3.455   4.731   0.545 -0.7208  1.5881 -0.3838
29242SOL     OW91641   4.666   2.583   2.487 -0.6564  0.3249 -0.3517
29242SOL    HW191642   4.601   2.653   2.494  0.2149  1.1096  0.1285
29242SOL    HW291643   4.740   2.623   2.440  1.1027  0.7495  2.5052
29243SOL     OW91644   4.369   8.864   4.687 -0.1107 -0.1787 -0.9946
29243SOL    HW191645   4.320   8.786   4.713 -2.4047  1.0410 -1.4313
29243SOL    HW291646   4.307   8.916   4.636  1.4760  1.7496 -1.0843
29244SOL     OW91647   6.776   6.186   0.061 -0.3038  0.3655  0.2470
29244SOL    HW191648   6.779   6.252  -0.008  2.4405 -0.8039 -0.9348
29244SOL    HW291649   6.766   6.103   0.015 -0.9809 -0.2741  1.4870
29245SOL     OW91650   6.595   3.773   0.757 -0.1960  0.1426 -0.1581
29245SOL    HW191651   6.513   3.823   0.755  0.7424  1.7957  0.6753
29245SOL    HW291652   6.661   3.836   0.785  1.3358 -1.2170 -0.5570
29246SOL     OW91653   7.183   0.815   8.959 -0.0537 -0.2867  0.2462
29246SOL    HW191654   7.110   0.803   8.898  1.9394 -0.1044 -2.3541
29246SOL    HW291655   7.143   0.854   9.037 -2.5530  1.0419 -1.5658
29247SOL     OW91656   8.252   8.696   3.749 -0.7284  0.4153 -0.3799
29247SOL    HW191657   8.217   8.738   3.828  0.2459  0.3450  0.1120
29247SOL    HW291658   8.318   8.635   3.783 -0.9015 -0.2426 -1.2041
29248SOL     OW91659   0.865   3.378   2.566 -0.5264  0.3134 -0.3708
29248SOL    HW191660   0.942   3.413   2.612 -1.3715  1.9337 -0.0999
29248SOL    HW291661   0.882   3.284   2.557  0.9219  0.4379  0.7719
29249SOL     OW91662   5.826   1.589   8.664 -0.0478  0.2329  0.2002
29249SOL    HW191663   5.748   1.555   8.620 -1.7539  2.3549  1.4079
29249SOL    HW291664   5.873   1.637   8.596 -0.6843  0.3791 -0.1399
29250SOL     OW91665   4.140   2.996   1.316  0.1518  0.1378  0.3555
29250SOL    HW191666   4.220   3.029   1.357  0.2688 -0.8009  0.9105
29250SOL    HW291667   4.155   3.009   1.222  0.7164  0.4900  0.4873
29251SOL     OW91668   6.907   4.573   4.386 -0.0941  0.1684  0.5092
29251SOL    HW191669   6.970   4.509   4.351  0.4192  1.1657 -0.4576
29251SOL    HW291670   6.949   4.658   4.373 -0.7101  0.7144  1.9048
29252SOL     OW91671   5.198   9.320   8.789 -0.3548 -0.2671 -0.2166
29252SOL    HW191672   5.227   9.311   8.698 -0.4067  1.2625 -0.4028
29252SOL    HW291673   5.274   9.296   8.841  0.3357  0.8318 -0.6896
29253SOL     OW91674   5.984   1.892   5.520  0.2770  0.2094  0.0383
29253SOL    HW191675   6.001   1.809   5.475  1.3606  1.0600 -1.1868
29253SOL    HW291676   5.899   1.879   5.562  0.8988 -1.8968  0.7950
29254SOL     OW91677   6.463   8.667   6.720 -0.2166 -0.1627  0.0039
29254SOL    HW191678   6.459   8.748   6.770 -1.1424 -0.3543  0.2605
29254SOL    HW291679   6.521   8.687   6.647  0.3564  0.4267  0.5978
29255SOL     OW91680   5.300   7.614   6.164 -0.1249 -0.1131  0.1993
29255SOL    HW191681   5.244   7.562   6.221  1.2182 -0.8410  0.9018
29255SOL    HW291682   5.342   7.550   6.106 -0.8469  0.5328 -1.0986
29256SOL     OW91683   5.392   9.471   5.843 -0.1671 -0.2437 -0.2439
29256SOL    HW191684   5.464   9.534   5.845 -0.3223  0.1919 -3.6440
29256SOL    HW291685   5.425   9.397   5.793 -1.7260 -0.4642 -1.0185
29257SOL     OW91686   5.408   6.779   5.763 -0.5539  0.5024 -0.2735
29257SOL    HW191687   5.447   6.765   5.849 -0.0244  1.0956 -0.4097
29257SOL    HW291688   5.335   6.717   5.759 -1.2139  1.1614  0.9836
29258SOL     OW91689   9.017   9.092   6.634  0.3182  0.2155 -0.1569
29258SOL    HW191690   8.965   9.054   6.705 -0.5625  0.3186 -0.7213
29258SOL    HW291691   9.018   9.023   6.567  0.3762  0.4486 -0.3969
29259SOL     OW91692   4.484   0.166   7.900  0.0761  0.4891 -0.1384
29259SOL    HW191693   4.553   0.211   7.851 -1.1311 -0.4970 -2.9069
29259SOL    HW291694   4.521   0.080   7.919 -0.5466 -0.3018 -2.2511
29260SOL     OW91695   9.758   7.693   8.196  0.1104 -0.2387 -0.0949
29260SOL    HW191696   9.679   7.676   8.145  2.6393 -0.3929 -4.4498
29260SOL    HW291697   9.744   7.779   8.234 -1.6101  0.3876 -1.9627
29261SOL     OW91698   0.047   4.715   3.912 -0.1230 -0.4388  0.1613
29261SOL    HW191699   0.016   4.785   3.854  0.0570  0.4945  1.1545
29261SOL    HW291700   0.092   4.761   3.983  1.5401 -1.6532 -0.0518
29262SOL     OW91701   1.035   8.853   9.834  0.0005 -0.0037  0.4736
29262SOL    HW191702   1.029   8.780   9.895  2.1128 -0.2002  0.5415
29262SOL    HW291703   1.049   8.930   9.890  1.8882 -0.1774  0.3136
29263SOL     OW91704   6.100   0.351   3.027 -0.5470  0.1506 -0.6973
29263SOL    HW191705   6.066   0.277   2.977  2.6537 -0.6056 -1.9678
29263SOL    HW291706   6.179   0.318   3.069  0.4213  2.5860 -0.4455
29264SOL     OW91707   1.579   4.958   3.774 -0.0863  0.2077 -0.0257
29264SOL    HW191708   1.542   5.038   3.739  0.5958  0.6129  0.1616
29264SOL    HW291709   1.507   4.896   3.774 -0.4491  0.6209 -0.8056
29265SOL     OW91710   1.916   2.871   3.047  0.6643 -0.4414  0.3472
29265SOL    HW191711   1.839   2.928   3.050 -0.2890 -1.7259  1.6786
29265SOL    HW291712   1.982   2.919   3.097  0.4207  0.2273  0.0437
29266SOL     OW91713   8.745   0.558   8.487 -0.1560  0.0443 -0.4817
29266SOL    HW191714   8.740   0.604   8.571 -0.7652  0.9971 -1.0165
29266SOL    HW291715   8.833   0.575   8.456  0.0304 -0.2058 -0.0961
29267SOL     OW91716   9.327   9.825   8.870 -0.2742  0.1160  0.0858
29267SOL    HW191717   9.283   9.740   8.880  1.1866 -0.7068 -0.1626
29267SOL    HW291718   9.324   9.842   8.776 -0.2250  0.1385  0.0884
29268SOL     OW91719   5.576   5.788   3.785 -0.6037 -0.2862  0.2552
29268SOL    HW191720   5.646   5.795   3.850  0.8569  0.3994 -1.3427
29268SOL    HW291721   5.577   5.872   3.739 -1.0847 -1.0341 -1.1786
29269SOL     OW91722   3.119   9.312   9.113  0.4682  0.0362 -0.1611
29269SOL    HW191723   3.137   9.405   9.130 -0.7352  0.0503  1.3284
29269SOL    HW291724   3.201   9.267   9.134  0.9808  0.7186 -0.6434
29270SOL     OW91725   3.157   0.666   5.605 -0.1686  0.1461  0.6363
29270SOL    HW191726   3.178   0.592   5.663 -2.5761 -0.5820  0.6774
29270SOL    HW291727   3.074   0.699   5.637 -0.6682  0.9005 -1.2861
29271SOL     OW91728   1.527   0.164   8.099  0.3608  0.0690 -0.4529
29271SOL    HW191729   1.574   0.233   8.146 -0.0336  0.6454 -0.8831
29271SOL    HW291730   1.460   0.211   8.049 -0.2207 -0.6692 -0.3860
29272SOL     OW91731   1.996   6.159   9.444 -0.2273  0.3928  0.4518
29272SOL    HW191732   1.938   6.234   9.455 -0.8042  0.1952 -1.0198
29272SOL    HW291733   1.958   6.091   9.500  0.6718  1.3367  2.3194
29273SOL     OW91734   6.392   8.619   4.642  0.3641 -0.4198 -0.4336
29273SOL    HW191735   6.345   8.552   4.593 -0.1452  0.6436 -1.4293
29273SOL    HW291736   6.469   8.639   4.587  1.3028 -1.2020  0.5490
29274SOL     OW91737   5.642   9.016   2.610  0.6470  0.3461  0.2399
29274SOL    HW191738   5.707   9.039   2.544  0.5465 -1.8455 -0.6888
29274SOL    HW291739   5.570   9.078   2.595  1.0201  0.4873 -1.0720
29275SOL     OW91740   5.827   2.828   5.461 -0.0974  0.2340 -0.0887
29275SOL    HW191741   5.895   2.891   5.485  0.9074 -1.0159  0.4782
29275SOL    HW291742   5.773   2.874   5.397  0.7040  1.6035  0.1777
29276SOL     OW91743   4.809   7.433   9.717 -0.0845 -0.1883 -0.6405
29276SOL    HW191744   4.738   7.473   9.767 -0.0887 -1.0901  0.1117
29276SOL    HW291745   4.852   7.374   9.780  1.4224  0.4386 -1.0268
29277SOL     OW91746   1.684   2.867   8.349  0.2046  0.4429  0.0281
29277SOL    HW191747   1.619   2.912   8.295 -1.0915  0.5557  1.6155
29277SOL    HW291748   1.715   2.934   8.410 -0.6184 -0.4128  1.4173
29278SOL     OW91749   9.913   7.719   9.518  0.4573  0.5225  0.0674
29278SOL    HW191750   9.838   7.666   9.543  0.5153  1.1387  1.6910
29278SOL    HW291751   9.876   7.795   9.474  0.2670 -0.0159 -0.7213
29279SOL     OW91752   3.231   0.763   3.606  0.4507 -0.2927 -0.2713
29279SOL    HW191753   3.286   0.833   3.639 -0.1460  0.0370  0.0477
29279SOL    HW291754   3.266   0.683   3.646  0.8935 -0.1302 -0.3323
29280SOL     OW91755   1.469   5.225   9.172 -0.0206 -0.3026  0.8245
29280SOL    HW191756   1.416   5.160   9.219 -0.1549  0.9553  2.4840
29280SOL    HW291757   1.504   5.177   9.097 -4.1285 -1.0291 -0.8891
29281SOL     OW91758   4.868   2.351   0.345  0.0293 -0.1605 -0.1087
29281SOL    HW191759   4.863   2.395   0.430 -0.4544 -2.0518  0.9079
29281SOL    HW291760   4.961   2.340   0.329  0.1180 -1.8281  1.3406
29282SOL     OW91761   2.095   5.297   9.070  0.3660  0.7358  0.1059
29282SOL    HW191762   2.077   5.390   9.080  0.2876  0.7152  0.1593
29282SOL    HW291763   2.093   5.282   8.975 -1.1178  0.4976  0.1462
29283SOL     OW91764   6.073   3.678   8.096  0.9474  0.2640 -0.5496
29283SOL    HW191765   6.131   3.681   8.019 -1.7919 -1.5065 -2.9010
29283SOL    HW291766   5.990   3.715   8.064 -0.5247 -1.2498  1.3186
29284SOL     OW91767   7.914   8.658   9.676  0.0287 -0.1211  0.4468
29284SOL    HW191768   7.889   8.597   9.606 -0.2445 -0.8610  1.1805
29284SOL    HW291769   7.939   8.601   9.749  1.3766  0.6272  0.5945
29285SOL     OW91770   7.334   3.230   9.537  0.2289  0.3548 -0.0959
29285SOL    HW191771   7.340   3.325   9.547  0.0472  0.2477  1.2370
29285SOL    HW291772   7.421   3.198   9.562 -0.1295  0.0936  0.8857
29286SOL     OW91773   2.119   6.328   1.890 -0.2335 -0.3672 -0.7538
29286SOL    HW191774   2.166   6.286   1.817  3.1484 -0.1062  1.0469
29286SOL    HW291775   2.139   6.421   1.880  0.9933 -0.4126  0.8756
29287SOL     OW91776   8.332   3.829   9.475 -0.2986 -0.6975 -0.0859
29287SOL    HW191777   8.362   3.899   9.417  1.2130 -1.9024 -0.8411
29287SOL    HW291778   8.317   3.754   9.416 -1.7488 -1.0796  0.7103
29288SOL     OW91779   9.878   7.224   8.682  0.1127 -0.0423  0.3630
29288SOL    HW191780   9.901   7.288   8.748 -1.7117  0.5561  0.4750
29288SOL    HW291781   9.782   7.219   8.685  0.0239 -0.5951 -1.6555
29289SOL     OW91782   2.911   1.774   5.809  0.3559  0.4002 -0.2365
29289SOL    HW191783   2.922   1.732   5.724  1.0690 -0.1347  0.1050
29289SOL    HW291784   2.820   1.803   5.810  0.3748  0.5159 -1.2230
29290SOL     OW91785   0.537   2.384   2.211 -0.6079  0.4944  0.3336
29290SOL    HW191786   0.468   2.426   2.159 -0.4759 -0.5958 -0.7449
29290SOL    HW291787   0.607   2.449   2.214 -1.0292  0.9749  0.0629
29291SOL     OW91788   6.146   9.702   7.230 -0.4505 -0.0213 -0.1527
29291SOL    HW191789   6.173   9.785   7.191 -1.2470  1.7825  2.7953
29291SOL    HW291790   6.050   9.707   7.233 -0.4615 -0.4358  1.1568
29292SOL     OW91791   3.621   3.665   3.472 -0.4257  0.0740 -0.4645
29292SOL    HW191792   3.667   3.748   3.463  0.5102 -0.3245  0.5620
29292SOL    HW291793   3.531   3.686   3.447 -0.3103  1.4950  0.2025
29293SOL     OW91794   6.399   6.460   6.569  0.0951 -0.6070  0.6072
29293SOL    HW191795   6.482   6.433   6.608  0.7485  1.4983  0.8140
29293SOL    HW291796   6.409   6.439   6.476  1.9624  1.8469  0.1450
29294SOL     OW91797   0.706   6.389   8.618 -0.3440  0.2750  0.3249
29294SOL    HW191798   0.721   6.436   8.535 -0.9425 -2.1201 -1.2417
29294SOL    HW291799   0.784   6.408   8.670  0.6784  0.8265 -1.3075
29295SOL     OW91800   0.303   4.462   7.208  0.3745 -0.3394  0.3345
29295SOL    HW191801   0.239   4.432   7.272  0.0375  0.0899  0.2048
29295SOL    HW291802   0.380   4.485   7.260  0.8735 -2.0182  0.3750
29296SOL     OW91803   1.872   0.877   9.361  0.1016 -0.5633  0.0836
29296SOL    HW191804   1.800   0.933   9.389  1.2346  1.7752 -1.2846
29296SOL    HW291805   1.830   0.805   9.313 -1.3616  0.6528 -0.5467
29297SOL     OW91806   0.411   0.101   4.997  0.9972 -0.1830  0.0424
29297SOL    HW191807   0.373   0.181   5.033  1.6605 -0.1761  0.7769
29297SOL    HW291808   0.358   0.081   4.920  2.1403  2.1639 -1.4633
29298SOL     OW91809   2.097   2.041   1.228  0.4500 -0.3517  0.1921
29298SOL    HW191810   2.030   1.989   1.183  0.5316 -0.5180  0.2630
29298SOL    HW291811   2.177   1.990   1.219  0.9195  0.5982 -1.2819
29299SOL     OW91812   5.699   6.293   9.710  0.7822 -0.2006 -0.5364
29299SOL    HW191813   5.645   6.215   9.694  0.4366  0.2158 -1.4547
29299SOL    HW291814   5.645   6.348   9.767  0.1401  0.2905 -1.5877
29300SOL     OW91815   1.108   8.852   1.422 -0.0091  0.7450  0.1790
29300SOL    HW191816   1.082   8.843   1.331 -0.8881  0.8111  0.4073
29300SOL    HW291817   1.120   8.946   1.434 -1.7311  0.9523  0.5805
29301SOL     OW91818   7.415   1.546   7.786  0.0294  0.1970 -0.1916
29301SOL    HW191819   7.469   1.494   7.845  1.8215  0.4075 -1.5454
29301SOL    HW291820   7.371   1.482   7.730  0.5952  0.0796 -0.5005
29302SOL     OW91821   6.195   7.938   5.510 -0.3827 -0.2155 -0.1638
29302SOL    HW191822   6.196   8.007   5.443  3.5701  1.2506  1.1137
29302SOL    HW291823   6.158   7.980   5.587  0.1170 -0.1516  0.0448
29303SOL     OW91824   7.682   6.360   2.624 -0.2887 -0.1591 -0.0183
29303SOL    HW191825   7.755   6.396   2.572 -0.5755  0.6674  0.1400
29303SOL    HW291826   7.605   6.372   2.568 -0.9716  2.7021  1.3660
29304SOL     OW91827   1.992   8.824   7.062  0.6081  0.1421  0.2273
29304SOL    HW191828   2.048   8.804   7.137  1.1000  0.9660  0.0947
29304SOL    HW291829   1.976   8.918   7.068  1.5728  0.4511 -1.2868
29305SOL     OW91830   1.331   7.173   1.710  0.2536  0.3134  0.0691
29305SOL    HW191831   1.386   7.121   1.652  1.3789  0.4355  1.0041
29305SOL    HW291832   1.245   7.130   1.706  0.9059 -1.0295  0.0757
29306SOL     OW91833   5.727   4.090   2.361  0.1915  0.0187  0.3514
29306SOL    HW191834   5.715   4.027   2.291 -1.0971 -1.1288  1.5369
29306SOL    HW291835   5.682   4.051   2.437  1.0033  1.4754  1.6489
29307SOL     OW91836   1.911   7.176   2.111  0.2967  0.5492  0.0880
29307SOL    HW191837   1.958   7.181   2.028  1.5538  2.4331  0.8633
29307SOL    HW291838   1.907   7.266   2.143 -2.5339  0.2718  0.8224
29308SOL     OW91839   9.644   7.637   2.927  0.1397 -0.5291  0.2743
29308SOL    HW191840   9.737   7.615   2.931  0.6225  0.7132 -2.1998
29308SOL    HW291841   9.642   7.730   2.906 -1.7298 -0.1933  1.6827
29309SOL     OW91842   3.425   0.787   1.369  0.3605  0.1679 -0.0967
29309SOL    HW191843   3.354   0.726   1.350 -0.1834  0.8224 -0.2368
29309SOL    HW291844   3.399   0.830   1.451  1.9179 -1.4893  1.3521
29310SOL     OW91845   9.348   5.540   5.570 -0.3271  0.1675 -0.0326
29310SOL    HW191846   9.317   5.489   5.495 -1.5875 -1.2006  1.3667
29310SOL    HW291847   9.324   5.631   5.547 -1.5377 -0.3314 -0.9016
29311SOL     OW91848   1.229   6.629   0.668 -0.0519  0.9451 -0.6805
29311SOL    HW191849   1.148   6.629   0.718  1.6420  0.0749  2.3269
29311SOL    HW291850   1.257   6.721   0.668 -0.4540  1.0691 -0.7356
29312SOL     OW91851   8.694   1.968   4.669 -0.1362 -0.4140  0.7348
29312SOL    HW191852   8.723   2.059   4.665  1.3056 -0.9077 -1.7301
29312SOL    HW291853   8.752   1.927   4.733 -0.3817  0.2319  1.3868
29313SOL     OW91854   1.610   7.313   6.544 -0.0363  0.4744  0.7748
29313SOL    HW191855   1.699   7.325   6.575  0.3859 -0.6017  0.0403
29313SOL    HW291856   1.583   7.228   6.581  0.6097 -1.0413 -1.9576
29314SOL     OW91857   0.438   6.693   3.249  0.4437 -0.5187  0.1767
29314SOL    HW191858   0.354   6.677   3.206 -0.5743 -1.0629  2.2090
29314SOL    HW291859   0.503   6.689   3.179 -1.4343  2.7556 -1.9968
29315SOL     OW91860   9.891   6.288   7.088 -0.2786 -0.0853  0.2962
29315SOL    HW191861   9.811   6.340   7.092 -0.7396 -0.6775 -1.0707
29315SOL    HW291862   9.914   6.285   6.995  0.4225 -1.3053  0.4898
29316SOL     OW91863   2.550   8.138   8.016 -0.2006  0.7494 -0.0055
29316SOL    HW191864   2.524   8.081   8.089 -0.5389 -0.5485 -1.1109
29316SOL    HW291865   2.470   8.185   7.992 -0.9937 -1.2857 -1.6664
29317SOL     OW91866   2.747   9.809   9.887 -0.2654  0.0433 -0.3230
29317SOL    HW191867   2.817   9.836   9.828  0.8635  0.6531  1.2481
29317SOL    HW291868   2.748   9.713   9.883  1.0166  0.0258  0.0729
29318SOL     OW91869   4.061   0.612   0.833  0.1315  0.1505  0.3295
29318SOL    HW191870   4.003   0.656   0.894  0.9448  1.9783 -0.1345
29318SOL    HW291871   4.149   0.628   0.867  0.4595 -1.3492  0.2605
29319SOL     OW91872   2.276   5.487   5.555 -0.2023  0.0916 -0.3044
29319SOL    HW191873   2.266   5.458   5.464 -0.6000  0.9320 -0.5384
29319SOL    HW291874   2.189   5.477   5.594 -0.3496  0.9380 -0.3902
29320SOL     OW91875   9.010   5.035   5.340 -0.0301  0.6824 -0.7759
29320SOL    HW191876   9.074   4.966   5.323 -0.4261  0.1488 -0.1545
29320SOL    HW291877   8.966   5.007   5.421  0.2160  1.9650 -0.1759
29321SOL     OW91878   5.496  10.025   6.565  0.2733 -0.4470  0.1687
29321SOL    HW191879   5.512   9.954   6.628 -0.3038 -0.8517 -0.1284
29321SOL    HW291880   5.405  10.049   6.580  0.7909  1.0739  1.0947
29322SOL     OW91881   4.412   0.591   2.107  0.1775 -0.7192 -0.2052
29322SOL    HW191882   4.468   0.531   2.056  1.9084 -0.6060  1.4309
29322SOL    HW291883   4.324   0.573   2.076  0.9683 -1.8533 -2.0147
29323SOL     OW91884   4.731   2.486   9.482  0.1567  0.3930  0.1398
29323SOL    HW191885   4.718   2.456   9.572 -0.3529  0.5702  0.1306
29323SOL    HW291886   4.642   2.504   9.450  0.3686  0.7678 -0.2448
29324SOL     OW91887  10.098   8.608   0.049 -0.0925  0.5061 -0.2697
29324SOL    HW191888  10.082   8.698   0.075 -1.9223  0.5364 -1.3599
29324SOL    HW291889  10.024   8.559   0.085 -0.1135 -0.2418 -1.2852
29325SOL     OW91890   2.173   6.221   5.261  0.3314 -0.3675 -0.5283
29325SOL    HW191891   2.110   6.208   5.190  1.0883 -1.9588 -0.9564
29325SOL    HW291892   2.191   6.133   5.294  2.3249  0.0293 -0.4289
29326SOL     OW91893   4.269   6.761   1.266 -0.6671 -0.2670  0.3590
29326SOL    HW191894   4.349   6.717   1.238 -0.1845  2.1776 -2.6039
29326SOL    HW291895   4.199   6.703   1.238 -0.0065 -0.7716 -0.2900
29327SOL     OW91896   4.207   2.935   5.580 -0.0209 -0.0379  0.3964
29327SOL    HW191897   4.226   2.849   5.617  1.5569  0.1253  0.0242
29327SOL    HW291898   4.224   2.996   5.652  1.8199  0.1782 -0.1810
29328SOL     OW91899   0.389   2.367   4.111 -0.1484 -0.6757  0.1594
29328SOL    HW191900   0.372   2.412   4.028  1.8200 -0.3455 -0.0995
29328SOL    HW291901   0.303   2.332   4.136 -1.5436  2.1316 -0.2275
29329SOL     OW91902   3.181   6.012   7.245 -0.2769 -0.1208 -0.3115
29329SOL    HW191903   3.097   6.008   7.201 -0.8627 -1.4964  0.8289
29329SOL    HW291904   3.245   6.022   7.174 -1.3991  1.5677 -1.1478
29330SOL     OW91905   4.114   7.285   1.380 -0.0017  0.4450  0.1024
29330SOL    HW191906   4.072   7.290   1.466 -0.0843  1.4395  0.0171
29330SOL    HW291907   4.099   7.195   1.352 -1.8254  0.6649  0.2096
29331SOL     OW91908   0.335   4.792   5.387 -0.1186  0.0785 -0.4673
29331SOL    HW191909   0.270   4.833   5.331 -0.7615  0.1104  0.2920
29331SOL    HW291910   0.352   4.856   5.456  1.8334  0.7051 -1.4347
29332SOL     OW91911   6.640   4.736   7.341  0.0195 -0.1451  0.1335
29332SOL    HW191912   6.563   4.679   7.341  0.5921 -0.9469 -0.5274
29332SOL    HW291913   6.704   4.691   7.395 -0.3495  1.1071  1.7097
29333SOL     OW91914   6.696   8.451   1.808 -0.1228 -0.0857  0.0902
29333SOL    HW191915   6.615   8.499   1.826 -0.5295 -0.8301  0.2977
29333SOL    HW291916   6.697   8.440   1.713  0.4495  1.1378 -0.0567
29334SOL     OW91917   2.267   9.890   8.310  0.4431 -0.0992  0.1533
29334SOL    HW191918   2.204   9.833   8.266  0.9998 -0.0340 -0.7434
29334SOL    HW291919   2.346   9.886   8.255  0.3923  1.7948 -0.1142
29335SOL     OW91920   0.385   1.153   9.494  0.4817  0.1374 -0.7419
29335SOL    HW191921   0.292   1.131   9.502  0.3651  0.5166 -0.9982
29335SOL    HW291922   0.385   1.243   9.461  0.9407  0.5993  0.4847
29336SOL     OW91923   2.796   9.230   1.867 -0.1507  0.2401 -0.3722
29336SOL    HW191924   2.876   9.266   1.907  0.2144 -0.1901 -0.7042
29336SOL    HW291925   2.748   9.193   1.940  0.2193  0.0100 -0.2404
29337SOL     OW91926   7.708   4.586   9.012 -0.3468 -0.0549  0.2554
29337SOL    HW191927   7.655   4.532   9.070  0.2062 -0.3388  0.5025
29337SOL    HW291928   7.647   4.620   8.947 -0.5517 -1.6846 -0.4370
29338SOL     OW91929  10.194  10.097   8.798 -0.3457 -0.1477 -0.2194
29338SOL    HW191930  10.242  10.023   8.835 -0.6749 -0.3198 -0.1236
29338SOL    HW291931  10.260  10.149   8.754 -0.1204 -0.5430 -0.3582
29339SOL     OW91932   3.387   9.736   8.030  0.2496 -0.1823 -0.6857
29339SOL    HW191933   3.326   9.801   8.065 -0.2953 -0.0809 -1.7920
29339SOL    HW291934   3.469   9.785   8.016 -0.1415  0.2734 -1.4631
29340SOL     OW91935   5.803   4.077   8.121  0.8700 -0.0706 -0.0717
29340SOL    HW191936   5.756   4.159   8.110 -0.8933 -1.0026  0.2015
29340SOL    HW291937   5.806   4.063   8.215  0.0511 -0.9112 -0.1574
29341SOL     OW91938   1.705   5.172   6.919  0.5842  0.3114  0.0225
29341SOL    HW191939   1.705   5.256   6.873  0.5191  1.7621  2.4935
29341SOL    HW291940   1.782   5.175   6.975  0.0196 -0.8417  0.9070
29342SOL     OW91941   4.237   2.583   7.881 -0.2141  0.1916  0.5860
29342SOL    HW191942   4.325   2.594   7.846 -0.2297  0.4680  0.6264
29342SOL    HW291943   4.180   2.622   7.814 -0.1592  1.8013  1.4289
29343SOL     OW91944   7.509   1.751   5.447 -0.2839 -0.2596 -0.4017
29343SOL    HW191945   7.474   1.662   5.437 -2.1073  0.2561  1.0251
29343SOL    HW291946   7.586   1.752   5.390 -0.3581 -2.6721 -0.6518
29344SOL     OW91947   3.798   5.172   3.606 -0.3601 -0.0170 -0.1361
29344SOL    HW191948   3.752   5.169   3.522 -1.5590  0.5722  0.4681
29344SOL    HW291949   3.732   5.204   3.668  0.6658  0.1146  0.9210
29345SOL     OW91950   1.862   9.379   9.027  0.4488 -0.7553 -0.0232
29345SOL    HW191951   1.908   9.366   8.944 -0.5805 -1.6698 -0.4942
29345SOL    HW291952   1.877   9.297   9.075  2.1861  0.2842  1.3255
29346SOL     OW91953   8.097   3.984   9.716 -0.1969 -0.1011  0.8261
29346SOL    HW191954   8.100   3.979   9.621 -0.1413 -1.4288  0.8799
29346SOL    HW291955   8.014   4.027   9.736 -0.3475 -0.0966  0.1929
29347SOL     OW91956   8.619   8.801   7.545  0.0500  0.9287  0.0076
29347SOL    HW191957   8.680   8.873   7.562  0.2361  0.3864  1.8692
29347SOL    HW291958   8.536   8.832   7.581 -0.4110  1.0411 -1.1181
29348SOL     OW91959   7.313   8.346   2.925 -0.0262  0.1487  0.1451
29348SOL    HW191960   7.296   8.406   2.997 -0.6682 -0.3792  0.4354
29348SOL    HW291961   7.406   8.324   2.933  0.1299  0.8319  0.2350
29349SOL     OW91962   2.943   4.867   7.952 -0.0318  0.2673 -0.3490
29349SOL    HW191963   2.956   4.895   7.862  2.1324  2.0283  0.4401
29349SOL    HW291964   2.946   4.771   7.948  1.4804  0.3431 -1.9804
29350SOL     OW91965   6.562   9.973   8.645 -0.6718 -0.0137 -0.1746
29350SOL    HW191966   6.528  10.060   8.666 -1.7952 -0.1092 -1.4857
29350SOL    HW291967   6.561   9.969   8.550  1.0340 -0.8398 -0.2087
29351SOL     OW91968   8.687   0.872   6.586 -0.3435  0.7253 -0.0353
29351SOL    HW191969   8.611   0.822   6.616 -0.1395  0.6914  0.4498
29351SOL    HW291970   8.746   0.806   6.550 -0.2659  0.6707  0.1909
29352SOL     OW91971   1.210   3.288   1.362  0.4446  0.4705  0.0578
29352SOL    HW191972   1.135   3.315   1.414  1.0208  0.6628  0.8171
29352SOL    HW291973   1.187   3.312   1.272 -2.0496 -2.9931 -0.3947
29353SOL     OW91974   8.838   7.861   9.256  0.2450 -1.5282  0.2056
29353SOL    HW191975   8.820   7.922   9.328 -1.7032 -2.1125  0.2503
29353SOL    HW291976   8.784   7.892   9.184  0.0276 -2.5842 -0.0975
29354SOL     OW91977   5.809   4.262   8.503 -0.4782 -0.5417 -0.0126
29354SOL    HW191978   5.881   4.324   8.510 -1.5211  1.0958 -2.4017
29354SOL    HW291979   5.779   4.249   8.594  1.2017  0.6859  0.7580
29355SOL     OW91980   4.159   4.335   0.569  0.0885 -0.0642  0.1899
29355SOL    HW191981   4.096   4.356   0.638 -0.2771 -0.2285 -0.0886
29355SOL    HW291982   4.195   4.420   0.543 -0.4039  0.0895 -0.0109
29356SOL     OW91983   3.292   9.080   7.663 -0.0029  0.4552 -0.1240
29356SOL    HW191984   3.247   9.097   7.580  1.6447  0.7263 -1.0095
29356SOL    HW291985   3.251   9.000   7.697  0.9393 -1.1406 -2.4773
29357SOL     OW91986   1.620   3.674   8.693  0.6505  0.2025 -0.0166
29357SOL    HW191987   1.608   3.758   8.737 -2.4734  0.1429 -0.5171
29357SOL    HW291988   1.654   3.697   8.606  1.0916  0.8143  0.3067
29358SOL     OW91989   7.391   3.924   5.448  0.2398 -0.4461 -0.1759
29358SOL    HW191990   7.433   4.010   5.446  1.4772 -1.0202 -2.9465
29358SOL    HW291991   7.463   3.862   5.436 -0.6111 -1.9557  1.8626
29359SOL     OW91992   4.917   9.951   5.998 -0.0745 -0.2647  0.1257
29359SOL    HW191993   4.829   9.921   6.021 -0.0763  0.5720  1.3104
29359SOL    HW291994   4.974   9.903   6.058  0.3630 -1.3271 -1.1056
29360SOL     OW91995   7.525   4.416   9.436  0.2887 -0.0762 -0.3316
29360SOL    HW191996   7.584   4.357   9.483  0.1938 -0.6984 -0.9788
29360SOL    HW291997   7.524   4.384   9.346 -0.2238  0.5588 -0.5683
29361SOL     OW91998   4.865   4.474   2.205  0.5005 -0.2971  0.1510
29361SOL    HW191999   4.947   4.498   2.248  0.0270 -0.0691  0.9406
29361SOL    HW292000   4.854   4.381   2.224  0.2892 -0.1953  0.5270
29362SOL     OW92001   9.881   9.883   9.815 -0.1354 -0.1663 -0.1816
29362SOL    HW192002   9.920   9.966   9.787  0.8212 -0.7723 -0.7162
29362SOL    HW292003   9.793   9.906   9.845 -0.1362  0.9386 -0.9689
29363SOL     OW92004   9.632   1.351   1.337 -0.3951  0.0502 -0.4680
29363SOL    HW192005   9.627   1.285   1.406  3.7163 -0.0946 -0.0509
29363SOL    HW292006   9.648   1.433   1.384  0.6857  0.2498 -1.1524
29364SOL     OW92007   2.371   3.594   1.204 -0.4133 -0.5764 -0.4798
29364SOL    HW192008   2.288   3.580   1.250 -2.0016  1.2852 -2.5305
29364SOL    HW292009   2.405   3.506   1.188 -2.4068 -1.4350 -0.3030
29365SOL     OW92010   3.540   7.929   1.394  0.6412 -0.4269  0.3230
29365SOL    HW192011   3.486   8.008   1.398  1.7808  0.6007 -2.1194
29365SOL    HW292012   3.611   7.945   1.456  0.7823  0.4555 -0.0425
29366SOL     OW92013   5.614   1.402   5.539 -0.1760  0.6266  0.0737
29366SOL    HW192014   5.569   1.484   5.561  0.1784  0.9034 -0.2176
29366SOL    HW292015   5.591   1.387   5.447 -0.1815  0.4384  0.1067
29367SOL     OW92016   8.392   2.227  10.094 -0.3366  0.0494 -0.0068
29367SOL    HW192017   8.475   2.196  10.130 -0.3656 -3.1332 -2.2435
29367SOL    HW292018   8.326   2.197  10.157 -0.0578 -1.4693 -0.3883
29368SOL     OW92019   0.389   1.939   1.784  0.1843  0.0945  0.0830
29368SOL    HW192020   0.428   1.854   1.766 -0.0734 -0.7679  3.0792
29368SOL    HW292021   0.456   1.987   1.832  0.0222  1.3101 -0.8565
29369SOL     OW92022   0.753   7.145   9.472 -0.6934  0.5383  0.3583
29369SOL    HW192023   0.842   7.150   9.439 -0.1418 -0.1101  1.7150
29369SOL    HW292024   0.700   7.124   9.394  0.1631  1.8910 -0.6411
29370SOL     OW92025   9.365   5.952   1.534  0.2914 -0.0459  0.0749
29370SOL    HW192026   9.440   5.969   1.592 -0.5609 -0.4093  1.3076
29370SOL    HW292027   9.377   6.013   1.461  1.3482  0.4657  0.6539
29371SOL     OW92028   3.489   3.229   5.233  0.2341  0.3224  0.0857
29371SOL    HW192029   3.462   3.246   5.323  0.0569 -1.6080  0.4455
29371SOL    HW292030   3.465   3.137   5.218  2.7037 -0.2222 -1.0222
29372SOL     OW92031   6.372   9.984   7.627  0.2387  0.2921 -0.1013
29372SOL    HW192032   6.344   9.895   7.650 -1.9419  1.0535  0.3985
29372SOL    HW292033   6.316  10.008   7.554  0.6071  1.3800 -0.0331
29373SOL     OW92034   5.740   1.075   3.038 -0.7970 -0.2404 -0.0949
29373SOL    HW192035   5.731   1.001   2.978  0.1114  0.0362 -0.5847
29373SOL    HW292036   5.834   1.095   3.038 -0.7607 -0.2678  1.4593
29374SOL     OW92037   7.264   9.504   9.733  0.8436  0.4972 -0.7038
29374SOL    HW192038   7.275   9.511   9.638 -0.5321  1.3455 -0.8264
29374SOL    HW292039   7.235   9.591   9.760  3.2964  0.9287  0.8286
29375SOL     OW92040   6.910   5.959   2.494 -0.5263 -0.4472 -0.0415
29375SOL    HW192041   6.878   6.009   2.569  1.8244  0.2002  0.5957
29375SOL    HW292042   6.954   5.883   2.533  1.7248  0.4793 -0.6259
29376SOL     OW92043   2.958   0.610   1.422 -1.0068 -0.8098 -0.2300
29376SOL    HW192044   2.928   0.599   1.512 -2.2477  0.9938 -0.3646
29376SOL    HW292045   2.887   0.659   1.380  1.3249  2.0556 -1.0994
29377SOL     OW92046   9.291   1.090   6.599  0.0712  0.3236  0.7240
29377SOL    HW192047   9.288   0.996   6.583 -0.4617  0.3101  0.8811
29377SOL    HW292048   9.371   1.104   6.650  0.3027 -0.0015  0.4583
29378SOL     OW92049   9.815   2.396   7.583 -0.3066  0.4854  0.2374
29378SOL    HW192050   9.862   2.353   7.511  1.4237  0.9223  1.0499
29378SOL    HW292051   9.725   2.363   7.576  0.0289 -0.1658 -1.5624
29379SOL     OW92052   8.276   9.291   6.211  0.2740 -0.4852  0.0045
29379SOL    HW192053   8.276   9.200   6.242 -1.6267 -0.4654  0.1764
29379SOL    HW292054   8.236   9.286   6.124 -0.0493  0.2268  0.1094
29380SOL     OW92055  10.062   3.693   7.308  0.0554 -0.2305 -0.4665
29380SOL    HW192056  10.123   3.693   7.234  0.6429 -1.6568 -0.0242
29380SOL    HW292057   9.995   3.757   7.284 -0.6867 -1.8214 -3.0034
29381SOL     OW92058   8.212   5.287   6.149  0.1031 -0.2673  0.1080
29381SOL    HW192059   8.151   5.356   6.176 -0.5456 -0.2670 -1.2251
29381SOL    HW292060   8.243   5.316   6.063  0.6482 -1.1286  0.0035
29382SOL     OW92061   5.694   9.409   8.106 -0.4108  0.2033  0.3544
29382SOL    HW192062   5.634   9.458   8.162 -1.6722  1.0601 -1.6509
29382SOL    HW292063   5.646   9.329   8.084 -0.3740  0.3717 -0.3556
29383SOL     OW92064   2.170   3.464   2.043  0.1094 -0.1772  0.1377
29383SOL    HW192065   2.186   3.418   1.961  1.1020 -0.1369  0.2864
29383SOL    HW292066   2.220   3.415   2.108 -1.9031 -1.1203  1.0358
29384SOL     OW92067   8.583   4.572   9.493  0.2768 -0.4140 -0.1998
29384SOL    HW192068   8.674   4.595   9.478  0.2677 -0.2678 -0.0380
29384SOL    HW292069   8.586   4.495   9.551  0.2925 -0.1076  0.2146
29385SOL     OW92070   6.459   5.342   0.939  0.1237 -0.3103  0.4823
29385SOL    HW192071   6.396   5.279   0.903 -1.1028  1.4512 -0.5962
29385SOL    HW292072   6.421   5.368   1.023 -0.0949  0.0135  0.2860
29386SOL     OW92073   5.036   5.153   6.657  0.0123  0.2555  0.2122
29386SOL    HW192074   5.060   5.225   6.598  0.1759 -0.1035 -0.1586
29386SOL    HW292075   4.960   5.112   6.615 -0.8023  0.9265  1.0073
29387SOL     OW92076   5.235   8.031   9.525 -0.1632  0.0398 -0.1333
29387SOL    HW192077   5.244   8.092   9.599 -1.1427 -1.3167  1.1741
29387SOL    HW292078   5.264   7.947   9.560  0.2222 -0.4620 -1.5941
29388SOL     OW92079   7.788   2.239   5.217  0.2151  0.6907  0.0938
29388SOL    HW192080   7.746   2.191   5.288  2.5890 -0.9463  0.4804
29388SOL    HW292081   7.729   2.228   5.142 -1.4529  0.9687  1.3254
29389SOL     OW92082   2.803   1.369   8.575  0.2162  0.0530  0.6457
29389SOL    HW192083   2.876   1.355   8.635  2.3704  1.4239 -1.4416
29389SOL    HW292084   2.821   1.455   8.536 -3.4890  1.2855  1.2286
29390SOL     OW92085   6.616   6.834   6.230 -0.5050 -0.2240  0.5384
29390SOL    HW192086   6.613   6.831   6.135  1.6468  1.7811  0.3042
29390SOL    HW292087   6.583   6.921   6.252 -0.2113 -0.3609  1.5753
29391SOL     OW92088   5.161   9.662   5.717  0.2324  0.6069 -0.6351
29391SOL    HW192089   5.237   9.608   5.699  1.1048  2.2630 -2.2587
29391SOL    HW292090   5.151   9.717   5.639 -1.6503  1.5598  0.2005
29392SOL     OW92091   6.645   0.347   5.552  0.0691 -0.6607 -0.7438
29392SOL    HW192092   6.559   0.379   5.580  0.4801 -1.2177  1.3438
29392SOL    HW292093   6.642   0.253   5.569  1.3089 -0.5824  0.0707
29393SOL     OW92094   2.307   9.519   9.582  0.3119  0.3506 -0.2938
29393SOL    HW192095   2.349   9.576   9.518 -0.2991  0.4996 -0.5679
29393SOL    HW292096   2.253   9.460   9.530 -1.5035  1.5338  0.1311
29394SOL     OW92097   2.909   7.256   1.208 -0.0760  0.1556  0.1602
29394SOL    HW192098   2.929   7.290   1.121 -0.6510 -0.1233 -0.0830
29394SOL    HW292099   2.843   7.189   1.193  0.5346 -0.5901  0.7044
29395SOL     OW92100   2.032   6.548   9.840  0.4694 -0.0179 -0.1175
29395SOL    HW192101   1.993   6.626   9.801  0.2683  0.7556  1.5469
29395SOL    HW292102   2.112   6.579   9.882  1.7656 -1.1995 -1.6116
29396SOL     OW92103   9.565  10.175   7.284  0.2273 -0.3914  0.1725
29396SOL    HW192104   9.659  10.171   7.303  0.2796 -1.8636 -0.2846
29396SOL    HW292105   9.550  10.265   7.256  0.7834  0.9708  3.7509
29397SOL     OW92106   0.204   6.078   2.997 -0.3418  0.0627  0.5570
29397SOL    HW192107   0.189   6.132   2.920 -0.6423 -1.7535 -0.7405
29397SOL    HW292108   0.260   6.131   3.053  0.7427  1.0756 -1.3597
29398SOL     OW92109   3.924   4.355   2.969  0.1734  0.3349 -0.1809
29398SOL    HW192110   3.842   4.348   3.017  0.3171 -0.9453 -0.1034
29398SOL    HW292111   3.899   4.345   2.877  0.2046  0.2785 -0.1831
29399SOL     OW92112   0.090   0.951   7.216 -0.5744 -0.0517  0.2720
29399SOL    HW192113   0.164   0.941   7.276  0.2152  0.8611 -0.5077
29399SOL    HW292114   0.038   1.022   7.253 -1.0053 -0.6007  0.7452
29400SOL     OW92115   3.530   2.151   8.740 -0.4860  0.3236 -0.3342
29400SOL    HW192116   3.618   2.117   8.749 -1.3199 -1.5055  1.6754
29400SOL    HW292117   3.501   2.168   8.830 -2.4177  0.1789 -0.8746
29401SOL     OW92118   2.335   8.949   4.995 -0.3996 -0.2116 -0.2230
29401SOL    HW192119   2.308   9.041   4.985 -1.2100 -0.2465  1.2873
29401SOL    HW292120   2.288   8.919   5.073 -0.3278 -1.9875 -0.8170
29402SOL     OW92121   1.773   1.021   9.678  0.2998 -0.2622  0.0659
29402SOL    HW192122   1.820   1.040   9.759  0.6283  0.0495 -0.1913
29402SOL    HW292123   1.685   1.056   9.692  0.3117 -0.3462  0.3444
29403SOL     OW92124   1.301   7.528   9.648  0.1038  0.3045  0.0087
29403SOL    HW192125   1.393   7.555   9.639  0.7767 -2.0061 -0.8669
29403SOL    HW292126   1.300   7.475   9.728 -0.4770  0.3741  0.0474
29404SOL     OW92127   2.408   5.321   4.167 -0.3397 -0.1298  0.3933
29404SOL    HW192128   2.388   5.247   4.223  0.3327 -0.1003  0.6795
29404SOL    HW292129   2.430   5.282   4.082 -0.6230 -0.2171  0.3605
29405SOL     OW92130   5.944   6.307   4.959  0.6429  0.3584  0.1304
29405SOL    HW192131   6.020   6.364   4.972  1.1753 -0.3111 -0.0378
29405SOL    HW292132   5.960   6.264   4.876 -0.2243  0.6661 -0.2036
29406SOL     OW92133   8.649   9.522   8.563 -0.7185  0.1320 -0.1981
29406SOL    HW192134   8.648   9.587   8.493 -1.3854  1.5914  1.0848
29406SOL    HW292135   8.601   9.448   8.528  1.8572 -0.6106 -2.4776
29407SOL     OW92136   0.543   4.363   9.964 -0.0842 -0.1522  0.5201
29407SOL    HW192137   0.557   4.289  10.024 -0.2426 -0.3109  0.3618
29407SOL    HW292138   0.549   4.440  10.020 -3.3783 -0.3742  1.4037
29408SOL     OW92139   2.548   6.598   5.314 -0.2145 -0.8735  0.1429
29408SOL    HW192140   2.581   6.678   5.274  1.5360 -0.4781  2.1701
29408SOL    HW292141   2.479   6.628   5.374 -0.1898 -0.9826  0.2264
29409SOL     OW92142   7.937   7.901   8.426 -0.0097 -0.0756 -0.1491
29409SOL    HW192143   7.875   7.974   8.422 -0.2085 -0.1783  0.8728
29409SOL    HW292144   7.927   7.857   8.342 -0.3827  0.6752 -0.5079
29410SOL     OW92145   2.779   8.140   2.710 -0.4752 -0.2176 -0.0791
29410SOL    HW192146   2.744   8.223   2.741 -1.2010 -0.5207 -0.0823
29410SOL    HW292147   2.794   8.155   2.616 -2.4009 -0.6725 -0.4936
29411SOL     OW92148   7.932   8.530   8.600 -0.3648 -0.6601 -0.3103
29411SOL    HW192149   7.942   8.486   8.516  0.6201 -0.5470 -0.2606
29411SOL    HW292150   7.970   8.469   8.664 -3.3126 -1.8979  0.4403
29412SOL     OW92151   9.960   7.656   1.700 -0.4274  0.2111  0.1167
29412SOL    HW192152  10.049   7.662   1.734 -0.4828  0.9570  0.1377
29412SOL    HW292153   9.961   7.707   1.619 -1.4056  2.2638  1.3050
29413SOL     OW92154   8.601   4.244   9.542  0.2434  0.0043 -0.1370
29413SOL    HW192155   8.538   4.223   9.473 -0.6268 -0.5317  0.7915
29413SOL    HW292156   8.565   4.204   9.620  0.9845  0.9638  0.7294
29414SOL     OW92157   5.513   1.943   4.880 -0.1456  0.2932 -0.2775
29414SOL    HW192158   5.594   1.894   4.867 -0.6188 -0.5628 -0.0649
29414SOL    HW292159   5.540   2.021   4.929  0.1039 -1.5837  2.8306
29415SOL     OW92160   4.642   1.306   2.763 -0.1666  0.2154  0.4459
29415SOL    HW192161   4.565   1.363   2.764 -0.5189 -0.2659  0.5909
29415SOL    HW292162   4.683   1.319   2.848  1.1325  2.1124 -0.3807
29416SOL     OW92163   1.265   7.721  10.032  0.2707 -0.3449  0.1012
29416SOL    HW192164   1.343   7.700   9.980  1.5229 -0.7261  2.0024
29416SOL    HW292165   1.195   7.732   9.968  2.0559  0.8567 -1.7670
29417SOL     OW92166   0.140   4.083   1.075  0.0693  0.7636  0.9729
29417SOL    HW192167   0.077   4.076   1.003  1.1538 -0.0739  0.0757
29417SOL    HW292168   0.096   4.138   1.140 -0.2447  3.1116 -1.0874
29418SOL     OW92169   5.858   9.271   2.579  0.4809  0.1260 -0.1951
29418SOL    HW192170   5.842   9.192   2.527 -1.5179  1.3503 -1.5995
29418SOL    HW292171   5.950   9.291   2.565  0.2447 -0.1650 -2.5077
29419SOL     OW92172   3.093   7.692   5.121  0.0786 -0.0460  0.1772
29419SOL    HW192173   3.019   7.638   5.093 -0.9136  1.7089 -0.7097
29419SOL    HW292174   3.158   7.628   5.152 -1.5403 -1.6676  0.4222
29420SOL     OW92175   1.197   6.635   5.801  0.4073  0.0241  0.4714
29420SOL    HW192176   1.148   6.672   5.875  1.0076  1.3033  0.2651
29420SOL    HW292177   1.252   6.568   5.840 -1.5398 -1.5192  0.6931
29421SOL     OW92178   4.469   3.920   5.767 -1.1307  0.3639 -0.2023
29421SOL    HW192179   4.532   3.897   5.699 -0.2904  1.3109  0.2404
29421SOL    HW292180   4.401   3.852   5.761  0.2659 -1.0889 -0.2326
29422SOL     OW92181   5.329   1.464   4.378  0.7311 -0.5062  0.4240
29422SOL    HW192182   5.334   1.506   4.292 -1.2518 -0.1013  0.4686
29422SOL    HW292183   5.236   1.462   4.398  1.1664 -0.4934  2.6411
29423SOL     OW92184   5.591   5.287   6.414 -0.4723 -0.5730 -0.1331
29423SOL    HW192185   5.519   5.340   6.446 -0.7568 -1.7934  1.3678
29423SOL    HW292186   5.667   5.314   6.466  0.4649  1.3318 -2.2927
29424SOL     OW92187   5.860   5.385  10.146  0.4436  0.0681  0.0734
29424SOL    HW192188   5.831   5.297  10.126  0.0937  0.0718  0.5524
29424SOL    HW292189   5.812   5.441  10.085  1.3597 -0.1370 -0.8779
29425SOL     OW92190   1.008  10.101   1.909  0.1392 -0.1325  0.1483
29425SOL    HW192191   1.004  10.039   1.837  0.1572  0.9637 -0.8254
29425SOL    HW292192   0.970  10.182   1.875  1.0121  0.7062  1.0438
29426SOL     OW92193   2.492   4.559   1.712  0.4343 -0.4471 -0.3882
29426SOL    HW192194   2.568   4.547   1.770  0.4665  0.3436 -0.2520
29426SOL    HW292195   2.497   4.486   1.651  0.6961 -1.0122  0.2859
29427SOL     OW92196   7.386   6.749   8.286  0.0015  0.2166 -0.0838
29427SOL    HW192197   7.394   6.826   8.230 -0.1705  0.2958  0.0004
29427SOL    HW292198   7.319   6.772   8.350  0.4869  0.2803  0.4121
29428SOL     OW92199   6.549   5.154   3.402  0.2115  0.1388 -0.0189
29428SOL    HW192200   6.637   5.133   3.372  0.0969  1.0562 -1.0507
29428SOL    HW292201   6.535   5.096   3.477  1.8153  0.2414  0.3883
29429SOL     OW92202   3.823   7.330   6.575  0.1958 -0.0838  0.5201
29429SOL    HW192203   3.757   7.275   6.533  1.1408  0.0666 -1.2404
29429SOL    HW292204   3.835   7.291   6.661  0.4334 -2.3118 -0.4715
29430SOL     OW92205   4.390   8.096   4.420  0.1844  0.1816 -0.3553
29430SOL    HW192206   4.418   8.178   4.380  1.9991 -0.6798 -0.9804
29430SOL    HW292207   4.467   8.066   4.469 -0.9083 -0.4621  1.0291
29431SOL     OW92208   5.644   8.168   4.618 -0.2587 -0.2006  0.8618
29431SOL    HW192209   5.596   8.159   4.537 -1.2580  1.0406  1.2910
29431SOL    HW292210   5.713   8.231   4.599 -0.0922 -0.3974  0.8087
29432SOL     OW92211   6.582  10.129   7.715 -0.9137 -0.3135 -0.1822
29432SOL    HW192212   6.594  10.181   7.636 -0.3478  0.7277  0.5647
29432SOL    HW292213   6.524  10.057   7.688  0.4582 -0.8484 -1.8941
29433SOL     OW92214   7.674   3.093   2.351 -0.5745 -0.1394  0.1566
29433SOL    HW192215   7.659   3.037   2.427  0.6847  1.8383  2.0041
29433SOL    HW292216   7.589   3.130   2.331 -0.6019  0.9974  2.1070
29434SOL     OW92217   9.291   9.419   9.526  0.0107  0.4329 -0.6163
29434SOL    HW192218   9.337   9.384   9.450 -0.4335  2.0047 -1.6559
29434SOL    HW292219   9.208   9.451   9.491 -0.3177  0.9364  0.5827
29435SOL     OW92220   4.722   4.706   5.199 -0.2558  0.3618 -0.3970
29435SOL    HW192221   4.697   4.798   5.204 -0.0620  0.4396 -0.7775
29435SOL    HW292222   4.798   4.698   5.257 -0.4035  0.3926 -0.1981
29436SOL     OW92223   5.370   3.832   3.736 -0.1884  0.1469  0.7144
29436SOL    HW192224   5.418   3.761   3.694 -0.1619  0.8698 -0.5239
29436SOL    HW292225   5.435   3.901   3.749 -0.1013 -0.1862  2.3455
29437SOL     OW92226   4.924   4.494   9.755  0.0407  0.2514 -0.0701
29437SOL    HW192227   5.013   4.485   9.720 -0.2134  2.2376 -1.3667
29437SOL    HW292228   4.936   4.504   9.849  1.3635  2.1052 -0.3889
29438SOL     OW92229   9.864   2.560   9.443  0.5311  0.4880 -0.2902
29438SOL    HW192230   9.863   2.540   9.350  0.2399 -1.2416  0.0432
29438SOL    HW292231   9.951   2.598   9.459  0.8192  0.2115 -1.1555
29439SOL     OW92232   2.730   1.738   6.247 -0.4730 -0.2573  0.1610
29439SOL    HW192233   2.794   1.768   6.311 -0.8590  1.6621 -0.3120
29439SOL    HW292234   2.645   1.756   6.287 -0.7479 -1.4720  0.1771
29440SOL     OW92235   2.276   1.020   4.366 -0.9831  0.5647  0.1050
29440SOL    HW192236   2.237   0.935   4.387 -1.0100  0.5415 -0.0443
29440SOL    HW292237   2.325   1.006   4.285  0.3754  0.2804  0.9390
29441SOL     OW92238   6.070   3.741   3.126 -0.0417  0.1900 -0.1382
29441SOL    HW192239   6.139   3.724   3.062 -1.2863 -1.0088 -1.2182
29441SOL    HW292240   6.001   3.678   3.104 -2.3239  2.5912 -0.3861
29442SOL     OW92241   3.912   7.585   5.164 -0.3552 -0.0877 -0.3802
29442SOL    HW192242   3.994   7.537   5.165 -1.0900 -1.3922  0.5838
29442SOL    HW292243   3.869   7.560   5.082  0.8106  1.7566 -1.6273
29443SOL     OW92244   5.642   7.957   0.360  0.0091  0.2436 -0.4018
29443SOL    HW192245   5.605   8.039   0.392 -0.3616 -0.6373  1.5556
29443SOL    HW292246   5.625   7.894   0.430  2.1644 -1.0139 -0.9119
29444SOL     OW92247   2.078   0.089   4.246  0.4012  0.4442 -0.3255
29444SOL    HW192248   2.085   0.014   4.186 -1.0644 -1.0668  1.2636
29444SOL    HW292249   2.001   0.136   4.215  0.8795  0.8783 -0.8720
29445SOL     OW92250   1.829   9.052   0.473  0.0887 -0.7623 -0.4542
29445SOL    HW192251   1.793   9.080   0.557 -0.2735  0.1266 -0.8879
29445SOL    HW292252   1.755   9.011   0.428 -0.4613  1.0831 -1.3548
29446SOL     OW92253   7.427   7.036   7.683  0.2137  0.4695  0.4443
29446SOL    HW192254   7.497   6.980   7.718 -0.0881 -0.7681 -0.8425
29446SOL    HW292255   7.349   7.010   7.732  0.2435  0.4141  0.4622
29447SOL     OW92256   2.825   5.930   6.914  0.3611 -0.2466 -0.1064
29447SOL    HW192257   2.877   5.917   6.835 -0.4146 -0.5393 -0.5769
29447SOL    HW292258   2.767   5.854   6.917 -0.2264  0.2110  0.2620
29448SOL     OW92259   0.926   7.656   9.063 -0.1905 -0.5368 -0.6114
29448SOL    HW192260   1.003   7.712   9.063 -0.4664 -0.1504 -1.5148
29448SOL    HW292261   0.880   7.676   8.982 -0.7753 -1.4154 -0.5212
29449SOL     OW92262   1.874   4.339   8.385 -0.4197 -0.0504 -0.2305
29449SOL    HW192263   1.849   4.372   8.471  1.1453 -1.0292  0.6485
29449SOL    HW292264   1.799   4.286   8.357  0.1586 -2.2383  1.9496
29450SOL     OW92265   0.428   1.311   3.653  0.0557  0.3470 -0.2531
29450SOL    HW192266   0.361   1.244   3.665  0.1507 -0.1768 -2.2347
29450SOL    HW292267   0.416   1.370   3.727 -1.5797 -0.5691  0.2760
29451SOL     OW92268   8.298   7.911   2.319  0.3015 -0.1110 -0.3060
29451SOL    HW192269   8.246   7.911   2.400 -0.6673 -0.5858 -0.9054
29451SOL    HW292270   8.246   7.859   2.258  1.0398  0.2132 -1.2278
29452SOL     OW92271   1.281   6.746   7.403 -0.2454  0.0156  0.2000
29452SOL    HW192272   1.320   6.776   7.485  0.0580  4.2005 -1.2228
29452SOL    HW292273   1.356   6.727   7.347 -0.4132 -0.1271  0.0217
29453SOL     OW92274   2.619   5.896   3.682 -0.2119 -0.3328  0.1995
29453SOL    HW192275   2.602   5.989   3.697  0.5110 -0.0901 -0.4651
29453SOL    HW292276   2.701   5.894   3.633 -0.9735 -1.2548 -1.0713
29454SOL     OW92277   3.089   4.293   1.510 -0.0276  0.4452  0.2683
29454SOL    HW192278   3.031   4.365   1.534  0.8291  1.3704 -0.3681
29454SOL    HW292279   3.177   4.327   1.522  0.4064 -0.0880 -1.1427
29455SOL     OW92280   8.287   7.834   0.727  0.7191  1.1106  0.2797
29455SOL    HW192281   8.348   7.788   0.668  0.0011 -0.9019  1.0410
29455SOL    HW292282   8.207   7.782   0.725 -0.3563  2.6651  0.7723
29456SOL     OW92283   4.975   0.833   8.788  0.1851  0.1343  0.5873
29456SOL    HW192284   4.920   0.767   8.830  1.0437 -0.1392  1.3077
29456SOL    HW292285   5.055   0.835   8.841  0.6854  0.8443 -0.1736
29457SOL     OW92286   8.029   5.049   1.853 -0.0200 -0.7970  0.3790
29457SOL    HW192287   8.065   4.973   1.806  1.4621  0.8752 -1.3462
29457SOL    HW292288   7.951   5.074   1.803 -0.6828 -1.3392  1.1243
29458SOL     OW92289   7.348   6.768   4.587 -0.2514  0.3822  0.1671
29458SOL    HW192290   7.303   6.695   4.545 -0.5903  1.9083 -2.2932
29458SOL    HW292291   7.294   6.788   4.664 -1.5908 -0.3033 -0.5669
29459SOL     OW92292   5.675   3.466   2.902 -0.0911  0.8955 -0.3336
29459SOL    HW192293   5.746   3.463   2.838  0.4396  1.3398  0.2207
29459SOL    HW292294   5.595   3.473   2.849  0.3546  1.4962 -0.9419
29460SOL     OW92295   7.298   6.448   5.520 -0.1882  0.4488  0.0714
29460SOL    HW192296   7.204   6.459   5.503 -0.2150 -0.4469 -0.4030
29460SOL    HW292297   7.302   6.405   5.605 -0.1296  2.3105  1.0641
29461SOL     OW92298   9.458   0.700   2.824  0.3276 -0.0496 -0.1590
29461SOL    HW192299   9.491   0.617   2.787 -0.1793 -0.6750  0.7508
29461SOL    HW292300   9.370   0.709   2.787  0.8731  0.7893 -1.3120
29462SOL     OW92301   0.191   0.610   5.161  0.8809  0.1830 -0.5199
29462SOL    HW192302   0.270   0.567   5.129 -0.3248 -1.9344 -0.8144
29462SOL    HW292303   0.201   0.612   5.256  1.2417 -0.1307 -0.5501
29463SOL     OW92304   5.015   3.945   1.773 -0.1343  0.2517 -0.0529
29463SOL    HW192305   4.966   3.890   1.711  0.6058 -0.5411  0.0361
29463SOL    HW292306   4.949   3.997   1.817 -0.7737  0.0901 -0.8012
29464SOL     OW92307   3.581   3.701   0.049  0.3762 -0.6053  0.4673
29464SOL    HW192308   3.603   3.608   0.043  1.7750 -0.2086 -2.1023
29464SOL    HW292309   3.535   3.720  -0.032 -1.1808  0.6902  1.5946
29465SOL     OW92310   0.558   7.407   5.043  0.1926 -0.0917  0.0325
29465SOL    HW192311   0.638   7.402   5.095  0.4026 -0.7397 -0.3382
29465SOL    HW292312   0.543   7.501   5.032 -0.4061  0.0993  2.0749
29466SOL     OW92313   6.896   6.486   0.179  0.0345  0.0249 -0.1625
29466SOL    HW192314   6.833   6.523   0.241  0.7709  0.8864  0.0835
29466SOL    HW292315   6.877   6.531   0.096 -1.2752 -1.4724 -0.7338
29467SOL     OW92316   0.124   0.909   4.375 -0.4375  0.1185  0.3942
29467SOL    HW192317   0.078   0.826   4.389  1.0605 -0.9021 -0.4595
29467SOL    HW292318   0.206   0.884   4.332  0.2305  2.0147  0.4790
29468SOL     OW92319   1.153   1.791   2.401  0.6461  0.4102  0.7175
29468SOL    HW192320   1.100   1.816   2.477  0.7915  0.2262  0.8807
29468SOL    HW292321   1.223   1.857   2.398  0.3749  0.6893  0.4649
29469SOL     OW92322   4.819   7.512   0.208 -0.9084 -0.1547 -0.2830
29469SOL    HW192323   4.860   7.426   0.223 -0.2292 -0.2912 -2.6465
29469SOL    HW292324   4.834   7.559   0.290  2.3009 -0.8880 -0.3288
29470SOL     OW92325   6.945   3.663   1.311 -0.2954 -0.5504 -0.1832
29470SOL    HW192326   6.854   3.681   1.286  0.2798  0.2125 -1.8766
29470SOL    HW292327   6.960   3.720   1.387 -1.2051 -0.6472  0.0890
29471SOL     OW92328   9.596   0.412   9.059 -0.5944 -0.9083 -0.8476
29471SOL    HW192329   9.564   0.328   9.091  0.7053 -0.9760  0.4284
29471SOL    HW292330   9.638   0.392   8.976  1.9780 -2.0879  0.6014
29472SOL     OW92331   0.894   9.425   1.788 -0.0192  0.4413  0.0889
29472SOL    HW192332   0.982   9.403   1.757  0.5380 -0.2663  2.0460
29472SOL    HW292333   0.909   9.483   1.863 -1.1231 -0.9131  1.4110
29473SOL     OW92334   8.313   0.289   8.415  0.3217  0.7414  0.1012
29473SOL    HW192335   8.404   0.260   8.404 -0.0773 -1.1330  1.3456
29473SOL    HW292336   8.314   0.342   8.494  0.3493  0.7332  0.1065
29474SOL     OW92337   8.636   2.810   7.302 -0.1943 -0.5148  0.9231
29474SOL    HW192338   8.693   2.739   7.274 -0.0549  0.4917 -1.6523
29474SOL    HW292339   8.686   2.856   7.369  2.9608  1.3069 -2.3270
29475SOL     OW92340   3.410   7.462   7.804  0.1337 -0.4824  0.1435
29475SOL    HW192341   3.471   7.434   7.873  1.4871 -0.1801 -0.8920
29475SOL    HW292342   3.408   7.387   7.743  0.3124 -0.0829 -0.3627
29476SOL     OW92343   2.645   8.933   9.586 -0.1885  0.1893 -0.0883
29476SOL    HW192344   2.642   9.024   9.615  1.1786  0.0637  0.5172
29476SOL    HW292345   2.642   8.938   9.490 -0.4111  0.8462 -0.0504
29477SOL     OW92346   7.256   8.950   1.273  0.2124 -0.1052  0.5078
29477SOL    HW192347   7.167   8.955   1.240  0.6066  0.8550 -0.4606
29477SOL    HW292348   7.305   8.902   1.206  0.7389  0.7216  0.2774
29478SOL     OW92349   0.517   1.394   3.068 -0.0523  0.0560  0.0799
29478SOL    HW192350   0.588   1.358   3.122  0.9031  0.5653 -0.8030
29478SOL    HW292351   0.502   1.327   3.001  2.5086  1.6126 -2.2599
29479SOL     OW92352   6.743   4.555   6.649 -0.0567 -0.4106 -0.0469
29479SOL    HW192353   6.731   4.647   6.672  1.7789 -0.1562  0.0408
29479SOL    HW292354   6.654   4.520   6.642 -0.8582  0.3336  3.9515
29480SOL     OW92355   2.399   2.038   8.979 -0.2872 -0.2668 -0.1687
29480SOL    HW192356   2.345   2.067   8.906  0.0503 -0.1178 -0.3620
29480SOL    HW292357   2.371   2.092   9.053  0.5707  0.8179 -0.6055
29481SOL     OW92358   7.260   1.858   8.443  0.0560 -0.1238 -0.1596
29481SOL    HW192359   7.288   1.946   8.467  0.2943 -0.2058 -0.1311
29481SOL    HW292360   7.169   1.853   8.470 -0.0472  0.2197 -0.4374
29482SOL     OW92361   4.695  10.027   6.500 -0.1293  0.3525 -0.0158
29482SOL    HW192362   4.740  10.111   6.504 -1.5928  1.3226 -2.4376
29482SOL    HW292363   4.756   9.969   6.455  0.3998  0.4145  0.6020
29483SOL     OW92364   1.247   9.519   4.867 -0.5639  0.4473 -0.3236
29483SOL    HW192365   1.300   9.590   4.830 -0.2420 -0.3931 -1.5002
29483SOL    HW292366   1.304   9.443   4.865 -1.2170 -0.0599  0.0778
29484SOL     OW92367   7.526   6.638   7.826 -0.1953 -0.2015  0.0022
29484SOL    HW192368   7.553   6.674   7.742  1.2839 -0.9254  0.1418
29484SOL    HW292369   7.435   6.668   7.837 -0.8126 -1.0067 -2.3586
29485SOL     OW92370  10.148   8.993   3.765  0.2345  0.0872  0.4615
29485SOL    HW192371  10.235   9.031   3.760  0.2615 -0.2053 -2.3441
29485SOL    HW292372  10.162   8.903   3.794  0.8973 -0.0184 -0.1767
29486SOL     OW92373   5.251   3.374   1.879 -0.6069  0.7244 -0.3786
29486SOL    HW192374   5.248   3.320   1.958 -2.1636 -0.4614 -1.2001
29486SOL    HW292375   5.234   3.463   1.910 -0.9676  0.3144  0.6410
29487SOL     OW92376   8.718   6.949   2.905 -0.2336 -0.6571  0.6887
29487SOL    HW192377   8.693   7.021   2.848  0.9278 -0.6630  0.1494
29487SOL    HW292378   8.681   6.972   2.990  1.5079  1.4681  0.9709
29488SOL     OW92379   1.360   0.930   1.028  0.3070 -0.8512  0.0254
29488SOL    HW192380   1.308   0.981   1.090  0.8734  0.7954 -0.8047
29488SOL    HW292381   1.429   0.890   1.081 -0.0499 -0.6217  0.6695
29489SOL     OW92382   1.762   9.461   0.690  0.0441 -0.1668  0.1752
29489SOL    HW192383   1.683   9.415   0.718 -1.5890  1.3172 -1.7058
29489SOL    HW292384   1.784   9.518   0.763 -0.4456 -0.7963  0.8347
29490SOL     OW92385   9.927   8.361   4.285 -0.2558 -0.3100 -0.2669
29490SOL    HW192386  10.008   8.314   4.302  0.1210  0.3742 -0.1114
29490SOL    HW292387   9.949   8.453   4.300 -0.6515  0.0458 -1.7144
29491SOL     OW92388   6.486   7.019  10.197 -0.1234 -0.1241 -0.1347
29491SOL    HW192389   6.471   6.968  10.277  0.3889  2.8815  2.0477
29491SOL    HW292390   6.399   7.029  10.158 -0.3405 -1.8990 -0.1728
29492SOL     OW92391   2.983   0.044   3.956  0.1547 -0.2587 -0.1928
29492SOL    HW192392   2.957  -0.003   4.035  1.3515  1.1570  1.0900
29492SOL    HW292393   3.046   0.109   3.986  0.6753  0.2981 -2.3303
29493SOL     OW92394   8.627   9.171   9.254  0.3120 -0.1739 -0.2653
29493SOL    HW192395   8.697   9.234   9.271 -0.6783  0.9704 -0.3106
29493SOL    HW292396   8.670   9.085   9.260  1.6908  0.4949 -0.2277
29494SOL     OW92397   7.435   5.801   5.971  0.4890  0.4547  0.7300
29494SOL    HW192398   7.390   5.730   6.018  0.0137  1.4592  1.8655
29494SOL    HW292399   7.454   5.765   5.885 -1.6781 -0.3348  0.5209
29495SOL     OW92400   4.947   4.811   1.947 -0.0234 -0.2733 -0.1205
29495SOL    HW192401   5.018   4.874   1.957 -0.6710  0.7018 -1.3507
29495SOL    HW292402   4.947   4.789   1.854 -1.0095 -0.6233 -0.0504
29496SOL     OW92403   8.726   8.808   6.108  0.0958  0.1670  0.1118
29496SOL    HW192404   8.754   8.832   6.019 -0.7932 -0.7823 -0.4543
29496SOL    HW292405   8.734   8.712   6.110 -0.3207  0.1428  0.8980
29497SOL     OW92406   3.727   8.193   5.149  0.5030  0.2469 -0.1160
29497SOL    HW192407   3.717   8.105   5.111  0.7289  0.4370 -0.6317
29497SOL    HW292408   3.652   8.242   5.115 -0.9491 -0.3474  2.0222
29498SOL     OW92409   9.088   5.423   5.127  0.2650  0.1067  0.2620
29498SOL    HW192410   9.074   5.502   5.076  0.0971  0.4682  0.8533
29498SOL    HW292411   9.183   5.419   5.140  0.2196  0.5739  0.7834
29499SOL     OW92412   3.761   4.588   3.243  0.5002  0.0201 -0.0103
29499SOL    HW192413   3.831   4.650   3.263 -0.1998  1.2872 -1.3247
29499SOL    HW292414   3.708   4.585   3.322  2.2259 -1.3106  1.1830
29500SOL     OW92415   8.753   3.962   3.666 -0.7668  0.3979  0.2484
29500SOL    HW192416   8.666   3.926   3.682 -0.5059  0.4745  2.1210
29500SOL    HW292417   8.738   4.053   3.642 -1.1992  0.8522  2.0655
29501SOL     OW92418   7.614   1.166   6.484  0.1038  0.0956  0.2919
29501SOL    HW192419   7.666   1.124   6.417  1.5685  2.0587  0.1074
29501SOL    HW292420   7.669   1.237   6.517 -2.0913  1.7362  0.7194
29502SOL     OW92421   1.106   2.002   8.668  0.3679 -0.1786  0.2807
29502SOL    HW192422   1.024   2.032   8.630  0.6432 -0.1553 -0.3072
29502SOL    HW292423   1.093   1.909   8.683  0.0770 -0.0875  0.6165
29503SOL     OW92424  10.103   6.734   3.812  0.0111  0.5213 -0.0409
29503SOL    HW192425  10.081   6.800   3.879  2.1880 -1.4516  2.8671
29503SOL    HW292426  10.197   6.724   3.819  0.0759 -1.0304 -2.3106
29504SOL     OW92427   9.221   0.036   9.525  0.1803 -0.2667  0.0601
29504SOL    HW192428   9.182   0.104   9.471 -0.5252 -0.4144  0.3747
29504SOL    HW292429   9.203  -0.045   9.478  1.5093 -0.2152 -0.6022
29505SOL     OW92430   3.218   9.100   1.762  0.2979 -0.6021 -0.7586
29505SOL    HW192431   3.174   9.133   1.840  1.5399  0.0001 -0.2773
29505SOL    HW292432   3.154   9.043   1.720 -0.9167  0.2294 -0.0955
29506SOL     OW92433   6.874   7.956   2.206  0.2381  0.1308  0.2174
29506SOL    HW192434   6.794   7.926   2.163  0.5147  0.8937 -0.8821
29506SOL    HW292435   6.845   8.023   2.267  0.0223  0.3702 -0.1430
29507SOL     OW92436   7.784   6.484   8.142  0.2167  0.3882  0.1785
29507SOL    HW192437   7.847   6.487   8.213  0.4659 -1.8892  0.1193
29507SOL    HW292438   7.700   6.471   8.185  0.0490  1.2376  0.1368
29508SOL     OW92439   7.164   3.614   8.628  0.5161 -0.6515 -0.0338
29508SOL    HW192440   7.093   3.557   8.656 -0.9703  0.2097 -1.7827
29508SOL    HW292441   7.120   3.694   8.599  2.3589  0.6059  0.4279
29509SOL     OW92442   2.925   7.687   8.971  0.2708  0.0920 -0.3345
29509SOL    HW192443   2.989   7.715   8.906  0.5372 -0.2917 -0.2403
29509SOL    HW292444   2.971   7.621   9.024 -0.6744 -1.3895 -1.2749
29510SOL     OW92445  10.085   5.155   1.191 -0.1790 -0.4840 -0.0398
29510SOL    HW192446  10.086   5.099   1.114  2.1698 -0.4141 -0.1194
29510SOL    HW292447  10.134   5.233   1.165 -0.5535  0.1615  1.1020
29511SOL     OW92448   7.320   4.265   0.738  0.4946 -0.2089  0.3771
29511SOL    HW192449   7.327   4.337   0.800 -0.1269 -0.1712  0.4116
29511SOL    HW292450   7.272   4.197   0.785 -0.4166  0.0051 -0.2162
29512SOL     OW92451   8.764   1.144   0.436  0.0787 -0.0168 -0.6879
29512SOL    HW192452   8.779   1.109   0.523  1.1080 -0.3514 -0.9845
29512SOL    HW292453   8.690   1.205   0.446 -0.4392 -0.7829  0.2055
29513SOL     OW92454   8.560   3.553   2.434 -0.5637  0.1639  0.0265
29513SOL    HW192455   8.589   3.477   2.383 -1.4080 -0.4376  0.4021
29513SOL    HW292456   8.465   3.554   2.421 -0.5586  1.1589  0.0350
29514SOL     OW92457   6.345   2.004   2.101  0.1802  0.1272  0.7236
29514SOL    HW192458   6.312   1.977   2.015  0.2259 -1.0247  1.0463
29514SOL    HW292459   6.377   2.093   2.087  0.5767 -0.1890 -0.5674
29515SOL     OW92460   9.998   7.794   1.461  0.0175  0.2769 -0.4461
29515SOL    HW192461  10.080   7.830   1.428 -0.0592  2.3510  1.4275
29515SOL    HW292462   9.932   7.859   1.438 -0.8696 -0.6803 -0.6700
29516SOL     OW92463   7.683   0.190   1.442 -0.6138 -0.3178  0.4577
29516SOL    HW192464   7.665   0.117   1.383 -0.1881 -0.6186  0.6986
29516SOL    HW292465   7.757   0.161   1.495  1.3106  1.2872 -1.1907
29517SOL     OW92466   4.944   5.243   1.139 -0.0628  0.1118  0.3043
29517SOL    HW192467   4.863   5.198   1.115 -0.2366  1.1416 -1.1524
29517SOL    HW292468   4.932   5.332   1.109  1.4138  0.4257  0.5618
29518SOL     OW92469   8.048   9.144   1.542 -0.1080  0.0548 -0.2643
29518SOL    HW192470   8.046   9.214   1.477 -0.4071  0.1881 -0.1121
29518SOL    HW292471   8.000   9.072   1.500  0.4308 -0.1551 -0.5277
29519SOL     OW92472   2.371   9.037   1.202 -0.0659 -0.4153  0.5337
29519SOL    HW192473   2.383   8.958   1.150  0.1059 -0.2710  0.3526
29519SOL    HW292474   2.442   9.035   1.266 -0.1741 -0.5036  0.6520
29520SOL     OW92475   6.178   7.798   6.358  0.4784 -0.3833  0.1219
29520SOL    HW192476   6.232   7.809   6.436 -0.3816 -1.2147  0.8522
29520SOL    HW292477   6.239   7.808   6.285  1.1816  1.0684  0.8579
29521SOL     OW92478   1.064   6.872   7.279 -0.2047 -0.6106  0.2824
29521SOL    HW192479   1.114   6.812   7.334  2.8183  0.0949 -1.5165
29521SOL    HW292480   1.093   6.959   7.306  0.5680 -0.2301 -1.6738
29522SOL     OW92481   8.826   8.442   5.720  0.2417 -0.2536 -0.1691
29522SOL    HW192482   8.841   8.518   5.663 -2.3812 -0.4029 -1.2329
29522SOL    HW292483   8.896   8.381   5.698  1.4361  1.1811 -0.5079
29523SOL     OW92484   8.566   1.678   7.700 -0.5419  0.0485 -0.1725
29523SOL    HW192485   8.579   1.763   7.658 -0.8093  0.1353 -0.0828
29523SOL    HW292486   8.578   1.695   7.793  0.1240 -0.1581 -0.2143
29524SOL     OW92487   9.078   8.823   3.562  0.1681 -0.0949  0.1040
29524SOL    HW192488   9.057   8.882   3.635  0.4033  0.4822 -0.2900
29524SOL    HW292489   9.023   8.853   3.490  1.0265  0.3175 -0.4068
29525SOL     OW92490   8.010   2.034   1.183 -0.6993  0.1205 -0.0390
29525SOL    HW192491   8.078   2.083   1.230 -0.0358 -0.6167 -0.2178
29525SOL    HW292492   8.027   2.050   1.091 -0.9743  0.1987 -0.0781
29526SOL     OW92493   3.892   3.036   8.097 -0.2949  0.1502 -0.0518
29526SOL    HW192494   3.880   3.027   8.003 -0.7335 -0.4459  0.0605
29526SOL    HW292495   3.803   3.041   8.133 -0.1355  0.1760  0.3497
29527SOL     OW92496   6.829   0.245   8.155 -0.2397 -0.3405 -0.0540
29527SOL    HW192497   6.825   0.153   8.181 -1.7692  0.3554  2.5146
29527SOL    HW292498   6.747   0.261   8.110  1.1171 -0.7664 -2.9175
29528SOL     OW92499   5.842   1.795   9.317  0.0976 -0.4356  0.2043
29528SOL    HW192500   5.829   1.836   9.232  2.8273 -2.5976 -1.4053
29528SOL    HW292501   5.796   1.712   9.311  1.0893 -1.0166  0.4531
29529SOL     OW92502   7.319   3.651   6.972  0.3673 -0.0470 -0.1378
29529SOL    HW192503   7.289   3.577   7.025  0.4674  0.6574  0.9317
29529SOL    HW292504   7.396   3.684   7.018  0.9282  0.1021 -1.1568
29530SOL     OW92505   0.319   6.427  10.006  0.1213 -0.4657  0.0038
29530SOL    HW192506   0.302   6.409  10.099 -1.5753  1.8947  0.2356
29530SOL    HW292507   0.269   6.358   9.960 -0.6231 -0.5153  0.8440
29531SOL     OW92508   2.898   4.684   2.275 -0.0577  0.3285 -0.1734
29531SOL    HW192509   2.976   4.706   2.224  0.2377 -1.1978 -0.4211
29531SOL    HW292510   2.927   4.687   2.366  0.1308  0.3607 -0.2343
29532SOL     OW92511   3.523   3.492   1.422  0.2471  0.8541 -0.3563
29532SOL    HW192512   3.455   3.559   1.415 -1.5852 -0.8474  0.2648
29532SOL    HW292513   3.476   3.409   1.419  2.7089 -0.9115 -6.7255
29533SOL     OW92514   4.626   3.326   1.928  0.4253 -0.0207  0.0680
29533SOL    HW192515   4.598   3.410   1.893  0.0797 -0.3537 -0.4565
29533SOL    HW292516   4.719   3.320   1.905  0.6138  0.4982  0.6658
29534SOL     OW92517   4.447   1.488   4.131 -0.4815  0.1595 -0.2666
29534SOL    HW192518   4.534   1.468   4.097 -0.6028 -0.1297 -0.4183
29534SOL    HW292519   4.389   1.427   4.085 -0.7418  0.2397 -0.0513
29535SOL     OW92520   5.837   1.255   9.768  0.0742 -0.1322  0.2425
29535SOL    HW192521   5.770   1.225   9.829  1.5975  0.1852  2.1560
29535SOL    HW292522   5.915   1.204   9.791  0.8593  0.4384 -1.0424
29536SOL     OW92523   9.081  10.021   4.517  0.0335  0.3827 -0.4310
29536SOL    HW192524   9.154  10.061   4.468  0.5140  0.0000 -0.0378
29536SOL    HW292525   9.051  10.092   4.574 -0.0002  0.5874 -0.6986
29537SOL     OW92526   0.215   4.524   4.222  0.2836 -0.0230  0.2349
29537SOL    HW192527   0.145   4.473   4.262  1.4231 -0.8829  1.2378
29537SOL    HW292528   0.270   4.551   4.295  0.4795  1.4701 -0.4298
29538SOL     OW92529   6.725   1.367   9.561 -0.0209 -0.1212  0.2878
29538SOL    HW192530   6.759   1.456   9.552  0.3074 -0.1932  0.7684
29538SOL    HW292531   6.804   1.312   9.566 -0.1350 -0.1578  2.7929
29539SOL     OW92532   0.799   4.479   7.293 -0.6277 -0.1238 -0.1016
29539SOL    HW192533   0.886   4.517   7.309 -0.8944 -0.1210  1.4930
29539SOL    HW292534   0.804   4.445   7.204  1.0037 -0.1070 -0.0456
29540SOL     OW92535   3.990   7.557   7.451  0.1976 -0.2009 -0.4915
29540SOL    HW192536   3.927   7.485   7.452 -0.1159  0.0607  1.3941
29540SOL    HW292537   3.975   7.603   7.533 -0.3681  2.7047 -2.1114
29541SOL     OW92538   4.270   9.933   1.030  0.2825  0.4970 -0.2106
29541SOL    HW192539   4.204   9.997   1.004 -2.2363 -1.1786  1.6788
29541SOL    HW292540   4.268   9.867   0.960 -0.0590  0.4393 -0.1461
29542SOL     OW92541   8.740   3.583   6.966  0.2820  0.4133  0.2150
29542SOL    HW192542   8.692   3.652   7.013 -1.1243 -0.9310  0.8298
29542SOL    HW292543   8.745   3.511   7.028  0.2201 -0.6567 -0.9834
29543SOL     OW92544  10.114   6.692   3.480  0.5566 -0.1480  0.3971
29543SOL    HW192545  10.190   6.736   3.518  1.2447 -0.3893 -0.6458
29543SOL    HW292546  10.151   6.633   3.414 -0.5656  0.0695 -0.4661
29544SOL     OW92547   3.486   1.870   5.884 -0.7563  0.1011 -0.5960
29544SOL    HW192548   3.575   1.906   5.876 -0.8044  0.3400 -0.1327
29544SOL    HW292549   3.499   1.778   5.904 -0.6319 -0.2100 -2.0267
29545SOL     OW92550  10.149   9.323  10.068 -0.0809  0.8240  0.4842
29545SOL    HW192551  10.059   9.293  10.056 -0.1062  0.4264  1.5965
29545SOL    HW292552  10.202   9.253  10.029 -0.2084  0.2888  1.2579
29546SOL     OW92553   4.733   4.993   0.014  0.5194  0.1519 -0.1186
29546SOL    HW192554   4.712   4.903  -0.014 -1.3448  0.4072  0.2882
29546SOL    HW292555   4.790   5.026  -0.055 -0.2020 -0.7707 -1.2038
29547SOL     OW92556   0.129   8.480   8.816 -0.1374 -0.5379 -0.0124
29547SOL    HW192557   0.100   8.562   8.855  0.7806 -0.3668  0.3403
29547SOL    HW292558   0.210   8.502   8.769 -0.5382 -0.9973 -0.9471
29548SOL     OW92559   3.314   4.367   8.268 -0.1137  0.2035 -0.0921
29548SOL    HW192560   3.377   4.296   8.252 -0.5344  0.0536 -1.2014
29548SOL    HW292561   3.368   4.446   8.269  0.4226 -0.1478  1.6102
29549SOL     OW92562   1.913   4.955   4.923 -0.1672  0.1739  0.1093
29549SOL    HW192563   1.932   4.919   5.009 -1.6672  0.0892  0.4404
29549SOL    HW292564   1.946   4.890   4.861 -1.0710 -0.8634  0.6686
29550SOL     OW92565   2.898   8.353   3.445  0.0168 -0.4399  0.0064
29550SOL    HW192566   2.809   8.319   3.457 -0.6437  1.3944  0.5101
29550SOL    HW292567   2.954   8.280   3.473 -1.2831 -1.7506 -0.6141
29551SOL     OW92568   7.413   1.532   1.917 -0.0886 -0.3083 -0.5105
29551SOL    HW192569   7.422   1.456   1.974 -0.9045  1.4107  2.1036
29551SOL    HW292570   7.493   1.583   1.932 -0.2353  0.0915 -1.0500
29552SOL     OW92571   0.891   0.726   3.277 -0.0282  0.2712 -0.2048
29552SOL    HW192572   0.812   0.673   3.284  0.1313 -0.0361 -0.6790
29552SOL    HW292573   0.859   0.814   3.257 -0.2265 -0.0474 -1.3660
29553SOL     OW92574   7.238   2.471   0.425  0.4139  0.1488 -0.5996
29553SOL    HW192575   7.152   2.451   0.390  0.1883 -0.3961  0.2473
29553SOL    HW292576   7.225   2.548   0.480  0.3723 -0.1986 -0.1148
29554SOL     OW92577   6.872   4.640   3.259 -0.2359 -0.1178  0.2548
29554SOL    HW192578   6.904   4.729   3.240 -0.2307 -0.1874 -0.0624
29554SOL    HW292579   6.950   4.593   3.288 -0.0613 -0.2697 -0.4558
29555SOL     OW92580   5.485   2.318   7.056  0.7404  0.0976 -0.1232
29555SOL    HW192581   5.459   2.279   6.973  1.3862  1.7987 -1.1867
29555SOL    HW292582   5.519   2.245   7.108  0.1888 -1.0198 -1.2912
29556SOL     OW92583   9.376   2.799   7.477 -0.3970 -0.0646 -0.2292
29556SOL    HW192584   9.400   2.732   7.540  2.0906 -0.5320 -1.5381
29556SOL    HW292585   9.329   2.752   7.408  2.4639 -0.8696 -1.7916
29557SOL     OW92586   3.788   3.997   0.632 -0.3825 -0.3859  0.2273
29557SOL    HW192587   3.740   4.077   0.651 -1.2995 -1.4279  2.7646
29557SOL    HW292588   3.724   3.940   0.590 -0.4804 -0.6572  0.7324
29558SOL     OW92589   0.447   5.615   0.169  0.3643 -0.1217  0.1586
29558SOL    HW192590   0.482   5.661   0.245  2.3023 -0.9826 -0.1469
29558SOL    HW292591   0.409   5.535   0.204  1.0564 -0.4100  0.2752
29559SOL     OW92592   8.994   2.728   8.656 -0.4912 -0.2625  0.1965
29559SOL    HW192593   9.000   2.665   8.727 -1.8421 -0.6506 -0.0018
29559SOL    HW292594   8.912   2.775   8.672  1.3277  2.7620  1.3669
29560SOL     OW92595   2.585   2.547   7.469 -0.0120  0.2903 -0.0913
29560SOL    HW192596   2.668   2.519   7.507  1.5133  2.2965 -1.7003
29560SOL    HW292597   2.581   2.502   7.384  0.6035  1.9131 -1.0201
29561SOL     OW92598   7.451   1.533   2.367  0.0544  0.0420  0.4043
29561SOL    HW192599   7.422   1.568   2.452 -2.2064 -0.4988 -0.0679
29561SOL    HW292600   7.524   1.590   2.342 -1.0000  1.9837  1.4390
29562SOL     OW92601   0.034   8.043   4.249  0.1740 -0.4898  0.5542
29562SOL    HW192602   0.111   7.992   4.222 -0.3921 -1.6895  1.1612
29562SOL    HW292603   0.028   8.029   4.343 -1.8701 -1.9462  0.2539
29563SOL     OW92604   8.759   0.099   5.120  0.1957  0.2776 -0.1386
29563SOL    HW192605   8.729   0.100   5.029 -1.5205 -0.2541  0.3847
29563SOL    HW292606   8.827   0.031   5.122  0.7579  0.7892 -1.1536
29564SOL     OW92607   6.226  10.116   5.717  0.1890  0.0910 -0.2690
29564SOL    HW192608   6.227  10.179   5.646 -0.0590  1.2328  0.6965
29564SOL    HW292609   6.301  10.140   5.772  0.3787 -0.7617 -0.1441
29565SOL     OW92610   7.414   6.153   6.767 -0.0235  0.2660 -0.6700
29565SOL    HW192611   7.426   6.211   6.693  0.5729  2.1513  0.8230
29565SOL    HW292612   7.493   6.100   6.770  0.2052  0.5895 -1.0404
29566SOL     OW92613   2.578   5.260   2.280  0.1974 -0.3644 -0.0862
29566SOL    HW192614   2.614   5.283   2.366  1.2832 -1.3689 -0.2398
29566SOL    HW292615   2.612   5.327   2.221  0.6175 -0.4631  0.0348
29567SOL     OW92616   0.699   0.748   5.179  0.0799 -0.1455 -0.2857
29567SOL    HW192617   0.765   0.706   5.123 -0.3839  1.5797 -2.2129
29567SOL    HW292618   0.630   0.775   5.119 -1.5438 -0.2581  1.4590
29568SOL     OW92619   4.747   4.023   2.760  0.0978  0.0694  0.4807
29568SOL    HW192620   4.752   3.932   2.731  2.0072  0.5325 -0.8103
29568SOL    HW292621   4.832   4.041   2.799  0.2718  1.6709 -0.5242
29569SOL     OW92622   8.855   5.286   3.567  0.2589 -0.5473  0.2451
29569SOL    HW192623   8.921   5.266   3.501  0.3157  0.9069 -0.1752
29569SOL    HW292624   8.813   5.366   3.535 -0.3041 -0.3069  1.5373
29570SOL     OW92625   5.648   9.323   4.798 -0.5587  0.3062 -0.1169
29570SOL    HW192626   5.712   9.261   4.834  0.0052  1.2413  0.5653
29570SOL    HW292627   5.575   9.269   4.770  0.5266 -0.8010 -0.9129
29571SOL     OW92628   5.644   2.846   9.718 -0.0805  0.0102 -0.2228
29571SOL    HW192629   5.666   2.822   9.628  0.5380  2.4268 -0.7986
29571SOL    HW292630   5.684   2.932   9.730 -1.6712  0.5545  1.7697
29572SOL     OW92631   9.852   7.043   5.788  0.5672  0.8206 -0.2063
29572SOL    HW192632   9.916   7.014   5.853 -0.0519  0.5922  0.3151
29572SOL    HW292633   9.773   7.061   5.839 -0.3759 -0.6958 -1.0534
29573SOL     OW92634   9.210   9.231   6.047  0.1647  0.0940  0.0983
29573SOL    HW192635   9.157   9.152   6.055 -1.1475  0.8961 -0.3234
29573SOL    HW292636   9.168   9.294   6.106  2.1039  0.0545  1.6473
29574SOL     OW92637   3.918   8.329   2.063 -0.0652  0.1735 -0.2111
29574SOL    HW192638   3.916   8.403   2.001 -2.2529 -0.9255 -1.5499
29574SOL    HW292639   4.011   8.305   2.068  0.2856  0.8853 -2.3712
29575SOL     OW92640   3.696   9.906   6.090  0.5904  0.0479  0.3316
29575SOL    HW192641   3.640   9.831   6.068 -0.1847  0.3782  1.1233
29575SOL    HW292642   3.769   9.868   6.138 -0.4380 -0.1021  1.8573
29576SOL     OW92643   9.259   2.808   2.174 -0.2308  0.5706 -0.6021
29576SOL    HW192644   9.268   2.877   2.108  0.9855 -0.5355 -1.6528
29576SOL    HW292645   9.184   2.757   2.146 -0.7936  1.1150 -0.1269
29577SOL     OW92646   6.976   9.934   4.986 -0.1080  0.0021  0.6707
29577SOL    HW192647   7.016   9.849   4.970 -1.3858 -0.3144 -1.1908
29577SOL    HW292648   6.886   9.915   5.012 -0.1003  0.7566  1.2891
29578SOL     OW92649   9.376   2.180   0.740 -0.0495 -0.0718  0.6325
29578SOL    HW192650   9.396   2.234   0.817  0.3520  1.0028 -0.1979
29578SOL    HW292651   9.319   2.111   0.773  0.5943  0.0222  2.0097
29579SOL     OW92652   9.309   6.549   7.170  0.4117  0.8035 -0.2801
29579SOL    HW192653   9.341   6.638   7.158 -1.2922  1.7168  1.3888
29579SOL    HW292654   9.302   6.538   7.264 -1.7649 -0.1516 -0.4746
29580SOL     OW92655   7.671   0.593   4.809  0.1811  0.7191 -0.2074
29580SOL    HW192656   7.711   0.612   4.893  1.4666  1.3649 -0.9433
29580SOL    HW292657   7.712   0.512   4.780 -1.1170 -0.1584  0.2915
29581SOL     OW92658   1.284   4.815   3.777 -0.1396 -0.9348 -0.3691
29581SOL    HW192659   1.229   4.866   3.836  0.7026  0.0105 -0.3602
29581SOL    HW292660   1.269   4.854   3.691  0.8947 -0.3011 -0.2824
29582SOL     OW92661   9.801   3.177   7.950 -0.1810  0.4492  0.6231
29582SOL    HW192662   9.751   3.135   8.020  0.5293  1.1876  1.6028
29582SOL    HW292663   9.891   3.180   7.982  0.2104  0.5835 -0.4304
29583SOL     OW92664   0.075   0.363   5.685 -0.4648  0.2541 -0.2376
29583SOL    HW192665   0.112   0.451   5.692  2.0168 -0.2647 -3.9504
29583SOL    HW292666   0.127   0.309   5.745  0.0945  0.7954 -0.2337
29584SOL     OW92667   6.792   1.587   2.100  0.6260 -0.0166 -0.6085
29584SOL    HW192668   6.847   1.510   2.115  0.6905  0.0179 -0.6691
29584SOL    HW292669   6.702   1.554   2.107  0.6468 -0.2021 -1.1440
29585SOL     OW92670   8.348   8.874   7.934 -0.2018  0.3879 -0.5990
29585SOL    HW192671   8.355   8.836   7.847 -1.2469 -1.5731  0.1017
29585SOL    HW292672   8.255   8.894   7.945 -0.5776 -1.7520  0.8980
29586SOL     OW92673   6.737   6.060   5.932 -0.2287 -0.1261 -0.0600
29586SOL    HW192674   6.664   6.116   5.958  1.1149  1.5752  0.2394
29586SOL    HW292675   6.810   6.120   5.919  1.0890 -1.7450 -0.5450
29587SOL     OW92676   5.993   3.610   3.689  0.5113 -0.0480  0.4228
29587SOL    HW192677   5.974   3.702   3.711 -0.2031 -0.4955  1.8362
29587SOL    HW292678   5.945   3.595   3.608 -1.1035  0.2787  1.2727
29588SOL     OW92679   7.350   8.313   9.930  0.4237 -0.3234  0.0300
29588SOL    HW192680   7.295   8.391   9.924 -0.2985 -0.8332 -0.0690
29588SOL    HW292681   7.371   8.291   9.839  2.9645  1.3450  0.1012
29589SOL     OW92682   1.824   7.693   7.211 -0.0264  0.2938 -0.3897
29589SOL    HW192683   1.731   7.689   7.189  0.0770 -2.3731 -0.6561
29589SOL    HW292684   1.834   7.632   7.285  1.8073 -1.2323 -1.7861
29590SOL     OW92685   7.276   6.190   0.913 -0.0290  0.2364 -0.2806
29590SOL    HW192686   7.331   6.118   0.884 -1.1124 -0.6526 -0.2005
29590SOL    HW292687   7.268   6.247   0.837 -1.3106 -1.1117 -1.2029
29591SOL     OW92688   8.496   4.109   2.023  0.7117 -0.3315  0.0025
29591SOL    HW192689   8.528   4.123   2.112 -0.6243 -1.4129  0.6867
29591SOL    HW292690   8.531   4.183   1.973  2.5968 -0.4177  1.1082
29592SOL     OW92691   8.476   0.096  10.039  0.1143  0.3746 -0.0571
29592SOL    HW192692   8.546   0.049  10.084  0.4112  0.1793 -0.7080
29592SOL    HW292693   8.435   0.149  10.107  0.1879 -0.3435  0.5537
29593SOL     OW92694   1.220   0.903   6.722  0.4838 -0.6222 -0.1216
29593SOL    HW192695   1.181   0.953   6.794  1.7254 -0.1017  0.2056
29593SOL    HW292696   1.193   0.812   6.739  1.2107 -0.5941  1.3213
29594SOL     OW92697   7.264   7.953   7.291  0.2352  0.1849  0.0426
29594SOL    HW192698   7.267   7.889   7.220 -1.3991 -0.9362  0.9179
29594SOL    HW292699   7.173   7.951   7.321 -0.1921  3.6930 -0.5521
29595SOL     OW92700   9.407   1.217   3.597 -0.1924  0.6437 -0.3532
29595SOL    HW192701   9.458   1.137   3.584 -0.1906  0.3417  1.2700
29595SOL    HW292702   9.428   1.245   3.686 -2.4471  0.7767  0.2107
29596SOL     OW92703   0.758   9.995   5.041 -0.1179  0.1880  0.0068
29596SOL    HW192704   0.783  10.034   5.125 -0.4498  2.5891 -0.9480
29596SOL    HW292705   0.823  10.028   4.979 -1.0582  0.0889 -1.0566
29597SOL     OW92706   6.730   0.815   4.108 -0.3154 -0.1894  1.0555
29597SOL    HW192707   6.638   0.820   4.135 -0.6235 -0.1114  0.0394
29597SOL    HW292708   6.768   0.747   4.163 -1.4524 -1.5553  0.2258
29598SOL     OW92709   6.925   7.769   2.985  0.1405  0.2709  0.5807
29598SOL    HW192710   6.837   7.755   2.950  1.0592  1.6237 -2.6063
29598SOL    HW292711   6.957   7.681   3.004 -1.6367 -0.2922  1.2084
29599SOL     OW92712   6.428   4.011   9.272 -0.1683  0.2070 -0.3799
29599SOL    HW192713   6.480   3.963   9.207 -1.6131 -1.2398 -0.5337
29599SOL    HW292714   6.468   4.098   9.275 -0.6573  0.7337 -4.0038
29600SOL     OW92715   7.616   0.033   6.380 -0.0864 -0.3381 -0.2476
29600SOL    HW192716   7.551   0.084   6.430 -0.4127  0.1396 -1.1373
29600SOL    HW292717   7.566  -0.007   6.309  0.6693  0.4733 -1.2664
29601SOL     OW92718   2.301   3.171   1.545 -0.4020 -0.4229 -0.4013
29601SOL    HW192719   2.382   3.220   1.556 -0.7596  0.2034 -0.4910
29601SOL    HW292720   2.327   3.079   1.548  0.1000 -0.2612  1.2617
29602SOL     OW92721   4.234   9.682   1.981 -0.5127  0.2897 -0.2778
29602SOL    HW192722   4.303   9.655   1.920 -1.3123 -0.4865 -0.8532
29602SOL    HW292723   4.235   9.777   1.978  1.3136  0.3482  0.6082
29603SOL     OW92724   0.831   5.182   8.367 -0.4968  0.0057  0.0949
29603SOL    HW192725   0.812   5.211   8.278 -1.1090 -0.4427  0.0699
29603SOL    HW292726   0.779   5.102   8.377  1.5315 -1.3914 -0.0269
29604SOL     OW92727   8.150   2.394   1.525  0.1596 -0.7477 -0.1408
29604SOL    HW192728   8.230   2.445   1.539 -0.2283  0.0874 -0.8409
29604SOL    HW292729   8.092   2.454   1.478 -1.1733 -1.0732  1.0176
29605SOL     OW92730   8.536   5.910   7.557 -0.2237 -0.0798  0.2628
29605SOL    HW192731   8.466   5.955   7.509 -0.5136  0.0182  0.7734
29605SOL    HW292732   8.562   5.972   7.625 -0.7072 -0.7165  1.0493
29606SOL     OW92733   4.820   4.565   6.324 -0.0696  0.0845  0.7713
29606SOL    HW192734   4.776   4.560   6.239 -0.4810 -0.4661  1.0124
29606SOL    HW292735   4.749   4.556   6.388  0.4743 -1.7021  1.1716
29607SOL     OW92736   2.534   7.206   8.757  0.2174 -0.1399 -0.6745
29607SOL    HW192737   2.531   7.111   8.770  0.7512 -0.3136 -1.7094
29607SOL    HW292738   2.445   7.236   8.774 -0.1938 -0.9685 -1.3263
29608SOL     OW92739   9.669   3.104   2.793 -0.1919 -0.3947 -0.2161
29608SOL    HW192740   9.677   3.013   2.762 -0.1523 -0.6529  0.5441
29608SOL    HW292741   9.594   3.102   2.853  1.4026 -0.5076  1.8580
29609SOL     OW92742   7.049   3.281   0.103  0.0133 -0.8027  0.5797
29609SOL    HW192743   7.048   3.201   0.156  1.0642 -0.7330  0.7198
29609SOL    HW292744   7.025   3.252   0.015 -1.1789 -1.0107  0.9522
29610SOL     OW92745   6.729   0.364   7.054 -0.1406  0.1564  0.0714
29610SOL    HW192746   6.683   0.447   7.066 -1.1415  0.0208 -2.3089
29610SOL    HW292747   6.662   0.297   7.066 -1.2982 -0.0085 -5.1353
29611SOL     OW92748   2.866   2.246   7.252  0.1516 -0.3401  0.1453
29611SOL    HW192749   2.805   2.232   7.325 -1.3936 -0.8436 -1.1952
29611SOL    HW292750   2.917   2.322   7.279  0.0673 -0.8983  2.0366
29612SOL     OW92751   4.620   3.744   2.365  0.1398 -0.6211 -0.3110
29612SOL    HW192752   4.610   3.715   2.274 -0.0104 -0.1850 -0.4360
29612SOL    HW292753   4.532   3.742   2.400  0.2096 -0.8652 -0.1519
29613SOL     OW92754   2.045   4.642   5.427  0.1110  0.3229  0.2913
29613SOL    HW192755   2.013   4.729   5.450  1.1213  0.4250  1.4467
29613SOL    HW292756   2.086   4.610   5.508  2.0335 -0.1637 -0.8256
29614SOL     OW92757   8.277   6.651   5.184 -0.5125  0.4150 -0.0539
29614SOL    HW192758   8.217   6.596   5.134  1.9243 -0.5093 -2.2022
29614SOL    HW292759   8.304   6.596   5.258  0.2470 -0.5278 -0.9925
29615SOL     OW92760   7.820   6.145   0.200 -0.1960  0.5170 -0.2493
29615SOL    HW192761   7.915   6.146   0.189 -0.1412 -0.8644 -0.1434
29615SOL    HW292762   7.788   6.095   0.124 -0.6927 -0.3173  0.4927
29616SOL     OW92763   5.963   4.988   4.338 -0.3705  0.0235 -0.0263
29616SOL    HW192764   6.007   4.965   4.256  0.7333 -1.2300  0.8845
29616SOL    HW292765   5.877   4.948   4.331 -1.5177  2.5083 -1.8311
29617SOL     OW92766   4.806   8.155   1.599 -0.0193 -0.0999  0.1802
29617SOL    HW192767   4.842   8.209   1.670 -0.1623  0.7590 -0.3928
29617SOL    HW292768   4.754   8.089   1.644  0.9050 -0.3451  0.9391
29618SOL     OW92769   5.962   9.996   7.736 -0.0753 -0.0012 -0.3988
29618SOL    HW192770   5.889  10.052   7.763 -0.3143 -0.2192 -0.5923
29618SOL    HW292771   6.008   9.975   7.818  0.3034  0.8766 -0.3754
29619SOL     OW92772   2.111   5.047   6.858  0.3085 -0.1429  0.1963
29619SOL    HW192773   2.192   5.095   6.876  0.5437 -1.1799  2.1225
29619SOL    HW292774   2.047   5.085   6.918 -0.6163  0.5282 -1.1690
29620SOL     OW92775   6.013   2.556   1.356  0.0012  0.4575 -0.2386
29620SOL    HW192776   6.077   2.608   1.404  1.9011 -0.9860 -1.0603
29620SOL    HW292777   6.066   2.504   1.295 -1.7816 -2.1290  0.2714
29621SOL     OW92778   4.669   3.794   0.861 -0.5222 -0.0536  0.0925
29621SOL    HW192779   4.622   3.853   0.803 -0.0544  1.7460  1.4212
29621SOL    HW292780   4.677   3.844   0.943  0.3368 -1.8008  1.1204
29622SOL     OW92781   5.016   4.608   4.204  0.6817  0.1479  0.1265
29622SOL    HW192782   5.041   4.524   4.241 -0.7831  0.0372  0.9350
29622SOL    HW292783   4.939   4.635   4.254 -0.2767  0.8682 -1.6195
29623SOL     OW92784   3.115   5.629   9.829 -0.0427  0.4019  0.0392
29623SOL    HW192785   3.143   5.721   9.822  0.9603  0.1574  0.6506
29623SOL    HW292786   3.023   5.630   9.802  1.0595  0.8731 -4.3899
29624SOL     OW92787   7.241   7.033   3.525  0.3106  0.3678 -0.0798
29624SOL    HW192788   7.247   7.125   3.500 -1.1942  0.6757  0.5533
29624SOL    HW292789   7.297   7.025   3.602 -0.1294  0.9390  0.3077
29625SOL     OW92790   3.788   8.937   2.778  0.0078 -0.0711  0.0963
29625SOL    HW192791   3.723   8.956   2.711  0.7629 -0.4243 -0.7583
29625SOL    HW292792   3.872   8.957   2.736  0.5641 -1.3085  0.5614
29626SOL     OW92793   4.144   4.040   5.813  0.7876 -0.4133  0.1648
29626SOL    HW192794   4.079   4.060   5.745  1.0856  0.4935  0.1346
29626SOL    HW292795   4.173   4.126   5.845  1.1798 -0.8213  0.9372
29627SOL     OW92796   5.382   3.985   4.136  0.0825 -0.1236 -0.3022
29627SOL    HW192797   5.295   3.945   4.139 -0.6399  1.4364  1.2050
29627SOL    HW292798   5.370   4.066   4.088  0.2589  1.0136  1.5012
29628SOL     OW92799  10.161   1.773   6.450 -0.7358 -0.3968 -0.2082
29628SOL    HW192800  10.179   1.819   6.368  0.0741 -0.1438  0.1051
29628SOL    HW292801  10.120   1.691   6.422 -1.4243  0.1352 -0.8123
29629SOL     OW92802   7.137   3.694   8.092  0.3946 -0.2608  0.0851
29629SOL    HW192803   7.230   3.696   8.115  0.3489  0.4468  0.2441
29629SOL    HW292804   7.099   3.768   8.139 -0.4309 -1.0785  0.7355
29630SOL     OW92805   5.012   9.416   7.445  0.3662  0.1319  0.1121
29630SOL    HW192806   4.950   9.455   7.507 -0.4058  1.1900 -1.2524
29630SOL    HW292807   5.093   9.466   7.457 -0.1063  1.0688 -0.4413
29631SOL     OW92808   5.588   0.831   5.377 -0.3492 -0.5870  0.0633
29631SOL    HW192809   5.581   0.744   5.338  0.8189 -0.3299 -0.7596
29631SOL    HW292810   5.575   0.892   5.304  0.7727 -0.0931  0.2546
29632SOL     OW92811   0.268   8.464   7.943  0.3793  0.0028 -0.2529
29632SOL    HW192812   0.224   8.512   7.872  0.2711 -0.4145 -0.4722
29632SOL    HW292813   0.331   8.526   7.979 -2.4355  1.7654  2.1006
29633SOL     OW92814   8.799   6.477   2.373 -0.5743 -0.0127 -0.0494
29633SOL    HW192815   8.789   6.534   2.448 -2.3896 -0.0348 -0.2406
29633SOL    HW292816   8.854   6.405   2.405  0.5624  1.1003  0.5811
29634SOL     OW92817   9.938   2.548   3.864  0.6181 -0.2720  0.2307
29634SOL    HW192818   9.922   2.641   3.851 -0.2323 -0.3823  0.3949
29634SOL    HW292819   9.851   2.507   3.858  0.8815 -0.9643  0.8417
29635SOL     OW92820   4.874   1.283   7.718  0.3963 -0.1579 -0.4521
29635SOL    HW192821   4.896   1.357   7.661  2.8572 -1.4188 -1.2989
29635SOL    HW292822   4.899   1.312   7.805  1.6650 -0.0457 -0.8261
29636SOL     OW92823   5.881   0.971   5.752 -0.1299  0.5998  0.2825
29636SOL    HW192824   5.947   1.032   5.784  0.8295  0.3871 -1.2111
29636SOL    HW292825   5.807   0.982   5.812  0.1298  2.9944  0.2467
29637SOL     OW92826   0.767   7.877   5.349  0.1164 -0.2887  0.0601
29637SOL    HW192827   0.678   7.860   5.319  0.1938 -0.5464 -0.0217
29637SOL    HW292828   0.802   7.939   5.284  0.1638 -0.5699 -0.1860
29638SOL     OW92829   1.658   0.395   5.862 -0.0407 -0.2983  0.1413
29638SOL    HW192830   1.591   0.463   5.853  0.5032  0.6040  2.2685
29638SOL    HW292831   1.740   0.443   5.869  0.8032 -1.3622 -1.6978
29639SOL     OW92832   5.772   2.485   0.909  0.2791 -0.1604  0.1140
29639SOL    HW192833   5.844   2.432   0.874 -0.3013 -1.6830  1.1419
29639SOL    HW292834   5.736   2.529   0.832 -0.3379 -2.6698 -1.1350
29640SOL     OW92835   6.331   9.720   7.688  0.0121  0.4396  0.0593
29640SOL    HW192836   6.247   9.736   7.643  0.0553 -0.6928 -0.4502
29640SOL    HW292837   6.332   9.626   7.705  1.6513  0.2466 -0.9164
29641SOL     OW92838   5.826   3.460   7.962  0.5095 -0.0572 -0.5552
29641SOL    HW192839   5.783   3.503   8.035  3.1478 -1.4588  2.0728
29641SOL    HW292840   5.771   3.384   7.943  0.4653 -0.4894  1.0824
29642SOL     OW92841   6.630   2.008   0.958 -0.2591  0.0275  0.1803
29642SOL    HW192842   6.658   1.947   0.890  1.2598 -0.9792  1.6299
29642SOL    HW292843   6.570   1.957   1.012  0.1197  0.1786  0.7488
29643SOL     OW92844   3.423   2.246   5.700 -0.6250  0.3225 -0.5367
29643SOL    HW192845   3.428   2.231   5.794 -0.5925  0.2061 -0.5569
29643SOL    HW292846   3.471   2.328   5.686  1.5571 -0.9206 -0.7596
29644SOL     OW92847   3.980   3.440   2.649  0.5266 -0.1385 -0.3060
29644SOL    HW192848   3.999   3.391   2.730  2.1167  1.2908  0.2272
29644SOL    HW292849   3.961   3.529   2.679  0.1192  0.1762 -1.4553
29645SOL     OW92850   3.879   7.554   6.715  0.1106 -0.4411  0.0445
29645SOL    HW192851   3.841   7.486   6.659 -2.2123 -0.9498  2.0771
29645SOL    HW292852   3.804   7.599   6.752  1.5991  1.4971  0.8447
29646SOL     OW92853   2.486   9.957   0.158 -0.2141 -0.1422  0.0519
29646SOL    HW192854   2.414   9.985   0.102  0.4299  0.3112 -0.5642
29646SOL    HW292855   2.476  10.009   0.237 -1.6421 -1.4045  0.7558
29647SOL     OW92856   5.881   6.786   1.225  0.2311 -0.3972  0.8320
29647SOL    HW192857   5.831   6.833   1.292 -1.4250  0.7764 -1.1123
29647SOL    HW292858   5.959   6.755   1.271 -0.3425  1.1983  3.0617
29648SOL     OW92859   2.858   9.506   3.603  0.6136  1.2087 -0.1689
29648SOL    HW192860   2.851   9.511   3.508 -0.3527 -0.8645 -0.2805
29648SOL    HW292861   2.890   9.592   3.630  0.4820  1.9916 -2.3144
29649SOL     OW92862   8.937   7.450   1.604  0.3539  0.7628 -0.5852
29649SOL    HW192863   8.968   7.363   1.583  3.4051  1.6084 -0.0119
29649SOL    HW292864   9.006   7.509   1.574 -2.2389  3.2109 -2.3891
29650SOL     OW92865   6.035   7.997   2.763 -0.1724  0.2995  0.4622
29650SOL    HW192866   5.949   7.997   2.721 -0.0119  0.3572  0.1258
29650SOL    HW292867   6.072   8.084   2.742 -0.3907  0.6112  1.3517
29651SOL     OW92868   7.496   2.917   5.929 -0.0628 -0.1888 -0.0213
29651SOL    HW192869   7.418   2.869   5.959  0.3709 -0.9639 -0.1116
29651SOL    HW292870   7.463   2.979   5.864 -0.7557  0.2406  0.7195
29652SOL     OW92871   6.118   2.732   6.693 -0.0237 -0.1718 -0.0100
29652SOL    HW192872   6.087   2.648   6.727  0.3170  0.2184  1.3272
29652SOL    HW292873   6.199   2.711   6.647 -0.8893 -0.8214 -1.3040
29653SOL     OW92874   3.968   3.526   5.997  0.1152  0.1082  0.4264
29653SOL    HW192875   3.980   3.434   6.021  1.5338  0.4081  0.9815
29653SOL    HW292876   4.049   3.550   5.953 -0.0996  1.1836  0.5917
29654SOL     OW92877   1.556   7.578   2.122  0.1418 -0.5183 -1.4574
29654SOL    HW192878   1.491   7.514   2.148  1.5770 -1.7391 -0.7186
29654SOL    HW292879   1.511   7.635   2.059 -1.7160 -1.0479 -0.6562
29655SOL     OW92880   3.202   9.121   9.454  0.0235  0.3104  0.0471
29655SOL    HW192881   3.164   9.185   9.514  0.5869  1.5556 -0.8833
29655SOL    HW292882   3.154   9.040   9.472  0.8372  0.3467  2.8701
29656SOL     OW92883   5.536   7.782   8.379  0.1929  0.2998 -1.0324
29656SOL    HW192884   5.577   7.744   8.302  0.1408 -1.5355 -0.2309
29656SOL    HW292885   5.442   7.771   8.364  0.0844  1.8043 -1.5760
29657SOL     OW92886   9.811   2.533   8.344 -0.0752  0.3659 -0.4005
29657SOL    HW192887   9.774   2.522   8.257  0.3024 -1.4838 -0.3751
29657SOL    HW292888   9.796   2.449   8.388  1.5593  0.5385  0.5883
29658SOL     OW92889   0.369   4.992   8.413  0.1627 -0.2092 -0.6653
29658SOL    HW192890   0.275   5.005   8.398  0.1524 -0.8864 -1.2290
29658SOL    HW292891   0.379   4.898   8.419  0.8104 -0.1389 -0.6256
29659SOL     OW92892   1.405   2.409   3.329 -0.0638 -0.3035  0.0204
29659SOL    HW192893   1.337   2.427   3.393 -0.1423 -0.4721 -0.0147
29659SOL    HW292894   1.487   2.416   3.378 -0.0892  0.1835 -0.0021
29660SOL     OW92895   4.867   1.847   6.647 -0.1702  0.0198 -0.0257
29660SOL    HW192896   4.792   1.810   6.695 -0.4763  0.4882 -0.1346
29660SOL    HW292897   4.929   1.871   6.716 -0.0047 -0.6142  0.0494
29661SOL     OW92898   9.393   0.295   7.865  0.0835  0.6609 -0.2551
29661SOL    HW192899   9.484   0.274   7.885  0.5435 -0.5749 -3.1193
29661SOL    HW292900   9.342   0.230   7.913  0.8830 -0.2226 -0.5692
29662SOL     OW92901   2.720   4.164   3.657 -0.1157  0.1757 -0.4416
29662SOL    HW192902   2.710   4.075   3.623 -1.3570  0.7709 -1.7075
29662SOL    HW292903   2.704   4.155   3.751 -0.6644 -0.8668 -0.6230
29663SOL     OW92904   8.396   3.999   9.034 -0.0898 -0.3193  0.2858
29663SOL    HW192905   8.383   4.044   9.118  1.9425 -0.3513  0.6588
29663SOL    HW292906   8.434   3.915   9.058  0.5006 -0.3344 -0.6607
29664SOL     OW92907   2.921   2.214   6.791  0.4318 -0.7008  0.1420
29664SOL    HW192908   2.846   2.162   6.761 -0.8232  1.4629 -0.6401
29664SOL    HW292909   2.987   2.204   6.722 -0.7056  0.5850 -1.1876
29665SOL     OW92910   9.881   4.613   2.796 -0.1166  0.4111  0.0288
29665SOL    HW192911   9.954   4.577   2.846 -0.5124 -0.7207 -0.1651
29665SOL    HW292912   9.833   4.667   2.859  0.0991  0.0352  0.5237
29666SOL     OW92913   8.928   1.708   5.799 -0.3523  0.0443  0.2632
29666SOL    HW192914   9.019   1.681   5.803 -0.2313  0.4658  0.3938
29666SOL    HW292915   8.878   1.628   5.816  0.0150  0.1100  1.7448
29667SOL     OW92916   9.531   1.667   7.241  0.0290  0.2702  0.2087
29667SOL    HW192917   9.468   1.707   7.301  1.0569  1.7023  0.3806
29667SOL    HW292918   9.611   1.657   7.293 -0.0662 -1.6868  0.0493
29668SOL     OW92919   0.282   4.588   7.583  0.2659 -0.9752  0.5770
29668SOL    HW192920   0.256   4.616   7.671 -0.5524 -1.3825  0.4704
29668SOL    HW292921   0.356   4.528   7.598 -0.0172 -1.2243  1.0042
29669SOL     OW92922  10.110   9.468   2.780 -0.2016  0.2816 -0.1901
29669SOL    HW192923  10.092   9.481   2.874 -1.0285  1.7730 -0.5094
29669SOL    HW292924  10.190   9.518   2.764  0.0628 -0.1569 -0.2360
29670SOL     OW92925   3.845   4.382   1.442  0.2522  0.2957 -0.1167
29670SOL    HW192926   3.757   4.352   1.418  0.0215  1.2855 -0.5847
29670SOL    HW292927   3.832   4.439   1.517  1.0758 -3.5247  3.2399
29671SOL     OW92928   4.047   3.724  10.186  0.0562 -0.3167 -0.2743
29671SOL    HW192929   4.108   3.652  10.171  1.8080  0.8011  1.0235
29671SOL    HW292930   4.030   3.721  10.280 -0.4944  0.4539 -0.3440
29672SOL     OW92931   6.747   8.146   0.416  0.1537 -0.5446  0.2315
29672SOL    HW192932   6.725   8.155   0.324  0.6407  2.9165  0.3074
29672SOL    HW292933   6.816   8.212   0.430  0.0807 -0.9554  3.0650
29673SOL     OW92934   0.430   9.438   8.383 -0.0242  0.4328  0.3902
29673SOL    HW192935   0.370   9.421   8.310  0.0848  1.2607  0.0924
29673SOL    HW292936   0.394   9.516   8.425  0.1133  0.1638  1.0074
29674SOL     OW92937   7.369   2.025   8.932 -0.0542  0.2872 -0.3082
29674SOL    HW192938   7.289   1.971   8.929 -0.1321  0.4086 -0.3895
29674SOL    HW292939   7.429   1.974   8.988 -0.6696  0.8312  0.8872
29675SOL     OW92940   2.322   7.441   1.347 -0.5857 -0.6236 -0.1158
29675SOL    HW192941   2.396   7.381   1.341  0.8134  0.8360  1.3708
29675SOL    HW292942   2.321   7.468   1.439 -0.8747  1.8939 -0.7875
29676SOL     OW92943   7.980   0.856   3.290 -0.2815 -0.2027  0.0807
29676SOL    HW192944   8.056   0.807   3.259  0.3674  0.3458  0.7613
29676SOL    HW292945   7.982   0.938   3.240 -0.2695 -0.0795  0.2791
29677SOL     OW92946   3.127   7.820   3.118  0.2566  0.1933  0.0651
29677SOL    HW192947   3.116   7.828   3.023 -0.1382  1.4372  0.2071
29677SOL    HW292948   3.113   7.908   3.152 -3.9091 -0.8723  1.7181
29678SOL     OW92949   4.693   7.060   8.462  0.3368 -0.2166  0.0339
29678SOL    HW192950   4.627   7.011   8.511  0.9985 -1.3151 -0.1454
29678SOL    HW292951   4.681   7.032   8.371 -0.8933  1.8153 -0.5031
29679SOL     OW92952   6.237   5.414   6.568  0.0874 -0.3239  0.3287
29679SOL    HW192953   6.271   5.453   6.649 -0.6827 -0.6745  0.8287
29679SOL    HW292954   6.145   5.397   6.587 -0.1856 -0.0711 -0.7543
29680SOL     OW92955   8.584   5.824   4.496  0.3704  1.0615  0.4787
29680SOL    HW192956   8.517   5.884   4.464  0.6752  1.5606  0.7723
29680SOL    HW292957   8.569   5.820   4.590 -1.6878 -1.8002  0.1674
29681SOL     OW92958   6.382   6.301   0.580  0.0644 -0.1876 -0.3376
29681SOL    HW192959   6.323   6.326   0.509 -0.2866 -2.6364 -0.9846
29681SOL    HW292960   6.417   6.216   0.554  1.6311 -0.1531  1.4214
29682SOL     OW92961   7.242   5.719   0.875 -0.6683 -0.1473  0.0941
29682SOL    HW192962   7.168   5.753   0.826 -0.2464  0.7135  0.0409
29682SOL    HW292963   7.277   5.649   0.820 -1.1858 -0.2856 -0.0675
29683SOL     OW92964  10.145   8.762   9.891 -0.1744 -0.1392  0.1613
29683SOL    HW192965  10.170   8.747   9.800 -0.0393 -0.3944  0.2382
29683SOL    HW292966  10.221   8.732   9.942 -0.0366  0.4976  0.3379
29684SOL     OW92967   3.506   2.622   4.956 -0.6233  0.7739 -0.3109
29684SOL    HW192968   3.417   2.657   4.963 -0.2758  1.6141  0.0283
29684SOL    HW292969   3.495   2.536   4.915 -1.5761  0.9240 -0.3877
29685SOL     OW92970   0.200   5.333   5.278 -0.3898 -0.0884  0.3217
29685SOL    HW192971   0.244   5.323   5.362 -1.0757  0.0039  0.6966
29685SOL    HW292972   0.248   5.275   5.219  0.4307  0.2484  0.6368
29686SOL     OW92973   4.048  10.000   5.054  0.0140  0.3614  0.0207
29686SOL    HW192974   3.958   9.969   5.063 -0.6594  2.1526 -0.1621
29686SOL    HW292975   4.088   9.940   4.991 -1.0809 -0.3895  0.0177
29687SOL     OW92976   4.861   5.117   3.103  0.4840  0.2311 -0.2409
29687SOL    HW192977   4.915   5.167   3.042 -0.9090  1.8085 -0.2735
29687SOL    HW292978   4.857   5.029   3.067  2.5441  0.2169 -0.5183
29688SOL     OW92979   0.866   9.032   9.604 -0.1653 -0.1888  0.0466
29688SOL    HW192980   0.874   8.943   9.638 -0.6464  0.1994  1.2296
29688SOL    HW292981   0.873   9.088   9.682  1.8953  0.9144 -0.8516
29689SOL     OW92982   2.802   1.661   2.055 -0.2978  0.4300 -0.6426
29689SOL    HW192983   2.845   1.576   2.066  1.3745  1.4468  1.5876
29689SOL    HW292984   2.720   1.654   2.103  0.9827  0.7570  1.7300
29690SOL     OW92985   7.131   9.057  10.142  0.0674  0.1346 -0.0235
29690SOL    HW192986   7.056   9.075  10.085  1.1758  0.2750 -1.5138
29690SOL    HW292987   7.111   9.102  10.223 -2.3852 -1.5046  0.3909
29691SOL     OW92988   2.978   2.168   1.793 -0.2780  0.2862  0.5357
29691SOL    HW192989   2.911   2.146   1.729 -1.4924  0.5256  1.7002
29691SOL    HW292990   2.986   2.263   1.788  1.1882  0.1544 -0.7368
29692SOL     OW92991   6.571   9.206   2.671 -0.6136  0.0353  0.1708
29692SOL    HW192992   6.559   9.114   2.649 -3.6042  0.4970 -0.4626
29692SOL    HW292993   6.528   9.217   2.756 -1.1240  1.0123 -0.1970
29693SOL     OW92994   9.843   6.055   6.428 -0.1182 -0.6884 -0.4407
29693SOL    HW192995   9.883   6.071   6.342 -1.5301  0.6300 -0.8964
29693SOL    HW292996   9.790   5.976   6.416 -2.0018  0.6597 -1.4450
29694SOL     OW92997   5.598   6.601   0.116  0.3429  0.0217  0.4502
29694SOL    HW192998   5.664   6.572   0.179  1.8867 -0.8948 -1.5213
29694SOL    HW292999   5.543   6.524   0.101 -1.4332  0.8328  2.2445
29695SOL     OW93000   2.688   5.718   4.650 -0.2489 -0.2267  0.6071
29695SOL    HW193001   2.644   5.668   4.719 -0.8627 -2.7674 -1.4626
29695SOL    HW293002   2.617   5.750   4.594  0.2479  1.6023  0.9644
29696SOL     OW93003   8.002   8.238   3.264 -0.2407 -0.3552 -0.0090
29696SOL    HW193004   8.048   8.295   3.326  1.9092  1.2660 -2.8725
29696SOL    HW293005   8.071   8.200   3.210 -1.9922 -1.6178 -1.4639
29697SOL     OW93006   9.876   0.958   1.292  0.3178 -0.0297 -0.3620
29697SOL    HW193007   9.870   0.978   1.386  1.4627 -0.6212 -0.1436
29697SOL    HW293008   9.957   0.910   1.283 -0.6471 -1.5522 -1.4001
29698SOL     OW93009   7.943   8.323   8.003 -0.5653  0.5099 -0.8328
29698SOL    HW193010   8.013   8.286   7.948 -2.0204 -3.1263 -0.5196
29698SOL    HW293011   7.891   8.376   7.943  0.5313  0.4709 -1.8583
29699SOL     OW93012   5.397   3.801   9.479 -0.1519  0.1704 -0.0199
29699SOL    HW193013   5.314   3.837   9.447  0.0478 -1.0201 -2.0750
29699SOL    HW293014   5.464   3.862   9.447 -0.0189 -0.6060 -1.3292
29700SOL     OW93015   9.446   3.727   0.268 -0.5617  0.3050  0.2834
29700SOL    HW193016   9.416   3.665   0.202  0.0349 -0.7416  0.9518
29700SOL    HW293017   9.367   3.751   0.316 -0.7193 -0.4680  0.4311
29701SOL     OW93018   5.311   9.732   6.000 -0.0583 -0.4819 -0.4832
29701SOL    HW193019   5.392   9.687   6.025 -0.0691 -0.2476 -0.0074
29701SOL    HW293020   5.279   9.684   5.924  0.6421 -0.4420 -0.8106
29702SOL     OW93021   4.930   0.857   0.661 -0.2549 -0.1117  0.3534
29702SOL    HW193022   4.969   0.903   0.736 -1.6674  3.1999 -0.7854
29702SOL    HW293023   5.003   0.807   0.625  0.6414 -1.3121  3.4631
29703SOL     OW93024   7.494   2.490   6.630 -0.0550  0.1635  0.8401
29703SOL    HW193025   7.401   2.498   6.651  0.2417  0.5856  2.0677
29703SOL    HW293026   7.540   2.525   6.707  1.1152  0.5415  0.0094
29704SOL     OW93027   6.347   9.321   5.744  0.2576 -0.6316 -0.3384
29704SOL    HW193028   6.324   9.257   5.811  0.2982  0.3734  0.6731
29704SOL    HW293029   6.270   9.327   5.688 -0.3890 -0.3386  0.5616
29705SOL     OW93030   6.092   7.798   4.439 -0.3395 -0.2482  0.3934
29705SOL    HW193031   6.034   7.786   4.364  1.2739 -1.4291 -0.7412
29705SOL    HW293032   6.113   7.709   4.467 -0.8410  0.1720  2.2465
29706SOL     OW93033   2.517  10.064   7.402 -0.0695 -0.6596 -0.0694
29706SOL    HW193034   2.566  10.118   7.340 -0.8875 -0.9223 -0.9437
29706SOL    HW293035   2.585  10.024   7.457  0.5920  0.5415  0.0231
29707SOL     OW93036   0.621   1.333   9.043 -0.1602 -0.1704 -0.2485
29707SOL    HW193037   0.704   1.336   8.997  0.5417  0.3464  0.9870
29707SOL    HW293038   0.560   1.293   8.981  0.4868  1.3447 -1.9439
29708SOL     OW93039   4.486   7.429   6.602  0.4792 -0.7026  0.0025
29708SOL    HW193040   4.527   7.348   6.572 -0.1968 -1.1139  0.1547
29708SOL    HW293041   4.392   7.411   6.598  0.2356  0.7380 -1.7844
29709SOL     OW93042   7.453   8.406   9.263 -0.1624  0.2903 -0.7042
29709SOL    HW193043   7.361   8.433   9.264  0.1580  1.8498  3.0812
29709SOL    HW293044   7.450   8.311   9.254 -2.1976  0.2295  0.1434
29710SOL     OW93045   2.394   5.161   6.283  0.1125 -0.1184  0.0844
29710SOL    HW193046   2.410   5.201   6.369 -2.7080  3.0610 -0.6699
29710SOL    HW293047   2.331   5.091   6.301  0.6618 -0.4621  0.7365
29711SOL     OW93048   7.077   3.866   8.609  0.3950 -0.8215 -0.5816
29711SOL    HW193049   7.056   3.936   8.547 -1.3360 -1.6214 -0.9820
29711SOL    HW293050   7.013   3.877   8.679  1.2144 -0.9785  0.1944
29712SOL     OW93051   7.632   3.145   1.745  0.1953  0.0738 -0.4298
29712SOL    HW193052   7.694   3.085   1.702  0.2825  0.0766 -0.3064
29712SOL    HW293053   7.650   3.230   1.705  1.0774  0.3152  0.4422
29713SOL     OW93054   5.710   5.816   6.404 -0.8196 -0.2466  0.0681
29713SOL    HW193055   5.775   5.760   6.445 -0.7467  0.5456  1.0841
29713SOL    HW293056   5.762   5.879   6.352 -0.9137 -1.2931 -1.3554
29714SOL     OW93057   7.815   4.494   8.481 -0.3887  0.1789  0.0463
29714SOL    HW193058   7.824   4.587   8.460 -0.9477  0.0324 -0.9281
29714SOL    HW293059   7.757   4.492   8.557 -1.8279  0.5719 -0.9968
29715SOL     OW93060   4.581   7.108   4.204  0.2722 -0.8430  0.5931
29715SOL    HW193061   4.587   7.044   4.133  0.1281  1.0174 -1.2075
29715SOL    HW293062   4.668   7.111   4.242  0.6340 -1.1603 -0.1882
29716SOL     OW93063   5.675   2.436   5.081  0.8587 -0.3214 -0.3062
29716SOL    HW193064   5.741   2.366   5.078  0.7238 -0.5071  0.7187
29716SOL    HW293065   5.726   2.516   5.071  1.2736 -0.4543  0.5969
29717SOL     OW93066   2.575   0.364   1.150  0.6817  0.0526 -0.6686
29717SOL    HW193067   2.545   0.275   1.135  0.4361 -0.8731  3.7587
29717SOL    HW293068   2.671   0.357   1.153  0.8046  0.4856 -2.6118
29718SOL     OW93069   8.681   6.019   2.150  0.1853 -0.6292  0.0081
29718SOL    HW193070   8.646   6.042   2.236  0.0922 -0.5892 -0.0404
29718SOL    HW293071   8.701   5.926   2.157  1.5236 -0.3218  0.5343
29719SOL     OW93072   8.794   7.478   2.436  0.4229 -0.5025 -0.3778
29719SOL    HW193073   8.839   7.541   2.491 -0.2199  1.6957 -2.2370
29719SOL    HW293074   8.864   7.433   2.388  0.8328 -0.5033  0.2153
29720SOL     OW93075   1.189   4.304   5.358 -0.5772 -0.2351  0.0725
29720SOL    HW193076   1.146   4.226   5.392 -0.4496  0.1092  1.0736
29720SOL    HW293077   1.201   4.360   5.435  1.3446 -0.1811 -0.1993
29721SOL     OW93078   3.970   9.465   4.623  0.0899  0.1967  0.1222
29721SOL    HW193079   4.027   9.523   4.673  0.3764 -0.1273  0.1767
29721SOL    HW293080   4.027   9.393   4.596 -0.5741 -0.8151  1.2982
29722SOL     OW93081   1.417   8.701   9.657  0.2712 -0.1685 -0.3983
29722SOL    HW193082   1.405   8.720   9.750 -0.7137  0.9174 -0.7244
29722SOL    HW293083   1.479   8.629   9.656 -0.6098 -1.0272  1.1530
29723SOL     OW93084   4.014   5.788   7.870  0.0439  0.0622 -0.2158
29723SOL    HW193085   3.950   5.731   7.913 -1.1330  0.2388 -1.6813
29723SOL    HW293086   4.071   5.727   7.822  0.2379 -0.0141  0.1057
29724SOL     OW93087   3.040   0.863   9.347 -0.4230  0.5591 -0.3586
29724SOL    HW193088   2.987   0.819   9.281  0.8379 -1.3589 -0.1751
29724SOL    HW293089   2.976   0.901   9.407 -1.6300 -1.0604 -0.5323
29725SOL     OW93090   5.149   1.700   1.706  0.2919  0.4411  0.4518
29725SOL    HW193091   5.240   1.681   1.687  0.3372  1.9933 -1.1872
29725SOL    HW293092   5.150   1.788   1.743 -0.6050  0.9861 -0.7307
29726SOL     OW93093   8.133   0.059   7.123  0.3258 -0.5835 -0.3826
29726SOL    HW193094   8.146   0.057   7.218  0.6503 -2.6226 -0.4215
29726SOL    HW293095   8.221   0.051   7.086  0.1948  0.1229 -0.8585
29727SOL     OW93096   3.634   0.499   7.586  0.2333 -0.3690  0.1195
29727SOL    HW193097   3.595   0.452   7.512 -1.5653  0.4384  0.4813
29727SOL    HW293098   3.589   0.464   7.662 -1.4845  2.1247  0.3714
29728SOL     OW93099   6.551   1.320   0.492 -0.2765 -0.8019 -0.4162
29728SOL    HW193100   6.483   1.364   0.442 -0.0765 -0.3364 -0.2826
29728SOL    HW293101   6.597   1.390   0.536  0.9960 -1.0124 -1.3640
29729SOL     OW93102   5.817   7.769   1.779  0.5482  0.1902 -0.7475
29729SOL    HW193103   5.848   7.785   1.690 -1.2395  0.1543 -1.4188
29729SOL    HW293104   5.728   7.734   1.767 -0.0937  1.1036  1.0780
29730SOL     OW93105   3.678   8.229   1.370 -0.1252 -0.1161 -0.4163
29730SOL    HW193106   3.642   8.268   1.290  0.5847 -0.0138 -0.6857
29730SOL    HW293107   3.668   8.297   1.436  1.6673  0.7764 -1.0248
29731SOL     OW93108   9.111   2.461   5.516 -0.1134 -0.2175  0.5353
29731SOL    HW193109   9.194   2.488   5.556 -1.0904  0.1162  2.4752
29731SOL    HW293110   9.053   2.536   5.530 -0.9296 -0.7108 -0.1663
29732SOL     OW93111   4.155   5.738   9.311 -0.3127 -0.0228  0.2361
29732SOL    HW193112   4.236   5.760   9.264 -0.0490 -1.2781  0.0679
29732SOL    HW293113   4.149   5.805   9.379  1.1982 -0.2412  0.6266
29733SOL     OW93114   0.820   9.009   5.599 -0.5259 -0.3072 -0.3561
29733SOL    HW193115   0.835   8.926   5.554 -0.0618  0.7254 -2.1970
29733SOL    HW293116   0.745   9.048   5.554  0.1842  0.9246 -0.5188
29734SOL     OW93117   7.832  10.013   1.294 -0.1676  0.6519 -0.2372
29734SOL    HW193118   7.782   9.946   1.341 -0.8304  1.4481  0.2345
29734SOL    HW293119   7.923   9.988   1.307 -0.4059 -0.2635 -0.2367
29735SOL     OW93120   4.443   8.910   7.398 -0.9261 -0.2102 -0.3048
29735SOL    HW193121   4.422   8.919   7.491 -1.5142 -0.2816 -0.4268
29735SOL    HW293122   4.522   8.962   7.386  0.5996 -2.1774  0.7275
29736SOL     OW93123   5.175   9.180   5.171 -0.2649 -0.2488 -0.0705
29736SOL    HW193124   5.266   9.205   5.188 -0.1618 -0.8553  0.2806
29736SOL    HW293125   5.125   9.260   5.188  0.1576 -0.0317  0.1624
29737SOL     OW93126   2.757   6.273   0.047  0.5575 -0.2172  0.1706
29737SOL    HW193127   2.700   6.347   0.024  1.5396  0.2535 -0.8461
29737SOL    HW293128   2.717   6.198   0.003  0.6577  0.0847 -0.4386
29738SOL     OW93129   9.845   0.177   4.838  0.4699 -0.2786  0.2217
29738SOL    HW193130   9.880   0.161   4.750  0.3566 -1.2492  0.3438
29738SOL    HW293131   9.853   0.272   4.850  0.0540 -0.0656 -1.0191
29739SOL     OW93132   5.683   2.731   7.406 -0.1309 -0.3548 -0.6689
29739SOL    HW193133   5.706   2.824   7.409 -1.4269  0.0240 -1.4976
29739SOL    HW293134   5.618   2.725   7.336 -0.8469 -1.7137  0.0803
29740SOL     OW93135   0.220   2.267   5.280 -0.0422 -0.7326 -0.1484
29740SOL    HW193136   0.197   2.174   5.269  0.1664 -0.7373 -0.5614
29740SOL    HW293137   0.140   2.308   5.311  0.1656 -1.2539  1.1815
29741SOL     OW93138   5.914   4.828   6.237  0.1131 -0.1148 -0.2759
29741SOL    HW193139   5.918   4.913   6.193  2.1978  1.1632  2.1196
29741SOL    HW293140   5.830   4.829   6.284 -0.3449  0.1550 -1.0804
29742SOL     OW93141   7.239   0.106   2.869  0.0019  0.2411  0.2793
29742SOL    HW193142   7.220   0.187   2.915 -0.5708  1.4019 -1.8699
29742SOL    HW293143   7.334   0.105   2.860  0.0056  0.7094  0.2639
29743SOL     OW93144   1.507   7.235   3.449 -0.1248  0.3957 -1.1258
29743SOL    HW193145   1.522   7.224   3.543  0.2845  0.9669 -1.1161
29743SOL    HW293146   1.556   7.164   3.408 -1.7185 -0.9461 -0.8457
29744SOL     OW93147   7.179   6.834   8.469 -0.1788  0.4583  0.3178
29744SOL    HW193148   7.135   6.852   8.552 -0.5752  1.1374 -0.0319
29744SOL    HW293149   7.111   6.793   8.414 -0.3091  1.2367 -0.1215
29745SOL     OW93150   6.868   0.158   2.577 -0.6868  0.1857  0.0204
29745SOL    HW193151   6.804   0.128   2.641  1.0826 -0.2301  1.6551
29745SOL    HW293152   6.947   0.109   2.596  0.3110  1.0697 -1.6090
29746SOL     OW93153   8.889   5.803   9.377 -0.0588 -0.0425  0.5493
29746SOL    HW193154   8.975   5.830   9.409 -0.0226  1.6291 -0.8055
29746SOL    HW293155   8.828   5.863   9.419 -0.2049  0.8423 -0.8398
29747SOL     OW93156   3.085   8.323   6.943 -0.1606  0.0079 -0.2776
29747SOL    HW193157   3.177   8.296   6.938 -0.3261 -0.9430  1.2447
29747SOL    HW293158   3.070   8.341   7.036 -1.6762 -0.4779 -0.4029
29748SOL     OW93159   4.977   3.096   8.363  0.4780  0.3422  0.0034
29748SOL    HW193160   4.970   3.122   8.271 -0.7939  2.3970  0.6241
29748SOL    HW293161   5.070   3.098   8.383  0.7214  0.3462 -1.0960
29749SOL     OW93162   2.480   0.993   9.463  0.1601  0.0149 -0.3959
29749SOL    HW193163   2.508   0.945   9.541 -1.2560  1.3893  1.0322
29749SOL    HW293164   2.551   0.980   9.401  2.1989  0.2501  1.7287
29750SOL     OW93165   8.353   4.333   9.063 -0.2768  0.0549  0.4904
29750SOL    HW193166   8.360   4.256   9.120  0.9842  0.3013  0.7166
29750SOL    HW293167   8.421   4.392   9.096 -1.5313  1.4685  0.6198
29751SOL     OW93168   5.381  10.014   4.832 -0.3797 -0.4918  0.6381
29751SOL    HW193169   5.474  10.036   4.821  0.0121 -1.1875  2.1494
29751SOL    HW293170   5.343  10.090   4.875 -0.0446 -0.9363  1.7687
29752SOL     OW93171   3.023  10.125   0.480 -0.5269 -0.2463  0.3456
29752SOL    HW193172   3.030  10.052   0.541 -0.4273  0.2501  0.9418
29752SOL    HW293173   2.929  10.135   0.464 -0.6513  0.4176  1.4144
29753SOL     OW93174   1.072   5.285   4.557  0.0180  0.0713  0.5231
29753SOL    HW193175   1.141   5.351   4.551  0.7479 -0.6707  0.6323
29753SOL    HW293176   1.058   5.257   4.466 -0.4152  0.4804  0.4549
29754SOL     OW93177   6.912   4.238   5.429  0.2186  0.3683 -0.5428
29754SOL    HW193178   6.944   4.241   5.338  1.3297  1.1749 -0.1460
29754SOL    HW293179   6.818   4.252   5.421  0.3548  0.8511 -1.5467
29755SOL     OW93180   1.872   3.350   8.462 -0.3237  0.4162 -0.1506
29755SOL    HW193181   1.804   3.412   8.437 -0.3035  0.5428  0.1111
29755SOL    HW293182   1.904   3.315   8.378 -0.7134  0.3470 -0.2718
29756SOL     OW93183   9.027   1.036   9.899  0.2217  0.3726  0.6868
29756SOL    HW193184   9.071   0.961   9.859 -0.7026 -0.1590  0.6300
29756SOL    HW293185   8.945   1.000   9.934  0.7652  0.9167  2.6481
29757SOL     OW93186   8.155   6.466   3.020  0.4606  0.5439 -0.2557
29757SOL    HW193187   8.163   6.374   2.997  2.6835  0.1410  1.7376
29757SOL    HW293188   8.060   6.482   3.020  0.0748 -1.3169 -1.9929
29758SOL     OW93189   3.986   2.010   9.437  0.5176  0.2721 -0.1074
29758SOL    HW193190   4.027   1.932   9.476 -1.6263 -0.1755  1.4126
29758SOL    HW293191   4.009   2.005   9.344  3.1236 -0.3767  0.4858
29759SOL     OW93192   5.277   4.880  10.072 -0.0636 -0.5111  0.2928
29759SOL    HW193193   5.252   4.928  10.150  0.0326 -0.6259  0.3956
29759SOL    HW293194   5.373   4.885  10.070 -0.1264  1.1279 -0.8602
29760SOL     OW93195   7.438   5.097   3.078 -0.7583 -0.5297 -0.2041
29760SOL    HW193196   7.444   5.186   3.044  0.4434  0.4499  2.3216
29760SOL    HW293197   7.527   5.063   3.070 -0.5297 -0.3970  1.5155
29761SOL     OW93198   6.605   5.255   5.640 -0.5416  0.0402 -0.0701
29761SOL    HW193199   6.682   5.311   5.650 -0.4464 -0.4348  2.3562
29761SOL    HW293200   6.598   5.242   5.545  0.5717  2.5206 -0.5933
29762SOL     OW93201   7.562   8.852   7.011 -0.0222 -0.4779  0.0185
29762SOL    HW193202   7.480   8.881   7.050  0.4867  1.2768 -0.1437
29762SOL    HW293203   7.577   8.913   6.938  2.4799  0.6318  1.3373
29763SOL     OW93204   5.028   2.555   7.887 -0.0425 -0.3291 -0.1020
29763SOL    HW193205   4.987   2.587   7.807 -3.0671 -2.1138  0.5790
29763SOL    HW293206   5.023   2.460   7.880  2.1923 -0.6163  1.0489
29764SOL     OW93207   5.533   0.996   5.163 -0.6514 -0.5751 -0.0872
29764SOL    HW193208   5.531   0.924   5.099 -1.3057 -0.9954  0.3953
29764SOL    HW293209   5.577   1.068   5.117 -0.2871 -1.1761 -0.6880
29765SOL     OW93210   3.097   2.450   8.695  0.2165  0.7709 -0.3064
29765SOL    HW193211   3.045   2.372   8.677 -1.5872  1.1804  2.5989
29765SOL    HW293212   3.184   2.429   8.659 -0.6271 -1.8819 -1.0324
29766SOL     OW93213   6.788   1.661   4.456 -0.3919 -0.1170  0.0020
29766SOL    HW193214   6.728   1.730   4.482  0.3395  0.0365  1.4401
29766SOL    HW293215   6.826   1.691   4.373 -1.6379  0.1786 -0.4792
29767SOL     OW93216   3.518   4.789   6.109 -0.0280  0.4082 -0.9512
29767SOL    HW193217   3.558   4.803   6.194 -2.1769 -1.3310  0.4618
29767SOL    HW293218   3.521   4.694   6.096  1.1589  0.6992 -3.3386
29768SOL     OW93219   5.812   7.757   1.130 -0.3136  0.5237  0.0502
29768SOL    HW193220   5.871   7.725   1.061 -0.5142 -1.1320  0.5913
29768SOL    HW293221   5.741   7.800   1.082 -0.5834 -0.8243 -0.8331
29769SOL     OW93222   3.092   2.093   3.306 -0.0249  0.2524 -0.9616
29769SOL    HW193223   3.068   2.113   3.215  1.8126 -0.9449 -1.7725
29769SOL    HW293224   3.009   2.093   3.353 -0.9708  1.4794 -2.5071
29770SOL     OW93225   6.431   3.418   9.837 -0.0730 -0.7770  0.0784
29770SOL    HW193226   6.442   3.512   9.851 -3.1537 -0.0270 -1.5168
29770SOL    HW293227   6.453   3.378   9.921  1.4069  1.3291  0.7662
29771SOL     OW93228   7.260   7.150   5.618 -0.6000 -0.0307 -0.4104
29771SOL    HW193229   7.309   7.139   5.699 -1.8226  2.4948  0.7512
29771SOL    HW293230   7.298   7.227   5.577 -0.6407 -0.7152 -1.7982
29772SOL     OW93231   5.757   4.468   6.938 -0.7293  0.4090 -0.2899
29772SOL    HW193232   5.698   4.479   6.863 -1.0038 -0.3429 -0.1928
29772SOL    HW293233   5.708   4.412   6.998 -0.9411  1.8482  0.9281
29773SOL     OW93234   5.529   6.822   2.236  0.0173  0.5069  0.2388
29773SOL    HW193235   5.520   6.727   2.239  1.0623  0.3848  0.1071
29773SOL    HW293236   5.622   6.837   2.215  0.0196  1.5512  0.8823
29774SOL     OW93237   3.767   1.594   5.721  0.4744  0.0002 -0.4806
29774SOL    HW193238   3.845   1.609   5.667 -1.2256  0.3047 -3.0413
29774SOL    HW293239   3.735   1.509   5.693  0.6537 -0.8018  1.6227
29775SOL     OW93240   8.488   7.540   5.446 -0.2174 -0.0824  0.0255
29775SOL    HW193241   8.472   7.513   5.536 -1.1501 -0.2600 -0.1849
29775SOL    HW293242   8.577   7.511   5.428 -0.6272 -1.6046  0.3325
29776SOL     OW93243   1.433   5.852   8.770 -0.5595 -0.5811 -0.7978
29776SOL    HW193244   1.416   5.946   8.765 -1.9854 -0.5907  1.8972
29776SOL    HW293245   1.527   5.846   8.790 -0.7660  0.4161  0.6550
29777SOL     OW93246   3.530   1.260   6.806 -0.2254 -0.6229 -0.5575
29777SOL    HW193247   3.621   1.238   6.827  1.2764  4.1643 -0.9218
29777SOL    HW293248   3.497   1.300   6.887 -0.4479  1.6091 -1.6900
29778SOL     OW93249   3.107   5.925   4.904 -0.1193 -0.1791  0.5693
29778SOL    HW193250   3.065   5.845   4.874  1.0325 -0.4930 -0.2931
29778SOL    HW293251   3.035   5.981   4.932 -0.8551 -2.1937  3.0191
29779SOL     OW93252   5.323   0.458   6.422 -0.5553  0.2627 -0.1181
29779SOL    HW193253   5.232   0.454   6.450 -1.2086  3.4682 -1.2870
29779SOL    HW293254   5.373   0.419   6.494 -2.7340 -0.3902  1.1237
29780SOL     OW93255   1.074   0.502   0.605 -0.2333  0.4346  0.5665
29780SOL    HW193256   1.013   0.515   0.678  0.8738  0.4919  1.5078
29780SOL    HW293257   1.023   0.455   0.540 -1.1469  0.0613  1.5142
29781SOL     OW93258   7.279   9.103   0.618 -0.0191 -0.3761  0.7459
29781SOL    HW193259   7.368   9.100   0.650  0.0341  0.2148  0.6541
29781SOL    HW293260   7.252   9.194   0.628 -0.4271 -0.4406  0.2825
29782SOL     OW93261   5.705   9.755   8.200 -0.1849  0.3079 -0.2075
29782SOL    HW193262   5.622   9.804   8.202  0.4932  1.4768  0.2299
29782SOL    HW293263   5.749   9.784   8.120  1.3050  2.3306  1.2548
29783SOL     OW93264   1.879   9.113   5.853  0.1215 -0.2781  0.0766
29783SOL    HW193265   1.862   9.204   5.877  1.3207 -0.2637  0.9355
29783SOL    HW293266   1.793   9.071   5.859 -0.6952  1.0177 -1.5135
29784SOL     OW93267   6.010   7.414   5.084 -0.0080 -0.0466  0.1499
29784SOL    HW193268   5.990   7.350   5.153 -0.1955 -0.5203 -0.3370
29784SOL    HW293269   6.100   7.393   5.058  0.5202  0.9305  1.0934
29785SOL     OW93270   0.686   7.663   9.749  0.4794  0.2099  0.6771
29785SOL    HW193271   0.680   7.576   9.786  0.1548 -0.3625 -0.6457
29785SOL    HW293272   0.740   7.652   9.671 -0.6478  0.9119 -0.2405
29786SOL     OW93273   8.370   7.029   1.264 -0.4153 -0.3450  0.3885
29786SOL    HW193274   8.314   7.041   1.188 -1.0847 -1.1290  0.7302
29786SOL    HW293275   8.359   6.936   1.287  0.3460 -0.2961  0.9877
29787SOL     OW93276   7.215   4.901   1.840 -0.1390 -0.4994 -0.3028
29787SOL    HW193277   7.289   4.917   1.898  1.4701 -0.4679 -2.2559
29787SOL    HW293278   7.163   4.834   1.884  0.4630  0.2267  1.5943
29788SOL     OW93279   4.321   0.173   9.236  0.1200  0.4417  0.3502
29788SOL    HW193280   4.234   0.172   9.196  0.1054 -1.0974  0.3352
29788SOL    HW293281   4.373   0.230   9.180 -0.3160 -0.3976 -0.9498
29789SOL     OW93282   3.071   9.953   0.694 -0.3099 -0.3174 -0.0061
29789SOL    HW193283   3.100   9.937   0.784  1.9273  2.1885 -0.1700
29789SOL    HW293284   3.135   9.908   0.639  0.4439  1.0652 -0.3180
29790SOL     OW93285   1.601   7.792   6.388  0.0828 -0.4389  0.5278
29790SOL    HW193286   1.648   7.731   6.445  1.0805  0.5575  0.8094
29790SOL    HW293287   1.613   7.878   6.429  1.1531  0.3763 -1.3246
29791SOL     OW93288   6.956   6.774  10.108  0.4247 -0.0580 -0.0477
29791SOL    HW193289   6.949   6.778  10.204  1.3244 -1.0018  0.0771
29791SOL    HW293290   6.953   6.865  10.080  0.6753  0.2609  0.9216
29792SOL     OW93291   4.156   0.540   1.931 -0.2214  0.0526  0.4241
29792SOL    HW193292   4.072   0.586   1.940  0.4419  1.7338 -1.4957
29792SOL    HW293293   4.146   0.488   1.851  1.0710  1.4853 -0.7115
29793SOL     OW93294   7.391   6.970   0.993 -0.1913 -0.5040 -0.1123
29793SOL    HW193295   7.316   7.025   1.015 -2.0162 -2.9417  0.2572
29793SOL    HW293296   7.406   6.918   1.072  0.5177 -1.5238 -0.8972
29794SOL     OW93297   2.778   2.438   5.282 -0.3119  0.0414 -0.1958
29794SOL    HW193298   2.849   2.389   5.323 -0.6616 -0.3103 -0.0087
29794SOL    HW293299   2.821   2.512   5.240 -0.0046  0.7941  1.3636
29795SOL     OW93300   4.180   3.362   5.643  0.5248  0.4602  0.3312
29795SOL    HW193301   4.101   3.312   5.664  0.9328  0.0078  0.8175
29795SOL    HW293302   4.224   3.310   5.575  1.4795 -0.4223  1.5661
29796SOL     OW93303   8.095   9.376   3.934 -0.5910  0.6123 -0.1440
29796SOL    HW193304   8.148   9.390   4.012 -0.7950  2.3178 -0.2710
29796SOL    HW293305   8.066   9.285   3.940  1.3653 -0.0081  0.5203
29797SOL     OW93306   4.141   5.164   4.747  0.4730 -0.2181  0.5353
29797SOL    HW193307   4.132   5.214   4.828 -1.4335  0.6143 -0.1351
29797SOL    HW293308   4.213   5.207   4.700 -0.1257  0.9357  0.6532
29798SOL     OW93309   1.161   0.859  10.200  0.5141 -0.8299 -0.5782
29798SOL    HW193310   1.162   0.856  10.104  1.1104 -0.3506 -0.5979
29798SOL    HW293311   1.081   0.812  10.225 -1.1508  1.3968 -1.4010
29799SOL     OW93312   4.078   1.462   5.277 -0.0456 -0.3568 -0.4050
29799SOL    HW193313   4.133   1.463   5.198 -0.3787 -0.5699 -0.6445
29799SOL    HW293314   3.999   1.414   5.250  0.6244 -2.1229  0.5912
29800SOL     OW93315   8.101   1.033   4.115 -0.0366 -0.0639 -0.2244
29800SOL    HW193316   8.186   1.078   4.107  0.2354 -0.5394 -0.0101
29800SOL    HW293317   8.050   1.088   4.175  0.0697  0.2943 -0.4578
29801SOL     OW93318   5.455   8.623   2.850 -0.4976 -0.9587 -0.3569
29801SOL    HW193319   5.474   8.715   2.832  1.9773 -1.0453  1.3326
29801SOL    HW293320   5.365   8.610   2.820 -0.6740  1.8234 -1.2351
29802SOL     OW93321   7.336   1.986   1.086  0.4363  0.1868 -0.3990
29802SOL    HW193322   7.318   2.055   1.150  0.7124  0.6080 -0.7710
29802SOL    HW293323   7.416   2.014   1.042  2.6512 -2.0880  1.8250
29803SOL     OW93324   4.150   0.987   3.579  0.3623 -0.0271  0.3664
29803SOL    HW193325   4.185   0.911   3.533  1.0689 -0.1834  1.1504
29803SOL    HW293326   4.100   0.951   3.652 -0.8692  0.2163 -0.3124
29804SOL     OW93327   0.060   1.250   0.358 -0.3186 -0.4055 -0.6330
29804SOL    HW193328   0.139   1.303   0.345  0.5494 -1.6852 -0.8249
29804SOL    HW293329   0.037   1.220   0.270 -0.4086 -0.8674 -0.4557
29805SOL     OW93330   9.580   4.534   9.012 -1.1646  0.5204  0.3464
29805SOL    HW193331   9.607   4.607   9.069  0.1064 -0.3287  0.8814
29805SOL    HW293332   9.639   4.540   8.937  0.3129 -1.1157  1.3283
29806SOL     OW93333   8.369   9.351   4.821  0.3933  0.1154  0.5754
29806SOL    HW193334   8.303   9.295   4.861  1.6474 -1.6764  0.2452
29806SOL    HW293335   8.424   9.378   4.895 -0.6682  1.6543  0.8596
29807SOL     OW93336   9.742   5.175   9.712 -0.3293 -0.3485  0.9627
29807SOL    HW193337   9.768   5.258   9.673 -1.9308 -0.0240  0.5177
29807SOL    HW293338   9.669   5.145   9.659 -0.6168 -1.4054  1.9106
29808SOL     OW93339   3.676   5.195   7.300  0.5170  0.5012 -0.0146
29808SOL    HW193340   3.742   5.250   7.258  0.2589  0.9150  0.1136
29808SOL    HW293341   3.715   5.170   7.384  1.4147 -1.0828 -0.8512
29809SOL     OW93342   9.617   9.150   2.516 -0.9042  0.1104 -0.3367
29809SOL    HW193343   9.577   9.099   2.586 -0.1964 -0.3757 -0.2848
29809SOL    HW293344   9.679   9.207   2.561 -1.0165  0.3567 -0.4922
29810SOL     OW93345   7.396   2.137   2.003  0.6828 -0.2780  0.4164
29810SOL    HW193346   7.416   2.076   1.932 -0.4976 -0.5685  0.3176
29810SOL    HW293347   7.466   2.203   1.999  1.0843 -0.7467 -0.4790
29811SOL     OW93348   1.842   9.609   2.695  0.0423  0.5518  0.3782
29811SOL    HW193349   1.879   9.538   2.749 -0.1562  1.1416  1.3131
29811SOL    HW293350   1.759   9.630   2.738 -1.0685 -0.2367 -1.2492
29812SOL     OW93351   0.486   9.555   1.922 -1.1362 -0.3730 -0.2763
29812SOL    HW193352   0.526   9.495   1.986 -1.6504 -1.3814 -0.8702
29812SOL    HW293353   0.497   9.510   1.838 -2.5663 -0.1834 -0.5828
29813SOL     OW93354   5.155   2.121   4.482  0.3844  0.1673 -0.3566
29813SOL    HW193355   5.239   2.111   4.526 -0.1634 -0.2257  0.6391
29813SOL    HW293356   5.101   2.051   4.518 -1.2906  2.1252  1.2839
29814SOL     OW93357   7.152   1.761   9.221  0.1140 -0.2093 -0.6663
29814SOL    HW193358   7.242   1.790   9.232  0.1023  0.2136 -1.5607
29814SOL    HW293359   7.128   1.791   9.133 -0.4334 -1.5375 -1.0015
29815SOL     OW93360   4.515   5.811   8.539  0.6499 -0.4970  0.1531
29815SOL    HW193361   4.599   5.798   8.495  0.9013  0.5487  0.3123
29815SOL    HW293362   4.516   5.748   8.612  1.3540 -0.3751  0.2506
29816SOL     OW93363   9.186   5.687   4.271  0.0708  0.0354  0.2236
29816SOL    HW193364   9.109   5.738   4.246 -0.4532 -0.2494  1.2065
29816SOL    HW293365   9.248   5.700   4.199 -0.7636  0.5424 -0.4179
29817SOL     OW93366   4.857   5.599   2.365 -0.2786  0.2420 -0.4405
29817SOL    HW193367   4.825   5.621   2.453 -0.4938 -1.0083 -0.1786
29817SOL    HW293368   4.942   5.556   2.381  0.2170  1.0248 -0.9330
29818SOL     OW93369   0.785   8.650   8.825 -0.1361 -0.0775  0.2478
29818SOL    HW193370   0.834   8.700   8.891 -1.9662  2.7480 -0.3466
29818SOL    HW293371   0.846   8.644   8.751 -0.0413  1.9174  0.1096
29819SOL     OW93372   6.035   0.180   2.589 -0.5285  0.3579 -0.1683
29819SOL    HW193373   5.982   0.240   2.536 -0.4708 -0.7057 -1.4848
29819SOL    HW293374   5.996   0.094   2.575  0.5515 -0.2049  0.1380
29820SOL     OW93375   5.017   9.447   6.125  0.2242  0.2071  0.2354
29820SOL    HW193376   5.056   9.378   6.071 -3.5444 -1.7683 -0.3378
29820SOL    HW293377   5.009   9.522   6.066 -3.2377 -1.7096 -2.0942
29821SOL     OW93378   5.530   7.494   5.092 -0.2324 -0.1774 -0.4218
29821SOL    HW193379   5.591   7.497   5.166  0.1557  1.1677 -0.7768
29821SOL    HW293380   5.468   7.564   5.110  0.0711  0.3963 -1.5375
29822SOL     OW93381   2.789   5.969   8.265 -0.3062 -0.2490  0.6253
29822SOL    HW193382   2.873   5.944   8.304 -0.4544 -0.1105  1.0341
29822SOL    HW293383   2.762   6.046   8.314 -0.3117  0.1518 -0.0043
29823SOL     OW93384   8.553   9.512   3.467  0.0011  0.0991  0.4228
29823SOL    HW193385   8.585   9.596   3.501 -0.3167  1.0970 -1.5947
29823SOL    HW293386   8.629   9.455   3.469  0.4096  0.6446  1.1106
29824SOL     OW93387   4.162   8.446   9.341 -0.6356  0.4722  0.6256
29824SOL    HW193388   4.226   8.513   9.318 -1.1399  0.4680 -0.8658
29824SOL    HW293389   4.181   8.425   9.433 -0.4199  2.6010  1.1160
29825SOL     OW93390   2.067   0.530   0.148 -0.6310  0.3271 -0.5007
29825SOL    HW193391   1.975   0.532   0.123 -0.6954  0.6986 -0.2396
29825SOL    HW293392   2.082   0.613   0.193  0.3503  1.2344 -2.3621
29826SOL     OW93393   5.667   5.422   1.168  0.0588  0.7320 -0.3199
29826SOL    HW193394   5.719   5.463   1.098 -1.2065  2.6262 -0.2450
29826SOL    HW293395   5.669   5.486   1.240 -2.8005  1.2174 -0.5355
29827SOL     OW93396   6.209   5.324   9.123  0.1070  0.4578  0.3876
29827SOL    HW193397   6.293   5.282   9.144 -0.1786 -1.6220 -2.1245
29827SOL    HW293398   6.154   5.308   9.200  1.4002  0.1651  1.2797
29828SOL     OW93399   9.600   2.604   7.342  0.3594  0.3022 -1.0605
29828SOL    HW193400   9.522   2.592   7.288  1.5604  1.1941 -3.1418
29828SOL    HW293401   9.652   2.524   7.326  0.5212  0.3734 -0.8877
29829SOL     OW93402   2.131   9.092   5.352 -0.1550  0.4957  0.7256
29829SOL    HW193403   2.076   9.170   5.346 -0.7171  0.2045  1.7446
29829SOL    HW293404   2.095   9.043   5.427 -0.1555 -0.9934 -0.2000
29830SOL     OW93405   7.174   1.873   1.635  0.7594  0.2479 -0.1302
29830SOL    HW193406   7.132   1.892   1.551  1.3290 -0.4436 -0.5858
29830SOL    HW293407   7.121   1.920   1.700  0.0282  0.4007 -0.8218
29831SOL     OW93408   6.817   5.922   6.203  0.3292 -0.1683  0.1715
29831SOL    HW193409   6.900   5.907   6.157  0.3354 -0.2004  0.1929
29831SOL    HW293410   6.759   5.958   6.137  0.3342 -0.2260  0.1355
29832SOL     OW93411   4.119   4.347   8.713 -0.5736 -0.4795  0.5675
29832SOL    HW193412   4.161   4.431   8.698 -1.5758  0.1291  1.0202
29832SOL    HW293413   4.186   4.293   8.755 -0.5934  0.8556  2.4069
29833SOL     OW93414   8.051   5.989  10.133  0.3582  0.1085 -0.1783
29833SOL    HW193415   8.147   5.997  10.136  0.3458  0.4718 -0.6333
29833SOL    HW293416   8.035   5.925  10.064  0.3293 -1.3785  1.1719
29834SOL     OW93417   1.012   4.054   5.304 -0.3216  0.1998  0.3250
29834SOL    HW193418   0.991   4.016   5.219 -1.6109  0.4788  0.4997
29834SOL    HW293419   1.090   4.008   5.333 -0.3738 -0.4976 -0.6203
29835SOL     OW93420   2.242   8.753   3.197  0.1101  0.4035  0.4046
29835SOL    HW193421   2.152   8.779   3.218 -0.1377 -0.4743  0.4759
29835SOL    HW293422   2.296   8.801   3.261 -0.1433  2.1759 -0.6370
29836SOL     OW93423   2.634   3.958   1.420  0.0586 -0.2379 -0.3621
29836SOL    HW193424   2.545   3.929   1.400  0.1141 -0.4642 -0.2766
29836SOL    HW293425   2.640   4.045   1.380 -0.5754  0.2699  0.5865
29837SOL     OW93426   4.472   4.792   3.933 -0.3509 -0.5762 -0.1092
29837SOL    HW193427   4.461   4.703   3.900 -0.7409 -0.7967  0.5975
29837SOL    HW293428   4.523   4.781   4.014  0.3285 -0.0750 -0.4604
29838SOL     OW93429   7.396   3.088   5.713  0.0472  0.2749 -0.2934
29838SOL    HW193430   7.303   3.104   5.699 -0.3544  0.7103  2.3479
29838SOL    HW293431   7.432   3.078   5.625 -2.4044  0.4733 -1.4077
29839SOL     OW93432   6.507   5.723   4.832  0.2252 -0.0342 -0.2149
29839SOL    HW193433   6.539   5.745   4.919  0.0585 -2.5295  0.5483
29839SOL    HW293434   6.582   5.736   4.774  0.8733 -0.0936  0.5983
29840SOL     OW93435   3.150   7.114   8.259 -0.8008  0.3830 -0.1911
29840SOL    HW193436   3.068   7.083   8.296 -1.2146  0.8019 -0.7413
29840SOL    HW293437   3.142   7.100   8.165  0.5286 -1.3302 -0.1114
29841SOL     OW93438   6.063   8.964   3.457 -0.1103 -0.1397 -0.0659
29841SOL    HW193439   6.128   8.915   3.508 -0.8899 -0.3687  0.7409
29841SOL    HW293440   6.038   9.037   3.514 -2.1374 -1.2659  0.6042
29842SOL     OW93441   6.024   8.611   6.588  0.1539 -0.0324 -0.1351
29842SOL    HW193442   6.096   8.564   6.630 -0.5990 -2.3071 -1.2486
29842SOL    HW293443   6.051   8.618   6.496 -0.5665  0.0854 -0.3454
29843SOL     OW93444   4.503   3.836   8.292 -0.2847 -0.3714  0.1231
29843SOL    HW193445   4.579   3.788   8.323 -0.2202 -0.9403 -0.8538
29843SOL    HW293446   4.539   3.918   8.257 -0.0126 -0.9373 -0.9739
29844SOL     OW93447   5.569   1.769   8.411  0.1317 -0.4183 -0.1135
29844SOL    HW193448   5.501   1.703   8.428  0.4430 -0.7575 -0.1832
29844SOL    HW293449   5.593   1.801   8.498  0.2020 -0.6227 -0.0554
29845SOL     OW93450   9.266   1.366   4.486 -0.2538  1.1294 -0.4631
29845SOL    HW193451   9.216   1.336   4.411 -0.0012 -0.3996 -0.0456
29845SOL    HW293452   9.334   1.423   4.449 -0.0420  0.2802 -1.4088
29846SOL     OW93453   5.527   2.328   1.637 -0.1470 -0.7158 -0.7414
29846SOL    HW193454   5.572   2.293   1.714  1.1132  0.4548 -0.9052
29846SOL    HW293455   5.594   2.326   1.568 -0.6878  0.0111 -1.2943
29847SOL     OW93456   5.297   2.416   8.394  0.1848 -0.1172 -0.3019
29847SOL    HW193457   5.316   2.504   8.427 -2.9367  0.4553  0.2821
29847SOL    HW293458   5.248   2.431   8.313  0.4634 -1.3608 -0.7171
29848SOL     OW93459   8.664   6.000   9.615  0.5786 -0.2020  0.3121
29848SOL    HW193460   8.585   6.016   9.666  0.1124  0.5563 -0.6175
29848SOL    HW293461   8.634   5.952   9.538  1.0555 -0.0857  0.0511
29849SOL     OW93462   5.890   4.670   7.925  0.1174  0.0251 -0.0602
29849SOL    HW193463   5.946   4.613   7.977  2.3495  0.9324 -1.3133
29849SOL    HW293464   5.806   4.625   7.921  1.1435 -2.0834  0.7898
29850SOL     OW93465   0.640   1.350   4.027 -0.4366  0.1182 -0.0289
29850SOL    HW193466   0.576   1.388   4.087 -0.0503  1.8637 -0.6506
29850SOL    HW293467   0.724   1.367   4.069 -0.0390  2.6115 -1.5624
29851SOL     OW93468   3.770   9.555   5.464 -0.4130 -0.3198 -0.2147
29851SOL    HW193469   3.796   9.528   5.552 -1.3532 -0.4837  0.0252
29851SOL    HW293470   3.684   9.595   5.476 -0.1042  0.5751 -0.9225
29852SOL     OW93471   4.618   1.432   7.050  0.3256  0.1467  0.1353
29852SOL    HW193472   4.705   1.472   7.057  1.2761 -1.8736  0.7739
29852SOL    HW293473   4.579   1.445   7.137  0.2103  0.5648  0.0231
29853SOL     OW93474   1.801   7.500   7.732 -0.0929  0.2070 -0.6187
29853SOL    HW193475   1.777   7.407   7.727  0.4987  0.1029 -2.0090
29853SOL    HW293476   1.718   7.546   7.730 -0.4523 -0.2852  1.0539
29854SOL     OW93477   6.563   7.242   4.495 -0.1857 -1.1768 -0.1465
29854SOL    HW193478   6.568   7.332   4.463  1.0535 -0.4367  1.9197
29854SOL    HW293479   6.469   7.223   4.497 -0.7139  1.0642  1.7953
29855SOL     OW93480   5.540   8.624   4.676  0.2225  0.0041 -0.1675
29855SOL    HW193481   5.592   8.658   4.748  1.3079 -1.1140 -0.3794
29855SOL    HW293482   5.527   8.699   4.618 -0.5338  0.8743  1.0922
29856SOL     OW93483   7.388   8.211   9.678 -0.0390  0.1397 -0.3655
29856SOL    HW193484   7.323   8.142   9.694 -1.1411  0.9362 -1.2525
29856SOL    HW293485   7.457   8.167   9.628  0.6269 -0.9493  1.4113
29857SOL     OW93486   1.175   4.069   1.940 -0.1790 -0.6767 -0.2377
29857SOL    HW193487   1.131   4.114   2.013  0.3819 -1.4064  0.5648
29857SOL    HW293488   1.268   4.075   1.961 -0.0078 -0.8736 -0.9185
29858SOL     OW93489   3.229   7.227   5.000 -0.1519 -0.2743  0.7008
29858SOL    HW193490   3.318   7.250   4.971 -0.5819 -0.6051 -0.9758
29858SOL    HW293491   3.183   7.310   5.006  0.1745 -0.1274  1.3069
29859SOL     OW93492   9.721   2.737   8.927 -0.1890 -0.0125  0.0632
29859SOL    HW193493   9.713   2.831   8.944  0.4636 -0.3277  2.5119
29859SOL    HW293494   9.684   2.726   8.839 -1.4969  2.3355  0.2104
29860SOL     OW93495   4.435  10.060   4.944  0.3397  0.9070  0.3015
29860SOL    HW193496   4.419  10.032   5.034 -0.6002  1.9914  0.4982
29860SOL    HW293497   4.518  10.020   4.920  0.5486  0.5263  1.6206
29861SOL     OW93498   4.654   2.024   5.652 -0.0353 -0.1170 -0.3055
29861SOL    HW193499   4.633   2.103   5.602 -0.3351 -0.6054 -0.9707
29861SOL    HW293500   4.741   1.999   5.622  0.5423  0.5708  0.7203
29862SOL     OW93501   8.160   4.358   4.334  0.2364  0.0130  0.0355
29862SOL    HW193502   8.124   4.404   4.258  1.9242  1.2696 -0.0549
29862SOL    HW293503   8.198   4.278   4.298  0.4433  0.2843 -0.3549
29863SOL     OW93504   1.845   3.762   1.354 -0.4446 -0.8165  0.0036
29863SOL    HW193505   1.833   3.813   1.274  0.4871 -0.4879  0.0554
29863SOL    HW293506   1.887   3.681   1.324  0.6145 -0.3749  0.2179
29864SOL     OW93507   1.316   7.925  10.183 -0.0002 -0.1734 -0.5102
29864SOL    HW193508   1.236   7.927  10.235  0.2835 -0.9424 -0.0393
29864SOL    HW293509   1.302   7.854  10.121  0.8830 -1.2699  0.5064
29865SOL     OW93510   8.802   3.011   9.576 -0.2002  0.2539  0.1724
29865SOL    HW193511   8.813   2.968   9.492 -3.3514  0.2021 -0.3180
29865SOL    HW293512   8.743   2.954   9.625 -0.4830  1.5553  1.4190
29866SOL     OW93513   1.599   4.071   4.242  0.2833 -0.3266 -0.6586
29866SOL    HW193514   1.564   4.096   4.157  0.8855  1.2088 -0.4738
29866SOL    HW293515   1.638   3.985   4.227  2.4350  0.8699 -2.5361
29867SOL     OW93516   4.427   7.725   0.131  0.2309  0.5742  0.3475
29867SOL    HW193517   4.500   7.677   0.091 -0.5890 -0.2303 -0.1964
29867SOL    HW293518   4.470   7.785   0.193  1.3766  0.3731 -0.2200
29868SOL     OW93519   8.467   0.587   2.789 -0.0293 -0.4169  0.1845
29868SOL    HW193520   8.532   0.596   2.720 -0.4173  0.0314 -0.1295
29868SOL    HW293521   8.511   0.619   2.868  0.1515 -0.1902 -0.0093
29869SOL     OW93522   7.872   0.309   9.629  0.0043 -0.2796  0.2928
29869SOL    HW193523   7.903   0.316   9.719 -1.3928 -2.4157  1.0234
29869SOL    HW293524   7.920   0.235   9.592  0.4402  0.4681 -0.6985
29870SOL     OW93525   1.658   3.044   0.740  0.5173 -0.0110  0.0294
29870SOL    HW193526   1.706   3.097   0.677  0.0344 -2.6589 -2.7685
29870SOL    HW293527   1.578   3.093   0.757  0.1673  0.2924 -2.2987
29871SOL     OW93528   0.684   2.365   1.335  0.0199 -0.0413  0.6565
29871SOL    HW193529   0.728   2.281   1.353 -0.0132 -0.2739 -0.2997
29871SOL    HW293530   0.686   2.411   1.419  1.2752 -0.4305  0.8610
29872SOL     OW93531   6.086  10.080   6.439  0.0564 -0.0399 -0.4063
29872SOL    HW193532   6.016  10.084   6.504  0.2368 -1.9541 -0.0429
29872SOL    HW293533   6.164  10.113   6.485  0.1352 -1.1732  0.3055
29873SOL     OW93534   6.190   3.559   0.019  0.1952 -0.1292 -0.7072
29873SOL    HW193535   6.205   3.479  -0.031 -0.0212 -0.8552  0.3503
29873SOL    HW293536   6.096   3.576   0.012  0.3025  0.2732 -1.2626
29874SOL     OW93537   6.985   4.093   8.415  0.2096  0.3901 -0.0001
29874SOL    HW193538   6.897   4.067   8.388  0.4957  0.8206 -1.4195
29874SOL    HW293539   7.043   4.058   8.347  1.1191  0.3986  0.7347
29875SOL     OW93540   2.943   7.731   4.051  0.0134  0.8169 -0.7801
29875SOL    HW193541   2.946   7.677   4.130 -0.0270  1.4093 -0.3681
29875SOL    HW293542   3.017   7.700   3.998 -0.0995  0.2612 -0.6180
29876SOL     OW93543   3.657   1.161   1.802 -0.0138  0.2896 -0.3920
29876SOL    HW193544   3.626   1.081   1.759 -3.1303  1.3621 -0.3682
29876SOL    HW293545   3.735   1.186   1.752 -0.4096 -1.3996 -1.9775
29877SOL     OW93546   1.913   0.469   5.655 -0.7998 -0.0845 -0.2310
29877SOL    HW193547   1.900   0.509   5.741  1.5819  2.0685 -0.7617
29877SOL    HW293548   1.995   0.505   5.624 -0.7446 -2.1103 -2.7431
29878SOL     OW93549   4.491   6.555   8.752 -0.0829  0.0125 -0.0616
29878SOL    HW193550   4.398   6.556   8.730  0.0826 -0.1988 -0.7980
29878SOL    HW293551   4.525   6.638   8.718 -0.1095  0.3362  0.6952
29879SOL     OW93552   1.539   0.022   1.786  0.5216  0.4273  0.0725
29879SOL    HW193553   1.497  -0.063   1.798 -0.7712  1.1798  1.2008
29879SOL    HW293554   1.617   0.019   1.842  0.5254 -0.0387  0.0407
29880SOL     OW93555   8.971   1.039   3.256 -0.0133 -0.1010  0.2752
29880SOL    HW193556   8.911   1.107   3.224 -0.9764 -0.0379  2.0696
29880SOL    HW293557   9.050   1.087   3.280  0.1998  0.0360 -0.6494
29881SOL     OW93558   2.508   2.820   7.297 -0.0229  0.2426  0.4274
29881SOL    HW193559   2.438   2.849   7.239  0.0169  0.7972  0.6495
29881SOL    HW293560   2.505   2.725   7.293 -0.8720  0.2617  0.5415
29882SOL     OW93561   7.967   0.950   0.694 -0.1885 -0.3335  0.0403
29882SOL    HW193562   8.014   0.986   0.619 -0.9467  1.1194  0.2268
29882SOL    HW293563   7.925   0.871   0.660  1.5095 -1.1027 -0.3905
29883SOL     OW93564   9.712   1.102   5.658  0.1781  0.0628 -0.1552
29883SOL    HW193565   9.708   1.010   5.685  0.7185 -0.4244 -1.6315
29883SOL    HW293566   9.682   1.101   5.567 -0.4988  1.4645  0.0362
29884SOL     OW93567   6.370   0.302   8.988 -0.3809 -0.6881  0.2030
29884SOL    HW193568   6.328   0.387   8.979  0.1429 -0.1121  2.6902
29884SOL    HW293569   6.457   0.314   8.951 -0.9535 -0.7721 -1.2812
29885SOL     OW93570   2.866   8.397   3.761 -0.1854  0.4665  0.2087
29885SOL    HW193571   2.802   8.449   3.712 -0.9395  1.7952  2.4681
29885SOL    HW293572   2.951   8.433   3.737 -0.4313  0.2912 -0.9862
29886SOL     OW93573   6.077   9.003   2.186 -0.8850  0.1658 -0.1627
29886SOL    HW193574   6.156   9.008   2.132  0.4133  0.0964  1.6388
29886SOL    HW293575   6.033   9.087   2.173  0.9172  1.3231  0.8351
29887SOL     OW93576   6.259   3.741   5.391 -0.1130 -0.2743 -0.3114
29887SOL    HW193577   6.164   3.739   5.391 -0.1536  1.1261 -0.2956
29887SOL    HW293578   6.282   3.823   5.348  1.1311 -1.6108 -2.4087
29888SOL     OW93579   0.021   4.757   9.469  0.8101 -0.0997 -0.8252
29888SOL    HW193580   0.090   4.691   9.457  1.2953  0.1118  0.5493
29888SOL    HW293581   0.058   4.818   9.532 -0.7243 -0.1173  0.1496
29889SOL     OW93582   3.372   5.937   3.170  0.4397 -0.0385 -0.2825
29889SOL    HW193583   3.431   5.907   3.101  0.3936  0.3800 -0.5045
29889SOL    HW293584   3.420   6.009   3.213  0.2230  0.0921 -0.2580
29890SOL     OW93585   6.476   5.166   7.839  0.1508 -0.0986  0.3527
29890SOL    HW193586   6.411   5.180   7.908 -0.3814 -1.2121  0.1031
29890SOL    HW293587   6.449   5.225   7.768  0.7498  1.1145  1.1139
29891SOL     OW93588   2.878   7.862   0.410 -0.9607  0.5887 -0.1860
29891SOL    HW193589   2.960   7.813   0.399 -1.9285 -1.5219  1.3569
29891SOL    HW293590   2.827   7.842   0.332 -1.2330 -0.7112  0.3011
29892SOL     OW93591   7.025   4.986   8.299 -0.2810  0.2331  0.5558
29892SOL    HW193592   7.007   5.007   8.207  0.5823 -0.1940  0.2837
29892SOL    HW293593   7.106   4.936   8.297 -1.2663 -1.5026  1.3646
29893SOL     OW93594   0.680   1.445   9.856 -0.1337 -0.0490 -0.0387
29893SOL    HW193595   0.710   1.358   9.882 -3.4020 -0.6838  2.3062
29893SOL    HW293596   0.715   1.504   9.923  0.3454  0.1077 -0.4236
29894SOL     OW93597   2.925   2.332   4.121 -0.2182  0.3533 -0.1765
29894SOL    HW193598   2.917   2.271   4.194 -2.7655 -0.3466 -0.9566
29894SOL    HW293599   2.933   2.277   4.044  3.0677  1.0789 -0.5008
29895SOL     OW93600   6.791  10.175   7.909 -0.3628 -0.2577 -0.3249
29895SOL    HW193601   6.871  10.199   7.862 -1.6742  0.3949 -2.3094
29895SOL    HW293602   6.738  10.129   7.845 -0.7859 -2.5218  1.5373
29896SOL     OW93603   2.221   9.028   3.898 -0.5383 -0.0665  0.3841
29896SOL    HW193604   2.170   8.999   3.973  0.1650  1.2554  1.4184
29896SOL    HW293605   2.306   9.052   3.935  0.3426 -0.7890 -1.0663
29897SOL     OW93606   7.084   9.130   6.353  0.3074  0.2781  0.1099
29897SOL    HW193607   7.082   9.181   6.434  0.1244  0.0608  0.2436
29897SOL    HW293608   7.126   9.188   6.289  0.7157  0.3454  0.4327
29898SOL     OW93609   1.014   0.382   3.433  0.0554 -0.6264 -0.2501
29898SOL    HW193610   0.947   0.428   3.382  0.5872  0.5591  0.0931
29898SOL    HW293611   1.056   0.323   3.370 -1.4530 -1.5893 -0.4136
29899SOL     OW93612   9.470   8.963   5.846 -0.8986 -0.3449  0.0232
29899SOL    HW193613   9.488   8.995   5.934 -1.1756 -0.5930  0.1677
29899SOL    HW293614   9.420   9.033   5.804 -1.1432 -0.4073  0.2064
29900SOL     OW93615   0.085   9.516   0.299  0.2707 -0.0279 -0.1684
29900SOL    HW193616   0.125   9.524   0.386  0.5112 -1.2042 -0.1573
29900SOL    HW293617   0.090   9.423   0.279  1.0182  0.3246 -1.8167
29901SOL     OW93618   7.845   4.394   7.591 -0.6143 -0.2400  0.3097
29901SOL    HW193619   7.784   4.382   7.663 -0.3578 -2.7890  0.1884
29901SOL    HW293620   7.802   4.456   7.533 -1.0023  1.5604  2.4076
29902SOL     OW93621   8.023   7.893   3.418 -0.2738 -0.1164  0.1946
29902SOL    HW193622   8.044   7.909   3.510  0.0462  0.7309 -0.0178
29902SOL    HW293623   7.949   7.951   3.401  0.4914  0.7034 -0.4191
29903SOL     OW93624   1.575   3.765   1.043  0.0501  0.4115  0.1205
29903SOL    HW193625   1.528   3.840   1.079 -1.1661  0.9543 -2.3632
29903SOL    HW293626   1.648   3.803   0.994  0.4870 -0.1649  0.3068
29904SOL     OW93627   6.223   9.852   6.992 -0.4393 -0.1831 -0.3278
29904SOL    HW193628   6.212   9.885   6.903  1.4794 -0.2238 -0.6110
29904SOL    HW293629   6.184   9.919   7.048 -0.0141  0.7222 -1.0976
29905SOL     OW93630   1.009   3.859   5.110  0.4561 -0.8676  0.3514
29905SOL    HW193631   1.021   3.847   5.016 -0.0153 -1.2143  0.3289
29905SOL    HW293632   1.039   3.776   5.148  2.2454 -0.1244  0.6595
29906SOL     OW93633   9.197   7.225   8.602 -0.1737  0.3661 -0.3835
29906SOL    HW193634   9.188   7.180   8.518 -0.3139  1.6127 -1.0553
29906SOL    HW293635   9.291   7.228   8.618 -0.1540 -0.0044 -0.4124
29907SOL     OW93636   8.504   9.244   2.084  0.2913 -0.4421 -0.2436
29907SOL    HW193637   8.592   9.274   2.064 -1.0165  3.1139 -1.5057
29907SOL    HW293638   8.469   9.216   1.999 -0.3756  0.0592 -0.1454
29908SOL     OW93639  10.071   3.682   4.689  0.1394 -0.3717  0.1649
29908SOL    HW193640  10.166   3.693   4.696  0.1675  0.5743 -1.2460
29908SOL    HW293641  10.060   3.611   4.626 -0.0987 -0.9491  0.8483
29909SOL     OW93642   4.338   6.878   0.081  0.0585 -0.1981 -0.0722
29909SOL    HW193643   4.362   6.856  -0.009  1.0617 -2.5580  0.6923
29909SOL    HW293644   4.410   6.933   0.112  0.8596 -1.2612 -0.0207
29910SOL     OW93645   3.702   8.618   7.228 -0.5134 -0.2592  0.2225
29910SOL    HW193646   3.780   8.632   7.282  0.3090 -1.7856 -0.5145
29910SOL    HW293647   3.723   8.658   7.144 -0.3080 -1.1312 -0.1452
29911SOL     OW93648   7.090   8.088   0.630 -0.3014 -0.3539  0.2374
29911SOL    HW193649   7.092   8.087   0.535 -0.8428 -0.0395  0.2227
29911SOL    HW293650   7.071   7.997   0.655 -1.3914 -0.2019  0.0120
29912SOL     OW93651   7.866   2.649   6.700 -0.0016  0.1513  0.1578
29912SOL    HW193652   7.820   2.578   6.654 -0.5238 -0.1612  1.1377
29912SOL    HW293653   7.901   2.704   6.630  0.8389 -1.3384 -0.6373
29913SOL     OW93654   8.328   0.160   0.088 -0.4007 -0.4931 -0.0598
29913SOL    HW193655   8.403   0.116   0.129 -0.7499 -0.4587  0.6347
29913SOL    HW293656   8.252   0.107   0.114 -0.6219 -0.5071 -0.7251
29914SOL     OW93657   9.692   6.455   9.505 -0.9810  0.3423  0.0447
29914SOL    HW193658   9.659   6.515   9.573 -1.7471  0.1293 -0.1318
29914SOL    HW293659   9.671   6.498   9.423 -1.7802 -0.2683 -0.0932
29915SOL     OW93660   2.126   4.536   7.166 -0.3900  0.0409 -0.6039
29915SOL    HW193661   2.058   4.529   7.233  0.2705 -0.9740 -0.0117
29915SOL    HW293662   2.098   4.609   7.110 -1.5361  0.1585  0.1017
29916SOL     OW93663   3.249   7.002   5.719  0.6494 -0.5115 -0.1908
29916SOL    HW193664   3.240   7.072   5.655 -0.7681 -0.9233 -0.4798
29916SOL    HW293665   3.259   7.046   5.803  0.0240  0.0476 -0.4041
29917SOL     OW93666   7.742   0.561   8.930  0.3275 -0.2491  0.0397
29917SOL    HW193667   7.771   0.473   8.910 -0.1402  0.2502 -3.5148
29917SOL    HW293668   7.647   0.559   8.914  0.6989  1.4635 -3.3190
29918SOL     OW93669   9.030   9.770   4.408 -0.0661 -0.4060 -0.2700
29918SOL    HW193670   9.042   9.865   4.408 -0.1441 -0.3262 -2.8614
29918SOL    HW293671   9.094   9.737   4.471 -1.5174  1.4565  2.3436
29919SOL     OW93672   6.872   4.806   2.155 -0.8199  0.2314 -0.0704
29919SOL    HW193673   6.793   4.753   2.158 -0.3108 -0.5470 -0.2002
29919SOL    HW293674   6.932   4.758   2.098 -0.6040  1.3108 -0.7835
29920SOL     OW93675   9.231   7.088   9.088  0.1366  0.4378 -0.1637
29920SOL    HW193676   9.150   7.139   9.080 -1.3879 -1.1998  3.1629
29920SOL    HW293677   9.284   7.136   9.151 -0.2252 -0.7449  1.0729
29921SOL     OW93678   9.410   9.508   9.211  0.1694  0.4039 -0.1048
29921SOL    HW193679   9.375   9.595   9.193  0.3093  0.8169  1.4681
29921SOL    HW293680   9.462   9.519   9.290 -3.1051 -1.8248  2.6390
29922SOL     OW93681   4.810   2.810  10.183  0.0747  0.1012  0.1641
29922SOL    HW193682   4.794   2.721  10.214 -0.3247  0.5316  1.2358
29922SOL    HW293683   4.823   2.801  10.089 -0.1029 -1.0716  0.2435
29923SOL     OW93684   0.037   8.939   1.145 -0.5440 -0.3789  0.4912
29923SOL    HW193685  -0.043   8.910   1.101  0.7769 -2.0133 -0.9387
29923SOL    HW293686   0.101   8.870   1.127  1.5705  1.4778  0.4809
29924SOL     OW93687   0.823   6.940   2.634  0.1810  0.3776 -0.2463
29924SOL    HW193688   0.806   7.018   2.686  2.4819  0.9573 -0.2562
29924SOL    HW293689   0.914   6.949   2.605 -0.5310 -0.6286 -3.1812
29925SOL     OW93690   2.969   2.432   2.776 -0.0748 -0.0730  0.1193
29925SOL    HW193691   3.030   2.503   2.755 -0.5772 -0.4406 -3.2318
29925SOL    HW293692   2.888   2.456   2.730 -1.4336 -1.1658  1.7996
29926SOL     OW93693   0.515   5.788   2.494 -0.5476 -0.0987  0.3308
29926SOL    HW193694   0.490   5.790   2.587  0.4771  0.3725  0.6070
29926SOL    HW293695   0.564   5.869   2.481 -0.5877 -0.2206 -0.6034
29927SOL     OW93696   3.531   8.569   0.884 -0.0123  0.4826 -0.3603
29927SOL    HW193697   3.475   8.510   0.934  1.9807  0.6830  2.2837
29927SOL    HW293698   3.614   8.571   0.932  0.4215  4.5042 -0.9357
29928SOL     OW93699   6.344   8.587   3.832 -0.2400  0.4448  0.1132
29928SOL    HW193700   6.314   8.496   3.826  1.2528 -0.1412  1.0810
29928SOL    HW293701   6.426   8.589   3.782  1.1293  0.5880  2.2557
29929SOL     OW93702   5.469   4.512   0.632  0.0631  0.3902  0.5394
29929SOL    HW193703   5.506   4.481   0.550  1.8689 -1.8636  2.0851
29929SOL    HW293704   5.381   4.475   0.635  0.4581 -0.6146  0.1644
29930SOL     OW93705   6.487   4.754   3.443  0.5204 -0.1843 -0.0304
29930SOL    HW193706   6.421   4.803   3.396  0.7524 -0.9069 -1.1417
29930SOL    HW293707   6.560   4.745   3.381  1.0091 -0.7697  0.6086
29931SOL     OW93708   1.932   1.823   5.533 -0.1608 -0.1046 -0.5807
29931SOL    HW193709   2.024   1.846   5.521 -0.4713  2.9469  1.5395
29931SOL    HW293710   1.913   1.848   5.624 -2.4450 -3.2402 -0.0262
29932SOL     OW93711   4.521  10.023   7.048  0.1622 -0.3603 -0.3253
29932SOL    HW193712   4.572  10.000   6.970  0.2282 -0.5520 -0.2264
29932SOL    HW293713   4.571  10.094   7.089  0.3341 -0.5264 -0.2456
29933SOL     OW93714   9.432   0.567   4.766 -0.1585 -0.3870  0.0855
29933SOL    HW193715   9.481   0.485   4.757  0.3147  0.0920 -2.2679
29933SOL    HW293716   9.372   0.551   4.840  2.9439 -1.2386  2.6417
29934SOL     OW93717   4.799   8.697   6.420 -0.1784 -0.0208 -0.5734
29934SOL    HW193718   4.742   8.771   6.399 -0.3218  0.2372  0.6392
29934SOL    HW293719   4.766   8.625   6.366 -0.4566  0.6121 -1.2725
29935SOL     OW93720   2.094   7.758   0.847 -0.2164 -0.3512  0.0039
29935SOL    HW193721   2.117   7.820   0.778  0.5766 -0.6715 -0.0304
29935SOL    HW293722   1.999   7.763   0.853 -0.2197  0.3197 -0.5094
29936SOL     OW93723   4.526   4.865   6.424  0.2197  0.4605 -0.2865
29936SOL    HW193724   4.489   4.843   6.509  1.3160 -1.0343 -0.1679
29936SOL    HW293725   4.483   4.947   6.400 -0.4033  0.7008  1.5139
29937SOL     OW93726   9.031   1.972   3.222  0.2157 -0.1965 -0.0550
29937SOL    HW193727   9.033   1.997   3.130 -1.2686 -0.2282 -0.1194
29937SOL    HW293728   9.059   1.881   3.223 -0.0823 -0.2980 -0.5177
29938SOL     OW93729   8.582   6.383   4.033 -0.1401  0.1081 -0.3100
29938SOL    HW193730   8.538   6.393   3.948 -1.7150 -1.9056  0.1741
29938SOL    HW293731   8.601   6.290   4.039  0.8549  0.3756  1.1348
29939SOL     OW93732   6.310   3.058   5.193 -0.1998 -0.1392  0.3082
29939SOL    HW193733   6.352   3.142   5.214  0.5002 -0.6225  0.8769
29939SOL    HW293734   6.362   2.993   5.239 -0.4938 -0.9411 -0.4681
29940SOL     OW93735   0.661   4.798   6.259 -0.6255 -0.4129 -0.0254
29940SOL    HW193736   0.710   4.781   6.179 -0.0347 -0.4776  0.3373
29940SOL    HW293737   0.569   4.787   6.235 -0.4167 -1.1257 -0.5217
29941SOL     OW93738   2.287   4.096   6.090  0.1835 -0.5522 -0.3512
29941SOL    HW193739   2.246   4.135   6.012 -0.9132 -2.2070 -0.6449
29941SOL    HW293740   2.219   4.098   6.157  0.9219  0.2803  0.3923
29942SOL     OW93741   0.586   9.393   5.907 -0.1053  0.2028 -0.2315
29942SOL    HW193742   0.617   9.469   5.858 -0.8512  1.3224  0.9648
29942SOL    HW293743   0.655   9.377   5.972  0.7935 -1.1625 -1.4444
29943SOL     OW93744   6.239   5.487   8.327  0.2762 -0.6798  0.2389
29943SOL    HW193745   6.156   5.479   8.281  0.6982 -1.0186 -0.4827
29943SOL    HW293746   6.249   5.405   8.374  1.4976 -1.8475 -1.9111
29944SOL     OW93747  10.078   5.156   1.963  0.2137  0.1149  0.1266
29944SOL    HW193748  10.020   5.216   1.917 -0.5059 -0.3888  0.3661
29944SOL    HW293749  10.104   5.092   1.897  2.2317  1.5028 -0.5575
29945SOL     OW93750   2.654   0.024   7.216 -0.7324 -0.1750 -0.2975
29945SOL    HW193751   2.741   0.009   7.254 -0.1324 -0.5568 -1.7546
29945SOL    HW293752   2.672   0.053   7.126 -2.0819  1.3228 -0.1344
29946SOL     OW93753   2.164   1.514   7.865 -0.0657  0.0235 -0.0817
29946SOL    HW193754   2.190   1.455   7.935  1.5832  1.0206  0.1995
29946SOL    HW293755   2.206   1.478   7.787 -1.7111 -0.9544 -0.5618
29947SOL     OW93756   9.470   5.148   6.222  0.4519 -0.0417  0.1613
29947SOL    HW193757   9.426   5.228   6.191  0.1441  0.0218  0.7417
29947SOL    HW293758   9.563   5.168   6.215  0.3772  0.3297  0.1954
29948SOL     OW93759   9.469   1.449   3.301 -0.6971  0.1251 -0.3935
29948SOL    HW193760   9.509   1.477   3.219 -0.0686 -0.8555 -0.4312
29948SOL    HW293761   9.441   1.531   3.343  1.2515  0.8534 -0.4093
29949SOL     OW93762   1.495   0.205   5.595  0.4357  0.0561  0.0079
29949SOL    HW193763   1.484   0.168   5.683 -0.1390  0.4948  0.1296
29949SOL    HW293764   1.502   0.129   5.537  1.7028 -0.2397  0.5290
29950SOL     OW93765   8.324   5.816   3.932  0.3909 -0.4170  0.3788
29950SOL    HW193766   8.236   5.794   3.962  0.9299 -3.2057  0.1856
29950SOL    HW293767   8.311   5.852   3.844 -0.4839 -3.3737 -0.8201
29951SOL     OW93768   0.839   7.159   2.000  0.2963 -0.1730  0.4267
29951SOL    HW193769   0.877   7.088   2.052  0.4119 -0.0230  0.5467
29951SOL    HW293770   0.905   7.180   1.935  0.5178  0.2456  0.7820
29952SOL     OW93771   6.604   4.039   2.599 -0.1049  0.3057 -0.2479
29952SOL    HW193772   6.569   4.108   2.542 -0.0142 -0.5541 -1.3688
29952SOL    HW293773   6.691   4.021   2.564  1.2731  1.8966  2.0504
29953SOL     OW93774   2.384   8.353   3.635 -0.4005 -0.4737 -0.6357
29953SOL    HW193775   2.346   8.414   3.572  1.7917  0.9576 -0.6678
29953SOL    HW293776   2.418   8.408   3.705  1.1909 -1.6837 -0.4027
29954SOL     OW93777   7.340  10.150   5.182 -0.1858  0.0122  0.5934
29954SOL    HW193778   7.273  10.090   5.216  0.8585 -0.4468  1.9400
29954SOL    HW293779   7.358  10.210   5.254 -1.3749  2.1948 -0.8011
29955SOL     OW93780   6.180   9.230   6.760 -0.0666  0.8546  0.1469
29955SOL    HW193781   6.177   9.143   6.721  1.0819  1.4288 -1.3219
29955SOL    HW293782   6.271   9.241   6.787 -0.3459  1.3606  0.9021
29956SOL     OW93783   4.544   4.279   9.055 -0.1461  0.1177 -0.2683
29956SOL    HW193784   4.580   4.203   9.009  1.9379  0.0736  1.2577
29956SOL    HW293785   4.465   4.246   9.097  0.8176 -1.3306  0.5282
29957SOL     OW93786   2.931   7.315   0.378  0.5451  0.3488 -0.2386
29957SOL    HW193787   2.885   7.250   0.325 -0.3584 -1.6054  2.6711
29957SOL    HW293788   2.923   7.396   0.329 -0.0527 -1.2876 -3.1004
29958SOL     OW93789   9.184   6.505   3.483 -0.2959  0.5893  0.2997
29958SOL    HW193790   9.106   6.559   3.471 -0.5797 -0.3793 -3.1819
29958SOL    HW293791   9.249   6.544   3.425  1.4060  0.5032  2.0521
29959SOL     OW93792   7.716   1.472   1.800  0.2890 -0.3563  0.2082
29959SOL    HW193793   7.681   1.551   1.759  0.9919 -0.3916 -0.4815
29959SOL    HW293794   7.801   1.498   1.835  0.5191 -0.7909 -0.0106
29960SOL     OW93795   4.764   5.919   9.178  0.3587 -0.1544 -0.2050
29960SOL    HW193796   4.773   5.898   9.086  0.5467  0.6098 -0.3705
29960SOL    HW293797   4.770   5.835   9.223 -0.3785 -0.5985 -0.9266
29961SOL     OW93798   3.861   5.231   4.475 -0.1908  0.1546 -0.4352
29961SOL    HW193799   3.908   5.308   4.508 -2.0981  1.1647  0.0229
29961SOL    HW293800   3.855   5.173   4.551  1.0557 -0.4009 -0.7257
29962SOL     OW93801   7.080   9.331   4.327 -0.4178 -0.2224 -0.3808
29962SOL    HW193802   7.141   9.266   4.363  1.5687  1.4289 -0.6000
29962SOL    HW293803   7.056   9.385   4.403  0.8008  0.9441 -0.7812
29963SOL     OW93804   7.962   6.684   7.678  0.2079  0.8349 -0.4949
29963SOL    HW193805   8.000   6.750   7.620 -0.8977  0.3890 -1.7566
29963SOL    HW293806   7.890   6.646   7.628 -0.6958  0.3364  1.1259
29964SOL     OW93807   4.932   4.813   8.187 -0.0252 -0.7212  0.0667
29964SOL    HW193808   4.958   4.854   8.270 -4.3146 -1.0066  1.8421
29964SOL    HW293809   4.979   4.730   8.186 -0.7821 -1.3337  3.0522
29965SOL     OW93810   6.736   7.923   0.558 -0.0243 -0.4239  0.0954
29965SOL    HW193811   6.807   7.940   0.619  1.9883  0.0603 -2.2231
29965SOL    HW293812   6.729   8.003   0.505 -2.5665 -0.3303  0.4573
29966SOL     OW93813   2.630   4.919   9.561  0.3000 -0.1224  0.6849
29966SOL    HW193814   2.556   4.866   9.529  0.7225  0.2330 -0.9862
29966SOL    HW293815   2.607   5.008   9.536 -0.3601  0.5410  3.4017
29967SOL     OW93816   7.893   9.070   3.758  0.2432 -0.1975 -0.1424
29967SOL    HW193817   7.798   9.083   3.747  0.2095 -2.0135 -2.8469
29967SOL    HW293818   7.933   9.129   3.694  0.9046 -0.3329  0.1355
29968SOL     OW93819   7.588   6.368   8.609  0.1881 -0.0756 -0.0534
29968SOL    HW193820   7.661   6.380   8.669  0.4339 -1.2064 -0.0965
29968SOL    HW293821   7.563   6.456   8.582  2.0533  0.2892 -0.6739
29969SOL     OW93822   2.895   3.210   4.839  0.4473  0.2148 -0.6700
29969SOL    HW193823   2.976   3.164   4.860  1.0854  1.0411 -1.2770
29969SOL    HW293824   2.922   3.300   4.823 -0.6770  0.6342 -0.2887
29970SOL     OW93825   0.097   4.121   8.388 -0.4155 -0.2434  0.5351
29970SOL    HW193826   0.170   4.058   8.382  1.2524  1.6475  0.0786
29970SOL    HW293827   0.059   4.123   8.301  2.2529  2.3994 -0.7083
29971SOL     OW93828   0.603   4.962   2.939  0.1640 -0.4856  0.0438
29971SOL    HW193829   0.617   5.057   2.938 -0.3131 -0.4089 -0.9812
29971SOL    HW293830   0.687   4.926   2.968  0.0820  0.2739  1.3058
29972SOL     OW93831   2.325   1.348   9.996  0.3210 -0.2630  0.8707
29972SOL    HW193832   2.264   1.377   9.928  1.8635 -0.0040 -0.4566
29972SOL    HW293833   2.305   1.404  10.072 -1.7598 -0.8917  0.8353
29973SOL     OW93834   3.473   4.527   1.648 -0.2806 -0.5413  0.4368
29973SOL    HW193835   3.467   4.435   1.621 -1.5109 -0.0312 -1.1564
29973SOL    HW293836   3.558   4.556   1.615 -1.4140 -0.1468 -2.5147
29974SOL     OW93837   8.774   5.550   7.438 -0.6219  0.1543 -0.0649
29974SOL    HW193838   8.853   5.509   7.403 -1.1089  0.8036 -2.0560
29974SOL    HW293839   8.714   5.555   7.363 -3.3970 -2.1839  1.8076
29975SOL     OW93840   4.935   7.193   4.551 -0.3529  0.1455 -0.1334
29975SOL    HW193841   4.971   7.137   4.620  1.3137  0.2969 -0.8344
29975SOL    HW293842   4.843   7.205   4.575  0.4660  1.3707  2.8838
29976SOL     OW93843   2.462   5.442   6.092  0.1483  0.3603  0.3955
29976SOL    HW193844   2.477   5.520   6.039 -1.6977  0.8014  0.4610
29976SOL    HW293845   2.398   5.469   6.158 -0.0310 -1.0297  0.8288
29977SOL     OW93846   0.723   7.901   6.795  0.2737  0.8514 -0.0346
29977SOL    HW193847   0.762   7.932   6.877  0.4140  0.7272 -0.0540
29977SOL    HW293848   0.687   7.815   6.817 -1.5879  1.7179  0.4558
29978SOL     OW93849   3.016   1.007   0.733  0.2066 -0.1306  0.2181
29978SOL    HW193850   3.028   0.913   0.748 -0.4820 -0.2997 -0.2476
29978SOL    HW293851   3.105   1.043   0.736  0.6754 -1.0545 -1.2400
29979SOL     OW93852   2.340   4.201   7.665  0.4479 -0.6977 -0.6930
29979SOL    HW193853   2.331   4.289   7.702  2.3560  0.2900 -2.3991
29979SOL    HW293854   2.250   4.171   7.651 -0.2365  1.0547 -0.2775
29980SOL     OW93855   9.960   2.015   1.780 -0.0538 -0.5704  0.6327
29980SOL    HW193856  10.026   2.047   1.842  0.8596  0.9610 -1.0243
29980SOL    HW293857   9.970   1.919   1.782  2.0819 -0.3995  0.6445
29981SOL     OW93858  10.084   3.756   6.950  0.2647 -0.0977  0.3556
29981SOL    HW193859  10.165   3.718   6.918 -0.3859  1.8265 -4.3162
29981SOL    HW293860  10.110   3.839   6.990  0.6390  1.6028 -3.1266
29982SOL     OW93861   7.122   1.825   1.044  0.6002  0.0929  0.0298
29982SOL    HW193862   7.187   1.895   1.043 -0.4717  1.1432  0.6903
29982SOL    HW293863   7.046   1.862   0.998  0.6555 -1.3271 -1.2902
29983SOL     OW93864   2.939   4.289   5.864  0.5529  0.4588  0.2465
29983SOL    HW193865   2.989   4.208   5.869 -1.4807 -0.9117 -0.1807
29983SOL    HW293866   2.897   4.296   5.950 -1.0726 -0.2307 -0.4462
29984SOL     OW93867   8.412   9.552   7.601  0.3626  0.4449  0.0662
29984SOL    HW193868   8.341   9.489   7.588  1.6173 -1.0645  0.3412
29984SOL    HW293869   8.475   9.531   7.532  1.4104  0.5056  0.9898
29985SOL     OW93870   3.180   1.112   7.829  0.3808 -0.1050 -0.3435
29985SOL    HW193871   3.203   1.141   7.740  0.5415  0.6905 -0.0528
29985SOL    HW293872   3.091   1.078   7.820  1.2293 -2.2884 -1.2790
29986SOL     OW93873   1.341   8.682   1.654 -0.1441  0.1626  1.0977
29986SOL    HW193874   1.316   8.629   1.579  0.3196  2.3706 -0.7323
29986SOL    HW293875   1.434   8.663   1.666 -0.7718 -2.3005  3.0401
29987SOL     OW93876   9.167   9.094   7.085  0.0229 -0.1168 -0.0599
29987SOL    HW193877   9.221   9.051   7.152 -0.8558 -0.5261  0.3981
29987SOL    HW293878   9.138   9.023   7.028  0.8122  0.2388 -0.9321
29988SOL     OW93879   6.071   7.349   3.391 -0.6420  0.3027  0.3927
29988SOL    HW193880   6.028   7.344   3.476 -1.0619 -0.1821  0.1598
29988SOL    HW293881   6.024   7.286   3.336  0.7144 -0.6559  0.2772
29989SOL     OW93882  10.029   1.478   4.169 -0.2979  0.3295 -0.0959
29989SOL    HW193883   9.995   1.532   4.240 -0.6041 -0.1149  0.0928
29989SOL    HW293884  10.114   1.517   4.149  0.3071 -0.2299  1.2736
29990SOL     OW93885   5.241   5.753   1.519  0.0127  0.1580 -0.2482
29990SOL    HW193886   5.227   5.669   1.476  0.1577  0.6320 -1.2590
29990SOL    HW293887   5.336   5.767   1.516 -0.0520  0.5755 -0.5343
29991SOL     OW93888   6.504   7.942   3.407  0.0923 -0.4951 -0.1315
29991SOL    HW193889   6.543   7.996   3.476  0.2687  0.1216 -0.7053
29991SOL    HW293890   6.561   7.955   3.331 -0.7253 -0.2874 -0.7251
29992SOL     OW93891   9.169   7.869   9.812 -0.4244  0.0222  0.4007
29992SOL    HW193892   9.081   7.851   9.779 -0.6272 -0.4305  1.1552
29992SOL    HW293893   9.195   7.950   9.768 -1.2642  0.2247  0.2523
29993SOL     OW93894   1.692   7.292   7.340  0.1440  0.1979 -0.3075
29993SOL    HW193895   1.769   7.241   7.314  0.1939 -0.6519  1.3630
29993SOL    HW293896   1.725   7.381   7.351  0.9532 -0.1917  0.5627
29994SOL     OW93897   5.227   9.156   4.259  0.3289 -0.3714 -0.4826
29994SOL    HW193898   5.196   9.245   4.275 -0.9767 -0.5845 -1.6665
29994SOL    HW293899   5.204   9.108   4.339  0.5267  0.2034 -0.0696
29995SOL     OW93900   4.832   1.584   8.216  0.0165 -0.2519 -0.1772
29995SOL    HW193901   4.755   1.574   8.271  0.4298  2.0529  0.9068
29995SOL    HW293902   4.894   1.633   8.269  0.6950  1.4846 -2.4168
29996SOL     OW93903   5.239   7.189   5.623  0.0444 -0.4517  0.3036
29996SOL    HW193904   5.308   7.252   5.602 -1.0733  0.8259  0.2457
29996SOL    HW293905   5.158   7.233   5.594 -0.8055 -1.8267  0.4956
29997SOL     OW93906   6.481   0.629   2.917 -0.7061  0.9057  0.0496
29997SOL    HW193907   6.385   0.630   2.912 -0.7201  2.4287 -0.0861
29997SOL    HW293908   6.510   0.669   2.835 -0.0045  1.5011  0.5673
29998SOL     OW93909   3.349   0.199   3.078 -0.3963 -0.1058  0.2207
29998SOL    HW193910   3.346   0.260   3.152 -1.6232  0.4310 -0.2437
29998SOL    HW293911   3.340   0.113   3.118 -2.6123  0.2447  0.6506
29999SOL     OW93912   6.025   5.431   5.263 -0.1664  0.1360  0.0207
29999SOL    HW193913   6.050   5.345   5.229  1.0689  0.0541  1.0662
29999SOL    HW293914   6.014   5.485   5.185  2.1114 -0.1581 -0.5823
30000SOL     OW93915   4.600   4.320   6.228  0.0396 -0.0541 -0.0617
30000SOL    HW193916   4.606   4.238   6.179 -1.4022 -0.2546  0.0445
30000SOL    HW293917   4.516   4.314   6.274 -0.0772  1.4746 -0.0310
30001SOL     OW93918   2.689   6.841   5.850 -0.0597  0.6217 -0.0532
30001SOL    HW193919   2.754   6.793   5.798  0.5401 -0.1797  1.3982
30001SOL    HW293920   2.605   6.815   5.812  0.2428 -1.6536  0.6828
30002SOL     OW93921   5.445   5.663   5.918  0.4084  0.5556 -0.1139
30002SOL    HW193922   5.496   5.721   5.975  1.1030  0.6246 -0.7888
30002SOL    HW293923   5.482   5.576   5.934 -0.5045  0.3077  0.7561
30003SOL     OW93924   3.982   2.368   5.829  0.1958 -0.5939  0.5699
30003SOL    HW193925   3.915   2.330   5.773  0.7714 -0.1182 -0.4792
30003SOL    HW293926   4.022   2.293   5.873 -0.8945 -0.8938  1.0959
30004SOL     OW93927   4.132   4.455   2.654  0.5339 -0.5052 -0.1700
30004SOL    HW193928   4.065   4.517   2.626  0.0024 -1.1039 -0.2575
30004SOL    HW293929   4.150   4.478   2.745 -1.1024 -1.4265  0.4487
30005SOL     OW93930   4.522   4.146   4.941  0.1637  0.2170  0.4394
30005SOL    HW193931   4.567   4.107   5.017  0.8559  2.9870  1.5670
30005SOL    HW293932   4.540   4.085   4.869  3.2832 -0.3370  1.5132
30006SOL     OW93933   5.457   1.380   9.574  0.3268 -0.1108  0.3457
30006SOL    HW193934   5.385   1.342   9.625 -0.7320  1.9026  0.4291
30006SOL    HW293935   5.536   1.348   9.618 -0.5337 -0.6607  1.5472
30007SOL     OW93936   9.772   5.227   4.472  0.9244  0.4994  0.6554
30007SOL    HW193937   9.837   5.298   4.473 -0.3044  1.6830 -0.1216
30007SOL    HW293938   9.688   5.271   4.484 -0.0138 -0.6483 -1.2122
30008SOL     OW93939   7.453   6.389   0.245  0.2038  0.2321 -0.0998
30008SOL    HW193940   7.532   6.388   0.299 -0.5999 -0.6414  1.1073
30008SOL    HW293941   7.474   6.333   0.170  1.4227  1.6730 -0.8948
30009SOL     OW93942   8.843   2.076   5.374  0.0197  0.8459  0.1098
30009SOL    HW193943   8.907   2.049   5.440  1.0477  0.6035 -0.9395
30009SOL    HW293944   8.808   1.993   5.340  0.2875  0.9337 -0.3885
30010SOL     OW93945   8.177   5.616   7.054 -0.4795  0.6233 -0.4224
30010SOL    HW193946   8.114   5.633   7.124 -0.0508  0.2503  0.0694
30010SOL    HW293947   8.176   5.695   7.001 -1.3544  0.6229 -0.4196
30011SOL     OW93948  10.153   0.561   5.384  0.2852 -0.0685 -0.2769
30011SOL    HW193949  10.141   0.479   5.336  0.3573 -0.4729  0.3853
30011SOL    HW293950  10.247   0.577   5.379  0.1368  0.5878 -1.3795
30012SOL     OW93951   7.107   0.424   0.693 -0.1430  0.4116  0.2561
30012SOL    HW193952   7.076   0.475   0.618 -0.3207  0.1367  0.1415
30012SOL    HW293953   7.037   0.360   0.709  0.6166 -0.6093 -0.3826
30013SOL     OW93954   9.621   8.304   8.998 -0.5356 -0.2604  1.1593
30013SOL    HW193955   9.529   8.328   9.009 -0.9308 -1.0949 -0.1477
30013SOL    HW293956   9.628   8.275   8.907  0.9063 -0.7068  1.3875
30014SOL     OW93957   7.490   0.363   1.387 -0.6663 -0.3711 -0.4853
30014SOL    HW193958   7.431   0.341   1.459 -0.3252 -2.0948 -0.6698
30014SOL    HW293959   7.561   0.299   1.394  1.1877  1.6236 -0.3006
30015SOL     OW93960   6.920   8.129   9.830  0.1684 -0.0360  1.0544
30015SOL    HW193961   6.879   8.046   9.852  1.0409 -0.5328  0.8390
30015SOL    HW293962   7.001   8.105   9.787  0.6688  0.9322  1.4323
30016SOL     OW93963   3.856   8.199   7.819 -0.5007  0.4031  0.5263
30016SOL    HW193964   3.825   8.246   7.897  1.1352  1.4722  0.5820
30016SOL    HW293965   3.943   8.235   7.803  0.1451 -1.4708 -0.4362
30017SOL     OW93966   9.842   9.936   3.755 -0.6090 -0.0255 -0.1982
30017SOL    HW193967   9.849   9.975   3.668 -1.8415  0.0731 -0.2744
30017SOL    HW293968   9.750   9.908   3.761 -0.1723 -1.3924  0.4925
30018SOL     OW93969   7.509   2.190   0.990  0.1407  0.4281 -0.8860
30018SOL    HW193970   7.450   2.242   0.935 -0.1142  1.8213  0.6356
30018SOL    HW293971   7.559   2.255   1.039  0.8025 -0.7662  0.0787
30019SOL     OW93972   9.728   9.321   2.353  0.0124  0.3994  0.8540
30019SOL    HW193973   9.655   9.280   2.399 -1.3213  1.4347 -0.2432
30019SOL    HW293974   9.716   9.415   2.368 -0.4753  0.7775 -1.5274
30020SOL     OW93975   7.349   6.384   9.396  0.4008 -0.5766 -0.2422
30020SOL    HW193976   7.272   6.439   9.386  1.5784  0.9188 -1.5639
30020SOL    HW293977   7.354   6.335   9.314  0.4923 -1.1975  0.1218
30021SOL     OW93978   1.757   5.910   4.332  0.0273  0.0378 -0.3183
30021SOL    HW193979   1.813   5.837   4.306 -2.3174 -1.5340 -1.3794
30021SOL    HW293980   1.749   5.901   4.427  0.0343 -0.9243 -0.3980
30022SOL     OW93981   7.443   7.984   2.269 -0.5572 -0.4434  0.3485
30022SOL    HW193982   7.394   7.966   2.350 -1.3125  0.2237  0.0515
30022SOL    HW293983   7.499   8.059   2.291  0.1153 -1.0008  0.5901
30023SOL     OW93984   7.735   0.807   9.480 -0.0300 -0.2214  0.3841
30023SOL    HW193985   7.730   0.713   9.465  1.5362 -0.1081 -1.1912
30023SOL    HW293986   7.661   0.843   9.430  0.5775 -0.4726 -0.7142
30024SOL     OW93987   2.382   3.854   3.002 -0.1079  0.2971 -0.0984
30024SOL    HW193988   2.393   3.948   3.019 -0.5027  0.5285 -1.0809
30024SOL    HW293989   2.410   3.842   2.912  0.2633 -0.6007  0.1275
30025SOL     OW93990   2.049   1.434   4.423 -0.2036 -0.0677  0.0147
30025SOL    HW193991   2.082   1.449   4.334  0.7804  0.7658  0.5045
30025SOL    HW293992   1.968   1.386   4.410 -1.3969  2.1824 -1.4655
30026SOL     OW93993   3.674   8.223   8.858 -0.1723 -0.3336  0.2436
30026SOL    HW193994   3.755   8.260   8.895  1.6794 -0.6423 -3.0704
30026SOL    HW293995   3.697   8.132   8.837 -1.1287 -0.2505 -1.3150
30027SOL     OW93996   4.760   0.668  10.135 -0.4232 -0.1051  0.4137
30027SOL    HW193997   4.835   0.725  10.121  0.0933 -0.4874  1.5040
30027SOL    HW293998   4.749   0.621  10.052  0.5623 -0.0687  0.2510
30028SOL     OW93999   0.768   6.468   1.124  0.0193 -0.3243 -1.0540
30028SOL    HW194000   0.727   6.422   1.052  0.3430  0.6909 -1.9160
30028SOL    HW294001   0.778   6.558   1.092  2.1516 -0.3512 -0.5682
30029SOL     OW94002   2.486   8.558   8.501 -0.1138 -0.4526  0.2199
30029SOL    HW194003   2.426   8.620   8.459  1.4035  1.9978  1.4663
30029SOL    HW294004   2.521   8.507   8.429 -1.4215  0.1112 -0.8683
30030SOL     OW94005   4.722   5.513   6.220  0.0826  0.1320 -0.3900
30030SOL    HW194006   4.770   5.431   6.219 -0.5110 -0.2218 -1.1104
30030SOL    HW294007   4.658   5.504   6.149 -0.1709  1.1036 -0.2988
30031SOL     OW94008   6.304   1.050   9.041  0.0932 -0.2751  0.0729
30031SOL    HW194009   6.330   0.976   9.096 -0.4287  1.6038  3.0502
30031SOL    HW294010   6.258   1.110   9.100 -0.4996  1.9621 -2.4316
30032SOL     OW94011   0.220   0.326   9.134  0.5227 -0.3872  0.1416
30032SOL    HW194012   0.258   0.309   9.220  0.9356 -0.3010 -0.0194
30032SOL    HW294013   0.128   0.347   9.151 -0.1775 -3.1934  0.3317
30033SOL     OW94014   9.571   2.967   4.885  0.0667 -0.0287  0.0615
30033SOL    HW194015   9.487   2.958   4.930  0.8403  0.6049  1.7568
30033SOL    HW294016   9.562   3.045   4.832 -0.3977  0.0893  0.3082
30034SOL     OW94017   5.913   8.207   4.491  0.0264  0.2613 -0.2557
30034SOL    HW194018   5.947   8.123   4.460  0.5325 -0.4211  2.0164
30034SOL    HW294019   5.984   8.269   4.472 -0.4896  0.3238 -2.2780
30035SOL     OW94020   3.558   5.594   6.630 -0.1450 -0.0311 -0.4051
30035SOL    HW194021   3.577   5.544   6.709 -0.0155  1.0349  0.2679
30035SOL    HW294022   3.544   5.684   6.662 -0.3222  0.3673 -1.5640
30036SOL     OW94023   9.514   8.469   0.662 -0.5775  0.6508  0.1372
30036SOL    HW194024   9.520   8.496   0.753 -0.8796 -0.0142  0.3581
30036SOL    HW294025   9.589   8.412   0.648 -0.2914  1.0939 -0.1528
30037SOL     OW94026   0.977   9.234   1.129 -0.2413  0.3200 -0.0764
30037SOL    HW194027   0.958   9.146   1.161  0.5664 -0.1500 -0.8288
30037SOL    HW294028   1.019   9.219   1.044 -1.3496  1.4810 -0.8496
30038SOL     OW94029   9.111   7.322   7.450 -0.0205 -0.1693  0.7422
30038SOL    HW194030   9.173   7.292   7.517  0.3376 -1.2295 -0.0314
30038SOL    HW294031   9.164   7.331   7.371 -0.9306 -1.6570 -0.0790
30039SOL     OW94032   6.136   2.503   7.900 -0.5110  0.0152  0.3052
30039SOL    HW194033   6.172   2.443   7.965  1.8943  1.3412  0.2918
30039SOL    HW294034   6.131   2.451   7.820  0.8683 -0.4011  0.4601
30040SOL     OW94035   5.158   7.741   5.437  0.1960 -0.1457 -0.2527
30040SOL    HW194036   5.072   7.742   5.479  1.4002  1.1239  2.4844
30040SOL    HW294037   5.183   7.648   5.435 -1.0939 -0.4975 -0.8250
30041SOL     OW94038   1.933   6.641   6.159 -0.1138 -0.3718  0.7811
30041SOL    HW194039   1.877   6.714   6.133 -1.9131 -1.8575  0.3150
30041SOL    HW294040   2.013   6.653   6.107  0.5076  2.3516  2.2048
30042SOL     OW94041   0.664   1.479   2.382  0.8973 -0.5749 -0.5791
30042SOL    HW194042   0.650   1.412   2.315 -1.8143  0.0495 -0.7684
30042SOL    HW294043   0.621   1.444   2.460  1.1533  0.1038 -0.1283
30043SOL     OW94044   4.469   1.657   8.151 -0.2411 -0.4428  0.2894
30043SOL    HW194045   4.456   1.580   8.206  0.0361 -0.5333  0.2313
30043SOL    HW294046   4.425   1.636   8.069  0.9295 -1.0846 -0.2093
30044SOL     OW94047   1.508   6.826   7.857  0.8735  0.1406  0.6290
30044SOL    HW194048   1.527   6.769   7.931 -0.1478  0.5500  1.2303
30044SOL    HW294049   1.452   6.895   7.893 -1.2125 -0.6502 -0.8660
30045SOL     OW94050   1.092   0.459   8.243  0.2168  0.5687 -0.2869
30045SOL    HW194051   1.017   0.400   8.231  0.3232  0.2927  0.3312
30045SOL    HW294052   1.069   0.537   8.194 -0.3783  0.3962 -0.2959
30046SOL     OW94053   2.310   9.952   7.124 -0.1614  0.3573  0.0448
30046SOL    HW194054   2.359  10.034   7.134  0.3237 -0.0268  0.8944
30046SOL    HW294055   2.234   9.962   7.181 -0.4162  0.4396 -0.3014
30047SOL     OW94056   2.749   6.764   8.958  0.0042 -0.7556  0.6294
30047SOL    HW194057   2.789   6.847   8.931  0.5910 -1.1441  0.2970
30047SOL    HW294058   2.655   6.779   8.949  0.1096 -0.1300  0.5489
30048SOL     OW94059   4.331   0.116   5.481  0.2885 -0.3755 -0.3040
30048SOL    HW194060   4.288   0.126   5.566 -2.5548  0.7080 -1.7406
30048SOL    HW294061   4.309   0.027   5.453  0.4457 -0.4138 -0.3078
30049SOL     OW94062   9.806   3.376   1.713 -0.0003  0.9021 -0.2411
30049SOL    HW194063   9.766   3.291   1.692  0.5048  0.5990  0.0010
30049SOL    HW294064   9.758   3.407   1.790  0.5047  0.3371  0.3117
30050SOL     OW94065   4.157   5.879   5.344 -0.3187 -0.5513  0.7520
30050SOL    HW194066   4.181   5.971   5.333 -0.6094 -0.2300  2.4498
30050SOL    HW294067   4.222   5.845   5.406  0.0248 -1.6253 -0.1541
30051SOL     OW94068   5.828   2.784   0.273  0.0758 -0.0115  0.4117
30051SOL    HW194069   5.778   2.725   0.330 -1.1969 -0.5762 -1.2090
30051SOL    HW294070   5.829   2.740   0.188  0.7017  1.4484 -0.3745
30052SOL     OW94071   3.327   2.196   9.504 -0.2113  0.1585  0.2840
30052SOL    HW194072   3.280   2.120   9.470 -0.8543  0.2172  1.0129
30052SOL    HW294073   3.289   2.271   9.459  0.0538  0.1025 -0.0400
30053SOL     OW94074   7.644   8.123   1.135 -0.0632 -0.4394  0.1478
30053SOL    HW194075   7.649   8.200   1.193  0.3633  0.4400 -1.0259
30053SOL    HW294076   7.720   8.131   1.078 -1.3383 -0.3914 -1.6286
30054SOL     OW94077   4.049   8.926   3.255  0.5928  0.0631  0.1049
30054SOL    HW194078   4.136   8.946   3.290  0.6169 -2.2566  1.5344
30054SOL    HW294079   3.992   8.921   3.331 -1.3745  3.5306 -0.9199
30055SOL     OW94080   9.192   9.323   8.418  0.3799  0.4748  0.1004
30055SOL    HW194081   9.270   9.354   8.464  1.1273  0.1723 -0.9286
30055SOL    HW294082   9.172   9.393   8.355 -0.7177  0.9507  0.9606
30056SOL     OW94083   7.364   6.643   0.537 -0.2732  0.0342 -0.4884
30056SOL    HW194084   7.278   6.640   0.497 -0.5411  1.6223 -0.1160
30056SOL    HW294085   7.395   6.552   0.536 -1.9374 -0.5637 -0.6085
30057SOL     OW94086   0.917   8.746   5.488 -0.0954 -0.4402  0.2798
30057SOL    HW194087   0.998   8.740   5.539 -0.2877 -0.4887  0.5811
30057SOL    HW294088   0.947   8.745   5.396  0.3496  0.8524  0.3846
30058SOL     OW94089   7.579   0.864   4.725  0.4605 -0.2215  0.7381
30058SOL    HW194090   7.597   0.787   4.779  1.7354 -0.6489 -0.2342
30058SOL    HW294091   7.665   0.893   4.696 -0.1769 -0.3716 -1.5239
30059SOL     OW94092   3.648   5.587   1.518 -0.2562 -0.4455  0.1888
30059SOL    HW194093   3.730   5.602   1.565 -0.3847  0.6398  0.0894
30059SOL    HW294094   3.670   5.601   1.426 -0.1058 -2.1430 -0.0680
30060SOL     OW94095   7.587   5.062   7.601  0.4848 -0.4725 -0.4937
30060SOL    HW194096   7.597   5.087   7.510  1.3319  1.4156  0.0561
30060SOL    HW294097   7.505   5.104   7.628  1.6064  1.3523  0.2807
30061SOL     OW94098   0.272   0.497   0.282  0.4751  0.1638  0.3076
30061SOL    HW194099   0.350   0.544   0.312  1.1406 -0.1190 -0.8846
30061SOL    HW294100   0.206   0.514   0.348  1.2079  1.3836  0.7536
30062SOL     OW94101   8.722   8.528   8.058 -0.3711 -0.3167  0.1481
30062SOL    HW194102   8.733   8.491   7.971 -1.3315  0.8262 -0.4787
30062SOL    HW294103   8.694   8.619   8.043 -0.7731 -0.1620  1.6361
30063SOL     OW94104   9.780   0.540   7.577  0.5477 -0.3306  0.5845
30063SOL    HW194105   9.721   0.586   7.517 -1.6496 -2.1283  1.2396
30063SOL    HW294106   9.793   0.454   7.538  1.1735 -0.6256  1.4104
30064SOL     OW94107   5.235   0.927   5.133  0.0792 -0.1908  0.3940
30064SOL    HW194108   5.283   0.844   5.132 -1.1330 -0.9157 -0.4964
30064SOL    HW294109   5.300   0.993   5.111  0.9034 -1.0090  0.3363
30065SOL     OW94110   1.137   1.419   4.738  0.1162  0.1337 -0.0657
30065SOL    HW194111   1.061   1.447   4.789 -0.9430 -0.0050 -1.5063
30065SOL    HW294112   1.190   1.498   4.729  0.2570  0.1955  1.0867
30066SOL     OW94113   1.800   1.518   0.858  0.1107 -0.0584 -0.7718
30066SOL    HW194114   1.791   1.436   0.810  0.0898 -1.7167  1.8294
30066SOL    HW294115   1.883   1.555   0.828  0.7863 -1.7244 -1.0539
30067SOL     OW94116   8.456   6.528   0.469 -0.0386  0.2609  0.6210
30067SOL    HW194117   8.409   6.537   0.551  0.2722 -0.5827  0.9050
30067SOL    HW294118   8.408   6.582   0.407  0.4513  1.9465  1.6472
30068SOL     OW94119  10.009   6.548   4.443 -0.2422  0.0436  0.1358
30068SOL    HW194120  10.057   6.526   4.364 -1.5519  0.4787 -0.8126
30068SOL    HW294121   9.919   6.559   4.414 -0.5465  1.3969  1.4656
30069SOL     OW94122   5.652   3.794   9.767  0.0582  0.6696 -0.4904
30069SOL    HW194123   5.561   3.788   9.796 -0.1933  1.2330 -1.1542
30069SOL    HW294124   5.648   3.831   9.679  1.0403  2.6564  0.2452
30070SOL     OW94125   5.366   7.705   5.145 -0.1700  0.7421 -0.5150
30070SOL    HW194126   5.295   7.738   5.090  0.1567  1.3639 -0.5745
30070SOL    HW294127   5.356   7.750   5.228 -0.6958 -0.2421 -0.0288
30071SOL     OW94128   7.518   0.803   5.030  0.7385  0.2263  0.3487
30071SOL    HW194129   7.428   0.832   5.013 -0.8789 -3.5729  1.3308
30071SOL    HW294130   7.512   0.707   5.029  4.8660 -0.1863  0.2918
30072SOL     OW94131   8.014   0.491   5.500  0.1256 -0.1221 -0.0873
30072SOL    HW194132   7.922   0.462   5.497  0.4731 -1.2320 -1.9826
30072SOL    HW294133   8.043   0.471   5.589 -0.9891 -1.3716  0.0308
30073SOL     OW94134   1.709   1.360   7.617  0.2384  0.6811  0.1839
30073SOL    HW194135   1.698   1.327   7.706  0.2147  0.6729  0.1780
30073SOL    HW294136   1.647   1.433   7.611 -0.5629 -0.0158 -0.1889
30074SOL     OW94137   2.040   3.551   7.359 -0.3599  0.1215 -0.4271
30074SOL    HW194138   2.024   3.639   7.324  1.1613  0.2592 -0.8412
30074SOL    HW294139   2.130   3.532   7.334 -0.5790 -1.4460 -0.0804
30075SOL     OW94140   0.561   3.356   4.182  0.0601  0.6514 -0.4190
30075SOL    HW194141   0.551   3.333   4.089  0.6512 -0.3563 -0.2466
30075SOL    HW294142   0.643   3.405   4.186  1.0554 -0.9844 -0.1619
30076SOL     OW94143   3.482   9.549   7.854  0.3510  0.4759 -0.0135
30076SOL    HW194144   3.472   9.488   7.928 -1.5174 -0.2085 -0.7652
30076SOL    HW294145   3.443   9.631   7.886  0.6934  0.5676  0.1778
30077SOL     OW94146   4.164  10.107   9.692  0.1629  1.0560  0.7453
30077SOL    HW194147   4.197  10.175   9.633  1.3577 -1.2483 -1.4391
30077SOL    HW294148   4.087  10.072   9.646 -0.3411  0.8071  1.7603
30078SOL     OW94149   0.765   0.605   0.174  0.1630  0.7636  0.8278
30078SOL    HW194150   0.709   0.683   0.173  0.0507  0.6879  1.1553
30078SOL    HW294151   0.723   0.545   0.114 -0.1230  0.6984  1.0909
30079SOL     OW94152   2.273   9.949   7.839  0.0672  0.5217  0.0506
30079SOL    HW194153   2.321   9.912   7.764  1.6055 -1.1078  1.7423
30079SOL    HW294154   2.265  10.042   7.817  2.4753  0.5453 -1.1772
30080SOL     OW94155   3.199   7.009   6.642  0.0656 -0.0345  0.4759
30080SOL    HW194156   3.163   7.051   6.720  1.2822  1.9679  0.0259
30080SOL    HW294157   3.157   7.053   6.569  2.1488  1.2778 -0.0309
30081SOL     OW94158   8.534   8.864   6.277 -0.6729  0.2579  0.0410
30081SOL    HW194159   8.579   8.883   6.359 -0.0892  0.1181 -0.2399
30081SOL    HW294160   8.598   8.815   6.225 -2.0796 -2.5444  0.7361
30082SOL     OW94161   8.063   8.430   6.815  0.0197 -0.4615  0.0596
30082SOL    HW194162   8.023   8.478   6.887 -0.5918 -0.7288 -0.0902
30082SOL    HW294163   8.126   8.490   6.778 -2.5841  1.3249 -1.8488
30083SOL     OW94164   9.865   4.007   1.557 -0.2957  0.7507  0.3669
30083SOL    HW194165   9.777   3.996   1.592  0.2745  1.4342  2.1314
30083SOL    HW294166   9.869   3.947   1.482 -1.7145 -0.5250  1.2560
30084SOL     OW94167   2.039   2.560   3.274  0.2635 -0.0243 -0.5330
30084SOL    HW194168   2.132   2.558   3.252  0.7899  0.5935  1.4405
30084SOL    HW294169   2.036   2.590   3.365 -1.8184 -0.9497 -0.2297
30085SOL     OW94170   8.176   6.467   1.220  0.3748 -0.8047  0.3460
30085SOL    HW194171   8.085   6.485   1.194  0.8740 -0.1757 -1.0866
30085SOL    HW294172   8.175   6.473   1.315 -1.2329 -1.5488  0.4172
30086SOL     OW94173   1.806   8.843   9.616  0.0480  0.0743 -0.0516
30086SOL    HW194174   1.801   8.885   9.531  3.0036  1.4728  0.3557
30086SOL    HW294175   1.888   8.874   9.654  0.2324 -2.6735  2.1485
30087SOL     OW94176   8.654   2.283   6.030  0.5205 -0.4589  0.0581
30087SOL    HW194177   8.619   2.353   5.975 -0.0397 -0.7053  0.0936
30087SOL    HW294178   8.742   2.313   6.054 -0.3484  1.0902  1.5579
30088SOL     OW94179   1.129   5.110   7.263  0.1379  0.3759  0.0410
30088SOL    HW194180   1.137   5.023   7.224  0.5300  0.3282  0.2219
30088SOL    HW294181   1.180   5.167   7.206  0.0380  0.4561  0.0296
30089SOL     OW94182   5.511   6.251   0.342  0.5687 -0.1144 -0.1270
30089SOL    HW194183   5.496   6.310   0.269  1.6270  0.1900 -0.1154
30089SOL    HW294184   5.556   6.175   0.303  2.9376  0.8907  0.4451
30090SOL     OW94185   4.340   4.987   1.366  0.3230  1.1387 -0.4649
30090SOL    HW194186   4.306   4.898   1.375  0.3002  1.3445  2.0505
30090SOL    HW294187   4.262   5.042   1.361  0.3306  1.0282 -2.5547
30091SOL     OW94188   8.024   3.398   9.251  0.0380 -0.1624 -0.4353
30091SOL    HW194189   8.072   3.335   9.198 -0.3531  0.1533 -1.1937
30091SOL    HW294190   8.066   3.396   9.337 -0.2045 -1.7212 -0.3279
30092SOL     OW94191   9.047   6.586   8.963 -0.7617  0.0354  0.5013
30092SOL    HW194192   9.048   6.615   9.054  0.5700  0.5305  0.3496
30092SOL    HW294193   9.064   6.666   8.912 -2.3661 -0.0607 -0.2596
30093SOL     OW94194   3.063   1.176   0.023 -0.3926  0.4647 -0.5026
30093SOL    HW194195   3.063   1.109  -0.046 -0.6885 -0.2415  0.1594
30093SOL    HW294196   3.147   1.221   0.013  0.3470 -0.7963 -0.2382
30094SOL     OW94197   6.496   8.891   5.639 -0.5558  0.3708  0.7325
30094SOL    HW194198   6.573   8.938   5.606  0.4149 -1.0677  0.8433
30094SOL    HW294199   6.437   8.886   5.565  0.1086  0.2127  0.1990
30095SOL     OW94200   0.706   2.408   3.037 -0.4105 -0.1641 -0.7640
30095SOL    HW194201   0.645   2.348   2.993  0.7364 -1.2047 -1.0014
30095SOL    HW294202   0.722   2.366   3.121 -0.6747  0.5519 -0.3537
30096SOL     OW94203   5.492   9.089   0.730  0.3609 -0.0935 -0.3954
30096SOL    HW194204   5.564   9.133   0.776  1.2116  0.1277 -1.8761
30096SOL    HW294205   5.516   9.094   0.638 -0.3329 -2.2239 -0.7509
30097SOL     OW94206   0.458   5.910   6.777  0.6666 -0.3245  0.2572
30097SOL    HW194207   0.444   5.828   6.730  0.8545 -0.2150  0.0092
30097SOL    HW294208   0.515   5.961   6.720  0.2243  0.1418  0.2263
30098SOL     OW94209  10.134   7.053   0.203 -0.1170  0.0757  0.2939
30098SOL    HW194210  10.057   7.037   0.258  0.2074  0.0308  0.7455
30098SOL    HW294211  10.121   7.142   0.170 -1.0171 -0.4128 -0.7282
30099SOL     OW94212   0.949   1.750   2.866 -0.3803 -1.1352  0.3811
30099SOL    HW194213   0.897   1.826   2.894 -0.5387 -1.1272  0.0720
30099SOL    HW294214   0.890   1.675   2.876 -0.1740 -1.2403  0.8313
30100SOL     OW94215   2.565   6.049   2.924  0.1284  0.9170  0.5403
30100SOL    HW194216   2.482   6.025   2.964  0.4197 -1.9008 -0.3352
30100SOL    HW294217   2.631   6.028   2.990  0.4655 -1.9986 -0.5869
30101SOL     OW94218   4.765   7.160   0.944 -0.0020 -0.2931 -0.0538
30101SOL    HW194219   4.782   7.231   1.006 -1.9784  2.5351 -2.4690
30101SOL    HW294220   4.849   7.114   0.936  2.0694  3.1483  0.0755
30102SOL     OW94221   8.406   8.316   2.722 -0.1024  0.3943  0.3990
30102SOL    HW194222   8.452   8.374   2.662 -0.5140  3.2084  2.6120
30102SOL    HW294223   8.439   8.340   2.809 -3.3338  0.2943  1.7859
30103SOL     OW94224   1.804   0.594   0.028  0.0918 -0.2411  0.0534
30103SOL    HW194225   1.803   0.659  -0.043  1.2377 -1.4363 -1.1245
30103SOL    HW294226   1.714   0.565   0.036 -0.5273  1.7702  0.8961
30104SOL     OW94227   2.754   6.430   6.605  0.2746  0.3639  0.1838
30104SOL    HW194228   2.744   6.354   6.663 -0.3928  0.1636 -0.1847
30104SOL    HW294229   2.797   6.396   6.527  0.3085  0.4383  0.1698
30105SOL     OW94230   6.104   8.034   5.741  0.2452  0.5577 -0.2104
30105SOL    HW194231   6.186   7.999   5.776  0.3655  0.3403 -0.7070
30105SOL    HW294232   6.037   7.997   5.798  0.5013  0.9082  0.3343
30106SOL     OW94233   2.542   3.369  10.041  0.5296 -0.4706 -0.3301
30106SOL    HW194234   2.471   3.433  10.045  0.3082 -0.7724  0.6452
30106SOL    HW294235   2.620   3.420  10.018 -0.0674 -0.2010 -1.8824
30107SOL     OW94236  10.002   9.026   9.737 -0.0659  0.3020 -0.5343
30107SOL    HW194237  10.031   8.943   9.700 -0.9411 -1.2780  2.0450
30107SOL    HW294238   9.907   9.019   9.742 -0.2347  1.8198 -0.9793
30108SOL     OW94239   5.658   2.861   0.563  0.0124 -0.7041 -0.3857
30108SOL    HW194240   5.708   2.935   0.599  0.2220 -0.3098 -1.4361
30108SOL    HW294241   5.591   2.843   0.628 -0.6137  1.0153 -0.5092
30109SOL     OW94242   8.056   1.861   7.408 -1.1002  0.3024 -0.0391
30109SOL    HW194243   8.055   1.887   7.500 -0.9353  0.4025 -0.0647
30109SOL    HW294244   7.977   1.808   7.397 -0.9436  0.0041  0.2451
30110SOL     OW94245   1.679   2.419   6.344 -0.4348  0.4559  0.4762
30110SOL    HW194246   1.705   2.490   6.285  0.2172  0.3171  0.5803
30110SOL    HW294247   1.654   2.347   6.286 -0.2063  0.4629  0.3686
30111SOL     OW94248   0.844   7.851   9.864 -0.6806 -0.1303 -0.3256
30111SOL    HW194249   0.931   7.838   9.825  0.1877  1.3478  0.9853
30111SOL    HW294250   0.787   7.792   9.815  0.8415 -0.3341 -1.9852
30112SOL     OW94251   1.540   8.662   8.490  0.0921  0.4955  0.0221
30112SOL    HW194252   1.507   8.734   8.542 -0.1695 -1.3965  2.6912
30112SOL    HW294253   1.470   8.597   8.490  0.1876  0.2934 -2.5558
30113SOL     OW94254   0.332   2.972   4.621  0.0173 -0.4594  0.1681
30113SOL    HW194255   0.388   3.032   4.572 -0.4222  0.2539  0.5131
30113SOL    HW294256   0.247   2.976   4.577 -0.5012  0.5062  1.1855
30114SOL     OW94257   1.669   4.491   4.400 -0.2529  0.0829 -0.0153
30114SOL    HW194258   1.649   4.543   4.322 -2.2531  0.1576  0.4977
30114SOL    HW294259   1.589   4.441   4.416 -0.5372  1.3412  3.0003
30115SOL     OW94260   1.685   4.481   1.103 -0.0090  0.1845  0.1247
30115SOL    HW194261   1.653   4.532   1.028 -2.0702  0.2680  0.9887
30115SOL    HW294262   1.713   4.398   1.066  0.4141  0.7720 -0.9125
30116SOL     OW94263   4.746   5.378   2.711  0.2037 -0.0251 -0.1831
30116SOL    HW194264   4.818   5.439   2.730  0.6092 -0.5673  0.0667
30116SOL    HW294265   4.790   5.294   2.696 -0.4340 -0.5687  0.8503
30117SOL     OW94266   9.539   0.570   9.923 -0.0527  0.5148 -0.5500
30117SOL    HW194267   9.457   0.546   9.879 -0.2741  1.0532 -0.4383
30117SOL    HW294268   9.566   0.490   9.968 -0.0503  0.0753 -1.3035
30118SOL     OW94269   4.474   0.915   2.769  0.4590  0.2434  0.6308
30118SOL    HW194270   4.523   0.842   2.730  0.0802  0.1098  0.4041
30118SOL    HW294271   4.392   0.918   2.720  1.5306  2.5486 -1.2013
30119SOL     OW94272   6.482   5.130   6.771 -0.1852  0.0656  0.0982
30119SOL    HW194273   6.415   5.105   6.708  0.6759 -0.0360 -0.8054
30119SOL    HW294274   6.535   5.051   6.782 -0.0427  0.2246  0.5753
30120SOL     OW94275   0.618   7.259   5.430 -0.0191 -0.1489 -0.1697
30120SOL    HW194276   0.597   7.349   5.405 -0.0782 -0.8142 -2.7329
30120SOL    HW294277   0.689   7.268   5.494  1.5953  1.6707 -2.0682
30121SOL     OW94278   6.183   4.372   1.928  0.1818 -0.0169  0.0609
30121SOL    HW194279   6.105   4.428   1.930  1.8654  2.4556  0.2393
30121SOL    HW294280   6.165   4.303   1.992 -2.0570  0.1636 -0.2933
30122SOL     OW94281   9.012   2.146   5.889  0.1665  0.0755 -0.0458
30122SOL    HW194282   9.057   2.131   5.806  1.0988 -0.7363  0.5920
30122SOL    HW294283   8.941   2.081   5.891  0.4833 -0.2657  0.0415
30123SOL     OW94284   1.542   8.589   7.034 -0.0947  0.5559 -0.1811
30123SOL    HW194285   1.466   8.536   7.009  0.1928  0.0039  0.1100
30123SOL    HW294286   1.597   8.590   6.955  0.5337 -0.7010  0.2165
30124SOL     OW94287   2.090   5.902   1.770  0.1929 -0.3320 -0.1930
30124SOL    HW194288   2.130   5.899   1.856  0.4867 -1.6042 -0.3521
30124SOL    HW294289   2.003   5.939   1.785  0.5491  0.2398  0.5096
30125SOL     OW94290   3.534   6.873   2.612 -0.0347 -0.0076 -0.4272
30125SOL    HW194291   3.569   6.873   2.523  0.2790 -1.8364 -0.3355
30125SOL    HW294292   3.549   6.963   2.643  0.7989  0.3796 -1.8318
30126SOL     OW94293   3.237   4.643   8.721  0.4669  0.3444  0.0669
30126SOL    HW194294   3.221   4.549   8.716  1.3288  0.2558 -1.7125
30126SOL    HW294295   3.312   4.658   8.664  0.7068  2.0533  0.7527
30127SOL     OW94296   3.293   0.598   2.702 -0.4433  0.2519 -0.0085
30127SOL    HW194297   3.344   0.584   2.622  0.3353  1.5880  0.2292
30127SOL    HW294298   3.324   0.531   2.762  1.9598  1.7468  0.5335
30128SOL     OW94299  10.170   3.175   2.615  0.5769 -0.0181 -0.2111
30128SOL    HW194300  10.237   3.169   2.683  1.3355  2.3368 -0.6902
30128SOL    HW294301  10.107   3.106   2.639  1.6237 -0.3244  1.9428
30129SOL     OW94302   3.710   2.439   9.273 -0.4879 -0.4261 -0.5095
30129SOL    HW194303   3.677   2.378   9.339  0.4732 -3.0210 -2.2478
30129SOL    HW294304   3.792   2.399   9.243 -0.1408  1.4266 -2.2105
30130SOL     OW94305   3.068   3.898   1.079 -0.0825  0.1114 -0.0247
30130SOL    HW194306   2.995   3.889   1.141 -0.5844 -0.6931 -0.7223
30130SOL    HW294307   3.083   3.810   1.047  0.5043  0.4498 -0.6906
30131SOL     OW94308   8.541   2.935   8.292 -0.2065 -0.2848 -0.3704
30131SOL    HW194309   8.569   2.845   8.276 -2.9822 -1.5040  0.8483
30131SOL    HW294310   8.487   2.929   8.371 -1.7273  2.1718 -1.1064
30132SOL     OW94311   6.728   1.087   8.871 -0.1533  0.1529 -0.0158
30132SOL    HW194312   6.663   1.145   8.831 -0.1686  0.3371  0.2742
30132SOL    HW294313   6.738   1.016   8.808 -2.0857 -0.9170  0.8154
30133SOL     OW94314   4.698   9.306   1.184 -0.0144  0.0827  0.0581
30133SOL    HW194315   4.693   9.246   1.258 -0.3392  0.5663  0.4339
30133SOL    HW294316   4.606   9.326   1.163  0.0870  1.4916  0.8025
30134SOL     OW94317   8.662   1.391   9.544 -0.6109  0.3891 -0.2587
30134SOL    HW194318   8.651   1.480   9.578 -2.5443  0.4441 -0.9099
30134SOL    HW294319   8.579   1.372   9.499  1.0558 -0.4047 -3.2566
30135SOL     OW94320   7.770  10.061   3.817 -0.1762  0.1313 -0.4884
30135SOL    HW194321   7.816  10.111   3.749 -0.7488  0.1365 -0.8806
30135SOL    HW294322   7.721  10.127   3.866 -2.9569 -0.2183 -2.5651
30136SOL     OW94323   5.458   7.864   6.634 -0.3888  0.2238 -0.0189
30136SOL    HW194324   5.471   7.790   6.574 -1.1069  1.4572 -1.8001
30136SOL    HW294325   5.448   7.939   6.576 -1.8122  1.3962  1.6548
30137SOL     OW94326   2.465   7.545   5.203 -0.0252  0.7991  0.1450
30137SOL    HW194327   2.395   7.489   5.170 -0.8114  2.1341 -0.5707
30137SOL    HW294328   2.539   7.530   5.144 -0.0840  0.2057  0.2242
30138SOL     OW94329   8.534   4.709   5.118  0.1616 -0.3711 -0.7626
30138SOL    HW194330   8.474   4.646   5.078  0.8934 -0.6133 -1.5184
30138SOL    HW294331   8.521   4.698   5.212  0.3082 -1.7053 -0.8676
30139SOL     OW94332   3.603   9.684   3.621 -0.7237  0.4389 -0.1144
30139SOL    HW194333   3.670   9.642   3.674  0.5224 -0.9844 -2.6035
30139SOL    HW294334   3.557   9.742   3.681  1.3573 -0.1179  2.1718
30140SOL     OW94335   8.687   2.860   7.992 -0.9615 -0.2625 -0.4054
30140SOL    HW194336   8.678   2.868   8.087 -2.8577 -0.5266 -0.5282
30140SOL    HW294337   8.697   2.950   7.961  0.1027 -0.2035  0.0558
30141SOL     OW94338   6.406   4.476   9.054 -0.0048  0.3039 -0.8285
30141SOL    HW194339   6.501   4.472   9.041  0.1495 -0.4398  0.3313
30141SOL    HW294340   6.396   4.517   9.140 -0.6048 -1.6905  0.1314
30142SOL     OW94341   5.107   4.978   5.990 -0.2232 -0.1089 -0.4071
30142SOL    HW194342   5.036   4.937   5.941  0.8968 -1.0747 -1.2662
30142SOL    HW294343   5.064   5.044   6.043 -1.7203 -0.4258 -1.1779
30143SOL     OW94344   6.934   7.041   8.168 -0.3696  0.1065 -0.0638
30143SOL    HW194345   6.952   6.949   8.190 -0.3669  0.4600  1.4575
30143SOL    HW294346   6.889   7.036   8.084  1.4112 -1.1742 -1.0336
30144SOL     OW94347   2.327   2.587   4.093  0.3818 -0.4168  0.1164
30144SOL    HW194348   2.247   2.551   4.054 -0.1934  0.5372  0.3658
30144SOL    HW294349   2.359   2.517   4.150 -0.2231 -0.8502 -0.0611
30145SOL     OW94350   7.419   9.512   7.050 -0.4254  0.3553 -0.2513
30145SOL    HW194351   7.451   9.555   6.970  0.5749  1.6691  0.7994
30145SOL    HW294352   7.367   9.579   7.094 -0.9880 -0.3615  0.1914
30146SOL     OW94353   7.991   1.405   8.050  0.0198  0.1490  0.1490
30146SOL    HW194354   7.906   1.441   8.075 -0.2938 -0.1468 -0.4800
30146SOL    HW294355   8.042   1.480   8.021 -0.3500  0.2013 -0.3733
30147SOL     OW94356   5.280   0.220   5.759 -0.0506 -0.3374 -0.1875
30147SOL    HW194357   5.367   0.186   5.740  0.2014  0.2785 -0.1752
30147SOL    HW294358   5.224   0.186   5.689  0.3786 -0.0280 -0.6828
30148SOL     OW94359  10.081  10.189   8.160 -0.1810  0.0647 -0.7105
30148SOL    HW194360  10.098  10.108   8.111  0.6404 -0.5149  0.4758
30148SOL    HW294361  10.110  10.169   8.249  1.7895  2.2602 -0.7823
30149SOL     OW94362   0.906   5.019   1.933  0.0700 -0.2646 -0.2849
30149SOL    HW194363   0.929   4.994   1.844  1.1889  0.1673 -0.1410
30149SOL    HW294364   0.976   5.079   1.960 -0.3238 -0.2719  0.8302
30150SOL     OW94365   6.666   9.579   5.853  0.5831  0.0179 -0.5675
30150SOL    HW194366   6.661   9.547   5.944  1.8336 -0.9744 -0.8195
30150SOL    HW294367   6.617   9.661   5.854  0.9761  0.2784  1.1322
30151SOL     OW94368   7.255   2.957   9.507 -0.8764 -0.1043 -0.8098
30151SOL    HW194369   7.324   2.916   9.454 -0.4072  0.0658 -0.3435
30151SOL    HW294370   7.245   3.044   9.469 -0.9408 -0.1832 -0.9742
30152SOL     OW94371   3.455   0.543   1.212 -0.6047 -0.4480 -0.1931
30152SOL    HW194372   3.382   0.558   1.272 -1.8216  1.0209 -1.9321
30152SOL    HW294373   3.429   0.465   1.163 -1.0779  0.1135 -0.8581
30153SOL     OW94374   8.916   8.660   7.758 -0.4199 -0.2870  0.2550
30153SOL    HW194375   8.923   8.750   7.790 -0.6026 -0.0250 -0.4020
30153SOL    HW294376   8.823   8.637   7.770 -0.7415  0.2147 -1.0661
30154SOL     OW94377   5.305   2.003   1.606  0.1621 -0.2691  0.3394
30154SOL    HW194378   5.280   2.037   1.691 -0.7164 -2.1670  0.8933
30154SOL    HW294379   5.396   1.975   1.617  1.2764  2.6700 -0.4304
30155SOL     OW94380   0.504   4.611   5.653 -0.2383  0.2855  0.2396
30155SOL    HW194381   0.542   4.552   5.588 -1.0210  1.8512 -1.7571
30155SOL    HW294382   0.549   4.694   5.639 -1.5689  1.0846  0.5661
30156SOL     OW94383   8.895   9.277   1.089 -0.1914  0.0040  0.0364
30156SOL    HW194384   8.815   9.230   1.112 -0.3400  0.5697  0.7095
30156SOL    HW294385   8.871   9.369   1.094  0.9789  0.2484  2.1273
30157SOL     OW94386   7.325   9.127   0.939  0.7199 -0.0255  0.2092
30157SOL    HW194387   7.351   9.207   0.985  0.9369  0.3031 -0.4652
30157SOL    HW294388   7.234   9.143   0.913  0.6098 -0.1945  0.4920
30158SOL     OW94389   2.222   0.927   3.990 -0.2573 -0.0247  0.2826
30158SOL    HW194390   2.271   0.987   3.933  2.4119 -0.6369  1.7611
30158SOL    HW294391   2.227   0.843   3.945  3.5606 -0.9775  2.0433
30159SOL     OW94392   5.514   0.995   7.059 -0.2628 -0.6644  0.3144
30159SOL    HW194393   5.569   1.071   7.079  0.7062 -1.2524 -0.0063
30159SOL    HW294394   5.467   1.020   6.979  3.1384 -1.7924 -2.3315
30160SOL     OW94395   7.193   2.813   5.568 -0.1658 -0.7732  0.0861
30160SOL    HW194396   7.190   2.765   5.651  0.4494 -2.8055 -0.9897
30160SOL    HW294397   7.111   2.790   5.524  0.6410 -1.8557 -0.9296
30161SOL     OW94398   0.783   1.933   3.577  0.7312 -0.1357  0.4309
30161SOL    HW194399   0.827   1.890   3.650 -1.0186 -1.6122  0.6839
30161SOL    HW294400   0.821   1.894   3.498 -0.3654 -1.7437  0.6519
30162SOL     OW94401   0.309   5.018   2.619 -0.4172  0.3747 -0.4679
30162SOL    HW194402   0.343   4.972   2.696 -2.8549 -2.3135 -0.7882
30162SOL    HW294403   0.327   5.110   2.636  2.2175 -0.3944  1.6410
30163SOL     OW94404   8.251   3.988   6.638 -0.1170  0.0120  0.0020
30163SOL    HW194405   8.344   3.966   6.636 -0.6756 -2.7404 -0.7707
30163SOL    HW294406   8.238   4.045   6.562  1.0003  0.8521  0.4246
30164SOL     OW94407   2.009   6.271   4.414 -0.1230  0.0470  0.5331
30164SOL    HW194408   2.071   6.212   4.456 -0.5905  0.0208  1.2069
30164SOL    HW294409   1.943   6.213   4.377 -1.7250  0.1504  2.9932
30165SOL     OW94410   2.900   0.258   2.031 -0.3209 -0.1848  0.5905
30165SOL    HW194411   2.876   0.262   2.124  1.9032  3.1914  1.2132
30165SOL    HW294412   2.984   0.211   2.031 -0.0190  0.3436  0.4128
30166SOL     OW94413   4.623   8.388   1.516  0.8632  0.0824  0.4022
30166SOL    HW194414   4.556   8.381   1.447  0.9863 -0.8798  0.3704
30166SOL    HW294415   4.574   8.379   1.598  0.9461 -0.5843  0.3801
30167SOL     OW94416   3.367  10.055   0.808 -0.1835 -0.5306 -0.2930
30167SOL    HW194417   3.340  10.123   0.871 -0.9034 -1.4955  0.4677
30167SOL    HW294418   3.386  10.104   0.728 -0.9821  0.5537  0.1415
30168SOL     OW94419   0.463   6.745   3.870 -0.5946  0.2244 -0.3516
30168SOL    HW194420   0.500   6.696   3.944 -0.9474 -0.3036 -0.5188
30168SOL    HW294421   0.530   6.738   3.801  0.2220  1.6307  0.2517
30169SOL     OW94422   9.136   4.006   9.535  0.4040  0.3694 -0.5174
30169SOL    HW194423   9.109   4.037   9.622 -0.2480 -0.5596 -0.3739
30169SOL    HW294424   9.134   4.085   9.481  1.9607  1.1950  0.5507
30170SOL     OW94425   7.548   8.025   6.672 -0.4662  0.1033  0.0707
30170SOL    HW194426   7.556   8.098   6.610  1.1684 -0.4924 -0.4784
30170SOL    HW294427   7.601   8.051   6.747 -0.2162 -0.3197  0.0455
30171SOL     OW94428   0.559   4.229   3.672  0.2304 -0.3137  0.3211
30171SOL    HW194429   0.589   4.269   3.590 -0.3660  0.0920  0.2959
30171SOL    HW294430   0.559   4.135   3.653  0.3782 -0.2442 -0.0486
30172SOL     OW94431   8.083   6.492   5.078 -0.8024  0.3872  0.2008
30172SOL    HW194432   8.021   6.434   5.121  0.7406 -0.3346  1.5501
30172SOL    HW294433   8.038   6.521   4.998 -1.4593 -3.0994 -0.8572
30173SOL     OW94434   0.567   7.433   5.821  0.3943  0.0733 -0.4652
30173SOL    HW194435   0.642   7.385   5.855 -0.5670 -0.7169  0.6015
30173SOL    HW294436   0.494   7.373   5.831 -0.3437  0.7208 -1.7566
30174SOL     OW94437   6.091   5.276   2.748 -0.1607  0.4570  0.2615
30174SOL    HW194438   6.025   5.341   2.724 -1.8566 -0.6703  1.6095
30174SOL    HW294439   6.043   5.211   2.799  1.8223 -0.9476  0.4520
30175SOL     OW94440   4.282   2.252   1.878 -0.4402 -0.3054 -0.5144
30175SOL    HW194441   4.277   2.346   1.892  1.1346 -0.2876  0.1242
30175SOL    HW294442   4.372   2.229   1.901  0.0966 -1.5234 -3.3836
30176SOL     OW94443   1.031   9.345   9.647 -0.0724  1.0172  0.2216
30176SOL    HW194444   1.026   9.255   9.681 -1.1997 -0.1180 -2.6933
30176SOL    HW294445   1.119   9.375   9.673  0.2943 -0.8529  1.3614
30177SOL     OW94446   0.872   8.839   2.437  0.5657 -0.3303 -0.0529
30177SOL    HW194447   0.829   8.890   2.506 -0.5360 -0.4182 -0.6488
30177SOL    HW294448   0.895   8.903   2.370  0.5678 -0.4052 -0.1237
30178SOL     OW94449   6.680   7.399   5.345  0.3538  0.1374 -0.6414
30178SOL    HW194450   6.642   7.325   5.392 -0.7480 -1.3263 -3.5505
30178SOL    HW294451   6.653   7.476   5.394 -0.8962 -1.2427  0.9376
30179SOL     OW94452   3.195  10.013   6.340  0.5754  0.6173  0.7751
30179SOL    HW194453   3.129   9.949   6.364  1.4276 -0.4234  0.4163
30179SOL    HW294454   3.276   9.981   6.380  1.4758  0.2640 -1.1659
30180SOL     OW94455   4.097   8.123   3.644 -0.1721 -0.0561  0.0826
30180SOL    HW194456   4.028   8.137   3.579  0.4212 -2.1993 -1.0891
30180SOL    HW294457   4.116   8.211   3.678 -1.9538  0.8543 -1.1101
30181SOL     OW94458   1.093   9.307   2.495 -0.1060  0.3836  0.7417
30181SOL    HW194459   1.098   9.224   2.448 -0.5170  0.4887  0.5019
30181SOL    HW294460   1.087   9.282   2.587 -1.2394  0.1018  0.6094
30182SOL     OW94461   1.861   5.759   6.508 -0.1753  0.5103  0.4832
30182SOL    HW194462   1.780   5.714   6.534 -0.1573  0.5762  0.6514
30182SOL    HW294463   1.879   5.819   6.579 -0.1705  0.7495  0.2809
30183SOL     OW94464   5.397   2.734   7.860 -0.7793 -0.1123  0.7726
30183SOL    HW194465   5.340   2.777   7.923  0.9932  0.0362  2.3740
30183SOL    HW294466   5.431   2.657   7.906  0.8545  0.1987  0.1818
30184SOL     OW94467   6.441   2.984   9.209 -0.2511 -0.5272 -0.6669
30184SOL    HW194468   6.420   2.924   9.281  0.2690 -0.8802 -0.7984
30184SOL    HW294469   6.393   3.064   9.229  0.8582 -0.1723  0.7382
30185SOL     OW94470   6.030   0.237   4.000 -0.9006 -0.5751 -0.3496
30185SOL    HW194471   6.070   0.151   3.985  1.2783  0.1919  0.7100
30185SOL    HW294472   6.091   0.299   3.960 -0.8084  0.6844  1.6133
30186SOL     OW94473   9.575   2.373   8.704  0.1435 -0.3049  0.1417
30186SOL    HW194474   9.576   2.394   8.611  2.0210  0.6538  0.3300
30186SOL    HW294475   9.601   2.281   8.708  0.0513 -0.3498 -0.2823
30187SOL     OW94476   5.588   6.155   2.433 -0.0694  0.2162  0.2164
30187SOL    HW194477   5.681   6.177   2.443  1.2670 -3.6318 -1.8138
30187SOL    HW294478   5.572   6.088   2.500 -0.6755 -0.8519 -0.9611
30188SOL     OW94479   9.291   8.364   1.864  0.1361 -0.3896  0.3791
30188SOL    HW194480   9.382   8.395   1.859 -0.0159 -0.0734 -1.4983
30188SOL    HW294481   9.244   8.419   1.800 -1.6442  0.2362  2.1290
30189SOL     OW94482   3.420  10.134   7.357 -0.3106 -0.1553  0.1067
30189SOL    HW194483   3.425  10.069   7.287  0.7782 -0.4558  0.4480
30189SOL    HW294484   3.343  10.187   7.336 -1.0995 -1.4362 -0.2702
30190SOL     OW94485   5.915   7.456   9.306 -0.3659 -0.6466 -0.1150
30190SOL    HW194486   5.849   7.452   9.237 -2.1413 -2.1855  1.5346
30190SOL    HW294487   5.874   7.507   9.376  1.2103  0.4988  0.0259
30191SOL     OW94488   5.767   2.132   3.132 -0.0657  0.2306 -0.0105
30191SOL    HW194489   5.803   2.221   3.141  0.6403  0.2911 -2.5385
30191SOL    HW294490   5.682   2.144   3.090 -0.7396 -0.2371  1.1647
30192SOL     OW94491   1.382   5.778   9.134 -0.3005  0.2532  0.3433
30192SOL    HW194492   1.420   5.691   9.148 -1.7043 -0.1426  1.9325
30192SOL    HW294493   1.434   5.815   9.062 -1.7143 -3.1867 -2.8301
30193SOL     OW94494   5.686   9.663   2.066 -0.3542 -0.1193  0.0490
30193SOL    HW194495   5.647   9.696   2.147  0.8046 -1.6078  1.2787
30193SOL    HW294496   5.655   9.723   1.998 -4.2748 -0.8780  0.9836
30194SOL     OW94497   8.654   2.615   0.086  0.2420  0.2261  0.1992
30194SOL    HW194498   8.608   2.669   0.022  1.9161  1.7255  0.1756
30194SOL    HW294499   8.619   2.643   0.170  2.3142  2.8150  0.3507
30195SOL     OW94500   0.296   9.991   5.548  0.5762 -0.2254 -0.5190
30195SOL    HW194501   0.303  10.079   5.584  0.5166 -0.1163 -0.7730
30195SOL    HW294502   0.300  10.003   5.453  0.3282 -0.4740 -0.5631
30196SOL     OW94503   0.066  10.087   5.818  0.4867 -0.3845 -0.1414
30196SOL    HW194504   0.101  10.023   5.880  0.7281 -0.4111 -0.3069
30196SOL    HW294505   0.069  10.044   5.733 -1.6932 -1.1109  0.0788
30197SOL     OW94506   5.508   5.211  10.026  0.4142  0.0927  0.1049
30197SOL    HW194507   5.502   5.287  10.084 -0.1052 -0.8871  1.3791
30197SOL    HW294508   5.545   5.142  10.081  1.8414 -0.3299 -1.3067
30198SOL     OW94509   7.639   4.417   8.778 -0.1757  0.7786 -0.1708
30198SOL    HW194510   7.615   4.338   8.730  1.2868  0.9042 -1.1913
30198SOL    HW294511   7.706   4.389   8.840  1.1547  1.3466 -1.2838
30199SOL     OW94512   7.185   2.677   2.017 -0.8692 -0.8343 -0.2130
30199SOL    HW194513   7.103   2.656   1.972 -1.4869 -1.4198  1.1347
30199SOL    HW294514   7.198   2.604   2.078 -0.8255  0.6041  1.5867
30200SOL     OW94515   3.295   4.627   6.463  0.3192 -0.2077  0.0770
30200SOL    HW194516   3.247   4.657   6.541 -1.5204 -0.1847 -0.9952
30200SOL    HW294517   3.232   4.571   6.417  0.6633  1.2701 -2.3654
30201SOL     OW94518   5.682   1.624   3.690 -0.5309 -0.6110 -0.9047
30201SOL    HW194519   5.714   1.593   3.774 -0.5023 -1.0795 -1.0849
30201SOL    HW294520   5.743   1.694   3.664  1.5499 -2.7646 -2.1583
30202SOL     OW94521   2.880   4.986   2.930 -0.0347  0.4388 -0.1842
30202SOL    HW194522   2.897   4.917   2.865  1.2651 -1.2735  1.8485
30202SOL    HW294523   2.788   5.008   2.918 -0.3417 -1.2433 -1.2731
30203SOL     OW94524   1.215   8.962   8.463 -0.0316  0.8032 -0.3646
30203SOL    HW194525   1.294   8.968   8.409 -0.6534 -0.6619 -1.5204
30203SOL    HW294526   1.247   8.964   8.553  1.3956 -0.2886 -0.8065
30204SOL     OW94527   0.935   6.762   4.418  0.1035  0.4927  0.0604
30204SOL    HW194528   1.005   6.697   4.411  0.4476  0.8719  0.0290
30204SOL    HW294529   0.971   6.842   4.380 -0.9155  0.2278 -1.6019
30205SOL     OW94530   4.899   9.785   9.255 -0.0335 -0.2662 -0.1084
30205SOL    HW194531   4.828   9.728   9.283  0.2897 -0.6293 -0.0094
30205SOL    HW294532   4.936   9.742   9.179 -0.0492  0.0254 -0.2841
30206SOL     OW94533   0.254   9.980   6.009 -0.2956 -0.1936 -0.1288
30206SOL    HW194534   0.311  10.057   6.007  1.2190 -1.2809 -0.6175
30206SOL    HW294535   0.237   9.964   6.102 -0.3216  0.5034 -0.0090
30207SOL     OW94536   9.280   1.133   5.203 -0.5530  0.3970  0.3191
30207SOL    HW194537   9.211   1.103   5.143 -0.7785 -0.1488  0.8354
30207SOL    HW294538   9.359   1.133   5.149 -0.6933 -0.3890  0.0862
30208SOL     OW94539   6.693   7.360   8.504 -0.2808 -0.1194 -0.2873
30208SOL    HW194540   6.599   7.351   8.494 -0.3131 -0.0975 -0.0086
30208SOL    HW294541   6.728   7.273   8.484 -0.3759 -0.1754 -0.2107
30209SOL     OW94542  10.107   8.604   1.287 -0.6209 -0.3603  0.1526
30209SOL    HW194543  10.110   8.610   1.191  0.3470 -0.6636  0.1544
30209SOL    HW294544  10.015   8.584   1.307 -0.8653 -0.1387 -0.6970
30210SOL     OW94545   9.396   1.458  10.005 -0.3606 -0.7100  0.1681
30210SOL    HW194546   9.309   1.430   9.977 -0.9491 -0.7905  1.9155
30210SOL    HW294547   9.426   1.387  10.062  0.4142 -0.2074  0.3961
30211SOL     OW94548   4.510   4.138   8.143  0.3108 -0.4239 -0.2320
30211SOL    HW194549   4.596   4.096   8.139  0.1622 -0.6713 -2.0385
30211SOL    HW294550   4.518   4.213   8.084 -0.3290  0.3299  0.6202
30212SOL     OW94551   1.329   0.486   3.651 -0.1763  0.2199 -0.2435
30212SOL    HW194552   1.314   0.579   3.665  1.7352  0.5987 -0.5116
30212SOL    HW294553   1.407   0.482   3.597 -0.5571 -1.5394 -0.7204
30213SOL     OW94554   4.603   7.742   6.339  0.2005  0.4792  0.1649
30213SOL    HW194555   4.547   7.728   6.415 -0.9056  1.5346 -0.4388
30213SOL    HW294556   4.544   7.739   6.264  0.7750  2.5415 -0.4193
30214SOL     OW94557   4.304   3.244   0.709  0.0611  0.3407 -0.1215
30214SOL    HW194558   4.369   3.307   0.678 -0.7925  1.2425 -0.1427
30214SOL    HW294559   4.338   3.159   0.683  1.0436  0.8227 -0.4550
30215SOL     OW94560   7.663   7.033   1.208 -0.5729 -0.2389 -0.1109
30215SOL    HW194561   7.664   7.069   1.119 -0.2112  2.5282  0.8982
30215SOL    HW294562   7.753   7.044   1.238 -0.2708 -2.7389  0.0853
30216SOL     OW94563   3.636   4.517   7.816  0.2352  0.1401  0.1703
30216SOL    HW194564   3.680   4.542   7.736 -0.6887  2.3070  0.2685
30216SOL    HW294565   3.548   4.492   7.788 -0.2914  1.4973  0.5067
30217SOL     OW94566   5.603   9.395   6.243 -0.1721  0.0811  0.0433
30217SOL    HW194567   5.664   9.327   6.216 -1.6084 -0.8290 -1.0861
30217SOL    HW294568   5.517   9.354   6.237 -1.1906  2.2432 -1.6253
30218SOL     OW94569   0.876   6.898   1.425  0.5642 -0.0836  0.7303
30218SOL    HW194570   0.900   6.902   1.333  3.2376 -0.0835  1.3335
30218SOL    HW294571   0.846   6.986   1.446  1.7043  0.4417  0.2437
30219SOL     OW94572   8.728   8.963   5.152  0.6800 -0.5778  0.0735
30219SOL    HW194573   8.649   8.987   5.199  3.2570  1.2692  4.0204
30219SOL    HW294574   8.738   9.031   5.085  1.3419  2.2814  2.8494
30220SOL     OW94575   8.237   7.476   6.813 -0.2825 -0.3594  0.2408
30220SOL    HW194576   8.331   7.482   6.825 -0.4518 -0.9545  2.3189
30220SOL    HW294577   8.200   7.524   6.888 -1.7495  4.0172 -2.8861
30221SOL     OW94578   6.325   3.759   2.467 -0.1262  0.3678  0.1045
30221SOL    HW194579   6.366   3.749   2.553  1.2285  1.8855 -0.2989
30221SOL    HW294580   6.240   3.716   2.475  0.8902 -1.5154  1.4812
30222SOL     OW94581   0.037   2.264   2.815 -0.1587  0.2162  0.0804
30222SOL    HW194582   0.034   2.354   2.782  1.4008  1.0328  1.9470
30222SOL    HW294583  -0.015   2.266   2.895 -1.1381 -0.8809 -0.5039
30223SOL     OW94584   6.564   0.373   4.372  0.1144 -0.4650 -0.5162
30223SOL    HW194585   6.535   0.464   4.381 -1.9765 -0.9833 -1.3794
30223SOL    HW294586   6.489   0.328   4.332  1.9296 -2.0923 -2.3345
30224SOL     OW94587   2.164   8.107   7.859  0.7344 -1.3599  0.7377
30224SOL    HW194588   2.166   8.011   7.865  1.1913 -1.4400 -0.4028
30224SOL    HW294589   2.084   8.126   7.809  1.5444 -1.2773 -0.5886
30225SOL     OW94590   7.688   3.700   8.858 -0.1576  0.2718  0.1249
30225SOL    HW194591   7.769   3.748   8.840 -0.5004  1.2333  1.0586
30225SOL    HW294592   7.693   3.679   8.951 -0.9681  0.3091  0.1783
30226SOL     OW94593   5.987   3.575   6.980  0.1844 -0.2496  0.0011
30226SOL    HW194594   5.978   3.609   7.069 -1.9589  1.1810 -0.6809
30226SOL    HW294595   5.900   3.544   6.957  0.5027  0.1094 -1.8577
30227SOL     OW94596   2.688  10.083   8.269 -0.3053  0.1323 -0.8869
30227SOL    HW194597   2.682  10.128   8.353  0.0718 -1.7084  0.1849
30227SOL    HW294598   2.649   9.997   8.285  1.1806 -0.8302 -2.1488
30228SOL     OW94599   0.629   9.418   1.165  0.4737  0.5500  0.5544
30228SOL    HW194600   0.597   9.419   1.074 -0.3237 -0.7460  0.8031
30228SOL    HW294601   0.562   9.371   1.213  1.1180  0.8278  1.7504
30229SOL     OW94602   9.104   2.826   3.134 -0.3905 -0.2053  0.1398
30229SOL    HW194603   9.089   2.832   3.040  0.0807  0.1510  0.0838
30229SOL    HW294604   9.021   2.852   3.174 -1.1220 -1.8918 -0.1726
30230SOL     OW94605  10.144   7.867   3.406  0.4366  0.8179 -0.0680
30230SOL    HW194606  10.161   7.922   3.482  0.2802  1.6055 -0.5960
30230SOL    HW294607  10.229   7.857   3.364  0.4655  0.6497  0.0269
30231SOL     OW94608   7.637   7.609   6.135 -0.1833 -0.0648 -0.4003
30231SOL    HW194609   7.628   7.677   6.202  0.4074 -0.9040  0.5546
30231SOL    HW294610   7.730   7.588   6.134 -0.2718 -0.4610 -1.0968
30232SOL     OW94611   9.718   0.354   6.858 -0.1677  0.1706 -0.1858
30232SOL    HW194612   9.663   0.286   6.898  1.1791 -1.0235 -0.2967
30232SOL    HW294613   9.790   0.364   6.920  0.1160  0.8570 -0.6272
30233SOL     OW94614   2.175   9.232   0.084 -0.4768  0.2950 -0.2385
30233SOL    HW194615   2.183   9.218  -0.010 -0.1643 -0.4597 -0.1110
30233SOL    HW294616   2.257   9.276   0.109  0.0094 -0.6280 -0.1364
30234SOL     OW94617   2.710   6.546   0.154 -0.8210  0.5740  0.6010
30234SOL    HW194618   2.704   6.543   0.058  1.0073 -2.1944  0.4574
30234SOL    HW294619   2.794   6.589   0.171 -0.6899  0.1862  0.9282
30235SOL     OW94620   0.272   1.127   3.026 -0.3078 -0.0635  0.5588
30235SOL    HW194621   0.340   1.154   2.965 -0.0116 -0.8747  0.5095
30235SOL    HW294622   0.205   1.195   3.020  0.5725  0.8287  0.7391
30236SOL     OW94623   7.654   3.566  10.143 -0.4850 -0.3138  0.8208
30236SOL    HW194624   7.728   3.548  10.202  1.1609 -0.5272 -1.1831
30236SOL    HW294625   7.590   3.498  10.164  0.4123 -0.9005  1.7644
30237SOL     OW94626   9.502   2.812   9.853  0.0948  0.1946  0.2926
30237SOL    HW194627   9.457   2.810   9.768  1.2625 -0.0573 -0.3422
30237SOL    HW294628   9.442   2.858   9.911  0.2706  2.5310 -1.2715
30238SOL     OW94629   3.457   4.462   6.872 -0.2511  0.1551 -0.1261
30238SOL    HW194630   3.496   4.490   6.790 -0.4881  1.8996  0.3167
30238SOL    HW294631   3.442   4.543   6.921 -2.4099 -0.6023  0.6038
30239SOL     OW94632   9.427   1.859   6.274 -0.3015 -0.1184 -0.5877
30239SOL    HW194633   9.507   1.863   6.327 -1.9804 -2.4989  2.4871
30239SOL    HW294634   9.375   1.934   6.304 -0.4048 -0.2518 -0.4342
30240SOL     OW94635   3.732   1.654   9.598 -0.2235  0.4943 -0.5347
30240SOL    HW194636   3.824   1.628   9.605 -0.4141 -0.3024 -0.7970
30240SOL    HW294637   3.720   1.719   9.666 -0.1993 -1.6011  1.6185
30241SOL     OW94638   1.697   4.079   3.906 -0.8318  0.0616 -0.1896
30241SOL    HW194639   1.747   4.157   3.931 -0.5483 -0.5443  1.2766
30241SOL    HW294640   1.610   4.093   3.944 -1.3147  0.4315 -1.4183
30242SOL     OW94641   3.853   6.301   0.581 -0.3050  0.4959 -0.4293
30242SOL    HW194642   3.890   6.384   0.551  0.0399  0.6178  0.3125
30242SOL    HW294643   3.767   6.297   0.540 -0.3783  1.2828 -0.3708
30243SOL     OW94644   2.525   8.386   6.240 -0.3556  0.4054 -0.3838
30243SOL    HW194645   2.440   8.364   6.278 -0.7234  1.6415 -0.4695
30243SOL    HW294646   2.578   8.415   6.314  0.1224 -0.6791 -0.2766
30244SOL     OW94647   6.641   2.558   9.647  0.1112  0.3263  0.1276
30244SOL    HW194648   6.681   2.486   9.598  0.4410 -0.2418  1.1975
30244SOL    HW294649   6.548   2.554   9.624  0.0366 -0.7813  0.5773
30245SOL     OW94650   4.081   4.619   7.445 -0.0500 -0.5377  0.2486
30245SOL    HW194651   4.167   4.659   7.430 -0.5995  0.0595 -1.5656
30245SOL    HW294652   4.058   4.647   7.534  1.2214  0.0732  0.4219
30246SOL     OW94653   5.585   6.345   8.645 -0.4793  0.1320 -0.0834
30246SOL    HW194654   5.639   6.308   8.714 -2.8499 -3.0420  0.3059
30246SOL    HW294655   5.499   6.356   8.685 -0.5644  4.0121 -0.9574
30247SOL     OW94656   6.954   9.406   8.594  0.3170 -0.9677  0.0246
30247SOL    HW194657   6.921   9.344   8.659  0.0057 -0.7962  0.0329
30247SOL    HW294658   6.980   9.351   8.520 -1.2331 -1.0199 -0.5094
30248SOL     OW94659   6.877   4.827   0.306 -0.0102 -0.0588  0.2224
30248SOL    HW194660   6.873   4.821   0.401 -0.9492 -0.3964  0.1693
30248SOL    HW294661   6.790   4.856   0.280  0.1208 -0.3517 -0.5597
30249SOL     OW94662   6.965   7.467   8.508  0.3706  0.2923  0.2948
30249SOL    HW194663   6.884   7.425   8.479 -0.0976  2.6432 -2.3102
30249SOL    HW294664   7.034   7.411   8.474 -0.2275  0.4532 -1.3202
30250SOL     OW94665   1.047   0.357   7.978  0.4107  0.3233  0.1895
30250SOL    HW194666   1.063   0.452   7.974  0.9538  0.2015 -1.7383
30250SOL    HW294667   0.951   0.349   7.981  0.3729  0.9133  1.4829
30251SOL     OW94668   3.524   2.929   7.168 -0.3933 -0.1213  0.1920
30251SOL    HW194669   3.455   2.995   7.170  0.6343  0.9947  2.0701
30251SOL    HW294670   3.558   2.932   7.079 -0.6673  1.5804  0.1171
30252SOL     OW94671  10.149   6.640   1.140  0.1003  0.2537  0.4056
30252SOL    HW194672  10.101   6.592   1.208 -0.3906 -0.2273 -0.2757
30252SOL    HW294673  10.235   6.657   1.180 -0.3045  0.2925  1.2784
30253SOL     OW94674   5.209   6.469   2.713 -0.4682 -0.7767  0.3753
30253SOL    HW194675   5.283   6.414   2.686 -0.2845 -0.1386 -0.4589
30253SOL    HW294676   5.151   6.471   2.637 -1.1204 -0.8870  0.8605
30254SOL     OW94677   6.219   6.593   8.422  0.4879  0.0248  0.3019
30254SOL    HW194678   6.289   6.557   8.367  1.6024 -0.2388  1.8094
30254SOL    HW294679   6.194   6.521   8.479 -0.1708  0.4730  0.5942
30255SOL     OW94680   6.325   0.079   0.216  0.5794  0.1910  0.2684
30255SOL    HW194681   6.270   0.148   0.252  0.6109  0.3728 -0.0378
30255SOL    HW294682   6.282   0.053   0.135  1.0991  0.5322 -0.1189
30256SOL     OW94683   0.302   7.629   1.677  0.0073  0.6603 -0.0557
30256SOL    HW194684   0.337   7.700   1.730  1.9228 -0.8158  0.7790
30256SOL    HW294685   0.353   7.552   1.703 -1.5445 -0.9006 -1.3708
30257SOL     OW94686   1.543   0.655   4.826  0.2295 -0.4413  0.5818
30257SOL    HW194687   1.490   0.720   4.872  0.4115 -1.1778  1.8914
30257SOL    HW294688   1.486   0.622   4.757 -0.5888 -0.3462  1.1982
30258SOL     OW94689   4.433   4.092   6.669  0.5908  0.1331  0.0429
30258SOL    HW194690   4.509   4.048   6.630 -0.2349 -0.9878 -0.3530
30258SOL    HW294691   4.415   4.042   6.749  1.2638  1.4145  1.0389
30259SOL     OW94692   0.774   8.751   9.677 -0.6654 -0.1613 -0.4609
30259SOL    HW194693   0.741   8.727   9.590 -0.4073 -0.4958 -0.4650
30259SOL    HW294694   0.826   8.676   9.705 -0.2128  0.2102 -0.2932
30260SOL     OW94695   6.859   8.866   1.228 -0.5345  0.0265  0.0949
30260SOL    HW194696   6.916   8.943   1.220  1.0612 -1.1959 -1.0622
30260SOL    HW294697   6.810   8.881   1.309  0.9490  1.4856  0.7966
30261SOL     OW94698   0.678   0.712   5.459  0.0532 -0.6501 -0.3911
30261SOL    HW194699   0.668   0.676   5.371 -0.7614 -1.2911 -0.0454
30261SOL    HW294700   0.772   0.703   5.478  0.8605  2.3003 -2.3595
30262SOL     OW94701   7.440   9.257   2.907  0.5106 -0.2292 -0.1439
30262SOL    HW194702   7.492   9.305   2.972 -0.2774 -1.2907  1.3415
30262SOL    HW294703   7.501   9.195   2.868  1.2502  1.1394 -1.2196
30263SOL     OW94704   1.956   9.800   2.559 -0.0409  0.0398  0.0736
30263SOL    HW194705   1.920   9.861   2.623 -1.2210  0.2417 -0.7500
30263SOL    HW294706   1.904   9.721   2.568 -1.3944  0.6377 -1.7407
30264SOL     OW94707   0.432   1.427   5.990 -0.1023  0.3132  0.6783
30264SOL    HW194708   0.435   1.505   5.934 -1.1820  0.3504  0.6513
30264SOL    HW294709   0.504   1.439   6.051  0.6847  0.6020 -0.2811
30265SOL     OW94710   5.623   1.461   7.393  0.2570  0.3441 -0.6090
30265SOL    HW194711   5.693   1.500   7.340  1.4139  1.9385  1.9006
30265SOL    HW294712   5.668   1.400   7.450 -0.7469 -0.3086 -0.4971
30266SOL     OW94713   6.885   1.014   7.934 -0.0123  0.5282  0.6553
30266SOL    HW194714   6.871   0.922   7.911  0.2760  1.0546 -1.9108
30266SOL    HW294715   6.953   1.012   8.001  2.5427 -1.0576 -1.7615
30267SOL     OW94716   2.768   8.667   6.658  0.0832 -0.2453  0.8168
30267SOL    HW194717   2.864   8.675   6.661  0.0462  2.1858 -1.2410
30267SOL    HW294718   2.739   8.696   6.744  1.1759 -0.5903  1.3167
30268SOL     OW94719   5.239   4.273   3.416  0.0228 -0.5848 -0.3677
30268SOL    HW194720   5.332   4.290   3.408 -0.1580 -0.5699 -3.7894
30268SOL    HW294721   5.234   4.184   3.450  1.1278  0.3424  2.5720
30269SOL     OW94722   1.523   7.748   9.337  0.0437  0.0593 -0.4155
30269SOL    HW194723   1.603   7.800   9.344 -0.2630  0.4171  0.6375
30269SOL    HW294724   1.505   7.744   9.243  1.1860  0.1389 -0.6480
30270SOL     OW94725   4.282   3.631   9.756  0.2589 -0.2252  0.3189
30270SOL    HW194726   4.295   3.542   9.787  1.6166  0.1219  0.8201
30270SOL    HW294727   4.342   3.640   9.682 -0.8587 -0.1361 -0.5994
30271SOL     OW94728   7.666   5.420   0.382 -0.0645 -0.3282  0.6828
30271SOL    HW194729   7.616   5.478   0.325  1.8458 -1.0298 -1.8746
30271SOL    HW294730   7.626   5.334   0.370  0.6369 -0.5640  0.0281
30272SOL     OW94731   5.708   3.763   1.714  0.4277 -0.1076  0.6265
30272SOL    HW194732   5.734   3.785   1.624 -1.6410 -0.9197 -0.2199
30272SOL    HW294733   5.719   3.668   1.719 -1.4669 -0.3654  0.4999
30273SOL     OW94734   4.161   9.991   8.657  0.2318 -0.1151  0.2562
30273SOL    HW194735   4.184   9.983   8.749 -2.2930 -0.8180  0.9034
30273SOL    HW294736   4.142   9.902   8.629  1.6904 -0.0077 -1.1861
30274SOL     OW94737   7.890   9.475   4.840  0.0337 -0.3778 -0.1147
30274SOL    HW194738   7.965   9.510   4.888 -0.5720  0.7899  0.0208
30274SOL    HW294739   7.922   9.393   4.802  1.5572  0.3980 -0.5766
30275SOL     OW94740   7.212   3.345   5.014 -0.2264  0.3536 -0.0241
30275SOL    HW194741   7.163   3.295   5.078 -0.8323  1.2248  0.2100
30275SOL    HW294742   7.157   3.344   4.936 -0.6742  1.3989  0.2642
30276SOL     OW94743   8.745   0.511   9.830  0.0319 -0.2486  0.0996
30276SOL    HW194744   8.690   0.433   9.835  0.8332 -0.8303 -0.0308
30276SOL    HW294745   8.698   0.569   9.769  0.7684 -1.7530 -2.0056
30277SOL     OW94746   7.058   3.407   4.533 -0.0223  0.1888 -0.5533
30277SOL    HW194747   7.107   3.373   4.458 -1.2350  0.2867 -1.4231
30277SOL    HW294748   7.080   3.500   4.536  0.9343 -0.0538 -0.0657
30278SOL     OW94749   6.223   2.320   2.319 -0.0091 -0.3472  0.0100
30278SOL    HW194750   6.295   2.358   2.369  0.4129 -1.3452  0.1863
30278SOL    HW294751   6.144   2.353   2.361  0.3410  0.3394  0.1426
30279SOL     OW94752   3.822   8.150   6.560  0.3492 -0.5397 -0.2366
30279SOL    HW194753   3.757   8.176   6.625 -0.4891  1.4767 -1.7946
30279SOL    HW294754   3.901   8.197   6.586  0.3639 -0.6786 -0.0222
30280SOL     OW94755   4.922   7.599   5.982 -0.5737 -0.0778  0.2130
30280SOL    HW194756   4.914   7.694   5.981  0.3695  0.0073 -0.4772
30280SOL    HW294757   4.915   7.575   6.074 -2.2744  0.5126  0.2701
30281SOL     OW94758   1.248   9.448   6.542 -0.4770  0.4697 -0.2384
30281SOL    HW194759   1.223   9.443   6.450  3.1782  4.5867 -1.7656
30281SOL    HW294760   1.293   9.365   6.559  2.0376  0.9752 -3.4563
30282SOL     OW94761   0.207   5.115   4.677 -0.7675  0.2545  0.3326
30282SOL    HW194762   0.181   5.144   4.589 -1.7691 -0.7990  0.2428
30282SOL    HW294763   0.136   5.056   4.704  0.0200 -0.2199  1.4397
30283SOL     OW94764   5.782   0.037   8.804 -0.1492 -0.1413  0.4302
30283SOL    HW194765   5.699   0.026   8.758 -0.0407  0.6168  0.0375
30283SOL    HW294766   5.843   0.070   8.738  0.7174 -1.5383  0.4923
30284SOL     OW94767   3.139   8.306   5.048 -0.0789  0.1225  0.8279
30284SOL    HW194768   3.161   8.231   4.992 -2.2799  0.7964 -1.1713
30284SOL    HW294769   3.184   8.380   5.007  0.2282  0.2439  1.3915
30285SOL     OW94770   5.519   3.747   4.190  0.1216 -0.3042 -0.6939
30285SOL    HW194771   5.543   3.731   4.281 -2.9141 -2.2092 -0.0833
30285SOL    HW294772   5.475   3.832   4.191 -2.8677 -1.7197  0.4257
30286SOL     OW94773   5.147   4.133   9.968  0.1813 -0.0698  0.4675
30286SOL    HW194774   5.227   4.083   9.951  0.2736  0.3203 -0.3003
30286SOL    HW294775   5.078   4.068   9.968  0.5440 -0.4695  1.5669
30287SOL     OW94776   5.449   4.482   4.151 -0.1804 -0.0679 -0.5857
30287SOL    HW194777   5.542   4.501   4.168 -0.3715  1.0077 -0.6707
30287SOL    HW294778   5.402   4.529   4.221 -0.7261  0.6142 -1.3938
30288SOL     OW94779   2.979   5.464   0.340  0.4071  0.1066 -0.1183
30288SOL    HW194780   3.011   5.524   0.408  1.0464 -2.4077  1.9783
30288SOL    HW294781   2.884   5.462   0.353  0.2346  1.4918 -0.9903
30289SOL     OW94782  10.018   4.396   6.280  0.4197 -0.2039  1.2076
30289SOL    HW194783  10.057   4.330   6.338 -0.0860 -2.2885 -0.7187
30289SOL    HW294784   9.930   4.364   6.262 -1.0574  2.6464  2.6565
30290SOL     OW94785   1.353   9.462   1.418  0.1109 -0.5659  0.2650
30290SOL    HW194786   1.365   9.401   1.346 -1.4000  0.2758 -0.7702
30290SOL    HW294787   1.293   9.418   1.478 -1.2539 -0.0266 -0.6494
30291SOL     OW94788   2.573   9.555   0.613 -0.4536  0.3522  0.0954
30291SOL    HW194789   2.518   9.611   0.558 -0.9498  0.4093  0.6448
30291SOL    HW294790   2.605   9.487   0.554  1.3957  2.0226 -0.9900
30292SOL     OW94791   4.567   1.006   5.592  0.5264  0.5314 -0.4448
30292SOL    HW194792   4.611   0.925   5.565 -0.8740 -0.8655  1.2166
30292SOL    HW294793   4.474   0.986   5.583  0.1542  2.4657 -1.2693
30293SOL     OW94794   7.508   7.928   1.722  0.2846  0.2286 -0.2559
30293SOL    HW194795   7.501   7.959   1.631  1.7207 -0.1172 -0.5138
30293SOL    HW294796   7.515   8.008   1.774  0.6923  0.4121 -0.5869
30294SOL     OW94797   6.998   6.195   9.919  0.0038 -0.4803  0.0832
30294SOL    HW194798   6.960   6.109   9.937 -0.3095 -0.4491 -0.4099
30294SOL    HW294799   7.087   6.177   9.892  1.0849 -0.4364  3.1892
30295SOL     OW94800   1.458   4.279   7.520  0.5321  0.5281 -0.1311
30295SOL    HW194801   1.466   4.331   7.440 -0.1710 -0.7635 -1.0616
30295SOL    HW294802   1.372   4.237   7.514  0.0440  1.1201  1.7588
30296SOL     OW94803   6.837   6.855   4.011  0.1039 -0.2606  0.1848
30296SOL    HW194804   6.840   6.855   4.107  0.8578  0.6314  0.1705
30296SOL    HW294805   6.908   6.797   3.985  0.3881  0.0994  0.1571
30297SOL     OW94806   7.254   3.984   0.828 -0.0067  0.4803 -0.1848
30297SOL    HW194807   7.345   3.964   0.806 -0.5097 -0.7372 -1.2652
30297SOL    HW294808   7.230   3.918   0.893 -0.6312 -0.3247 -1.2078
30298SOL     OW94809  10.149   4.497   2.991 -0.0039  0.1419  0.2579
30298SOL    HW194810  10.170   4.558   2.921 -0.6267 -1.2373 -1.1705
30298SOL    HW294811  10.077   4.538   3.039 -0.4974  0.4709 -0.7535
30299SOL     OW94812   7.301   1.027   8.131  0.6600 -0.2461 -0.1719
30299SOL    HW194813   7.376   1.037   8.073  0.3591 -0.4267 -0.5971
30299SOL    HW294814   7.339   1.010   8.217  1.1346  0.9918 -0.1129
30300SOL     OW94815   6.629   0.136   8.552  0.8127  0.0348  0.1014
30300SOL    HW194816   6.552   0.119   8.607  1.9454 -0.0955  1.7276
30300SOL    HW294817   6.597   0.195   8.484 -0.5997  0.4712  1.0856
30301SOL     OW94818   4.084   9.731   8.527  0.6451 -0.4084 -0.4160
30301SOL    HW194819   4.021   9.725   8.455  0.0042 -0.8400  0.1697
30301SOL    HW294820   4.154   9.669   8.503  0.7450 -0.0919 -0.9604
30302SOL     OW94821   2.231   7.085   2.193  0.5867 -0.5455 -0.4586
30302SOL    HW194822   2.176   7.031   2.136 -0.2667  0.1202 -0.2856
30302SOL    HW294823   2.320   7.058   2.173  0.2297 -1.2316 -1.1755
30303SOL     OW94824   1.284   3.163   5.160 -0.1740  0.0163  0.2258
30303SOL    HW194825   1.366   3.143   5.206  0.6117 -2.1102 -1.8623
30303SOL    HW294826   1.312   3.189   5.072 -1.6886  2.2539  0.3099
30304SOL     OW94827   5.814   6.067   1.387  0.2686  0.2377 -0.5230
30304SOL    HW194828   5.816   6.163   1.394  1.4851  0.1066  2.1038
30304SOL    HW294829   5.724   6.043   1.408  0.0968  0.7713 -0.6372
30305SOL     OW94830   5.210   3.567   9.282  0.0467  0.2034 -0.4682
30305SOL    HW194831   5.240   3.640   9.228 -2.0077  3.0773  1.9175
30305SOL    HW294832   5.132   3.534   9.237  0.2991  0.2518 -0.9480
30306SOL     OW94833   1.398   9.116   3.932 -0.1279  0.2704 -0.2727
30306SOL    HW194834   1.460   9.046   3.910  0.3971  1.5044 -3.2118
30306SOL    HW294835   1.448   9.175   3.988  0.2003 -0.4616  0.2248
30307SOL     OW94836   2.601   4.300   6.256  0.1105 -0.2853 -0.0736
30307SOL    HW194837   2.597   4.308   6.351  1.0165 -0.3844 -0.0238
30307SOL    HW294838   2.573   4.211   6.239 -1.7931  0.2585 -0.0441
30308SOL     OW94839   5.292   4.360   9.855  0.1972 -0.4997  0.4219
30308SOL    HW194840   5.349   4.414   9.911 -3.0984  2.0254  1.6318
30308SOL    HW294841   5.260   4.291   9.913 -1.9527  1.1729  1.3324
30309SOL     OW94842   6.425   5.525   5.262  0.1177  0.1480  0.7014
30309SOL    HW194843   6.408   5.475   5.342 -0.4880  0.2835  0.6606
30309SOL    HW294844   6.437   5.615   5.292  1.4764 -0.0382  0.8044
30310SOL     OW94845   5.588  10.003  10.059  0.0022 -0.2108 -0.2797
30310SOL    HW194846   5.497   9.977  10.074 -0.7386  1.7547 -0.9623
30310SOL    HW294847   5.620  10.029  10.145  0.2439 -1.7525  0.1233
30311SOL     OW94848   2.315   0.190   8.669 -0.8561  0.3374  0.1970
30311SOL    HW194849   2.316   0.217   8.577 -1.1459  1.7775  0.6021
30311SOL    HW294850   2.396   0.226   8.706 -0.7532 -0.2122  0.5286
30312SOL     OW94851   2.826   1.436   1.022  0.4168  0.0447 -0.1885
30312SOL    HW194852   2.790   1.416   1.109  1.9609 -0.8829  0.2837
30312SOL    HW294853   2.874   1.357   0.997 -1.2895 -0.3294 -2.6405
30313SOL     OW94854   1.807   5.932   6.196 -0.2853  0.1860 -0.0041
30313SOL    HW194855   1.851   5.964   6.117  0.1483  0.0775  0.1899
30313SOL    HW294856   1.860   5.858   6.225 -0.0723  0.6209  0.7480
30314SOL     OW94857   7.245   2.523   8.241 -0.1544  0.2747 -0.2197
30314SOL    HW194858   7.210   2.537   8.153  0.4066  1.0368 -0.3275
30314SOL    HW294859   7.187   2.458   8.280 -0.1374 -0.4281 -1.3201
30315SOL     OW94860   9.737   9.161   7.826 -0.2092 -0.2292  0.0565
30315SOL    HW194861   9.721   9.093   7.760 -1.2149  0.0712 -0.0190
30315SOL    HW294862   9.650   9.192   7.851  0.2377  1.7520 -0.6500
30316SOL     OW94863   2.167   4.911   7.717  0.3670  0.4392  0.0897
30316SOL    HW194864   2.085   4.924   7.765  0.3993  0.1469  0.2248
30316SOL    HW294865   2.231   4.963   7.766  0.1268  1.2152 -0.4054
30317SOL     OW94866   2.464   0.844   3.067 -0.1819  0.3050  0.0273
30317SOL    HW194867   2.427   0.908   3.128  0.6337  0.6600  0.1587
30317SOL    HW294868   2.402   0.842   2.995 -0.2471  1.2259  0.0360
30318SOL     OW94869   1.934   5.246   7.662  0.1691 -0.1874  0.2099
30318SOL    HW194870   2.006   5.256   7.724  2.4420 -0.8632 -2.1422
30318SOL    HW294871   1.942   5.320   7.603 -1.5095  0.0670  0.2495
30319SOL     OW94872   5.618   5.275   7.908  0.4682 -0.2411 -0.0149
30319SOL    HW194873   5.659   5.306   7.828  0.4814  0.8551  0.3935
30319SOL    HW294874   5.534   5.239   7.880  0.8450 -0.6739 -0.6128
30320SOL     OW94875   0.620   6.282   7.910 -0.4518  0.5854 -0.4604
30320SOL    HW194876   0.699   6.313   7.866 -0.9029 -0.6231 -2.2637
30320SOL    HW294877   0.650   6.212   7.968 -0.1424  0.4188 -0.8177
30321SOL     OW94878   5.421   1.234   5.999  0.2579 -0.2498 -0.1349
30321SOL    HW194879   5.514   1.215   6.001  0.7333  1.8031 -0.7750
30321SOL    HW294880   5.405   1.271   5.913 -1.2181 -0.7691 -0.1187
30322SOL     OW94881   9.671   2.339   6.731  0.1428 -0.4816 -0.2560
30322SOL    HW194882   9.724   2.313   6.656  1.4629 -0.8395  0.7535
30322SOL    HW294883   9.711   2.293   6.805  0.0878  1.3302  0.9628
30323SOL     OW94884   5.575   1.892   1.892  0.0969  0.1407 -0.3959
30323SOL    HW194885   5.593   1.878   1.799 -0.1246 -1.9007 -0.1748
30323SOL    HW294886   5.658   1.874   1.935  0.4133  1.8613 -0.2189
30324SOL     OW94887   9.641   9.591   2.464 -0.0962 -0.0413  0.2031
30324SOL    HW194888   9.601   9.624   2.545 -2.5432 -1.5896 -0.2586
30324SOL    HW294889   9.731   9.624   2.466 -0.7242  1.8197  2.4472
30325SOL     OW94890   4.103   0.074   8.757 -0.0608 -0.2524  0.0231
30325SOL    HW194891   4.105   0.151   8.701 -0.5284  0.3476  0.8013
30325SOL    HW294892   4.084   0.001   8.697  1.3287  0.0839 -0.8530
30326SOL     OW94893   7.821   6.290   6.852  0.2330  0.5866 -0.0210
30326SOL    HW194894   7.856   6.373   6.819  1.0724  0.2887  0.1016
30326SOL    HW294895   7.762   6.315   6.922  0.3207  1.0924 -0.1243
30327SOL     OW94896   6.388   8.677   2.269  0.6597 -0.3151 -0.0169
30327SOL    HW194897   6.395   8.706   2.360 -1.9562  0.4353  0.0183
30327SOL    HW294898   6.313   8.618   2.268 -0.5880  1.1623 -1.9728
30328SOL     OW94899   2.563   3.337   7.683  0.5556  0.0482  0.2754
30328SOL    HW194900   2.616   3.258   7.682 -1.4771 -1.4569  2.5948
30328SOL    HW294901   2.511   3.332   7.603  1.7175  0.0298 -0.5035
30329SOL     OW94902   4.046   6.342   6.042  0.0568 -0.0851  0.0769
30329SOL    HW194903   4.020   6.265   5.992  2.1691 -1.6147  1.1453
30329SOL    HW294904   4.109   6.387   5.987  0.3509 -0.2644  0.2645
30330SOL     OW94905   1.785  10.101   4.445 -0.0944 -0.2130 -0.1045
30330SOL    HW194906   1.810  10.039   4.377 -0.7957  2.0320 -2.5291
30330SOL    HW294907   1.691  10.113   4.433  0.0297  1.3030  0.3341
30331SOL     OW94908   7.513   3.185   4.727  0.0286  0.0064 -0.0546
30331SOL    HW194909   7.508   3.281   4.721 -0.3175 -0.0200 -0.1942
30331SOL    HW294910   7.543   3.168   4.816  0.2566  0.2496 -0.0809
30332SOL     OW94911   5.142   0.490   2.175  0.4574 -0.0460  0.0318
30332SOL    HW194912   5.214   0.442   2.215 -0.9393 -1.2184  1.2895
30332SOL    HW294913   5.070   0.426   2.171 -1.3480  1.7740  1.3525
30333SOL     OW94914   1.026   8.168   3.921 -0.1660  0.0736  0.4294
30333SOL    HW194915   0.947   8.124   3.889  1.0908 -1.4789 -0.6431
30333SOL    HW294916   1.019   8.161   4.017 -0.7802 -1.0893  0.3257
30334SOL     OW94917   6.581   9.110   8.560  0.1741  0.6285 -0.7145
30334SOL    HW194918   6.599   9.199   8.592  1.3447  0.4789 -0.9057
30334SOL    HW294919   6.519   9.074   8.623 -1.0001  1.8751 -1.1133
30335SOL     OW94920   4.336   9.074   6.874  0.2738  0.3034 -0.4249
30335SOL    HW194921   4.296   9.140   6.932  0.2029  0.3772 -0.5549
30335SOL    HW294922   4.293   9.088   6.789 -0.2566 -0.3771 -0.2800
30336SOL     OW94923   2.835   6.704   5.636 -0.5096 -0.0888 -0.1038
30336SOL    HW194924   2.798   6.750   5.561 -0.2982 -0.9132 -0.7203
30336SOL    HW294925   2.925   6.737   5.643 -0.9331  0.9687  0.6135
30337SOL     OW94926   8.561   2.304   3.142  0.4183 -0.5329 -0.1686
30337SOL    HW194927   8.578   2.390   3.180 -1.2734  0.2548 -1.0741
30337SOL    HW294928   8.637   2.251   3.165  0.2649  0.3899  2.7575
30338SOL     OW94929   1.465   0.254   7.307 -0.0181  0.1418 -0.2332
30338SOL    HW194930   1.450   0.342   7.274  1.5899  0.1988 -0.9133
30338SOL    HW294931   1.518   0.212   7.240 -1.4581 -1.6538 -0.3134
30339SOL     OW94932   4.067   6.477   9.371  0.0580  0.2413  0.7668
30339SOL    HW194933   4.132   6.419   9.331 -1.3219  0.7751 -2.6846
30339SOL    HW294934   4.006   6.418   9.415  0.0019 -0.7731 -0.6065
30340SOL     OW94935   3.235   2.706   4.955  0.0743 -0.9052  0.5392
30340SOL    HW194936   3.169   2.640   4.932  0.1198 -0.8406  0.2202
30340SOL    HW294937   3.241   2.762   4.877 -0.9971  0.3474  1.3112
30341SOL     OW94938   5.578   7.925   4.756 -0.8864 -0.6407 -0.6863
30341SOL    HW194939   5.594   7.849   4.700  2.1985 -0.8619  0.2875
30341SOL    HW294940   5.616   7.999   4.708 -0.0025 -0.4981  0.1910
30342SOL     OW94941   7.992   5.124   5.266  0.1009  0.0146 -0.3064
30342SOL    HW194942   8.028   5.036   5.260  0.3327  0.1928 -2.6700
30342SOL    HW294943   8.068   5.181   5.261  0.1433  0.4354  3.1265
30343SOL     OW94944   9.917   8.027   6.507 -0.1990 -0.0674  0.9047
30343SOL    HW194945   9.873   8.002   6.589 -0.1730 -1.7146  0.4459
30343SOL    HW294946   9.870   7.980   6.439  1.6285 -1.1025  0.2913
30344SOL     OW94947   6.992   1.682   3.321 -0.0938 -0.1058  0.3291
30344SOL    HW194948   7.048   1.695   3.397  1.1629  0.5534 -0.6942
30344SOL    HW294949   7.023   1.745   3.256 -0.9459 -0.8579 -0.8481
30345SOL     OW94950   0.028   2.537   3.409 -0.4737  0.5621  0.3577
30345SOL    HW194951  -0.045   2.548   3.349 -0.0177 -1.2935 -0.5980
30345SOL    HW294952  -0.013   2.537   3.496 -2.0219 -2.6741 -0.2195
30346SOL     OW94953   8.366   7.592   0.255  0.8225  0.0697  0.2766
30346SOL    HW194954   8.303   7.540   0.305  0.4360  0.3612  0.0937
30346SOL    HW294955   8.322   7.611   0.172  1.9804 -1.6191 -0.7936
30347SOL     OW94956   4.071   5.686   8.503  0.1995  0.3165 -0.4064
30347SOL    HW194957   4.024   5.769   8.508  0.5829  0.5766 -1.0314
30347SOL    HW294958   4.156   5.709   8.466  0.8287 -0.1500  0.6833
30348SOL     OW94959   2.805   3.412   4.115  0.2002 -0.4637  0.8909
30348SOL    HW194960   2.831   3.498   4.147 -0.8812  0.6841 -1.1557
30348SOL    HW294961   2.854   3.401   4.034  0.1132 -1.6677  0.9852
30349SOL     OW94962   7.772   0.170   4.057 -0.6275  0.0843 -0.0845
30349SOL    HW194963   7.731   0.146   3.974 -0.8925 -0.0021  0.0707
30349SOL    HW294964   7.716   0.239   4.093  1.6814  3.1439 -1.9020
30350SOL     OW94965   2.062   6.358   0.805  0.0134 -0.1933  0.3460
30350SOL    HW194966   2.026   6.441   0.774  0.3328  0.5285  1.7971
30350SOL    HW294967   2.157   6.371   0.805  0.0859 -0.6998  0.1986
30351SOL     OW94968   4.407   6.971   0.458 -0.4008 -0.1956  0.2208
30351SOL    HW194969   4.375   7.031   0.390 -0.5178 -1.9201 -1.3058
30351SOL    HW294970   4.502   6.985   0.458 -0.5710  1.2368  1.1647
30352SOL     OW94971   8.830  10.188   2.290  0.0632  0.1118  0.3750
30352SOL    HW194972   8.820  10.172   2.384  1.9033  1.6527  0.8866
30352SOL    HW294973   8.741  10.181   2.256 -0.7767  0.2447  2.3572
30353SOL     OW94974   7.324   0.836   5.599 -0.0676  0.2940 -0.0494
30353SOL    HW194975   7.408   0.844   5.554  0.0416  2.8811  0.5031
30353SOL    HW294976   7.269   0.785   5.538  1.4742 -0.3329 -0.9692
30354SOL     OW94977   2.627   8.682   3.448 -0.5149 -0.7486  0.3260
30354SOL    HW194978   2.642   8.777   3.448  1.1968 -0.9697  2.0267
30354SOL    HW294979   2.667   8.652   3.367 -0.1767 -0.1474  0.2612
30355SOL     OW94980   1.499   5.196   0.782 -0.0052  0.0495  0.0474
30355SOL    HW194981   1.536   5.140   0.851 -0.4252  1.4978  1.4961
30355SOL    HW294982   1.405   5.201   0.802 -0.0691  0.8099 -0.3907
30356SOL     OW94983   0.330   4.815   5.019  0.2179 -0.2593  0.2718
30356SOL    HW194984   0.291   4.818   5.106 -0.6971 -0.5196 -0.1149
30356SOL    HW294985   0.325   4.906   4.988  0.3806 -0.1996  0.4197
30357SOL     OW94986   2.340   7.021   0.540  0.0945  0.3115  0.3121
30357SOL    HW194987   2.408   7.071   0.586  1.3539  0.4470 -1.6086
30357SOL    HW294988   2.316   7.076   0.465 -1.8142  0.0336  0.6546
30358SOL     OW94989   8.129   4.126  10.179 -0.0462  0.2126  0.6741
30358SOL    HW194990   8.161   4.189  10.114 -1.1586  1.8095  1.6115
30358SOL    HW294991   8.088   4.057  10.127 -0.0676  0.9652 -0.3549
30359SOL     OW94992   3.858   8.082   6.001  0.0920  0.1385 -0.2362
30359SOL    HW194993   3.882   8.001   6.047 -0.6333  0.5269  0.8588
30359SOL    HW294994   3.838   8.144   6.070 -2.2780  0.3845 -1.0376
30360SOL     OW94995   7.270   6.960   5.403 -0.4241 -0.1743  0.0206
30360SOL    HW194996   7.308   6.873   5.418 -0.3962 -0.2128 -0.2511
30360SOL    HW294997   7.256   6.997   5.490  2.8547  0.9886  0.1963
30361SOL     OW94998   0.372   0.648   1.063 -0.8222 -0.6399 -0.3367
30361SOL    HW194999   0.438   0.595   1.108 -0.3337  0.3629  0.1601
30361SOL    HW295000   0.415   0.673   0.981  0.2010  1.5873  0.8013
30362SOL     OW95001   1.937   7.694   2.760 -0.0689 -0.2669  0.2568
30362SOL    HW195002   1.866   7.631   2.776 -1.0628  0.5656 -0.7576
30362SOL    HW295003   1.982   7.660   2.682 -0.3510  0.0553 -0.0480
30363SOL     OW95004   9.088   6.446   4.427  0.1245 -0.0728 -0.5965
30363SOL    HW195005   9.063   6.475   4.339  0.2629 -0.8755 -0.9048
30363SOL    HW295006   9.181   6.425   4.420  0.0788 -0.3657 -0.3145
30364SOL     OW95007   7.747   7.498   7.825  0.1725  0.3859  0.0992
30364SOL    HW195008   7.830   7.532   7.793 -0.7732  0.5335 -2.4079
30364SOL    HW295009   7.687   7.572   7.822 -0.7601 -0.3782 -0.9555
30365SOL     OW95010   9.082   0.201   1.461  0.2483 -0.3641  0.4626
30365SOL    HW195011   9.047   0.147   1.390 -1.0392 -0.3905  1.0930
30365SOL    HW295012   9.154   0.250   1.420 -0.0699 -0.8236 -0.6979
30366SOL     OW95013   4.663   7.938   7.166 -0.0918 -0.3141 -0.0179
30366SOL    HW195014   4.684   7.850   7.134  0.6886 -0.1989  0.1527
30366SOL    HW295015   4.741   7.990   7.147  0.1077 -0.0615  1.3758
30367SOL     OW95016   4.099   3.994   0.681 -0.0095  0.6310 -0.0790
30367SOL    HW195017   4.108   3.923   0.617 -0.3537  0.0740  0.4822
30367SOL    HW295018   4.011   4.027   0.666 -0.7510 -0.6439  1.2442
30368SOL     OW95019   9.359   7.148   3.737 -0.0862  0.3738  0.7522
30368SOL    HW195020   9.323   7.218   3.792  1.2826  2.1527 -0.4967
30368SOL    HW295021   9.317   7.159   3.652 -0.7697 -1.1521  0.8584
30369SOL     OW95022   8.972   9.389   8.253  0.2018 -0.2043 -0.3476
30369SOL    HW195023   8.975   9.393   8.349 -2.5456 -2.2601 -0.0262
30369SOL    HW295024   9.005   9.302   8.232 -0.9147 -0.4858 -1.0463
30370SOL     OW95025   0.895   4.666   0.203  0.2289  0.5463  0.0526
30370SOL    HW195026   0.875   4.752   0.240  1.3311  1.0758 -0.5069
30370SOL    HW295027   0.829   4.653   0.134  0.8910  1.5950 -0.8072
30371SOL     OW95028   9.301   7.373   6.800  0.1290  0.0762 -0.3618
30371SOL    HW195029   9.242   7.438   6.763  0.1319 -1.1166 -2.6276
30371SOL    HW295030   9.384   7.419   6.812  0.3612  0.3497 -2.6629
30372SOL     OW95031   6.704   3.843   5.286  0.3797  0.0826 -0.2564
30372SOL    HW195032   6.616   3.810   5.273  0.0474 -0.1448  2.0736
30372SOL    HW295033   6.749   3.828   5.203 -0.8413 -2.7750 -0.4962
30373SOL     OW95034   7.632   2.221   5.572 -0.2538  0.4616 -0.4684
30373SOL    HW195035   7.604   2.177   5.492 -1.3711  0.4184 -0.0658
30373SOL    HW295036   7.634   2.314   5.550 -1.1228  0.5012 -0.3876
30374SOL     OW95037   5.402   2.108   4.626  0.5896  0.0199 -0.0286
30374SOL    HW195038   5.478   2.159   4.597  0.2368  1.5039  1.5405
30374SOL    HW295039   5.440   2.034   4.673  1.1190  1.0326  1.2138
30375SOL     OW95040   4.263   9.397   3.454  0.0836  0.2925  0.0629
30375SOL    HW195041   4.345   9.445   3.454 -0.8838  2.2101  2.5230
30375SOL    HW295042   4.207   9.445   3.516 -2.5619 -1.4636 -0.7614
30376SOL     OW95043   4.281   9.801   3.384  0.2209 -0.2478  0.3964
30376SOL    HW195044   4.333   9.764   3.313  0.4705  0.0049  0.4441
30376SOL    HW295045   4.343   9.856   3.432  0.1469 -0.6797  1.0083
30377SOL     OW95046   0.132   2.481   5.603  0.4419 -0.1896 -0.1604
30377SOL    HW195047   0.204   2.489   5.665 -0.4439 -1.4554  1.0924
30377SOL    HW295048   0.139   2.559   5.548  2.2357  0.1416  0.4736
30378SOL     OW95049   5.626   7.011   8.017 -0.1328 -0.3817  0.0102
30378SOL    HW195050   5.659   7.080   8.073  0.3151  0.6025 -1.4098
30378SOL    HW295051   5.540   6.989   8.053 -0.1136  0.6553  0.6958
30379SOL     OW95052   1.229   2.086   7.587 -0.1857 -0.4277  0.5162
30379SOL    HW195053   1.143   2.051   7.611 -0.4486 -0.5874 -0.5857
30379SOL    HW295054   1.291   2.029   7.632 -0.6086 -2.3774 -1.2015
30380SOL     OW95055   4.256   7.453   2.076 -0.2665 -0.4303 -0.1631
30380SOL    HW195056   4.224   7.472   1.988  3.6656  1.0375 -1.4872
30380SOL    HW295057   4.212   7.518   2.131 -0.5885  0.5976 -1.5669
30381SOL     OW95058   7.041   6.492   5.421 -0.2811 -0.4115  0.5693
30381SOL    HW195059   7.062   6.441   5.343  1.7435 -1.6110  1.8075
30381SOL    HW295060   7.019   6.579   5.388  0.0998 -1.0005 -1.3491
30382SOL     OW95061   7.720   7.817   5.882  0.0208  0.3649 -0.3429
30382SOL    HW195062   7.681   7.903   5.868  1.3318  0.9538 -0.5927
30382SOL    HW295063   7.651   7.755   5.861 -1.3575  1.3491  1.0636
30383SOL     OW95064   0.567  10.106   9.163 -0.0492  0.5490 -0.0234
30383SOL    HW195065   0.580  10.051   9.086 -1.8692  0.1924 -0.1171
30383SOL    HW295066   0.563  10.045   9.237  0.1702  0.7613  0.1689
30384SOL     OW95067   9.304   9.647   1.852  0.3238 -0.3267  0.2600
30384SOL    HW195068   9.212   9.654   1.829  0.2532 -0.5548  0.4619
30384SOL    HW295069   9.305   9.656   1.948  0.7117  1.6492  0.1080
30385SOL     OW95070   8.412   4.206   0.079 -0.0754 -0.5406  0.4811
30385SOL    HW195071   8.433   4.288   0.035  2.3356 -0.5797  1.4369
30385SOL    HW295072   8.392   4.145   0.007 -1.9260  0.8119 -0.2361
30386SOL     OW95073   6.061   2.279   5.309  0.0444  0.1730  0.5777
30386SOL    HW195074   6.005   2.357   5.312 -0.0236  0.1160  0.7836
30386SOL    HW295075   6.030   2.224   5.381 -0.0202 -0.1225  0.3301
30387SOL     OW95076   2.780   8.235   0.378  0.7569  0.8929 -0.1796
30387SOL    HW195077   2.689   8.206   0.379  1.5112 -1.7479  0.3709
30387SOL    HW295078   2.789   8.286   0.297 -0.0324 -3.1777 -3.1475
30388SOL     OW95079   3.091   8.251   9.679 -0.0450  0.0809 -0.1955
30388SOL    HW195080   3.125   8.339   9.670 -1.2024  0.8365  1.9784
30388SOL    HW295081   3.134   8.201   9.610  0.7580  2.2820 -1.3845
30389SOL     OW95082   1.875   3.590   7.080  0.2001 -0.4379 -0.0785
30389SOL    HW195083   1.938   3.540   7.131  0.1023 -1.6501 -1.0889
30389SOL    HW295084   1.929   3.649   7.027  0.5952 -2.0402 -1.5418
30390SOL     OW95085   6.202   6.454   6.152 -0.4974  0.1594 -0.1542
30390SOL    HW195086   6.147   6.376   6.141 -0.8809  0.4329 -0.2079
30390SOL    HW295087   6.144   6.518   6.194  0.4767 -0.3415  2.1026
30391SOL     OW95088   6.544   2.901   5.834 -0.2904  0.2666  0.0773
30391SOL    HW195089   6.569   2.837   5.900 -1.3833  2.3053  2.6223
30391SOL    HW295090   6.616   2.963   5.831 -1.5722  1.9805  1.8997
30392SOL     OW95091   3.071  10.106   0.171 -0.0409 -0.5934 -0.4577
30392SOL    HW195092   2.990  10.128   0.126  0.2707  2.3984  0.2599
30392SOL    HW295093   3.053  10.022   0.214 -3.0100  0.3518  0.3196
30393SOL     OW95094   1.615   0.242   9.700 -0.0744  0.0505 -0.7749
30393SOL    HW195095   1.640   0.151   9.686 -0.0070 -0.2377  1.0118
30393SOL    HW295096   1.526   0.237   9.736  0.5312  0.5398  0.9067
30394SOL     OW95097   6.988   2.426   0.362  0.7147 -0.4949  0.2412
30394SOL    HW195098   6.914   2.366   0.374  0.4583 -0.1111  0.5715
30394SOL    HW295099   6.973   2.465   0.276 -0.8357  1.4562  1.3266
30395SOL     OW95100  10.152   2.915   0.293 -0.3277  0.2203 -0.3714
30395SOL    HW195101  10.079   2.853   0.293  0.0376 -0.2161  0.1115
30395SOL    HW295102  10.168   2.934   0.385 -0.0645  0.5874 -0.4906
30396SOL     OW95103   3.100   8.960   5.259  0.0621  0.3455 -0.4647
30396SOL    HW195104   3.009   8.938   5.279 -0.0753  1.1933 -0.1107
30396SOL    HW295105   3.146   8.876   5.261 -0.2088  0.1911  2.0359
30397SOL     OW95106  10.111   1.387   4.516 -0.6261 -0.3751  0.3628
30397SOL    HW195107  10.047   1.440   4.468  0.2543  0.3396 -0.0399
30397SOL    HW295108  10.092   1.405   4.608 -0.9407 -0.0907  0.2473
30398SOL     OW95109   7.567   1.383   9.587  0.0199 -0.1197 -0.3623
30398SOL    HW195110   7.637   1.374   9.523  1.3338 -0.1160  1.0057
30398SOL    HW295111   7.487   1.362   9.539  0.8013  0.9509 -2.2665
30399SOL     OW95112   0.784   8.243   4.307  0.3134 -0.2471 -0.3298
30399SOL    HW195113   0.750   8.205   4.226 -0.1466 -0.5359 -0.0072
30399SOL    HW295114   0.735   8.323   4.319  1.1260  0.3517 -0.8897
30400SOL     OW95115   0.832   6.247   0.402 -0.2158  0.4828  0.6559
30400SOL    HW195116   0.759   6.259   0.462 -0.7114  2.2330 -0.2275
30400SOL    HW295117   0.885   6.326   0.413  0.7014 -0.0431  0.1375
30401SOL     OW95118   4.265   8.488   9.955  0.0903  0.1572 -0.0667
30401SOL    HW195119   4.221   8.424  10.010 -1.8279  0.1743 -1.4764
30401SOL    HW295120   4.342   8.443   9.922  0.1985 -0.5070  1.0496
30402SOL     OW95121   3.094   0.035   1.471  0.0132  0.1218 -0.2439
30402SOL    HW195122   3.044   0.063   1.548  0.2423  0.1074 -0.0883
30402SOL    HW295123   3.083  -0.060   1.469  1.8171 -0.1785  1.0771
30403SOL     OW95124   9.490   6.712   2.561 -0.2873 -1.1376  0.1204
30403SOL    HW195125   9.484   6.663   2.644  0.0704  0.3606  1.0700
30403SOL    HW295126   9.430   6.785   2.572 -0.0218 -0.7686 -0.8316
30404SOL     OW95127   6.301   9.563   2.993 -0.4089 -0.2459 -0.5180
30404SOL    HW195128   6.211   9.534   3.011 -0.1232 -0.8820 -0.0778
30404SOL    HW295129   6.305   9.574   2.898 -0.7508 -0.8950 -0.6079
30405SOL     OW95130   3.613   4.622   2.987  0.2253 -0.5136  0.3217
30405SOL    HW195131   3.543   4.670   3.031  0.3258  0.4751 -0.5798
30405SOL    HW295132   3.644   4.561   3.054 -1.4957 -1.0032  0.7398
30406SOL     OW95133   0.709   4.936   7.339  0.5245 -0.6609 -0.1830
30406SOL    HW195134   0.747   4.929   7.251  0.7348 -2.3110  0.0094
30406SOL    HW295135   0.760   4.876   7.392 -1.1681 -1.5871  0.4933
30407SOL     OW95136   8.272   1.207   3.225  0.2951  0.3549 -0.1844
30407SOL    HW195137   8.361   1.241   3.217  1.5098 -2.7628 -1.7305
30407SOL    HW295138   8.279   1.137   3.290 -1.1575  0.4333  0.0761
30408SOL     OW95139   0.478   8.323   6.570 -0.4114 -0.3748 -0.4637
30408SOL    HW195140   0.459   8.240   6.615  0.6955 -1.7688 -2.3889
30408SOL    HW295141   0.573   8.326   6.567 -0.4202  1.3483  0.1354
30409SOL     OW95142   3.304   0.332   6.778  0.0637 -0.0747 -0.2684
30409SOL    HW195143   3.281   0.424   6.784 -0.2147 -0.1916  0.5597
30409SOL    HW295144   3.396   0.332   6.751  0.2429  0.4591  0.3028
30410SOL     OW95145   3.184   7.543   2.815  0.2963 -0.2648  0.2482
30410SOL    HW195146   3.213   7.619   2.765 -1.0146  0.8160  1.0738
30410SOL    HW295147   3.263   7.511   2.858  0.6943  1.2682  0.7080
30411SOL     OW95148   4.213   5.540   9.083  0.5558 -0.1846 -0.2463
30411SOL    HW195149   4.126   5.517   9.117  1.3923 -0.7969  1.6017
30411SOL    HW295150   4.210   5.636   9.074  0.0976 -0.0418  1.1078
30412SOL     OW95151   6.415   8.467   3.343  0.5919 -0.0699 -0.1280
30412SOL    HW195152   6.343   8.426   3.294 -0.6040  2.0357 -0.3113
30412SOL    HW295153   6.395   8.449   3.435  1.2821 -1.6417 -0.2541
30413SOL     OW95154   2.291   0.910   1.892 -0.1002 -0.2112  0.3414
30413SOL    HW195155   2.303   0.975   1.961 -0.2871  0.2628 -0.0639
30413SOL    HW295156   2.373   0.911   1.843 -1.0248  1.7025 -1.3123
30414SOL     OW95157   0.340   8.456   6.976  0.1775  0.2894 -0.0118
30414SOL    HW195158   0.290   8.537   6.982  0.6411  0.5636  0.2968
30414SOL    HW295159   0.415   8.478   6.920  0.0616 -0.0539 -0.3052
30415SOL     OW95160   0.397   0.926   3.529  0.1289 -0.2412 -0.3620
30415SOL    HW195161   0.356   0.869   3.464 -1.3777 -2.2355  2.1739
30415SOL    HW295162   0.331   0.993   3.547  0.5459  0.3130 -0.8763
30416SOL     OW95163   5.005  10.055   2.580 -0.5215  0.4707 -0.0628
30416SOL    HW195164   4.991  10.142   2.542  1.4375  0.6892 -0.3974
30416SOL    HW295165   5.099  10.042   2.574 -0.8436 -2.0240 -0.7549
30417SOL     OW95166   4.958   4.083   9.029 -0.7093  0.4267 -0.2856
30417SOL    HW195167   4.979   4.174   9.053 -0.4937  0.3683 -0.2507
30417SOL    HW295168   5.030   4.056   8.973  0.7161 -0.6546  1.9734
30418SOL     OW95169   7.448   2.605   9.906  0.1203 -0.9096 -0.1068
30418SOL    HW195170   7.396   2.525   9.894  0.2149 -0.9189 -0.4816
30418SOL    HW295171   7.428   2.657   9.828  1.0660 -1.1350 -0.5110
30419SOL     OW95172   1.051   3.095  10.164 -0.1286  0.3769 -0.4006
30419SOL    HW195173   1.100   3.169  10.128  1.3029 -0.6729 -0.6941
30419SOL    HW295174   0.983   3.077  10.099 -0.8525  1.7468 -0.0713
30420SOL     OW95175   7.176   8.196   9.006  0.3475  0.6657  0.3585
30420SOL    HW195176   7.090   8.203   9.048 -0.2120 -0.8870 -0.4372
30420SOL    HW295177   7.232   8.154   9.071 -0.3502 -1.1447 -0.1386
30421SOL     OW95178   7.523   3.261   8.502 -0.0557  0.3830 -0.0950
30421SOL    HW195179   7.466   3.185   8.515 -0.7591  0.7958 -0.6783
30421SOL    HW295180   7.464   3.336   8.509  0.2919  0.7949 -1.3346
30422SOL     OW95181   6.828   7.290   1.636 -0.0214 -0.5683 -0.3646
30422SOL    HW195182   6.795   7.244   1.713  1.7796  1.3861  1.7339
30422SOL    HW295183   6.772   7.368   1.629  2.1348  1.2880  1.4895
30423SOL     OW95184   9.303   0.021   4.772 -0.3391  0.1730 -0.0901
30423SOL    HW195185   9.337   0.030   4.861  0.9096 -0.1224 -0.5124
30423SOL    HW295186   9.225  -0.034   4.781  0.2890 -0.6092  0.7282
30424SOL     OW95187   6.294   9.708   0.470  0.0605 -0.9767  0.1516
30424SOL    HW195188   6.320   9.617   0.454  0.4559 -0.6327 -1.2840
30424SOL    HW295189   6.341   9.758   0.404 -1.8895  0.0062 -0.5604
30425SOL     OW95190   1.420   8.698   3.957 -0.2556 -0.5429 -0.4083
30425SOL    HW195191   1.352   8.756   3.922 -0.6380 -1.2010 -0.7614
30425SOL    HW295192   1.426   8.627   3.894 -0.3006 -1.2770  0.3941
30426SOL     OW95193   8.216   6.238   2.554  0.0867  0.3721 -0.3885
30426SOL    HW195194   8.260   6.262   2.473 -0.2584  0.7858 -0.4582
30426SOL    HW295195   8.226   6.143   2.560 -1.0278  0.1436 -1.6039
30427SOL     OW95196   2.576   0.327   1.574 -0.5403  0.1661 -0.4028
30427SOL    HW195197   2.660   0.294   1.540 -0.1505 -1.7134  2.1420
30427SOL    HW295198   2.510   0.277   1.526 -0.2615  1.2823 -2.0454
30428SOL     OW95199   4.315   5.790   9.991  0.5472  0.4608 -0.9314
30428SOL    HW195200   4.336   5.883   9.991 -1.7140  1.0454 -0.0649
30428SOL    HW295201   4.268   5.776   9.909 -2.2828  0.9999  0.4601
30429SOL     OW95202   1.737   7.526   4.912 -0.0614  0.5432 -0.6027
30429SOL    HW195203   1.745   7.461   4.981  0.9553  1.5652  0.3026
30429SOL    HW295204   1.823   7.527   4.870 -0.0059  1.3924 -0.4919
30430SOL     OW95205   8.138   8.273   7.797 -0.1205 -0.7516  0.1328
30430SOL    HW195206   8.183   8.283   7.713  0.4588 -0.2106  0.5012
30430SOL    HW295207   8.162   8.185   7.827  0.8958 -0.3880  0.4308
30431SOL     OW95208   5.912   2.269   6.037  0.2105  0.3534  0.2753
30431SOL    HW195209   5.820   2.254   6.058 -0.4140  1.5069 -1.4123
30431SOL    HW295210   5.960   2.221   6.104 -1.6056  0.5107  1.7698
30432SOL     OW95211   9.748   5.441   0.983  0.5781 -0.2526  0.6457
30432SOL    HW195212   9.692   5.470   0.912  0.0228 -1.4254  0.5718
30432SOL    HW295213   9.837   5.447   0.949  0.4032  0.3750  0.2979
30433SOL     OW95214   9.863   2.443   1.544  1.0449 -0.3919  0.2393
30433SOL    HW195215   9.885   2.515   1.603 -1.4293 -0.0151  0.8011
30433SOL    HW295216   9.801   2.481   1.481  3.0597 -0.9475 -2.2851
30434SOL     OW95217   5.472   3.975   8.680 -0.6779  0.2412  0.1063
30434SOL    HW195218   5.567   3.967   8.687 -0.8080  0.1543  3.4100
30434SOL    HW295219   5.443   3.889   8.651  0.2834  0.9688 -3.4969
30435SOL     OW95220   3.227   9.744   8.387  0.2228 -0.4025  0.4200
30435SOL    HW195221   3.315   9.776   8.365  0.9395 -1.6887  1.2930
30435SOL    HW295222   3.178   9.752   8.306  1.0379  0.6510  0.0006
30436SOL     OW95223   0.582   5.563   2.904  0.0286 -0.6273  0.0297
30436SOL    HW195224   0.500   5.547   2.951  0.8577 -0.2428  1.6915
30436SOL    HW295225   0.645   5.586   2.973  1.1733  0.5537 -1.3425
30437SOL     OW95226   0.534   2.183   7.857  0.0382 -0.0089  0.5214
30437SOL    HW195227   0.589   2.261   7.849  0.1437 -0.1692 -0.4891
30437SOL    HW295228   0.537   2.143   7.770 -1.1973 -0.3534  0.6277
30438SOL     OW95229   6.971   8.840   3.487  0.6981  0.1749  0.2597
30438SOL    HW195230   7.022   8.762   3.509  1.0217 -0.1682 -1.5592
30438SOL    HW295231   7.037   8.908   3.472  0.4800  0.4571  0.5883
30439SOL     OW95232   9.250   1.118   2.779 -0.1083  0.0845 -0.1155
30439SOL    HW195233   9.309   1.139   2.851  1.3009  1.4197 -1.5569
30439SOL    HW295234   9.166   1.156   2.805  0.6277  1.4053  0.4235
30440SOL     OW95235   7.698   8.512   3.556  0.0236 -0.0666 -0.1280
30440SOL    HW195236   7.625   8.516   3.494  0.8300  0.8661 -1.0690
30440SOL    HW295237   7.775   8.497   3.501  0.4378 -2.3955  0.9586
30441SOL     OW95238   6.897   8.443   8.276 -0.1332  0.6721 -0.2517
30441SOL    HW195239   6.954   8.380   8.231 -0.8838  0.3250 -0.7460
30441SOL    HW295240   6.809   8.422   8.244 -0.2995  2.6447 -1.2223
30442SOL     OW95241   2.143   4.649   4.944  0.3725  0.6354 -0.3340
30442SOL    HW195242   2.205   4.577   4.932 -0.0526  0.4105 -1.2732
30442SOL    HW295243   2.195   4.720   4.982  1.6440  1.0350 -2.6384
30443SOL     OW95244   7.262   2.004   0.276 -0.0193 -0.3858 -0.0367
30443SOL    HW195245   7.327   1.941   0.305  0.7761  0.3587 -0.1753
30443SOL    HW295246   7.288   2.087   0.317 -1.9531 -0.4466  1.4735
30444SOL     OW95247   4.484   9.915   3.513 -0.0909  0.3090  0.0205
30444SOL    HW195248   4.556   9.930   3.452  1.1502  0.2307  1.4210
30444SOL    HW295249   4.470  10.000   3.555 -0.4903  0.1997  0.1104
30445SOL     OW95250   2.070   3.489   1.718  0.5524 -0.0465  0.3108
30445SOL    HW195251   2.141   3.430   1.743 -0.5286 -1.1835  0.7704
30445SOL    HW295252   2.094   3.573   1.757  2.0872 -0.1630 -0.3075
30446SOL     OW95253   5.948   5.932   5.732  0.0401 -0.2807  0.3741
30446SOL    HW195254   5.941   5.882   5.813 -1.9907 -0.5409  0.1107
30446SOL    HW295255   5.966   6.022   5.760  1.6101 -0.7537  0.9587
30447SOL     OW95256   6.339   9.812   9.984  0.4375  0.0731  0.5039
30447SOL    HW195257   6.265   9.780  10.034 -0.2342 -1.1762 -1.1997
30447SOL    HW295258   6.402   9.740   9.985  2.2565  1.5479  2.9642
30448SOL     OW95259   5.970   8.819   7.474  0.1884  0.0200  0.1608
30448SOL    HW195260   5.945   8.830   7.382  2.1402 -0.5864 -0.4813
30448SOL    HW295261   5.887   8.800   7.519 -0.9513  1.3255 -1.2753
30449SOL     OW95262   8.340   2.789   7.411 -0.4960 -0.4564  0.3436
30449SOL    HW195263   8.427   2.774   7.448 -0.1841 -2.0178 -0.9063
30449SOL    HW295264   8.297   2.845   7.475  1.4983  0.5690  0.8937
30450SOL     OW95265   2.518   1.635   6.450  0.1479 -0.1127  0.0284
30450SOL    HW195266   2.537   1.549   6.412  1.4889 -0.1797  0.7745
30450SOL    HW295267   2.428   1.628   6.481 -0.2340 -0.7694 -1.1827
30451SOL     OW95268   3.479   2.486   9.836 -0.1586  0.1014  1.0450
30451SOL    HW195269   3.528   2.568   9.829  0.0304 -0.0874 -0.2025
30451SOL    HW295270   3.411   2.494   9.768  1.1860 -1.6294 -0.6060
30452SOL     OW95271   4.698   1.604   3.987  0.7786  0.2326  0.0108
30452SOL    HW195272   4.726   1.588   4.077  1.2375  1.2539  0.0673
30452SOL    HW295273   4.708   1.698   3.975 -1.2660  0.4571 -0.4369
30453SOL     OW95274   5.032   1.703   7.792  0.4516 -0.7263  0.4378
30453SOL    HW195275   5.123   1.675   7.795  1.0176  0.8050 -0.8760
30453SOL    HW295276   5.022   1.744   7.705 -1.0988  0.3261  1.0568
30454SOL     OW95277   2.214   8.069   9.477  0.3989  0.5267  0.0114
30454SOL    HW195278   2.231   8.154   9.517  0.0920  0.0944  1.0781
30454SOL    HW295279   2.221   8.085   9.383 -1.0245  2.0232  0.1287
30455SOL     OW95280   9.250   3.067   5.327  0.3133  0.1189  0.1832
30455SOL    HW195281   9.162   3.089   5.296  0.0559  0.1972  0.9315
30455SOL    HW295282   9.272   3.136   5.389  0.0636 -0.9559  1.5301
30456SOL     OW95283  10.179   4.742   4.452  0.2063 -0.2072  0.0755
30456SOL    HW195284  10.212   4.688   4.524 -1.5734  0.7849  1.7730
30456SOL    HW295285  10.103   4.694   4.419  0.3151 -0.0859 -0.3597
30457SOL     OW95286   4.963   9.739   4.471 -0.3079  0.1913 -0.2018
30457SOL    HW195287   4.898   9.715   4.405  1.1302 -0.2593 -1.5067
30457SOL    HW295288   5.009   9.814   4.434 -0.4112  0.8376  0.9368
30458SOL     OW95289   5.062   5.727   0.565 -0.0515 -0.3414  0.2323
30458SOL    HW195290   4.993   5.785   0.534  1.0600  0.0403 -1.7166
30458SOL    HW295291   5.036   5.641   0.532  1.2436  0.0987 -2.2228
30459SOL     OW95292   8.028   0.424   0.874  0.5889  0.3225  0.7479
30459SOL    HW195293   7.985   0.507   0.893  1.0315  0.4168  1.3656
30459SOL    HW295294   7.960   0.370   0.834  0.3454  1.0350  0.1940
30460SOL     OW95295   8.474   9.502   7.058 -0.0161  0.3856  0.4138
30460SOL    HW195296   8.486   9.523   6.965  2.3298  0.8320  0.7586
30460SOL    HW295297   8.384   9.528   7.076 -0.5236  0.3201 -1.7137
30461SOL     OW95298  10.071   9.250   8.961  0.0792  0.2285 -0.4381
30461SOL    HW195299  10.016   9.238   9.038  1.7487 -0.4227  0.7266
30461SOL    HW295300  10.044   9.334   8.925 -1.0422  0.3491  0.6118
30462SOL     OW95301   1.746   6.876   3.835 -0.2057  0.3226  0.0590
30462SOL    HW195302   1.663   6.856   3.792 -0.9642 -0.2471  1.6698
30462SOL    HW295303   1.790   6.791   3.843 -0.4389  0.2799  1.0599
30463SOL     OW95304   4.955   4.867   5.571 -0.2841  0.1099 -0.6328
30463SOL    HW195305   5.024   4.826   5.519 -1.2342 -1.8123 -0.4794
30463SOL    HW295306   4.877   4.863   5.515 -0.3441  2.1449 -0.7672
30464SOL     OW95307   0.226   5.683   6.230 -0.6674  0.8072 -0.0948
30464SOL    HW195308   0.282   5.758   6.251 -1.8945  2.1849 -1.5347
30464SOL    HW295309   0.286   5.609   6.226  0.7255  1.8594  0.4224
30465SOL     OW95310   4.079   7.512   1.889  0.1087  0.6041 -0.4464
30465SOL    HW195311   4.060   7.587   1.833 -0.1702  0.8213 -0.0652
30465SOL    HW295312   4.070   7.436   1.831 -0.4967  0.8061 -0.6208
30466SOL     OW95313   1.920   5.307   4.824 -0.0469 -0.3704 -0.2236
30466SOL    HW195314   1.840   5.315   4.771 -0.2250  0.1685  0.1252
30466SOL    HW295315   1.925   5.388   4.874  1.1448 -0.0659 -0.8081
30467SOL     OW95316   2.449   2.825   2.023 -0.2476  0.2568 -0.1868
30467SOL    HW195317   2.372   2.793   2.070 -0.7898  1.1252 -0.4649
30467SOL    HW295318   2.475   2.904   2.070 -0.7451  1.0865 -1.2740
30468SOL     OW95319   8.715   2.235   8.500  0.3826 -0.1528 -0.1220
30468SOL    HW195320   8.718   2.146   8.535  1.2970  0.2400  0.8629
30468SOL    HW295321   8.656   2.282   8.558 -0.2693 -0.1639 -0.7706
30469SOL     OW95322   5.403   4.585   5.362  0.2755 -0.7309  0.1665
30469SOL    HW195323   5.395   4.673   5.326  2.2771 -0.8527 -0.6997
30469SOL    HW295324   5.426   4.599   5.454 -0.2923 -0.3622  0.2542
30470SOL     OW95325   0.016   4.008   7.037 -0.3126  0.5793  0.1736
30470SOL    HW195326   0.061   4.066   6.976  1.4538 -1.2144 -0.3301
30470SOL    HW295327   0.075   4.003   7.113 -1.2744  0.7857  0.9634
30471SOL     OW95328   9.196   4.829   4.711  0.0863  0.3250  0.1555
30471SOL    HW195329   9.207   4.900   4.775  1.4821  1.9846 -1.7945
30471SOL    HW295330   9.103   4.832   4.687  0.1661  1.6942 -0.0645
30472SOL     OW95331   8.894   8.847   3.353 -0.2109 -0.1348 -0.4256
30472SOL    HW195332   8.815   8.845   3.407  0.5372  2.0706  0.8615
30472SOL    HW295333   8.888   8.767   3.300 -3.1109 -0.1934 -0.1678
30473SOL     OW95334   1.826   8.937   1.318  0.0313  0.0004 -0.5668
30473SOL    HW195335   1.781   8.867   1.366  0.5145 -0.9648 -1.4658
30473SOL    HW295336   1.783   9.017   1.347 -2.5998 -0.8859 -1.7161
30474SOL     OW95337   3.196   6.795   9.381 -0.1101 -0.4779 -0.1440
30474SOL    HW195338   3.167   6.820   9.294 -1.0887 -0.6586  0.1141
30474SOL    HW295339   3.125   6.739   9.415 -0.1088  0.2019  1.0446
30475SOL     OW95340   6.636   5.062   4.957  0.2027 -0.3304 -0.1286
30475SOL    HW195341   6.648   5.104   4.872  0.9749  0.9764  0.5883
30475SOL    HW295342   6.716   5.084   5.006 -1.1174  0.7833  1.6519
30476SOL     OW95343   1.022   5.667   2.479 -0.0160 -0.1793 -0.2362
30476SOL    HW195344   0.954   5.606   2.510  0.3670 -0.2271  0.5281
30476SOL    HW295345   0.991   5.695   2.393 -2.0011  1.3010  0.8699
30477SOL     OW95346   1.202   6.767   4.146 -0.4973 -0.0364  0.3923
30477SOL    HW195347   1.196   6.802   4.235  0.8439 -0.4976  0.6840
30477SOL    HW295348   1.191   6.844   4.090  2.2525  0.9367  1.0243
30478SOL     OW95349   1.640   6.745   0.901  0.1704  0.0453  0.2938
30478SOL    HW195350   1.583   6.701   0.965 -0.0729 -0.5958 -0.3518
30478SOL    HW295351   1.699   6.798   0.955 -0.5115  0.0918  1.0150
30479SOL     OW95352   9.379   7.616   3.018 -0.0672  0.4654  0.5642
30479SOL    HW195353   9.341   7.695   2.979 -1.3350  0.6791  2.1321
30479SOL    HW295354   9.469   7.613   2.985 -0.7955  1.0676 -1.6710
30480SOL     OW95355   4.386   8.791   6.439 -0.3904 -0.1306  0.4146
30480SOL    HW195356   4.390   8.698   6.416  0.2522 -0.0890  0.3292
30480SOL    HW295357   4.309   8.824   6.394  0.3644 -0.2375 -1.0149
30481SOL     OW95358   4.171   3.579   4.137  0.0109 -0.2614 -0.0987
30481SOL    HW195359   4.143   3.659   4.093 -0.7920 -1.8724 -2.8017
30481SOL    HW295360   4.189   3.605   4.227  0.0501  2.9674 -0.9371
30482SOL     OW95361   9.675   0.217   3.434 -0.3007  0.4561 -0.3113
30482SOL    HW195362   9.728   0.199   3.511 -1.1938  2.4517  0.8500
30482SOL    HW295363   9.585   0.196   3.460 -0.4716 -0.0967 -1.2736
30483SOL     OW95364   9.110   4.654   1.129  0.4936 -0.6800 -0.0133
30483SOL    HW195365   9.024   4.694   1.146  0.9686 -0.2742  1.5600
30483SOL    HW295366   9.165   4.684   1.201  2.0232 -0.7847 -1.1070
30484SOL     OW95367   1.039   4.944   5.979  0.2276 -0.6549  0.0630
30484SOL    HW195368   0.955   4.902   5.995  0.7504 -0.9565  2.2929
30484SOL    HW295369   1.104   4.879   6.005  1.1378  0.0005 -0.5173
30485SOL     OW95370   2.309   6.100   3.425  0.3621 -0.4008 -0.3301
30485SOL    HW195371   2.315   6.183   3.471 -1.2896 -0.7596  0.6268
30485SOL    HW295372   2.363   6.040   3.476 -0.0511 -0.3765  0.1444
30486SOL     OW95373   6.757   7.974   9.128  0.0429  0.2023  0.1508
30486SOL    HW195374   6.670   7.964   9.166 -0.1656 -0.7499 -0.5549
30486SOL    HW295375   6.745   7.956   9.035  1.1925 -1.0440  0.2218
30487SOL     OW95376   7.706   0.173   7.237  0.1797 -0.0243 -0.3228
30487SOL    HW195377   7.744   0.166   7.325 -0.1292 -1.0640 -0.2477
30487SOL    HW295378   7.739   0.095   7.192 -1.2786 -0.5737 -0.4732
30488SOL     OW95379   9.624   9.920   9.925  0.4615 -0.7304  0.1122
30488SOL    HW195380   9.653   9.845   9.978 -1.6798 -0.2059  2.2364
30488SOL    HW295381   9.548   9.954   9.972  1.6971  3.2234 -0.3532
30489SOL     OW95382   6.429   0.715   2.631  0.1696  0.0746  0.0280
30489SOL    HW195383   6.341   0.747   2.650 -0.0455 -0.0993 -0.6566
30489SOL    HW295384   6.476   0.791   2.597 -0.1199 -0.1394 -0.8824
30490SOL     OW95385   7.092   1.729   0.228  0.6992 -0.5267 -0.3030
30490SOL    HW195386   7.083   1.706   0.136 -0.6960  0.1325 -0.3537
30490SOL    HW295387   7.162   1.795   0.229 -0.9073  1.2975 -1.2640
30491SOL     OW95388   3.013   5.439   1.552  0.0438 -0.2143  0.6742
30491SOL    HW195389   3.095   5.484   1.531  0.9522 -1.1430  1.9778
30491SOL    HW295390   2.947   5.508   1.555  0.5075  0.4067 -1.5520
30492SOL     OW95391   2.306   2.028  10.147  0.1062 -0.8317  0.7170
30492SOL    HW195392   2.327   2.008  10.239  0.3206  0.3319  0.9356
30492SOL    HW295393   2.300   1.943  10.105 -1.7387 -1.4946  2.1941
30493SOL     OW95394   1.616   5.910   6.393  0.2855 -0.4156 -0.2959
30493SOL    HW195395   1.665   5.937   6.315 -0.5906  1.6034 -0.2195
30493SOL    HW295396   1.684   5.890   6.458  1.0612 -3.1275 -1.7880
30494SOL     OW95397   6.082   0.023   1.878  0.3323  0.1452  0.5898
30494SOL    HW195398   6.064   0.106   1.923 -0.3438 -0.2716  1.1043
30494SOL    HW295399   6.011  -0.035   1.906  1.6132 -1.0746  1.4127
30495SOL     OW95400   6.022   2.711   1.799  0.3158 -0.4176 -0.6573
30495SOL    HW195401   5.966   2.690   1.874  0.6187 -0.3829 -0.4198
30495SOL    HW295402   5.995   2.799   1.772  1.0503  0.0789  0.1879
30496SOL     OW95403   7.775   2.409   6.917  0.1695  1.1566 -0.1270
30496SOL    HW195404   7.689   2.450   6.909 -0.4990  0.0910  1.2681
30496SOL    HW295405   7.828   2.473   6.964 -1.3163 -0.0292  3.5013
30497SOL     OW95406   7.189   8.363   6.775  0.4003 -0.4478 -0.2968
30497SOL    HW195407   7.215   8.307   6.847 -0.4820  0.6508  0.9175
30497SOL    HW295408   7.267   8.369   6.719  0.3622 -3.2492 -0.7678
30498SOL     OW95409  10.205   9.782   6.031  0.4894  0.2900 -0.3332
30498SOL    HW195410  10.152   9.799   5.953 -1.2513  1.2952  0.9940
30498SOL    HW295411  10.292   9.763   5.997 -0.1960  0.7740 -2.5180
30499SOL     OW95412   0.142   9.920   0.878  0.0686  0.4743  0.4144
30499SOL    HW195413   0.207   9.984   0.908  1.6946 -0.8561 -0.0870
30499SOL    HW295414   0.161   9.908   0.785  1.6627 -2.6268  0.9842
30500SOL     OW95415   0.640   6.414   8.218 -0.2811 -0.3053  0.1234
30500SOL    HW195416   0.728   6.389   8.248 -0.0351 -0.2811 -0.5641
30500SOL    HW295417   0.594   6.330   8.208 -0.1807 -0.3473  0.0118
30501SOL     OW95418   4.995   7.950   2.984 -0.1383  0.0683 -0.4592
30501SOL    HW195419   4.968   8.023   2.929  0.2343  0.0688 -0.6439
30501SOL    HW295420   5.078   7.978   3.023 -0.9026  0.4838  0.9152
30502SOL     OW95421   5.123   0.808   3.152  0.1306  0.2790 -0.1047
30502SOL    HW195422   5.037   0.840   3.125  0.6812  0.6410 -1.5542
30502SOL    HW295423   5.179   0.822   3.075  0.3612 -4.5607 -1.1069
30503SOL     OW95424   5.074   5.712  10.138  0.1477  0.5018 -0.6475
30503SOL    HW195425   4.989   5.727  10.098 -0.6307  1.0722  1.1295
30503SOL    HW295426   5.137   5.733  10.069 -1.1128 -1.3199 -2.4694
30504SOL     OW95427   4.347   6.981   4.650  0.5137  0.0992  0.1074
30504SOL    HW195428   4.428   6.929   4.650  0.9723  0.7913 -0.5624
30504SOL    HW295429   4.280   6.920   4.621  0.8451 -0.4163  0.4095
30505SOL     OW95430   8.167   7.006   3.838 -0.0156 -0.2770  0.4910
30505SOL    HW195431   8.226   6.932   3.852 -0.3688 -1.5348 -3.6108
30505SOL    HW295432   8.088   6.968   3.801 -0.3594  2.0765 -1.4276
30506SOL     OW95433   4.007   5.312   4.945 -0.0692 -0.0201  0.3964
30506SOL    HW195434   4.080   5.294   5.004  0.1568  2.2890  0.9175
30506SOL    HW295435   3.939   5.349   5.002  0.3419  2.7684 -0.7542
30507SOL     OW95436   6.927   3.291   6.768  0.6594 -0.1859  0.1529
30507SOL    HW195437   7.010   3.250   6.793 -0.1488 -0.7633  2.1294
30507SOL    HW295438   6.867   3.268   6.839 -1.7342 -1.3531 -2.0516
30508SOL     OW95439   5.928   3.020   0.725 -0.3558  0.6891 -0.0808
30508SOL    HW195440   5.970   3.104   0.744 -0.3012  0.9902 -1.4355
30508SOL    HW295441   5.866   3.007   0.797  0.2690  1.4471  0.6197
30509SOL     OW95442   0.958   3.855   9.964 -0.0905 -0.0158  0.0371
30509SOL    HW195443   1.006   3.922  10.014 -0.8135  0.1501  0.5160
30509SOL    HW295444   0.870   3.890   9.955 -0.1671 -0.3821 -0.7377
30510SOL     OW95445   3.244   2.308   5.475  0.4144  0.0783  0.9190
30510SOL    HW195446   3.300   2.380   5.447 -0.1492  0.9751  2.0140
30510SOL    HW295447   3.297   2.261   5.540 -0.2302  1.2355  2.3482
30511SOL     OW95448   9.525   6.256   1.516 -0.0264 -0.2073  0.1943
30511SOL    HW195449   9.520   6.211   1.600  1.4625 -1.7473 -0.4865
30511SOL    HW295450   9.446   6.311   1.514 -2.4072 -3.2641  0.8429
30512SOL     OW95451   0.806   9.851   8.417 -0.4932  0.0418  0.0671
30512SOL    HW195452   0.803   9.786   8.347  0.0931  1.3794 -1.2391
30512SOL    HW295453   0.739   9.915   8.393 -0.7846  0.1600  1.1251
30513SOL     OW95454   8.545   7.524   0.018  0.4202  0.0477 -0.1469
30513SOL    HW195455   8.544   7.513   0.113  0.5059 -1.2489 -0.2728
30513SOL    HW295456   8.453   7.541  -0.005 -0.0589 -2.0878 -0.0458
30514SOL     OW95457   9.558   7.191   7.847  0.3939 -0.5155  0.3010
30514SOL    HW195458   9.628   7.209   7.910 -0.7003 -0.4600  1.5476
30514SOL    HW295459   9.550   7.096   7.847  3.0129 -0.9149 -2.7753
30515SOL     OW95460   6.209   9.638   4.839  0.3280  0.3556 -0.7264
30515SOL    HW195461   6.214   9.544   4.821 -1.2408  0.1235 -0.1220
30515SOL    HW295462   6.119   9.662   4.816  0.2462  1.3855  0.5468
30516SOL     OW95463   9.048   2.048   1.903  0.7683 -0.3325  0.1812
30516SOL    HW195464   8.954   2.041   1.917  0.8337 -0.1671  0.7707
30516SOL    HW295465   9.059   2.125   1.848  0.6866  1.0568  1.9997
30517SOL     OW95466   2.201   6.719   4.780 -0.0507 -0.3974 -1.0134
30517SOL    HW195467   2.155   6.672   4.848 -0.1668 -0.8744 -1.4179
30517SOL    HW295468   2.182   6.812   4.797 -0.9283 -0.5706 -1.0089
30518SOL     OW95469   0.599   5.972   2.855 -0.6903  0.0188  0.1076
30518SOL    HW195470   0.572   5.969   2.947 -1.5733  0.1233 -0.1407
30518SOL    HW295471   0.681   5.923   2.852 -0.0346  1.0022  1.1585
30519SOL     OW95472   1.930   2.590   1.786  0.5604 -0.0646  0.6370
30519SOL    HW195473   1.960   2.676   1.814  0.6608 -0.0403  0.4579
30519SOL    HW295474   1.837   2.601   1.767  0.5205 -0.0520  0.8415
30520SOL     OW95475   7.278   9.089   7.501 -0.2310 -0.0716  0.3019
30520SOL    HW195476   7.326   9.164   7.466  0.3287  0.5162  2.2004
30520SOL    HW295477   7.197   9.126   7.537 -0.4603 -0.5423  0.2872
30521SOL     OW95478   7.501   0.117   2.882 -0.1038 -0.4701  0.1317
30521SOL    HW195479   7.529   0.142   2.970  1.3524 -0.8418 -0.1946
30521SOL    HW295480   7.562   0.048   2.857 -2.0815 -2.1901 -0.1964
30522SOL     OW95481   8.962   8.479   4.418  0.1284 -0.1501  0.2279
30522SOL    HW195482   8.912   8.501   4.339  0.6855 -1.2897 -0.4728
30522SOL    HW295483   9.026   8.549   4.426  0.3625 -0.2519 -0.6111
30523SOL     OW95484   6.016   6.363   7.455 -0.2311  0.9023 -0.9080
30523SOL    HW195485   6.033   6.451   7.490  1.3398  0.5355 -0.6608
30523SOL    HW295486   6.092   6.345   7.399 -0.4193 -0.3854 -0.7719
30524SOL     OW95487   8.961   2.518   4.506  0.1827  0.1013  0.1866
30524SOL    HW195488   8.996   2.440   4.547  0.9409  0.9750  1.2448
30524SOL    HW295489   8.917   2.486   4.427 -0.2158 -1.4702  1.0064
30525SOL     OW95490   2.167   0.230   3.997  0.2055  0.3364 -0.3217
30525SOL    HW195491   2.211   0.306   3.960  1.0466  0.4636  0.8831
30525SOL    HW295492   2.126   0.262   4.077 -0.4239 -0.2253 -0.4099
30526SOL     OW95493   9.820   1.122   9.461 -0.0672 -0.0317 -0.1045
30526SOL    HW195494   9.777   1.037   9.471  1.4650 -0.7356  1.0437
30526SOL    HW295495   9.841   1.128   9.368 -0.8084 -0.5763 -0.3193
30527SOL     OW95496   7.358   0.313   3.808 -0.0718 -0.6949 -0.0154
30527SOL    HW195497   7.328   0.296   3.898 -1.3052  1.6137  0.0920
30527SOL    HW295498   7.437   0.366   3.819 -0.5150  0.0364 -0.2495
30528SOL     OW95499   2.601   5.330   4.859  0.7154  0.3789  0.2628
30528SOL    HW195500   2.515   5.289   4.847  0.2662  0.8486  1.6862
30528SOL    HW295501   2.663   5.257   4.853  0.3657  0.2089 -2.0502
30529SOL     OW95502   8.447   4.037   7.858  0.1765 -0.1697 -0.0370
30529SOL    HW195503   8.364   4.032   7.811  0.4092  1.5268 -0.6882
30529SOL    HW295504   8.492   3.955   7.835 -0.4315 -0.1433 -1.4052
30530SOL     OW95505   1.967   5.989   5.529 -0.2435 -0.6357 -0.0422
30530SOL    HW195506   2.046   5.971   5.478 -1.1354  1.6909 -2.4701
30530SOL    HW295507   1.980   6.077   5.562 -1.1596 -0.8435  0.9162
30531SOL     OW95508   5.373   1.791   0.321 -0.2528 -0.7794  0.8760
30531SOL    HW195509   5.287   1.749   0.326 -1.2401  1.2083  1.9364
30531SOL    HW295510   5.425   1.747   0.389 -0.5930 -1.6215  0.6071
30532SOL     OW95511   1.566   9.190   9.314  0.6257 -0.3434 -0.3286
30532SOL    HW195512   1.624   9.214   9.242  2.5498 -0.6323  1.0622
30532SOL    HW295513   1.609   9.115   9.355  1.2736  1.6779  2.9989
30533SOL     OW95514   2.787   9.548   5.429  0.0965 -0.1704  0.1738
30533SOL    HW195515   2.869   9.568   5.475 -0.2482 -0.1519  0.7998
30533SOL    HW295516   2.814   9.518   5.342  0.8684 -1.9130  0.9612
30534SOL     OW95517   1.775   3.548   9.161 -0.1470  0.5358  0.6474
30534SOL    HW195518   1.822   3.513   9.237  0.1055  0.8012  0.6128
30534SOL    HW295519   1.818   3.508   9.086 -0.1661  0.5497  0.6290
30535SOL     OW95520   8.584   3.127  10.134 -0.0282  0.2145 -0.7353
30535SOL    HW195521   8.513   3.067  10.110 -0.5032  0.3499  0.2651
30535SOL    HW295522   8.561   3.156  10.222  1.4487  0.0095 -0.2627
30536SOL     OW95523   5.515   3.623   7.053  0.0966 -0.1013 -0.4998
30536SOL    HW195524   5.571   3.648   7.127 -1.4371  0.7755  0.4012
30536SOL    HW295525   5.574   3.624   6.977  1.2427  1.0306  0.3743
30537SOL     OW95526   9.745   7.053   8.143  0.7337  0.1529 -0.0112
30537SOL    HW195527   9.801   7.040   8.219 -0.6206  0.0436  1.0000
30537SOL    HW295528   9.750   7.147   8.125 -0.9890  0.6941  1.9224
30538SOL     OW95529   4.046   7.380   0.427 -0.2038 -0.9990  0.4525
30538SOL    HW195530   4.095   7.421   0.356  0.3838  1.4546  2.1141
30538SOL    HW295531   4.108   7.377   0.500 -1.5411 -0.9555  1.6288
30539SOL     OW95532   8.581   7.799   2.508  0.1901 -0.1283 -0.1369
30539SOL    HW195533   8.542   7.881   2.536 -0.0079 -0.4774  0.6399
30539SOL    HW295534   8.511   7.734   2.516  0.8283 -0.7014  0.9705
30540SOL     OW95535   3.222   9.014   8.474  0.5283  0.7587  0.5481
30540SOL    HW195536   3.256   9.103   8.473 -0.2820  1.1560  2.4624
30540SOL    HW295537   3.204   8.996   8.567  2.4242 -2.1134  0.4974
30541SOL     OW95538   8.076   2.368   4.842  0.1706  0.0527  0.0220
30541SOL    HW195539   8.114   2.441   4.891 -0.4150  0.1594  0.3350
30541SOL    HW295540   8.034   2.409   4.767  0.1515  0.0017  0.0056
30542SOL     OW95541   2.973   3.738   5.238  0.2396 -0.0970 -0.0162
30542SOL    HW195542   3.066   3.756   5.227  0.0290  0.9817 -0.0648
30542SOL    HW295543   2.929   3.794   5.174 -0.3597 -2.0698 -1.4579
30543SOL     OW95544   9.806   3.577   3.854  0.9740  0.4305 -0.0915
30543SOL    HW195545   9.887   3.606   3.895  1.1660 -0.4575  0.1790
30543SOL    HW295546   9.760   3.658   3.831  0.8212  0.9559  1.9293
30544SOL     OW95547   9.104   6.483   6.787  0.2104  0.1746  0.1912
30544SOL    HW195548   9.061   6.423   6.725 -0.3664  0.8318 -0.0562
30544SOL    HW295549   9.151   6.425   6.847  0.9202 -0.4616 -0.9597
30545SOL     OW95550   4.319   1.061   1.720  0.0390  0.2192 -0.0896
30545SOL    HW195551   4.325   1.118   1.643  0.5458  1.2914  0.7227
30545SOL    HW295552   4.264   0.989   1.691  2.1876 -0.6883 -2.2291
30546SOL     OW95553   6.407   4.138   8.217  0.1333 -0.3272 -0.1067
30546SOL    HW195554   6.362   4.056   8.195 -0.2239 -0.5584  1.4211
30546SOL    HW295555   6.386   4.196   8.144  0.5968 -1.6529 -1.3494
30547SOL     OW95556   2.886   6.367   6.342 -0.0864  0.1841  0.1125
30547SOL    HW195557   2.887   6.455   6.304 -1.9252  0.4733  0.6351
30547SOL    HW295558   2.970   6.359   6.388  0.3949  1.3917 -0.5136
30548SOL     OW95559   7.985   2.285   6.259  0.0847  0.2540 -0.6149
30548SOL    HW195560   7.972   2.191   6.273 -1.0298  0.6562  1.3360
30548SOL    HW295561   7.988   2.294   6.163 -0.9277 -1.6227 -0.8732
30549SOL     OW95562   8.980   3.657   0.699  0.7992 -0.2014 -0.0125
30549SOL    HW195563   8.993   3.721   0.769  0.7598 -0.0216 -0.1680
30549SOL    HW295564   8.977   3.710   0.619 -0.2025 -0.2997 -0.0516
30550SOL     OW95565   6.694   2.901   3.877 -0.1046  0.3564 -0.2021
30550SOL    HW195566   6.710   2.835   3.810 -0.6454  0.2562 -0.2363
30550SOL    HW295567   6.718   2.984   3.835  2.2424  0.0625  0.3998
30551SOL     OW95568   4.102   2.291   4.483  0.7200  0.0642  0.4033
30551SOL    HW195569   4.044   2.330   4.418 -0.6498  1.3496  2.2976
30551SOL    HW295570   4.076   2.199   4.487  0.5888  0.0497 -0.5814
30552SOL     OW95571   5.790  10.137   7.896  0.2389 -0.1039 -0.0507
30552SOL    HW195572   5.702  10.114   7.865  0.1769  0.5033 -0.3580
30552SOL    HW295573   5.795  10.232   7.883  0.8931 -0.1158  0.0832
30553SOL     OW95574   5.103   3.893   2.244  0.7656  0.2144  0.4039
30553SOL    HW195575   5.140   3.939   2.319 -0.6761 -0.0082  1.3023
30553SOL    HW295576   5.142   3.806   2.248  1.0735  0.3605  0.6036
30554SOL     OW95577   2.645   2.363   8.207 -0.3617 -0.0369 -0.9849
30554SOL    HW195578   2.617   2.449   8.239 -2.1039 -0.8670 -0.0994
30554SOL    HW295579   2.615   2.359   8.116  0.5151  0.6075 -1.3102
30555SOL     OW95580   4.941   9.073   4.810 -0.2231  0.3543  0.7328
30555SOL    HW195581   4.936   9.039   4.721 -0.0605 -1.2319  1.2906
30555SOL    HW295582   4.909   9.001   4.865  2.2508  0.2344  2.1726
30556SOL     OW95583   7.380   4.858   6.191 -0.2287 -0.4716 -0.2947
30556SOL    HW195584   7.412   4.792   6.252 -0.1054 -0.3286 -0.2034
30556SOL    HW295585   7.379   4.939   6.242 -0.3884 -0.4051 -0.4024
30557SOL     OW95586   2.363   3.269   0.287  0.4809  0.0946 -0.2699
30557SOL    HW195587   2.420   3.214   0.233  3.2010  0.9533  1.5429
30557SOL    HW295588   2.340   3.342   0.230  4.3625  1.6721 -0.0780
30558SOL     OW95589   1.454   7.595   4.183  0.3001  0.0269  0.3859
30558SOL    HW195590   1.518   7.665   4.177  0.8513 -0.4558  0.6435
30558SOL    HW295591   1.414   7.592   4.096  2.8290 -1.7441 -0.8206
30559SOL     OW95592   0.321   8.845   3.920  0.0985 -0.3181 -0.3561
30559SOL    HW195593   0.244   8.807   3.878 -0.9148 -0.6471  1.6658
30559SOL    HW295594   0.297   8.936   3.937 -0.0560 -0.5457  0.7122
30560SOL     OW95595   6.577   1.926   4.481  0.0142 -0.1503 -0.0190
30560SOL    HW195596   6.600   1.957   4.569  1.1780  2.0652 -1.0283
30560SOL    HW295597   6.646   1.960   4.424 -0.8516 -1.3074 -1.8656
30561SOL     OW95598   2.210   7.341   5.474  0.4365  0.3575  0.2416
30561SOL    HW195599   2.188   7.258   5.430  0.6684  0.3406  0.1558
30561SOL    HW295600   2.298   7.328   5.508  0.5840  0.6708 -0.0179
30562SOL     OW95601   6.671   0.742   9.121 -0.2101 -0.3292 -0.3338
30562SOL    HW195602   6.627   0.701   9.047  0.4239 -0.0803 -0.8548
30562SOL    HW295603   6.604   0.744   9.190 -1.3614  0.9473 -1.4075
30563SOL     OW95604   0.774   6.083   5.537  0.0479  0.2682  0.0622
30563SOL    HW195605   0.752   6.080   5.444 -0.1165 -0.3165  0.1193
30563SOL    HW295606   0.739   6.002   5.574  0.6203  0.2195  0.5247
30564SOL     OW95607   4.963   6.556   8.089  0.9095 -0.1716 -0.0724
30564SOL    HW195608   4.874   6.570   8.122  0.6877 -0.4998 -0.5184
30564SOL    HW295609   4.986   6.636   8.043  1.4956  0.5827  1.4542
30565SOL     OW95610   8.946   8.295   5.176 -0.1329 -0.3113  0.4746
30565SOL    HW195611   8.961   8.336   5.091  1.2065 -0.4549  0.6177
30565SOL    HW295612   9.000   8.346   5.237 -1.1865 -0.1176  1.2738
30566SOL     OW95613   7.565   2.066   5.328  0.0343  0.0772  0.0238
30566SOL    HW195614   7.580   2.005   5.255  0.7123 -1.1739  1.1678
30566SOL    HW295615   7.477   2.043   5.360 -0.5352  1.0596 -0.7601
30567SOL     OW95616  10.126   8.273   1.140 -0.2977 -0.2710 -0.1848
30567SOL    HW195617  10.129   8.356   1.093  1.5370 -0.5233 -0.5750
30567SOL    HW295618  10.094   8.210   1.076  1.2409 -0.4226 -0.8466
30568SOL     OW95619   6.767   8.239   4.421 -0.3754  0.0365  0.3480
30568SOL    HW195620   6.704   8.191   4.367  0.7954 -1.1006 -0.0620
30568SOL    HW295621   6.843   8.252   4.364 -0.2381  1.3969  0.8212
30569SOL     OW95622   4.584   6.444   0.431 -1.1979  0.2405  0.2706
30569SOL    HW195623   4.591   6.530   0.389 -0.1185 -0.4962 -1.1730
30569SOL    HW295624   4.501   6.408   0.399 -0.5206 -0.1944 -1.0662
30570SOL     OW95625   1.854   6.389   6.434 -0.3132 -0.1520 -0.2221
30570SOL    HW195626   1.839   6.390   6.339  0.1836  0.4404 -0.3033
30570SOL    HW295627   1.787   6.331   6.468  1.1714 -2.6087 -1.2179
30571SOL     OW95628   4.106   8.392   7.771 -0.0361 -0.0547  0.1645
30571SOL    HW195629   4.094   8.475   7.818 -0.8071  0.0362 -0.1802
30571SOL    HW295630   4.176   8.410   7.709 -0.2946  0.3860 -0.0058
30572SOL     OW95631   6.838   2.168   3.937 -0.0336 -0.2850 -0.3325
30572SOL    HW195632   6.769   2.223   3.975 -1.0628 -2.1408  0.6586
30572SOL    HW295633   6.805   2.144   3.851 -0.8211 -1.4095  0.2549
30573SOL     OW95634   7.622   2.649   1.468  0.2138  0.1963  0.0089
30573SOL    HW195635   7.641   2.569   1.516 -0.0248 -0.3305 -0.7599
30573SOL    HW295636   7.559   2.696   1.522  1.6186  0.6953  1.2966
30574SOL     OW95637   0.645   0.620   4.245  0.6841  0.5993 -0.1007
30574SOL    HW195638   0.573   0.623   4.308  0.4982 -0.5821 -0.2408
30574SOL    HW295639   0.622   0.685   4.179  0.9295  1.9385  1.0871
30575SOL     OW95640   0.269   4.992  10.015  0.1105  0.0251  0.2528
30575SOL    HW195641   0.225   5.074   9.991  2.6519  0.8599 -2.0157
30575SOL    HW295642   0.253   4.934   9.941 -0.4333 -1.0655  1.1935
30576SOL     OW95643   6.924   1.238   7.774  0.3461  0.2688  0.5955
30576SOL    HW195644   6.891   1.149   7.773 -0.2941  0.5020 -0.1202
30576SOL    HW295645   6.995   1.237   7.838  2.2270 -1.4370 -1.3635
30577SOL     OW95646   0.988   9.402   3.394  0.3842 -0.2980 -0.0201
30577SOL    HW195647   1.048   9.327   3.389  2.9221  1.6777 -0.8140
30577SOL    HW295648   0.995   9.444   3.308 -2.5990 -0.2442 -0.3316
30578SOL     OW95649   0.397   2.322   5.481 -0.0978  0.1069  0.6947
30578SOL    HW195650   0.320   2.313   5.424 -0.2838 -1.1174  1.1074
30578SOL    HW295651   0.462   2.263   5.443  0.3821  0.5887  0.7656
30579SOL     OW95652   9.728   1.408   0.687  0.8699 -0.1469  0.8471
30579SOL    HW195653   9.698   1.348   0.618  0.7041  1.5253 -0.5867
30579SOL    HW295654   9.803   1.454   0.649 -0.5595  2.3844  0.9073
30580SOL     OW95655   4.167   0.270   3.394 -0.0999  0.8541  0.8356
30580SOL    HW195656   4.123   0.345   3.354  0.6170  0.2086 -1.2650
30580SOL    HW295657   4.246   0.257   3.342 -0.4937 -1.7259  0.7545
30581SOL     OW95658   6.585   4.575   1.485  0.9751 -0.5705  0.5929
30581SOL    HW195659   6.628   4.490   1.477  0.6616 -0.6131 -0.9368
30581SOL    HW295660   6.535   4.570   1.566 -0.8639 -2.7383 -0.5535
30582SOL     OW95661   5.041   8.793   2.859 -0.0359 -0.1267 -0.0944
30582SOL    HW195662   4.947   8.809   2.872 -0.1682 -0.0023 -1.0995
30582SOL    HW295663   5.048   8.698   2.850 -0.2251 -0.0663 -1.0368
30583SOL     OW95664   3.990   0.474   2.195  0.2794  0.1228 -0.2652
30583SOL    HW195665   4.040   0.506   2.270 -1.3004  1.3763  0.3213
30583SOL    HW295666   3.918   0.537   2.186 -1.2957 -1.6777 -0.9407
30584SOL     OW95667   4.995   9.894   0.849  0.0242 -0.6049  0.3640
30584SOL    HW195668   5.064   9.833   0.877  0.5052  0.9274  2.8766
30584SOL    HW295669   5.036   9.981   0.855 -1.0890  0.1035 -1.6225
30585SOL     OW95670   6.119   2.965   9.924 -0.1295 -0.3826  0.0521
30585SOL    HW195671   6.143   2.955  10.016 -0.5556 -1.7958  0.0283
30585SOL    HW295672   6.064   2.889   9.905 -1.7194  0.9410 -0.8420
30586SOL     OW95673   3.889   0.739   1.311 -0.4228 -0.4357 -0.0447
30586SOL    HW195674   3.823   0.707   1.374 -1.2131 -0.1784 -0.7187
30586SOL    HW295675   3.851   0.820   1.277 -0.2003 -0.7897 -1.1563
30587SOL     OW95676   2.300   1.839   1.217  0.7518  0.0240  0.4481
30587SOL    HW195677   2.290   1.760   1.163  0.2677 -0.0377  0.6158
30587SOL    HW295678   2.391   1.864   1.207  0.0659  1.7610 -2.8374
30588SOL     OW95679   8.516   0.277   0.468  0.1007 -0.8329 -0.7429
30588SOL    HW195680   8.551   0.329   0.395  0.1642 -0.7038 -0.6205
30588SOL    HW295681   8.479   0.199   0.426  1.2033 -1.3419 -0.8291
30589SOL     OW95682   8.840   0.493   3.392  0.1628  0.0754  0.1126
30589SOL    HW195683   8.832   0.410   3.344 -1.6654  0.2433  0.0640
30589SOL    HW295684   8.932   0.516   3.384  0.5743 -1.6038 -0.4628
30590SOL     OW95685   7.424   4.742   3.741 -0.0220 -0.3421  0.1968
30590SOL    HW195686   7.400   4.752   3.649  0.4663 -0.3287  0.0650
30590SOL    HW295687   7.519   4.753   3.742  0.0623 -1.0259  0.6060
30591SOL     OW95688   2.114   5.853   2.324  0.0256 -0.2643  0.3556
30591SOL    HW195689   2.127   5.888   2.412  3.8159 -0.3045 -0.0125
30591SOL    HW295690   2.093   5.760   2.339  1.3532 -0.4598  1.2891
30592SOL     OW95691   0.797   6.649   3.496 -0.3807  0.1726 -0.4543
30592SOL    HW195692   0.861   6.675   3.562 -0.8495 -0.1862  0.1553
30592SOL    HW295693   0.714   6.687   3.526 -0.5699  0.1453 -0.9237
30593SOL     OW95694   1.359   9.470   8.529 -0.0948  0.4900  0.3621
30593SOL    HW195695   1.274   9.428   8.544 -0.7092  1.3436 -0.6190
30593SOL    HW295696   1.339   9.550   8.480  1.2456  0.8853  0.4045
30594SOL     OW95697   6.565   8.246   5.687  0.4181  0.1793  0.5296
30594SOL    HW195698   6.659   8.260   5.699  0.8718 -1.2192 -0.9975
30594SOL    HW295699   6.553   8.245   5.592 -1.0091 -0.4464  0.6898
30595SOL     OW95700   7.601   6.704  10.102  0.2089  0.1323 -0.4473
30595SOL    HW195701   7.620   6.778  10.044 -0.0684 -0.0817 -0.8112
30595SOL    HW295702   7.594   6.629  10.044  1.3313 -0.3407  0.0029
30596SOL     OW95703   4.076   3.341   9.949 -0.1791 -0.6426  0.2137
30596SOL    HW195704   4.135   3.274   9.917  0.1278  0.0655 -0.7632
30596SOL    HW295705   4.017   3.358   9.875  0.0084  0.4344  0.2933
30597SOL     OW95706   9.196   5.207   2.814 -0.0258  0.0047  0.3568
30597SOL    HW195707   9.192   5.293   2.770 -1.5178  0.1764  0.7701
30597SOL    HW295708   9.260   5.219   2.884  0.9359  0.3085 -0.5453
30598SOL     OW95709   5.558   6.442   9.912  0.8363 -0.1256  0.4749
30598SOL    HW195710   5.504   6.368   9.941  2.7390 -2.4111 -1.4241
30598SOL    HW295711   5.627   6.449   9.978 -0.5829  1.5522  1.8759
30599SOL     OW95712   7.866   8.488   0.906  0.3874  0.0707 -0.0416
30599SOL    HW195713   7.810   8.506   0.981 -1.3780 -0.7499 -1.0988
30599SOL    HW295714   7.938   8.436   0.941 -1.3390 -1.8377  0.8295
30600SOL     OW95715   2.307   3.004   6.484 -0.5440  0.4296  0.2916
30600SOL    HW195716   2.323   2.988   6.577 -0.7115 -1.1689  0.0655
30600SOL    HW295717   2.306   2.918   6.444 -1.2876  1.0335 -1.0755
30601SOL     OW95718   1.149   1.411   7.203  0.0349 -0.8645  0.5104
30601SOL    HW195719   1.203   1.358   7.263 -1.5121 -2.9252  0.2103
30601SOL    HW295720   1.061   1.404   7.239 -0.1466  2.2979  0.8910
30602SOL     OW95721   3.501   7.100   9.506 -0.4059 -0.1757 -0.5372
30602SOL    HW195722   3.485   7.089   9.413 -1.3900  0.2024 -0.4268
30602SOL    HW295723   3.595   7.085   9.517 -0.5773 -1.9997 -1.2989
30603SOL     OW95724   1.610   3.657   3.946 -0.0693  0.1001 -0.6453
30603SOL    HW195725   1.583   3.718   3.877 -0.3910  0.5552 -0.1226
30603SOL    HW295726   1.562   3.686   4.024 -0.7018 -1.2080 -0.5303
30604SOL     OW95727   3.846   3.174   7.248  0.2580  0.3129 -0.3950
30604SOL    HW195728   3.831   3.080   7.256 -0.0827  0.2801 -1.3343
30604SOL    HW295729   3.913   3.182   7.181  0.5694  0.7226 -0.0359
30605SOL     OW95730   1.572   5.720   4.245  0.8571  0.0979  0.8859
30605SOL    HW195731   1.605   5.682   4.326  2.7332  0.2088  0.2323
30605SOL    HW295732   1.646   5.771   4.211 -0.4190  1.3695 -0.0766
30606SOL     OW95733   4.588   2.137   4.818  0.8588 -0.6031  0.0046
30606SOL    HW195734   4.559   2.093   4.738  0.8004 -0.5168 -0.0222
30606SOL    HW295735   4.509   2.145   4.871  0.7214  0.0943 -0.2860
30607SOL     OW95736   3.444   2.500   6.545  0.1638 -0.1564  0.7236
30607SOL    HW195737   3.351   2.516   6.561  0.3122  0.6063  0.8873
30607SOL    HW295738   3.455   2.406   6.560 -0.5288 -0.2078  0.9680
30608SOL     OW95739   5.268   7.529   4.883  0.4081  0.4622  0.1523
30608SOL    HW195740   5.296   7.589   4.952  1.7528  0.2496 -0.1839
30608SOL    HW295741   5.282   7.442   4.919 -0.9386  0.3132  0.3960
30609SOL     OW95742   0.392   5.200   3.079 -0.2459  0.0291  0.7630
30609SOL    HW195743   0.366   5.228   2.991  0.3151  0.9169  0.8736
30609SOL    HW295744   0.487   5.193   3.075 -0.3177 -1.3742  0.8964
30610SOL     OW95745   7.251   2.981   7.548 -0.0295  0.1084  0.0964
30610SOL    HW195746   7.243   2.896   7.592  0.3018 -0.2510 -0.5170
30610SOL    HW295747   7.161   3.012   7.537 -0.2441 -0.8241 -0.9297
30611SOL     OW95748   9.915   9.185   3.226  0.1557 -0.2172  0.2706
30611SOL    HW195749   9.898   9.197   3.320 -1.9143 -0.6272 -0.0047
30611SOL    HW295750   9.828   9.182   3.186  0.9554 -1.6338 -1.4839
30612SOL     OW95751   9.011   3.352   9.666  0.6440  0.8742 -0.1823
30612SOL    HW195752   9.007   3.323   9.575  0.2351  0.1349  0.0649
30612SOL    HW295753   8.920   3.373   9.688  0.3901 -0.9984  0.7003
30613SOL     OW95754   0.119   4.214   3.636  0.2908 -0.2289  0.2811
30613SOL    HW195755   0.178   4.287   3.623  0.8206 -0.6144  0.4913
30613SOL    HW295756   0.172   4.146   3.678 -0.4377 -0.3721  1.0044
30614SOL     OW95757   9.429   4.265   1.314 -0.5590  0.5679  0.1042
30614SOL    HW195758   9.480   4.229   1.241 -0.6383 -0.1240  0.3869
30614SOL    HW295759   9.489   4.328   1.355 -0.5825  1.1145 -0.6645
30615SOL     OW95760   7.145   7.274   3.431 -0.4110 -0.2132  0.2784
30615SOL    HW195761   7.174   7.304   3.345 -0.1348  0.3801  0.5750
30615SOL    HW295762   7.088   7.199   3.412  0.8076 -1.0131 -0.3530
30616SOL     OW95763   7.442   1.626   9.013  0.2750 -0.2103 -0.1099
30616SOL    HW195764   7.522   1.595   8.972  0.1480 -0.0402 -0.4919
30616SOL    HW295765   7.382   1.551   9.007  0.4115 -0.3441  0.1938
30617SOL     OW95766   5.913   1.349   8.754  0.1719  0.2507  0.5771
30617SOL    HW195767   5.892   1.432   8.711  0.4055  0.3001  0.5537
30617SOL    HW295768   5.833   1.298   8.749  0.1359  0.3370  0.2703
30618SOL     OW95769   4.752   9.296   3.028  0.0168 -0.1592 -0.0226
30618SOL    HW195770   4.822   9.263   2.972  0.3747 -1.3465  1.0521
30618SOL    HW295771   4.742   9.228   3.095 -1.9894  0.1111  0.0028
30619SOL     OW95772   0.327   4.116   6.583  0.2999  0.0957 -0.2293
30619SOL    HW195773   0.367   4.203   6.575  0.9243 -0.1769 -0.1657
30619SOL    HW295774   0.395   4.056   6.552 -0.7763 -0.2601 -2.0579
30620SOL     OW95775   7.866   2.793   1.545 -0.0190  0.0916 -0.3285
30620SOL    HW195776   7.914   2.725   1.498 -0.7650 -0.6066 -0.1145
30620SOL    HW295777   7.775   2.781   1.518 -0.0409  1.6205 -0.9983
30621SOL     OW95778   3.955   6.547   6.209 -0.3797 -0.1504  0.4222
30621SOL    HW195779   3.874   6.572   6.165  0.8457  0.0590 -1.8724
30621SOL    HW295780   3.989   6.474   6.158  0.1023 -1.3282  2.3276
30622SOL     OW95781   6.484   0.121   0.429 -0.3828  0.2785 -0.0506
30622SOL    HW195782   6.445   0.097   0.345  0.7254 -1.2109 -0.1752
30622SOL    HW295783   6.521   0.039   0.462  3.8345  1.7569 -0.5614
30623SOL     OW95784   9.608   9.763   8.857 -0.6131 -0.0263  0.5294
30623SOL    HW195785   9.534   9.799   8.906 -0.4886 -2.0338  2.2860
30623SOL    HW295786   9.673   9.742   8.923  0.3971 -0.9647 -0.7132
30624SOL     OW95787   5.236   7.287   4.537  0.4766  0.0535 -0.1026
30624SOL    HW195788   5.238   7.271   4.443  0.8981 -0.8930  0.0516
30624SOL    HW295789   5.146   7.266   4.564  0.6202 -0.6643 -0.1488
30625SOL     OW95790   3.206   9.032   2.275  0.1643 -0.0378  0.5906
30625SOL    HW195791   3.267   9.093   2.317 -0.7386  1.4059 -0.1093
30625SOL    HW295792   3.237   9.025   2.185  0.6872 -1.2345  0.8409
30626SOL     OW95793   1.299   3.624   9.781 -0.4964 -0.2769 -0.0975
30626SOL    HW195794   1.268   3.610   9.871  0.7225  0.5825  0.4905
30626SOL    HW295795   1.312   3.535   9.747 -2.6709 -0.6473 -0.0820
30627SOL     OW95796   6.947   0.292   2.115  0.4111  0.6498 -0.3824
30627SOL    HW195797   7.005   0.242   2.058  0.0482  0.0340 -0.2126
30627SOL    HW295798   6.915   0.229   2.179  0.1461  1.1530 -0.0074
30628SOL     OW95799  10.080   2.400   1.695 -0.0176 -0.0723  0.8049
30628SOL    HW195800   9.990   2.393   1.664  0.3127  0.6252 -0.3714
30628SOL    HW295801  10.092   2.493   1.713  0.5041 -0.1414  0.8177
30629SOL     OW95802   8.628   6.068   2.418 -0.3328 -0.1225 -0.1170
30629SOL    HW195803   8.723   6.064   2.415 -0.3705 -1.6081  0.0689
30629SOL    HW295804   8.608   6.144   2.473  0.7630 -0.9603  1.4949
30630SOL     OW95805   3.786   5.713   0.649  0.3211  0.0723 -0.2212
30630SOL    HW195806   3.775   5.647   0.581  2.5871  0.7241 -1.3258
30630SOL    HW295807   3.780   5.797   0.603 -0.1035  0.6048  0.7531
30631SOL     OW95808   4.390   7.770   6.845  0.5225  0.1900 -0.2582
30631SOL    HW195809   4.315   7.710   6.850  0.8246 -0.2101 -0.4738
30631SOL    HW295810   4.359   7.850   6.887  0.0123 -0.0135 -0.2350
30632SOL     OW95811   0.479   5.292   6.255  0.1909 -0.1122  0.1105
30632SOL    HW195812   0.438   5.322   6.175  0.8891 -1.5440 -0.8225
30632SOL    HW295813   0.442   5.348   6.324 -1.9839 -0.2207 -0.9027
30633SOL     OW95814   2.931   2.559   6.265 -0.0573  0.2175 -0.0191
30633SOL    HW195815   2.989   2.634   6.277 -0.3150  0.4788 -0.3978
30633SOL    HW295816   2.890   2.547   6.351  1.2060 -0.5271  0.5144
30634SOL     OW95817   8.694   1.515   6.122  0.4562  0.1654 -0.2702
30634SOL    HW195818   8.746   1.498   6.200 -0.0719  2.1813  0.5779
30634SOL    HW295819   8.695   1.610   6.113 -1.3696  0.1147 -1.4236
30635SOL     OW95820   1.730   0.315   2.274  0.2637  0.5482  0.6365
30635SOL    HW195821   1.675   0.357   2.209  0.7334  0.2586  0.0420
30635SOL    HW295822   1.673   0.304   2.350 -0.7398 -0.4398 -0.2159
30636SOL     OW95823   3.026   8.452   0.247  0.3688  0.0568 -0.1490
30636SOL    HW195824   3.040   8.537   0.204 -0.8215 -0.5298 -1.7697
30636SOL    HW295825   2.941   8.460   0.289  0.5631 -0.1230  0.2876
30637SOL     OW95826   4.448   5.230   7.961 -0.2914  0.2311  0.1472
30637SOL    HW195827   4.472   5.305   7.907 -2.9809 -0.1048 -1.7211
30637SOL    HW295828   4.516   5.165   7.944  0.3776  1.1250 -0.6724
30638SOL     OW95829   7.821   2.470   5.015  0.2797 -0.0194  0.0337
30638SOL    HW195830   7.897   2.427   4.976  0.1022  0.5734 -0.9873
30638SOL    HW295831   7.855   2.553   5.050  0.0738  0.3370 -0.5991
30639SOL     OW95832   5.441   6.620   4.489  0.6417  0.3636 -0.7977
30639SOL    HW195833   5.438   6.539   4.438 -0.1679 -0.7993  0.9914
30639SOL    HW295834   5.456   6.591   4.579 -0.3444  2.1643  0.0047
30640SOL     OW95835   6.972   0.899   4.958  0.2544  0.5001  0.5447
30640SOL    HW195836   6.998   0.941   4.876  0.2869  2.7429  1.6446
30640SOL    HW295837   6.948   0.810   4.932  0.4135  1.0883 -1.8665
30641SOL     OW95838   0.661   4.603   1.482 -0.7281  0.3779 -0.2552
30641SOL    HW195839   0.579   4.562   1.453 -0.6796  0.4660 -0.5186
30641SOL    HW295840   0.668   4.578   1.574  0.5668 -2.3505 -0.9725
30642SOL     OW95841   0.780   5.459   3.905  0.1772  0.4746  0.0270
30642SOL    HW195842   0.790   5.536   3.849 -1.2370  0.7943  0.1670
30642SOL    HW295843   0.760   5.495   3.992  1.5926 -0.0314  0.5890
30643SOL     OW95844   2.033   9.966   7.956  0.4402  0.4698  0.2169
30643SOL    HW195845   2.012   9.926   8.041  2.9220 -0.5467  0.4403
30643SOL    HW295846   2.126   9.947   7.944  0.4436  1.7322 -2.1531
30644SOL     OW95847   8.627   5.771   5.833  0.4707  0.2443  0.6971
30644SOL    HW195848   8.553   5.729   5.875 -0.4954  1.7700  0.6106
30644SOL    HW295849   8.647   5.716   5.757  0.2935 -0.8910  1.4668
30645SOL     OW95850   5.560   9.208   7.892 -0.3278 -0.4153  0.1926
30645SOL    HW195851   5.628   9.166   7.839  0.8874  2.1660 -0.4897
30645SOL    HW295852   5.557   9.157   7.972  0.2987 -2.3520 -0.9394
30646SOL     OW95853   3.313   8.998   4.507  0.5152 -0.0109 -0.4016
30646SOL    HW195854   3.271   9.009   4.592  1.9410 -1.0387  0.4893
30646SOL    HW295855   3.407   9.004   4.526  0.8658  2.7792 -2.3698
30647SOL     OW95856   1.079   1.188   2.677  0.1735 -0.0761  0.0971
30647SOL    HW195857   1.137   1.142   2.616 -0.6792  0.7182 -1.3904
30647SOL    HW295858   1.123   1.184   2.761  1.2011 -1.5967 -0.4846
30648SOL     OW95859   1.031   7.664   3.693 -0.0345  0.5294 -0.1471
30648SOL    HW195860   1.115   7.643   3.653  0.0753  0.4800  0.1064
30648SOL    HW295861   0.975   7.589   3.672  0.2190  0.1872  0.3548
30649SOL     OW95862   6.636   1.712   6.050  0.6364  0.2738 -0.8242
30649SOL    HW195863   6.667   1.769   5.980  1.9115  0.6634  0.0296
30649SOL    HW295864   6.686   1.738   6.127  0.1463 -0.9710 -0.0475
30650SOL     OW95865   0.088   1.539   2.522 -0.3338 -0.1503  0.0307
30650SOL    HW195866   0.026   1.498   2.582 -0.5926 -0.7716 -0.6440
30650SOL    HW295867   0.043   1.619   2.493 -0.3367 -0.0094  0.4162
30651SOL     OW95868   5.524   3.227   1.052  0.2525  0.0740  0.1562
30651SOL    HW195869   5.437   3.250   1.084 -0.2380  0.4155 -1.3342
30651SOL    HW295870   5.581   3.295   1.087 -0.3639  0.7636 -0.1566
30652SOL     OW95871   5.809   7.626   0.431  0.6039  0.2898  0.5172
30652SOL    HW195872   5.714   7.624   0.441  0.5529  0.6602  0.1274
30652SOL    HW295873   5.842   7.601   0.517  0.1503 -1.0549  0.3382
30653SOL     OW95874   3.733   2.619   4.314 -0.2583 -0.3861  0.2263
30653SOL    HW195875   3.754   2.578   4.230 -1.6716 -0.7102 -0.0053
30653SOL    HW295876   3.805   2.679   4.331 -0.0863 -0.1002 -1.3644
30654SOL     OW95877   6.166   8.643   7.572  0.3451 -0.3122 -0.1469
30654SOL    HW195878   6.139   8.551   7.580  0.8808 -0.7070 -2.2493
30654SOL    HW295879   6.109   8.679   7.505  0.7274  0.6480  0.0295
30655SOL     OW95880   2.632   8.116   0.940  0.0585 -0.4415  0.4411
30655SOL    HW195881   2.591   8.066   0.870  1.3404 -1.0872  0.1348
30655SOL    HW295882   2.579   8.196   0.947 -1.1468 -1.1804 -0.0335
30656SOL     OW95883   5.854   2.098   0.202  0.6829 -0.7631 -0.0994
30656SOL    HW195884   5.943   2.063   0.191  0.1588 -2.0075 -0.5244
30656SOL    HW295885   5.816   2.045   0.272 -0.4520 -1.7664 -1.4146
30657SOL     OW95886   7.727   9.200   0.942  0.5981 -0.1572  0.0380
30657SOL    HW195887   7.725   9.105   0.944 -0.7799 -0.1726 -0.3969
30657SOL    HW295888   7.681   9.223   0.860 -0.2558  0.8741  0.7706
30658SOL     OW95889   5.193   7.114   8.652 -0.4487 -0.3300 -0.1170
30658SOL    HW195890   5.184   7.098   8.746  1.5941  1.8566  0.5432
30658SOL    HW295891   5.288   7.120   8.637 -0.7520  1.8153 -1.7894
30659SOL     OW95892   9.918   8.706   3.647  0.4518  0.0716  0.4331
30659SOL    HW195893  10.006   8.669   3.657  0.9927  1.2510  0.1553
30659SOL    HW295894   9.928   8.799   3.668 -0.2195  0.7398 -1.9683
30660SOL     OW95895   6.223   1.177   0.153  0.3474  0.7322  0.0686
30660SOL    HW195896   6.186   1.244   0.094 -0.2297  1.5734  1.3259
30660SOL    HW295897   6.175   1.189   0.234  0.7266 -0.7909  0.5415
30661SOL     OW95898   0.550   4.907   4.455  0.7248 -0.2351 -0.4360
30661SOL    HW195899   0.569   4.828   4.504  2.3478  0.2518 -0.2054
30661SOL    HW295900   0.616   4.970   4.485 -1.2292  1.5968  0.2493
30662SOL     OW95901   1.260   4.766   1.275  0.4319 -0.6681 -0.0469
30662SOL    HW195902   1.297   4.775   1.187  0.1696 -0.4890 -0.1395
30662SOL    HW295903   1.205   4.688   1.270 -2.2589  1.1369 -1.0030
30663SOL     OW95904   1.472   3.544   1.155 -1.0577 -0.3121  0.0638
30663SOL    HW195905   1.502   3.620   1.104 -1.0316 -0.9831 -0.9389
30663SOL    HW295906   1.450   3.581   1.241  2.9121  0.2562  1.0484
30664SOL     OW95907   9.973   6.195   1.218  0.2561 -0.0448 -0.1215
30664SOL    HW195908  10.060   6.171   1.252  0.4119  0.5189 -0.1200
30664SOL    HW295909   9.912   6.151   1.278  0.5340 -0.2893 -0.0093
30665SOL     OW95910   9.000   1.715   2.087 -0.2623 -0.1319  0.3388
30665SOL    HW195911   8.926   1.763   2.125 -0.2510  0.7671 -0.7215
30665SOL    HW295912   9.057   1.697   2.161  0.4652  2.8293  0.6217
30666SOL     OW95913   7.774   1.555   2.920 -0.1378  0.4067 -0.0394
30666SOL    HW195914   7.865   1.576   2.896 -0.0360  0.2636  0.2165
30666SOL    HW295915   7.722   1.623   2.877  0.1509  0.9238  0.4035
30667SOL     OW95916   8.839   2.382   4.759 -0.0230 -0.1433  0.2548
30667SOL    HW195917   8.801   2.401   4.673  0.6561 -0.7204 -0.1860
30667SOL    HW295918   8.924   2.425   4.758  0.1412 -0.4585  0.4981
30668SOL     OW95919   7.297   4.676   5.882  0.2047 -0.1534  0.2743
30668SOL    HW195920   7.380   4.653   5.923  0.8859  0.7117 -0.5544
30668SOL    HW295921   7.277   4.764   5.916  0.0053 -0.0607 -0.0733
30669SOL     OW95922   9.974   5.480   0.765  0.4374 -0.0013  0.3100
30669SOL    HW195923  10.040   5.547   0.745 -0.4469  0.4192 -1.3638
30669SOL    HW295924   9.993   5.454   0.855  1.4361  1.7844  0.6582
30670SOL     OW95925   0.317   5.382   5.522 -0.3933 -0.0077  0.1624
30670SOL    HW195926   0.277   5.402   5.606  0.2536 -1.7753  0.9520
30670SOL    HW295927   0.410   5.400   5.535 -0.1895 -0.9278  0.0813
30671SOL     OW95928   4.727   9.948   8.432  0.0316 -0.5499 -0.0358
30671SOL    HW195929   4.654   9.985   8.481  1.9545  2.4494  0.8196
30671SOL    HW295930   4.764   9.882   8.490  0.8997  1.3804  1.7141
30672SOL     OW95931   6.025   2.637   3.214  0.2854  0.5134  0.2536
30672SOL    HW195932   5.932   2.658   3.228 -0.0514 -0.4790 -0.4167
30672SOL    HW295933   6.038   2.649   3.120  0.0728 -2.1545 -0.1727
30673SOL     OW95934   3.960   9.440   7.185 -0.2121 -0.1598 -0.4952
30673SOL    HW195935   3.929   9.392   7.109  0.0915 -0.8321 -0.2004
30673SOL    HW295936   3.885   9.442   7.245 -0.3726  0.1570 -0.6995
30674SOL     OW95937   3.466   4.301   9.112 -0.4717  0.2407 -0.0909
30674SOL    HW195938   3.525   4.227   9.099 -2.4564 -1.2619 -1.0681
30674SOL    HW295939   3.518   4.378   9.088  2.0646 -0.5997  2.1777
30675SOL     OW95940   1.281   7.753   8.346 -0.1472  0.4267  0.2236
30675SOL    HW195941   1.216   7.686   8.370  1.3825 -0.9238  0.7596
30675SOL    HW295942   1.336   7.711   8.280  1.4128  0.7932  1.2419
30676SOL     OW95943   5.502   9.619   3.750 -0.2954  0.1354  0.5800
30676SOL    HW195944   5.569   9.568   3.794 -0.6765 -1.6977 -0.8471
30676SOL    HW295945   5.434   9.632   3.817  0.5146  0.1806  1.4142
30677SOL     OW95946   7.498   5.122   4.891  0.1225  0.1977  0.1214
30677SOL    HW195947   7.441   5.172   4.833 -0.3202 -0.9870 -0.4841
30677SOL    HW295948   7.546   5.189   4.940  0.0061  1.2139 -1.1107
30678SOL     OW95949   9.687   0.951   7.217 -0.8070  0.0939 -0.1502
30678SOL    HW195950   9.775   0.989   7.218  0.3170 -2.2957  1.0023
30678SOL    HW295951   9.676   0.918   7.128 -0.2956 -0.0780 -0.1529
30679SOL     OW95952   5.219   8.101   8.011  0.4978  0.2560  0.1076
30679SOL    HW195953   5.166   8.173   8.045 -0.9434 -0.7451  0.0714
30679SOL    HW295954   5.302   8.141   7.988 -0.1596  1.8421  0.3797
30680SOL     OW95955   0.554   2.102   2.239 -0.4532  0.4162  0.2457
30680SOL    HW195956   0.519   2.191   2.245 -1.3243  0.0943  0.1858
30680SOL    HW295957   0.495   2.058   2.178  0.4277  0.0045 -0.3080
30681SOL     OW95958   6.097   8.520   9.631  0.3447  0.0082 -0.1911
30681SOL    HW195959   6.167   8.585   9.642 -0.8471  1.3348 -0.1966
30681SOL    HW295960   6.107   8.488   9.542  0.8822  0.2485 -0.2194
30682SOL     OW95961   2.067   8.657   3.979  0.1333 -0.5640  0.1537
30682SOL    HW195962   2.132   8.689   4.042  0.8894 -1.2572 -0.2618
30682SOL    HW295963   2.003   8.729   3.973  0.0296 -0.4896  1.7035
30683SOL     OW95964   9.892   9.704   2.475  0.6196 -0.1632  0.0935
30683SOL    HW195965   9.963   9.639   2.479  1.1485  0.3814 -0.3171
30683SOL    HW295966   9.915   9.770   2.540  1.0840  0.5955 -0.8230
30684SOL     OW95967   8.510   5.399   3.663 -0.1482 -0.1200 -0.2031
30684SOL    HW195968   8.489   5.311   3.695  3.7440 -1.8325 -1.8027
30684SOL    HW295969   8.487   5.397   3.570  1.1480  0.0585 -0.5439
30685SOL     OW95970   9.099   2.339   7.831  0.0921  0.1858  0.2664
30685SOL    HW195971   9.062   2.279   7.895  0.9917  0.6699  1.2806
30685SOL    HW295972   9.188   2.306   7.817 -0.2155 -0.1254 -1.0186
30686SOL     OW95973   2.455   1.787   6.187  0.2521  0.2181  0.0908
30686SOL    HW195974   2.510   1.748   6.119 -0.5259  0.5267 -0.7348
30686SOL    HW295975   2.387   1.723   6.202  0.6572 -0.0319  0.8967
30687SOL     OW95976   4.160   2.480   3.317  0.7242  0.1854  0.0552
30687SOL    HW195977   4.247   2.472   3.279  0.7172 -0.1172  0.1034
30687SOL    HW295978   4.106   2.419   3.268  0.4395  0.6851 -0.2599
30688SOL     OW95979   5.973   1.032   3.749 -0.1420 -0.5453  0.1324
30688SOL    HW195980   5.947   1.096   3.815  0.7411 -0.2022  0.1705
30688SOL    HW295981   6.063   1.058   3.726 -0.5534 -0.4334 -1.4555
30689SOL     OW95982   7.672   2.831   1.259  0.1834 -0.1186  0.1397
30689SOL    HW195983   7.663   2.786   1.344 -1.6318  0.5273  0.3288
30689SOL    HW295984   7.599   2.892   1.257 -0.0249 -0.3871 -2.0746
30690SOL     OW95985   9.052   9.889   2.809  0.1251  0.0868  0.4441
30690SOL    HW195986   9.058   9.850   2.722 -0.8780  0.1186  0.3560
30690SOL    HW295987   9.059   9.814   2.869 -2.6038 -0.3873  0.2642
30691SOL     OW95988   4.165   6.485   5.597 -0.4876  0.2450  0.3072
30691SOL    HW195989   4.192   6.400   5.562  0.4243  0.3411  0.7498
30691SOL    HW295990   4.209   6.491   5.683 -1.5971  0.5889  0.8701
30692SOL     OW95991   0.390   8.025   2.820 -0.2676  0.7561  0.0897
30692SOL    HW195992   0.412   7.999   2.730 -2.3979  0.3271 -0.3548
30692SOL    HW295993   0.475   8.031   2.864  0.7026 -1.6779 -1.2357
30693SOL     OW95994   5.091   1.719   5.812  0.6542  0.1498 -0.5112
30693SOL    HW195995   5.020   1.657   5.828  0.6248  0.5607  1.0454
30693SOL    HW295996   5.159   1.667   5.768  1.6200 -1.6565  2.8120
30694SOL     OW95997   0.415   1.255   8.448  0.1717  0.0006  0.1707
30694SOL    HW195998   0.507   1.234   8.431 -0.1073 -0.9156 -0.2755
30694SOL    HW295999   0.376   1.172   8.475 -0.7557  0.1332 -0.7159
30695SOL     OW96000   0.157   6.776   6.155 -0.2772 -0.3210  0.2275
30695SOL    HW196001   0.086   6.715   6.135 -0.0029 -0.3224 -0.7476
30695SOL    HW296002   0.234   6.736   6.115  0.8344 -1.6166  3.3390
30696SOL     OW96003   7.348   6.633   8.719 -0.1324  0.4331 -0.7369
30696SOL    HW196004   7.315   6.722   8.724  1.3448  0.9519  0.5142
30696SOL    HW296005   7.410   6.634   8.646 -0.0789  0.4643 -0.6920
30697SOL     OW96006   4.018   5.819   4.003 -0.5819  0.1439 -0.2644
30697SOL    HW196007   4.002   5.786   4.092 -3.2413  2.0571  0.1069
30697SOL    HW296008   4.046   5.909   4.016  0.0602  0.1141 -1.3617
30698SOL     OW96009   4.970   8.268   2.796  0.5312  0.0404  0.2359
30698SOL    HW196010   4.907   8.242   2.864  1.1524 -0.7652  0.5179
30698SOL    HW296011   4.919   8.265   2.714  0.5295 -1.9611  0.2756
30699SOL     OW96012   8.804   0.949   6.855 -0.3132 -0.3660 -0.3621
30699SOL    HW196013   8.756   0.907   6.783  1.5050  0.7382 -2.3177
30699SOL    HW296014   8.895   0.950   6.826  0.4400  0.4752  1.8298
30700SOL     OW96015   8.839   9.109   1.430 -0.0410  0.3057  0.4076
30700SOL    HW196016   8.804   9.020   1.425  1.2612 -0.1857 -1.8057
30700SOL    HW296017   8.780   9.162   1.377  1.3018 -0.1250 -1.6516
30701SOL     OW96018   9.168  10.147   8.947 -0.0359 -0.2762  0.2546
30701SOL    HW196019   9.176  10.241   8.930  0.3263 -0.4416 -0.5596
30701SOL    HW296020   9.212  10.106   8.872 -1.9949 -1.1257 -0.4944
30702SOL     OW96021   0.659   8.202   8.525 -0.1008 -0.0704  0.8704
30702SOL    HW196022   0.633   8.160   8.607  0.7699 -0.9988  0.6856
30702SOL    HW296023   0.587   8.263   8.506  1.1525  2.6666  3.9997
30703SOL     OW96024   9.790   7.617   7.085  0.1509  0.3555 -0.0707
30703SOL    HW196025   9.870   7.646   7.130  0.5780  1.4587 -1.4788
30703SOL    HW296026   9.744   7.698   7.063 -0.7103 -0.2198 -0.4504
30704SOL     OW96027   8.872   5.725   6.515 -0.5223  0.0692 -0.7245
30704SOL    HW196028   8.830   5.772   6.443  2.2115  1.8195 -1.3053
30704SOL    HW296029   8.952   5.689   6.476  0.1722 -0.3818  1.0439
30705SOL     OW96030   6.151   9.623   4.367 -0.0370 -0.1924 -0.2371
30705SOL    HW196031   6.208   9.694   4.339  1.7155 -0.1824  2.8839
30705SOL    HW296032   6.084   9.665   4.420  2.3691 -0.7681  3.6949
30706SOL     OW96033   4.434   1.839   9.211 -0.1059 -0.2036 -0.7919
30706SOL    HW196034   4.411   1.925   9.246 -1.1365 -1.3455  1.5414
30706SOL    HW296035   4.434   1.781   9.287  0.0558 -2.3896 -2.3571
30707SOL     OW96036   4.220   1.891   2.687  0.3506 -0.2500  0.0069
30707SOL    HW196037   4.281   1.872   2.758  0.2902  0.5848  0.2936
30707SOL    HW296038   4.265   1.861   2.607  0.7589 -0.4437  0.3075
30708SOL     OW96039   7.133   4.615   3.349  0.4670 -0.1086  0.7089
30708SOL    HW196040   7.226   4.637   3.339  0.8059 -1.6492  0.0839
30708SOL    HW296041   7.131   4.552   3.421  0.1996 -1.5476 -0.5010
30709SOL     OW96042   2.379   8.163   1.754  0.4019 -0.4603  0.0169
30709SOL    HW196043   2.358   8.256   1.761 -0.1596 -0.4411 -1.5331
30709SOL    HW296044   2.473   8.161   1.736  0.3126 -0.1508 -0.5118
30710SOL     OW96045   3.035   2.400   7.433 -0.4903 -0.1962 -0.3920
30710SOL    HW196046   3.045   2.495   7.435  0.6619 -0.2149 -2.3181
30710SOL    HW296047   3.114   2.366   7.473 -0.3375 -0.3342 -0.8050
30711SOL     OW96048   0.385   3.642   4.550  0.0373  0.2045 -0.2292
30711SOL    HW196049   0.368   3.652   4.457 -1.1932 -0.2826 -0.0727
30711SOL    HW296050   0.409   3.549   4.561 -2.5487 -0.4790  0.2868
30712SOL     OW96051   0.205   9.598   5.897  0.0453  0.9357  0.0227
30712SOL    HW196052   0.267   9.662   5.861  0.0321  0.4399 -0.9116
30712SOL    HW296053   0.239   9.513   5.868  0.0344  0.5026  1.2050
30713SOL     OW96054   6.470   7.226   9.054  0.3017 -0.2780  0.0195
30713SOL    HW196055   6.430   7.163   8.995 -0.9568  1.5824 -1.2293
30713SOL    HW296056   6.484   7.177   9.135 -1.4655 -1.9137 -0.5839
30714SOL     OW96057   1.677   6.660   3.480 -0.3103  0.3964 -0.3012
30714SOL    HW196058   1.678   6.620   3.393  2.1530 -1.0855  0.3061
30714SOL    HW296059   1.769   6.673   3.501 -0.7516 -0.4314  2.5597
30715SOL     OW96060   3.751   3.184   9.073  0.1686 -0.4662 -0.2411
30715SOL    HW196061   3.815   3.117   9.049 -0.9776 -1.2652 -1.1630
30715SOL    HW296062   3.716   3.155   9.158 -0.3994 -1.1020 -0.6884
30716SOL     OW96063   1.755   1.885   4.958 -0.0759  0.1766  0.2685
30716SOL    HW196064   1.755   1.980   4.974 -0.9340  0.2484 -0.0957
30716SOL    HW296065   1.815   1.849   5.023  2.2587  1.2263 -1.1497
30717SOL     OW96066   5.253   2.042   5.420  0.5665 -0.4028 -0.4084
30717SOL    HW196067   5.346   2.052   5.438  0.1400  2.4961  0.5635
30717SOL    HW296068   5.210   2.048   5.505 -0.7580  3.1352 -1.1504
30718SOL     OW96069   5.372   4.272   0.359  0.1066  0.0556 -0.0321
30718SOL    HW196070   5.317   4.221   0.418  0.6459 -0.6864 -0.1593
30718SOL    HW296071   5.371   4.223   0.276  1.8390 -0.5985  0.2861
30719SOL     OW96072   0.895   3.871   6.331  0.3718 -0.2975  0.1526
30719SOL    HW196073   0.987   3.897   6.319  0.7757 -1.5831  0.3915
30719SOL    HW296074   0.865   3.847   6.244  1.0717 -2.3990  0.4383
30720SOL     OW96075   7.270   9.974   9.056 -0.1330 -0.0996 -0.2980
30720SOL    HW196076   7.244  10.066   9.055 -0.9600 -0.2654  1.4827
30720SOL    HW296077   7.195   9.928   9.095  1.0334 -1.2313  0.7217
30721SOL     OW96078   9.404   8.433   2.595 -0.0460 -0.9333  0.0969
30721SOL    HW196079   9.386   8.518   2.555  1.4761 -0.2913  0.7081
30721SOL    HW296080   9.330   8.378   2.569  0.2717 -0.2099 -2.5325
30722SOL     OW96081   7.569   3.160   7.360  0.1532  0.0965 -0.1280
30722SOL    HW196082   7.661   3.151   7.385  0.5842  2.6573 -0.5009
30722SOL    HW296083   7.556   3.255   7.353 -2.2068 -0.2550 -1.2725
30723SOL     OW96084   0.116   0.922   1.672  0.2125  0.4091  0.2445
30723SOL    HW196085   0.058   0.853   1.706 -0.1515  0.6865  0.1847
30723SOL    HW296086   0.083   0.940   1.584  0.5156  0.4269  0.1320
30724SOL     OW96087   8.551   9.866   4.671  0.3256  0.3000 -0.6640
30724SOL    HW196088   8.611   9.916   4.616 -0.8514  1.8315 -0.6312
30724SOL    HW296089   8.606   9.798   4.711  2.1117  1.8322 -0.3658
30725SOL     OW96090   5.413   7.388   1.379  0.1555 -0.6265  0.5475
30725SOL    HW196091   5.331   7.434   1.360 -0.9724 -1.8901  2.1297
30725SOL    HW296092   5.481   7.451   1.355 -1.3024  1.3752  1.3808
30726SOL     OW96093   0.097   6.465   3.931  0.4649  0.2990 -0.4329
30726SOL    HW196094   0.134   6.548   3.902  1.5480 -0.0997 -0.2248
30726SOL    HW296095   0.075   6.418   3.851  0.9052  0.3179 -0.5620
30727SOL     OW96096   6.289   4.320   8.471  0.5328  0.3379 -0.2084
30727SOL    HW196097   6.354   4.325   8.541 -0.0004 -0.4070  0.3500
30727SOL    HW296098   6.338   4.291   8.395  1.0051  0.5441  0.0143
30728SOL     OW96099   7.761   0.526   9.461  0.0885  0.3677  0.0434
30728SOL    HW196100   7.815   0.450   9.483  0.5881  0.4250 -0.9295
30728SOL    HW296101   7.728   0.507   9.373  0.9926  1.6996 -0.6040
30729SOL     OW96102   0.902   3.110   2.505 -0.3203 -0.0091 -0.8567
30729SOL    HW196103   0.921   3.128   2.413  0.5893  0.2651 -0.6236
30729SOL    HW296104   0.982   3.069   2.539 -0.0490  1.3011  0.1940
30730SOL     OW96105   9.120   0.297   2.417  0.7400  0.0174  0.3068
30730SOL    HW196106   9.041   0.242   2.419  0.6143  0.1943  0.2497
30730SOL    HW296107   9.091   0.382   2.451  1.1690 -0.2432  1.3589
30731SOL     OW96108   4.847   7.922   8.253  0.2037  0.1009 -0.2107
30731SOL    HW196109   4.775   7.978   8.225 -1.5234 -1.2061  1.3228
30731SOL    HW296110   4.828   7.836   8.215  1.7309  0.0268 -0.9039
30732SOL     OW96111   3.635   6.147   4.427 -0.2086 -1.0381 -0.3531
30732SOL    HW196112   3.605   6.191   4.348  0.0715 -0.2579 -0.0428
30732SOL    HW296113   3.625   6.213   4.496  2.0234 -0.7624 -0.2019
30733SOL     OW96114   1.693   9.308   6.572  0.6016 -0.6092 -0.6273
30733SOL    HW196115   1.679   9.399   6.544 -0.7966 -0.5688  0.1443
30733SOL    HW296116   1.773   9.311   6.624 -0.3393  0.5313  0.8387
30734SOL     OW96117   5.267   8.319   0.689 -0.0522 -0.7527 -0.0271
30734SOL    HW196118   5.233   8.233   0.665 -2.9352  0.4779 -0.8598
30734SOL    HW296119   5.318   8.347   0.613 -0.7622 -0.9451 -0.5871
30735SOL     OW96120   3.707   2.210   3.992 -0.0100  0.2082  0.1722
30735SOL    HW196121   3.632   2.181   3.940  0.0444  1.1465 -0.4562
30735SOL    HW296122   3.737   2.131   4.037  0.4372 -0.8300 -1.8441
30736SOL     OW96123   2.521  10.096   0.405 -0.5949 -0.3071  0.3581
30736SOL    HW196124   2.472  10.093   0.487 -1.1888 -1.0219 -0.0188
30736SOL    HW296125   2.535  10.189   0.389 -0.7366 -0.1523  1.1188
30737SOL     OW96126   4.115  10.028   9.101  0.0982  0.7641  0.0217
30737SOL    HW196127   4.107  10.071   9.186  0.0624 -1.9786  1.5023
30737SOL    HW296128   4.040  10.061   9.050 -0.4055  1.7494  1.3574
30738SOL     OW96129   8.021   9.314   8.199  0.1521 -0.4188 -0.0065
30738SOL    HW196130   8.042   9.246   8.263 -0.7826 -1.3213 -0.6141
30738SOL    HW296131   8.043   9.396   8.242  0.6347 -1.0715  1.0224
30739SOL     OW96132   8.263   9.017   6.296  0.1415 -0.4808 -0.0329
30739SOL    HW196133   8.300   8.987   6.379 -1.2233 -2.9701 -0.2369
30739SOL    HW296134   8.331   8.999   6.232  0.2199 -1.0205  0.1922
30740SOL     OW96135   9.296   6.560   7.826  0.3481 -0.5125  0.2571
30740SOL    HW196136   9.361   6.605   7.879 -2.9440  0.4867  3.9706
30740SOL    HW296137   9.275   6.621   7.756 -0.1973  1.4872  2.0624
30741SOL     OW96138   6.530   3.491   0.800  0.3944 -0.8179  0.0497
30741SOL    HW196139   6.448   3.479   0.752  0.3148 -1.2144  0.2785
30741SOL    HW296140   6.564   3.574   0.769  1.7837 -2.3123 -2.7945
30742SOL     OW96141   3.841   1.482   1.542  0.1936 -0.1657 -0.1867
30742SOL    HW196142   3.862   1.575   1.546  1.2998 -0.4158 -0.0104
30742SOL    HW296143   3.863   1.455   1.453  3.6305 -1.0871  0.8144
30743SOL     OW96144   9.415   1.254   2.512  0.2329 -0.1541 -0.2455
30743SOL    HW196145   9.441   1.240   2.603 -0.3001 -0.3915 -0.1261
30743SOL    HW296146   9.371   1.173   2.486 -1.6379  0.7191  0.0152
30744SOL     OW96147   7.916   3.983   8.196 -0.0985 -0.5257  0.0635
30744SOL    HW196148   7.970   3.952   8.123 -0.8449 -0.7672 -0.3918
30744SOL    HW296149   7.954   4.068   8.220 -1.1781  0.6039 -2.0380
30745SOL     OW96150   9.735   8.216   1.480  0.0266  0.4160  0.0887
30745SOL    HW196151   9.721   8.290   1.539  2.2616  0.1451  1.0746
30745SOL    HW296152   9.831   8.210   1.472 -0.1533 -0.9328 -1.8349
30746SOL     OW96153   0.125   2.034   7.422  0.0849 -0.4871 -0.0431
30746SOL    HW196154   0.115   2.064   7.332  2.2967 -0.0438 -0.2113
30746SOL    HW296155   0.138   2.114   7.474 -0.4049 -0.7803  0.5444
30747SOL     OW96156   5.699   5.605   8.829 -0.4503 -0.1994 -0.2733
30747SOL    HW196157   5.611   5.573   8.807  0.2111 -0.7240 -2.3362
30747SOL    HW296158   5.690   5.701   8.825 -1.4408 -0.1405  1.8722
30748SOL     OW96159   8.503   0.622   1.718 -0.1212 -0.4991  0.1775
30748SOL    HW196160   8.437   0.611   1.787 -0.2248 -0.9263  0.0163
30748SOL    HW296161   8.549   0.702   1.742 -1.0477  0.1036 -0.0032
30749SOL     OW96162   8.941   8.374   4.664 -0.0061 -0.7636 -0.2679
30749SOL    HW196163   8.874   8.306   4.652 -1.5626  0.4190  1.1596
30749SOL    HW296164   8.950   8.414   4.577  0.1824 -2.0852 -0.8875
30750SOL     OW96165   1.476   6.500   6.854  0.3789 -0.0403 -0.3106
30750SOL    HW196166   1.473   6.593   6.831 -0.6125  0.4984  1.8657
30750SOL    HW296167   1.570   6.483   6.868  0.5292  0.7445 -0.2862
30751SOL     OW96168   9.007   6.304   7.096 -0.7512  0.6838 -0.1657
30751SOL    HW196169   8.983   6.220   7.056 -1.4833 -0.8983  3.2023
30751SOL    HW296170   9.066   6.345   7.033 -1.7872 -1.5157 -2.7508
30752SOL     OW96171   5.477   7.904   3.086  0.0767  0.3005  0.0031
30752SOL    HW196172   5.513   7.837   3.143  0.1939 -0.2313 -0.6763
30752SOL    HW296173   5.498   7.987   3.129 -1.0502 -0.1124  1.4250
30753SOL     OW96174   9.000   8.348   0.271 -0.3883 -0.0967 -0.1087
30753SOL    HW196175   8.996   8.315   0.181 -1.1049 -1.6799  0.4799
30753SOL    HW296176   8.909   8.368   0.294 -0.4867 -1.5202  0.8850
30754SOL     OW96177   7.455   1.869   9.128  0.2656 -0.2187 -0.2263
30754SOL    HW196178   7.440   1.783   9.089 -0.6348  0.2037 -0.8781
30754SOL    HW296179   7.548   1.871   9.148  0.3555 -1.2262 -0.4834
30755SOL     OW96180   9.995   3.093   3.778  0.5493 -0.1074 -0.2617
30755SOL    HW196181  10.076   3.139   3.801  0.9356 -1.7381  1.9149
30755SOL    HW296182   9.929   3.162   3.777  1.6701  1.0060 -0.4681
30756SOL     OW96183   2.126   5.807   3.120  0.3526 -0.1982 -0.5100
30756SOL    HW196184   2.211   5.765   3.132 -0.1193 -1.0380 -0.0552
30756SOL    HW296185   2.146   5.891   3.077  1.2205 -1.4522 -2.7363
30757SOL     OW96186   5.548   3.703   2.890 -0.5695 -0.1903  0.1088
30757SOL    HW196187   5.601   3.639   2.937  1.3525  1.1577 -0.1122
30757SOL    HW296188   5.603   3.781   2.883 -2.3227  1.0686 -0.7851
30758SOL     OW96189   8.453   0.946   3.884 -0.1764  0.1005  0.3128
30758SOL    HW196190   8.465   0.903   3.799 -0.2532 -0.4647  0.5896
30758SOL    HW296191   8.449   1.040   3.862  0.3232 -0.0026 -0.2507
30759SOL     OW96192   4.973   9.394   5.199  0.5229 -0.1325  0.0715
30759SOL    HW196193   4.895   9.391   5.254  0.9849 -0.8762  0.6996
30759SOL    HW296194   4.940   9.384   5.110  0.0512 -3.4520  0.4778
30760SOL     OW96195   7.504   1.522   6.750  0.0075  0.0197  0.0978
30760SOL    HW196196   7.430   1.473   6.787  1.7575 -2.3921  0.6626
30760SOL    HW296197   7.553   1.552   6.826  0.5095  0.1019 -0.2545
30761SOL     OW96198   4.808   5.527   1.084  0.0547 -0.1878 -0.3366
30761SOL    HW196199   4.725   5.547   1.128 -0.2152 -3.6845  1.0196
30761SOL    HW296200   4.789   5.540   0.991 -1.2276  1.4401  0.1122
30762SOL     OW96201   4.507   8.594   7.271 -0.8421 -0.3597 -0.6254
30762SOL    HW196202   4.499   8.560   7.182  1.8587 -0.2399 -1.0011
30762SOL    HW296203   4.534   8.685   7.259 -0.8750 -0.2161  0.3264
30763SOL     OW96204   6.169   5.538   7.390 -0.3516  0.1853  0.0172
30763SOL    HW196205   6.116   5.533   7.469 -2.7032  0.2605 -1.4301
30763SOL    HW296206   6.220   5.458   7.390  0.2888  0.5404  1.9479
30764SOL     OW96207   9.324   0.050   7.100 -0.4753 -0.0402  0.0989
30764SOL    HW196208   9.321   0.139   7.137  0.1054  0.3291 -0.7088
30764SOL    HW296209   9.310  -0.007   7.175  1.5317  0.6537  1.0961
30765SOL     OW96210   9.165   7.915  10.151 -0.4813  0.0797  0.0480
30765SOL    HW196211   9.120   7.968  10.086 -0.6300  0.0447  0.1204
30765SOL    HW296212   9.212   7.848  10.101 -0.2500  0.3134 -0.0460
30766SOL     OW96213   5.169   2.148   9.194  0.0549  0.0688 -0.0470
30766SOL    HW196214   5.108   2.220   9.205 -2.3675 -1.8581  0.0567
30766SOL    HW296215   5.198   2.155   9.103 -1.2257  0.3761 -0.4443
30767SOL     OW96216   9.468   3.063   0.267 -0.4254  0.4048 -0.4877
30767SOL    HW196217   9.402   3.103   0.323 -0.5689  1.1260 -1.1551
30767SOL    HW296218   9.524   3.014   0.328 -0.6166  1.1062  0.2781
30768SOL     OW96219   2.294   0.617   4.180 -0.3377  0.4231  0.2492
30768SOL    HW196220   2.338   0.635   4.096 -1.4733  3.0352  0.1430
30768SOL    HW296221   2.226   0.554   4.157  2.3181 -2.7547  0.2021
30769SOL     OW96222   6.076   1.528   5.643  0.1774 -0.2002  0.5934
30769SOL    HW196223   6.070   1.589   5.569  0.1007 -0.7957  0.1025
30769SOL    HW296224   6.090   1.584   5.719 -0.6245  0.4820  0.2497
30770SOL     OW96225   7.673   9.024   8.118  0.1730 -0.2497  0.3321
30770SOL    HW196226   7.678   9.115   8.150  0.4794 -0.1517  0.0089
30770SOL    HW296227   7.671   9.033   8.023  1.8177 -0.6432  0.2294
30771SOL     OW96228   9.700   8.944   7.651 -0.0566 -0.8010 -0.8220
30771SOL    HW196229   9.662   8.868   7.694 -0.5721 -0.8528 -1.3439
30771SOL    HW296230   9.779   8.911   7.608  1.8968 -0.2542  2.0827
30772SOL     OW96231   2.162   1.908   0.163  0.6226  0.1998 -0.1036
30772SOL    HW196232   2.080   1.861   0.149  1.1440 -1.7888  2.6672
30772SOL    HW296233   2.136   2.000   0.173 -1.1268 -0.2429 -0.2746
30773SOL     OW96234   4.780   8.625   1.498  0.7123  0.0881 -0.0715
30773SOL    HW196235   4.784   8.622   1.594  0.7372 -0.1763 -0.0795
30773SOL    HW296236   4.802   8.536   1.471 -0.7671 -0.2320 -0.2681
30774SOL     OW96237   1.744   1.038   7.604  0.1020  0.2331  0.0606
30774SOL    HW196238   1.723   1.106   7.669 -0.9779  0.8337 -0.8628
30774SOL    HW296239   1.746   0.957   7.654 -0.3171  0.7335  0.9149
30775SOL     OW96240   9.892   0.996   5.150  0.0984  0.5991 -0.7808
30775SOL    HW196241   9.920   1.070   5.203  0.9091  0.9082 -1.6139
30775SOL    HW296242   9.936   0.920   5.189 -0.5087  0.5853 -0.1019
30776SOL     OW96243   7.331   8.311   0.452  0.5414 -0.2887  0.6628
30776SOL    HW196244   7.358   8.382   0.393 -1.0237 -0.3362 -0.1776
30776SOL    HW296245   7.346   8.231   0.402 -0.9512 -0.3203  0.1953
30777SOL     OW96246   8.401   6.302   1.570 -0.2254  0.2038  0.2306
30777SOL    HW196247   8.385   6.210   1.591 -1.0119  0.3976  0.5189
30777SOL    HW296248   8.407   6.345   1.656  0.7510  0.3335  0.1120
30778SOL     OW96249   8.796   2.056   0.754 -0.0206  0.1656 -0.1707
30778SOL    HW196250   8.759   2.124   0.810 -0.9490 -0.1178 -0.4165
30778SOL    HW296251   8.775   2.083   0.665 -0.7558 -0.6304 -0.2544
30779SOL     OW96252   2.900   9.274   1.505  0.2470  0.1878 -0.2766
30779SOL    HW196253   2.845   9.245   1.432  0.0112  1.1277 -0.4889
30779SOL    HW296254   2.858   9.237   1.583 -2.8889  3.6910  0.0026
30780SOL     OW96255   4.294   3.631   4.375  0.4701 -0.2805  0.0517
30780SOL    HW196256   4.226   3.615   4.441  0.7638  1.9229  0.9768
30780SOL    HW296257   4.374   3.645   4.426  1.0518 -0.1593 -0.8689
30781SOL     OW96258   7.767   9.955   4.787  0.6275 -0.4778  0.2506
30781SOL    HW196259   7.726   9.951   4.701  0.5393  0.6435  0.2170
30781SOL    HW296260   7.737  10.038   4.824  1.4251 -0.4895  0.9667
30782SOL     OW96261   6.234   4.127   0.576 -0.2211 -0.2497 -0.3194
30782SOL    HW196262   6.177   4.178   0.519  0.5498  1.1405  0.0931
30782SOL    HW296263   6.179   4.103   0.650 -0.1011  1.8852  0.5440
30783SOL     OW96264   6.934   6.894   7.337 -0.1286  0.4372  0.1255
30783SOL    HW196265   6.848   6.869   7.370  0.0217 -0.1974  0.0470
30783SOL    HW296266   6.954   6.976   7.382 -0.1110 -0.1928  1.2906
30784SOL     OW96267   2.864   0.342   2.316 -0.2970  0.0937  0.1639
30784SOL    HW196268   2.810   0.380   2.386  2.4339  1.6693  1.5855
30784SOL    HW296269   2.948   0.387   2.323  1.1010 -1.8543 -2.2558
30785SOL     OW96270   9.358   9.909   6.522 -0.2613 -0.0567 -0.1038
30785SOL    HW196271   9.429   9.923   6.585 -0.6110 -0.3535  0.3610
30785SOL    HW296272   9.326   9.821   6.541 -0.7207  0.0568 -0.3375
30786SOL     OW96273   4.067   4.842   2.352  0.0689  0.3076  0.1445
30786SOL    HW196274   4.065   4.929   2.310 -0.2101  0.5707  0.6919
30786SOL    HW296275   4.130   4.852   2.424  0.9858 -0.3096 -0.5497
30787SOL     OW96276   0.814   2.984   2.808  0.3658  0.2339 -0.2767
30787SOL    HW196277   0.890   2.928   2.826 -0.1900 -0.7152 -0.7726
30787SOL    HW296278   0.753   2.965   2.878  0.4448  0.7457 -0.0650
30788SOL     OW96279   2.622   3.368   3.489  0.0539  0.4309 -0.4891
30788SOL    HW196280   2.681   3.360   3.414 -1.8495  0.7387 -2.1148
30788SOL    HW296281   2.612   3.463   3.501  0.3502  0.3823  0.1789
30789SOL     OW96282   4.539   5.474  10.116 -0.1342  0.3054 -0.5565
30789SOL    HW196283   4.570   5.484  10.026 -1.4164 -0.1427 -1.0688
30789SOL    HW296284   4.444   5.462  10.108 -0.2150 -0.1732  0.8288
30790SOL     OW96285   5.525   8.862   3.447 -0.1354 -0.0579 -0.0480
30790SOL    HW196286   5.512   8.796   3.379 -0.0427  0.8118 -0.9359
30790SOL    HW296287   5.619   8.858   3.466 -0.2562 -0.6887  0.4451
30791SOL     OW96288   9.061   7.772   8.132  0.2193 -0.0791  0.2088
30791SOL    HW196289   9.130   7.710   8.157 -0.4736 -1.5196 -1.3113
30791SOL    HW296290   9.001   7.772   8.207  2.0273  1.5799  1.7894
30792SOL     OW96291   1.113   7.314   7.754 -0.0388 -0.0139  0.2464
30792SOL    HW196292   1.148   7.394   7.794 -0.5756 -0.2562  1.2568
30792SOL    HW296293   1.178   7.247   7.774 -0.1742 -0.0760  0.4905
30793SOL     OW96294   1.003   6.611   6.440 -0.3257 -0.2724  0.2589
30793SOL    HW196295   0.982   6.523   6.409  0.6922 -0.8041  1.0471
30793SOL    HW296296   1.050   6.652   6.367 -2.6837  0.4390 -0.9768
30794SOL     OW96297   1.661   7.541   5.930 -0.0130 -0.1976  0.2567
30794SOL    HW196298   1.719   7.584   5.993  0.4409 -0.9816  0.3869
30794SOL    HW296299   1.698   7.454   5.919 -0.6872 -0.4207 -0.3120
30795SOL     OW96300   7.491   6.355   3.722  0.4693 -0.1897 -0.0684
30795SOL    HW196301   7.553   6.389   3.787  1.2544 -0.9773 -0.3770
30795SOL    HW296302   7.408   6.348   3.769  1.0511 -0.8579  0.8963
30796SOL     OW96303   4.820   5.586   3.580 -0.8736  0.0576  0.2385
30796SOL    HW196304   4.755   5.578   3.509 -0.5264 -1.0552  0.0279
30796SOL    HW296305   4.828   5.497   3.614  0.2890  0.2595  0.5015
30797SOL     OW96306   7.233   5.801   1.123 -0.4547 -0.2079 -0.2651
30797SOL    HW196307   7.282   5.748   1.060  0.5189  0.1811  0.1283
30797SOL    HW296308   7.173   5.853   1.070  1.5405  1.3946 -1.1237
30798SOL     OW96309   1.049   6.861   0.132 -0.1982 -0.0899 -0.7763
30798SOL    HW196310   1.057   6.822   0.045 -1.0731 -1.2961 -0.3492
30798SOL    HW296311   0.962   6.833   0.162  0.8972 -1.4814  1.3163
30799SOL     OW96312   6.942   0.608   5.743  0.0922  0.4627 -0.0933
30799SOL    HW196313   7.001   0.567   5.806 -0.0647  0.2069 -0.1150
30799SOL    HW296314   6.875   0.650   5.796  0.3712  0.8853 -0.0613
30800SOL     OW96315   0.129   8.942   9.042  0.1144 -0.4518 -0.2459
30800SOL    HW196316   0.144   9.036   9.030 -1.4503 -0.2734 -1.0488
30800SOL    HW296317   0.091   8.935   9.130  0.1215 -0.3144 -0.2323
30801SOL     OW96318   8.821   2.847   5.026  0.3467 -0.1289  0.1798
30801SOL    HW196319   8.833   2.825   4.934 -1.2565  0.0170 -0.0776
30801SOL    HW296320   8.895   2.805   5.070  0.4956 -1.1784 -1.0163
30802SOL     OW96321   0.561   7.807   9.442  0.3249 -0.9867 -0.2521
30802SOL    HW196322   0.558   7.732   9.382 -1.3352 -1.5632  0.4749
30802SOL    HW296323   0.500   7.870   9.403 -0.0632 -0.9911  0.3377
30803SOL     OW96324   7.324   8.295   8.774  0.9763 -0.2415 -0.7828
30803SOL    HW196325   7.283   8.305   8.860 -0.3449 -2.1194 -1.1253
30803SOL    HW296326   7.276   8.355   8.717  3.5040  2.9746  0.1561
30804SOL     OW96327   9.707   4.838   2.904  0.3203 -0.2839 -0.1568
30804SOL    HW196328   9.683   4.817   2.814  1.3131  2.9477 -1.3126
30804SOL    HW296329   9.628   4.878   2.941  0.0710 -1.1595  0.3021
30805SOL     OW96330   6.720   4.824   0.586 -0.0080  0.9104 -0.2885
30805SOL    HW196331   6.666   4.864   0.654 -1.5441 -0.4370 -0.6496
30805SOL    HW296332   6.724   4.732   0.610  0.9990  0.7555 -1.0203
30806SOL     OW96333   4.279   9.910   8.921  0.3407  0.4270 -0.0922
30806SOL    HW196334   4.241   9.932   9.007  0.3399 -0.2104  0.0780
30806SOL    HW296335   4.343   9.842   8.940  2.0878  1.9351 -0.2948
30807SOL     OW96336   2.067   2.128   0.611 -0.0104  0.4143 -0.3600
30807SOL    HW196337   1.978   2.147   0.641  0.0159 -0.0263  0.0079
30807SOL    HW296338   2.070   2.033   0.603  0.7380  0.3343  0.6336
30808SOL     OW96339   9.261  10.166   4.175 -0.4203  0.4030  0.0909
30808SOL    HW196340   9.266  10.180   4.269 -1.3303  0.6362  0.1091
30808SOL    HW296341   9.334  10.217   4.140 -0.2709  0.5758  0.6383
30809SOL     OW96342   8.467   3.181   3.373  0.6408 -0.0409 -0.5658
30809SOL    HW196343   8.554   3.218   3.364  1.9030 -2.4438  0.6589
30809SOL    HW296344   8.454   3.173   3.468 -1.3213  1.0789 -0.6892
30810SOL     OW96345   1.585   8.325   3.116  0.6766  0.3727 -0.3467
30810SOL    HW196346   1.613   8.364   3.199 -0.6154 -1.3482  0.9824
30810SOL    HW296347   1.614   8.387   3.049  2.8350  1.2384  1.2772
30811SOL     OW96348  10.147   6.987   7.213 -0.0305 -0.3474  0.2223
30811SOL    HW196349  10.067   6.995   7.160  0.0290  0.4451  0.2404
30811SOL    HW296350  10.126   7.031   7.295  1.0196  1.6218 -0.4789
30812SOL     OW96351   3.940   0.653   6.404  0.0215  0.1049  0.4642
30812SOL    HW196352   3.912   0.692   6.488  0.0294 -0.2007  0.6100
30812SOL    HW296353   3.901   0.566   6.405 -0.2361  0.2151  0.0068
30813SOL     OW96354   8.955   6.021   2.370  0.4267 -0.5184 -0.1057
30813SOL    HW196355   8.951   5.964   2.446  0.0103 -0.1070  0.1852
30813SOL    HW296356   8.964   6.109   2.406  0.7454 -0.3678 -0.5433
30814SOL     OW96357   0.539   6.910   9.881 -0.1107 -0.6231  0.1674
30814SOL    HW196358   0.634   6.917   9.873 -0.0775 -0.3451  0.6939
30814SOL    HW296359   0.518   6.822   9.851  0.0715 -0.0205 -1.8850
30815SOL     OW96360   8.287   4.690   3.603  0.7273  0.0232  0.3247
30815SOL    HW196361   8.280   4.746   3.525  1.1273 -1.6484 -0.9627
30815SOL    HW296362   8.268   4.602   3.571  1.6174 -0.8103  1.9753
30816SOL     OW96363   1.841   1.856   0.046  0.5474 -0.4060  0.2351
30816SOL    HW196364   1.818   1.803  -0.030 -0.2599  0.4415 -0.1316
30816SOL    HW296365   1.774   1.835   0.111 -0.8252  1.3694 -0.5067
30817SOL     OW96366   8.432   5.860   2.415  0.0482 -0.0132 -0.4528
30817SOL    HW196367   8.502   5.925   2.404 -0.1157  0.3056  0.3472
30817SOL    HW296368   8.472   5.791   2.467  0.2390 -0.5942 -1.3514
30818SOL     OW96369   5.437   7.162   1.885  0.4347 -0.0600  0.2271
30818SOL    HW196370   5.406   7.091   1.829  2.7722 -0.8024 -0.2262
30818SOL    HW296371   5.398   7.143   1.971  1.1184 -2.0012  0.1601
30819SOL     OW96372   4.071   0.965   9.722 -0.4058 -0.2608  0.3286
30819SOL    HW196373   4.007   1.035   9.709 -0.9728 -0.7603  0.4093
30819SOL    HW296374   4.034   0.889   9.677  0.0095 -0.6301  0.5949
30820SOL     OW96375   1.895   7.923   5.269 -0.3565  0.5834  0.2233
30820SOL    HW196376   1.821   7.980   5.290  0.0399  0.6850  1.4109
30820SOL    HW296377   1.921   7.885   5.353  0.6120  0.1394 -0.2603
30821SOL     OW96378   8.664   0.842   2.337 -0.1796  0.2032 -0.0959
30821SOL    HW196379   8.570   0.861   2.336 -0.5317 -1.3425  0.0636
30821SOL    HW296380   8.672   0.761   2.286  1.0367  0.1630  0.1317
30822SOL     OW96381   3.781   9.189   6.702 -0.1514  0.0126 -0.4882
30822SOL    HW196382   3.767   9.145   6.618 -3.2357  0.8230 -0.5088
30822SOL    HW296383   3.719   9.147   6.762 -1.3368  2.4726  0.1384
30823SOL     OW96384   8.749   6.499   9.304 -0.0734  0.1285 -0.2302
30823SOL    HW196385   8.839   6.522   9.327  0.0589 -0.7364  0.1633
30823SOL    HW296386   8.753   6.406   9.282 -1.0244 -0.1253  0.6198
30824SOL     OW96387   9.172   8.163   2.920  0.6704 -0.2110 -0.5537
30824SOL    HW196388   9.149   8.071   2.907  1.3900 -0.7090  1.2334
30824SOL    HW296389   9.267   8.166   2.908  0.4560  0.6999 -2.3776
30825SOL     OW96390   7.515   1.653   9.993  0.3165 -0.4377 -0.0606
30825SOL    HW196391   7.526   1.651  10.088 -0.0755  1.3398  0.0487
30825SOL    HW296392   7.583   1.594   9.960  1.0881 -0.3301  1.2616
30826SOL     OW96393   0.462   7.678   7.657 -0.3963 -0.2555  0.7184
30826SOL    HW196394   0.538   7.641   7.702 -0.6647 -0.9398  0.6234
30826SOL    HW296395   0.388   7.627   7.690 -0.5856 -0.8700 -0.5788
30827SOL     OW96396   8.833   9.076   4.521 -0.3155  0.3067  0.0605
30827SOL    HW196397   8.887   9.017   4.469 -3.2893 -1.5957 -1.1487
30827SOL    HW296398   8.820   9.029   4.604 -0.7670  0.3709  0.0264
30828SOL     OW96399   9.598   2.597   3.628  0.1520 -0.0326 -0.0619
30828SOL    HW196400   9.680   2.565   3.590 -0.3201  0.9372 -2.0279
30828SOL    HW296401   9.621   2.623   3.717  1.4199 -2.0275  0.2514
30829SOL     OW96402   0.333   4.656   6.984 -0.0489  0.3571 -0.0093
30829SOL    HW196403   0.332   4.594   7.057  1.1890 -0.0628 -0.3293
30829SOL    HW296404   0.256   4.633   6.933 -0.0565 -0.3823  0.3210
30830SOL     OW96405   8.835   1.493   5.522  0.2512 -0.0476 -0.1512
30830SOL    HW196406   8.804   1.407   5.495  0.2411 -0.0280 -0.2016
30830SOL    HW296407   8.870   1.533   5.443 -0.1551  0.1730 -0.2274
30831SOL     OW96408   8.486   1.474  10.131 -0.1491 -0.7436  0.5770
30831SOL    HW196409   8.458   1.564  10.120  0.8168 -0.6451 -1.6684
30831SOL    HW296410   8.476   1.456  10.224 -2.7610  0.8364  0.6771
30832SOL     OW96411   6.956  10.117   6.132 -0.4724 -0.0420  0.1615
30832SOL    HW196412   7.031  10.074   6.173 -0.4284 -0.5303 -0.4009
30832SOL    HW296413   6.993  10.195   6.091 -0.3953  0.0827  0.4679
30833SOL     OW96414   0.183   5.720   6.677  0.6065 -0.4302 -0.4874
30833SOL    HW196415   0.272   5.702   6.646  0.9420  1.3349 -0.6525
30833SOL    HW296416   0.162   5.807   6.641 -0.2748  0.2110  1.4422
30834SOL     OW96417   1.891   4.763   0.920  0.1917  0.0493  0.1668
30834SOL    HW196418   1.895   4.805   0.834  0.4995 -0.2999  0.0069
30834SOL    HW296419   1.936   4.679   0.907 -2.2379 -1.2939 -0.0672
30835SOL     OW96420  10.140   9.141   2.165 -0.4331  0.0758 -0.2470
30835SOL    HW196421  10.073   9.161   2.231 -1.2413 -1.9791 -0.3682
30835SOL    HW296422  10.134   9.213   2.103 -0.3553  1.5411  1.3665
30836SOL     OW96423   1.056   5.924   8.438 -0.2409 -0.3164  0.2121
30836SOL    HW196424   0.962   5.917   8.424 -0.2489 -0.3812  0.3003
30836SOL    HW296425   1.092   5.938   8.350 -0.1100 -2.6443 -0.1699
30837SOL     OW96426   1.924   6.483   9.305 -0.3598 -0.8517  0.3845
30837SOL    HW196427   1.836   6.459   9.333 -0.6268 -2.0605 -1.3489
30837SOL    HW296428   1.914   6.568   9.264 -0.3783 -0.1679  1.7572
30838SOL     OW96429   9.882   4.351   1.934 -0.5042  0.1500 -0.6187
30838SOL    HW196430   9.824   4.301   1.877 -0.1950 -2.1220  0.9054
30838SOL    HW296431   9.956   4.292   1.950  0.9451  1.9490 -0.3888
30839SOL     OW96432   7.306   4.467   0.936 -0.0599  0.1215  0.2848
30839SOL    HW196433   7.277   4.558   0.941 -1.5367 -0.2860 -0.1409
30839SOL    HW296434   7.263   4.425   1.011  1.7801  0.0450  1.3476
30840SOL     OW96435   8.051   1.004   9.102  0.1579 -0.2602  0.6566
30840SOL    HW196436   8.098   0.951   9.037 -0.6281 -0.0698 -0.0820
30840SOL    HW296437   7.959   0.987   9.084 -0.1379  1.6908  0.1062
30841SOL     OW96438   5.000   5.784   3.440 -0.2091 -0.4066  0.4044
30841SOL    HW196439   5.083   5.771   3.486 -0.7820 -1.1484  1.2445
30841SOL    HW296440   4.942   5.718   3.476 -1.8130  1.4193  1.3506
30842SOL     OW96441   5.005   8.424   6.771  0.1958 -0.0932 -0.1835
30842SOL    HW196442   5.002   8.505   6.720 -1.1685 -0.5408 -0.8440
30842SOL    HW296443   4.999   8.453   6.862 -3.0411  0.4824 -0.4759
30843SOL     OW96444   0.925   0.274   8.832  0.3139 -0.3442 -0.3509
30843SOL    HW196445   1.018   0.259   8.848  0.1153  0.1293  1.5116
30843SOL    HW296446   0.918   0.369   8.820 -0.0189 -0.2802  0.3138
30844SOL     OW96447   2.797   8.527   7.010 -0.1792 -0.2195 -0.4108
30844SOL    HW196448   2.765   8.438   7.026 -0.0009 -0.1552  0.3341
30844SOL    HW296449   2.865   8.540   7.075  0.3331  0.1922 -1.0154
30845SOL     OW96450   3.331   5.528   1.895 -0.0915  0.0435 -0.4136
30845SOL    HW196451   3.388   5.597   1.859 -1.1480  1.8772  1.2218
30845SOL    HW296452   3.247   5.543   1.853 -0.8899  1.1658  1.4519
30846SOL     OW96453   8.666   7.852   8.992  0.5821  0.0666 -0.1434
30846SOL    HW196454   8.584   7.838   9.039  1.6446 -3.4797  0.9706
30846SOL    HW296455   8.645   7.836   8.900 -0.0928 -0.3020  0.0730
30847SOL     OW96456   5.942   2.324   0.492  0.0131 -0.4083  0.1060
30847SOL    HW196457   5.856   2.315   0.451  0.1292 -1.0932  0.0001
30847SOL    HW296458   5.962   2.417   0.486 -0.5751 -0.2960 -0.1698
30848SOL     OW96459   9.042   3.072   0.059  0.1555 -0.8435 -0.0325
30848SOL    HW196460   9.035   3.096   0.151  1.2187 -2.2389  0.4476
30848SOL    HW296461   9.083   3.149   0.018 -4.5928  1.9032 -0.4273
30849SOL     OW96462   5.602   7.938   2.388  0.1011  0.1796 -0.3129
30849SOL    HW196463   5.555   7.929   2.471 -1.0568 -3.1232 -1.1568
30849SOL    HW296464   5.688   7.899   2.405 -0.3970 -1.1947 -0.7631
30850SOL     OW96465   6.141   5.782   3.002 -0.1382  0.6516  0.1660
30850SOL    HW196466   6.171   5.873   3.002 -0.0003  0.6074 -0.0992
30850SOL    HW296467   6.050   5.787   2.973  0.7844  0.4298 -3.1590
30851SOL     OW96468   4.671   6.261   9.613  0.7185 -0.5011 -0.3946
30851SOL    HW196469   4.672   6.178   9.661 -0.5679 -1.1882 -1.4983
30851SOL    HW296470   4.722   6.243   9.534  1.5232  0.1744 -0.0516
30852SOL     OW96471   2.188   0.800   5.313  0.2738 -0.1217 -0.4523
30852SOL    HW196472   2.229   0.718   5.289 -1.3419 -0.7381 -1.2682
30852SOL    HW296473   2.254   0.867   5.296  2.1201 -1.3129  1.5217
30853SOL     OW96474   4.579   4.912   0.722  0.4365  0.4933 -0.3496
30853SOL    HW196475   4.618   4.861   0.650 -1.2230  2.0570 -2.4985
30853SOL    HW296476   4.577   5.002   0.689 -1.4446  1.0775  1.1922
30854SOL     OW96477   4.499   5.476   4.168  0.4416  0.2243 -0.7678
30854SOL    HW196478   4.476   5.389   4.137 -1.0355  0.0608  0.6649
30854SOL    HW296479   4.594   5.473   4.179  0.5159 -0.9002 -1.5700
30855SOL     OW96480   3.115   9.243   5.857 -0.1336 -1.2986  0.0989
30855SOL    HW196481   3.054   9.197   5.800 -0.3762 -0.2704 -0.4856
30855SOL    HW296482   3.083   9.225   5.945 -2.1867  0.4018 -0.2198
30856SOL     OW96483   7.750   0.137   7.835  0.0164  0.3236 -0.7593
30856SOL    HW196484   7.680   0.152   7.898  0.0666  0.0798 -0.6436
30856SOL    HW296485   7.720   0.180   7.755 -0.6631 -0.5216 -0.9739
30857SOL     OW96486   6.653   3.627   9.051  0.1360 -0.1849  1.0300
30857SOL    HW196487   6.559   3.615   9.037  0.1875  0.3565  0.1033
30857SOL    HW296488   6.693   3.604   8.967  0.7611  0.2605  1.1932
30858SOL     OW96489   8.874   1.552   1.729  0.1957  0.3868 -0.0213
30858SOL    HW196490   8.821   1.539   1.808  0.3019 -0.2679 -0.0509
30858SOL    HW296491   8.914   1.638   1.740 -0.2113  0.5226  0.3930
30859SOL     OW96492   1.784   0.413   5.404  0.2508  0.3552 -0.8124
30859SOL    HW196493   1.863   0.365   5.379 -0.6721 -2.1017  0.5958
30859SOL    HW296494   1.793   0.426   5.498 -1.0541 -0.1026 -0.5979
30860SOL     OW96495   5.911   5.933   8.027  0.4293  0.2459  0.0945
30860SOL    HW196496   5.932   5.997   7.960  1.7749  0.7517  0.9540
30860SOL    HW296497   5.848   5.977   8.084 -0.9007 -0.2675 -0.9118
30861SOL     OW96498   3.674  10.028   9.811  0.0453  0.0836  0.3330
30861SOL    HW196499   3.616  10.103   9.800 -0.6855 -0.4288  0.6563
30861SOL    HW296500   3.667   9.980   9.728  0.9111  0.6266 -0.0789
30862SOL     OW96501   6.129   5.324   0.931  0.1557  0.5623 -0.4874
30862SOL    HW196502   6.179   5.321   1.012  0.1366 -0.1445 -0.4920
30862SOL    HW296503   6.113   5.417   0.915 -0.3834  0.6821  0.6591
30863SOL     OW96504   0.576   2.005   7.023  0.6865  0.5427 -0.0242
30863SOL    HW196505   0.648   1.941   7.028  0.2478  0.1495  2.3257
30863SOL    HW296506   0.563   2.018   6.929  1.5654 -1.9366 -0.5772
30864SOL     OW96507   4.494   0.563   8.635 -0.2974 -0.0278 -0.1584
30864SOL    HW196508   4.406   0.532   8.657 -0.2832  0.2143  0.2490
30864SOL    HW296509   4.484   0.658   8.626 -0.1930 -0.0647 -0.6806
30865SOL     OW96510  10.201   6.792   5.200  0.4528  0.5914  0.2630
30865SOL    HW196511  10.256   6.757   5.269  1.7305  0.1349 -0.9378
30865SOL    HW296512  10.263   6.831   5.138 -0.4519 -0.8337 -1.6463
30866SOL     OW96513   7.531   7.940   7.610 -0.1038 -0.0405 -0.1060
30866SOL    HW196514   7.530   7.995   7.532 -0.2002 -0.1333 -0.1691
30866SOL    HW296515   7.566   7.998   7.679  0.1920 -0.0271 -0.2662
30867SOL     OW96516   8.480   5.641   6.045 -0.0355 -0.1036 -0.0236
30867SOL    HW196517   8.452   5.611   6.132  1.3109  1.2997  0.9530
30867SOL    HW296518   8.557   5.587   6.025 -0.3994 -0.4902 -0.4108
30868SOL     OW96519   3.964   7.009   4.536 -0.2592  0.1193  0.3639
30868SOL    HW196520   4.016   6.929   4.542  0.4749  0.6945  2.3562
30868SOL    HW296521   3.883   6.982   4.493  0.0170 -1.6677  0.9030
30869SOL     OW96522   9.378   9.377   7.305 -0.2415 -0.5540  0.2022
30869SOL    HW196523   9.293   9.373   7.349 -0.9883  0.4122 -1.0957
30869SOL    HW296524   9.427   9.443   7.355 -0.3063 -0.9792  0.8418
30870SOL     OW96525   9.061   8.168   8.508 -0.4985 -0.1588 -0.4586
30870SOL    HW196526   9.116   8.246   8.500 -2.2126  1.1447 -0.0559
30870SOL    HW296527   9.117   8.104   8.552  0.1597  1.6966  1.5706
30871SOL     OW96528   1.808   2.225   3.931 -0.1703 -0.9153  0.1969
30871SOL    HW196529   1.768   2.153   3.882  0.1871 -0.3135 -1.0125
30871SOL    HW296530   1.737   2.263   3.982 -0.9497 -0.4534 -1.2015
30872SOL     OW96531   0.115   6.256   2.796  0.6428  0.0810 -0.2644
30872SOL    HW196532   0.141   6.308   2.721 -2.0755  1.7121 -0.2085
30872SOL    HW296533   0.043   6.201   2.764  0.1786 -0.0050  0.8509
30873SOL     OW96534   8.965   6.031   2.718  0.0595 -0.5398 -0.1033
30873SOL    HW196535   8.964   6.106   2.660 -0.5617  1.1485  1.9531
30873SOL    HW296536   9.053   5.994   2.709  0.7284  1.0679 -0.4353
30874SOL     OW96537   9.285   1.848   9.015 -0.1822  0.1477  0.3442
30874SOL    HW196538   9.323   1.918   8.962 -1.7186  1.3490  0.7512
30874SOL    HW296539   9.222   1.806   8.957 -0.8800  0.5822  0.7677
30875SOL     OW96540   0.709   6.447   1.543 -0.1066  0.0358 -0.1089
30875SOL    HW196541   0.738   6.362   1.510 -1.4064 -1.0322  1.2803
30875SOL    HW296542   0.625   6.427   1.586  0.3687  1.6982  1.7169
30876SOL     OW96543   7.622   4.266   5.898 -0.0449 -0.0119 -0.3854
30876SOL    HW196544   7.535   4.283   5.934  0.3531  1.5365 -0.0749
30876SOL    HW296545   7.646   4.347   5.852  2.1377  0.5322  1.4849
30877SOL     OW96546   4.148   4.359   7.812  0.3743  0.7197 -0.4012
30877SOL    HW196547   4.103   4.427   7.862  1.3396  2.5570 -1.8981
30877SOL    HW296548   4.120   4.372   7.722  1.9041  0.2597 -0.9790
30878SOL     OW96549   2.237   1.537   4.803 -0.2190  0.1398 -0.0756
30878SOL    HW196550   2.258   1.573   4.717  1.3886 -0.5667 -0.0169
30878SOL    HW296551   2.243   1.612   4.862 -0.7082  0.5045 -0.4780
30879SOL     OW96552   3.281   1.155   2.318 -0.1678  0.4749 -0.2298
30879SOL    HW196553   3.313   1.066   2.304  1.6186  0.9093  0.7435
30879SOL    HW296554   3.284   1.167   2.413 -1.6333  1.1690 -0.2323
30880SOL     OW96555   6.118   9.511   6.114 -0.3349  0.3151 -0.1826
30880SOL    HW196556   6.073   9.538   6.194 -1.6482 -0.5822 -0.5862
30880SOL    HW296557   6.199   9.470   6.145 -1.6853 -1.7556  0.8560
30881SOL     OW96558   0.172   7.394   7.610  0.3336 -0.0603  0.0906
30881SOL    HW196559   0.265   7.411   7.595  1.0298  0.4558  3.9465
30881SOL    HW296560   0.168   7.300   7.632 -0.4270 -0.5413 -1.9042
30882SOL     OW96561   2.556   7.562   6.296 -0.5055  0.2026 -0.1763
30882SOL    HW196562   2.599   7.643   6.269 -1.0831  0.5081 -0.1872
30882SOL    HW296563   2.582   7.498   6.229 -0.5329  0.5254 -0.4988
30883SOL     OW96564   4.362   3.094   3.712 -0.0461 -0.4378 -0.2368
30883SOL    HW196565   4.404   3.009   3.707  1.8806  0.5217 -1.3547
30883SOL    HW296566   4.340   3.116   3.622 -0.5676  0.2369  0.0413
30884SOL     OW96567   2.977   1.162   0.978  0.1450 -0.0627 -0.2980
30884SOL    HW196568   3.022   1.110   1.044 -2.3715 -0.5935  1.1438
30884SOL    HW296569   2.975   1.107   0.900 -1.2871 -1.6448  0.7899
30885SOL     OW96570   7.869   6.165   0.717 -0.4544  0.1549  0.1992
30885SOL    HW196571   7.813   6.111   0.773  0.2061  1.4345  2.1674
30885SOL    HW296572   7.816   6.243   0.698 -0.4195  0.0338 -0.4216
30886SOL     OW96573   4.412   0.677   9.917  0.5028  0.1636 -0.0642
30886SOL    HW196574   4.393   0.590   9.881 -0.2962  1.1666 -2.3132
30886SOL    HW296575   4.478   0.713   9.858  2.8214  0.1596  2.3743
30887SOL     OW96576   4.566   9.722   0.746 -0.3686  0.3496 -0.3052
30887SOL    HW196577   4.607   9.807   0.729 -2.0910  1.1410 -0.7595
30887SOL    HW296578   4.574   9.674   0.663  1.8217 -0.5350  0.3425
30888SOL     OW96579   5.549   1.170   5.708 -0.9340 -0.4632  0.4674
30888SOL    HW196580   5.607   1.169   5.784 -1.2201  0.7986  0.7235
30888SOL    HW296581   5.598   1.217   5.641 -1.8866  1.2902  0.9249
30889SOL     OW96582   6.787   8.603   5.947 -0.0931 -0.0458 -0.1160
30889SOL    HW196583   6.758   8.571   6.032 -0.1095  0.9319  0.2581
30889SOL    HW296584   6.882   8.611   5.955 -0.1401  0.4662 -0.0355
30890SOL     OW96585   9.105   7.674   4.324 -0.3798 -0.0491  0.1055
30890SOL    HW196586   9.187   7.625   4.324  0.4586  1.3289  0.2701
30890SOL    HW296587   9.052   7.632   4.255  0.0426 -1.5925  0.6811
30891SOL     OW96588   7.714   4.423   6.965 -0.2918 -0.2432  0.1857
30891SOL    HW196589   7.667   4.402   7.045  0.0061  0.9682  0.7101
30891SOL    HW296590   7.711   4.519   6.960  1.2551 -0.1816 -0.2780
30892SOL     OW96591   3.236   8.554   3.453  0.3335 -0.2646  0.6474
30892SOL    HW196592   3.294   8.487   3.489  0.4703 -0.0579  0.8222
30892SOL    HW296593   3.218   8.526   3.364  1.6403  0.2404  0.1894
30893SOL     OW96594   3.106   6.065   2.288 -0.2903  0.5228  0.1932
30893SOL    HW196595   3.037   6.049   2.353  0.2102  0.5607  0.7364
30893SOL    HW296596   3.152   5.981   2.281  0.5159  0.9042  0.8996
30894SOL     OW96597   5.195   0.861   2.902 -0.1797  0.5902  0.1191
30894SOL    HW196598   5.238   0.829   2.823  1.0016  0.2646  0.8645
30894SOL    HW296599   5.117   0.906   2.870 -0.9910 -1.5198 -1.0750
30895SOL     OW96600   8.521   7.203   1.419  0.6532  0.1167  0.0598
30895SOL    HW196601   8.544   7.262   1.348 -1.2901  2.1626  1.0293
30895SOL    HW296602   8.496   7.121   1.376  1.5153  0.6054 -1.4258
30896SOL     OW96603   7.166   0.951   5.360 -0.0391  0.2316  0.1790
30896SOL    HW196604   7.232   0.962   5.291  0.7260 -0.2784  0.8027
30896SOL    HW296605   7.214   0.910   5.432 -0.4678  2.0744  1.5743
30897SOL     OW96606   0.703   0.704   3.557  0.1500 -0.1608  0.1399
30897SOL    HW196607   0.797   0.720   3.556  0.1758 -0.2667  0.7203
30897SOL    HW296608   0.692   0.623   3.506  0.2767  0.3039 -0.6466
30898SOL     OW96609   5.006   0.232   3.869 -0.2084 -0.3141  0.2110
30898SOL    HW196610   5.065   0.227   3.944  2.1856 -1.5574 -1.6393
30898SOL    HW296611   5.012   0.323   3.839  0.3825 -0.3077  0.3456
30899SOL     OW96612   4.630   4.483  10.017  0.6484 -0.2721 -0.0928
30899SOL    HW196613   4.577   4.474   9.938  0.1210 -1.0726  0.3297
30899SOL    HW296614   4.719   4.495   9.985  0.1962  1.3543 -0.8153
30900SOL     OW96615   3.805   6.108   0.914  0.1808 -0.3539 -0.3909
30900SOL    HW196616   3.711   6.108   0.933 -0.1454 -0.0006 -1.8463
30900SOL    HW296617   3.827   6.015   0.901  0.0963 -0.4583  0.1824
30901SOL     OW96618   5.613   2.483   9.736  0.3972  0.1229 -0.8184
30901SOL    HW196619   5.677   2.436   9.681 -1.0534 -1.7248 -1.0554
30901SOL    HW296620   5.564   2.536   9.674 -0.5311 -1.1386 -1.2161
30902SOL     OW96621   6.119   9.513   9.959 -0.2703  0.5187  0.2476
30902SOL    HW196622   6.125   9.449  10.030  1.6445  0.4158  0.0420
30902SOL    HW296623   6.111   9.597  10.004 -1.7849  0.2654  0.5215
30903SOL     OW96624   8.913   1.361   3.497  0.1913 -0.4314  0.1437
30903SOL    HW196625   8.947   1.303   3.429  0.5988  0.2713 -0.2618
30903SOL    HW296626   8.979   1.430   3.506 -1.0618  0.9507 -0.6502
30904SOL     OW96627   5.251   3.752   6.341  0.1704  0.2427  0.1926
30904SOL    HW196628   5.281   3.678   6.395 -1.5177 -0.6794 -0.0692
30904SOL    HW296629   5.321   3.816   6.348 -0.2702  0.5249  4.1256
30905SOL     OW96630   6.222   9.981   6.745  0.2165 -0.0807  0.6472
30905SOL    HW196631   6.132  10.000   6.718  0.0481  0.2960  1.4398
30905SOL    HW296632   6.277  10.033   6.686 -0.0818 -0.3449  0.1363
30906SOL     OW96633   9.345   4.597   2.294 -0.3652 -0.4399 -0.3871
30906SOL    HW196634   9.320   4.606   2.202 -2.3964 -0.9317  0.0585
30906SOL    HW296635   9.262   4.594   2.341  0.6359  0.1473  1.5146
30907SOL     OW96636   0.373   8.084   4.039  0.5167  0.1531  0.1203
30907SOL    HW196637   0.357   8.077   3.945 -2.8581  0.1829  0.5647
30907SOL    HW296638   0.329   8.165   4.065 -0.2094 -0.7680  1.9717
30908SOL     OW96639   0.641   7.059   2.317  0.2014  1.0710 -0.4203
30908SOL    HW196640   0.665   6.967   2.334 -1.5256  0.3045 -1.8153
30908SOL    HW296641   0.723   7.107   2.328  1.6487 -0.9295 -1.6715
30909SOL     OW96642   2.981   6.743   1.156 -0.0724  0.4890 -0.5033
30909SOL    HW196643   2.983   6.787   1.240 -0.5952  0.4636 -0.4767
30909SOL    HW296644   3.051   6.785   1.105  0.9544 -0.2021  0.2810
30910SOL     OW96645   8.752   0.192   1.773  0.1517 -0.5297  0.6528
30910SOL    HW196646   8.690   0.263   1.788  1.0816  0.1206  1.5551
30910SOL    HW296647   8.772   0.158   1.860 -0.0538 -1.7237  0.2546
30911SOL     OW96648   9.381   2.376   0.415 -0.3744 -0.2321 -0.5201
30911SOL    HW196649   9.313   2.333   0.468  0.5390 -0.9567  0.0895
30911SOL    HW296650   9.354   2.360   0.324 -1.3751  0.0829 -0.2887
30912SOL     OW96651   3.358   0.174   5.788  0.9073 -0.4624 -0.4683
30912SOL    HW196652   3.285   0.132   5.741  1.7488  0.1266 -2.4223
30912SOL    HW296653   3.323   0.192   5.875 -0.6873 -1.8050 -0.7795
30913SOL     OW96654   1.981   0.791   8.787 -0.0398 -0.3313 -1.2482
30913SOL    HW196655   2.032   0.868   8.810  1.1556 -1.2509 -0.6985
30913SOL    HW296656   1.895   0.806   8.826  0.0842  0.8340 -1.3929
30914SOL     OW96657   0.946   8.629   2.234  0.4021  0.7389 -0.0608
30914SOL    HW196658   0.979   8.646   2.146 -0.2766  0.1109 -0.4485
30914SOL    HW296659   1.002   8.682   2.291  2.0487 -0.2492 -0.6856
30915SOL     OW96660   6.397   6.874   5.071  0.0357  0.1475 -0.0754
30915SOL    HW196661   6.422   6.926   4.995  1.6584 -1.9614 -1.0731
30915SOL    HW296662   6.410   6.934   5.145  2.5923  0.9905 -1.0883
30916SOL     OW96663   1.187   9.373   5.107 -0.1826  0.4929  0.1768
30916SOL    HW196664   1.142   9.289   5.110  1.4297 -0.4274 -0.1307
30916SOL    HW296665   1.174   9.405   5.018 -0.5264  0.4076  0.1964
30917SOL     OW96666   2.487   9.636   5.871  0.0496 -0.2476 -0.1181
30917SOL    HW196667   2.478   9.690   5.792 -0.2227 -1.1829 -0.7382
30917SOL    HW296668   2.421   9.567   5.861  0.6935 -0.9614  0.4484
30918SOL     OW96669   7.084   8.619   2.105  0.4943 -0.0504 -0.0701
30918SOL    HW196670   7.020   8.600   2.173  0.7498 -2.2390 -0.3472
30918SOL    HW296671   7.044   8.586   2.025  1.0187  0.6614 -0.6276
30919SOL     OW96672   3.670  10.126   7.129  0.0651  0.1436  0.6505
30919SOL    HW196673   3.586  10.113   7.085 -0.1820  0.6786  0.9532
30919SOL    HW296674   3.694  10.040   7.163 -0.0080 -0.1618 -0.0580
30920SOL     OW96675   8.394   6.568   6.755 -0.3393 -0.0520  0.2142
30920SOL    HW196676   8.427   6.625   6.685  2.3859  0.9193  2.1400
30920SOL    HW296677   8.371   6.627   6.826  2.3260 -1.2012  2.1840
30921SOL     OW96678   2.041   3.522   4.287  0.0624 -0.1483  0.0958
30921SOL    HW196679   2.130   3.503   4.255  1.0860  1.7880  1.5593
30921SOL    HW296680   1.986   3.520   4.209  1.6615  0.0610 -1.0848
30922SOL     OW96681   6.619   2.399   3.117 -0.3480  0.3497 -0.1458
30922SOL    HW196682   6.652   2.475   3.164  0.7762  0.0105 -0.3408
30922SOL    HW296683   6.540   2.373   3.164 -1.0512  1.9359 -0.3948
30923SOL     OW96684   5.173   1.131   3.935  0.1763  0.2506  0.5756
30923SOL    HW196685   5.185   1.175   3.851 -2.4233  2.5084  1.2414
30923SOL    HW296686   5.112   1.060   3.916  0.4215  0.0772  0.4118
30924SOL     OW96687   9.928   8.584   1.647 -0.2240 -0.2859  0.3266
30924SOL    HW196688   9.964   8.659   1.694  0.5328 -0.2259 -0.3136
30924SOL    HW296689   9.948   8.603   1.555  1.2563 -1.9104  0.2638
30925SOL     OW96690   3.573   1.220   0.624  0.3996 -0.1245 -0.2014
30925SOL    HW196691   3.583   1.224   0.720  1.6081 -1.4343 -0.2376
30925SOL    HW296692   3.593   1.309   0.595 -0.3040  0.3717  0.7865
30926SOL     OW96693   4.748   6.489   2.983 -0.4354 -0.0746 -0.1331
30926SOL    HW196694   4.824   6.437   2.957  0.1430 -0.2595  1.8209
30926SOL    HW296695   4.777   6.540   3.058 -1.8865  0.7825 -0.1136
30927SOL     OW96696   1.655   2.641   2.816  0.1298  0.2566  0.3150
30927SOL    HW196697   1.750   2.647   2.807  0.2075 -0.9121  0.1451
30927SOL    HW296698   1.621   2.712   2.762  0.8859 -0.1258 -0.7028
30928SOL     OW96699   2.783   0.619   4.119  0.3003 -0.8850  0.2361
30928SOL    HW196700   2.696   0.577   4.117  0.1075 -0.7169  2.4997
30928SOL    HW296701   2.764   0.712   4.124  0.6619 -0.7514 -0.7431
30929SOL     OW96702   0.933   6.832   0.734  0.3134 -0.3246 -0.6722
30929SOL    HW196703   0.989   6.842   0.811 -1.3303  1.1681  0.4387
30929SOL    HW296704   0.872   6.762   0.758 -0.3088  0.2571 -0.4846
30930SOL     OW96705   7.305   4.075   8.225 -0.0328  1.0273 -0.0409
30930SOL    HW196706   7.319   4.154   8.277  0.7409  1.6930 -1.2240
30930SOL    HW296707   7.375   4.015   8.252  0.2988  1.3281 -0.2274
30931SOL     OW96708   7.832   4.304   2.740 -0.1319  0.1057 -0.2024
30931SOL    HW196709   7.829   4.258   2.656 -4.0254 -0.7205  0.1827
30931SOL    HW296710   7.785   4.386   2.724  0.2852  0.5700  0.8761
30932SOL     OW96711   3.754   3.639   7.104  0.4985  0.1179  0.5308
30932SOL    HW196712   3.730   3.574   7.170 -0.3695  0.2422  0.3477
30932SOL    HW296713   3.725   3.723   7.140 -3.6112 -0.1373 -1.5249
30933SOL     OW96714   4.066   0.435   9.419 -0.6571 -0.0281  0.1603
30933SOL    HW196715   3.990   0.475   9.461 -1.3166 -0.1017 -0.9191
30933SOL    HW296716   4.032   0.355   9.380 -0.9388  1.5823 -3.3419
30934SOL     OW96717   4.419   3.891   5.157 -0.2335 -0.8290 -0.1957
30934SOL    HW196718   4.380   3.976   5.180 -1.0507 -1.1317 -0.4133
30934SOL    HW296719   4.513   3.909   5.149 -0.4414  0.1349 -0.6033
30935SOL     OW96720   9.616   7.161   5.865 -0.3091 -0.3794 -0.6456
30935SOL    HW196721   9.649   7.229   5.807 -0.0785  0.4823  0.4789
30935SOL    HW296722   9.603   7.204   5.949  1.2684 -2.0394  0.5232
30936SOL     OW96723   8.445   3.190   7.528  0.0560  0.3519  0.4357
30936SOL    HW196724   8.389   3.120   7.561 -0.2975 -0.5671 -1.9148
30936SOL    HW296725   8.409   3.210   7.442  2.8349  0.2870 -0.8335
30937SOL     OW96726   3.798   0.177   6.116 -0.4913  0.7656 -0.0314
30937SOL    HW196727   3.809   0.272   6.120 -1.0431  0.9243 -1.7172
30937SOL    HW296728   3.784   0.158   6.024 -2.6833 -0.6839  0.5126
30938SOL     OW96729   6.524   1.164   5.505 -0.3712  0.5111  0.1031
30938SOL    HW196730   6.614   1.155   5.535 -0.1874 -0.6493 -0.7025
30938SOL    HW296731   6.531   1.186   5.412 -0.8719 -1.3637 -0.4235
30939SOL     OW96732   9.997   7.607   6.727  0.3544  0.0546 -0.0880
30939SOL    HW196733   9.939   7.668   6.772  0.1997  1.1812 -1.7483
30939SOL    HW296734  10.081   7.653   6.720  0.1726  0.2168 -1.5678
30940SOL     OW96735   0.642   7.172   3.097  0.0699 -0.1689  0.1393
30940SOL    HW196736   0.622   7.127   3.179 -0.8977 -0.6221 -0.3390
30940SOL    HW296737   0.608   7.115   3.029 -1.1928  1.2530 -0.4815
30941SOL     OW96738   3.578   9.500   3.119  0.1126 -0.2549  0.3233
30941SOL    HW196739   3.580   9.407   3.140  2.1695  0.1678  2.3257
30941SOL    HW296740   3.537   9.541   3.195  2.1104  0.7287  0.9411
30942SOL     OW96741   8.266   3.014   7.623 -0.1727 -0.2105 -0.4843
30942SOL    HW196742   8.232   3.100   7.650  1.6891 -0.0772  1.7733
30942SOL    HW296743   8.252   2.958   7.699 -0.3829 -1.6445 -1.5436
30943SOL     OW96744   9.792   3.257   0.645  0.2521 -0.1099 -0.7031
30943SOL    HW196745   9.748   3.243   0.728 -0.7848  1.4755 -0.9340
30943SOL    HW296746   9.884   3.271   0.669 -0.2012  1.4074  0.3332
30944SOL     OW96747   7.553   9.245   1.324 -0.2919  0.7786  0.4135
30944SOL    HW196748   7.559   9.153   1.351  0.2697  0.6981  0.0341
30944SOL    HW296749   7.472   9.250   1.274  0.3777  0.1535 -0.7942
30945SOL     OW96750   7.949   4.302   3.006  0.0610 -0.4554 -0.3509
30945SOL    HW196751   7.864   4.315   3.047  0.6611  0.3428  0.6907
30945SOL    HW296752   7.929   4.281   2.915 -1.2408  0.0454 -0.1974
30946SOL     OW96753   5.049   3.407   9.003 -0.0467 -0.5460 -0.5081
30946SOL    HW196754   4.986   3.446   8.942 -0.1210 -0.5913 -0.4600
30946SOL    HW296755   4.995   3.368   9.072  0.0593  1.3491  0.7438
30947SOL     OW96756   4.599   4.655   1.157  0.0374 -0.0900  0.3268
30947SOL    HW196757   4.553   4.720   1.103 -0.2512  1.1762  1.9923
30947SOL    HW296758   4.535   4.586   1.171 -0.7590  0.7772  1.0959
30948SOL     OW96759   7.860   1.245   0.488  0.5944 -0.3943  0.2357
30948SOL    HW196760   7.783   1.232   0.432  2.1448 -1.8561 -1.7029
30948SOL    HW296761   7.829   1.222   0.576 -0.9945 -1.7821 -0.6135
30949SOL     OW96762   2.064   1.112   2.105  0.5327 -0.1059  0.1402
30949SOL    HW196763   2.048   1.032   2.055  2.5415  0.2565 -1.1821
30949SOL    HW296764   1.992   1.116   2.168  1.5126 -4.1185  1.7812
30950SOL     OW96765   4.426   1.598   7.646 -0.2781 -0.0164 -0.5669
30950SOL    HW196766   4.333   1.617   7.637 -0.7659  0.0716  3.1748
30950SOL    HW296767   4.430   1.503   7.654  0.1134 -0.1162 -1.8317
30951SOL     OW96768   3.485   4.315   9.734  0.2877  0.0608  0.3892
30951SOL    HW196769   3.580   4.316   9.744  0.4139 -0.4722 -0.5839
30951SOL    HW296770   3.466   4.386   9.673  0.0796  0.0993  0.4986
30952SOL     OW96771   0.277   3.063   4.259  0.1553  0.6626  0.2904
30952SOL    HW196772   0.360   3.087   4.301 -0.4713  2.2017  0.7428
30952SOL    HW296773   0.256   2.977   4.294 -0.3579  1.8938  3.2395
30953SOL     OW96774   8.834   4.562   2.873  0.3506 -0.3742  0.7300
30953SOL    HW196775   8.751   4.542   2.829  0.7894 -3.5729  1.0990
30953SOL    HW296776   8.808   4.598   2.957 -0.6364 -0.3160  0.4153
30954SOL     OW96777   1.256   1.699   9.466  0.5432 -0.0776  0.2120
30954SOL    HW196778   1.225   1.721   9.378 -0.8982 -1.5641  0.2979
30954SOL    HW296779   1.302   1.615   9.455  0.3534 -0.2720  0.8684
30955SOL     OW96780   2.414   1.974   5.980  0.0859  0.5846  0.0408
30955SOL    HW196781   2.431   1.934   6.066 -0.8915  0.6760  0.2935
30955SOL    HW296782   2.404   2.067   5.999  1.3048  0.8109 -0.3925
30956SOL     OW96783   6.454   4.521   3.162 -0.2519 -0.1912  0.4041
30956SOL    HW196784   6.499   4.437   3.171 -0.7923 -0.4579  0.6577
30956SOL    HW296785   6.363   4.497   3.141 -0.5068  0.3158  0.9006
30957SOL     OW96786   2.729   2.998   4.480  0.9486  0.4923  0.1144
30957SOL    HW196787   2.762   2.925   4.427 -0.0795  0.5555 -0.6389
30957SOL    HW296788   2.698   3.062   4.416 -0.5860  0.4497  0.7710
30958SOL     OW96789   7.270   1.184   7.600  0.0803  0.4805  0.3020
30958SOL    HW196790   7.333   1.219   7.537  0.7981  0.5925  1.0644
30958SOL    HW296791   7.192   1.165   7.548  0.4827  1.0443 -0.5266
30959SOL     OW96792   5.415   4.104   6.604 -0.3442  0.4094  0.0587
30959SOL    HW196793   5.342   4.117   6.544 -1.2535  0.9550  1.2447
30959SOL    HW296794   5.413   4.179   6.663  1.2893  0.5213  0.0330
30960SOL     OW96795   2.315   1.754  10.029  0.0714  0.3119  0.3486
30960SOL    HW196796   2.271   1.729   9.948  2.1361 -0.2528 -0.6481
30960SOL    HW296797   2.320   1.673  10.080  2.2593 -0.3006 -0.7130
30961SOL     OW96798   7.152   7.113   1.079  0.2213  0.8577 -0.3628
30961SOL    HW196799   7.068   7.075   1.107  0.5775 -0.0903 -0.5329
30961SOL    HW296800   7.198   7.132   1.161 -0.0255  1.0725 -0.2731
30962SOL     OW96801   4.965   6.723   1.251 -0.9689  0.4613 -0.0417
30962SOL    HW196802   5.051   6.703   1.215 -1.3564  0.7138 -1.1396
30962SOL    HW296803   4.962   6.675   1.334 -1.2210 -2.7915 -1.7529
30963SOL     OW96804   4.562   4.649   5.808 -0.1545  0.3159  0.4970
30963SOL    HW196805   4.555   4.558   5.779 -0.3785  0.5451 -0.1912
30963SOL    HW296806   4.576   4.643   5.903 -1.3305 -0.4137  0.6488
30964SOL     OW96807   9.834   7.335   3.755  0.1168  0.0771  0.4507
30964SOL    HW196808   9.890   7.286   3.694  0.3873  0.7786  0.1146
30964SOL    HW296809   9.895   7.389   3.805 -0.0582 -0.8904  1.7315
30965SOL     OW96810   8.394   7.241   6.634  0.0595  1.0157  0.2603
30965SOL    HW196811   8.303   7.213   6.637 -0.2561  1.3653 -2.7056
30965SOL    HW296812   8.434   7.204   6.712 -2.4243  0.1650  1.2112
30966SOL     OW96813   7.686  10.024   8.902  0.0079 -0.4069  0.4618
30966SOL    HW196814   7.659  10.060   8.986  1.4572  1.0364  0.3430
30966SOL    HW296815   7.657  10.088   8.837 -1.1674 -1.5381 -0.2034
30967SOL     OW96816   7.408  10.169   4.507 -0.5724  0.0848 -0.3271
30967SOL    HW196817   7.345  10.236   4.533  0.2811  0.9125 -0.3350
30967SOL    HW296818   7.355  10.091   4.490 -1.6123  0.8171 -0.5307
30968SOL     OW96819   4.272   1.880   8.246 -0.0443 -0.0608 -0.0875
30968SOL    HW196820   4.232   1.907   8.163  0.5300  1.1388 -0.0042
30968SOL    HW296821   4.319   1.799   8.224  0.1940  0.2973 -0.9799
30969SOL     OW96822   8.868   3.797   1.206  0.3934 -0.4919 -0.2085
30969SOL    HW196823   8.797   3.785   1.143  0.8615 -0.4514 -0.7483
30969SOL    HW296824   8.824   3.794   1.291 -0.2991 -0.1932 -0.5397
30970SOL     OW96825   8.079   3.625   8.970  0.0661  0.5478 -0.0931
30970SOL    HW196826   8.141   3.585   9.031 -0.5225  1.5554  1.2145
30970SOL    HW296827   8.014   3.557   8.954  0.6418  0.0161 -0.2118
30971SOL     OW96828   8.883   5.931   3.719 -0.6791  0.6320  0.3345
30971SOL    HW196829   8.838   6.007   3.755 -2.2701 -0.0060 -0.1926
30971SOL    HW296830   8.961   5.921   3.773 -0.4369  2.6106  0.4130
30972SOL     OW96831   7.442   9.533   8.834 -0.2761 -0.5788  0.1450
30972SOL    HW196832   7.406   9.479   8.764 -1.9498  2.2870 -1.3857
30972SOL    HW296833   7.369   9.546   8.894  0.6633 -1.5671  1.5598
30973SOL     OW96834   5.475   3.110   3.576 -0.4705  0.9095  0.4701
30973SOL    HW196835   5.563   3.071   3.580 -0.0646  1.8331  1.0961
30973SOL    HW296836   5.451   3.106   3.484  0.2112  0.5885  0.3006
30974SOL     OW96837   1.739   8.190   8.846  0.0932 -0.5141  0.0918
30974SOL    HW196838   1.821   8.211   8.801 -0.2037  0.4440 -0.0165
30974SOL    HW296839   1.672   8.234   8.795 -0.1626  1.5974  2.0618
30975SOL     OW96840   3.397   6.120   8.864 -0.5992 -0.2791 -0.6970
30975SOL    HW196841   3.422   6.110   8.955 -0.1491 -0.9953 -0.8920
30975SOL    HW296842   3.407   6.213   8.846  0.1078 -0.2640 -0.2469
30976SOL     OW96843   5.737   9.581   4.118 -0.1411 -0.0969  0.2676
30976SOL    HW196844   5.779   9.599   4.203 -0.0771  0.6400  0.0814
30976SOL    HW296845   5.743   9.486   4.109 -2.0782 -0.4806  2.0990
30977SOL     OW96846   3.117   9.361   6.245  0.7179  0.3275 -0.4262
30977SOL    HW196847   3.208   9.387   6.257  1.0727 -0.1834 -1.8787
30977SOL    HW296848   3.081   9.427   6.185  0.4777 -0.1814 -0.8452
30978SOL     OW96849   4.866  10.047   4.103  0.2593 -0.1637 -0.4521
30978SOL    HW196850   4.886  10.137   4.131  1.0612 -0.2864 -0.6012
30978SOL    HW296851   4.799  10.017   4.164 -0.9551  0.9732 -1.1680
30979SOL     OW96852   3.352   0.689   0.873  0.1553  0.4438 -0.9973
30979SOL    HW196853   3.439   0.663   0.844  0.5305  1.3078 -0.6716
30979SOL    HW296854   3.363   0.779   0.904 -0.0683 -0.5313  2.3238
30980SOL     OW96855   5.086   8.959  10.039  0.3344  0.3024  0.6055
30980SOL    HW196856   5.063   9.047  10.009  0.6985 -0.3596 -1.8321
30980SOL    HW296857   5.015   8.934  10.098 -0.2423  1.8544  0.6126
30981SOL     OW96858   8.170   1.621   0.338  0.1307  0.1056  0.8981
30981SOL    HW196859   8.237   1.687   0.356  0.2712 -0.1754  1.4253
30981SOL    HW296860   8.099   1.669   0.297  0.1279  0.6218  1.5081
30982SOL     OW96861   9.625   2.154   7.867 -0.2404  0.0346 -0.5054
30982SOL    HW196862   9.618   2.071   7.913 -0.1256  0.4100  0.2073
30982SOL    HW296863   9.674   2.134   7.787 -0.0125 -0.5327 -0.2242
30983SOL     OW96864   9.918   1.866   7.331  0.7120  0.2954  0.1250
30983SOL    HW196865   9.825   1.886   7.321  0.8471  1.7971  1.5244
30983SOL    HW296866   9.932   1.789   7.276 -1.3141  0.1385 -0.2338
30984SOL     OW96867   7.782   7.299   0.087  0.1672 -0.2282 -0.4438
30984SOL    HW196868   7.780   7.226   0.149 -2.6465  1.1231  1.2721
30984SOL    HW296869   7.755   7.375   0.139  3.4228  2.2633 -2.0161
30985SOL     OW96870   8.607   1.846   2.687 -0.3592  0.3467 -0.3801
30985SOL    HW196871   8.662   1.919   2.716 -0.0393 -0.5937  1.5646
30985SOL    HW296872   8.518   1.881   2.691 -0.2942  0.4071  1.4789
30986SOL     OW96873   8.877   9.540   3.447 -0.6903 -0.2033  0.4140
30986SOL    HW196874   8.914   9.472   3.503  0.4002 -0.2077 -0.2863
30986SOL    HW296875   8.821   9.592   3.505  0.5867 -0.0703  1.5683
30987SOL     OW96876   1.984   3.918   5.084  0.0021  0.5406 -0.8058
30987SOL    HW196877   1.982   3.929   5.180 -1.7325 -1.7939 -0.5043
30987SOL    HW296878   1.906   3.965   5.053 -0.1699  0.1750 -0.9277
30988SOL     OW96879   4.690   7.749   1.680 -0.2062 -0.2136 -1.1391
30988SOL    HW196880   4.766   7.712   1.725  0.0377  2.6826  1.1584
30988SOL    HW296881   4.726   7.783   1.597  0.4734 -0.9897 -1.1771
30989SOL     OW96882   1.334   1.404   6.411  0.1609  0.1086 -0.3547
30989SOL    HW196883   1.419   1.448   6.420  0.3151 -0.2510  0.0086
30989SOL    HW296884   1.306   1.387   6.501 -0.5516  0.6894 -0.4563
30990SOL     OW96885   9.881   2.302   5.822  0.8248 -0.3533 -0.1022
30990SOL    HW196886   9.873   2.267   5.734 -0.1056  0.6239 -0.4213
30990SOL    HW296887   9.958   2.358   5.819 -1.4434  3.0632 -1.5553
30991SOL     OW96888   0.496   6.528   5.059  0.6194 -0.5330 -0.6071
30991SOL    HW196889   0.568   6.558   5.114 -1.1584  0.2887  1.3855
30991SOL    HW296890   0.482   6.437   5.085  1.2118 -0.8599 -1.3661
30992SOL     OW96891   1.849   7.966   3.025 -0.1878 -0.4341  0.0554
30992SOL    HW196892   1.871   7.920   2.944  0.4868 -0.3334  0.1803
30992SOL    HW296893   1.805   8.046   2.995  1.2776  0.2833 -0.2897
30993SOL     OW96894   5.675   5.169   1.277  0.6132 -0.3121  1.3403
30993SOL    HW196895   5.589   5.133   1.257  1.4539 -1.4167 -0.5498
30993SOL    HW296896   5.671   5.259   1.243  0.3947 -0.5460  0.7396
30994SOL     OW96897   3.740   8.987   4.294 -0.5843  0.3654 -0.1699
30994SOL    HW196898   3.652   9.024   4.300 -2.1124 -2.8920 -0.4109
30994SOL    HW296899   3.743   8.945   4.208  0.7697 -0.6104  0.3152
30995SOL     OW96900   1.511  10.049  10.032  0.5573 -0.1257 -0.5537
30995SOL    HW196901   1.565  10.112  10.079 -0.5014  1.5134 -1.4256
30995SOL    HW296902   1.573   9.998   9.980  1.3839  0.6936 -0.3980
30996SOL     OW96903   6.832   5.929   8.010  0.7377 -0.1163 -0.0996
30996SOL    HW196904   6.913   5.958   7.967  1.6926 -1.8619  0.4193
30996SOL    HW296905   6.861   5.868   8.078 -1.0126 -0.7928  0.1038
30997SOL     OW96906   5.958   9.426   5.682 -0.3891 -0.8827  0.3014
30997SOL    HW196907   6.019   9.371   5.634 -0.5658 -0.3820 -0.5187
30997SOL    HW296908   5.972   9.514   5.648 -1.0545 -0.6412  0.6218
30998SOL     OW96909   4.749   4.743   2.705  0.6916  0.1878 -0.0787
30998SOL    HW196910   4.723   4.751   2.614 -1.4656 -0.1363  0.4515
30998SOL    HW296911   4.742   4.650   2.724 -2.2074  0.5282  1.2067
30999SOL     OW96912   5.344   5.972   2.688 -0.2090 -0.6827 -0.1143
30999SOL    HW196913   5.438   5.984   2.692  0.0403 -2.4391  0.1204
30999SOL    HW296914   5.317   6.021   2.610  0.7757  0.4266  0.2270
31000SOL     OW96915   2.435   2.959   4.427  0.0814 -0.0798 -0.5389
31000SOL    HW196916   2.524   2.933   4.450  0.7139 -0.1257 -2.8138
31000SOL    HW296917   2.423   2.929   4.337 -3.3793 -2.9086  0.6205
31001SOL     OW96918   2.606   0.144   6.918  0.2233  0.0564 -0.5237
31001SOL    HW196919   2.558   0.225   6.936 -2.1428 -1.0888 -1.1852
31001SOL    HW296920   2.697   0.172   6.905 -0.7414  2.8304 -2.2725
31002SOL     OW96921   6.051   5.304   3.173  0.0417  0.3248 -0.1160
31002SOL    HW196922   6.087   5.299   3.262  0.4916  1.0183 -0.2504
31002SOL    HW296923   5.986   5.234   3.170  0.9017 -0.5294  0.3545
31003SOL     OW96924   3.192   9.635   2.788 -0.0418  0.1836 -0.0249
31003SOL    HW196925   3.281   9.618   2.820 -0.0653  0.3423  0.1248
31003SOL    HW296926   3.204   9.700   2.720 -0.0538  0.2727  0.0586
31004SOL     OW96927   8.600   8.694   1.259  0.0889  0.5461 -0.1291
31004SOL    HW196928   8.578   8.767   1.200  0.1812  0.8416  0.1998
31004SOL    HW296929   8.521   8.640   1.261  0.7613 -0.6243 -2.1975
31005SOL     OW96930   1.927   6.421   7.186  0.1891 -0.1087  0.3742
31005SOL    HW196931   1.867   6.473   7.240 -0.3181 -1.0294  0.7175
31005SOL    HW296932   1.944   6.476   7.109  0.8279  1.1704  1.4022
31006SOL     OW96933   4.384   7.465   7.537 -0.1143 -0.1989 -0.0600
31006SOL    HW196934   4.344   7.387   7.500 -0.2432 -1.7258  2.9679
31006SOL    HW296935   4.407   7.440   7.627  1.3954  2.7417  0.5023
31007SOL     OW96936   7.090   7.818   2.099 -0.3034  0.2282 -0.0971
31007SOL    HW196937   7.076   7.808   2.005 -0.0604  0.1261 -0.1258
31007SOL    HW296938   7.018   7.873   2.129  0.3794  1.4333 -0.5799
31008SOL     OW96939   5.449   9.745   8.621  0.1768  0.4601  0.0396
31008SOL    HW196940   5.455   9.838   8.601 -0.2022  0.3442 -0.6332
31008SOL    HW296941   5.505   9.734   8.698  0.8441  1.1081 -0.3347
31009SOL     OW96942   9.328   8.187   3.658 -0.1384  0.4834 -0.3696
31009SOL    HW196943   9.405   8.241   3.646  0.1970  0.1602  0.2578
31009SOL    HW296944   9.355   8.120   3.721 -0.4686 -0.5648 -1.3034
31010SOL     OW96945   3.488   5.538   3.031  0.5394  0.2406  0.1076
31010SOL    HW196946   3.459   5.448   3.041  2.6935 -0.4883  0.2929
31010SOL    HW296947   3.510   5.566   3.120 -1.1115  1.3658  0.2140
31011SOL     OW96948   4.967   1.227   7.041 -0.0910 -0.0658  0.2463
31011SOL    HW196949   5.050   1.266   7.011  0.6654 -1.7311  0.0853
31011SOL    HW296950   4.933   1.181   6.964 -2.4843  2.5782 -0.4471
31012SOL     OW96951   2.268   7.232   8.885 -0.2803  0.1704  0.2245
31012SOL    HW196952   2.279   7.150   8.932 -0.6679  0.3117  0.5585
31012SOL    HW296953   2.308   7.298   8.942 -0.1185  0.2419  0.0317
31013SOL     OW96954   7.345   5.361   4.009 -0.0898 -0.6540 -0.1521
31013SOL    HW196955   7.332   5.266   4.009 -1.0803 -0.5293  0.1715
31013SOL    HW296956   7.310   5.390   4.093 -0.3921  0.0717 -0.5232
31014SOL     OW96957   0.200   0.735   6.622  0.0091  0.1193 -0.1250
31014SOL    HW196958   0.219   0.826   6.598  1.7761  0.5494  2.4892
31014SOL    HW296959   0.285   0.692   6.622 -0.6484 -1.2177 -0.0966
31015SOL     OW96960   2.018   8.850   1.181 -0.0618 -0.2783 -0.2733
31015SOL    HW196961   1.959   8.831   1.108 -1.2922  2.0129  0.0348
31015SOL    HW296962   1.967   8.906   1.239  2.4473  2.0088 -0.0871
31016SOL     OW96963   4.071   6.598   7.055 -0.0803 -0.6862  0.2159
31016SOL    HW196964   4.071   6.676   7.110 -0.9477 -1.1232  0.8419
31016SOL    HW296965   3.978   6.581   7.037  0.1594  0.5014 -2.9118
31017SOL     OW96966   7.932   6.958   1.841  0.0695  0.2370  0.0363
31017SOL    HW196967   7.994   7.026   1.866  0.1982  0.5878 -1.1994
31017SOL    HW296968   7.846   6.997   1.854  0.0433 -0.4134  2.2264
31018SOL     OW96969   2.866   7.944   9.020 -0.2478  0.0206  0.1668
31018SOL    HW196970   2.900   7.952   9.109  2.1297 -0.1285 -0.6516
31018SOL    HW296971   2.884   7.853   8.996 -1.3160 -0.0813 -0.3329
31019SOL     OW96972   4.720   2.519   1.809 -0.2710  0.1340  0.5058
31019SOL    HW196973   4.713   2.430   1.843 -1.8501 -0.6236 -1.6500
31019SOL    HW296974   4.736   2.573   1.887 -2.4712 -1.6384  2.2999
31020SOL     OW96975   0.900   2.890   6.546 -0.0349  0.2436  0.1685
31020SOL    HW196976   0.875   2.959   6.607  0.5282  0.7663 -0.1810
31020SOL    HW296977   0.819   2.868   6.500 -0.1164  1.0519 -0.0909
31021SOL     OW96978   7.710   6.877   2.551 -0.6084 -0.0273  0.5084
31021SOL    HW196979   7.791   6.926   2.537 -0.0060 -1.3464 -0.8853
31021SOL    HW296980   7.692   6.886   2.645  1.7012 -0.5441  1.0479
31022SOL     OW96981   0.556   9.895   8.939  0.0409  0.1966 -0.1264
31022SOL    HW196982   0.570   9.836   9.013 -1.5931  1.0417  0.9050
31022SOL    HW296983   0.499   9.847   8.879 -0.7177  0.4458  0.3832
31023SOL     OW96984   8.641   7.466   8.196 -0.1123  0.5068 -0.4124
31023SOL    HW196985   8.721   7.413   8.191 -0.1049  0.5889 -1.3114
31023SOL    HW296986   8.665   7.550   8.158 -0.5274  0.6534 -0.3554
31024SOL     OW96987   1.784   8.328   7.517  0.1349 -0.3614 -0.5220
31024SOL    HW196988   1.711   8.305   7.575 -0.4588 -0.4240 -1.2787
31024SOL    HW296989   1.760   8.413   7.481  0.3752 -0.4365 -0.8639
31025SOL     OW96990   2.829   5.542   8.198 -0.3336  0.0444  0.5440
31025SOL    HW196991   2.820   5.447   8.211 -0.1718 -0.0873 -0.2940
31025SOL    HW296992   2.769   5.580   8.263 -1.4802 -0.6628 -0.0528
31026SOL     OW96993   4.181   0.730   6.681  0.0884  0.2904  0.0436
31026SOL    HW196994   4.135   0.659   6.638 -0.4576  0.9850 -0.5482
31026SOL    HW296995   4.191   0.702   6.772  1.8180 -1.4822 -0.6278
31027SOL     OW96996   8.080   3.734   4.041 -0.9465 -0.0358  0.3462
31027SOL    HW196997   8.102   3.653   3.996 -1.0117  1.1702 -2.0316
31027SOL    HW296998   8.164   3.781   4.047 -1.1788  0.4055  0.1903
31028SOL     OW96999   5.746   1.331   2.831  0.2559  0.0091  0.1839
31028SOL    HW197000   5.818   1.391   2.810  0.4337  0.3621  1.6873
31028SOL    HW297001   5.761   1.306   2.922 -2.0475  0.8970  0.9064
31029SOL     OW97002   2.720   0.248   0.898  0.0565 -0.1766 -0.2838
31029SOL    HW197003   2.803   0.203   0.914 -0.4690 -0.6319  1.3856
31029SOL    HW297004   2.654   0.189   0.936 -0.6865  1.8410  1.7684
31030SOL     OW97005   8.919   4.628   2.576 -0.5115 -0.3485  0.1697
31030SOL    HW197006   8.836   4.581   2.576  0.0032 -1.6069 -3.7338
31030SOL    HW297007   8.904   4.703   2.519  0.5328  0.5343  0.9997
31031SOL     OW97008   4.094   6.063   4.011  0.1547 -0.4409 -0.3347
31031SOL    HW197009   4.169   6.079   3.954  0.6303 -0.1970  0.3472
31031SOL    HW297010   4.047   6.147   4.013  0.1741 -0.4305 -0.3139
31032SOL     OW97011   2.059  10.128   8.872 -0.0902  0.2265 -0.8317
31032SOL    HW197012   2.138  10.074   8.877 -0.9218 -0.9847 -0.1409
31032SOL    HW297013   2.082  10.200   8.814  1.0790 -0.8582 -1.7664
31033SOL     OW97014   6.849   2.579   8.364 -0.0190 -0.2998  0.6902
31033SOL    HW197015   6.869   2.644   8.296 -0.6163 -1.6444 -0.8331
31033SOL    HW297016   6.922   2.518   8.361 -0.8022 -1.2294  0.1566
31034SOL     OW97017   9.411   1.763   7.854 -0.2737 -0.3874 -0.3977
31034SOL    HW197018   9.500   1.729   7.862 -0.5073 -1.0204 -0.4208
31034SOL    HW297019   9.368   1.737   7.935 -0.4486 -0.1100 -0.4009
31035SOL     OW97020   0.800   1.335   0.554 -0.5449 -0.0954 -0.2454
31035SOL    HW197021   0.740   1.261   0.560  0.4862 -0.9906 -0.6143
31035SOL    HW297022   0.745   1.412   0.565 -1.5962 -0.9261  0.4825
31036SOL     OW97023   1.456   4.004   2.883 -0.1165  0.2451 -0.3086
31036SOL    HW197024   1.396   3.929   2.885  0.1074  0.0470 -0.8235
31036SOL    HW297025   1.407   4.074   2.925 -0.3459 -0.1803  0.1454
31037SOL     OW97026   4.522   3.687   1.585  0.3958  0.1903  0.1991
31037SOL    HW197027   4.598   3.633   1.609 -0.8195 -0.1913  3.8951
31037SOL    HW297028   4.548   3.776   1.609  0.9596  0.7128 -2.1440
31038SOL     OW97029   2.219   5.636   1.624 -0.1740 -0.0983 -0.8359
31038SOL    HW197030   2.197   5.725   1.594 -0.3558  0.6593  1.3947
31038SOL    HW297031   2.135   5.594   1.638 -0.1221  0.0943  0.0860
31039SOL     OW97032   7.035   0.974   4.669 -0.0249 -0.2244 -0.3557
31039SOL    HW197033   7.048   1.050   4.612 -0.0828  0.3772  0.4179
31039SOL    HW297034   7.123   0.939   4.684  0.0161 -0.2243 -0.5931
31040SOL     OW97035   4.352   2.963   3.333  0.2049 -0.2208  0.1132
31040SOL    HW197036   4.445   2.983   3.343  1.1274 -2.4371 -2.5495
31040SOL    HW297037   4.334   2.896   3.399 -0.1733  1.7458  2.1047
31041SOL     OW97038   7.050   6.278   0.119 -0.1699  0.0064  0.1192
31041SOL    HW197039   7.009   6.360   0.145  0.2361  0.1489  0.3280
31041SOL    HW297040   6.977   6.222   0.092 -0.5071  0.2224  0.5617
31042SOL     OW97041   4.825   3.434   6.458 -0.0858  0.7354  0.6931
31042SOL    HW197042   4.920   3.429   6.468 -0.0683 -0.1612  0.1519
31042SOL    HW297043   4.804   3.369   6.392 -1.0613  1.0714  0.6540
31043SOL     OW97044   2.353   5.173   6.960  0.2613  0.2174  0.2117
31043SOL    HW197045   2.328   5.264   6.947 -1.5497 -0.2295  0.3027
31043SOL    HW297046   2.366   5.165   7.054  1.9917  0.7191  0.0521
31044SOL     OW97047   2.071   3.299   4.614 -0.1033  0.2741 -0.3024
31044SOL    HW197048   2.010   3.347   4.670  0.8407  1.0116  0.1225
31044SOL    HW297049   2.097   3.222   4.665  0.3032  0.6379  0.0466
31045SOL     OW97050   0.137   8.549   2.734  0.0291  0.2944 -0.0511
31045SOL    HW197051   0.223   8.587   2.719 -0.3174  1.6713  1.1415
31045SOL    HW297052   0.085   8.621   2.771 -1.3331 -0.7610  0.1942
31046SOL     OW97053   8.867   6.403   5.351  0.2199 -0.8677  0.4026
31046SOL    HW197054   8.936   6.415   5.416  0.1789  0.7225  0.1768
31046SOL    HW297055   8.914   6.391   5.268  0.2313  0.1285  0.2622
31047SOL     OW97056   5.232   0.073   9.673  0.5588  0.3146  0.1323
31047SOL    HW197057   5.145   0.111   9.679 -0.2925 -1.5602  0.5188
31047SOL    HW297058   5.224   0.005   9.605  1.7063  0.1059  0.1819
31048SOL     OW97059   4.698   3.543   8.555  0.0525 -0.1948 -0.3496
31048SOL    HW197060   4.765   3.596   8.598 -0.7916  0.2057  0.4950
31048SOL    HW297061   4.748   3.475   8.508  1.1052  0.8871 -0.8462
31049SOL     OW97062   2.749   7.192   4.061 -0.0563 -0.8556  0.0697
31049SOL    HW197063   2.705   7.128   4.006 -1.1194  0.6660 -0.9177
31049SOL    HW297064   2.683   7.219   4.125  0.7930 -1.6915  1.3470
31050SOL     OW97065   2.171   3.495   8.204 -0.3458 -0.8442 -0.4246
31050SOL    HW197066   2.136   3.549   8.133 -1.6080 -2.4742 -1.1229
31050SOL    HW297067   2.101   3.431   8.221  0.1568 -0.8382  1.9315
31051SOL     OW97068   3.204   3.382   1.022 -0.2592  0.1962  0.5501
31051SOL    HW197069   3.233   3.293   1.041  0.9344  0.1931 -0.9976
31051SOL    HW297070   3.285   3.428   0.996 -1.0996  1.2327 -0.3348
31052SOL     OW97071   3.450   4.951   0.968  0.7582  0.3367  0.5162
31052SOL    HW197072   3.481   5.039   0.989  0.8960  1.1217 -2.4182
31052SOL    HW297073   3.524   4.909   0.924 -0.0943 -0.2910 -0.3794
31053SOL     OW97074   1.810   5.820   2.458  0.2479  0.1562 -0.0799
31053SOL    HW197075   1.725   5.862   2.447  0.7126  0.9936 -0.6717
31053SOL    HW297076   1.829   5.781   2.373  2.3786  3.8036 -1.5322
31054SOL     OW97077   6.478   8.264   4.851 -0.1919 -0.1252  0.5078
31054SOL    HW197078   6.509   8.342   4.897 -0.6445  0.4352 -0.1125
31054SOL    HW297079   6.503   8.279   4.760  1.2773 -1.5047  0.6292
31055SOL     OW97080   0.760   6.099   9.590  0.2034  0.0617 -0.3252
31055SOL    HW197081   0.684   6.063   9.544 -0.4105  1.6119 -0.5901
31055SOL    HW297082   0.808   6.147   9.522 -0.0459  1.3366  0.3615
31056SOL     OW97083   2.228   5.062   5.266  0.3842 -0.5677 -0.5563
31056SOL    HW197084   2.283   5.110   5.328  0.9664  0.9030 -2.1259
31056SOL    HW297085   2.273   4.978   5.254  0.4166 -0.7569  0.7458
31057SOL     OW97086   2.039   7.447   4.997 -0.1510  0.1989  0.8060
31057SOL    HW197087   2.003   7.529   5.030 -1.5451 -0.5472  1.1907
31057SOL    HW297088   2.128   7.444   5.032  0.0740  1.7288  0.4284
31058SOL     OW97089   6.677   0.437   6.558  0.3314  0.2505  0.6711
31058SOL    HW197090   6.605   0.427   6.621  1.7377  1.3023  2.5317
31058SOL    HW297091   6.736   0.499   6.599  3.1147 -1.7528 -0.0283
31059SOL     OW97092   5.856   9.829   8.440 -0.2855  0.1294  0.5292
31059SOL    HW197093   5.843   9.772   8.516  0.7161  0.3571  0.8895
31059SOL    HW297094   5.808   9.786   8.369 -2.0852  0.4366  1.5051
31060SOL     OW97095   5.941   0.703   7.266 -0.0379 -0.8009 -0.9861
31060SOL    HW197096   5.913   0.792   7.288 -0.3893 -0.7540 -1.5838
31060SOL    HW297097   5.947   0.658   7.350 -0.0931 -0.2790 -0.6964
31061SOL     OW97098   1.326   8.256   3.264 -0.7120  0.2093  0.6765
31061SOL    HW197099   1.245   8.217   3.299 -1.7640  1.5581 -0.1406
31061SOL    HW297100   1.370   8.185   3.219 -1.1094 -0.7088  1.6909
31062SOL     OW97101   8.173   2.499   3.848 -0.2055 -0.0095  0.0611
31062SOL    HW197102   8.169   2.413   3.888  0.1630  0.3671  0.9217
31062SOL    HW297103   8.083   2.519   3.824 -0.9591  0.9107  3.2040
31063SOL     OW97104   1.403   4.264   6.766  0.1916  0.6856 -0.2754
31063SOL    HW197105   1.413   4.359   6.766  0.5366  0.6666 -1.6550
31063SOL    HW297106   1.311   4.249   6.788 -0.1193  1.3815 -1.0603
31064SOL     OW97107   2.580   8.493   7.868 -0.7395 -0.0162  0.1151
31064SOL    HW197108   2.524   8.529   7.937  1.1595 -0.7838  2.2091
31064SOL    HW297109   2.549   8.404   7.855 -1.1096  0.1322 -0.0237
31065SOL     OW97110   8.631   3.151   3.111 -0.1768 -0.4930 -0.1156
31065SOL    HW197111   8.565   3.118   3.172 -0.4343 -0.5016 -0.3984
31065SOL    HW297112   8.648   3.240   3.140 -1.7108  0.1878 -1.1814
31066SOL     OW97113   9.589   6.411   2.172  0.3653  0.4884  0.2611
31066SOL    HW197114   9.638   6.434   2.251 -0.1809  1.8142  0.2476
31066SOL    HW297115   9.542   6.491   2.148  0.0708 -0.0470 -1.0906
31067SOL     OW97116   1.941   2.792   2.269  0.0852 -0.1517 -0.5552
31067SOL    HW197117   1.872   2.767   2.330 -0.8181  0.0161 -1.4698
31067SOL    HW297118   1.893   2.830   2.194  1.1141 -0.9859 -1.6601
31068SOL     OW97119   1.798   5.967   8.598  0.3171  0.4309 -0.0564
31068SOL    HW197120   1.755   5.954   8.513 -0.7388 -0.4996  0.5814
31068SOL    HW297121   1.891   5.976   8.578 -0.0475  1.3408 -1.4010
31069SOL     OW97122   0.083   9.956   5.129 -0.0646 -0.2033 -0.2830
31069SOL    HW197123   0.004   9.920   5.170 -0.9102  1.5744 -0.2425
31069SOL    HW297124   0.063   9.958   5.036  0.1088 -0.1282 -0.3192
31070SOL     OW97125   9.078   3.774   2.809  0.3526  0.2837 -0.6381
31070SOL    HW197126   9.170   3.748   2.814  0.4564  0.3834 -1.8103
31070SOL    HW297127   9.076   3.863   2.844  0.6634  0.1997 -0.4028
31071SOL     OW97128   9.940   1.524   5.100  0.0508  0.7550  0.1970
31071SOL    HW197129   9.919   1.449   5.045 -1.8968  2.2985 -1.2909
31071SOL    HW297130   9.871   1.526   5.167 -0.6771  1.9029 -0.5494
31072SOL     OW97131   4.354   9.385  10.066  0.4776  0.1723 -0.2618
31072SOL    HW197132   4.420   9.394   9.997 -0.6773  0.5566 -1.3428
31072SOL    HW297133   4.346   9.473  10.102  2.6427 -0.4100  1.9178
31073SOL     OW97134   3.680   2.197   0.459 -0.2715 -0.8629 -0.5150
31073SOL    HW197135   3.595   2.178   0.420 -0.7216 -2.1450  1.0357
31073SOL    HW297136   3.674   2.289   0.485 -0.7818 -0.6447 -1.3446
31074SOL     OW97137   7.679   0.725   8.642  0.2071 -0.3284  0.1355
31074SOL    HW197138   7.657   0.803   8.691  0.2428 -0.0358 -0.3111
31074SOL    HW297139   7.742   0.755   8.576 -0.4982 -0.5451 -0.6515
31075SOL     OW97140   6.434   6.296   2.368 -0.5905 -0.3470  0.1459
31075SOL    HW197141   6.490   6.366   2.400 -0.3639 -0.6638  0.4439
31075SOL    HW297142   6.419   6.317   2.276  1.0858 -0.9424 -0.2872
31076SOL     OW97143   9.694   0.817   5.673  0.6956 -0.7683  0.1135
31076SOL    HW197144   9.772   0.822   5.728  2.4389 -1.6385 -2.0980
31076SOL    HW297145   9.663   0.728   5.684  0.5460 -0.6951  0.2945
31077SOL     OW97146   3.076   9.367   4.997  0.4526  0.2113 -0.2221
31077SOL    HW197147   2.993   9.329   5.025  0.8545  0.9085  2.0594
31077SOL    HW297148   3.143   9.312   5.037  1.0539  1.5790  0.6998
31078SOL     OW97149   2.595   2.849   5.359  0.4163 -0.4057 -0.1385
31078SOL    HW197150   2.500   2.848   5.373  0.2766  0.0995 -0.9394
31078SOL    HW297151   2.613   2.767   5.313  0.2034 -0.0458 -0.8831
31079SOL     OW97152   3.138   8.656   3.162 -0.0599  0.5080 -0.6055
31079SOL    HW197153   3.071   8.707   3.117  0.2101  1.5649  0.1641
31079SOL    HW297154   3.098   8.569   3.173 -0.5326  0.5311 -1.9091
31080SOL     OW97155   5.845   4.531   4.765 -0.5728  0.0982 -0.5453
31080SOL    HW197156   5.754   4.512   4.789 -1.0286  3.6389  1.1570
31080SOL    HW297157   5.897   4.475   4.821 -1.7052 -0.2276  0.2204
31081SOL     OW97158   5.574   0.439   8.744  0.3632  0.3669 -0.0976
31081SOL    HW197159   5.485   0.425   8.713  1.1255  0.0037 -2.3561
31081SOL    HW297160   5.629   0.420   8.667  2.2729  2.3534  0.6825
31082SOL     OW97161   2.035   7.406   1.274  0.4412  0.6532  0.1198
31082SOL    HW197162   1.966   7.471   1.264  1.2449  1.5125  0.0889
31082SOL    HW297163   2.103   7.450   1.326  1.3559  0.1296 -0.6051
31083SOL     OW97164   4.557   4.082   2.365  0.1449  0.1400  0.4552
31083SOL    HW197165   4.481   4.074   2.308  0.0160 -1.1424  0.7839
31083SOL    HW297166   4.624   4.029   2.322  0.0406 -0.8478  1.4841
31084SOL     OW97167   1.444   4.302   2.750 -0.2946 -0.4628  0.4970
31084SOL    HW197168   1.426   4.274   2.840  0.4250  1.6017  1.3330
31084SOL    HW297169   1.539   4.291   2.740 -0.3168 -0.3156  0.1134
31085SOL     OW97170   5.046   5.192   5.551 -0.4185 -0.2389 -0.1525
31085SOL    HW197171   5.094   5.110   5.557  1.0633  0.4981 -1.2248
31085SOL    HW297172   4.954   5.168   5.566  0.2704 -1.6394  2.4453
31086SOL     OW97173   3.727   2.054   1.200  0.1046 -0.0985  0.6320
31086SOL    HW197174   3.761   1.997   1.269  1.5918  0.2808  0.2399
31086SOL    HW297175   3.672   1.996   1.146  1.4341 -1.1278  0.3443
31087SOL     OW97176   5.026  10.151   2.070 -0.3608 -0.1142  0.3973
31087SOL    HW197177   5.044  10.072   2.019  0.5676 -0.4038  1.1478
31087SOL    HW297178   4.971  10.120   2.143  0.3554 -0.1659  0.9298
31088SOL     OW97179   0.034   8.441   9.972 -0.4875 -0.1441 -0.5761
31088SOL    HW197180   0.053   8.523  10.017  1.7736 -0.0647 -1.5159
31088SOL    HW297181   0.090   8.443   9.894 -2.0666 -1.5868 -1.8345
31089SOL     OW97182   4.672   1.076   7.611  0.1764  0.6185 -0.7079
31089SOL    HW197183   4.622   1.084   7.693 -0.5661 -0.1182 -1.0765
31089SOL    HW297184   4.727   1.154   7.609  2.1054 -0.5193  1.7472
31090SOL     OW97185   3.163   8.590   5.364 -0.0408 -0.0000  0.1979
31090SOL    HW197186   3.194   8.593   5.273 -1.5566  0.8603 -0.3365
31090SOL    HW297187   3.235   8.628   5.415  0.1558  1.1090 -0.8642
31091SOL     OW97188   6.406   7.290   0.458 -0.6362  0.0250 -0.3889
31091SOL    HW197189   6.431   7.344   0.384 -0.7756 -0.5459 -0.8579
31091SOL    HW297190   6.319   7.322   0.484 -0.8973 -0.2381 -0.9229
31092SOL     OW97191   8.997  10.111   2.675 -0.4748  0.7407  1.1478
31092SOL    HW197192   9.056  10.056   2.726 -0.9918  0.4197  1.4092
31092SOL    HW297193   8.928  10.052   2.646  0.1443  0.7804 -0.4855
31093SOL     OW97194   4.793   3.363   4.718  0.2313 -0.0225 -0.2090
31093SOL    HW197195   4.706   3.325   4.730 -0.5835  1.2838 -1.5200
31093SOL    HW297196   4.847   3.323   4.786 -1.0913 -1.7653 -0.1214
31094SOL     OW97197   2.880   7.307   8.504 -0.4312  0.3677 -0.3099
31094SOL    HW197198   2.831   7.316   8.586  1.0815 -1.4088  0.8758
31094SOL    HW297199   2.962   7.354   8.520 -0.0835 -0.0725 -0.7627
31095SOL     OW97200   6.258   0.728   0.121  0.5242  0.3219  0.2698
31095SOL    HW197201   6.287   0.639   0.144  0.4436  0.3678  0.5535
31095SOL    HW297202   6.220   0.719   0.034 -1.2452 -0.3025  1.0595
31096SOL     OW97203   5.581   8.433   5.652 -0.3146 -0.1683 -0.7582
31096SOL    HW197204   5.494   8.473   5.644 -0.5730 -0.5671 -0.0177
31096SOL    HW297205   5.599   8.434   5.746  0.0289 -1.0444 -0.8107
31097SOL     OW97206   3.626   3.243   1.192 -0.2970 -0.1678  0.0105
31097SOL    HW197207   3.685   3.176   1.227 -0.7463 -0.1545  0.8216
31097SOL    HW297208   3.655   3.325   1.234 -0.0797  0.0633 -0.5782
31098SOL     OW97209   5.644   2.792   1.036  0.3354  0.7795 -0.1828
31098SOL    HW197210   5.628   2.725   0.970  0.5051 -0.4151  0.9325
31098SOL    HW297211   5.565   2.792   1.090  0.3237  1.5027 -0.1947
31099SOL     OW97212   1.403   1.981   4.980  0.0955 -0.0093 -0.1431
31099SOL    HW197213   1.358   2.007   5.061  1.9605 -0.8254  1.2483
31099SOL    HW297214   1.333   1.961   4.918 -1.4002  0.8495  1.2117
31100SOL     OW97215   2.220   8.757   9.837  0.5259 -0.2107 -0.2956
31100SOL    HW197216   2.248   8.679   9.885 -1.1250 -2.0338 -2.0576
31100SOL    HW297217   2.229   8.829   9.899  0.0583 -2.1425  2.1580
31101SOL     OW97218   0.879   8.867   1.986  0.3806 -0.8251 -0.1980
31101SOL    HW197219   0.786   8.849   1.992  0.2924 -0.0982  1.0617
31101SOL    HW297220   0.885   8.944   1.929  0.0969 -0.1294  0.6981
31102SOL     OW97221   9.254   2.536   0.797 -0.1724  0.2289  0.5771
31102SOL    HW197222   9.342   2.508   0.824  0.0470 -0.3670 -0.6590
31102SOL    HW297223   9.270   2.610   0.738 -0.3957 -0.6656 -0.6474
31103SOL     OW97224   3.577   5.242   6.940  0.6255  0.1757 -0.2158
31103SOL    HW197225   3.559   5.156   6.977  3.1443  0.6199  2.3959
31103SOL    HW297226   3.492   5.273   6.908 -0.1712 -3.6645 -2.4204
31104SOL     OW97227   2.864   9.580   5.952  0.1937 -0.2566  0.4223
31104SOL    HW197228   2.830   9.504   6.000 -0.8624 -0.0025  0.1114
31104SOL    HW297229   2.935   9.545   5.899  1.2099 -0.5983  1.9436
31105SOL     OW97230   1.201   4.959   6.624 -0.0354  0.6693 -0.1987
31105SOL    HW197231   1.277   4.969   6.567  0.6139  1.5311  0.7748
31105SOL    HW297232   1.138   5.022   6.591 -0.9589 -1.0717 -1.9325
31106SOL     OW97233   1.090   2.546   4.390 -0.0797 -0.5784 -0.3486
31106SOL    HW197234   1.139   2.506   4.318 -0.5442 -1.9202  0.0574
31106SOL    HW297235   1.033   2.476   4.422 -1.1082  0.4903  0.2244
31107SOL     OW97236   2.000   5.719   2.667  0.1879  0.4624  0.0153
31107SOL    HW197237   1.942   5.739   2.594 -0.8498  0.5627  0.8389
31107SOL    HW297238   1.952   5.656   2.720  0.7249  0.7378  0.8580
31108SOL     OW97239   1.629   2.234   0.400 -0.4594 -0.0664 -0.1826
31108SOL    HW197240   1.673   2.253   0.482 -1.4417  0.6487  0.1890
31108SOL    HW297241   1.634   2.138   0.392 -0.6314 -0.1733  0.8616
31109SOL     OW97242   7.711   7.621   4.523 -0.4326 -0.0134  0.1368
31109SOL    HW197243   7.794   7.583   4.495  0.3502  0.6432  1.4478
31109SOL    HW297244   7.707   7.706   4.478 -0.6254 -0.2581 -0.3046
31110SOL     OW97245   3.042   4.761   8.280 -0.2752  0.3856  0.0731
31110SOL    HW197246   3.019   4.684   8.229  0.0295  1.0056 -1.0338
31110SOL    HW297247   3.043   4.731   8.371 -0.3083 -0.8651 -0.3312
31111SOL     OW97248   5.449   7.263   7.301  0.6696 -0.4988  0.0283
31111SOL    HW197249   5.355   7.244   7.303  0.3577  0.7453 -1.1854
31111SOL    HW297250   5.487   7.189   7.252  0.1350 -0.3967 -0.5612
31112SOL     OW97251   6.868   5.660   2.483 -0.2632 -0.1265  0.2836
31112SOL    HW197252   6.940   5.680   2.542  0.0097 -0.0737 -0.0643
31112SOL    HW297253   6.835   5.575   2.514  0.5867 -0.6386 -0.1585
31113SOL     OW97254   8.362   2.717   9.391  0.1062 -0.4815 -0.5594
31113SOL    HW197255   8.346   2.773   9.467 -0.8594  1.2533 -1.9264
31113SOL    HW297256   8.455   2.698   9.394  0.6907  1.9765 -0.4314
31114SOL     OW97257   0.229   7.739   4.404  0.0204 -0.1789 -0.1671
31114SOL    HW197258   0.231   7.650   4.368 -0.9243  0.0450 -0.8003
31114SOL    HW297259   0.320   7.767   4.403  0.1722 -0.6547 -1.2172
31115SOL     OW97260   0.596   7.118   8.578  0.2295  0.1874 -0.6080
31115SOL    HW197261   0.513   7.081   8.609 -0.2699  1.6693 -0.0632
31115SOL    HW297262   0.658   7.102   8.650 -0.3374  1.5622  0.2377
31116SOL     OW97263   4.487   1.914   7.143  0.3155 -0.0651  0.7542
31116SOL    HW197264   4.534   1.890   7.063 -1.0993  0.7786 -0.3812
31116SOL    HW297265   4.555   1.917   7.211  1.6311 -0.3381 -0.5049
31117SOL     OW97266   1.764   0.519   2.958  0.1852  0.4245  0.0464
31117SOL    HW197267   1.839   0.470   2.923 -0.2953 -1.8955  1.9772
31117SOL    HW297268   1.803   0.591   3.007  1.0736  0.2904 -0.4489
31118SOL     OW97269   1.284   6.024   7.872  0.1365  0.2102 -0.4298
31118SOL    HW197270   1.275   5.972   7.793  0.0509 -0.1281 -0.1999
31118SOL    HW297271   1.200   6.069   7.882 -0.3792 -0.8506  0.2397
31119SOL     OW97272   1.132   2.399   8.402  0.3649  0.6622 -0.4776
31119SOL    HW197273   1.134   2.310   8.367  1.6279  0.9004 -1.0977
31119SOL    HW297274   1.040   2.416   8.422  0.2061 -1.0439  0.3492
31120SOL     OW97275   7.717   5.052   8.644 -0.0922 -0.0478  0.2195
31120SOL    HW197276   7.660   5.017   8.713  1.4563  0.4322  1.8311
31120SOL    HW297277   7.745   5.137   8.677  0.4789  0.3188 -1.1576
31121SOL     OW97278   2.375   6.380   3.537  0.0488 -0.3758 -0.0322
31121SOL    HW197279   2.412   6.434   3.467 -1.5025 -0.3315 -0.8391
31121SOL    HW297280   2.374   6.438   3.614  0.6723 -0.0622 -0.2505
31122SOL     OW97281  10.120   0.840   1.283 -0.0539 -0.0155  0.0235
31122SOL    HW197282  10.185   0.774   1.310  0.5585  0.8760  0.8032
31122SOL    HW297283  10.127   0.843   1.188 -0.8886 -1.8650 -0.1370
31123SOL     OW97284   5.434   0.449   1.480 -0.1489  0.1282  0.2568
31123SOL    HW197285   5.424   0.359   1.512 -0.5508 -0.0555 -0.3488
31123SOL    HW297286   5.348   0.489   1.494 -0.4093 -0.0310 -0.7782
31124SOL     OW97287   0.767   8.977   9.336 -0.4771 -0.2190  0.0770
31124SOL    HW197288   0.789   8.998   9.427 -1.2149  0.0257  0.2048
31124SOL    HW297289   0.677   8.945   9.340 -0.8134  0.5985 -0.6733
31125SOL     OW97290   3.455   0.630   5.445  0.1189  0.1305  0.3467
31125SOL    HW197291   3.457   0.698   5.512 -0.2032  0.8564 -0.3617
31125SOL    HW297292   3.543   0.592   5.448  0.8984  1.7874 -0.4372
31126SOL     OW97293   6.618   0.112   0.022  0.5825 -0.0508  0.7268
31126SOL    HW197294   6.533   0.096  -0.021  1.2430 -1.5826 -0.0885
31126SOL    HW297295   6.636   0.204   0.005 -0.2067 -0.0898 -0.4498
31127SOL     OW97296   3.205   4.099   6.432 -0.6150 -0.8412 -0.1326
31127SOL    HW197297   3.229   4.056   6.349  1.6813  1.4130 -0.7670
31127SOL    HW297298   3.138   4.162   6.407  0.7815  0.5335 -0.5316
31128SOL     OW97299   0.020   7.562   1.989  0.8644 -0.2107  0.2442
31128SOL    HW197300   0.022   7.579   1.895  1.0109  3.2689  0.7526
31128SOL    HW297301  -0.072   7.543   2.008  1.0071 -2.0997 -0.6840
31129SOL     OW97302   9.288   1.661   6.132  0.1208 -0.3903  0.4906
31129SOL    HW197303   9.336   1.741   6.152  1.6101 -0.1509 -3.2526
31129SOL    HW297304   9.333   1.593   6.182  1.0681  0.6018  1.0315
31130SOL     OW97305   2.385   1.788   5.297  0.1206  0.4922  0.8249
31130SOL    HW197306   2.451   1.845   5.259  1.2495 -1.9321 -1.0971
31130SOL    HW297307   2.434   1.717   5.338 -1.2485 -0.5587  0.7244
31131SOL     OW97308   0.151   1.532   6.997 -0.8783 -0.1592  0.2081
31131SOL    HW197309   0.103   1.565   6.921 -0.5096  0.2137  0.1315
31131SOL    HW297310   0.185   1.447   6.968 -0.9924 -0.1564  0.0603
31132SOL     OW97311   8.993   2.773   9.722  0.4546  0.2430 -0.1217
31132SOL    HW197312   9.001   2.793   9.816 -0.6765 -1.6972  0.4523
31132SOL    HW297313   8.899   2.758   9.709  0.7768 -0.9747 -1.2393
31133SOL     OW97314   4.331  10.124   1.425 -0.3662  0.0492 -0.8521
31133SOL    HW197315   4.263  10.164   1.480  0.1890  1.9333 -1.4364
31133SOL    HW297316   4.401  10.102   1.487 -0.2783  0.9553 -0.6031
31134SOL     OW97317   9.426   4.907   0.220 -0.1306  0.1636  0.8149
31134SOL    HW197318   9.381   4.828   0.192  0.5181 -0.1376  0.5909
31134SOL    HW297319   9.359   4.960   0.263 -0.6917 -0.2545  0.4574
31135SOL     OW97320   2.220   3.335   5.383  0.0001  0.5167  0.1343
31135SOL    HW197321   2.295   3.322   5.442 -0.2614  0.3969  0.4457
31135SOL    HW297322   2.252   3.306   5.298  0.7308  1.7028 -0.0215
31136SOL     OW97323   1.105   1.933   1.895  0.4701  0.6247  0.3471
31136SOL    HW197324   1.078   1.996   1.829 -2.1268 -1.2635 -0.5373
31136SOL    HW297325   1.032   1.929   1.956  1.1172 -0.6018  1.0804
31137SOL     OW97326   4.615   5.954   8.875  0.3986  0.4839  0.0193
31137SOL    HW197327   4.676   5.895   8.919 -0.6855  0.5387  1.6906
31137SOL    HW297328   4.529   5.914   8.891 -0.0656  0.4888 -2.1254
31138SOL     OW97329   6.743   2.371   4.638  0.2625  0.5470 -0.1776
31138SOL    HW197330   6.808   2.361   4.569 -1.5099 -2.1517 -1.6522
31138SOL    HW297331   6.666   2.406   4.593 -1.2240 -2.1243  0.0924
31139SOL     OW97332   3.311   1.218   9.085  0.2922 -0.3633 -0.7071
31139SOL    HW197333   3.318   1.231   9.180 -1.4313 -1.1282 -0.4372
31139SOL    HW297334   3.274   1.130   9.076  2.2993 -1.1332 -2.1744
31140SOL     OW97335   5.720   5.438   6.882 -0.2924 -0.5142 -0.1462
31140SOL    HW197336   5.641   5.385   6.895 -0.4537 -0.5454 -1.1292
31140SOL    HW297337   5.695   5.525   6.912 -0.6910 -0.5329 -0.4133
31141SOL     OW97338   1.605  10.063   9.488 -0.0239 -0.1120  0.0784
31141SOL    HW197339   1.616  10.128   9.418  1.8681 -0.7436 -0.2666
31141SOL    HW297340   1.580  10.115   9.564  0.2625  0.8864 -0.4838
31142SOL     OW97341   1.292   5.581   1.513 -0.0035  0.0066 -0.1581
31142SOL    HW197342   1.356   5.512   1.532  1.1765  1.6866  2.5245
31142SOL    HW297343   1.214   5.555   1.563 -0.6222 -0.7800 -1.4683
31143SOL     OW97344   1.457   4.113   5.038 -0.5377 -0.6143  0.1832
31143SOL    HW197345   1.465   4.147   5.127  2.1274 -1.6705  0.4560
31143SOL    HW297346   1.419   4.026   5.049  0.6640 -1.1297  0.4471
31144SOL     OW97347   4.841   9.561   0.658 -0.2745 -0.0418 -0.1960
31144SOL    HW197348   4.769   9.519   0.610  0.2260 -0.2452 -0.7775
31144SOL    HW297349   4.814   9.557   0.750 -1.3418  0.5506 -0.4725
31145SOL     OW97350   7.031   8.010   3.005  0.5170  0.1675 -0.3666
31145SOL    HW197351   6.981   8.042   3.081 -0.2517 -0.8393 -0.4155
31145SOL    HW297352   6.996   7.922   2.990  2.8529 -0.9087  0.0590
31146SOL     OW97353   3.130   8.271   9.106 -0.7195  0.4265  0.0434
31146SOL    HW197354   3.099   8.290   9.195 -0.7599 -1.6076  0.5155
31146SOL    HW297355   3.110   8.350   9.057  1.3173  2.5192  2.3080
31147SOL     OW97356   8.823   6.167   0.323  0.0285  0.1469  0.8126
31147SOL    HW197357   8.913   6.176   0.354  0.7770 -1.1920 -0.8381
31147SOL    HW297358   8.831   6.122   0.239 -2.0015  2.1380 -0.5610
31148SOL     OW97359   7.868   8.584   4.182  0.1257 -0.2620 -0.0995
31148SOL    HW197360   7.942   8.607   4.239  0.5407 -2.8341  0.4968
31148SOL    HW297361   7.902   8.594   4.093  0.7230 -0.0119  0.1559
31149SOL     OW97362   8.498   3.944   3.809 -0.2031  0.3245  0.3102
31149SOL    HW197363   8.520   4.015   3.871  1.7607  0.6548 -0.6824
31149SOL    HW297364   8.546   3.869   3.841 -1.3515 -0.2817  0.6813
31150SOL     OW97365   3.371   8.002   8.322  0.3370  0.0688 -0.9116
31150SOL    HW197366   3.415   8.080   8.288  2.6821 -0.5701  0.3945
31150SOL    HW297367   3.355   7.948   8.245  0.2108  1.0935 -1.6314
31151SOL     OW97368   2.816   2.155   9.258 -0.4810  0.1225 -0.4424
31151SOL    HW197369   2.827   2.060   9.260  0.7299  0.2337  1.2324
31151SOL    HW297370   2.858   2.182   9.176  2.5576 -0.5299  0.7368
31152SOL     OW97371   3.431   0.468   6.450  0.6027  0.2949 -0.1092
31152SOL    HW197372   3.510   0.428   6.413 -1.0213 -0.9817 -2.4085
31152SOL    HW297373   3.451   0.477   6.544  1.5278 -5.2746  0.6233
31153SOL     OW97374   6.863   0.382   8.606  0.0571  1.5846 -0.3438
31153SOL    HW197375   6.776   0.382   8.566 -0.9700  1.1425  1.7217
31153SOL    HW297376   6.906   0.304   8.572 -2.3917 -1.2754  2.4388
31154SOL     OW97377   4.340   3.418   1.812  0.0142 -0.1192  0.0876
31154SOL    HW197378   4.375   3.402   1.724  0.6104 -0.4070  0.3701
31154SOL    HW297379   4.325   3.330   1.847  0.1375 -0.0098  0.4135
31155SOL     OW97380   3.536   1.310   3.582  0.0780  0.1770  0.2035
31155SOL    HW197381   3.527   1.359   3.664  0.4543 -1.1020  1.0613
31155SOL    HW297382   3.623   1.334   3.550  0.2786  0.0628  0.6404
31156SOL     OW97383   3.540   7.505   8.443  0.2348  0.4372  0.4335
31156SOL    HW197384   3.522   7.455   8.363  0.2323  0.2041  0.5786
31156SOL    HW297385   3.454   7.531   8.475  0.2363  0.5394  0.3550
31157SOL     OW97386   0.233   8.863   4.651 -0.5144 -0.1195 -0.3972
31157SOL    HW197387   0.160   8.893   4.704  0.6417  0.2233  1.0685
31157SOL    HW297388   0.270   8.789   4.700  0.6464  0.2557 -0.6705
31158SOL     OW97389   0.165   9.882   0.329 -0.1319 -0.8369 -0.7075
31158SOL    HW197390   0.104   9.882   0.255  0.8718  1.7755 -1.6261
31158SOL    HW297391   0.251   9.892   0.290  0.2638  3.6089  0.7122
31159SOL     OW97392   2.799   2.746   2.087 -0.6221 -0.0615  0.6050
31159SOL    HW197393   2.792   2.663   2.040 -1.9234  0.8554 -0.9517
31159SOL    HW297394   2.786   2.723   2.179  1.0203 -1.7994  0.4600
31160SOL     OW97395   0.057   0.243   1.745 -0.2058  0.1915 -0.6643
31160SOL    HW197396   0.128   0.252   1.809 -1.2188  2.7585  0.2245
31160SOL    HW297397  -0.014   0.297   1.780 -1.6716 -0.2434 -2.7843
31161SOL     OW97398  10.029   9.176   4.069  0.3428 -0.4670 -0.4666
31161SOL    HW197399   9.951   9.230   4.054 -0.0278 -1.1184 -0.9127
31161SOL    HW297400  10.083   9.189   3.991  0.6863 -0.0112 -0.1538
31162SOL     OW97401   7.088   6.335   5.195 -0.2975 -0.9411 -0.1547
31162SOL    HW197402   7.143   6.337   5.116  0.1845 -0.2450  0.1877
31162SOL    HW297403   7.001   6.312   5.163  0.4561 -3.6241 -0.5363
31163SOL     OW97404   5.850   8.209   4.002 -0.1006 -0.2697 -0.4312
31163SOL    HW197405   5.898   8.284   4.038 -0.4788  0.0247 -0.5334
31163SOL    HW297406   5.771   8.203   4.056  0.0903 -0.8148 -0.1992
31164SOL     OW97407   1.976   9.404   8.773 -0.4572  0.2481  0.1667
31164SOL    HW197408   1.953   9.405   8.680 -1.2690 -0.7258  0.3310
31164SOL    HW297409   2.071   9.407   8.775 -0.4440  3.2547 -0.5961
31165SOL     OW97410   7.101   6.647   6.567  0.4145  0.0399 -0.6315
31165SOL    HW197411   7.083   6.741   6.561  0.4103  0.2411  1.6976
31165SOL    HW297412   7.017   6.608   6.590  1.0950 -0.0465  1.9644
31166SOL     OW97413   3.286   3.930   8.666 -0.0352  0.1331  0.7492
31166SOL    HW197414   3.367   3.937   8.717  0.4582  0.7235 -0.0827
31166SOL    HW297415   3.302   3.859   8.604 -0.6199 -0.5625  1.3852
31167SOL     OW97416   9.101   1.309   3.270 -0.3314  0.1434 -0.4049
31167SOL    HW197417   9.049   1.351   3.200 -1.3569 -1.5037 -0.6794
31167SOL    HW297418   9.188   1.347   3.261 -0.8083  1.0019 -1.6865
31168SOL     OW97419   5.862   1.519   9.220 -0.2220  0.2551  0.0756
31168SOL    HW197420   5.801   1.530   9.147 -3.2505 -1.1338  2.2150
31168SOL    HW297421   5.928   1.458   9.187 -1.3185 -0.1004 -1.5780
31169SOL     OW97422   5.320   4.770   0.437 -0.4382 -0.2535  0.5598
31169SOL    HW197423   5.340   4.824   0.360  1.4426 -1.2482  0.3157
31169SOL    HW297424   5.329   4.680   0.406 -0.4223 -0.6778  1.7590
31170SOL     OW97425   5.497   8.872   1.334 -0.3306  0.0075  0.4394
31170SOL    HW197426   5.536   8.904   1.253 -0.0616  0.0506  0.5851
31170SOL    HW297427   5.433   8.939   1.358 -0.3200  0.0557  0.3318
31171SOL     OW97428   4.350   3.910   1.172 -0.1334 -0.6320 -0.2368
31171SOL    HW197429   4.413   3.867   1.229  0.3819  0.1875 -0.1654
31171SOL    HW297430   4.364   3.871   1.086 -0.0241 -0.9598 -0.0715
31172SOL     OW97431   3.034   0.889   1.926  0.3747  0.1856 -0.0045
31172SOL    HW197432   3.103   0.826   1.946  0.0883  0.1576  0.9475
31172SOL    HW297433   3.057   0.966   1.978 -1.8342 -0.8189  2.7450
31173SOL     OW97434   2.268   5.859   4.279 -0.4601  0.0651  0.2272
31173SOL    HW197435   2.238   5.916   4.209  0.8033  0.2005 -0.2233
31173SOL    HW297436   2.251   5.770   4.247 -0.1109  0.1340 -0.1560
31174SOL     OW97437   6.511   8.309   9.504 -0.2586  0.3995  0.3485
31174SOL    HW197438   6.525   8.395   9.544  0.9217 -0.1822  1.2619
31174SOL    HW297439   6.483   8.253   9.577  2.3346 -0.7885  0.5581
31175SOL     OW97440   1.026   6.602   4.818 -0.2758  0.2199  0.2909
31175SOL    HW197441   1.109   6.633   4.780  0.5125 -1.9507  0.0680
31175SOL    HW297442   1.040   6.606   4.912  0.1333 -0.2193  0.2533
31176SOL     OW97443   6.356   5.012   6.541 -0.1604  0.2683 -0.0150
31176SOL    HW197444   6.264   5.037   6.537 -0.0160  0.7247 -0.8946
31176SOL    HW297445   6.400   5.073   6.481  0.5804 -0.5341 -0.3100
31177SOL     OW97446   9.739   5.412   6.032 -0.0841  0.2523 -0.1732
31177SOL    HW197447   9.753   5.411   5.937  1.4910  2.6959 -0.0556
31177SOL    HW297448   9.694   5.495   6.049  0.8412  0.4817  1.3337
31178SOL     OW97449   0.448   7.885   5.743 -0.6142  0.5780  0.1519
31178SOL    HW197450   0.456   7.828   5.820 -0.4877  2.1515  1.3747
31178SOL    HW297451   0.473   7.830   5.669 -1.0300 -1.0913  1.1884
31179SOL     OW97452   6.180   4.713   1.969  0.2093  0.0946 -0.4400
31179SOL    HW197453   6.187   4.660   2.048 -0.7340  0.4976 -0.0724
31179SOL    HW297454   6.098   4.685   1.928 -0.5997  1.6008  0.0413
31180SOL     OW97455   8.451   7.023   0.130 -0.6742  0.0126 -0.1648
31180SOL    HW197456   8.541   6.990   0.120 -0.9494 -0.7224 -0.2624
31180SOL    HW297457   8.397   6.958   0.087 -1.1672  1.0815 -1.2356
31181SOL     OW97458   1.796   8.284   0.275  0.7513  0.3844 -0.0802
31181SOL    HW197459   1.758   8.368   0.298  0.7141 -0.0366  1.5103
31181SOL    HW297460   1.857   8.264   0.347  0.7098 -0.9732 -0.3867
31182SOL     OW97461   1.033   4.235   6.307  0.0647  0.4265  0.0092
31182SOL    HW197462   1.078   4.151   6.313 -0.7219 -0.2137 -1.9755
31182SOL    HW297463   1.019   4.262   6.398  2.1961 -0.5305  0.6832
31183SOL     OW97464   3.582   0.221   8.490 -0.3289  0.1961  0.2147
31183SOL    HW197465   3.515   0.233   8.557 -1.4506  0.4305 -0.9124
31183SOL    HW297466   3.570   0.131   8.460  0.4574 -0.0517  0.6013
31184SOL     OW97467   4.507   5.977   6.376 -0.2310  0.0332 -0.3163
31184SOL    HW197468   4.504   5.907   6.310 -0.4758  0.9502 -1.3198
31184SOL    HW297469   4.460   5.941   6.451 -2.8391  0.0414 -1.7857
31185SOL     OW97470   8.258   5.631   7.574  0.3519 -0.1030  0.1609
31185SOL    HW197471   8.353   5.625   7.562  0.0163 -2.8962 -2.2641
31185SOL    HW297472   8.234   5.550   7.619 -0.9653  0.3372  0.3121
31186SOL     OW97473   7.236   9.926   7.664  0.7065 -0.2322 -0.4260
31186SOL    HW197474   7.311   9.984   7.651  0.3353  0.1140 -1.0443
31186SOL    HW297475   7.160   9.977   7.637  0.1374 -0.2722  1.0446
31187SOL     OW97476   8.565   7.045   5.249 -0.3380  0.3919  0.0744
31187SOL    HW197477   8.655   7.033   5.278 -0.3559 -0.2237 -0.1146
31187SOL    HW297478   8.519   6.967   5.280 -0.7079  0.4922 -0.2115
31188SOL     OW97479   5.272   3.147   0.379  0.3844  0.1961  0.2294
31188SOL    HW197480   5.359   3.185   0.389 -0.6264  2.5899  0.5274
31188SOL    HW297481   5.212   3.215   0.410 -1.6236 -1.3009 -0.1486
31189SOL     OW97482   1.695   9.498   0.034 -0.0866  0.0142 -0.3819
31189SOL    HW197483   1.693   9.454   0.119  1.3467  0.0770 -0.2889
31189SOL    HW297484   1.766   9.455  -0.014  0.3167  1.1738 -0.8623
31190SOL     OW97485   0.462   7.104   1.386 -0.1976  0.1685 -0.7735
31190SOL    HW197486   0.399   7.036   1.410 -2.1533  2.3192  0.7531
31190SOL    HW297487   0.477   7.092   1.292 -0.2728 -2.4368 -0.5041
31191SOL     OW97488   0.600   2.036   7.615  0.3179  0.6626  0.1270
31191SOL    HW197489   0.686   2.054   7.654 -0.8479  1.3708  2.5148
31191SOL    HW297490   0.579   1.947   7.643 -1.2747  1.7615  2.7980
31192SOL     OW97491   3.559   1.956   1.003 -0.1344  0.4103  0.6848
31192SOL    HW197492   3.481   1.946   0.947 -0.3633  2.1051  0.6393
31192SOL    HW297493   3.606   2.031   0.965  1.7921 -0.8584  0.4458
31193SOL     OW97494   5.580   7.659   1.436  0.1276  0.5710  0.2304
31193SOL    HW197495   5.594   7.754   1.428 -0.9535  0.6935 -0.3406
31193SOL    HW297496   5.488   7.650   1.462 -0.2054 -0.3592 -1.1478
31194SOL     OW97497   5.127   9.532  10.074 -0.3153 -0.4000 -0.3349
31194SOL    HW197498   5.176   9.599  10.121  0.4100 -1.5371  0.5812
31194SOL    HW297499   5.085   9.480  10.142 -0.2056 -1.3685 -0.9776
31195SOL     OW97500   6.739   9.768   5.527  0.2743 -0.1594 -0.5890
31195SOL    HW197501   6.792   9.715   5.468 -0.7091  0.3537 -1.9895
31195SOL    HW297502   6.773   9.749   5.615  0.3278 -2.6476 -1.0833
31196SOL     OW97503   3.426   7.455   9.953  0.1590  0.3220 -0.3700
31196SOL    HW197504   3.346   7.506   9.963 -0.1556  0.0642 -1.4547
31196SOL    HW297505   3.455   7.438  10.043 -0.1408  1.7465  0.0234
31197SOL     OW97506   2.449   3.769   0.939  0.6607 -0.4155  0.0496
31197SOL    HW197507   2.382   3.836   0.927  1.8399  0.4463 -2.5078
31197SOL    HW297508   2.412   3.691   0.898  1.4806  0.3231 -2.2749
31198SOL     OW97509   7.582   8.041   8.424  0.1300  0.3016  0.4862
31198SOL    HW197510   7.504   8.048   8.478  1.0479 -0.5262  1.9908
31198SOL    HW297511   7.598   8.130   8.393  0.4376  1.1604  2.8858
31199SOL     OW97512   0.016   6.701   1.465 -0.5039 -0.1439 -0.0289
31199SOL    HW197513  -0.045   6.774   1.463  0.2585  0.6931 -4.6155
31199SOL    HW297514  -0.021   6.638   1.403  1.1418 -1.5744  0.3700
31200SOL     OW97515   9.547   6.237   9.588  0.8063  0.0627 -0.0201
31200SOL    HW197516   9.551   6.225   9.493  0.5113 -1.0030  0.0908
31200SOL    HW297517   9.609   6.308   9.606  1.2357 -0.0653 -0.9484
31201SOL     OW97518   8.075   1.946   2.218 -0.2228  0.4326 -0.2553
31201SOL    HW197519   8.083   1.953   2.123  1.6948 -2.9245 -0.4858
31201SOL    HW297520   7.981   1.944   2.234 -0.5756  0.4779 -2.1226
31202SOL     OW97521   0.626   7.750   2.414 -0.0133 -0.0847  0.1888
31202SOL    HW197522   0.689   7.717   2.479  0.1228 -0.1214  0.0387
31202SOL    HW297523   0.678   7.761   2.334 -0.4424 -1.2350 -0.2677
31203SOL     OW97524   1.667   0.951   4.512 -0.3418  0.5796  0.2225
31203SOL    HW197525   1.672   0.857   4.491  0.1806  0.7476 -0.4527
31203SOL    HW297526   1.652   0.993   4.427 -2.1418  0.9973  0.7191
31204SOL     OW97527  10.021   6.712   2.409  0.1459 -0.0704 -0.4046
31204SOL    HW197528   9.960   6.697   2.337  0.6795 -1.2702 -0.6346
31204SOL    HW297529  10.026   6.628   2.454 -0.7061  0.8374  1.4820
31205SOL     OW97530   7.231   1.396   2.233 -0.0774 -0.1469  0.0282
31205SOL    HW197531   7.295   1.339   2.191  0.2896  0.9744 -0.9661
31205SOL    HW297532   7.283   1.471   2.264 -0.7611  0.2876  0.1272
31206SOL     OW97533   2.339   0.664   8.200  0.1047 -0.0555 -0.1242
31206SOL    HW197534   2.330   0.571   8.222  0.6663 -0.4196 -1.2818
31206SOL    HW297535   2.290   0.710   8.267 -0.5902 -1.2218  0.2045
31207SOL     OW97536   9.937   0.965   2.641 -0.0586 -0.1352 -0.1111
31207SOL    HW197537  10.019   0.916   2.645  0.0855  0.0073 -1.0132
31207SOL    HW297538   9.887   0.935   2.717  0.5316 -0.7633  0.0387
31208SOL     OW97539   2.389   0.918   8.897 -0.1447  0.0790  0.6437
31208SOL    HW197540   2.440   0.840   8.918  1.1579  0.8615  0.5225
31208SOL    HW297541   2.413   0.982   8.965 -0.3535  0.7226  0.1274
31209SOL     OW97542   1.621   8.520   9.589 -0.5285  0.6416 -0.0379
31209SOL    HW197543   1.591   8.511   9.498 -0.4742 -1.7714  0.1284
31209SOL    HW297544   1.716   8.513   9.585 -0.5502  0.1618  0.2409
31210SOL     OW97545   5.457   0.399   1.795 -0.0409  0.0371  0.6513
31210SOL    HW197546   5.364   0.390   1.773 -0.3062 -0.9234  2.0675
31210SOL    HW297547   5.484   0.312   1.823  1.5039  0.1343 -0.4295
31211SOL     OW97548   1.195   3.856   2.742  0.0269 -0.0719 -0.5154
31211SOL    HW197549   1.189   3.868   2.836 -0.5150 -0.8232 -0.4521
31211SOL    HW297550   1.183   3.945   2.706 -0.7657  0.0782  0.0825
31212SOL     OW97551   5.653   6.541   9.479 -0.2387  0.1783 -0.4057
31212SOL    HW197552   5.574   6.583   9.513 -0.4943 -0.8013  0.2562
31212SOL    HW297553   5.724   6.598   9.507 -0.5340 -0.0918  0.9376
31213SOL     OW97554   1.958   3.545   7.968 -0.0761  0.2144 -0.3340
31213SOL    HW197555   1.943   3.458   8.004 -2.8287  0.5965 -0.3166
31213SOL    HW297556   1.995   3.530   7.881 -0.3164 -0.9782 -0.2427
31214SOL     OW97557   6.667   5.762   7.249 -0.3650 -0.3180  0.2075
31214SOL    HW197558   6.599   5.705   7.284 -0.3244 -0.0930  0.6568
31214SOL    HW297559   6.708   5.802   7.326 -0.1020 -0.0186 -0.0813
31215SOL     OW97560   3.632   6.412   2.992 -0.2190  0.8219  0.2668
31215SOL    HW197561   3.687   6.353   2.940  0.0517  0.7534  0.6319
31215SOL    HW297562   3.579   6.458   2.926 -0.3354  0.2782 -0.0274
31216SOL     OW97563   7.612   8.557   3.798  0.1703  0.0580  0.2303
31216SOL    HW197564   7.646   8.528   3.713 -0.1339 -0.7199  0.3632
31216SOL    HW297565   7.643   8.647   3.807  1.5437 -0.3639  0.0072
31217SOL     OW97566   3.114   6.283   4.675 -0.0534  0.3994 -0.6150
31217SOL    HW197567   3.198   6.281   4.629  0.7094 -0.1931  0.7337
31217SOL    HW297568   3.067   6.206   4.643  0.7619 -0.4169  0.0927
31218SOL     OW97569   3.317   2.548   1.549 -0.0744  0.0841 -0.0383
31218SOL    HW197570   3.307   2.610   1.477 -0.4918 -0.2624 -0.2841
31218SOL    HW297571   3.409   2.523   1.548  0.4357  1.7629  0.9503
31219SOL     OW97572   3.433   0.950   1.141 -0.0884  0.1466  0.0181
31219SOL    HW197573   3.435   0.902   1.224  2.2661 -0.3168 -0.2366
31219SOL    HW297574   3.430   1.042   1.166 -0.8348 -0.0162  0.5700
31220SOL     OW97575   3.162   3.079   2.063  0.2710  0.2927 -0.4123
31220SOL    HW197576   3.092   3.105   2.003  0.8073 -0.4069 -1.3776
31220SOL    HW297577   3.141   3.123   2.145 -1.5998 -0.3398 -0.5076
31221SOL     OW97578   4.884   5.276   4.246 -0.3216 -0.1892  0.5880
31221SOL    HW197579   4.816   5.343   4.254  0.0390  0.0884  1.5196
31221SOL    HW297580   4.853   5.218   4.177 -0.2675  1.3707 -0.7920
31222SOL     OW97581   1.258   0.562   5.252 -0.6140  1.0582 -0.9192
31222SOL    HW197582   1.265   0.468   5.240  0.4524  0.9808  0.0904
31222SOL    HW297583   1.342   0.597   5.221 -0.5678  1.5443 -0.2792
31223SOL     OW97584   6.515   9.970   5.518  0.0051  0.4564  0.1634
31223SOL    HW197585   6.443   9.985   5.457  0.7047 -1.0475 -1.1109
31223SOL    HW297586   6.560   9.893   5.484  0.2075 -0.7258  2.8228
31224SOL     OW97587   2.673   3.260   4.988 -0.1576  0.7422  0.6099
31224SOL    HW197588   2.754   3.241   4.941  0.7019  0.8116  2.0062
31224SOL    HW297589   2.603   3.235   4.927  0.9116 -1.3645  0.1854
31225SOL     OW97590   1.755   7.878   9.423 -0.5503  0.4497  0.5854
31225SOL    HW197591   1.793   7.956   9.463 -1.7181  1.7777 -0.7613
31225SOL    HW297592   1.830   7.831   9.386 -0.0439  2.8410 -1.7595
31226SOL     OW97593   1.500   7.281  10.145 -0.2059  0.7625 -0.1189
31226SOL    HW197594   1.411   7.292  10.111 -1.3659  0.3467  2.5214
31226SOL    HW297595   1.489   7.228  10.224  2.6959 -1.3796 -0.9767
31227SOL     OW97596   4.798   1.491   2.562  0.0868  0.2386 -0.2247
31227SOL    HW197597   4.764   1.546   2.634  1.0382  0.2022  0.2599
31227SOL    HW297598   4.878   1.452   2.597  0.2707 -0.2108 -1.1265
31228SOL     OW97599   8.073   0.759   5.614 -0.3874 -0.2090 -0.1062
31228SOL    HW197600   8.084   0.799   5.528 -1.4233 -0.3673 -0.3269
31228SOL    HW297601   7.996   0.703   5.605  0.4825 -1.5724  0.4500
31229SOL     OW97602   4.460   2.423   2.675  0.6194  0.2928  0.4627
31229SOL    HW197603   4.367   2.400   2.672  0.8067 -0.5797  1.0040
31229SOL    HW297604   4.495   2.388   2.593  0.6468 -0.2350  0.6919
31230SOL     OW97605   1.105   4.694   9.998  0.1414 -0.0075  0.3825
31230SOL    HW197606   1.067   4.654  10.075 -0.3245  0.9831  0.6789
31230SOL    HW297607   1.150   4.772  10.031  0.9862 -0.2390 -0.1858
31231SOL     OW97608   5.224   2.369   5.845  0.7106 -0.4680 -0.0835
31231SOL    HW197609   5.264   2.293   5.888 -0.3592 -0.7815  0.3691
31231SOL    HW297610   5.204   2.339   5.757  0.4525 -0.6649  0.0392
31232SOL     OW97611   9.609   0.039   5.628 -0.4376  0.7047  0.2756
31232SOL    HW197612   9.575  -0.026   5.566 -3.2999  1.2334  1.1795
31232SOL    HW297613   9.702   0.045   5.607 -0.7669 -1.1465 -2.1163
31233SOL     OW97614   7.561   9.939   2.756  0.7190  0.1621 -0.4031
31233SOL    HW197615   7.541   9.891   2.675 -0.8860  1.0306 -0.5720
31233SOL    HW297616   7.519   9.887   2.825  2.2257 -0.6654 -0.0595
31234SOL     OW97617   3.724   6.669   4.479 -0.0514 -0.0415  0.0492
31234SOL    HW197618   3.722   6.761   4.453 -1.5200  0.1860  0.8341
31234SOL    HW297619   3.644   6.657   4.530  0.0388 -1.7956 -0.1525
31235SOL     OW97620   4.652   0.079   3.173  0.1072  0.1325  0.5658
31235SOL    HW197621   4.723   0.077   3.109  0.1101 -0.7129  0.5896
31235SOL    HW297622   4.653   0.168   3.208  0.5189  0.4081 -0.1454
31236SOL     OW97623   5.696   9.453   3.336 -0.8510 -0.2219  0.2124
31236SOL    HW197624   5.728   9.386   3.276  0.9238  0.9938 -0.2697
31236SOL    HW297625   5.720   9.421   3.423 -0.6721 -0.5406  0.0477
31237SOL     OW97626   0.620   7.527   5.369 -0.1757  0.1410  0.2795
31237SOL    HW197627   0.533   7.560   5.347 -0.8381 -1.2939  0.5704
31237SOL    HW297628   0.632   7.549   5.462 -0.3630  0.0781  0.3189
31238SOL     OW97629   3.474   9.714   7.498 -0.4637 -0.1117 -0.0369
31238SOL    HW197630   3.497   9.798   7.536  0.4312  0.3897 -1.6014
31238SOL    HW297631   3.530   9.651   7.545  0.5148  0.4678 -0.3807
31239SOL     OW97632   7.584   6.647   0.168  0.0895  0.4269 -0.0070
31239SOL    HW197633   7.578   6.639   0.073 -2.8562 -1.0810  0.1736
31239SOL    HW297634   7.565   6.559   0.201  2.5619  0.5337  2.0145
31240SOL     OW97635   2.494   2.100   6.920 -0.6228  0.0833 -0.1754
31240SOL    HW197636   2.419   2.104   6.860 -0.4017 -0.6433 -0.5166
31240SOL    HW297637   2.503   2.006   6.939 -0.1347  0.2269  0.2853
31241SOL     OW97638   2.310   7.478   2.825 -0.8436 -0.2807 -0.1183
31241SOL    HW197639   2.219   7.472   2.853 -0.0501 -0.0080  2.8077
31241SOL    HW297640   2.361   7.451   2.901  1.5603 -0.5183 -1.6902
31242SOL     OW97641   4.639   1.783   7.687 -0.2163  0.2984 -0.3314
31242SOL    HW197642   4.582   1.706   7.694  1.0351 -0.6234  0.3244
31242SOL    HW297643   4.690   1.781   7.769  2.2408 -0.1908 -1.7718
31243SOL     OW97644   6.952   6.031   8.739 -0.2311  0.2035 -0.2232
31243SOL    HW197645   6.923   6.122   8.752 -0.8378  0.1268 -0.9944
31243SOL    HW297646   6.931   5.988   8.822 -1.0073  0.5019 -0.2523
31244SOL     OW97647   5.878   8.382   2.195 -0.1594  0.5945 -0.3184
31244SOL    HW197648   5.827   8.369   2.275 -0.5591 -0.2750 -0.7054
31244SOL    HW297649   5.904   8.293   2.169 -0.0452  0.8706 -1.1624
31245SOL     OW97650   8.683   6.944   1.247  0.6926  0.7809  0.3294
31245SOL    HW197651   8.682   6.891   1.327  1.8940  0.6636  0.2906
31245SOL    HW297652   8.594   6.939   1.213  0.4478 -0.0905  1.0660
31246SOL     OW97653   8.956   2.219   7.501 -0.0019  0.4218 -0.6146
31246SOL    HW197654   9.019   2.211   7.429 -0.3591  2.1734 -1.1755
31246SOL    HW297655   8.999   2.175   7.575  1.3189  0.4670 -1.3172
31247SOL     OW97656   6.067   3.585   4.612  0.0098 -0.2774  0.1848
31247SOL    HW197657   6.127   3.630   4.672  0.3640 -0.3949 -0.0743
31247SOL    HW297658   6.024   3.519   4.666 -0.7957  0.6129  0.6572
31248SOL     OW97659   5.900   5.528   7.551  0.1224  0.7704  0.0541
31248SOL    HW197660   5.862   5.574   7.625 -1.7099  1.1987 -1.0785
31248SOL    HW297661   5.902   5.593   7.481 -1.3128 -0.4424 -1.2042
31249SOL     OW97662   4.674   9.150   6.200 -0.0858  0.2569  0.1797
31249SOL    HW197663   4.751   9.103   6.167 -1.2255 -0.0960 -2.2014
31249SOL    HW297664   4.700   9.242   6.200  0.9281 -0.0082  1.2481
31250SOL     OW97665   7.873   8.892   7.789 -0.3777 -0.8773  0.4494
31250SOL    HW197666   7.813   8.848   7.850 -0.0844 -0.8108  0.7897
31250SOL    HW297667   7.947   8.918   7.843  0.0212 -1.0743  0.0049
31251SOL     OW97668   4.807   1.435   9.045 -0.0894 -0.0497  0.1066
31251SOL    HW197669   4.806   1.405   9.136  1.0191  1.4064  0.6363
31251SOL    HW297670   4.858   1.516   9.047  0.7450 -0.4695 -1.9658
31252SOL     OW97671   2.558   3.706   6.049 -0.2389 -0.2475 -0.2409
31252SOL    HW197672   2.573   3.711   6.144 -0.2095  0.1050 -0.2624
31252SOL    HW297673   2.488   3.770   6.032  0.2596  0.2251 -0.5571
31253SOL     OW97674   1.035   6.345   0.669 -0.1000 -0.0500 -0.4325
31253SOL    HW197675   1.036   6.385   0.582  0.6783  0.1674 -0.3244
31253SOL    HW297676   0.987   6.407   0.724  2.6589  1.6880  0.1679
31254SOL     OW97677   4.175  10.176   4.863  0.2425 -0.4934 -0.6197
31254SOL    HW197678   4.121  10.146   4.937  1.0784  1.8466  1.0907
31254SOL    HW297679   4.252  10.119   4.864  0.7114  0.1196  1.0122
31255SOL     OW97680   6.270   0.604   4.107  0.2711 -0.1650 -0.8361
31255SOL    HW197681   6.220   0.683   4.088  1.1091  0.2813 -1.2067
31255SOL    HW297682   6.326   0.591   4.031  1.2977 -0.2034 -0.1013
31256SOL     OW97683   8.215   5.094   8.790 -0.3866 -0.4280 -0.0522
31256SOL    HW197684   8.234   5.155   8.861  1.6555  0.0005 -0.9145
31256SOL    HW297685   8.156   5.143   8.731 -2.0545 -0.7744  1.2575
31257SOL     OW97686   1.003   5.482   1.384 -0.4414 -0.1274 -0.3239
31257SOL    HW197687   1.042   5.470   1.471 -0.6362  1.3098 -0.0063
31257SOL    HW297688   1.017   5.399   1.339 -1.8386 -1.5472  1.6718
31258SOL     OW97689   3.546   1.056   9.773 -0.1172  0.7372 -0.1488
31258SOL    HW197690   3.526   1.020   9.687  0.0630 -2.9732  1.2115
31258SOL    HW297691   3.472   1.032   9.828  1.0537  0.4774  1.3912
31259SOL     OW97692   5.202   5.632   6.230 -0.4894 -0.3811 -0.1880
31259SOL    HW197693   5.298   5.629   6.231 -0.4764 -0.0193  0.6120
31259SOL    HW297694   5.179   5.679   6.310 -1.3427 -0.6107 -0.2908
31260SOL     OW97695   8.187   7.651   8.863  0.1357  0.3267  0.2244
31260SOL    HW197696   8.272   7.689   8.886  0.6234 -0.7301  0.2131
31260SOL    HW297697   8.168   7.686   8.776  0.4464  0.7518  0.3271
31261SOL     OW97698   8.286   1.618   3.122  0.3389  0.2080 -0.2315
31261SOL    HW197699   8.343   1.682   3.079  1.1908  0.1342  0.7553
31261SOL    HW297700   8.203   1.664   3.135  1.0692  1.2705  0.8517
31262SOL     OW97701   9.576  10.108   1.661  0.5216  0.1187 -0.3688
31262SOL    HW197702   9.594  10.177   1.725 -0.6913  0.7858 -0.7232
31262SOL    HW297703   9.532  10.040   1.712  1.6005 -0.3557 -0.0452
31263SOL     OW97704   9.356   5.872   5.889 -0.3024 -0.2365 -0.0106
31263SOL    HW197705   9.284   5.882   5.828  0.6677  0.8782 -1.0287
31263SOL    HW297706   9.329   5.921   5.967 -0.7284 -0.0258 -0.2916
31264SOL     OW97707   9.193   9.356   6.951  0.7728  0.4281 -0.3965
31264SOL    HW197708   9.140   9.278   6.935  0.6848  0.7492 -1.8513
31264SOL    HW297709   9.149   9.425   6.902  1.1985  1.2525  0.3645
31265SOL     OW97710   8.682   8.369   1.801 -0.1551  0.0331 -0.3042
31265SOL    HW197711   8.736   8.446   1.785 -0.2610 -0.1787 -1.8421
31265SOL    HW297712   8.713   8.334   1.885  2.5991 -0.4997 -1.4406
31266SOL     OW97713   4.170   4.329   4.754  0.5137  0.2105  0.0127
31266SOL    HW197714   4.129   4.275   4.822 -1.6677  1.6934 -0.0048
31266SOL    HW297715   4.247   4.366   4.796  0.1055 -0.1869  1.1417
31267SOL     OW97716   0.862   0.921   5.361  0.2439  0.0328 -0.0140
31267SOL    HW197717   0.803   0.864   5.312  0.2869 -0.7530  0.8420
31267SOL    HW297718   0.932   0.863   5.392 -0.0449  0.4270  1.3984
31268SOL     OW97719   6.900   1.535   4.873  0.4350  0.0553  0.5024
31268SOL    HW197720   6.920   1.519   4.780 -0.5621 -2.0354  0.5951
31268SOL    HW297721   6.805   1.534   4.878  0.4819 -0.3094  1.6101
31269SOL     OW97722   2.095   5.011   6.587  0.3534  0.4068  0.7137
31269SOL    HW197723   2.083   5.013   6.682 -1.4298 -1.5172  0.6121
31269SOL    HW297724   2.020   4.960   6.554  1.8498 -0.5245 -1.5508
31270SOL     OW97725  10.171   3.106   4.305  0.2314  0.8090 -0.4743
31270SOL    HW197726  10.107   3.100   4.234  0.8841 -1.0797 -0.9569
31270SOL    HW297727  10.253   3.077   4.266  1.2460  2.4137  0.3550
31271SOL     OW97728   5.377   4.551   5.062  0.1901  0.3467  0.1173
31271SOL    HW197729   5.352   4.633   5.103  0.8374  0.3370  0.5371
31271SOL    HW297730   5.349   4.484   5.125 -0.2709  0.2434 -0.1908
31272SOL     OW97731   8.221   0.143   4.032 -0.3220  0.6369 -0.0699
31272SOL    HW197732   8.163   0.208   4.071 -0.5860  1.5583 -1.9315
31272SOL    HW297733   8.164   0.087   3.980  0.0350 -0.5344  0.7617
31273SOL     OW97734   3.690   8.144   7.263  0.2849 -0.1571  0.5613
31273SOL    HW197735   3.704   8.229   7.221 -1.0965  0.1993  0.7742
31273SOL    HW297736   3.778   8.111   7.279  0.8579  1.2056  0.4133
31274SOL     OW97737   7.779   6.201   1.737 -0.4364  0.1851  0.6628
31274SOL    HW197738   7.823   6.232   1.815  0.5084 -0.5721  0.4431
31274SOL    HW297739   7.740   6.117   1.762  1.1084 -0.7922 -0.0385
31275SOL     OW97740   7.147   1.805   8.196 -0.4053  0.1865 -0.3617
31275SOL    HW197741   7.165   1.882   8.143  0.1299  0.6227  0.4249
31275SOL    HW297742   7.206   1.813   8.271 -2.5188  0.6810  1.3573
31276SOL     OW97743   2.819   4.177   5.096  0.0490  0.2464 -0.0105
31276SOL    HW197744   2.808   4.252   5.153  1.6163  0.5442 -0.0600
31276SOL    HW297745   2.873   4.209   5.023 -2.9431  0.2507 -2.4289
31277SOL     OW97746   9.801   6.409   4.014 -0.4163 -0.1050 -0.5392
31277SOL    HW197747   9.874   6.376   4.067 -0.7104  3.4351  2.4346
31277SOL    HW297748   9.841   6.472   3.954 -0.6628 -0.8561 -1.5320
31278SOL     OW97749   3.982   4.389   4.251  0.1395 -0.3510 -0.1279
31278SOL    HW197750   4.008   4.407   4.161  2.4066  0.5671  0.6539
31278SOL    HW297751   4.063   4.366   4.296 -0.3805  2.1469  2.3623
31279SOL     OW97752   5.968   9.687   2.107 -0.1035 -0.1194  0.5349
31279SOL    HW197753   5.874   9.671   2.094  0.2812 -1.8173 -0.5265
31279SOL    HW297754   6.009   9.653   2.028  1.7536 -3.5302  2.7091
31280SOL     OW97755   2.952   5.792   4.595 -0.1892  0.1924  0.2188
31280SOL    HW197756   2.961   5.742   4.675  0.4669  0.8575  0.5699
31280SOL    HW297757   2.875   5.754   4.551 -1.8438  1.1265  2.1300
31281SOL     OW97758   1.931   2.268   8.809 -0.8646 -0.1956 -0.2301
31281SOL    HW197759   1.962   2.206   8.744 -0.3490  0.1872 -0.3550
31281SOL    HW297760   1.921   2.351   8.761  1.3927  0.6008  0.5487
31282SOL     OW97761   3.253   3.884   2.217 -0.1166 -0.0244  0.1935
31282SOL    HW197762   3.272   3.949   2.150  0.9181 -2.0807 -1.6618
31282SOL    HW297763   3.178   3.919   2.265 -0.0914  2.1212 -1.2159
31283SOL     OW97764   2.185   8.404   4.005 -0.5747  0.0039 -0.5633
31283SOL    HW197765   2.138   8.487   4.000 -0.4255  0.1475  0.2990
31283SOL    HW297766   2.157   8.365   4.088  0.7674  0.0666 -0.0495
31284SOL     OW97767   2.460   5.345   5.324  0.0017  0.0108 -0.3172
31284SOL    HW197768   2.472   5.275   5.260 -0.9812  0.5755 -1.1461
31284SOL    HW297769   2.446   5.423   5.272 -1.4183  0.3865  0.5673
31285SOL     OW97770   3.473   7.356   9.567 -0.2022  0.0607 -0.5185
31285SOL    HW197771   3.378   7.363   9.573 -0.4049 -0.2160 -2.5992
31285SOL    HW297772   3.488   7.268   9.531  1.0407 -1.0894  2.4274
31286SOL     OW97773   5.675   1.475   9.753  0.4193  0.3084  0.0044
31286SOL    HW197774   5.698   1.384   9.733 -1.6396 -0.5967  1.2935
31286SOL    HW297775   5.754   1.525   9.735  2.0667 -1.9349  0.5382
31287SOL     OW97776   1.220   0.301   5.476 -0.0487  0.4406  0.6595
31287SOL    HW197777   1.213   0.334   5.386 -0.7680 -0.8961  0.1882
31287SOL    HW297778   1.312   0.308   5.498  0.3165 -0.1337 -0.5789
31288SOL     OW97779   5.758   7.968   3.405 -0.2714  0.1088 -0.1044
31288SOL    HW197780   5.699   8.042   3.398  0.5725  0.5929 -3.0660
31288SOL    HW297781   5.709   7.894   3.368 -0.2784 -0.3554  0.7738
31289SOL     OW97782   3.045   3.442   7.104  0.0814  0.1584  0.0196
31289SOL    HW197783   3.010   3.515   7.053  0.2532  0.2647  0.0534
31289SOL    HW297784   3.108   3.400   7.046 -0.5947 -0.4433 -0.2868
31290SOL     OW97785   4.366   5.836   7.578 -0.1279 -0.0865  0.4408
31290SOL    HW197786   4.337   5.855   7.489 -3.2966  1.9891  1.7649
31290SOL    HW297787   4.303   5.772   7.610 -0.0903  0.4979  1.7291
31291SOL     OW97788   2.964   2.989   5.856  0.1951  0.3011  0.5338
31291SOL    HW197789   2.969   3.021   5.766 -0.1087  2.8912  1.3606
31291SOL    HW297790   2.971   2.894   5.848 -2.2898  0.2133 -2.4290
31292SOL     OW97791   5.937   6.613   7.213  0.6518 -0.0909  0.4301
31292SOL    HW197792   5.889   6.546   7.166  0.5225  1.0304 -1.1246
31292SOL    HW297793   6.028   6.586   7.208  0.5455 -0.4200  0.2966
31293SOL     OW97794   9.592   3.444   5.129 -0.2375  0.4662 -0.1539
31293SOL    HW197795   9.559   3.388   5.199  1.9385 -0.2826  0.3460
31293SOL    HW297796   9.667   3.397   5.094  0.7024  2.3515 -0.8155
31294SOL     OW97797   7.685   6.716   9.005  0.4982 -0.1125  0.0264
31294SOL    HW197798   7.615   6.676   8.955  1.3535 -0.1669 -1.1778
31294SOL    HW297799   7.758   6.724   8.943  2.0138 -1.2625  1.5443
31295SOL     OW97800   4.888   8.952   2.200  0.4848  0.0350  0.0506
31295SOL    HW197801   4.891   8.937   2.294  0.2110 -0.3754 -0.0055
31295SOL    HW297802   4.963   8.904   2.165  0.9796  0.7371  0.1287
31296SOL     OW97803   6.431   0.740   5.907  0.5646  0.0104  0.0434
31296SOL    HW197804   6.406   0.656   5.945  1.0913 -1.2491 -2.2230
31296SOL    HW297805   6.352   0.772   5.865  0.7557 -0.1996 -0.4986
31297SOL     OW97806   8.493   5.852   5.353 -0.5022  0.3704 -0.2204
31297SOL    HW197807   8.492   5.756   5.354  0.3710  0.3518 -0.4365
31297SOL    HW297808   8.437   5.876   5.279 -0.0323 -0.0017 -0.7082
31298SOL     OW97809   4.478   3.080   8.289 -0.9273 -0.3273  0.0222
31298SOL    HW197810   4.539   3.007   8.293 -0.5610 -0.0435 -0.3412
31298SOL    HW297811   4.413   3.061   8.356 -1.4479 -1.5562 -0.7913
31299SOL     OW97812   7.627   8.736   7.832 -0.2079  0.2511 -0.1309
31299SOL    HW197813   7.611   8.750   7.739  0.4919  1.1745 -0.1281
31299SOL    HW297814   7.542   8.711   7.868 -0.3887 -0.5827 -1.0910
31300SOL     OW97815   8.944   8.406   4.939  0.2517 -0.1977  0.1310
31300SOL    HW197816   8.932   8.385   4.846  1.0495  1.5934 -0.4212
31300SOL    HW297817   8.999   8.484   4.939 -1.9076  1.4566  2.0126
31301SOL     OW97818   8.468   5.864   4.749  0.1226  0.1830 -0.0784
31301SOL    HW197819   8.383   5.820   4.747  0.4089 -0.4175  0.2791
31301SOL    HW297820   8.448   5.957   4.747 -0.5503  0.0455  0.1493
31302SOL     OW97821   9.051   7.499   4.119 -0.1935  0.7228  0.2567
31302SOL    HW197822   8.997   7.426   4.089 -1.2469  1.3798  0.4907
31302SOL    HW297823   9.059   7.556   4.043 -0.7754  1.1779  0.5365
31303SOL     OW97824   0.805   5.688   3.781  0.9396 -0.1764  0.3131
31303SOL    HW197825   0.764   5.770   3.752 -0.0814 -0.5204  0.7561
31303SOL    HW297826   0.896   5.712   3.799  0.4390  1.0783  1.3370
31304SOL     OW97827   1.300   5.109   1.471  0.0828 -0.3141 -0.0203
31304SOL    HW197828   1.235   5.074   1.532 -1.1469  0.7252 -0.6952
31304SOL    HW297829   1.364   5.039   1.462 -1.8390 -2.0805 -0.6725
31305SOL     OW97830   2.397  10.122   8.698 -0.1829 -0.1861  0.0593
31305SOL    HW197831   2.479  10.121   8.650  0.5131 -0.7751  1.2051
31305SOL    HW297832   2.358  10.207   8.679  0.2141 -0.2873 -1.2649
31306SOL     OW97833   2.067   3.232   0.260  1.0780  0.7596 -0.0431
31306SOL    HW197834   2.122   3.245   0.183  1.1700 -1.7047 -0.4699
31306SOL    HW297835   2.095   3.148   0.296 -0.8648  0.5117  1.0411
31307SOL     OW97836   2.156  10.057   3.289  0.3821 -0.0292  0.7450
31307SOL    HW197837   2.076  10.011   3.312  0.3957  0.2522  1.3776
31307SOL    HW297838   2.211  10.051   3.368  1.3457 -0.9938  0.0345
31308SOL     OW97839   8.853   7.338   3.986 -0.2203 -0.4010  0.1771
31308SOL    HW197840   8.842   7.248   4.016 -0.1735 -0.3679  0.2947
31308SOL    HW297841   8.792   7.347   3.912 -1.0748 -0.1792  0.8938
31309SOL     OW97842   8.791   2.394   0.942 -0.0989 -0.4989  0.1725
31309SOL    HW197843   8.783   2.408   1.036 -0.6307  1.7676 -0.1700
31309SOL    HW297844   8.739   2.315   0.925 -1.6726  0.2021  1.4984
31310SOL     OW97845  10.071   0.549   2.964 -0.5164  0.4193 -0.2623
31310SOL    HW197846  10.004   0.548   2.896 -1.1527  1.6619  0.3149
31310SOL    HW297847  10.127   0.473   2.944 -1.8065 -0.3692 -1.0297
31311SOL     OW97848   0.625   8.026   2.924 -0.4155  0.1259  0.1189
31311SOL    HW197849   0.667   7.971   2.990 -1.5005  0.5787  1.2194
31311SOL    HW297850   0.698   8.061   2.873  0.3057 -2.4215 -0.7285
31312SOL     OW97851   6.802   5.512   7.823 -0.1881  0.0311 -0.2988
31312SOL    HW197852   6.729   5.502   7.763 -0.4073  2.6236 -0.5765
31312SOL    HW297853   6.762   5.522   7.910 -0.0083 -1.0881 -0.0765
31313SOL     OW97854   8.017   2.696   9.143  0.4196 -0.0317  0.2839
31313SOL    HW197855   8.113   2.686   9.141  0.2973 -1.4692  0.3963
31313SOL    HW297856   7.995   2.693   9.236  0.4021  2.2252  0.4047
31314SOL     OW97857   2.011   0.826   5.887 -0.0123  0.5974  0.7699
31314SOL    HW197858   2.106   0.835   5.893  0.1403 -0.0772 -0.5053
31314SOL    HW297859   1.988   0.860   5.801 -0.7333 -0.7289  0.4101
31315SOL     OW97860   0.208   4.721   7.826 -0.1919 -0.2717 -0.0640
31315SOL    HW197861   0.192   4.794   7.766 -0.8226 -0.2867  0.0765
31315SOL    HW297862   0.213   4.762   7.913 -2.9130 -0.5985  0.3352
31316SOL     OW97863   2.059   3.213   7.499 -0.3343 -0.5557  0.2346
31316SOL    HW197864   2.118   3.256   7.437 -0.2457  1.2289  1.4859
31316SOL    HW297865   2.038   3.129   7.457  1.1698 -0.2168 -1.3398
31317SOL     OW97866   2.738   4.994   7.422 -0.0827 -0.8578  0.1497
31317SOL    HW197867   2.797   5.069   7.423 -0.3315 -0.6605  0.2928
31317SOL    HW297868   2.795   4.917   7.414  0.0596 -0.5538 -2.2932
31318SOL     OW97869   0.459   6.789   1.684 -0.3552 -0.0565 -0.2225
31318SOL    HW197870   0.515   6.786   1.606 -2.6668 -0.7526 -1.9532
31318SOL    HW297871   0.518   6.766   1.756  1.9319  0.8410 -1.6788
31319SOL     OW97872   0.112   9.591   2.468 -0.6146  0.1391 -0.0258
31319SOL    HW197873   0.141   9.500   2.467 -1.0120 -0.0167  0.9007
31319SOL    HW297874   0.138   9.627   2.383 -0.9344 -0.9885 -0.6118
31320SOL     OW97875   4.120   8.247   5.266 -0.7613  0.3105 -0.3478
31320SOL    HW197876   4.100   8.304   5.192 -0.0790 -0.3331 -1.0339
31320SOL    HW297877   4.127   8.160   5.229  1.0408  0.1795  0.2039
31321SOL     OW97878   0.211   7.140   0.549  0.2302 -0.3046 -0.6770
31321SOL    HW197879   0.289   7.122   0.602 -0.6225 -1.8790  0.1249
31321SOL    HW297880   0.233   7.109   0.462  0.2388 -1.5405 -0.2573
31322SOL     OW97881   6.646   1.249   7.181  0.1704  0.0446  0.2456
31322SOL    HW197882   6.740   1.236   7.182  0.2459  0.5060 -0.1603
31322SOL    HW297883   6.631   1.326   7.236 -0.0743 -0.6009  1.0999
31323SOL     OW97884   6.689   4.669   6.208 -0.2067  0.2514  0.6027
31323SOL    HW197885   6.759   4.686   6.271  0.5026  1.3746 -0.4426
31323SOL    HW297886   6.648   4.755   6.195  1.9566  0.9562 -3.0767
31324SOL     OW97887   5.567   0.108   6.681  0.5173  0.3742 -0.2541
31324SOL    HW197888   5.586   0.057   6.602  1.5310  0.3608 -0.0148
31324SOL    HW297889   5.481   0.077   6.709  0.2073  0.2721 -1.2652
31325SOL     OW97890   2.966   5.834   8.710  0.6037 -0.1833 -0.3718
31325SOL    HW197891   3.019   5.865   8.784 -0.0308  0.1104 -0.0303
31325SOL    HW297892   3.023   5.773   8.663  1.3897  0.4506 -0.2547
31326SOL     OW97893   4.671   3.820   6.113 -0.0360  0.1982 -0.3992
31326SOL    HW197894   4.663   3.764   6.035 -0.5328 -1.5717  0.8595
31326SOL    HW297895   4.691   3.759   6.184  0.4381  1.7772  0.8722
31327SOL     OW97896   7.107   4.872   4.343  0.1981 -0.1129  0.4280
31327SOL    HW197897   7.104   4.885   4.249  1.2755  2.2830  0.6292
31327SOL    HW297898   7.145   4.785   4.355 -1.7726 -1.3016 -1.2921
31328SOL     OW97899   3.834   9.219   7.934  0.1431 -0.1270 -0.0886
31328SOL    HW197900   3.858   9.283   7.866 -0.9677  2.6327  1.9221
31328SOL    HW297901   3.744   9.194   7.912  0.1777 -0.1024 -0.2600
31329SOL     OW97902   8.218   9.022   5.455 -0.4145  0.3636 -0.3367
31329SOL    HW197903   8.155   9.048   5.388  0.1893  0.3355 -0.9274
31329SOL    HW297904   8.283   8.970   5.408 -0.1718  0.0498  0.3387
31330SOL     OW97905   1.838   9.159   9.786 -0.5324  0.1204 -0.1497
31330SOL    HW197906   1.762   9.107   9.810 -0.1171  0.0753  1.1044
31330SOL    HW297907   1.910   9.095   9.779 -0.2666  0.3753  0.2552
31331SOL     OW97908   0.015   8.205   4.815  0.0590  0.7962  0.0138
31331SOL    HW197909  -0.047   8.270   4.848 -0.7922 -0.5480  1.1613
31331SOL    HW297910  -0.036   8.124   4.806  0.7874  0.5116 -2.5217
31332SOL     OW97911   4.679   5.063   9.801 -0.3278  0.8370  0.2974
31332SOL    HW197912   4.756   5.101   9.842 -1.3011  1.5413  1.5476
31332SOL    HW297913   4.634   5.017   9.872 -0.8869  0.1469 -0.4834
31333SOL     OW97914   6.156   6.638  10.191 -0.2627 -0.1274 -0.1051
31333SOL    HW197915   6.119   6.586  10.262 -0.8022 -0.5263 -0.6723
31333SOL    HW297916   6.130   6.728  10.212  1.6661  0.1209  1.5108
31334SOL     OW97917   8.062   0.632   1.910 -0.5229  0.4449 -0.4934
31334SOL    HW197918   8.109   0.698   1.859 -0.9655 -0.2547 -1.8448
31334SOL    HW297919   8.032   0.568   1.845 -1.9546  0.0280  0.5279
31335SOL     OW97920   6.211   0.027   6.098  0.3373 -0.0879  0.0499
31335SOL    HW197921   6.225  -0.052   6.046 -1.0779  0.6986 -1.6051
31335SOL    HW297922   6.260   0.095   6.052 -1.2459  0.6980 -0.5327
31336SOL     OW97923   6.209   2.180   1.116  0.4667  0.5442 -0.2132
31336SOL    HW197924   6.284   2.123   1.133  1.0242  0.5686 -2.2997
31336SOL    HW297925   6.211   2.245   1.186  0.5345 -1.2593  1.5150
31337SOL     OW97926   9.007   7.472   7.879 -0.0101  0.2074 -0.3705
31337SOL    HW197927   9.046   7.509   7.958  0.6077 -1.8754  0.3906
31337SOL    HW297928   8.913   7.471   7.896  0.0383  0.6795 -0.0761
31338SOL     OW97929   1.486   7.009   1.500  0.0830 -0.8616 -0.0416
31338SOL    HW197930   1.406   6.956   1.493  0.1761 -0.9467 -0.4679
31338SOL    HW297931   1.556   6.946   1.515  0.1253 -0.8177 -0.0535
31339SOL     OW97932   2.350   9.065   8.079  0.1684 -0.0930 -0.6079
31339SOL    HW197933   2.399   9.148   8.072  1.9339 -1.0112  0.1488
31339SOL    HW297934   2.258   9.091   8.072  0.6495  1.9779 -0.0725
31340SOL     OW97935   0.032   8.304   9.387  0.5862  0.1451  0.7430
31340SOL    HW197936   0.031   8.212   9.414 -1.6437 -0.0911  0.1310
31340SOL    HW297937   0.064   8.302   9.297 -1.6236 -0.3870 -0.0899
31341SOL     OW97938   2.529   7.316   0.264  0.1082  0.3037 -0.1224
31341SOL    HW197939   2.584   7.355   0.196 -1.1543  1.8275 -0.3232
31341SOL    HW297940   2.591   7.295   0.335  1.2325  0.0303 -1.1431
31342SOL     OW97941   2.473   3.874   8.435 -0.3385  0.5432 -0.3913
31342SOL    HW197942   2.547   3.907   8.485  0.4032  0.2853 -1.2784
31342SOL    HW297943   2.506   3.867   8.345 -1.4112  0.3326 -0.7871
31343SOL     OW97944   4.080   6.186   3.716 -0.5584  0.5444 -0.2062
31343SOL    HW197945   4.065   6.230   3.633 -0.4653 -0.0897 -0.5667
31343SOL    HW297946   4.122   6.251   3.772  0.6948  0.5437 -1.1193
31344SOL     OW97947   5.964   8.259  10.143 -0.3722 -0.5957  0.4949
31344SOL    HW197948   6.008   8.342  10.123  0.2564 -0.9693  0.2757
31344SOL    HW297949   5.900   8.248  10.073 -0.9531  0.0394  0.9094
31345SOL     OW97950   6.105   2.100   2.838 -0.4873  0.1579 -0.3021
31345SOL    HW197951   6.151   2.112   2.920  2.4881 -0.8170 -1.6913
31345SOL    HW297952   6.137   2.170   2.781 -0.1788 -0.9348 -1.5325
31346SOL     OW97953   4.697   6.976   8.222  0.1779  0.0383  0.7977
31346SOL    HW197954   4.752   7.039   8.177  1.8379 -1.8657  0.0355
31346SOL    HW297955   4.622   6.963   8.164  0.9595 -0.3540 -0.1490
31347SOL     OW97956   3.913   1.613   8.733 -0.0595  0.1312  0.1671
31347SOL    HW197957   3.835   1.572   8.772  0.2552  0.2323  0.9109
31347SOL    HW297958   3.881   1.694   8.695 -0.4044 -0.0583  0.0463
31348SOL     OW97959   9.106   5.865   1.414  0.0870 -0.3058  0.0566
31348SOL    HW197960   9.096   5.950   1.456  1.3827 -0.2293  0.2525
31348SOL    HW297961   9.198   5.843   1.427 -0.4240 -2.1590  0.7778
31349SOL     OW97962   6.248   0.609   3.224 -0.2660 -0.2850 -0.0563
31349SOL    HW197963   6.235   0.542   3.292  0.9023 -0.7245 -0.2512
31349SOL    HW297964   6.321   0.662   3.256 -1.4492  1.2147  0.3069
31350SOL     OW97965   9.547   0.727   6.752  0.5210  0.0306  0.0580
31350SOL    HW197966   9.602   0.657   6.716  2.5634  1.4507  0.2355
31350SOL    HW297967   9.607   0.801   6.763 -1.4572  1.6782  0.3051
31351SOL     OW97968   8.892   7.914   4.255 -0.0451  0.3877 -0.4177
31351SOL    HW197969   8.968   7.915   4.313  0.8386  0.3904 -1.5276
31351SOL    HW297970   8.861   7.823   4.257 -0.1145  0.4211  0.1613
31352SOL     OW97971   1.931   5.385   1.600 -0.1166  0.3121 -0.5915
31352SOL    HW197972   1.956   5.443   1.672 -0.1701 -1.7071  1.1632
31352SOL    HW297973   1.856   5.336   1.634  1.2396 -2.2947 -1.0650
31353SOL     OW97974   8.349   5.411   4.725  0.2686  0.2082 -0.1413
31353SOL    HW197975   8.401   5.417   4.645 -0.1029  0.6416 -0.3563
31353SOL    HW297976   8.412   5.390   4.793  0.9172  1.8543 -0.2002
31354SOL     OW97977   6.026   6.213   6.353 -0.4761  0.0106 -0.3107
31354SOL    HW197978   6.112   6.176   6.370 -1.2288 -1.6552  0.1337
31354SOL    HW297979   6.028   6.238   6.261  0.3701 -0.3080 -0.3873
31355SOL     OW97980   5.396   0.379   2.698  0.1358 -1.0413  0.2425
31355SOL    HW197981   5.357   0.294   2.677  0.0241 -0.7695 -0.6980
31355SOL    HW297982   5.408   0.378   2.793 -0.7505 -1.7278  0.3516
31356SOL     OW97983   5.486   4.171   7.243 -0.1692 -0.0750  0.1690
31356SOL    HW197984   5.450   4.196   7.328  2.1057  0.6372  0.9839
31356SOL    HW297985   5.485   4.075   7.243 -0.0194 -0.0834  1.0757
31357SOL     OW97986   5.030   4.411   6.387  0.2073  0.5371  0.3846
31357SOL    HW197987   5.058   4.430   6.476 -0.9725  2.1886  0.4283
31357SOL    HW297988   4.956   4.469   6.371  0.5158  0.4324 -1.7451
31358SOL     OW97989   5.662   3.445   6.083 -0.3335  0.5051  0.1267
31358SOL    HW197990   5.697   3.401   6.161 -0.8055  0.7054  0.4580
31358SOL    HW297991   5.573   3.469   6.108 -0.7538 -0.1035 -0.7405
31359SOL     OW97992   7.272   3.790   6.664 -0.0301 -0.0190  0.6915
31359SOL    HW197993   7.273   3.778   6.759 -3.0678  1.5919  1.0604
31359SOL    HW297994   7.301   3.880   6.651  0.2032 -0.1777  0.0871
31360SOL     OW97995   7.140   4.112   3.387  0.2486  0.2058  0.3110
31360SOL    HW197996   7.059   4.091   3.434 -0.2078  2.5410  0.7301
31360SOL    HW297997   7.210   4.089   3.449 -0.2322  0.6264  1.0295
31361SOL     OW97998   4.987   7.712   2.334  0.4826 -0.3257 -0.3129
31361SOL    HW197999   4.960   7.794   2.375  1.8765 -0.9960  2.1229
31361SOL    HW298000   5.034   7.739   2.255 -0.5588  1.1132 -0.4797
31362SOL     OW98001   4.930   3.285   8.702  0.3598 -0.0709 -0.4259
31362SOL    HW198002   4.856   3.243   8.659  1.7929 -2.2067 -0.9683
31362SOL    HW298003   4.938   3.239   8.785  3.1215 -2.4028 -1.8204
31363SOL     OW98004   0.244   8.818   3.023 -0.2196 -0.4211  0.4321
31363SOL    HW198005   0.166   8.871   3.003 -0.0701 -0.9178 -1.7268
31363SOL    HW298006   0.216   8.728   3.010  0.6264 -0.6202 -0.0949
31364SOL     OW98007   8.948   0.459   7.215  0.6026  0.2526 -0.3993
31364SOL    HW198008   8.911   0.438   7.129  0.6491  0.3486 -0.4427
31364SOL    HW298009   8.983   0.375   7.247 -2.3760 -0.5934  1.0107
31365SOL     OW98010   3.204   0.691   8.532 -0.0166  0.1993  0.1148
31365SOL    HW198011   3.142   0.624   8.563  1.6451  0.4970  4.8505
31365SOL    HW298012   3.285   0.642   8.516  0.0799  0.5696 -0.5502
31366SOL     OW98013   2.643   3.010   1.622 -0.2322  0.1361  0.2825
31366SOL    HW198014   2.697   2.987   1.546 -0.5926  0.2878 -0.0243
31366SOL    HW298015   2.696   2.986   1.698 -0.0316 -0.3827 -0.0216
31367SOL     OW98016   0.671   0.168   7.122 -0.0560 -0.5993 -0.2392
31367SOL    HW198017   0.713   0.085   7.100  0.5228 -0.5620  0.6948
31367SOL    HW298018   0.716   0.198   7.201 -1.7738 -0.5112  0.7554
31368SOL     OW98019   7.489   7.241   3.450  0.4528  0.4540 -0.1260
31368SOL    HW198020   7.522   7.311   3.394 -2.3017  0.6442 -1.7114
31368SOL    HW298021   7.447   7.286   3.523  0.9339  0.3267  0.2369
31369SOL     OW98022   8.215   7.971   3.253  0.0543  0.3741 -0.1424
31369SOL    HW198023   8.168   7.996   3.173  1.1917  2.0099 -0.3577
31369SOL    HW298024   8.146   7.952   3.316 -0.8803 -1.2929 -1.5721
31370SOL     OW98025   1.889   3.541   2.858  0.1270  0.1477 -0.0275
31370SOL    HW198026   1.887   3.626   2.814 -1.4951  0.2360  0.1819
31370SOL    HW298027   1.803   3.532   2.897  0.3047 -1.5766  0.0258
31371SOL     OW98028   5.385   3.342   4.693  0.5734  0.0053 -0.8095
31371SOL    HW198029   5.308   3.285   4.697  0.5346  0.1008  0.2932
31371SOL    HW298030   5.371   3.396   4.615 -1.0038  0.7429 -0.0695
31372SOL     OW98031   2.929   3.126   7.582 -0.5548 -0.5041  0.4172
31372SOL    HW198032   2.954   3.050   7.530  0.6530  0.4312 -0.4246
31372SOL    HW298033   2.934   3.200   7.522  1.3141  0.6887  1.9032
31373SOL     OW98034   4.980   5.224   6.069  0.4228  0.3455  0.0156
31373SOL    HW198035   4.985   5.281   5.992  1.2096  0.3102  0.0375
31373SOL    HW298036   4.886   5.215   6.086  0.2165  0.0061 -1.2078
31374SOL     OW98037   2.213   6.105   6.705  0.2483  0.1301  0.0849
31374SOL    HW198038   2.142   6.160   6.737 -0.0828 -0.4954  0.4462
31374SOL    HW298039   2.289   6.163   6.701 -0.0872  0.6008  0.4965
31375SOL     OW98040   7.691   2.938   8.731  0.1247 -0.6851 -0.5618
31375SOL    HW198041   7.727   2.934   8.820 -0.8884 -2.7487 -0.1728
31375SOL    HW298042   7.690   2.847   8.702 -3.3904 -0.6397 -1.0616
31376SOL     OW98043   3.823   2.577   1.403  0.3706  0.5825  0.3757
31376SOL    HW198044   3.860   2.502   1.356  1.1484  0.1746  1.6003
31376SOL    HW298045   3.893   2.642   1.404  0.0934  0.8818  0.3209
31377SOL     OW98046   5.185   4.637   3.259  0.7320  0.5250  0.3404
31377SOL    HW198047   5.213   4.726   3.278 -1.2933  1.2501  0.1432
31377SOL    HW298048   5.245   4.582   3.310  2.5955  1.9251 -0.2444
31378SOL     OW98049   2.538   8.900   6.372  0.7158 -0.0157 -0.0557
31378SOL    HW198050   2.533   8.938   6.284  1.5311  1.7907  0.6234
31378SOL    HW298051   2.598   8.826   6.363 -0.2348 -0.6718 -1.2581
31379SOL     OW98052   0.543   1.764   2.200 -0.4848 -0.1541 -0.3393
31379SOL    HW198053   0.570   1.811   2.279 -0.7083 -1.0001  0.2465
31379SOL    HW298054   0.447   1.763   2.204 -0.5289  0.3820 -0.9735
31380SOL     OW98055   1.167   9.128   4.084 -0.1003  0.1737 -0.9609
31380SOL    HW198056   1.169   9.218   4.117 -0.5505  0.0001 -0.4576
31380SOL    HW298057   1.254   9.115   4.046  1.6583 -0.6200  2.8523
31381SOL     OW98058   2.177   1.142   2.956 -0.4846 -0.6036  0.5599
31381SOL    HW198059   2.209   1.063   2.913 -0.1313 -1.0044  1.5402
31381SOL    HW298060   2.083   1.126   2.969 -0.1208 -1.5834  2.2325
31382SOL     OW98061   9.007   0.893   4.034  0.1258 -0.3483 -0.1319
31382SOL    HW198062   8.977   0.968   4.085  0.3997 -1.2001  1.3694
31382SOL    HW298063   9.057   0.840   4.097  0.2322 -1.6076 -1.2246
31383SOL     OW98064   7.930   8.287   6.337  0.1671  0.1265 -0.1744
31383SOL    HW198065   7.996   8.238   6.386  0.2827  1.3334  0.9351
31383SOL    HW298066   7.964   8.289   6.248  1.1133 -0.1808  0.1602
31384SOL     OW98067   5.799   8.206   9.889 -0.1314 -0.9705  0.1117
31384SOL    HW198068   5.876   8.150   9.894  0.7563  0.3267  1.9220
31384SOL    HW298069   5.760   8.185   9.804  0.8953 -3.3257  0.1371
31385SOL     OW98070   3.345   4.580   0.858  0.5507 -0.5142  0.7513
31385SOL    HW198071   3.332   4.633   0.780 -0.2008  0.9329  1.8094
31385SOL    HW298072   3.439   4.564   0.862  0.8743  1.2266  0.6757
31386SOL     OW98073   2.230   5.573   1.026  0.1788  0.0513  0.0635
31386SOL    HW198074   2.206   5.637   1.093 -0.5039 -0.5751  0.4234
31386SOL    HW298075   2.321   5.550   1.046  0.2714  0.5419  0.2225
31387SOL     OW98076   6.602   6.534   9.124  0.6603 -0.0858 -0.4469
31387SOL    HW198077   6.648   6.618   9.112 -1.8753  1.6652  1.2046
31387SOL    HW298078   6.522   6.542   9.072  0.3920 -1.5468 -0.3145
31388SOL     OW98079   8.225   8.573   0.466 -0.1012 -0.0583  0.5856
31388SOL    HW198080   8.227   8.637   0.395  0.1790 -0.0664  0.5847
31388SOL    HW298081   8.315   8.569   0.498 -0.2191 -0.0670  0.9304
31389SOL     OW98082   0.291   3.166   7.049  0.3888  0.6845 -0.0781
31389SOL    HW198083   0.213   3.221   7.061  0.2168  1.0804 -2.5311
31389SOL    HW298084   0.359   3.226   7.020  0.9476 -0.0015 -0.2145
31390SOL     OW98085   2.674   5.481   9.615 -0.2097  0.2077  0.3438
31390SOL    HW198086   2.743   5.438   9.564 -1.5464  0.9638 -2.2582
31390SOL    HW298087   2.708   5.569   9.631 -0.1013  0.2153  0.0821
31391SOL     OW98088  10.131   7.266   4.866 -0.3774 -0.5280  0.7703
31391SOL    HW198089  10.227   7.263   4.864 -0.3422 -0.1122  1.4699
31391SOL    HW298090  10.104   7.174   4.861 -0.0517 -0.5630 -2.3506
31392SOL     OW98091   6.397   8.850   2.072 -0.4175  0.2465  0.2538
31392SOL    HW198092   6.413   8.943   2.091  2.5405 -0.1115  0.1169
31392SOL    HW298093   6.389   8.810   2.159 -2.6375  0.7087  0.3003
31393SOL     OW98094   4.805   4.378   9.140  0.7455 -0.0439  0.1777
31393SOL    HW198095   4.755   4.416   9.212  0.2689  0.5442 -0.4492
31393SOL    HW298096   4.741   4.324   9.094  0.9678 -0.1603  0.0102
31394SOL     OW98097   4.484   1.848   4.778 -0.1719 -0.0522  0.1113
31394SOL    HW198098   4.501   1.823   4.869  0.5246  1.6806  0.4968
31394SOL    HW298099   4.391   1.870   4.776 -0.4890 -1.2902  0.0679
31395SOL     OW98100   7.045   4.447   0.541  0.0440  0.1668  0.3395
31395SOL    HW198101   6.996   4.456   0.622 -1.1751  0.9109 -0.4489
31395SOL    HW298102   7.103   4.372   0.556 -1.9031 -1.3109  1.0527
31396SOL     OW98103   4.356   6.696   4.985 -0.0099 -0.5471  0.3089
31396SOL    HW198104   4.385   6.611   5.019 -0.2081 -1.3650 -1.4540
31396SOL    HW298105   4.311   6.738   5.059 -0.8071 -2.4064  0.9345
31397SOL     OW98106   7.165   8.729   0.367  0.2954 -0.5768 -0.3037
31397SOL    HW198107   7.086   8.754   0.416  0.3606  1.4693 -1.1312
31397SOL    HW298108   7.138   8.730   0.275  1.1445 -0.4472 -0.5619
31398SOL     OW98109   0.043   3.834   5.231  0.4516 -0.1198  0.3208
31398SOL    HW198110   0.078   3.847   5.143  0.4437  0.4151  0.3920
31398SOL    HW298111   0.100   3.768   5.270  1.3892  0.7486  0.4400
31399SOL     OW98112   8.077   2.242   8.345 -0.2255 -0.0531 -0.0641
31399SOL    HW198113   7.983   2.252   8.355 -0.2705 -0.3553 -0.1681
31399SOL    HW298114   8.090   2.229   8.251  0.0251  1.0522 -0.1929
31400SOL     OW98115   2.091   9.917   5.195  0.3694 -0.3985  0.1198
31400SOL    HW198116   2.071   9.976   5.121 -3.9324 -1.8383 -0.1433
31400SOL    HW298117   2.182   9.936   5.216  0.5367  3.2021 -2.7299
31401SOL     OW98118   8.802   5.481   1.539  0.0030 -0.2709 -0.3338
31401SOL    HW198119   8.771   5.468   1.449 -1.8176  0.1555  0.1733
31401SOL    HW298120   8.838   5.570   1.540 -0.7515  0.0478 -0.4710
31402SOL     OW98121   8.272   8.842   4.000  0.0029 -0.5505 -0.4934
31402SOL    HW198122   8.268   8.938   3.999  0.1342 -0.5174  0.6047
31402SOL    HW298123   8.234   8.818   4.085  3.2416 -1.2691  0.9079
31403SOL     OW98124   9.826   2.610   3.484 -0.1403  0.0597 -0.0424
31403SOL    HW198125   9.828   2.597   3.390 -0.3795  1.6610 -0.3090
31403SOL    HW298126   9.918   2.614   3.511 -0.0440  1.0945 -0.4728
31404SOL     OW98127   7.160   7.209   8.697 -0.0002  0.3683  0.2714
31404SOL    HW198128   7.070   7.179   8.686  0.0078  0.2339  0.5790
31404SOL    HW298129   7.212   7.143   8.651 -0.0770  0.6084 -0.1714
31405SOL     OW98130   9.352   0.831   6.543 -0.1516 -0.4856 -0.0595
31405SOL    HW198131   9.421   0.825   6.609  0.7566 -1.9482 -1.0834
31405SOL    HW298132   9.377   0.767   6.476 -0.8454  1.1579 -2.0087
31406SOL     OW98133   8.269   0.095   0.393 -0.0535  0.1060  0.1341
31406SOL    HW198134   8.261  -0.001   0.398  0.9906  0.0199  0.6704
31406SOL    HW298135   8.277   0.114   0.300 -2.6665 -0.0708 -0.1815
31407SOL     OW98136   2.318   6.832   0.758 -0.1720  0.4794  0.2339
31407SOL    HW198137   2.381   6.885   0.806  0.7235  1.1431 -1.5884
31407SOL    HW298138   2.297   6.884   0.681 -1.6829 -0.4755 -0.0359
31408SOL     OW98139   2.851   8.827   8.565 -0.2234  0.4338  0.0296
31408SOL    HW198140   2.822   8.898   8.508  0.2807 -0.0132 -0.7874
31408SOL    HW298141   2.887   8.761   8.506 -0.2476 -0.3016  0.8175
31409SOL     OW98142   5.115   9.163   9.064  0.1394  0.0669 -0.0176
31409SOL    HW198143   5.191   9.171   9.121  0.2128 -0.3222 -0.0597
31409SOL    HW298144   5.145   9.110   8.990 -0.0377  0.3209 -0.2764
31410SOL     OW98145   1.660  10.182   2.762 -0.0045  0.3783 -0.2709
31410SOL    HW198146   1.595  10.160   2.828 -1.4577  0.8585 -1.4909
31410SOL    HW298147   1.648  10.116   2.694  0.3126  0.8729 -0.8127
31411SOL     OW98148   7.637   8.662   7.219  0.3492  0.7930  0.5996
31411SOL    HW198149   7.616   8.602   7.290  1.8600 -0.1455  0.3225
31411SOL    HW298150   7.708   8.618   7.172 -1.9154  0.3685 -2.7612
31412SOL     OW98151   6.449   3.780   2.741 -0.1432  0.4700 -0.7956
31412SOL    HW198152   6.475   3.827   2.820 -1.5384  0.2568 -0.1895
31412SOL    HW298153   6.531   3.744   2.707  0.5856  1.1874  0.1240
31413SOL     OW98154   2.512   4.010   8.719 -0.7775 -0.5000 -0.2866
31413SOL    HW198155   2.507   4.071   8.645 -3.1380 -1.0132 -0.6408
31413SOL    HW298156   2.556   4.060   8.787  0.3785  0.4168 -1.6396
31414SOL     OW98157   0.699   9.926   4.105 -0.0629  0.4291  0.1404
31414SOL    HW198158   0.648   9.980   4.045  1.5702  1.2684 -0.5638
31414SOL    HW298159   0.707   9.841   4.061  0.7973  0.9193 -0.6926
31415SOL     OW98160   4.302   7.034   9.624 -0.1662  0.2858  0.1452
31415SOL    HW198161   4.299   7.051   9.530 -0.6840 -2.2200 -0.3751
31415SOL    HW298162   4.213   7.009   9.646  0.3946 -1.2145  0.8271
31416SOL     OW98163   4.199   7.418   4.078 -0.7372 -0.3935  0.3162
31416SOL    HW198164   4.276   7.425   4.021 -1.2606  0.4111 -0.3153
31416SOL    HW298165   4.220   7.474   4.153 -1.0288  0.5158 -0.2557
31417SOL     OW98166   2.563   0.148   2.276  0.0422  0.1758  0.6084
31417SOL    HW198167   2.563   0.126   2.369  1.5654 -1.6800  0.2392
31417SOL    HW298168   2.613   0.230   2.270  2.1271 -0.9744  1.2410
31418SOL     OW98169   3.615   9.883   7.846 -0.3654  0.3146 -0.0889
31418SOL    HW198170   3.656   9.821   7.907 -1.5233  1.1536  1.6096
31418SOL    HW298171   3.648   9.856   7.760 -1.9988 -3.6814  0.3103
31419SOL     OW98172   6.976   1.128   1.962  0.2514  0.1494 -0.2027
31419SOL    HW198173   7.029   1.192   1.914 -0.3704  0.6499 -0.2345
31419SOL    HW298174   6.888   1.137   1.926  0.0912 -0.5359 -0.0121
31420SOL     OW98175   0.663   6.414   5.614 -0.3185  0.2558 -0.0129
31420SOL    HW198176   0.759   6.408   5.616 -0.3778 -1.3067 -0.8164
31420SOL    HW298177   0.645   6.502   5.581  0.8473  0.3673 -0.3834
31421SOL     OW98178   1.824   3.119   2.211 -0.2458  1.3117  0.3236
31421SOL    HW198179   1.847   3.172   2.134  2.7294  0.4931  0.5374
31421SOL    HW298180   1.848   3.174   2.286 -1.6566  1.4833  0.6785
31422SOL     OW98181   0.820   5.677   3.347  0.0148  0.1693 -0.5557
31422SOL    HW198182   0.736   5.646   3.382  0.1352 -0.3032 -0.6748
31422SOL    HW298183   0.866   5.712   3.423  0.5637 -1.4850 -0.0802
31423SOL     OW98184   6.927   8.455   9.520  0.1454 -0.0457 -0.1829
31423SOL    HW198185   6.973   8.512   9.458  0.0637  0.3626  0.1228
31423SOL    HW298186   6.992   8.437   9.589 -0.4547  1.4372  0.8206
31424SOL     OW98187   9.033   6.296   2.898  0.1831 -0.4679 -0.3364
31424SOL    HW198188   8.997   6.279   2.811  1.4819  0.3301 -1.0645
31424SOL    HW298189   9.123   6.264   2.894  0.6149  0.5841  0.3474
31425SOL     OW98190   4.679   4.160   4.423  0.6107  0.5595  0.1870
31425SOL    HW198191   4.644   4.076   4.393 -0.7443  0.9853  0.4936
31425SOL    HW298192   4.608   4.222   4.408  1.1358  1.4180  1.1166
31426SOL     OW98193   7.784  10.145   4.199  0.0126  0.0558 -0.1620
31426SOL    HW198194   7.741  10.154   4.284  1.0082 -2.2806  0.6859
31426SOL    HW298195   7.773  10.230   4.157 -2.0991  0.7058  1.5388
31427SOL     OW98196   3.684   0.971   2.560  0.0835 -0.5016  0.2139
31427SOL    HW198197   3.637   1.033   2.616  0.1753 -0.6270  0.4336
31427SOL    HW298198   3.758   0.942   2.614 -0.1685 -1.0846  0.2600
31428SOL     OW98199   0.522   0.465   8.605  0.2783 -0.4571  0.5000
31428SOL    HW198200   0.500   0.471   8.513 -0.6544  0.3777  0.7623
31428SOL    HW298201   0.492   0.378   8.632  0.9899 -0.8887 -0.0824
31429SOL     OW98202   0.751   1.740   9.368 -0.0607  0.1327  0.9038
31429SOL    HW198203   0.662   1.762   9.340  0.5656  0.5479 -0.9173
31429SOL    HW298204   0.801   1.821   9.357  0.3664  0.1766  2.8344
31430SOL     OW98205  10.123   2.217   1.922 -0.1807 -0.6083 -0.0101
31430SOL    HW198206  10.088   2.282   1.860  1.7891  2.8884  2.1978
31430SOL    HW298207  10.199   2.180   1.878 -0.5230 -0.3739 -0.8138
31431SOL     OW98208   3.397   8.175   9.120  0.3821 -0.2916 -0.0605
31431SOL    HW198209   3.455   8.249   9.140 -0.3615 -0.6128  4.1925
31431SOL    HW298210   3.310   8.214   9.111  0.3164 -0.4384 -0.0746
31432SOL     OW98211   7.759   0.856   2.286  0.2956 -0.8448 -0.5498
31432SOL    HW198212   7.748   0.942   2.326 -2.8780 -1.8647  1.1680
31432SOL    HW298213   7.736   0.868   2.194  1.1544  0.3465 -0.6225
31433SOL     OW98214   8.622   1.178   2.500 -0.0665  1.0716  0.0134
31433SOL    HW198215   8.628   1.202   2.407 -0.8575  1.3137  0.0131
31433SOL    HW298216   8.665   1.249   2.546 -1.0080  1.7158 -0.0842
31434SOL     OW98217   5.801   1.991   3.377  0.0341  0.3919  0.1883
31434SOL    HW198218   5.791   2.046   3.299 -1.1004  1.4180  1.0251
31434SOL    HW298219   5.796   1.901   3.343  0.1308  0.8102 -0.9866
31435SOL     OW98220   9.532   1.246   0.187  0.3967 -0.0228 -0.6974
31435SOL    HW198221   9.543   1.338   0.208  1.0644  0.0202 -1.1983
31435SOL    HW298222   9.499   1.206   0.267  0.5958  0.5601 -0.3251
31436SOL     OW98223   1.409   2.829   2.144 -0.0781  0.0176  0.6239
31436SOL    HW198224   1.334   2.881   2.174 -0.6009  0.0017 -0.5795
31436SOL    HW298225   1.405   2.834   2.048 -0.8891 -3.2369  0.3583
31437SOL     OW98226  10.073   0.318   5.268  0.0465  0.4141  0.4346
31437SOL    HW198227  10.043   0.347   5.182  0.8957  0.3451  0.1099
31437SOL    HW298228  10.118   0.235   5.252  0.8957  0.7858  0.8235
31438SOL     OW98229   9.554   2.883   6.136 -0.1643  0.5380  0.3778
31438SOL    HW198230   9.541   2.790   6.156  1.6994  0.0120 -0.6519
31438SOL    HW298231   9.579   2.921   6.220 -1.2132  0.1882  0.8684
31439SOL     OW98232   3.116   9.021   1.157 -0.4593  0.4315 -0.1207
31439SOL    HW198233   3.202   9.021   1.114 -0.3146 -0.5408  0.1457
31439SOL    HW298234   3.131   9.067   1.240  0.1462 -0.9541  0.5578
31440SOL     OW98235   1.287   0.957   5.833  0.4869  0.2567 -0.6668
31440SOL    HW198236   1.253   0.885   5.781  2.3646 -0.8664 -0.4611
31440SOL    HW298237   1.330   0.914   5.907  0.4717  1.6740  0.2033
31441SOL     OW98238   8.931   0.033   3.561  0.2286 -0.1596  0.2404
31441SOL    HW198239   8.993   0.105   3.568 -1.4666  1.2227  1.7557
31441SOL    HW298240   8.973  -0.039   3.609  1.2195  0.3122  0.1162
31442SOL     OW98241   5.853   2.248   9.006 -0.3865  0.3214 -0.3741
31442SOL    HW198242   5.800   2.209   9.075  2.0829  0.3164  1.6342
31442SOL    HW298243   5.913   2.178   8.979  1.5088  1.5093  0.5489
31443SOL     OW98244   8.610   4.559   0.875 -0.1403 -0.1298 -0.2463
31443SOL    HW198245   8.571   4.519   0.953 -0.1295 -0.2565 -0.3059
31443SOL    HW298246   8.545   4.544   0.806 -0.2908  0.2614 -0.1883
31444SOL     OW98247   7.834   8.700   2.935 -0.3260  0.1109 -0.0479
31444SOL    HW198248   7.742   8.713   2.958 -0.1544  1.3029  0.0214
31444SOL    HW298249   7.831   8.652   2.851 -0.9719 -1.1495  0.6665
31445SOL     OW98250   9.549   8.916   2.656  0.1645  0.5498 -0.0312
31445SOL    HW198251   9.548   8.821   2.664  0.6885  0.5705  0.3570
31445SOL    HW298252   9.609   8.945   2.725 -1.4519  1.2875  1.1440
31446SOL     OW98253   3.975   5.274   6.451  0.3044  0.4173 -0.5025
31446SOL    HW198254   3.951   5.358   6.490  0.8863  0.2706  0.1966
31446SOL    HW298255   4.019   5.226   6.521 -1.1349 -0.9951 -0.4963
31447SOL     OW98256   4.788   9.345   0.417  0.2607  0.8204 -0.0750
31447SOL    HW198257   4.767   9.354   0.324  0.1450  0.0882 -0.1312
31447SOL    HW298258   4.879   9.314   0.417 -0.0690 -0.1783  0.0113
31448SOL     OW98259   1.219   4.104   2.382  0.5697 -0.1734  0.6708
31448SOL    HW198260   1.243   4.147   2.464  0.0422  0.6944  0.3878
31448SOL    HW298261   1.126   4.082   2.392  0.7109 -0.8126  0.6188
31449SOL     OW98262   9.135   0.067   0.136 -0.3137 -0.0694 -0.1846
31449SOL    HW198263   9.164   0.153   0.108  0.3870 -0.4923 -0.7983
31449SOL    HW298264   9.198   0.041   0.203  0.0255 -0.4817 -0.6549
31450SOL     OW98265   2.507   8.979   6.775 -0.4358 -0.3068  0.6011
31450SOL    HW198266   2.506   9.054   6.834  1.6415 -0.0424  0.3851
31450SOL    HW298267   2.558   8.913   6.822  0.4212 -0.4278 -0.4550
31451SOL     OW98268   8.783   1.194   3.133 -0.2340  0.1260  0.2051
31451SOL    HW198269   8.721   1.246   3.183  1.5026  0.1478  2.5092
31451SOL    HW298270   8.835   1.258   3.085  0.1428  0.3671  0.9140
31452SOL     OW98271   0.415   4.402   9.737  0.2753  0.1560  0.5334
31452SOL    HW198272   0.463   4.376   9.816 -3.3016 -0.2952  2.7974
31452SOL    HW298273   0.360   4.475   9.766 -2.4782 -1.1702 -0.9377
31453SOL     OW98274   8.694   0.807   9.646 -0.3977 -0.4561  0.6078
31453SOL    HW198275   8.683   0.815   9.741  1.6092 -2.0610  1.0437
31453SOL    HW298276   8.789   0.804   9.633 -0.5988  0.5976 -1.5675
31454SOL     OW98277   1.396   8.829   4.918 -0.6667  0.0806 -0.6593
31454SOL    HW198278   1.416   8.873   4.836  2.0529 -0.3626 -0.3500
31454SOL    HW298279   1.465   8.763   4.927 -2.8819 -2.2765  0.3169
31455SOL     OW98280   6.094   4.663   5.251  0.7567 -0.0476 -0.4670
31455SOL    HW198281   6.082   4.642   5.344  1.0901  0.2494 -0.3508
31455SOL    HW298282   6.007   4.690   5.221  0.2262 -1.9403 -0.7307
31456SOL     OW98283   7.724   0.451   8.175 -0.7527 -0.0076 -0.3527
31456SOL    HW198284   7.631   0.426   8.174 -0.2699 -1.9181 -1.3000
31456SOL    HW298285   7.770   0.372   8.203  0.4864  1.5342  2.3466
31457SOL     OW98286   2.652   4.456   1.182 -0.4533  0.1361  0.4149
31457SOL    HW198287   2.598   4.462   1.104  0.5090  1.1509 -0.1966
31457SOL    HW298288   2.737   4.490   1.156  0.6649 -1.8357  1.2273
31458SOL     OW98289   0.613   5.950   7.904 -0.7518 -0.4813 -0.3178
31458SOL    HW198290   0.531   5.999   7.907 -0.9473 -0.7701 -0.7617
31458SOL    HW298291   0.587   5.862   7.876 -0.0857 -0.0642 -2.4832
31459SOL     OW98292   7.569   2.495   0.798 -0.5522  0.2265 -0.3019
31459SOL    HW198293   7.618   2.557   0.852 -1.2622  1.2511 -0.7967
31459SOL    HW298294   7.492   2.473   0.851 -0.2075 -0.3847 -0.0501
31460SOL     OW98295   4.030   0.591   4.153 -0.1672 -0.3031  0.3430
31460SOL    HW198296   3.940   0.617   4.172  0.0974  1.5267 -0.6825
31460SOL    HW298297   4.082   0.637   4.219  0.1664  0.3283 -0.3471
31461SOL     OW98298   3.446   6.880   9.836  0.5160 -0.5204  0.0463
31461SOL    HW198299   3.417   6.942   9.769  1.2820 -1.0531 -0.8046
31461SOL    HW298300   3.393   6.801   9.820 -0.0328 -0.3047  0.7436
31462SOL     OW98301   9.134   7.787   7.180 -0.8067 -0.0411 -0.2757
31462SOL    HW198302   9.092   7.717   7.230  0.3069 -0.3908  0.1945
31462SOL    HW298303   9.065   7.852   7.167 -1.0419  0.2326  2.0449
31463SOL     OW98304   8.809   4.448   9.702 -0.6343 -0.3589  0.4813
31463SOL    HW198305   8.897   4.453   9.665 -0.3160  0.1388  1.2934
31463SOL    HW298306   8.803   4.360   9.739 -0.0156  0.0411  1.5537
31464SOL     OW98307   7.061   6.314   9.391  0.0594 -0.3340 -0.2165
31464SOL    HW198308   7.093   6.228   9.364 -0.0325 -0.4468  0.0327
31464SOL    HW298309   6.986   6.332   9.333 -0.4294 -0.7801  0.2707
31465SOL     OW98310   4.967   3.040   3.895 -0.4756 -0.2301  0.4351
31465SOL    HW198311   5.002   2.961   3.937 -1.6399 -2.0447 -1.8023
31465SOL    HW298312   4.872   3.032   3.906 -0.5746  1.7518  1.5454
31466SOL     OW98313   6.465   5.884   2.828 -0.5143 -0.0909 -0.2178
31466SOL    HW198314   6.410   5.806   2.834 -1.2600  0.4634  0.3013
31466SOL    HW298315   6.543   5.854   2.781  0.4180 -1.7946  2.1846
31467SOL     OW98316   4.260  10.069   2.722  0.3873 -0.3171  0.8708
31467SOL    HW198317   4.304   9.984   2.715 -2.1907 -1.6895 -0.2982
31467SOL    HW298318   4.200  10.058   2.796 -2.6926 -1.0474 -1.5056
31468SOL     OW98319   6.864   2.614   0.079  0.2971  0.4976 -0.1381
31468SOL    HW198320   6.947   2.576   0.051  0.0171  0.4891 -0.9955
31468SOL    HW298321   6.824   2.646  -0.002 -1.5980 -1.6212 -0.1382
31469SOL     OW98322   4.958   2.270   1.825  0.2199  0.3268  0.2679
31469SOL    HW198323   5.009   2.350   1.818  3.4956 -1.6268 -0.1770
31469SOL    HW298324   4.887   2.281   1.761  0.6269  2.7692  0.1362
31470SOL     OW98325   8.620   5.599   5.034 -0.1050  0.3610 -0.3541
31470SOL    HW198326   8.635   5.639   4.948  0.3766  0.5147 -0.1992
31470SOL    HW298327   8.525   5.605   5.046 -0.3010 -0.5495 -1.3050
31471SOL     OW98328   1.887   8.376   2.696 -0.2272  0.2539 -0.0240
31471SOL    HW198329   1.911   8.323   2.620  1.2606 -0.4134  0.8656
31471SOL    HW298330   1.838   8.449   2.659  0.7907  0.1585 -1.6756
31472SOL     OW98331   9.922   8.591   6.691  0.4963  0.1717  0.0876
31472SOL    HW198332   9.866   8.663   6.719 -0.6194 -1.4021  2.2101
31472SOL    HW298333   9.970   8.625   6.616  0.6414  3.3759  1.4952
31473SOL     OW98334   7.409   5.350   4.509 -0.0267  0.3554 -0.1581
31473SOL    HW198335   7.400   5.259   4.479 -1.2875  0.7107 -0.9381
31473SOL    HW298336   7.404   5.403   4.430 -1.0974  1.1908  0.4250
31474SOL     OW98337   0.898   6.805   8.051 -0.0926  0.4022 -0.3200
31474SOL    HW198338   0.887   6.819   7.957 -0.6131  0.5500 -0.2427
31474SOL    HW298339   0.823   6.749   8.075  2.0978 -2.9955 -0.7135
31475SOL     OW98340   7.065   2.366   0.855 -0.2176 -0.4948  0.2007
31475SOL    HW198341   7.030   2.312   0.784 -0.4950 -1.4676  1.0509
31475SOL    HW298342   7.015   2.447   0.851  0.4953 -0.1035 -1.3676
31476SOL     OW98343   6.410   4.578   0.135  0.7024 -0.6574  0.4721
31476SOL    HW198344   6.493   4.575   0.182  0.7506  0.1952  0.4591
31476SOL    HW298345   6.363   4.652   0.174  0.8567  0.2543 -0.9842
31477SOL     OW98346   0.586   0.749   4.015  0.6932 -0.1167 -0.4617
31477SOL    HW198347   0.641   0.693   3.960  1.8222  1.7246 -1.3099
31477SOL    HW298348   0.535   0.801   3.953 -1.0210 -0.7803  0.3135
31478SOL     OW98349   1.217   9.685   6.693  0.0657 -0.2910 -0.0825
31478SOL    HW198350   1.225   9.596   6.659 -2.6301  0.4862 -3.3711
31478SOL    HW298351   1.260   9.683   6.778  3.9351 -3.5877 -1.8144
31479SOL     OW98352   8.232   9.470   5.235 -0.2238 -0.1837  0.0233
31479SOL    HW198353   8.307   9.526   5.255  0.8973 -1.0685 -1.4780
31479SOL    HW298354   8.270   9.392   5.194 -1.9167 -0.9821 -0.1349
31480SOL     OW98355   0.731   3.838   5.108  0.0123  0.2139 -0.0915
31480SOL    HW198356   0.823   3.816   5.095  0.3714  0.6851  1.4437
31480SOL    HW298357   0.685   3.793   5.037  1.2607 -1.2341 -0.0167
31481SOL     OW98358   1.700   7.332   5.263  0.1271  0.1330  0.4550
31481SOL    HW198359   1.684   7.427   5.264 -1.5161 -0.0992  0.3592
31481SOL    HW298360   1.761   7.317   5.335  0.4728  1.2759  0.4230
31482SOL     OW98361   8.737   0.695   8.223 -0.0155  0.3265 -0.0157
31482SOL    HW198362   8.805   0.635   8.254 -0.4084 -0.2156 -0.2118
31482SOL    HW298363   8.718   0.750   8.299 -1.0419 -1.0578  0.7700
31483SOL     OW98364   8.803   6.522   1.183 -0.0431 -0.1642 -0.1184
31483SOL    HW198365   8.872   6.526   1.250  0.8033 -2.4096 -0.7832
31483SOL    HW298366   8.824   6.595   1.124  2.3906 -1.3136 -0.8212
31484SOL     OW98367   6.179   0.948   4.586 -0.1056 -0.0962  0.1481
31484SOL    HW198368   6.085   0.945   4.600 -0.3326 -1.7313 -1.3870
31484SOL    HW298369   6.216   0.914   4.667 -0.6463  2.4257  1.5857
31485SOL     OW98370   0.011   2.573   4.285 -0.3403  0.4581  0.0330
31485SOL    HW198371  -0.012   2.577   4.192 -0.8351 -1.3105  0.0469
31485SOL    HW298372  -0.062   2.618   4.328 -0.9586 -0.1725 -0.3284
31486SOL     OW98373   3.618   4.487   0.827 -0.2514 -0.0023  0.5882
31486SOL    HW198374   3.667   4.422   0.877  1.2659 -0.2975 -1.1464
31486SOL    HW298375   3.685   4.545   0.791 -1.3526  0.8510 -0.1472
31487SOL     OW98376   0.235   8.326   2.429 -0.0550 -0.1749  0.3867
31487SOL    HW198377   0.190   8.325   2.513 -0.5885 -0.1143  0.1058
31487SOL    HW298378   0.214   8.411   2.391  1.2366  0.3327  0.7392
31488SOL     OW98379   2.192   9.359   3.893  0.0718 -0.4657 -0.3664
31488SOL    HW198380   2.275   9.353   3.845 -0.3122  0.5721 -1.2068
31488SOL    HW298381   2.217   9.395   3.978  0.4850 -0.0948 -0.6392
31489SOL     OW98382   5.656  10.082   0.117 -0.1105  0.2137  0.0005
31489SOL    HW198383   5.619  10.000   0.150  2.6150 -1.9447 -1.7704
31489SOL    HW298384   5.739  10.091   0.164  0.9923  0.3010 -1.8601
31490SOL     OW98385   0.056   7.277   8.344 -0.1625  0.0767  0.2213
31490SOL    HW198386   0.119   7.343   8.318  0.4102 -1.2697 -2.0722
31490SOL    HW298387   0.096   7.193   8.320 -2.6038 -0.8522 -0.9751
31491SOL     OW98388   8.481   6.238   8.550 -0.2390 -0.5185 -0.1009
31491SOL    HW198389   8.509   6.185   8.624  0.4498 -0.3378 -0.2268
31491SOL    HW298390   8.519   6.325   8.566 -0.5194 -0.3354 -0.4032
31492SOL     OW98391   3.553   9.850   0.049  0.1565 -0.2747 -0.0204
31492SOL    HW198392   3.644   9.880   0.059 -0.0078 -0.2239  1.6712
31492SOL    HW298393   3.512   9.871   0.133 -0.9163 -2.0463 -0.0529
31493SOL     OW98394   8.710   3.739   6.078  0.6508 -0.1680 -0.3865
31493SOL    HW198395   8.686   3.781   5.996 -1.0542  0.7842  0.5218
31493SOL    HW298396   8.801   3.766   6.094  0.4900  0.9114 -1.2071
31494SOL     OW98397   7.070   6.339   2.552  0.0200  0.3766  0.1254
31494SOL    HW198398   6.993   6.396   2.556  0.0793  0.4303  0.5061
31494SOL    HW298399   7.126   6.368   2.624  1.1294  1.3937 -1.0731
31495SOL     OW98400   2.916   6.588   9.994  0.1454 -0.4515 -0.2854
31495SOL    HW198401   2.879   6.647   9.928 -0.4929 -0.8485 -0.2939
31495SOL    HW298402   2.845   6.526  10.012  0.4140 -0.5093  0.5760
31496SOL     OW98403   1.258   5.280   2.105 -0.1968 -0.4237 -0.3757
31496SOL    HW198404   1.338   5.235   2.130  1.0911  1.8349 -0.2081
31496SOL    HW298405   1.191   5.246   2.165  1.3295 -0.1163  1.5922
31497SOL     OW98406   7.267   4.099   3.132  0.2963  0.2546 -0.4847
31497SOL    HW198407   7.263   4.088   3.227  0.8152 -0.8776 -0.5752
31497SOL    HW298408   7.329   4.170   3.118  0.4421  0.2303  0.0228
31498SOL     OW98409   1.492   7.733   4.860  0.7253 -0.1644 -0.0402
31498SOL    HW198410   1.552   7.665   4.828 -0.1463 -0.0183 -2.1324
31498SOL    HW298411   1.477   7.789   4.785 -1.9233 -0.0998  0.4374
31499SOL     OW98412   2.453   0.502   7.824 -0.0935  0.5650  0.2846
31499SOL    HW198413   2.372   0.510   7.774 -0.8318  0.9651  1.5092
31499SOL    HW298414   2.437   0.430   7.884  0.5618  0.4778  0.3649
31500SOL     OW98415   5.544   3.084   1.778  0.3917  0.2062  0.0085
31500SOL    HW198416   5.607   3.020   1.746  0.2736 -0.8374  1.7316
31500SOL    HW298417   5.557   3.085   1.873 -0.4825  1.8218  0.1380
31501SOL     OW98418   0.488   1.467   4.284 -0.3077 -0.4596 -0.0427
31501SOL    HW198419   0.575   1.478   4.323 -0.2785  0.3103 -0.3011
31501SOL    HW298420   0.429   1.514   4.343 -0.2896  0.5496 -0.7992
31502SOL     OW98421   8.829   0.128   2.053 -0.4726  0.9440 -0.1603
31502SOL    HW198422   8.868   0.214   2.069  0.3769  0.6404 -0.5263
31502SOL    HW298423   8.881   0.068   2.107  1.3613  0.1406 -2.6192
31503SOL     OW98424   4.547   9.658   6.907 -0.5436  0.1787 -0.5156
31503SOL    HW198425   4.556   9.582   6.851  1.5037 -0.5984  0.7698
31503SOL    HW298426   4.553   9.733   6.848  2.0385 -0.6027 -1.3372
31504SOL     OW98427   2.508   8.029   9.246 -0.1218 -0.2016 -0.0648
31504SOL    HW198428   2.537   8.112   9.208 -1.9985  1.3876  1.7211
31504SOL    HW298429   2.432   8.004   9.194  0.3663 -0.7790 -0.5213
31505SOL     OW98430   7.981   2.628   6.217  0.3361  0.3008  0.0611
31505SOL    HW198431   7.972   2.595   6.128 -1.3593  1.9799 -0.4621
31505SOL    HW298432   8.069   2.602   6.244  0.8806 -0.2595 -2.0804
31506SOL     OW98433   9.433   1.361   1.829  0.9400  0.1690 -0.0581
31506SOL    HW198434   9.356   1.415   1.850  1.0350  0.6069 -0.8074
31506SOL    HW298435   9.417   1.279   1.874  0.2922  0.4598  0.2548
31507SOL     OW98436   6.739   6.440   1.928 -0.3628  0.2459  0.1193
31507SOL    HW198437   6.779   6.353   1.924 -0.4416  0.2129  0.0269
31507SOL    HW298438   6.805   6.495   1.970 -0.9091 -0.1972  1.6541
31508SOL     OW98439   2.893   5.898   4.169 -0.8549 -0.0964  0.2840
31508SOL    HW198440   2.838   5.940   4.103 -1.0931 -0.0110  0.5338
31508SOL    HW298441   2.857   5.928   4.253 -1.3371 -1.1784  0.4790
31509SOL     OW98442   6.232   3.540   7.183 -0.4563  0.2127 -0.1859
31509SOL    HW198443   6.166   3.604   7.209 -1.4264 -1.2844  1.2151
31509SOL    HW298444   6.187   3.484   7.119  0.1797  0.5183 -0.9166
31510SOL     OW98445   6.135   7.456   9.014 -0.2118 -0.2229 -0.5995
31510SOL    HW198446   6.084   7.375   9.009 -1.5704  0.4749  0.9847
31510SOL    HW298447   6.176   7.453   9.100  0.4257  0.3999 -0.8700
31511SOL     OW98448   6.519   8.958   3.574 -0.1589  0.2923 -0.2870
31511SOL    HW198449   6.592   8.956   3.636 -0.5349  1.9361  0.2498
31511SOL    HW298450   6.551   8.909   3.498  1.7531  1.5068 -0.3325
31512SOL     OW98451   3.987   7.372   8.119 -0.9257  0.2033  0.0081
31512SOL    HW198452   4.005   7.368   8.213  0.0133  0.6577 -0.1365
31512SOL    HW298453   3.921   7.304   8.104 -3.7752  2.3701  1.5699
31513SOL     OW98454   0.232   8.973   8.546 -0.0229  0.1513  0.3827
31513SOL    HW198455   0.324   8.967   8.520 -0.0855  1.0988 -0.1228
31513SOL    HW298456   0.233   9.023   8.627 -0.1555  1.1869 -0.2287
31514SOL     OW98457   0.807   6.204   9.841 -0.5808  0.1096  0.3083
31514SOL    HW198458   0.790   6.165   9.755 -1.1993  0.6314  0.1885
31514SOL    HW298459   0.840   6.132   9.894 -0.4506 -0.2785 -0.2856
31515SOL     OW98460   5.270   1.276   3.699  0.0185 -0.1314 -0.3706
31515SOL    HW198461   5.363   1.272   3.677  1.0880  0.6394  3.3171
31515SOL    HW298462   5.254   1.368   3.719 -1.4107 -0.3457 -0.4347
31516SOL     OW98463   0.976   7.895   3.569 -0.0985 -0.1020 -0.2967
31516SOL    HW198464   1.028   7.816   3.553 -1.6822 -1.1192 -0.6399
31516SOL    HW298465   0.962   7.896   3.663 -0.1440 -0.2708 -0.3018
31517SOL     OW98466   6.270   2.306   8.076  0.3023 -0.5032  0.2002
31517SOL    HW198467   6.228   2.236   8.025 -1.1052  0.9963 -0.7858
31517SOL    HW298468   6.254   2.283   8.167 -1.8271 -0.5170 -0.1358
31518SOL     OW98469   9.101   6.948   6.779  0.2060  0.4108  0.2580
31518SOL    HW198470   9.191   6.980   6.785  0.0527  1.5558 -2.2549
31518SOL    HW298471   9.100   6.893   6.700 -1.0874 -0.4411  0.8286
31519SOL     OW98472   3.527   2.602   1.833  0.4705  0.0820 -0.2101
31519SOL    HW198473   3.531   2.517   1.789  2.5429 -2.7054  4.5385
31519SOL    HW298474   3.589   2.657   1.786  1.7802 -2.2415 -1.3883
31520SOL     OW98475   5.629   5.319   5.693  0.3408  0.2139  0.5344
31520SOL    HW198476   5.653   5.349   5.606 -0.3182 -1.7120 -0.3663
31520SOL    HW298477   5.539   5.349   5.705  1.0599  2.1830  1.4177
31521SOL     OW98478   8.912   0.708   4.338  0.9566 -0.0874  0.1277
31521SOL    HW198479   8.849   0.686   4.269 -2.0290 -1.4685  2.9957
31521SOL    HW298480   8.980   0.641   4.332  1.2086  0.2922 -1.8651
31522SOL     OW98481   1.092   1.534   7.503 -0.6562  0.4406 -0.0615
31522SOL    HW198482   1.151   1.461   7.522 -0.9870  0.4339  0.9715
31522SOL    HW298483   1.020   1.494   7.453 -0.1618  0.3180 -0.6846
31523SOL     OW98484   5.693   9.853   1.585 -0.2630 -0.1845  0.2013
31523SOL    HW198485   5.776   9.891   1.556 -0.4655 -0.3036 -0.5487
31523SOL    HW298486   5.702   9.759   1.565 -0.9681 -0.0449 -0.8423
31524SOL     OW98487   6.000   1.206   3.071  0.1588  0.4379  0.1504
31524SOL    HW198488   6.077   1.174   3.118  0.3769  1.1401  0.2828
31524SOL    HW298489   5.965   1.275   3.127 -0.8670 -0.1982  0.3399
31525SOL     OW98490   6.982   2.390   8.695 -0.5442  0.2126  0.5222
31525SOL    HW198491   6.993   2.298   8.718  0.5622  0.4593  1.0694
31525SOL    HW298492   7.020   2.438   8.768  3.2154  1.0210 -1.6450
31526SOL     OW98493   8.541   7.891   8.052 -0.2529 -0.5918  0.0421
31526SOL    HW198494   8.525   7.809   8.005  2.6060 -1.6803  0.7734
31526SOL    HW298495   8.547   7.958   7.984  0.3072 -1.5119 -0.8419
31527SOL     OW98496   5.224   6.422   2.351  0.4115  0.1877 -0.5499
31527SOL    HW198497   5.171   6.477   2.293  0.7322 -0.8756 -1.8964
31527SOL    HW298498   5.169   6.345   2.368  0.7917 -0.0621 -0.4305
31528SOL     OW98499   7.751   0.469   7.813  0.1405  0.2402  0.1058
31528SOL    HW198500   7.748   0.475   7.908 -3.0209  2.5853 -0.0061
31528SOL    HW298501   7.687   0.401   7.792 -0.2157  0.7167 -0.3678
31529SOL     OW98502  10.190   2.320   6.648  0.1547 -0.0319  0.0551
31529SOL    HW198503  10.255   2.333   6.718  0.4751 -0.9874 -0.0405
31529SOL    HW298504  10.216   2.237   6.608 -0.3698  0.2237 -0.8305
31530SOL     OW98505   1.616   0.745   1.605  0.2311 -0.8180  0.1279
31530SOL    HW198506   1.575   0.767   1.688 -0.9942 -1.2109 -0.3573
31530SOL    HW298507   1.561   0.677   1.567  2.3850 -2.8148  0.3172
31531SOL     OW98508   4.109   8.240   4.553 -0.3973 -0.4256 -0.2051
31531SOL    HW198509   4.077   8.331   4.547  1.7781  0.2729 -2.4427
31531SOL    HW298510   4.079   8.198   4.473  0.9390 -0.8813 -0.4828
31532SOL     OW98511   2.917   1.307   6.311  0.5348 -0.1676 -0.0352
31532SOL    HW198512   2.999   1.258   6.309 -0.4489 -1.8912 -1.6271
31532SOL    HW298513   2.940   1.394   6.277  1.5498 -0.9626 -1.4927
31533SOL     OW98514   5.004   1.379   4.206 -0.1852  0.5123  0.6637
31533SOL    HW198515   5.043   1.441   4.144  1.6116 -0.5170  0.7287
31533SOL    HW298516   5.054   1.390   4.287 -1.5943  0.8274  1.5477
31534SOL     OW98517   8.813   0.646   9.142  0.1350 -0.7324  0.1322
31534SOL    HW198518   8.767   0.719   9.183 -0.7087  0.3984 -2.6091
31534SOL    HW298519   8.805   0.575   9.205  0.9437  1.4323  2.9097
31535SOL     OW98520   8.623   5.366   1.011 -0.2685 -0.4488 -0.3714
31535SOL    HW198521   8.544   5.413   1.036  0.3278  0.5290 -0.2779
31535SOL    HW298522   8.624   5.370   0.915  1.0991  2.0835 -0.3546
31536SOL     OW98523   5.553   6.977   4.924  0.2096 -0.7453  0.6428
31536SOL    HW198524   5.515   7.003   4.840 -1.8335 -0.8799  1.4551
31536SOL    HW298525   5.606   6.900   4.903  1.3080  0.3414 -0.7863
31537SOL     OW98526   4.684   7.242   7.611 -0.2775  0.1270  0.8830
31537SOL    HW198527   4.650   7.272   7.526  0.4605  1.7934  1.1294
31537SOL    HW298528   4.677   7.147   7.607 -1.6460  0.2356 -0.4574
31538SOL     OW98529   3.587   8.419   7.370  0.4657 -0.0507 -0.2041
31538SOL    HW198530   3.603   8.475   7.294 -0.4655  0.0497 -0.3385
31538SOL    HW298531   3.671   8.415   7.415  1.0969 -0.2861 -1.3555
31539SOL     OW98532   6.161   8.971   9.245  0.5317 -0.2352  0.1509
31539SOL    HW198533   6.179   8.986   9.153  0.6711  0.9152  0.3527
31539SOL    HW298534   6.127   9.055   9.277  1.1158 -0.4126  1.2912
31540SOL     OW98535   2.108   1.149   5.780 -1.1394 -0.2007 -0.1458
31540SOL    HW198536   2.121   1.127   5.688  1.3893  2.7130 -0.6562
31540SOL    HW298537   2.057   1.230   5.778  0.2163  0.7334  0.8474
31541SOL     OW98538   1.489   8.570   5.004  0.2124 -0.6657 -0.1924
31541SOL    HW198539   1.509   8.544   5.094  0.0855  0.6058  0.2146
31541SOL    HW298540   1.575   8.581   4.963  0.2716 -1.0664 -0.1825
31542SOL     OW98541   3.549  10.049  10.073  0.0584 -0.3047  0.2571
31542SOL    HW198542   3.532   9.972  10.127  0.9627 -0.1462  0.7848
31542SOL    HW298543   3.554  10.015   9.983 -0.3628 -0.7309  0.3911
31543SOL     OW98544   9.249   6.593   0.779  0.1037  0.1408  0.4548
31543SOL    HW198545   9.242   6.679   0.821 -1.2321  1.2856 -1.8955
31543SOL    HW298546   9.161   6.576   0.745  0.4868 -1.9195  0.4031
31544SOL     OW98547   2.782   2.545   0.544  0.3904 -0.1201  0.3943
31544SOL    HW198548   2.708   2.483   0.547  0.4050 -0.1247  0.6421
31544SOL    HW298549   2.859   2.489   0.539  0.4039 -0.1207  0.6247
31545SOL     OW98550   3.271   5.935   5.115 -0.1438  0.6484  0.4808
31545SOL    HW198551   3.307   5.849   5.134 -0.7049  0.3183  0.0902
31545SOL    HW298552   3.232   5.926   5.028  1.7259  1.9024 -0.5750
31546SOL     OW98553   4.859   2.980   4.381 -0.2096  0.4344  0.0022
31546SOL    HW198554   4.881   3.045   4.448 -1.3865  2.8030 -1.7734
31546SOL    HW298555   4.804   2.916   4.427 -0.0943  1.3855  1.5333
31547SOL     OW98556   3.537  10.101   2.982 -0.0930 -0.0498 -0.6648
31547SOL    HW198557   3.477  10.121   3.053  0.3820  0.8094 -0.4847
31547SOL    HW298558   3.614  10.063   3.025  0.7565  1.7181 -0.5443
31548SOL     OW98559   0.104   2.113   1.367 -0.5515  0.0954  0.7908
31548SOL    HW198560   0.059   2.106   1.451 -1.5641  0.8716  0.3377
31548SOL    HW298561   0.077   2.035   1.319 -0.5520  0.0109  0.9296
31549SOL     OW98562   3.863   3.624   9.261  0.0617 -0.0571  0.5341
31549SOL    HW198563   3.951   3.601   9.290  0.4314  0.2796 -0.2762
31549SOL    HW298564   3.846   3.567   9.186 -0.9147 -0.9898  1.4323
31550SOL     OW98565   8.174   5.051   3.376 -0.1603 -0.1945 -0.4353
31550SOL    HW198566   8.178   5.095   3.461  0.3318  0.0749 -0.5931
31550SOL    HW298567   8.224   5.108   3.317  2.5266 -2.0275 -0.1454
31551SOL     OW98568   0.888   3.427   3.420 -0.0841  0.5286  0.4016
31551SOL    HW198569   0.852   3.347   3.381  1.0518  0.7304 -1.1836
31551SOL    HW298570   0.967   3.398   3.465 -0.7644  0.4779  1.5964
31552SOL     OW98571   1.616  10.174   5.508  0.3427 -0.8163  0.2180
31552SOL    HW198572   1.564  10.112   5.559 -0.5213 -1.0458 -0.9107
31552SOL    HW298573   1.647  10.124   5.432  1.5345 -0.4551  0.4346
31553SOL     OW98574   2.944   9.351   0.643  0.3441 -0.2103  0.4067
31553SOL    HW198575   2.987   9.433   0.663 -1.0479  1.3963 -2.5552
31553SOL    HW298576   2.866   9.351   0.698 -0.7202  1.5377 -1.0019
31554SOL     OW98577   5.147   7.228   0.873  0.1849 -0.7190 -0.1426
31554SOL    HW198578   5.239   7.238   0.846 -0.1548  0.3262 -0.9731
31554SOL    HW298579   5.098   7.227   0.791 -0.4821 -2.2884  0.2467
31555SOL     OW98580   1.537   2.660   2.339 -0.3136  0.3047  0.1804
31555SOL    HW198581   1.463   2.666   2.279 -0.2196  1.1390  0.1451
31555SOL    HW298582   1.583   2.744   2.331  1.1925 -0.5409 -0.5240
31556SOL     OW98583   6.141   7.261   2.724 -0.0364 -0.6991  0.1509
31556SOL    HW198584   6.076   7.201   2.686  0.5077 -0.9714 -0.3640
31556SOL    HW298585   6.117   7.347   2.691  1.3009 -1.1107 -2.0992
31557SOL     OW98586   7.602   2.847   3.087  0.2589 -0.3895  0.5566
31557SOL    HW198587   7.669   2.780   3.074  0.6540 -0.0899  1.0238
31557SOL    HW298588   7.633   2.922   3.035  0.8055  0.0970  1.5461
31558SOL     OW98589   0.303   6.451   0.101  0.1843 -0.4801  0.4472
31558SOL    HW198590   0.317   6.488   0.189 -0.6885  1.5833 -0.2235
31558SOL    HW298591   0.389   6.454   0.060  0.1674  0.7301  0.4653
31559SOL     OW98592   4.074   3.156   8.241  0.7823  0.1758  0.5484
31559SOL    HW198593   4.152   3.166   8.187 -0.6328  1.3884 -1.3681
31559SOL    HW298594   4.005   3.129   8.180 -1.2460  3.0499  1.3674
31560SOL     OW98595   9.261   8.081   5.443  0.2139  0.5425  0.0544
31560SOL    HW198596   9.314   8.027   5.501 -0.2033  2.1348  2.0328
31560SOL    HW298597   9.311   8.162   5.434  1.0658 -0.1911 -3.2405
31561SOL     OW98598   2.002   7.061   9.174 -0.1393 -0.3483  0.6874
31561SOL    HW198599   1.950   7.007   9.233 -0.8523  1.7244  2.0878
31561SOL    HW298600   1.938   7.104   9.117  0.4426 -1.2555 -0.6918
31562SOL     OW98601   0.446   8.349   5.213 -0.4790  0.3256  0.3620
31562SOL    HW198602   0.378   8.283   5.223 -1.0979  0.6169 -1.5150
31562SOL    HW298603   0.503   8.314   5.144 -1.0300  1.8833 -0.9392
31563SOL     OW98604   4.471   5.167   3.599 -0.3216 -0.0466  0.1982
31563SOL    HW198605   4.485   5.234   3.666 -1.4207 -0.3479  0.7461
31563SOL    HW298606   4.524   5.093   3.628 -1.4582 -0.4877  1.2187
31564SOL     OW98607   6.592   7.876   8.629  0.1854  0.1684  0.3890
31564SOL    HW198608   6.507   7.876   8.583  0.1075  1.3135  0.5107
31564SOL    HW298609   6.657   7.869   8.559  0.0198  0.4049  0.2091
31565SOL     OW98610   7.716   8.783   1.744 -0.0520 -0.0463 -0.0244
31565SOL    HW198611   7.757   8.863   1.714  0.7704 -0.5257 -0.1944
31565SOL    HW298612   7.783   8.716   1.736 -0.5697 -0.6646  0.5799
31566SOL     OW98613   9.255   6.387   8.408 -0.5428 -0.6839  0.3414
31566SOL    HW198614   9.161   6.376   8.417 -0.6964 -0.6282 -1.0190
31566SOL    HW298615   9.268   6.412   8.316  0.5839  1.7170  1.0677
31567SOL     OW98616   1.935   9.243   8.285 -0.1336 -0.7716 -0.1259
31567SOL    HW198617   1.935   9.241   8.380 -1.8987  0.0795 -0.0714
31567SOL    HW298618   1.864   9.184   8.259 -0.3309 -0.2398 -0.8610
31568SOL     OW98619   2.014   1.565   1.822  0.2502  0.4323 -0.0440
31568SOL    HW198620   2.065   1.486   1.842  0.0623  1.0413  3.3189
31568SOL    HW298621   2.079   1.634   1.816  0.2925  0.2868 -1.7636
31569SOL     OW98622   6.899   6.658   2.018 -0.6499  0.0370 -0.3272
31569SOL    HW198623   6.994   6.663   2.006 -0.8201 -1.3907 -3.1961
31569SOL    HW298624   6.875   6.745   2.048  1.4927  0.7044 -0.3453
31570SOL     OW98625   1.757   3.055   5.726 -0.4776 -0.4351 -0.2224
31570SOL    HW198626   1.839   3.092   5.692 -0.9007  0.8675  0.1124
31570SOL    HW298627   1.781   3.016   5.809 -0.5730  2.1191  1.1089
31571SOL     OW98628   1.724   5.712   5.873 -0.3988  0.3662 -0.3949
31571SOL    HW198629   1.793   5.767   5.908 -1.0747  0.9826 -0.0131
31571SOL    HW298630   1.766   5.663   5.802  0.6244  0.1188  0.3651
31572SOL     OW98631   9.703   8.919   5.710  0.3303 -0.0278  0.4537
31572SOL    HW198632   9.621   8.930   5.759  1.1089 -0.4704  1.9278
31572SOL    HW298633   9.676   8.914   5.619 -1.2408  0.2926  0.8667
31573SOL     OW98634   8.376   8.844   7.654  0.1604 -0.1025 -0.0323
31573SOL    HW198635   8.295   8.794   7.640 -0.2078  0.1941  0.9243
31573SOL    HW298636   8.353   8.933   7.630 -0.0276  0.1202  0.9243
31574SOL     OW98637   5.412   6.121   5.745  0.1809  0.1391  0.4011
31574SOL    HW198638   5.354   6.047   5.758 -2.3704  1.6331 -1.5759
31574SOL    HW298639   5.372   6.192   5.795  0.8231  0.9572 -0.2142
31575SOL     OW98640   0.664   5.576   5.626 -0.0374  0.4720 -0.1379
31575SOL    HW198641   0.670   5.664   5.589 -2.1654 -0.6308 -3.6680
31575SOL    HW298642   0.697   5.519   5.556 -0.1849 -1.6482  1.4313
31576SOL     OW98643   0.580   7.727   9.049 -0.5777 -0.2115  0.3680
31576SOL    HW198644   0.490   7.699   9.065 -0.3328 -0.7606  0.8031
31576SOL    HW298645   0.572   7.821   9.031 -0.9693  0.3908  3.1772
31577SOL     OW98646   8.233   1.308   5.066 -0.1386 -0.0863  0.4368
31577SOL    HW198647   8.187   1.357   5.134  0.3188  0.5921  0.2709
31577SOL    HW298648   8.298   1.370   5.032  0.7428 -0.9476  0.5174
31578SOL     OW98649   0.798   2.578   0.454 -0.1087 -0.1333 -0.0666
31578SOL    HW198650   0.876   2.607   0.500 -0.0456  0.3204 -0.4626
31578SOL    HW298651   0.740   2.547   0.524 -0.2643  1.1310  0.3889
31579SOL     OW98652   8.498   3.175   6.502 -0.0418 -0.3116 -0.0445
31579SOL    HW198653   8.501   3.261   6.543  1.6612 -0.1557 -0.4401
31579SOL    HW298654   8.457   3.191   6.417  2.4628  0.6154 -1.1623
31580SOL     OW98655   8.543   7.312   0.412  0.3194 -0.1741 -0.3145
31580SOL    HW198656   8.604   7.385   0.426  0.5018 -0.7714  2.4695
31580SOL    HW298657   8.488   7.312   0.490 -2.3228 -0.6143 -2.0599
31581SOL     OW98658   2.656   0.212   9.960 -0.3534 -0.1626  0.2701
31581SOL    HW198659   2.653   0.176   9.871  0.1396  0.4283  0.0074
31581SOL    HW298660   2.640   0.136  10.017 -0.3333 -0.6097 -0.3081
31582SOL     OW98661   6.646   3.954   8.618  0.2740 -0.1251 -0.2373
31582SOL    HW198662   6.705   3.888   8.655  1.2450  0.5754 -0.5151
31582SOL    HW298663   6.628   4.014   8.691  0.0746 -0.2120 -0.2127
31583SOL     OW98664   7.028  10.140   2.187 -0.2056  0.4731 -0.0099
31583SOL    HW198665   7.117  10.166   2.163 -0.2644  0.0841 -0.6763
31583SOL    HW298666   6.989  10.220   2.222  1.5023 -0.1605  3.7502
31584SOL     OW98667   8.026   9.318   9.214  0.0037  0.1254  0.2160
31584SOL    HW198668   8.061   9.310   9.126  0.6614 -2.1194  0.6251
31584SOL    HW298669   8.103   9.316   9.271 -0.4472  1.0495  0.8841
31585SOL     OW98670   3.781   5.777   8.628 -1.0721  0.2746 -0.0789
31585SOL    HW198671   3.777   5.686   8.599 -1.8490 -0.2693  1.6143
31585SOL    HW298672   3.800   5.827   8.549 -0.6960 -1.3474 -1.0513
31586SOL     OW98673   7.631   4.064   2.285  0.0887  0.0471  0.2528
31586SOL    HW198674   7.679   3.983   2.269  0.0163 -0.0657  0.6008
31586SOL    HW298675   7.559   4.038   2.343 -0.3379  0.2313 -0.1882
31587SOL     OW98676   7.496   7.149   0.478  0.1078 -0.4571 -0.4711
31587SOL    HW198677   7.465   7.076   0.425  0.9961 -1.0523 -0.1933
31587SOL    HW298678   7.510   7.111   0.565  1.9192 -0.3199 -0.6652
31588SOL     OW98679   7.415   6.313   6.115  0.2431  0.8032  0.9659
31588SOL    HW198680   7.404   6.374   6.188  1.2040 -0.3016  2.0945
31588SOL    HW298681   7.510   6.297   6.112  0.0319 -0.4720  0.5705
31589SOL     OW98682   0.857   8.869   7.749  0.7423 -0.2458  0.0893
31589SOL    HW198683   0.918   8.933   7.713 -0.5385  1.4412  0.7752
31589SOL    HW298684   0.870   8.875   7.844 -1.1546  0.9221  0.3297
31590SOL     OW98685   8.383   7.494   5.719 -0.4902 -0.2908  0.0287
31590SOL    HW198686   8.400   7.414   5.769  1.5200 -0.1889 -0.3998
31590SOL    HW298687   8.386   7.564   5.784 -1.3314 -0.4570  0.2613
31591SOL     OW98688   0.815   1.095   5.128  0.3138 -0.2516 -0.6171
31591SOL    HW198689   0.833   1.052   5.211  2.1769 -0.0136 -0.8510
31591SOL    HW298690   0.722   1.079   5.112  0.3775 -2.0372  0.5151
31592SOL     OW98691   0.624   5.835   6.112  0.5910 -0.3233  0.7977
31592SOL    HW198692   0.655   5.831   6.021 -0.4457 -1.7280  0.4702
31592SOL    HW298693   0.704   5.841   6.164  1.2515 -0.4089 -0.1725
31593SOL     OW98694   4.905   7.398   8.685 -0.2247 -0.0010 -0.4769
31593SOL    HW198695   4.840   7.387   8.755 -0.9667 -2.5069 -1.4677
31593SOL    HW298696   4.894   7.489   8.656 -1.4038  0.4234  1.1694
31594SOL     OW98697  10.026   5.127  10.016  0.0920  0.6716  0.3868
31594SOL    HW198698  10.057   5.079  10.093 -0.0939  0.9732  0.6524
31594SOL    HW298699  10.049   5.218  10.034 -0.0047  0.7517  0.1095
31595SOL     OW98700   9.314   4.237   6.343 -0.3904  0.4326  0.0172
31595SOL    HW198701   9.316   4.287   6.425 -2.7485 -0.8436  0.9416
31595SOL    HW298702   9.279   4.298   6.278 -1.7085  0.4939  0.7601
31596SOL     OW98703   6.678   4.629   2.218  0.2774  0.3725 -0.1909
31596SOL    HW198704   6.605   4.592   2.169  0.1091  0.0222  0.3154
31596SOL    HW298705   6.657   4.612   2.310  0.2338  1.6790  0.0545
31597SOL     OW98706   6.540   0.834   4.925  0.1852  0.1693  0.1741
31597SOL    HW198707   6.616   0.867   4.973 -0.3088  0.0197  1.0907
31597SOL    HW298708   6.554   0.862   4.835  0.0276  2.4904  0.8045
31598SOL     OW98709   0.449   8.864   5.061 -0.1759 -0.2119 -0.1630
31598SOL    HW198710   0.457   8.772   5.086 -0.9567 -0.2711 -0.0849
31598SOL    HW298711   0.364   8.869   5.017 -1.0841  0.8630  1.6056
31599SOL     OW98712   5.364   2.194   2.537 -0.1463  0.3508 -0.0005
31599SOL    HW198713   5.281   2.196   2.490  0.6990  0.9335 -1.5264
31599SOL    HW298714   5.339   2.189   2.629 -1.8632  0.1828 -0.4408
31600SOL     OW98715   9.923   6.153   2.820 -0.3357 -0.0976  0.0746
31600SOL    HW198716   9.907   6.130   2.912 -2.4625  1.2075  0.1077
31600SOL    HW298717   9.843   6.128   2.775  0.0574  0.7392 -1.1355
31601SOL     OW98718   5.970   2.921   3.379  0.2368  0.3729 -0.3142
31601SOL    HW198719   5.919   2.845   3.350  1.0810  0.3657 -1.8815
31601SOL    HW298720   6.051   2.917   3.328  0.6786  1.8503  0.2135
31602SOL     OW98721   6.179   7.134   5.093 -0.4695 -0.6866  0.3681
31602SOL    HW198722   6.130   7.058   5.125  1.7578 -2.6193 -0.5029
31602SOL    HW298723   6.248   7.147   5.158  1.1822 -1.6007 -1.1269
31603SOL     OW98724   6.179   9.762   8.369 -0.1045 -0.5016  0.3965
31603SOL    HW198725   6.091   9.786   8.399  0.1254  1.2729 -0.1871
31603SOL    HW298726   6.181   9.790   8.277  1.2243 -0.0040  0.5550
31604SOL     OW98727   6.012   5.133   0.804  0.2164  0.3625 -0.2961
31604SOL    HW198728   6.079   5.148   0.737  1.3929  0.1907  0.8297
31604SOL    HW298729   6.022   5.206   0.865 -0.8716  0.5267 -0.2838
31605SOL     OW98730   3.922   4.892   0.676 -0.3798  0.9781  0.1325
31605SOL    HW198731   4.009   4.862   0.703 -0.2831  1.8077  0.7551
31605SOL    HW298732   3.930   4.904   0.582 -0.2216 -0.2669 -0.0379
31606SOL     OW98733   7.238   7.891   9.540  0.5354 -0.1687  0.0132
31606SOL    HW198734   7.262   7.967   9.486 -1.9282  2.3760  2.1572
31606SOL    HW298735   7.164   7.851   9.493  0.8658 -0.3233 -0.3784
31607SOL     OW98736   5.388   3.349   3.352  0.8545 -0.1950 -0.2108
31607SOL    HW198737   5.343   3.368   3.270  0.5783 -0.3054 -0.0876
31607SOL    HW298738   5.425   3.433   3.379  0.7891 -0.1195 -0.3560
31608SOL     OW98739   8.559   4.839   2.909  0.1218  0.0500  0.4147
31608SOL    HW198740   8.635   4.887   2.875 -0.7271  0.4738 -0.9780
31608SOL    HW298741   8.483   4.889   2.878 -0.7507 -1.0426  0.7211
31609SOL     OW98742   7.707   6.003   0.851  0.3872 -0.2463  0.2206
31609SOL    HW198743   7.637   5.992   0.916  0.8541  0.8051  0.9159
31609SOL    HW298744   7.681   5.945   0.779  0.6938 -2.7412  1.9909
31610SOL     OW98745   1.648   3.124   9.018 -0.4396  0.5306 -0.2997
31610SOL    HW198746   1.730   3.172   9.003 -1.4184  1.7866 -1.8541
31610SOL    HW298747   1.673   3.032   9.010  1.0160  0.8494  0.3025
31611SOL     OW98748   7.602   7.350   5.231 -0.1005  0.3162 -0.1716
31611SOL    HW198749   7.622   7.294   5.156  0.5115  0.3345 -0.0228
31611SOL    HW298750   7.536   7.300   5.281 -0.8410  0.5005 -0.9477
31612SOL     OW98751   9.203  10.064   5.798  0.8710 -0.3834 -0.5003
31612SOL    HW198752   9.175  10.083   5.709  2.1176 -1.4193 -1.1512
31612SOL    HW298753   9.287  10.109   5.807 -0.2731  1.6310  0.9777
31613SOL     OW98754   8.963   6.050   5.952  0.3021 -0.3924 -0.6313
31613SOL    HW198755   8.925   6.133   5.982  0.2394 -0.9538  0.9032
31613SOL    HW298756   9.055   6.071   5.935  0.1889  0.0831 -0.6824
31614SOL     OW98757   5.397   3.089   8.897  0.2139  0.2067 -1.0065
31614SOL    HW198758   5.399   3.000   8.863  0.7619 -0.1712 -0.0261
31614SOL    HW298759   5.309   3.099   8.935  0.3100 -0.0794 -0.7059
31615SOL     OW98760   2.414   2.386   1.861  0.6062 -0.5922 -0.4822
31615SOL    HW198761   2.444   2.314   1.917 -0.5819 -0.5916  0.1940
31615SOL    HW298762   2.476   2.388   1.789  1.9135 -0.9039  0.5923
31616SOL     OW98763   5.051   4.960   0.050  0.1216  0.1779 -0.0316
31616SOL    HW198764   5.068   5.012   0.128  1.4198  0.6466 -0.6097
31616SOL    HW298765   5.026   5.024  -0.017  1.8989  0.1317 -0.7959
31617SOL     OW98766   8.026   4.515   9.701  0.2533 -0.7850 -0.6402
31617SOL    HW198767   8.037   4.465   9.620  2.8387  0.2010 -1.0044
31617SOL    HW298768   8.106   4.496   9.752  2.1210  3.7795 -1.3588
31618SOL     OW98769   2.594   8.659   4.197 -0.1927  0.0091 -0.4428
31618SOL    HW198770   2.556   8.636   4.281 -0.0567  0.8104 -0.1497
31618SOL    HW298771   2.624   8.749   4.208  1.4872 -0.4694 -0.7623
31619SOL     OW98772   9.247   2.496   3.323 -0.6720  0.2999 -0.2713
31619SOL    HW198773   9.203   2.412   3.331 -0.3487  0.1064 -0.4786
31619SOL    HW298774   9.276   2.499   3.231 -1.2123  0.9032 -0.4318
31620SOL     OW98775   8.285   8.345  10.163 -0.2781 -0.0551 -0.3251
31620SOL    HW198776   8.235   8.356  10.244 -0.0846  0.6545 -0.2980
31620SOL    HW298777   8.333   8.427  10.152  0.7997 -0.6687 -0.4106
31621SOL     OW98778   2.226   3.765   6.782  0.6173  0.5308 -0.2120
31621SOL    HW198779   2.302   3.788   6.836  0.6330  1.1170 -0.4723
31621SOL    HW298780   2.264   3.730   6.702  0.6013 -2.0136  0.7940
31622SOL     OW98781   4.818   8.799   6.010  0.2780 -0.3636  0.3846
31622SOL    HW198782   4.803   8.802   5.916  0.5731  2.3621  0.3501
31622SOL    HW298783   4.853   8.711   6.026 -1.0843 -1.3766 -1.7929
31623SOL     OW98784   5.769   2.195   1.089  0.1103  0.4380  0.1752
31623SOL    HW198785   5.676   2.205   1.071  0.2257  1.2750  0.0014
31623SOL    HW298786   5.794   2.276   1.134  0.6713  0.0500  0.5833
31624SOL     OW98787   0.537   5.106   5.457 -0.0210 -0.6055 -0.1701
31624SOL    HW198788   0.626   5.141   5.462 -0.6168  0.8865  0.8948
31624SOL    HW298789   0.487   5.176   5.414 -0.9452 -0.8384  0.5156
31625SOL     OW98790   2.790   0.022   6.669 -0.8608 -0.4837  0.6569
31625SOL    HW198791   2.789  -0.068   6.638 -0.1803  0.1299 -1.3119
31625SOL    HW298792   2.873   0.058   6.638 -0.8521  0.6792  1.8966
31626SOL     OW98793   5.109   2.209   8.773  0.2995  0.1517 -0.5101
31626SOL    HW198794   5.144   2.120   8.776 -2.3699 -0.9970 -1.2188
31626SOL    HW298795   5.166   2.255   8.712  1.9805 -0.8962  0.1793
31627SOL     OW98796  10.071   3.015   5.020  0.8259 -0.1273 -0.2454
31627SOL    HW198797  10.110   2.955   5.084  1.1401  1.0030  0.6524
31627SOL    HW298798   9.979   3.021   5.046  0.7449 -0.3779 -0.4672
31628SOL     OW98799   2.754   7.214   4.448  0.2049 -0.4786  0.2877
31628SOL    HW198800   2.661   7.226   4.469  0.1877  0.9396 -0.4686
31628SOL    HW298801   2.756   7.136   4.393 -0.4520 -0.8692  0.8010
31629SOL     OW98802   4.991   2.871   9.614  0.5592  0.2727 -0.1100
31629SOL    HW198803   5.016   2.931   9.683  0.2124 -0.2643  0.4971
31629SOL    HW298804   4.941   2.925   9.552  1.2872  0.8588 -0.2047
31630SOL     OW98805   1.620  10.149   4.127 -0.1050 -0.0086 -0.5929
31630SOL    HW198806   1.695  10.090   4.118  0.5713  0.9897 -1.8989
31630SOL    HW298807   1.609  10.159   4.222  0.0225 -1.8616 -0.3397
31631SOL     OW98808   7.132   5.450   5.935  0.0852 -0.1983  0.4654
31631SOL    HW198809   7.160   5.376   5.882  1.0941  0.5779 -0.1276
31631SOL    HW298810   7.123   5.522   5.872  2.0159  0.9312  1.3955
31632SOL     OW98811   5.398   8.202   5.296  0.3544 -0.3031  0.3686
31632SOL    HW198812   5.382   8.112   5.325  1.2522 -1.0805 -1.4176
31632SOL    HW298813   5.483   8.224   5.333  1.8193 -1.5410 -2.0338
31633SOL     OW98814   7.220   4.904   9.533 -0.1824  0.2312 -0.2004
31633SOL    HW198815   7.244   4.972   9.471 -0.9669  1.1508  0.4878
31633SOL    HW298816   7.134   4.874   9.504 -0.5445  0.6545  0.4308
31634SOL     OW98817   3.192   0.139   0.404  0.1652  0.0378  0.2928
31634SOL    HW198818   3.259   0.091   0.355  0.9730 -0.3109  1.6855
31634SOL    HW298819   3.127   0.072   0.427  1.2076 -0.4238  2.0893
31635SOL     OW98820   8.230   5.108   1.572 -0.8632  0.5487 -0.6417
31635SOL    HW198821   8.249   5.020   1.604 -1.1476  0.8407  0.3696
31635SOL    HW298822   8.213   5.160   1.652  1.3555  2.0318 -1.0353
31636SOL     OW98823   7.887   6.315   5.704 -0.0611 -0.5962  0.0969
31636SOL    HW198824   7.964   6.264   5.728  1.0830  0.4737 -1.1647
31636SOL    HW298825   7.922   6.394   5.662 -1.7208  1.3740  2.1023
31637SOL     OW98826   6.685   1.557   5.377 -0.0403 -0.0613 -0.0874
31637SOL    HW198827   6.723   1.498   5.313  2.2324 -0.7267  1.7222
31637SOL    HW298828   6.701   1.645   5.342  0.5382 -0.4304 -0.7564
31638SOL     OW98829   1.340   4.211   3.014 -0.7890  0.3402  0.0462
31638SOL    HW198830   1.271   4.272   3.043 -0.8107 -0.0691  0.8897
31638SOL    HW298831   1.384   4.185   3.095  0.2816  0.4853 -0.4641
31639SOL     OW98832   3.150   8.518   0.872 -0.8468  0.2922  0.1031
31639SOL    HW198833   3.132   8.570   0.950  0.7783  0.8153  0.1774
31639SOL    HW298834   3.241   8.490   0.883 -0.2914  1.0672 -1.9523
31640SOL     OW98835   2.249   5.206   2.253  0.2626 -0.0741 -0.0066
31640SOL    HW198836   2.336   5.197   2.292 -0.8801 -0.9147  2.5849
31640SOL    HW298837   2.195   5.143   2.300 -2.0362  1.3185 -0.5995
31641SOL     OW98838   7.568   4.985   6.783 -0.8118 -0.3801 -0.3771
31641SOL    HW198839   7.615   4.908   6.814 -1.0828 -0.8891 -1.1841
31641SOL    HW298840   7.529   4.957   6.700 -0.2155  0.8639 -1.1190
31642SOL     OW98841   7.685   4.689   5.056 -0.4476  0.2149 -0.0665
31642SOL    HW198842   7.750   4.718   4.992  1.7110 -0.8448  1.5071
31642SOL    HW298843   7.716   4.725   5.139 -1.3652 -1.0962  0.8788
31643SOL     OW98844   8.589   6.882   9.307 -0.3389 -0.5227 -0.2227
31643SOL    HW198845   8.605   6.901   9.215  1.9618 -0.0282  0.2123
31643SOL    HW298846   8.520   6.815   9.307 -0.5346 -0.3646 -2.2635
31644SOL     OW98847   7.306   2.949  10.182 -0.0688  0.2184 -0.2279
31644SOL    HW198848   7.212   2.958  10.165 -0.2433  0.6924  0.8869
31644SOL    HW298849   7.322   2.855  10.178 -0.2551  0.2274 -1.9965
31645SOL     OW98850   9.732   5.622   1.956 -0.2424  0.1490  0.4608
31645SOL    HW198851   9.759   5.534   1.982 -0.0756 -0.0066 -0.2173
31645SOL    HW298852   9.810   5.661   1.915 -1.0927 -0.4875 -1.9849
31646SOL     OW98853   0.420   5.145   0.804  0.0521 -0.3965  0.2297
31646SOL    HW198854   0.369   5.074   0.844 -3.8244  0.9898 -1.7057
31646SOL    HW298855   0.407   5.220   0.862  1.7161 -0.5071  0.7802
31647SOL     OW98856   4.724   8.508   7.602  0.1875 -0.4815 -0.0770
31647SOL    HW198857   4.765   8.555   7.675  1.1545 -2.5498  0.7936
31647SOL    HW298858   4.769   8.540   7.524  1.6589 -0.7730  0.6109
31648SOL     OW98859   3.444   4.749   9.607 -0.3865 -0.8430  0.1568
31648SOL    HW198860   3.391   4.820   9.571  0.9332  0.0940 -0.0083
31648SOL    HW298861   3.395   4.720   9.684 -1.6824 -0.7655 -0.6048
31649SOL     OW98862   7.949   4.541   4.974 -0.1032  0.0779 -0.2034
31649SOL    HW198863   8.014   4.596   5.017  0.3235 -0.2616 -0.4089
31649SOL    HW298864   7.923   4.591   4.897  0.2505  0.0138 -0.3645
31650SOL     OW98865   9.183   8.074   2.276 -0.0622  0.0941  0.2637
31650SOL    HW198866   9.125   8.130   2.225 -1.4361 -0.0689  1.5708
31650SOL    HW298867   9.165   7.986   2.244 -2.3576 -0.2421  2.2291
31651SOL     OW98868   4.949   1.844   5.604  0.4193 -0.5070 -0.0847
31651SOL    HW198869   5.030   1.811   5.641  0.4996  0.4753  0.6606
31651SOL    HW298870   4.963   1.939   5.596 -0.5116 -0.3747 -0.3012
31652SOL     OW98871   8.559   2.588   9.045 -0.0495  0.3557 -0.1445
31652SOL    HW198872   8.617   2.512   9.038 -0.0028  0.5007 -1.6217
31652SOL    HW298873   8.613   2.655   9.088  0.0399 -0.2963  0.7829
31653SOL     OW98874   3.073   5.183   0.756 -0.0074  0.2330 -0.4249
31653SOL    HW198875   3.144   5.211   0.814 -0.1077 -2.2952  1.0364
31653SOL    HW298876   3.117   5.141   0.683  0.1244 -2.4897  1.0906
31654SOL     OW98877   7.037   4.696   6.255 -0.1046  0.2654  0.1349
31654SOL    HW198878   7.018   4.749   6.177 -2.6092 -0.8121 -0.1062
31654SOL    HW298879   6.972   4.725   6.319  1.8377  1.0448  1.8511
31655SOL     OW98880   3.914   2.445   0.903 -0.1619 -0.0527 -0.0355
31655SOL    HW198881   3.931   2.351   0.909  1.3362  0.2311  0.6991
31655SOL    HW298882   3.845   2.452   0.837 -0.0935 -1.6410 -0.3348
31656SOL     OW98883   1.888   5.189   4.386 -0.2217  0.4324 -0.2648
31656SOL    HW198884   1.945   5.136   4.330 -0.4191  0.0620 -0.1175
31656SOL    HW298885   1.869   5.132   4.461  1.4323  1.5057  1.0504
31657SOL     OW98886   1.340   4.708   6.722 -0.5835 -0.4288  0.6726
31657SOL    HW198887   1.307   4.793   6.693 -0.4128 -0.5045  0.2402
31657SOL    HW298888   1.265   4.649   6.713 -0.3641 -0.5867 -0.2440
31658SOL     OW98889   8.710   9.178   8.946  0.5639  0.5740  0.2004
31658SOL    HW198890   8.735   9.235   9.019 -2.0778  3.0355 -0.6629
31658SOL    HW298891   8.651   9.113   8.986  2.8039 -1.1211  0.9932
31659SOL     OW98892   2.401   7.197   0.909  0.1586 -0.0779 -0.3449
31659SOL    HW198893   2.319   7.187   0.957  0.9655 -0.2536  1.0496
31659SOL    HW298894   2.403   7.290   0.885 -1.0094 -0.3202 -1.4843
31660SOL     OW98895   9.841   3.013   4.036  0.5163  0.4139 -0.1894
31660SOL    HW198896   9.802   3.013   3.949 -2.1194  0.8549  0.8996
31660SOL    HW298897   9.833   3.104   4.066  0.3717  0.0517  0.9302
31661SOL     OW98898   8.109   3.802   1.668  0.0625  0.1828 -0.1124
31661SOL    HW198899   8.066   3.888   1.665 -1.2030 -0.4021  0.4043
31661SOL    HW298900   8.054   3.750   1.727  1.0410 -0.8631 -0.0841
31662SOL     OW98901   7.873   5.151   4.953  0.3592  0.3834 -0.1152
31662SOL    HW198902   7.959   5.110   4.956 -0.4635 -1.4185  0.0303
31662SOL    HW298903   7.811   5.079   4.964 -1.1860  1.6074 -0.3573
31663SOL     OW98904   2.063   4.330   0.123 -0.0516 -0.5234  0.1540
31663SOL    HW198905   2.068   4.250   0.175 -0.7461 -1.7599 -1.6102
31663SOL    HW298906   1.988   4.317   0.065  0.4339  0.9723 -0.8783
31664SOL     OW98907   2.988   3.918   6.870 -0.3909  0.2760  0.0897
31664SOL    HW198908   3.040   3.945   6.946  0.2399  1.3873 -0.6995
31664SOL    HW298909   2.898   3.922   6.900 -0.3737  3.4579  0.0704
31665SOL     OW98910   9.241   0.486   8.850  0.5397  0.0454  0.0837
31665SOL    HW198911   9.147   0.484   8.867  0.4475  0.4091 -0.3884
31665SOL    HW298912   9.281   0.505   8.935  0.4304 -3.6202  1.1417
31666SOL     OW98913   0.765   9.944   4.490 -0.5081  0.5619  0.1168
31666SOL    HW198914   0.835   9.914   4.432 -1.8161  0.0922 -1.2834
31666SOL    HW298915   0.762   9.879   4.560  0.4016  0.5593  0.1664
31667SOL     OW98916   9.518   4.544   6.248  0.2650  0.4618  0.0598
31667SOL    HW198917   9.491   4.561   6.158  0.6593 -1.4862 -0.4973
31667SOL    HW298918   9.579   4.470   6.240 -1.1062 -0.9980  2.0800
31668SOL     OW98919   4.895   0.825   2.632 -0.2111 -0.3718  0.2055
31668SOL    HW198920   4.924   0.750   2.683  0.2770  0.1247  0.6727
31668SOL    HW298921   4.801   0.810   2.619 -0.6390  0.0859  2.3330
31669SOL     OW98922   0.898   3.524   4.960  0.2187  0.2285 -0.7430
31669SOL    HW198923   0.854   3.562   4.884  0.6773  1.9503 -0.1784
31669SOL    HW298924   0.966   3.467   4.923 -1.0675 -0.8031 -1.6066
31670SOL     OW98925   2.290   7.776   1.603  0.2222 -0.2286 -0.9440
31670SOL    HW198926   2.345   7.840   1.558 -1.4704  1.4989 -0.6894
31670SOL    HW298927   2.334   7.761   1.687  0.7681  0.4122 -1.1067
31671SOL     OW98928   5.939   4.710   5.988  0.2974 -0.2525  0.2368
31671SOL    HW198929   5.934   4.779   5.921 -2.0895 -1.0737 -0.5281
31671SOL    HW298930   5.903   4.751   6.067 -1.8387 -0.7438 -0.4116
31672SOL     OW98931   0.038   8.142   9.749  0.1868  0.1790 -0.3093
31672SOL    HW198932  -0.013   8.077   9.700  1.1283 -1.2712  0.5754
31672SOL    HW298933   0.116   8.095   9.778  0.4931  1.4770  1.1070
31673SOL     OW98934   3.447   7.918  10.164 -0.0083 -0.4148  0.0471
31673SOL    HW198935   3.449   7.856  10.091 -0.5814 -0.8861  0.4305
31673SOL    HW298936   3.387   7.880  10.227  2.8268 -1.6410  2.2309
31674SOL     OW98937   4.401   4.130   2.015 -0.3032  0.3565  0.4613
31674SOL    HW198938   4.342   4.120   2.090 -0.1990 -0.7826  0.4203
31674SOL    HW298939   4.414   4.224   2.006 -0.9557  0.5461  1.3756
31675SOL     OW98940   7.919   9.480   9.503  0.0295  0.1518 -0.2609
31675SOL    HW198941   7.897   9.564   9.543 -1.0710  0.0061 -0.5341
31675SOL    HW298942   7.881   9.484   9.415  0.3505 -0.4631 -0.4367
31676SOL     OW98943   0.764   0.926   7.509 -0.1767 -0.1737 -0.2438
31676SOL    HW198944   0.802   0.982   7.441 -1.4604  0.1460 -0.7324
31676SOL    HW298945   0.679   0.898   7.473  0.3907 -2.4069  0.0082
31677SOL     OW98946   3.412   1.959   2.025 -0.1775  0.0210 -0.3346
31677SOL    HW198947   3.418   2.052   2.003  0.2982  0.1935  0.4616
31677SOL    HW298948   3.472   1.916   1.964 -0.6273  0.1911 -0.9086
31678SOL     OW98949   9.248   8.210   9.103 -0.1687 -0.1757 -0.3435
31678SOL    HW198950   9.296   8.240   9.025  0.4199 -1.3202 -0.4475
31678SOL    HW298951   9.227   8.119   9.084 -2.3898  0.2515 -0.2778
31679SOL     OW98952   0.789   2.309   3.301 -1.1904  0.0171 -0.3300
31679SOL    HW198953   0.885   2.308   3.297 -1.1895 -1.2744 -0.3785
31679SOL    HW298954   0.768   2.374   3.368 -0.3244  1.1574 -1.1277
31680SOL     OW98955   4.287   5.109   6.637  0.3823 -0.1559  0.3443
31680SOL    HW198956   4.324   5.194   6.613  1.9133 -1.2493 -1.3823
31680SOL    HW298957   4.274   5.115   6.732  2.2844  1.3550  0.5745
31681SOL     OW98958   5.673   2.934   4.837  0.3388 -0.1335 -0.6088
31681SOL    HW198959   5.746   2.960   4.894  0.3142 -1.5948  0.1490
31681SOL    HW298960   5.715   2.895   4.761  0.3933  2.5567 -2.0662
31682SOL     OW98961   5.122   5.453   4.884  0.4207  0.1362  0.2340
31682SOL    HW198962   5.213   5.481   4.893  0.0574  0.9091  2.1647
31682SOL    HW298963   5.071   5.534   4.897 -0.5710 -0.6911  1.8409
31683SOL     OW98964   9.201   6.704   9.559  0.3990 -0.2234 -0.4385
31683SOL    HW198965   9.230   6.636   9.620 -0.9343  1.2275  1.9671
31683SOL    HW298966   9.137   6.659   9.503 -1.3630 -0.7972  1.8653
31684SOL     OW98967   6.992   2.932   7.254 -0.1306 -0.0944  0.7932
31684SOL    HW198968   7.080   2.895   7.240 -0.0849  0.0065  0.8087
31684SOL    HW298969   6.967   2.966   7.169 -0.5234 -0.9040  0.5741
31685SOL     OW98970   1.634   1.540   2.256  0.7340 -0.4453 -0.4673
31685SOL    HW198971   1.723   1.541   2.223  1.0448  0.1117  0.3430
31685SOL    HW298972   1.610   1.633   2.264 -0.1216 -0.5849 -1.1849
31686SOL     OW98973   4.018   0.822   5.209  0.3484  0.4455  0.4747
31686SOL    HW198974   3.963   0.749   5.237  0.7043 -0.6166 -1.4150
31686SOL    HW298975   3.981   0.850   5.125  1.8375  0.6317 -0.1564
31687SOL     OW98976   6.188   2.010   9.206  0.3885  0.1207  0.1233
31687SOL    HW198977   6.167   1.996   9.299  1.9345 -1.9987  0.1944
31687SOL    HW298978   6.268   2.062   9.207  0.0829  0.6031 -0.0519
31688SOL     OW98979  10.071   1.168   1.160 -0.0459  0.1246  0.0870
31688SOL    HW198980  10.023   1.247   1.182  1.6862  0.6620  2.2865
31688SOL    HW298981  10.010   1.096   1.180 -0.6719  0.8171  0.7145
31689SOL     OW98982   6.087   1.828   2.756  0.1288  0.2329 -0.7691
31689SOL    HW198983   6.129   1.905   2.796  0.5238 -0.4559  0.1775
31689SOL    HW298984   6.146   1.803   2.685 -0.2537  1.0870 -1.4059
31690SOL     OW98985   7.593   8.585   2.619 -0.5272  0.7547  0.6552
31690SOL    HW198986   7.621   8.532   2.694  0.6528 -0.0343 -0.2851
31690SOL    HW298987   7.569   8.521   2.552 -0.6979  1.4221  0.0619
31691SOL     OW98988  10.168   7.209   5.720 -0.5568  0.0808  0.2054
31691SOL    HW198989  10.210   7.291   5.744  1.0836 -0.7850  0.3841
31691SOL    HW298990  10.165   7.210   5.625 -0.3085  0.2338  0.1994
31692SOL     OW98991   4.630   5.608   2.230  0.3145  0.0375  0.4583
31692SOL    HW198992   4.586   5.658   2.298  0.3885  1.1465 -0.2864
31692SOL    HW298993   4.721   5.603   2.258  0.3710  0.6079  0.3903
31693SOL     OW98994   9.356   0.554   9.095 -0.2069  0.5991  0.0313
31693SOL    HW198995   9.366   0.649   9.105  0.6184  0.7642 -1.9145
31693SOL    HW298996   9.443   0.519   9.113 -0.2627  0.3194 -0.2349
31694SOL     OW98997   5.900   9.585   1.681  0.5003  0.7023  0.2541
31694SOL    HW198998   5.818   9.577   1.730  0.6112 -0.1074  0.3274
31694SOL    HW298999   5.967   9.551   1.741  0.8527  1.0927  0.0877
31695SOL     OW99000   5.611   5.749   7.417 -0.3422  0.8246 -0.7485
31695SOL    HW199001   5.663   5.803   7.477 -1.4773  0.4533  0.6370
31695SOL    HW299002   5.543   5.808   7.384 -0.0956  0.8669 -1.1843
31696SOL     OW99003   0.800   5.299   4.424  0.0558  0.9503 -0.1044
31696SOL    HW199004   0.850   5.376   4.451  0.4116  1.7801 -2.8648
31696SOL    HW299005   0.722   5.335   4.382 -0.5384 -0.2592 -0.0741
31697SOL     OW99006   0.544   6.575   6.290 -0.2317  0.1568 -0.0448
31697SOL    HW199007   0.550   6.593   6.384  1.3430 -0.0020 -0.0895
31697SOL    HW299008   0.470   6.628   6.260 -0.7136  0.2566  1.2751
31698SOL     OW99009   0.094   1.039   1.988  0.7017 -0.2170 -0.2619
31698SOL    HW199010   0.022   1.063   1.930 -0.2410  0.2901  1.0653
31698SOL    HW299011   0.131   1.122   2.017  0.9756 -0.4564  0.0889
31699SOL     OW99012   8.813   2.981  10.132  0.4343 -0.1000 -0.1379
31699SOL    HW199013   8.880   3.019  10.189 -1.6750  0.3994  2.1354
31699SOL    HW299014   8.733   3.028  10.153 -0.6055 -0.1984 -3.2600
31700SOL     OW99015   8.651   7.143   5.934  0.2745 -0.4665 -0.0145
31700SOL    HW199016   8.693   7.084   5.996  1.8343 -1.1396 -1.6283
31700SOL    HW299017   8.687   7.118   5.849 -0.6347  1.4221 -1.0158
31701SOL     OW99018   1.379   7.739   5.856  0.0725 -0.0446 -0.3220
31701SOL    HW199019   1.367   7.656   5.902  0.3921 -0.8207 -1.5990
31701SOL    HW299020   1.420   7.796   5.920  0.5419 -1.1017  0.3489
31702SOL     OW99021   2.699   9.252   3.613 -0.1025  0.2519  0.0585
31702SOL    HW199022   2.737   9.219   3.531 -1.0330  1.2022 -0.7790
31702SOL    HW299023   2.739   9.338   3.625 -1.0494  0.7437 -0.1970
31703SOL     OW99024   3.195   9.828   6.717 -0.5239  0.7664  0.6573
31703SOL    HW199025   3.168   9.757   6.659  2.2020 -0.5185  0.7772
31703SOL    HW299026   3.127   9.894   6.708 -3.6650 -2.1433  1.2026
31704SOL     OW99027   5.897   3.399   9.606 -0.2506  0.2651 -0.2349
31704SOL    HW199028   5.887   3.449   9.686 -0.0198  1.2176 -0.7942
31704SOL    HW299029   5.810   3.363   9.589 -0.5002  0.7549 -0.0048
31705SOL     OW99030   0.841   4.170   4.919 -0.0831 -0.5816 -0.3642
31705SOL    HW199031   0.778   4.100   4.904 -0.2145 -0.4831 -0.2733
31705SOL    HW299032   0.790   4.240   4.960 -0.4269  0.4007 -2.3397
31706SOL     OW99033   8.482   4.879   1.355 -0.1361 -0.8066  0.2569
31706SOL    HW199034   8.547   4.946   1.377  1.0564 -1.4081 -1.2037
31706SOL    HW299035   8.402   4.927   1.336  0.1386  0.0332  1.1749
31707SOL     OW99036   6.344   8.409   2.809  0.2334  0.6416  0.8109
31707SOL    HW199037   6.398   8.466   2.755 -1.9928  2.7484  0.6031
31707SOL    HW299038   6.298   8.469   2.868 -1.1528 -1.0840  1.5777
31708SOL     OW99039   2.852   4.955   5.161 -0.4545 -0.1851 -0.2956
31708SOL    HW199040   2.839   4.917   5.249  0.9934  0.1341  0.0688
31708SOL    HW299041   2.842   4.881   5.102  0.5746 -0.8049  0.2885
31709SOL     OW99042   4.472   0.570   5.366 -0.1826 -0.1543 -0.5605
31709SOL    HW199043   4.466   0.521   5.448  1.1218  1.4223  0.5566
31709SOL    HW299044   4.391   0.620   5.361  0.4970  1.1748  0.8076
31710SOL     OW99045   3.229   8.423  10.159  0.1078  0.1088 -0.4972
31710SOL    HW199046   3.148   8.423  10.210 -0.1995  0.4651 -0.9804
31710SOL    HW299047   3.267   8.337  10.175 -0.7713 -0.3674 -0.9049
31711SOL     OW99048   8.070   0.313   9.834 -0.0664 -0.3479 -0.1330
31711SOL    HW199049   8.082   0.370   9.910 -1.2579  0.9975 -0.8916
31711SOL    HW299050   8.040   0.230   9.871 -1.9655  0.6978  0.8711
31712SOL     OW99051   6.322   8.607  10.045 -0.3794  0.2395 -0.2248
31712SOL    HW199052   6.412   8.634  10.064  0.6399 -2.5242 -0.6462
31712SOL    HW299053   6.286   8.680   9.994  2.4581  0.4595 -2.1608
31713SOL     OW99054   0.313   8.433   3.598 -0.4101 -0.1312 -0.0476
31713SOL    HW199055   0.373   8.507   3.607 -0.5976  0.1560 -1.0456
31713SOL    HW299056   0.253   8.441   3.672 -0.2194  0.5235  0.0421
31714SOL     OW99057   8.257   7.975   1.291  0.5052  0.2706 -0.2010
31714SOL    HW199058   8.233   7.956   1.382 -1.2920  0.7808 -0.5445
31714SOL    HW299059   8.189   8.033   1.259  1.6947  0.9837 -1.5720
31715SOL     OW99060   3.174  10.184   9.281 -0.0278 -0.5339 -0.3706
31715SOL    HW199061   3.194  10.265   9.234 -0.6135 -0.6500 -0.8357
31715SOL    HW299062   3.127  10.130   9.217 -1.1515 -0.5525  0.4392
31716SOL     OW99063   9.732   0.333   0.388  0.2828  0.4151  0.3077
31716SOL    HW199064   9.732   0.359   0.296 -1.1130 -1.2878 -0.2153
31716SOL    HW299065   9.796   0.263   0.393 -1.8173 -1.6482 -0.0978
31717SOL     OW99066   8.411   0.033   0.787  0.2904 -0.9330  0.3529
31717SOL    HW199067   8.482   0.098   0.784 -2.8484  2.8349  0.3180
31717SOL    HW299068   8.412  -0.006   0.700  0.4043  1.4057 -0.7803
31718SOL     OW99069   1.148   0.121   3.689 -0.0120 -0.1749 -0.1183
31718SOL    HW199070   1.162   0.073   3.607  0.6990 -0.5870  0.2318
31718SOL    HW299071   1.227   0.104   3.740 -0.6644 -0.3522  0.8630
31719SOL     OW99072   1.265   9.771   8.521 -0.2154 -0.8017 -0.3830
31719SOL    HW199073   1.197   9.713   8.488  0.8653 -0.7519 -2.9305
31719SOL    HW299074   1.318   9.792   8.444  1.1854  1.1886  1.0234
31720SOL     OW99075   8.755   5.888   6.300  0.2766 -0.1500  0.2427
31720SOL    HW199076   8.799   5.867   6.218 -1.1251  0.5534 -0.7225
31720SOL    HW299077   8.742   5.983   6.297 -0.6168 -0.2426  0.8541
31721SOL     OW99078   3.277   5.798   2.736  0.1257 -0.4854  0.2540
31721SOL    HW199079   3.288   5.892   2.750 -2.4636  0.3563 -2.2765
31721SOL    HW299080   3.283   5.788   2.641 -0.7328 -2.7029  0.3890
31722SOL     OW99081   3.131   4.066   4.258 -0.5884  0.4386 -0.8451
31722SOL    HW199082   3.066   4.000   4.283  0.1812  0.0576  0.2369
31722SOL    HW299083   3.157   4.042   4.169  2.8574 -3.5207  0.8607
31723SOL     OW99084   9.976   7.172   6.118 -0.8024 -0.1087 -0.5761
31723SOL    HW199085  10.027   7.207   6.191 -0.7915  1.8748 -1.4726
31723SOL    HW299086  10.029   7.101   6.083  0.6330  0.8679 -0.4863
31724SOL     OW99087   2.753   5.185   5.230 -0.2056 -0.3143 -0.1703
31724SOL    HW199088   2.787   5.097   5.212  0.9305  0.1984 -0.6119
31724SOL    HW299089   2.669   5.187   5.184  0.9994 -0.2664 -2.5513
31725SOL     OW99090   3.749   8.417   0.509 -0.4738 -0.2906 -0.4595
31725SOL    HW199091   3.749   8.322   0.520 -0.0512 -0.5297 -2.2408
31725SOL    HW299092   3.658   8.443   0.522 -0.5139 -0.8722  0.4684
31726SOL     OW99093   8.978   3.356   5.753 -0.1276  0.5631  0.0576
31726SOL    HW199094   9.046   3.423   5.764 -0.0402  0.2636  1.5938
31726SOL    HW299095   8.897   3.402   5.775  0.0216  0.0062  1.9579
31727SOL     OW99096   1.825   9.602   3.611  0.9504  0.3116  0.3078
31727SOL    HW199097   1.768   9.679   3.616  1.2738  0.5152  0.9284
31727SOL    HW299098   1.805   9.564   3.526 -0.2171  0.2994  0.5654
31728SOL     OW99099   1.075   8.374   1.133 -0.4429 -0.4330 -0.2031
31728SOL    HW199100   1.024   8.427   1.193  0.0813 -0.8071  0.5839
31728SOL    HW299101   1.095   8.433   1.060 -0.4825  0.2282  0.3130
31729SOL     OW99102   9.356   4.545   0.181 -0.5452  0.1023  0.1612
31729SOL    HW199103   9.321   4.600   0.111  1.0600  0.3367 -0.5067
31729SOL    HW299104   9.411   4.481   0.136  0.9589  0.5881  1.2165
31730SOL     OW99105   6.016   1.881   1.639 -0.2535 -0.3060 -0.3471
31730SOL    HW199106   6.090   1.893   1.580  0.2356  0.3011  0.3901
31730SOL    HW299107   5.942   1.921   1.593  0.0311 -0.2360 -0.7446
31731SOL     OW99108   4.573   4.012   4.696  0.0826 -0.1148  0.2663
31731SOL    HW199109   4.498   4.004   4.637 -0.9210  0.0317  1.4914
31731SOL    HW299110   4.647   4.028   4.637 -1.2597  2.6929 -0.8543
31732SOL     OW99111   2.773   5.256   8.209  0.3168  0.0764 -0.0840
31732SOL    HW199112   2.732   5.212   8.134  2.8034 -0.2959 -1.3522
31732SOL    HW299113   2.865   5.227   8.206  0.2789 -1.0958  3.9951
31733SOL     OW99114   1.173   3.855   1.625  0.0518 -0.0211  0.3671
31733SOL    HW199115   1.201   3.796   1.695  2.8101 -0.5157 -0.9725
31733SOL    HW299116   1.225   3.934   1.638 -2.0335  1.3401  0.8768
31734SOL     OW99117   7.059   1.194   0.488 -0.2716 -0.2575 -0.6411
31734SOL    HW199118   6.979   1.151   0.459 -0.7242  0.9291 -1.1778
31734SOL    HW299119   7.034   1.284   0.507  0.8264  0.0023 -0.3056
31735SOL     OW99120   6.507   3.915   6.176 -0.5257  0.4629  0.6609
31735SOL    HW199121   6.546   4.000   6.157 -1.1306  0.4639 -0.6628
31735SOL    HW299122   6.496   3.873   6.091 -0.2695 -0.9385  1.2887
31736SOL     OW99123   9.735   3.171   5.610  0.2256 -0.1597 -0.1786
31736SOL    HW199124   9.761   3.186   5.701  0.5814 -0.5212 -0.2205
31736SOL    HW299125   9.776   3.088   5.586 -0.9547 -0.7428 -0.2465
31737SOL     OW99126   0.881   1.649   4.641  0.0273  0.3306 -0.4091
31737SOL    HW199127   0.808   1.593   4.667  1.5698 -1.7087 -0.1959
31737SOL    HW299128   0.908   1.691   4.722  1.7765 -2.3109  0.5170
31738SOL     OW99129   2.575   1.593  10.139 -0.0442 -0.0821  0.3986
31738SOL    HW199130   2.513   1.629  10.202 -0.7639 -1.5176  0.5628
31738SOL    HW299131   2.545   1.627  10.054  1.1253  2.1153  0.8188
31739SOL     OW99132   3.791   2.901   0.311 -0.0299  0.8886 -0.0617
31739SOL    HW199133   3.866   2.851   0.344 -0.6204  0.7440  1.0879
31739SOL    HW299134   3.793   2.983   0.360 -1.0397  0.5863  0.5156
31740SOL     OW99135   9.977   6.417   8.392 -0.4595 -0.2957  0.5300
31740SOL    HW199136   9.918   6.465   8.335  0.7137  0.0225 -0.4660
31740SOL    HW299137   9.961   6.452   8.479 -1.0942  0.4278  0.1326
31741SOL     OW99138   5.194   4.461   4.869 -0.7056 -0.4291 -0.8290
31741SOL    HW199139   5.276   4.491   4.908 -1.4491 -0.6082  0.9797
31741SOL    HW299140   5.126   4.498   4.926 -1.8676 -0.7174 -1.9844
31742SOL     OW99141   1.252   5.384   7.189  0.1155 -0.1320  0.0093
31742SOL    HW199142   1.159   5.365   7.181  0.4550 -2.1512  0.3746
31742SOL    HW299143   1.264   5.410   7.281  0.1445 -1.4650  0.3987
31743SOL     OW99144   0.354   4.125   4.366  0.3844  0.0510 -0.1475
31743SOL    HW199145   0.324   4.084   4.285 -0.0180  0.7016 -0.3387
31743SOL    HW299146   0.446   4.147   4.349  0.0790  0.9167 -0.7325
31744SOL     OW99147   2.005   3.623   9.923  0.3620  0.6276  0.3540
31744SOL    HW199148   1.985   3.563   9.851 -1.0859  0.3160  0.9868
31744SOL    HW299149   2.087   3.590   9.960  1.2770  0.9310 -1.2738
31745SOL     OW99150   8.634   6.906   9.938  0.1779  0.4195  0.2872
31745SOL    HW199151   8.590   6.982   9.901 -0.8937 -0.3966 -0.1831
31745SOL    HW299152   8.575   6.876  10.008  0.1525 -0.4612 -0.0957
31746SOL     OW99153   0.216   1.610   0.851 -0.5489  0.2069  0.3489
31746SOL    HW199154   0.157   1.683   0.870 -1.0584  0.2136 -1.1723
31746SOL    HW299155   0.230   1.569   0.937 -0.4703  1.8975  1.1906
31747SOL     OW99156   7.048   2.394   8.425 -0.2324 -0.6297 -0.0342
31747SOL    HW199157   7.057   2.410   8.519  1.4822 -0.6627 -0.1697
31747SOL    HW299158   7.018   2.303   8.420  0.8341 -1.0258  0.4647
31748SOL     OW99159   3.858   0.613   0.641 -0.5329 -0.0056 -0.4193
31748SOL    HW199160   3.887   0.553   0.573  0.9451  0.3491 -0.1550
31748SOL    HW299161   3.935   0.623   0.698 -0.6586  2.2205 -0.5435
31749SOL     OW99162   3.071   2.694   9.924 -0.3608  0.0372  0.0592
31749SOL    HW199163   3.028   2.621   9.969 -1.9676  0.1690 -1.1832
31749SOL    HW299164   3.162   2.666   9.916 -1.0865 -2.2459 -1.1368
31750SOL     OW99165   3.011   4.264   8.188  0.3794 -0.3834 -0.5701
31750SOL    HW199166   3.106   4.278   8.190  0.2428  1.2822 -2.4739
31750SOL    HW299167   3.000   4.170   8.176  1.7521 -0.6593  0.1288
31751SOL     OW99168   1.792   8.586   7.381  0.2574  0.1697 -0.7471
31751SOL    HW199169   1.750   8.551   7.303  0.4970 -0.6932 -0.4949
31751SOL    HW299170   1.722   8.630   7.429 -0.1512 -0.3830 -0.8327
31752SOL     OW99171   9.327   6.219  10.091 -0.4666  0.3011 -0.7843
31752SOL    HW199172   9.420   6.205  10.070 -0.1413  1.8290 -0.4940
31752SOL    HW299173   9.307   6.152  10.156  0.1126 -0.7651 -1.6679
31753SOL     OW99174   2.964   3.202   6.949 -0.6981 -0.2003  0.3384
31753SOL    HW199175   3.038   3.261   6.937 -0.7142 -0.6659 -2.9040
31753SOL    HW299176   3.003   3.114   6.943 -1.2465 -0.4769  0.7448
31754SOL     OW99177   8.230   4.317   4.829  0.0402  0.2419 -0.5361
31754SOL    HW199178   8.182   4.329   4.747 -1.1607 -2.0480 -0.2631
31754SOL    HW299179   8.301   4.256   4.806  0.4730  0.5862 -0.1295
31755SOL     OW99180   5.144   1.883   6.509  0.9924  0.6402 -0.0865
31755SOL    HW199181   5.053   1.901   6.533  1.4525  2.0577  0.7218
31755SOL    HW299182   5.155   1.789   6.526 -1.0450 -0.2273 -2.8066
31756SOL     OW99183   4.625   8.164   3.539  0.0171  0.0369 -0.2682
31756SOL    HW199184   4.591   8.243   3.497 -2.3189 -1.0504 -0.6509
31756SOL    HW299185   4.631   8.186   3.632 -2.2585  0.2334 -0.1119
31757SOL     OW99186   3.219   3.299   6.926 -0.4329 -0.0276 -0.3851
31757SOL    HW199187   3.235   3.290   6.832 -1.3302  0.2819 -0.5733
31757SOL    HW299188   3.306   3.306   6.965 -0.0182 -1.0482 -1.0989
31758SOL     OW99189   5.498   2.249   6.411  0.2929  0.3048  0.3640
31758SOL    HW199190   5.435   2.190   6.368 -0.7491  1.7484 -0.1665
31758SOL    HW299191   5.482   2.236   6.505  0.6384 -0.8279  0.2802
31759SOL     OW99192   4.298   7.947   3.087  0.3384  0.3348 -0.1488
31759SOL    HW199193   4.234   7.919   3.152 -0.4436  0.7686 -0.7177
31759SOL    HW299194   4.382   7.939   3.132  0.1003 -2.0239  0.0353
31760SOL     OW99195   1.262   4.034   3.939  0.2410  0.3669  0.2417
31760SOL    HW199196   1.248   3.955   3.888 -1.1447  0.4656  0.4292
31760SOL    HW299197   1.185   4.088   3.923  0.4126  0.9941  1.3551
31761SOL     OW99198   3.883   1.308   5.133  0.0293 -0.3051 -0.0306
31761SOL    HW199199   3.943   1.253   5.082 -1.2370 -1.3427 -0.4518
31761SOL    HW299200   3.813   1.248   5.160 -1.0201  0.9503  0.1267
31762SOL     OW99201   8.223   3.916   4.610  0.3587 -0.7793  0.0218
31762SOL    HW199202   8.309   3.940   4.575  0.6746  0.2371  1.3807
31762SOL    HW299203   8.171   3.893   4.534  1.2739  0.4492 -1.0210
31763SOL     OW99204   3.955   4.664   0.406 -0.5852  0.8910  0.4417
31763SOL    HW199205   4.034   4.667   0.458 -1.0840 -1.2475  1.4458
31763SOL    HW299206   3.983   4.688   0.318  0.8383  1.7449  1.1026
31764SOL     OW99207   6.200   0.708   1.186  0.0513  0.2764 -0.5543
31764SOL    HW199208   6.270   0.689   1.248 -0.2807  1.0029  0.0693
31764SOL    HW299209   6.152   0.781   1.226 -1.1651 -0.3206 -0.8677
31765SOL     OW99210   9.543   8.089   6.814  0.2709  0.0717 -0.3953
31765SOL    HW199211   9.523   8.037   6.735 -0.3796 -0.1987 -0.0623
31765SOL    HW299212   9.489   8.049   6.883  0.2629  0.7779  0.0161
31766SOL     OW99213   0.349   1.159   9.063  0.5627  0.5280 -0.2696
31766SOL    HW199214   0.328   1.225   9.129  0.6694  0.1585  0.1405
31766SOL    HW299215   0.284   1.172   8.994 -1.1979 -0.7278  1.0589
31767SOL     OW99216   5.782   8.568   6.954 -0.8716 -0.2688  0.7945
31767SOL    HW199217   5.838   8.643   6.976 -1.4995  0.3343  0.3874
31767SOL    HW299218   5.835   8.516   6.894  0.5535 -1.5160  3.0062
31768SOL     OW99219   3.468   5.797   4.647  0.1040 -0.3201 -0.5440
31768SOL    HW199220   3.416   5.877   4.660  2.0051  0.9019  0.0566
31768SOL    HW299221   3.450   5.771   4.557 -1.1630  0.3147 -0.4981
31769SOL     OW99222   2.648   1.180   3.237  0.2086  0.6996 -0.6783
31769SOL    HW199223   2.734   1.210   3.268 -0.3747  1.7311 -0.0311
31769SOL    HW299224   2.642   1.090   3.268 -0.3019  1.6185  2.1919
31770SOL     OW99225   6.321   0.202   1.944  0.8098  0.3767  0.1547
31770SOL    HW199226   6.322   0.113   1.907  1.0506  0.9287 -1.2132
31770SOL    HW299227   6.366   0.256   1.880  1.4262  1.3633  1.3662
31771SOL     OW99228   5.984   5.798   0.283  0.1365 -0.0299 -0.0296
31771SOL    HW199229   5.968   5.849   0.204 -2.2462  1.3540  1.2161
31771SOL    HW299230   5.937   5.716   0.269  1.4371 -0.6606 -0.8272
31772SOL     OW99231   5.918  10.109   4.954 -0.3405  0.0665 -0.1576
31772SOL    HW199232   5.930  10.193   4.998  0.4073  0.1428 -0.4848
31772SOL    HW299233   6.007  10.080   4.933 -0.6190 -0.5662 -0.4983
31773SOL     OW99234   2.567   6.400   3.928  0.1188 -0.8631  0.1471
31773SOL    HW199235   2.647   6.349   3.924 -0.5894 -2.0204  0.1017
31773SOL    HW299236   2.526   6.374   4.011 -0.1587 -0.2141  0.2200
31774SOL     OW99237   1.067   8.786   9.549 -0.3814 -0.2974 -0.8674
31774SOL    HW199238   1.068   8.786   9.645 -1.3737 -2.3654 -0.7963
31774SOL    HW299239   1.104   8.871   9.524  1.1017 -0.2310  1.3192
31775SOL     OW99240   9.748   0.048   4.462  0.3552 -0.1680 -0.1866
31775SOL    HW199241   9.689   0.009   4.527  0.3209  1.3573  0.7693
31775SOL    HW299242   9.813   0.095   4.515 -0.1835  1.8653 -1.2273
31776SOL     OW99243   4.414   8.389   1.698  0.1315  0.3278  0.7291
31776SOL    HW199244   4.450   8.346   1.775  0.4546  0.0334  0.4179
31776SOL    HW299245   4.349   8.451   1.733  0.5319  0.4564  1.2553
31777SOL     OW99246   8.680   9.334   0.784  1.0241 -0.0105  0.0280
31777SOL    HW199247   8.732   9.350   0.706  0.3143 -0.5452 -0.5785
31777SOL    HW299248   8.594   9.373   0.764  0.2764 -1.6793 -0.2011
31778SOL     OW99249   0.178   5.198   4.020 -1.4530 -0.1639 -0.3411
31778SOL    HW199250   0.207   5.290   4.012 -0.2499 -0.2316  2.2631
31778SOL    HW299251   0.241   5.149   3.967 -0.8623  0.3371 -0.1169
31779SOL     OW99252   3.623   4.170   4.806 -0.2271 -0.1079 -0.5213
31779SOL    HW199253   3.709   4.171   4.765  0.0951  2.6165  0.0506
31779SOL    HW299254   3.640   4.156   4.899 -0.5508 -0.8358 -0.5562
31780SOL     OW99255   9.538   1.034   4.557 -0.3361  0.3225  0.2817
31780SOL    HW199256   9.524   0.951   4.602  0.0106  1.0349  1.8072
31780SOL    HW299257   9.632   1.035   4.538 -0.0797  0.8672  1.4301
31781SOL     OW99258   6.978   8.171   7.046 -0.2462 -0.4562 -0.2114
31781SOL    HW199259   6.916   8.196   6.977 -1.7518  1.9605  1.8696
31781SOL    HW299260   7.057   8.222   7.026 -0.4774 -0.1795 -0.4370
31782SOL     OW99261   2.012   9.513   8.262  0.3193  0.2400 -0.1024
31782SOL    HW199262   1.927   9.553   8.246  0.1704  0.5337  1.2937
31782SOL    HW299263   1.993   9.419   8.267 -0.4431  0.4386  2.7618
31783SOL     OW99264   4.359   0.024   4.441  0.0742 -0.3414  0.7462
31783SOL    HW199265   4.351  -0.038   4.369 -2.5180  1.3334 -0.5498
31783SOL    HW299266   4.294  -0.005   4.505 -0.8265  0.7470  0.3382
31784SOL     OW99267   8.224   1.826   2.773 -0.0482  0.0181 -0.0721
31784SOL    HW199268   8.258   1.736   2.767 -0.0848 -0.2495  2.6524
31784SOL    HW299269   8.189   1.844   2.685 -1.6587 -3.2788 -0.2610
31785SOL     OW99270   7.095   2.956   6.504  0.2978  0.1308 -0.3030
31785SOL    HW199271   7.109   2.863   6.522  0.0243 -0.1750 -1.5725
31785SOL    HW299272   7.006   2.973   6.533  0.7224  0.2832  0.9629
31786SOL     OW99273   6.427   5.466   1.314 -0.5584  0.5565  0.1636
31786SOL    HW199274   6.427   5.537   1.250  1.3446  1.0904  0.6820
31786SOL    HW299275   6.454   5.507   1.396  0.2449 -0.6852  0.5473
31787SOL     OW99276   6.442   1.124   4.960 -0.5729 -0.0708  0.1019
31787SOL    HW199277   6.523   1.073   4.957  0.4910  1.5215  0.5915
31787SOL    HW299278   6.421   1.140   4.869 -1.2821 -1.8579 -0.0989
31788SOL     OW99279   3.444   2.046   9.719 -0.1003  0.3911  0.4113
31788SOL    HW199280   3.446   2.124   9.665  1.1993 -0.2438 -0.5156
31788SOL    HW299281   3.352   2.018   9.720 -0.2426  0.7901 -0.9125
31789SOL     OW99282   0.688   1.092   7.732  0.1595  1.1046 -0.3303
31789SOL    HW199283   0.734   1.061   7.810 -2.8567  0.2656  1.2591
31789SOL    HW299284   0.716   1.034   7.662  2.1235  1.2050  0.3043
31790SOL     OW99285   8.737   5.113   7.253 -0.0103 -0.0348  0.0103
31790SOL    HW199286   8.717   5.019   7.248 -1.4103  0.2787 -0.9971
31790SOL    HW299287   8.656   5.155   7.225  0.4667  1.4957  0.8530
31791SOL     OW99288   0.214   8.202   1.494  0.0793  0.0420 -0.3067
31791SOL    HW199289   0.206   8.147   1.416  0.2280 -1.5503  0.7562
31791SOL    HW299290   0.256   8.146   1.558 -2.3336  0.4173  1.7606
31792SOL     OW99291   5.829   3.389   8.897  0.7224  0.0125 -0.1047
31792SOL    HW199292   5.753   3.367   8.951 -1.3917  2.8044 -1.6198
31792SOL    HW299293   5.839   3.314   8.839 -0.1083 -0.9332  0.9222
31793SOL     OW99294   3.184   0.023   8.016 -0.7294 -0.1773  0.0435
31793SOL    HW199295   3.193   0.082   8.090 -2.6292 -0.1026  0.2793
31793SOL    HW299296   3.260   0.042   7.960  0.3765  0.2162  1.6280
31794SOL     OW99297   6.018   6.412   2.223  0.9076  0.2846 -0.0272
31794SOL    HW199298   6.063   6.403   2.139  1.0238  1.1284 -0.0648
31794SOL    HW299299   5.925   6.409   2.201  0.9345 -0.7838 -0.0288
31795SOL     OW99300   6.809   8.219   2.924 -0.4392  0.1156 -0.0965
31795SOL    HW199301   6.714   8.231   2.930 -0.4880 -0.7019  1.0706
31795SOL    HW299302   6.827   8.217   2.830 -1.5845  0.2493 -0.3307
31796SOL     OW99303   9.166   2.943   4.522 -0.1784 -0.1585 -0.4112
31796SOL    HW199304   9.115   3.024   4.535 -0.1563 -0.6223  4.4437
31796SOL    HW299305   9.103   2.882   4.483 -1.5789  0.9665 -0.0279
31797SOL     OW99306   9.245   7.795   2.835 -0.5376 -0.4584 -0.0300
31797SOL    HW199307   9.179   7.847   2.789 -1.2922 -1.3144  0.0625
31797SOL    HW299308   9.314   7.781   2.771 -0.5095  0.3187 -0.1763
31798SOL     OW99309   7.968   2.518   2.922 -0.0911 -0.1029  0.6800
31798SOL    HW199310   8.035   2.575   2.884 -1.7904  2.1871  0.9063
31798SOL    HW299311   7.995   2.508   3.013  1.0689 -1.0534  0.2624
31799SOL     OW99312   1.710   0.792   8.840 -0.4063 -0.1635  0.1085
31799SOL    HW199313   1.692   0.786   8.934 -1.3794 -0.6894 -0.0950
31799SOL    HW299314   1.718   0.702   8.811 -0.5498 -0.0178 -0.3945
31800SOL     OW99315   8.385   9.436   9.770 -0.1321  0.2571  0.0739
31800SOL    HW199316   8.312   9.438   9.708 -1.1554  0.6139  1.2363
31800SOL    HW299317   8.381   9.521   9.814 -0.0865 -0.3678  1.3350
31801SOL     OW99318   0.640   8.871   9.866 -0.1826  0.0564  0.0251
31801SOL    HW199319   0.703   8.847   9.797  1.1094  1.6909  0.5483
31801SOL    HW299320   0.635   8.967   9.860 -1.7066  0.0548  0.8302
31802SOL     OW99321   2.018   3.887   3.707  0.1038 -0.5050  0.1305
31802SOL    HW199322   1.960   3.816   3.732  0.1881 -0.6608 -0.1071
31802SOL    HW299323   1.981   3.965   3.748 -1.8632 -0.0899 -2.2045
31803SOL     OW99324   1.018   8.590   6.375  0.1915  0.8885 -0.1177
31803SOL    HW199325   0.963   8.606   6.451  0.6979 -1.3040  0.7847
31803SOL    HW299326   1.103   8.628   6.398  0.7876 -1.0388  1.1289
31804SOL     OW99327   0.604   6.141   6.652 -0.6008  0.9331  0.0024
31804SOL    HW199328   0.694   6.110   6.646 -1.0714 -0.2851 -1.3479
31804SOL    HW299329   0.599   6.185   6.737  0.9563  0.0525  0.5801
31805SOL     OW99330   5.188   2.975   1.528  0.1775 -0.5548 -0.0137
31805SOL    HW199331   5.150   2.984   1.441  0.4045 -1.6582 -0.2380
31805SOL    HW299332   5.196   3.065   1.560 -1.7476 -0.2197 -0.3335
31806SOL     OW99333  10.086   3.871   1.210 -0.7982 -0.2897  0.4345
31806SOL    HW199334   9.992   3.873   1.187 -0.2195 -1.2656 -2.5955
31806SOL    HW299335  10.111   3.779   1.197  0.8510  0.2186 -0.2651
31807SOL     OW99336   4.426   1.017   4.584  0.0394  0.1386  0.0597
31807SOL    HW199337   4.412   0.931   4.545 -0.9842  0.7026 -0.9073
31807SOL    HW299338   4.495   1.004   4.649 -0.2779 -1.4470  0.1083
31808SOL     OW99339   7.266   4.508   9.854 -0.0470  0.2671 -0.2901
31808SOL    HW199340   7.350   4.501   9.900 -0.0868  1.7766  0.0806
31808SOL    HW299341   7.256   4.602   9.838 -1.7723  0.1404 -0.1150
31809SOL     OW99342   0.208   3.625   5.298 -0.2324 -0.0743 -0.1699
31809SOL    HW199343   0.140   3.588   5.354 -0.9032 -3.6415 -2.9395
31809SOL    HW299344   0.289   3.587   5.331 -0.4699 -1.1202 -0.7292
31810SOL     OW99345   4.857   1.700   3.120  0.1867 -0.0290  0.8922
31810SOL    HW199346   4.942   1.657   3.116  0.4122  0.3889  1.1091
31810SOL    HW299347   4.877   1.793   3.120 -0.2947  0.0801  0.4332
31811SOL     OW99348   3.944   4.634   2.561 -0.8712  0.0125 -0.2088
31811SOL    HW199349   3.889   4.640   2.638 -2.4276  0.0349 -1.2733
31811SOL    HW299350   3.916   4.706   2.505 -0.8706 -0.8968 -1.4410
31812SOL     OW99351   5.571   7.257   2.945 -0.2137  0.5149  0.0752
31812SOL    HW199352   5.510   7.218   3.007  1.4595 -0.1802  1.3274
31812SOL    HW299353   5.578   7.192   2.875 -0.3876  0.3018  0.2515
31813SOL     OW99354   5.785   1.600   0.586  0.4414 -0.5323 -0.9602
31813SOL    HW199355   5.750   1.515   0.561  1.4088 -1.2051 -0.1186
31813SOL    HW299356   5.710   1.647   0.621 -0.1533 -0.9448 -1.6561
31814SOL     OW99357   1.257   4.578   2.229 -0.3864  0.0061 -0.0956
31814SOL    HW199358   1.309   4.658   2.233 -0.0786 -0.2390  0.9113
31814SOL    HW299359   1.271   4.535   2.313  1.3360 -2.3000 -1.4200
31815SOL     OW99360   8.506   8.927   5.299 -0.4549  0.4997  0.0045
31815SOL    HW199361   8.496   8.873   5.221  1.9695 -0.7815  0.4823
31815SOL    HW299362   8.459   8.880   5.367  0.9754 -0.6487  0.2351
31816SOL     OW99363   2.255   7.251   4.318  0.1477  0.0673  0.0591
31816SOL    HW199364   2.267   7.303   4.238  1.4193  0.2545  0.3521
31816SOL    HW299365   2.190   7.300   4.369 -1.1227 -0.3606 -1.0912
31817SOL     OW99366   6.963   9.782   5.733 -0.0352 -0.1940 -0.1987
31817SOL    HW199367   6.981   9.699   5.777  2.1038  1.1212  1.6218
31817SOL    HW299368   7.007   9.774   5.648 -0.2869 -1.0628 -0.2628
31818SOL     OW99369   7.083   1.990   7.972  0.9407  0.5177  0.1974
31818SOL    HW199370   7.026   2.058   8.006  1.1872  0.3200  1.0286
31818SOL    HW299371   7.027   1.940   7.912  0.9051  1.7439 -0.8228
31819SOL     OW99372   5.840   9.774  10.077 -0.0909  0.7277  0.0074
31819SOL    HW199373   5.756   9.811  10.104 -1.2168  2.8453 -5.1936
31819SOL    HW299374   5.817   9.700  10.021  1.7129 -0.4774  0.7699
31820SOL     OW99375   2.066   2.807   2.559  0.2891 -0.1146  0.3652
31820SOL    HW199376   2.020   2.873   2.611  0.3800  1.6941 -1.6743
31820SOL    HW299377   2.019   2.806   2.475  2.1094 -0.4362 -0.7093
31821SOL     OW99378   5.031   0.414   1.103  0.1836  0.1286 -0.3190
31821SOL    HW199379   4.968   0.350   1.134 -0.2383  1.1382  0.9672
31821SOL    HW299380   4.981   0.495   1.094  1.0309  0.6515 -0.4264
31822SOL     OW99381   8.519   3.460   1.977 -0.5688  0.3297  0.0688
31822SOL    HW199382   8.560   3.522   2.037  1.1823 -0.3042 -0.4242
31822SOL    HW299383   8.451   3.511   1.932 -0.4334  1.3694  1.0197
31823SOL     OW99384   4.223   9.655   9.249  0.0451 -0.0606 -0.4141
31823SOL    HW199385   4.274   9.607   9.185  0.1547 -1.8881  0.9671
31823SOL    HW299386   4.138   9.669   9.207  0.4577 -0.2841 -1.3380
31824SOL     OW99387   1.558   6.790   1.256 -0.4172 -0.3216  0.3386
31824SOL    HW199388   1.640   6.830   1.226 -0.1873 -0.7168  0.4354
31824SOL    HW299389   1.568   6.786   1.351 -0.4892 -0.5042  0.3372
31825SOL     OW99390   4.365   8.273   2.666  0.0643  0.0743 -0.6729
31825SOL    HW199391   4.380   8.353   2.616  0.4213  0.5848  0.2236
31825SOL    HW299392   4.431   8.275   2.735 -0.7301 -0.3460  0.1260
31826SOL     OW99393   9.521   0.239   7.276 -0.2589  0.3840  0.2977
31826SOL    HW199394   9.482   0.259   7.360 -0.8292 -0.2032  0.1858
31826SOL    HW299395   9.542   0.324   7.237  0.8967  0.6345  1.4293
31827SOL     OW99396   6.870   1.263   4.730 -0.3636  0.1802  0.1106
31827SOL    HW199397   6.864   1.203   4.656 -1.4442  0.1612  0.1883
31827SOL    HW299398   6.880   1.349   4.691 -0.7999  0.1551 -0.0668
31828SOL     OW99399   8.545   8.973   9.036  0.4629  0.5802  0.3328
31828SOL    HW199400   8.476   9.026   9.076 -2.8639 -1.7232 -1.7951
31828SOL    HW299401   8.511   8.949   8.950  2.8419 -2.7805  0.1016
31829SOL     OW99402   8.614   5.089   6.259  0.2744 -0.0494 -0.7549
31829SOL    HW199403   8.701   5.106   6.222  1.3121  0.5254  1.7493
31829SOL    HW299404   8.628   5.018   6.322 -1.3648 -0.8593 -1.2482
31830SOL     OW99405   9.902   1.160   6.403  0.0962  0.4421 -0.2285
31830SOL    HW199406   9.872   1.251   6.412 -0.3712  0.3927 -1.1683
31830SOL    HW299407   9.947   1.141   6.485  0.2300  1.5396 -0.0378
31831SOL     OW99408   9.172   4.893   3.985  0.0875  0.5396 -0.0105
31831SOL    HW199409   9.170   4.986   4.006  1.0312  0.8478 -1.1970
31831SOL    HW299410   9.228   4.886   3.908 -2.7843 -0.5889 -2.1454
31832SOL     OW99411   0.112   1.583   9.445  0.0499  0.4774 -0.6070
31832SOL    HW199412   0.158   1.652   9.398 -0.6253 -0.1472 -2.2542
31832SOL    HW299413   0.173   1.556   9.514  0.9606  1.6124 -0.9448
31833SOL     OW99414   9.269   2.944   9.027  0.2699 -0.2068 -0.1938
31833SOL    HW199415   9.353   2.898   9.021  0.1706 -0.6229  1.1394
31833SOL    HW299416   9.205   2.878   9.000  0.2253 -0.5120  0.6211
31834SOL     OW99417   7.555   3.452   4.768  0.2592  0.2035 -0.2521
31834SOL    HW199418   7.627   3.507   4.737  1.1166  0.0717  1.3969
31834SOL    HW299419   7.562   3.455   4.863 -1.4015 -0.5263 -0.0764
31835SOL     OW99420   7.906   4.682   8.825  0.2013 -0.6104  0.3439
31835SOL    HW199421   7.845   4.662   8.895  0.2383 -0.7709  0.3288
31835SOL    HW299422   7.941   4.769   8.848 -0.7274 -0.0948 -0.1394
31836SOL     OW99423   0.081   0.150   3.982 -0.2923  0.2145 -0.4832
31836SOL    HW199424   0.175   0.160   4.000 -0.6864  0.4715  1.6972
31836SOL    HW299425   0.072   0.058   3.956  0.4869  0.0592 -0.2448
31837SOL     OW99426   3.672   5.775   6.368  0.0020 -0.6618  0.0962
31837SOL    HW199427   3.594   5.815   6.331 -0.2962 -0.3086  1.0864
31837SOL    HW299428   3.739   5.785   6.299 -1.1341 -2.1384 -1.2832
31838SOL     OW99429   7.006   7.172   5.061  0.7029 -0.1311 -0.0045
31838SOL    HW199430   7.009   7.110   5.134 -1.3500 -0.2748  0.0210
31838SOL    HW299431   6.976   7.254   5.102  2.1829  0.5563 -0.2495
31839SOL     OW99432   5.773   8.235   6.871  0.2897 -0.2188 -0.2581
31839SOL    HW199433   5.734   8.312   6.912  0.2137 -1.4474  2.1848
31839SOL    HW299434   5.707   8.205   6.809 -0.5888  0.4764  0.3056
31840SOL     OW99435   4.356   3.536   1.141 -0.3147  0.1967  0.6299
31840SOL    HW199436   4.426   3.476   1.114 -0.4745 -0.7983  2.3318
31840SOL    HW299437   4.282   3.479   1.163 -1.2704  1.1717  0.0429
31841SOL     OW99438   8.428   0.727   8.837 -0.3916  0.5986 -0.0021
31841SOL    HW199439   8.493   0.786   8.875 -1.8734  2.6488 -0.4700
31841SOL    HW299440   8.467   0.697   8.755  0.5514  0.6079  0.4302
31842SOL     OW99441   5.677   8.850   7.839  0.1474 -0.4061  0.5760
31842SOL    HW199442   5.714   8.929   7.800  0.1916  0.2938  1.9745
31842SOL    HW299443   5.748   8.786   7.836  0.7358  0.2056  1.1238
31843SOL     OW99444   7.708   6.392   7.881 -0.0581 -0.7010 -0.8199
31843SOL    HW199445   7.681   6.472   7.836  0.5653 -0.3286 -0.5501
31843SOL    HW299446   7.741   6.422   7.966  1.5493 -1.0639 -1.2835
31844SOL     OW99447   6.228   4.394   5.467  0.2238 -0.0636 -0.4068
31844SOL    HW199448   6.257   4.474   5.510  1.8827 -1.2024  0.6974
31844SOL    HW299449   6.191   4.340   5.537  0.0914 -0.6944 -0.9491
31845SOL     OW99450   0.516   9.180   6.322  0.2215  0.2058 -0.4476
31845SOL    HW199451   0.485   9.105   6.372 -0.7020 -0.0001 -1.3016
31845SOL    HW299452   0.444   9.201   6.262  1.0146  0.8799 -1.1961
31846SOL     OW99453   6.574  10.050   4.656 -1.1012 -0.1221  0.4266
31846SOL    HW199454   6.491  10.003   4.656 -0.2359 -1.7199  0.1892
31846SOL    HW299455   6.610  10.035   4.743 -1.8620  2.1537  1.2173
31847SOL     OW99456   8.697   6.882   4.410  0.0048 -0.4627  0.0044
31847SOL    HW199457   8.728   6.969   4.385  0.1830 -0.3278  0.6682
31847SOL    HW299458   8.739   6.822   4.348 -0.4342 -0.0446 -0.7079
31848SOL     OW99459   9.470   1.283   4.949  0.5218  0.4480  0.2385
31848SOL    HW199460   9.466   1.299   4.855 -1.6957 -0.2662  0.1457
31848SOL    HW299461   9.541   1.220   4.960  0.1909 -0.1952 -1.1113
31849SOL     OW99462   5.280   3.996   7.017 -0.4444 -0.6351  0.0162
31849SOL    HW199463   5.236   4.054   6.955 -1.6053 -1.9269 -0.4268
31849SOL    HW299464   5.279   3.910   6.974 -0.9032 -1.4857  1.6385
31850SOL     OW99465   4.208   4.057   4.208 -0.2813 -0.0355  0.0325
31850SOL    HW199466   4.233   4.109   4.132  0.9116  0.6773  0.8808
31850SOL    HW299467   4.271   4.081   4.276 -1.6523 -0.2175  1.4380
31851SOL     OW99468   3.334   5.761   0.196  0.4654 -0.4495  0.1337
31851SOL    HW199469   3.299   5.690   0.143 -0.8179 -0.1600  0.5648
31851SOL    HW299470   3.398   5.719   0.254 -0.3252 -1.2632  0.4311
31852SOL     OW99471   5.650   0.186   9.814  0.0599 -0.3550  0.2238
31852SOL    HW199472   5.738   0.207   9.785  0.2354 -0.4671  0.6635
31852SOL    HW299473   5.658   0.173   9.909 -0.7817  1.7119  0.6502
31853SOL     OW99474   5.379   9.310   0.253 -0.0254 -0.4553  0.0110
31853SOL    HW199475   5.307   9.275   0.201  0.5238 -0.5860 -0.6868
31853SOL    HW299476   5.418   9.233   0.295  0.9914 -0.6928 -1.2807
31854SOL     OW99477   6.007   3.328   6.339 -0.0326 -0.6315 -0.4597
31854SOL    HW199478   5.972   3.289   6.259  1.6234  1.9360 -2.6041
31854SOL    HW299479   6.095   3.291   6.348  0.0938 -0.2984 -0.2920
31855SOL     OW99480   7.460   8.843   4.318  0.4249 -0.2959  0.4133
31855SOL    HW199481   7.521   8.782   4.276  1.1193  0.5029  0.2149
31855SOL    HW299482   7.374   8.803   4.307  0.8055 -0.9948 -0.1374
31856SOL     OW99483   7.095   9.846   3.176 -0.3743 -0.0687 -0.2908
31856SOL    HW199484   7.022   9.799   3.214 -1.3877  0.8009 -1.1013
31856SOL    HW299485   7.157   9.778   3.149 -1.0699 -0.8291  0.0136
31857SOL     OW99486   9.372   1.045   3.007 -0.0959 -0.2327  0.5545
31857SOL    HW199487   9.290   0.995   3.002  0.7857 -1.8532  1.5747
31857SOL    HW299488   9.374   1.077   3.098 -0.1330  0.7899  0.2080
31858SOL     OW99489   3.188   3.661   8.020  0.8285 -0.2701  0.0753
31858SOL    HW199490   3.177   3.698   8.108  0.8368 -0.2025  0.0481
31858SOL    HW299491   3.161   3.731   7.961  2.6587  0.3926 -0.0451
31859SOL     OW99492   3.965   7.345   7.208 -0.3180  0.2916  0.6329
31859SOL    HW199493   4.059   7.338   7.223 -0.1810  0.0615 -0.2796
31859SOL    HW299494   3.955   7.425   7.156 -0.3571 -0.8460 -1.2184
31860SOL     OW99495   0.395   8.614   6.627 -0.8072 -0.1800  0.3996
31860SOL    HW199496   0.370   8.542   6.569 -1.3863  1.4229 -1.4294
31860SOL    HW299497   0.312   8.651   6.657 -0.6292  1.4736 -0.9843
31861SOL     OW99498   0.733   2.966   3.706 -0.0959  0.1826  0.0047
31861SOL    HW199499   0.639   2.983   3.706 -0.1849 -0.1564 -2.0066
31861SOL    HW299500   0.754   2.942   3.616  1.9375  0.2946  0.3975
31862SOL     OW99501   9.112   0.202   5.038  0.1732  1.1295 -0.5198
31862SOL    HW199502   9.083   0.195   5.128  0.3529  0.1351 -0.5312
31862SOL    HW299503   9.206   0.185   5.041 -0.0081 -0.1054 -1.0212
31863SOL     OW99504   5.591   7.349   6.377  0.0424  0.2147 -0.5892
31863SOL    HW199505   5.539   7.319   6.452  0.5042  2.7069  0.8243
31863SOL    HW299506   5.644   7.273   6.353  0.7997 -0.3545  2.4449
31864SOL     OW99507   3.829   1.168  10.082  0.5719 -0.0127 -0.1866
31864SOL    HW199508   3.741   1.178  10.120  0.0421 -0.4815 -1.2496
31864SOL    HW299509   3.830   1.079  10.047  1.7530 -0.2798  0.4590
31865SOL     OW99510   6.777   7.487   3.043  1.0964  0.1409 -0.1659
31865SOL    HW199511   6.814   7.399   3.031  0.0112 -0.4326  0.4719
31865SOL    HW299512   6.682   7.472   3.045  0.9326  1.2048  0.9584
31866SOL     OW99513   0.115  10.170   7.080  0.3859 -0.0262 -0.4630
31866SOL    HW199514   0.159  10.253   7.062  3.7902 -1.2034  1.4236
31866SOL    HW299515   0.152  10.109   7.015 -0.9232 -0.4546 -0.8521
31867SOL     OW99516   6.735   8.271   9.067 -0.2006 -0.0844  0.1694
31867SOL    HW199517   6.738   8.176   9.073  1.9031  0.0375  2.7587
31867SOL    HW299518   6.734   8.301   9.158 -0.6465  2.3975 -0.5697
31868SOL     OW99519   3.875   8.333   9.798  0.7266  0.3684 -0.0884
31868SOL    HW199520   3.805   8.269   9.814  0.9384  0.0292 -0.4661
31868SOL    HW299521   3.863   8.400   9.864  1.2272 -0.6718  1.0979
31869SOL     OW99522   3.207   0.151   1.246  0.5144  0.1732  0.1469
31869SOL    HW199523   3.254   0.080   1.203  0.0516 -0.2189  0.2879
31869SOL    HW299524   3.155   0.108   1.313  1.7906  0.8270  1.6295
31870SOL     OW99525   7.073   9.613   3.528  0.5215 -0.0712 -0.3449
31870SOL    HW199526   7.111   9.656   3.452  0.9353  0.6249  0.2502
31870SOL    HW299527   7.148   9.573   3.573  0.4548  0.6138  0.3906
31871SOL     OW99528   0.797   2.877   3.132  0.4284  0.0442 -0.3299
31871SOL    HW199529   0.852   2.810   3.092  0.5682 -0.9815  1.4567
31871SOL    HW299530   0.859   2.943   3.164  0.6847 -1.0329  1.5399
31872SOL     OW99531   2.379   9.413   0.156 -0.1973  0.2147 -0.6493
31872SOL    HW199532   2.426   9.494   0.136  0.0604 -0.2140 -1.8573
31872SOL    HW299533   2.448   9.347   0.162 -0.2226  0.2850  1.8393
31873SOL     OW99534   1.752   3.289   6.339 -0.3488 -0.5995 -0.0618
31873SOL    HW199535   1.696   3.216   6.312 -0.6400 -0.6529  0.6587
31873SOL    HW299536   1.696   3.341   6.397 -0.2481  0.3734 -0.8143
31874SOL     OW99537   9.312   1.553   2.614 -0.2810 -0.2731 -0.4143
31874SOL    HW199538   9.308   1.622   2.547  2.2365 -0.9215 -1.3602
31874SOL    HW299539   9.311   1.471   2.564 -0.8963 -0.8646  0.5363
31875SOL     OW99540   2.125   6.778   2.581  0.0264  0.0161 -0.0637
31875SOL    HW199541   2.155   6.786   2.672  0.8681 -1.3438 -0.2001
31875SOL    HW299542   2.155   6.859   2.540 -0.7794  0.8667  0.9579
31876SOL     OW99543   3.371   3.227   1.700 -0.1225 -0.1987  0.0687
31876SOL    HW199544   3.451   3.231   1.753 -0.4382 -0.3446  0.5639
31876SOL    HW299545   3.324   3.308   1.723  0.6920  0.7794 -1.5461
31877SOL     OW99546   3.245   8.405   1.363  0.4875 -0.4294 -0.1197
31877SOL    HW199547   3.167   8.355   1.387  0.4405  0.2901  1.3124
31877SOL    HW299548   3.282   8.435   1.446  1.3852  0.5949 -0.8489
31878SOL     OW99549   6.273   9.236   0.579  0.1682 -0.2891  0.0741
31878SOL    HW199550   6.225   9.268   0.655 -0.5706 -0.4008 -0.3398
31878SOL    HW299551   6.323   9.162   0.613 -0.2866 -0.4468  0.4156
31879SOL     OW99552   8.439   7.659   6.623  0.0994 -0.0913  0.3781
31879SOL    HW199553   8.464   7.575   6.584  0.3707  0.4301 -0.6157
31879SOL    HW299554   8.343   7.658   6.624  0.0856 -0.0236 -0.5211
31880SOL     OW99555   3.500   6.382   2.041 -0.2557  0.0895  0.3440
31880SOL    HW199556   3.444   6.354   2.113 -0.7123  0.7817  0.2693
31880SOL    HW299557   3.574   6.321   2.043 -0.3275  0.0176  1.3063
31881SOL     OW99558   1.899   6.199   9.029 -0.0062 -0.4442  0.2910
31881SOL    HW199559   1.885   6.240   8.944  1.3653  0.9782  0.6834
31881SOL    HW299560   1.905   6.106   9.011 -1.8339 -0.3957 -0.8551
31882SOL     OW99561   8.716   4.299   5.285  0.4474  0.0315 -0.2602
31882SOL    HW199562   8.709   4.245   5.206  1.6593  0.2426 -0.5328
31882SOL    HW299563   8.733   4.387   5.251 -0.0776  0.3256  0.2203
31883SOL     OW99564   7.579   5.110   5.900  0.1865  0.5434 -0.1755
31883SOL    HW199565   7.597   5.025   5.859 -0.1330  0.5654 -0.3659
31883SOL    HW299566   7.597   5.096   5.993  0.9550  0.5041 -0.3225
31884SOL     OW99567   4.821   4.570   7.153 -0.2098 -0.5925 -0.3742
31884SOL    HW199568   4.746   4.544   7.099 -0.2704 -1.4448  0.0974
31884SOL    HW299569   4.898   4.553   7.098 -0.2255 -2.1447  0.0291
31885SOL     OW99570   3.379   0.173   4.686  0.4408  0.3102 -0.2901
31885SOL    HW199571   3.364   0.265   4.668  0.1629  0.4272  0.5257
31885SOL    HW299572   3.458   0.151   4.635  0.6663  1.0591 -0.2657
31886SOL     OW99573   8.110   9.575   5.027 -0.7494 -0.4613  0.2039
31886SOL    HW199574   8.170   9.526   5.084 -1.4542 -2.7984 -0.9006
31886SOL    HW299575   8.125   9.667   5.049  1.6341 -1.0718  1.4991
31887SOL     OW99576   9.463   9.267   9.851 -0.3477 -0.9989 -0.1679
31887SOL    HW199577   9.503   9.335   9.797  0.3643  0.4870  2.1032
31887SOL    HW299578   9.373   9.260   9.819 -0.0157 -0.0473 -1.3781
31888SOL     OW99579   0.944   7.539   1.491  0.3409  0.5471  0.5163
31888SOL    HW199580   0.880   7.586   1.544 -0.6204 -0.9235  0.6961
31888SOL    HW299581   0.901   7.526   1.407 -0.0443 -1.2986  0.9453
31889SOL     OW99582   3.336   2.697   5.754 -0.0005  0.2017  0.1984
31889SOL    HW199583   3.356   2.785   5.722  0.2472 -0.1468 -0.6344
31889SOL    HW299584   3.415   2.646   5.735  0.6535  0.2540  2.5276
31890SOL     OW99585   1.518   6.203   7.898  0.1110 -0.1390 -0.1704
31890SOL    HW199586   1.432   6.162   7.895 -0.0605 -0.0574  2.2813
31890SOL    HW299587   1.500   6.296   7.912  0.5911 -0.0445 -0.1619
31891SOL     OW99588   9.502   0.288   5.992  0.2885 -0.3944  0.1967
31891SOL    HW199589   9.570   0.317   5.932 -0.3767 -0.0346 -0.3957
31891SOL    HW299590   9.548   0.273   6.075  0.7295  1.9508  0.4331
31892SOL     OW99591   8.404   0.803   5.478  0.2824 -0.0854  0.5946
31892SOL    HW199592   8.398   0.751   5.558  4.0112  0.2634  1.3092
31892SOL    HW299593   8.417   0.738   5.409 -0.4147 -0.3006  0.6649
31893SOL     OW99594   3.201   0.971   8.121 -0.3132 -0.3034 -0.2502
31893SOL    HW199595   3.179   0.945   8.031  1.2496  0.6444 -0.9487
31893SOL    HW299596   3.126   1.024   8.149  0.8846  3.0711 -2.6517
31894SOL     OW99597   3.089   6.267   7.344 -0.0215 -0.2290  0.2324
31894SOL    HW199598   3.100   6.212   7.266  0.4653  1.7348 -1.1602
31894SOL    HW299599   3.147   6.227   7.409  1.8400 -0.2809 -1.3646
31895SOL     OW99600   6.567   8.702   9.331  0.1789 -0.1006  0.3736
31895SOL    HW199601   6.564   8.629   9.269  0.6035 -0.3672  0.6634
31895SOL    HW299602   6.475   8.717   9.354  0.1654 -1.2966  1.1852
31896SOL     OW99603   3.436   5.063   7.130  0.0950 -0.2200  0.3899
31896SOL    HW199604   3.431   5.140   7.187  0.9074 -1.0506  1.6449
31896SOL    HW299605   3.520   5.023   7.151 -0.6997 -1.9543  0.4515
31897SOL     OW99606   1.749   0.085   9.257 -0.3751  0.3310  0.1746
31897SOL    HW199607   1.776   0.041   9.176  0.5373 -0.5535  0.9232
31897SOL    HW299608   1.664   0.122   9.237 -0.4949 -0.4962 -0.9773
31898SOL     OW99609   5.738   8.233   6.316 -0.0705 -0.1623  0.0008
31898SOL    HW199610   5.773   8.319   6.337  1.8850 -0.7748 -0.5764
31898SOL    HW299611   5.645   8.248   6.301 -0.0494  1.5764  1.3588
31899SOL     OW99612   3.819   2.331   2.977 -0.4015  0.5589  0.1270
31899SOL    HW199613   3.772   2.253   2.947  1.8350 -0.5220 -0.7132
31899SOL    HW299614   3.831   2.384   2.898 -0.6432  1.1058  0.4432
31900SOL     OW99615   8.401   7.504   0.597 -0.3701  0.3634 -0.0982
31900SOL    HW199616   8.413   7.590   0.557 -1.6331  0.8864  0.5815
31900SOL    HW299617   8.313   7.477   0.569 -1.2711  0.7135  2.1886
31901SOL     OW99618   2.204   1.081   9.999 -0.6295  0.3504  0.1945
31901SOL    HW199619   2.221   1.127  10.081 -0.6149  1.2234 -0.2899
31901SOL    HW299620   2.196   1.150   9.933  1.9455 -0.3883 -1.0434
31902SOL     OW99621   5.304   2.224   6.614 -0.1879 -0.0782  0.1526
31902SOL    HW199622   5.244   2.171   6.563 -0.5064 -1.8678  2.2497
31902SOL    HW299623   5.267   2.224   6.702  0.6649  2.3559  0.5902
31903SOL     OW99624   0.314   7.015   4.042  0.0234 -0.2582  0.9166
31903SOL    HW199625   0.374   6.957   3.996  0.5239  0.5678  0.5108
31903SOL    HW299626   0.289   6.966   4.120  0.9874 -0.7445  0.9356
31904SOL     OW99627   1.446   1.675   5.343  0.2151  0.0423  0.1241
31904SOL    HW199628   1.492   1.597   5.374 -1.1225 -0.7706  0.1077
31904SOL    HW299629   1.440   1.731   5.420  1.1393  0.1333  0.1463
31905SOL     OW99630   1.248   7.927   6.895  0.8951  0.7096  0.5281
31905SOL    HW199631   1.224   7.854   6.838  1.5992  0.1881  0.8656
31905SOL    HW299632   1.339   7.947   6.871  1.2440  0.4022  1.5117
31906SOL     OW99633   7.743   4.553   3.273 -0.1893  0.1803 -0.3753
31906SOL    HW199634   7.784   4.637   3.256 -0.0987  0.0006 -1.1009
31906SOL    HW299635   7.745   4.508   3.189 -1.3191 -0.0772 -0.2849
31907SOL     OW99636   4.990   1.602   2.214 -0.1527 -0.1624 -0.6698
31907SOL    HW199637   4.943   1.681   2.241  0.4853  1.2709 -3.4098
31907SOL    HW299638   4.921   1.542   2.184 -1.0582 -2.3809  4.6716
31908SOL     OW99639   5.744   3.612   9.086  0.0890  0.0821  0.1347
31908SOL    HW199640   5.766   3.692   9.133 -1.4904 -0.6360  2.3127
31908SOL    HW299641   5.801   3.545   9.125 -0.6824 -0.3782  0.5030
31909SOL     OW99642   4.256   0.478   1.425 -0.8948 -0.4749 -0.5630
31909SOL    HW199643   4.200   0.427   1.367  1.0980 -1.6267 -1.6159
31909SOL    HW299644   4.313   0.527   1.366  0.0317 -0.3124  0.4289
31910SOL     OW99645   3.064   3.100   8.425  1.0324 -0.2708  0.3615
31910SOL    HW199646   3.121   3.073   8.497  2.8762  2.2355 -0.0547
31910SOL    HW299647   3.117   3.087   8.347 -0.2521 -1.1030 -0.4099
31911SOL     OW99648   4.130   8.991   4.625 -0.1513  0.3347 -0.2507
31911SOL    HW199649   4.079   8.943   4.561  0.2408 -1.3947  0.6784
31911SOL    HW299650   4.074   9.064   4.651 -1.1968 -0.2125 -0.9386
31912SOL     OW99651   8.179   3.077   4.221  0.4370 -0.3564 -0.3737
31912SOL    HW199652   8.170   3.044   4.131  1.4224 -1.6775 -0.0186
31912SOL    HW299653   8.208   3.001   4.271  2.8141  1.0361  0.5068
31913SOL     OW99654   2.306   6.218   2.344 -0.2104  0.4032 -0.2215
31913SOL    HW199655   2.279   6.257   2.427  0.8519  0.2930  0.1862
31913SOL    HW299656   2.399   6.200   2.354 -0.8476 -3.5765  0.1688
31914SOL     OW99657   9.660   7.897   2.850 -0.1391  0.3200  0.1359
31914SOL    HW199658   9.605   7.972   2.871  3.8099  3.2467  1.1279
31914SOL    HW299659   9.705   7.921   2.769  1.2534 -0.9524  0.4788
31915SOL     OW99660   4.456   0.407   9.136  0.4221  0.1564  0.2585
31915SOL    HW199661   4.542   0.447   9.147 -0.0191  0.9459  0.9558
31915SOL    HW299662   4.443   0.404   9.041  2.3227 -2.4566 -0.0383
31916SOL     OW99663   3.130   6.535   5.945  0.3447 -0.2470  0.3696
31916SOL    HW199664   3.154   6.617   5.901  1.7652  0.0361  1.5909
31916SOL    HW299665   3.205   6.515   6.001 -0.7933 -1.3665  1.5624
31917SOL     OW99666   8.862   9.298   0.548 -0.0230 -0.1869  0.3718
31917SOL    HW199667   8.944   9.285   0.595 -0.1260  2.1755  1.3412
31917SOL    HW299668   8.877   9.375   0.494 -1.1862 -0.5293 -0.4876
31918SOL     OW99669   4.859   4.368   5.180  0.1464  0.2506 -0.0106
31918SOL    HW199670   4.774   4.400   5.210  0.6206  1.1171  0.4388
31918SOL    HW299671   4.838   4.309   5.107 -0.8053  0.8844 -0.2613
31919SOL     OW99672   6.815   0.877   9.381  0.2316 -0.4004  0.5865
31919SOL    HW199673   6.737   0.821   9.385 -0.7701  0.9964  1.7313
31919SOL    HW299674   6.864   0.856   9.461 -0.2713  0.4788  1.1450
31920SOL     OW99675   3.661   5.849   2.319  0.3617  0.4216 -0.3312
31920SOL    HW199676   3.629   5.919   2.261 -0.9801  0.9634  1.0110
31920SOL    HW299677   3.597   5.778   2.308 -2.5170  2.0530  3.4805
31921SOL     OW99678   2.888   7.227   3.558  0.2841  0.4647  0.5847
31921SOL    HW199679   2.905   7.277   3.638 -1.2466  1.8047  0.1203
31921SOL    HW299680   2.911   7.287   3.487  1.6590 -0.7194 -0.0316
31922SOL     OW99681   2.433   7.314   5.733  0.2013 -0.9009 -0.0058
31922SOL    HW199682   2.358   7.312   5.792  1.0975 -0.4744  1.2045
31922SOL    HW299683   2.493   7.377   5.773  0.8013 -0.5169 -1.4497
31923SOL     OW99684   4.075   7.471   9.038 -0.2953 -0.1739 -0.3485
31923SOL    HW199685   4.022   7.488   9.116  0.4967 -1.2616  0.4559
31923SOL    HW299686   4.090   7.557   9.000 -3.5524  0.1369 -1.2702
31924SOL     OW99687   0.463   8.719   7.193  0.5630  0.3394  0.5433
31924SOL    HW199688   0.484   8.637   7.149 -0.2916  0.0614  0.6259
31924SOL    HW299689   0.504   8.712   7.279  1.9425  0.7380 -0.0540
31925SOL     OW99690   4.935   0.915   9.474  0.0294 -0.1025 -0.4401
31925SOL    HW199691   4.993   0.919   9.398 -0.7442 -1.3078 -1.1441
31925SOL    HW299692   4.878   0.840   9.456 -0.5915 -0.0270  1.0436
31926SOL     OW99693   1.171   7.531   0.888 -0.3238  0.1188  0.1170
31926SOL    HW199694   1.161   7.576   0.805 -0.5859  0.4465  0.3231
31926SOL    HW299695   1.213   7.448   0.866 -2.5466 -0.8890 -0.6877
31927SOL     OW99696   6.448   0.538   3.667  0.5248 -0.4985 -0.5101
31927SOL    HW199697   6.465   0.450   3.633  0.9005 -0.6244  0.0005
31927SOL    HW299698   6.524   0.589   3.638  1.6472 -0.9715  1.4487
31928SOL     OW99699   6.218   3.616   7.857 -0.4218  0.0323 -0.2183
31928SOL    HW199700   6.155   3.572   7.800  2.1973 -1.6924 -2.0215
31928SOL    HW299701   6.278   3.660   7.796 -0.5766  2.7957  1.4479
31929SOL     OW99702   1.531   8.219   4.541 -0.0479  0.1364  0.0815
31929SOL    HW199703   1.532   8.185   4.631  1.3554 -0.4986 -0.1439
31929SOL    HW299704   1.615   8.265   4.533 -0.0465 -0.0436 -0.9780
31930SOL     OW99705   7.116   5.439   1.075 -0.5009  0.2120 -0.2517
31930SOL    HW199706   7.084   5.480   0.994 -1.0299  0.0876 -0.1055
31930SOL    HW299707   7.059   5.473   1.143  1.2656  2.0430  0.4400
31931SOL     OW99708   5.722   0.391   6.374 -0.5247 -0.5953  0.0226
31931SOL    HW199709   5.758   0.429   6.454 -1.0787  1.8344 -0.8106
31931SOL    HW299710   5.769   0.308   6.363  2.5553  0.9397  0.6509
31932SOL     OW99711   2.217   1.995   5.731  0.5733 -0.4113  0.1401
31932SOL    HW199712   2.244   1.945   5.655  2.8286  1.1829 -0.1946
31932SOL    HW299713   2.273   1.965   5.802  1.9104  1.4585 -0.0471
31933SOL     OW99714   9.237   6.706   3.696  0.2124  0.3775 -0.1010
31933SOL    HW199715   9.331   6.720   3.705  0.1493  0.3715  0.6330
31933SOL    HW299716   9.228   6.640   3.627  0.6913  1.1340 -0.9122
31934SOL     OW99717   2.991   1.699   6.069  0.4286  0.2642 -0.1608
31934SOL    HW199718   2.963   1.713   5.979 -1.8159 -0.0484  0.4391
31934SOL    HW299719   2.919   1.731   6.123  2.1663  1.4671  1.5964
31935SOL     OW99720   0.834   7.761   7.823  0.1023 -0.0859 -0.4601
31935SOL    HW199721   0.918   7.793   7.792  1.1051 -2.2067 -0.0712
31935SOL    HW299722   0.769   7.812   7.774  1.5880  1.5130 -0.8389
31936SOL     OW99723   2.637   5.203   6.542 -0.2829  0.0373  0.4325
31936SOL    HW199724   2.575   5.141   6.579 -0.5984 -0.2191 -0.4820
31936SOL    HW299725   2.722   5.160   6.551 -0.1101  0.6807  2.3058
31937SOL     OW99726   1.341   5.916   6.943  0.3016  0.1589  0.1653
31937SOL    HW199727   1.373   5.999   6.976 -1.5976  1.5317 -1.2441
31937SOL    HW299728   1.291   5.879   7.015 -0.3732  1.1279  0.2069
31938SOL     OW99729   1.006   6.421   7.010  0.2989 -0.0313  0.5949
31938SOL    HW199730   1.031   6.501   7.057  1.6044 -0.3476  0.4781
31938SOL    HW299731   1.081   6.401   6.955 -1.2762  0.4677 -1.8975
31939SOL     OW99732   4.669   2.839   8.556 -0.2449 -0.7718 -0.3826
31939SOL    HW199733   4.632   2.872   8.638  0.2512 -1.6488  0.2053
31939SOL    HW299734   4.720   2.762   8.582  2.1567  0.4583 -1.0977
31940SOL     OW99735   6.740   2.822   1.781 -0.1901 -0.3400 -0.3513
31940SOL    HW199736   6.790   2.815   1.700  0.5196  0.3111  0.0188
31940SOL    HW299737   6.724   2.916   1.792 -2.9497 -0.5971 -1.3124
31941SOL     OW99738   0.088   9.326   1.521  0.5220 -0.0998 -0.3006
31941SOL    HW199739   0.079   9.412   1.563  0.1914 -0.4455  0.3464
31941SOL    HW299740   0.084   9.345   1.427  1.9835  0.7669 -0.2161
31942SOL     OW99741   1.742   7.448   8.472 -0.3101 -0.1726 -0.1277
31942SOL    HW199742   1.674   7.510   8.446 -0.5228  0.1886  1.2461
31942SOL    HW299743   1.694   7.374   8.509 -0.0373 -0.9675 -1.3098
31943SOL     OW99744   7.896  10.050   0.962  0.0239  0.2776 -0.4407
31943SOL    HW199745   7.941  10.072   0.880  0.4231  0.1278 -0.2656
31943SOL    HW299746   7.853  10.131   0.988 -2.6114 -0.3847 -2.3357
31944SOL     OW99747   8.601   0.570   2.204 -0.1646  0.3962  0.2842
31944SOL    HW199748   8.640   0.611   2.127 -0.2249 -1.7020 -0.9246
31944SOL    HW299749   8.507   0.584   2.194 -0.4725 -2.2658 -1.6251
31945SOL     OW99750   1.461   0.215   9.991 -0.0371  0.4469  0.1593
31945SOL    HW199751   1.421   0.183   9.911 -0.7227 -0.9608  1.0337
31945SOL    HW299752   1.387   0.237  10.048  0.3825 -0.9901  1.3282
31946SOL     OW99753   5.957   0.599   0.327 -0.2430  0.3865 -0.2816
31946SOL    HW199754   6.038   0.645   0.351 -0.1139 -0.0239  0.0951
31946SOL    HW299755   5.944   0.620   0.235  0.9084 -0.4250 -0.6631
31947SOL     OW99756   9.024   2.059   4.491 -0.7105 -0.0740  0.5899
31947SOL    HW199757   9.036   2.001   4.566 -2.4500 -0.9720  0.2401
31947SOL    HW299758   8.941   2.030   4.453 -0.0723  0.6425 -1.4324
31948SOL     OW99759   8.587  10.150   7.839 -0.1176  0.0065 -0.0810
31948SOL    HW199760   8.524  10.176   7.772  0.1577  3.4437  0.8194
31948SOL    HW299761   8.561  10.061   7.863 -1.7444 -0.4078 -2.9344
31949SOL     OW99762   6.424   7.601   4.680 -0.2647  0.4657 -0.6602
31949SOL    HW199763   6.429   7.696   4.685  0.9274  0.3337  2.1816
31949SOL    HW299764   6.515   7.571   4.685 -0.6767 -0.8464 -0.4579
31950SOL     OW99765   6.958   7.850   7.779  0.9760  0.5454 -0.0852
31950SOL    HW199766   6.984   7.935   7.743 -1.2088  0.2126 -2.8457
31950SOL    HW299767   6.872   7.833   7.740 -0.1994 -1.4859  2.9545
31951SOL     OW99768   5.975   2.938   8.815  0.4723  0.3046  0.0509
31951SOL    HW199769   5.957   3.017   8.764  0.1489  2.1201  2.7831
31951SOL    HW299770   6.007   2.875   8.750 -0.6234  2.1570 -2.4746
31952SOL     OW99771   1.156   8.710   7.918  0.0482  0.2494 -0.0664
31952SOL    HW199772   1.131   8.695   7.827  0.2326 -2.8462  0.2769
31952SOL    HW299773   1.099   8.653   7.968  0.2892  1.5156  1.7587
31953SOL     OW99774   9.610   0.882   0.645  0.0651 -0.1160  0.1470
31953SOL    HW199775   9.578   0.923   0.725  1.8200  0.7654  0.4525
31953SOL    HW299776   9.541   0.899   0.580  0.2654  2.5310  0.5098
31954SOL     OW99777   7.309   9.519   4.152  0.3654 -0.0547  0.4026
31954SOL    HW199778   7.252   9.443   4.142 -2.0218  1.8512 -2.8141
31954SOL    HW299779   7.249   9.589   4.178  1.4032  1.7220 -1.6485
31955SOL     OW99780   0.350   9.780   2.799  0.5935 -0.2103 -0.1434
31955SOL    HW199781   0.419   9.819   2.852 -0.6026  0.3907  1.0395
31955SOL    HW299782   0.396   9.727   2.733  2.1755  0.8702  0.0529
31956SOL     OW99783  10.156   9.179   3.514 -0.1203 -0.4572 -0.6199
31956SOL    HW199784  10.089   9.115   3.538 -0.0001 -0.6226 -0.7248
31956SOL    HW299785  10.233   9.152   3.563 -0.1057 -0.3148 -0.5640
31957SOL     OW99786   2.296   7.684   7.085 -0.5259 -0.4191 -0.7765
31957SOL    HW199787   2.227   7.715   7.145 -0.4846 -0.0215 -0.9365
31957SOL    HW299788   2.288   7.739   7.008  0.8748  0.5831 -0.2492
31958SOL     OW99789   6.559   2.915   2.287 -0.1140  0.1581 -0.3599
31958SOL    HW199790   6.479   2.914   2.341  0.4626 -1.1869  0.5303
31958SOL    HW299791   6.530   2.945   2.201 -0.9443  3.1704  0.8388
31959SOL     OW99792   6.936   4.545   0.774  0.5224  0.3281 -0.5552
31959SOL    HW199793   6.902   4.627   0.811  1.0038  0.9293 -1.4065
31959SOL    HW299794   6.876   4.478   0.805 -0.0715  1.0509 -0.1030
31960SOL     OW99795   6.296   3.405   3.214  0.2557  0.0537 -0.1570
31960SOL    HW199796   6.343   3.489   3.213  0.2289  0.0882  0.5982
31960SOL    HW299797   6.210   3.426   3.177 -0.2071  0.6607  1.1960
31961SOL     OW99798   2.656   1.037   7.922 -0.2045 -0.5723 -0.6861
31961SOL    HW199799   2.602   1.114   7.940  0.8782 -0.0900  0.7263
31961SOL    HW299800   2.623   0.970   7.982 -0.0880 -0.6921 -0.7549
31962SOL     OW99801   8.486  10.169   3.519 -0.2555 -0.2374  0.1600
31962SOL    HW199802   8.486  10.075   3.537 -0.5722 -0.2290  0.1966
31962SOL    HW299803   8.553  10.204   3.578 -1.5729 -0.1555  1.6807
31963SOL     OW99804   5.554   1.223   3.708 -0.1920 -0.4459  0.2826
31963SOL    HW199805   5.640   1.262   3.696 -0.6375  0.2306 -0.8391
31963SOL    HW299806   5.538   1.173   3.628 -2.2315  2.2121 -1.1203
31964SOL     OW99807   4.173   1.793   5.085  0.7158 -0.1630 -0.4474
31964SOL    HW199808   4.182   1.711   5.133  0.5432 -0.1635 -0.4138
31964SOL    HW299809   4.262   1.822   5.070  0.7752 -0.2601 -0.2914
31965SOL     OW99810   5.753   4.044   5.794  0.2660 -0.2017 -0.4680
31965SOL    HW199811   5.840   4.037   5.834 -0.3400 -0.0072  0.9079
31965SOL    HW299812   5.722   4.132   5.818 -1.7562 -1.5063  2.1131
31966SOL     OW99813   4.525   7.493   7.799 -0.2540 -0.1057  0.3171
31966SOL    HW199814   4.570   7.568   7.761  1.9071 -0.2207  2.3972
31966SOL    HW299815   4.462   7.531   7.860 -0.6870  0.0312 -0.2152
31967SOL     OW99816   0.375   7.348   8.974  0.0361 -0.1131 -0.4296
31967SOL    HW199817   0.461   7.386   8.960  0.5084 -0.4036  1.3900
31967SOL    HW299818   0.316   7.423   8.984 -0.0137  0.0847 -2.0295
31968SOL     OW99819   8.168   5.475   3.798  0.3472 -0.0859  0.6489
31968SOL    HW199820   8.090   5.423   3.820 -0.1241  0.3051 -0.0386
31968SOL    HW299821   8.151   5.505   3.708  1.7623 -0.8471  0.0959
31969SOL     OW99822   2.689   0.666   6.597 -0.2389  0.1580  0.1580
31969SOL    HW199823   2.711   0.753   6.564  1.8027  0.1220  1.2319
31969SOL    HW299824   2.600   0.675   6.630 -0.8561  1.2380 -1.6283
31970SOL     OW99825   2.404   4.853   5.181 -0.2997 -0.3908  0.0198
31970SOL    HW199826   2.410   4.792   5.107  0.3656 -0.9864  0.5524
31970SOL    HW299827   2.469   4.822   5.243  0.5780  1.3146  0.0059
31971SOL     OW99828   0.760   9.296  10.078 -0.1999 -0.1220  0.4206
31971SOL    HW199829   0.770   9.390  10.069  0.2698 -0.0510  1.5481
31971SOL    HW299830   0.785   9.277  10.168  1.1652 -1.5235 -0.2078
31972SOL     OW99831   0.325   9.293   8.173 -0.1911 -0.0110 -0.2723
31972SOL    HW199832   0.296   9.227   8.237 -1.8831 -0.5128 -1.4837
31972SOL    HW299833   0.306   9.254   8.088 -0.0257  1.5295 -1.0533
31973SOL     OW99834   3.219   5.030   7.524  0.0280  0.6814 -0.0736
31973SOL    HW199835   3.266   4.948   7.538  0.3383  0.5208 -1.8275
31973SOL    HW299836   3.211   5.069   7.611  0.6548 -0.7847  0.6599
31974SOL     OW99837   5.374   9.469   4.964 -0.1093 -0.1419  0.2513
31974SOL    HW199838   5.448   9.529   4.975  0.8538 -1.4442  1.0305
31974SOL    HW299839   5.352   9.476   4.871 -0.6701  2.1313  0.4767
31975SOL     OW99840  10.041   5.083   7.452  0.2289  0.0345  0.3377
31975SOL    HW199841  10.074   5.021   7.386 -0.3789  0.8760 -0.7822
31975SOL    HW299842  10.098   5.068   7.528  0.6998 -1.2337 -0.2205
31976SOL     OW99843   4.987   2.164   5.616  0.1636 -0.0315 -0.0800
31976SOL    HW199844   4.986   2.132   5.706  0.3871  0.7102  0.1941
31976SOL    HW299845   5.069   2.211   5.608 -0.4448  1.0267 -0.2697
31977SOL     OW99846   5.460   7.152   5.846 -0.6437  0.0220 -0.0864
31977SOL    HW199847   5.379   7.165   5.796 -1.7389 -3.7865  0.4628
31977SOL    HW299848   5.445   7.073   5.897  2.8457  0.1471  1.3809
31978SOL     OW99849   7.964   9.728   3.182 -0.2409  0.2451  0.0159
31978SOL    HW199850   8.052   9.763   3.175  0.4764 -1.2719  0.8963
31978SOL    HW299851   7.914   9.774   3.114  1.1689  1.2591 -0.3688
31979SOL     OW99852   9.406   7.109   6.533 -0.2762  0.5431  0.2504
31979SOL    HW199853   9.402   7.093   6.439 -0.0831  0.8457  0.1876
31979SOL    HW299854   9.456   7.191   6.541 -1.4805  1.2828  0.5351
31980SOL     OW99855   5.104   7.865   8.137 -0.0949  0.3542  0.6458
31980SOL    HW199856   5.020   7.885   8.177 -0.3087  0.8047 -0.0087
31980SOL    HW299857   5.138   7.950   8.108 -0.6655 -0.0843 -1.4976
31981SOL     OW99858   5.090   9.512   4.520  0.4787 -0.7247  0.0901
31981SOL    HW199859   5.023   9.575   4.545  1.1440  0.3740 -0.7794
31981SOL    HW299860   5.165   9.532   4.576  0.7416 -0.6413 -0.2864
31982SOL     OW99861   6.901   7.017   1.693  0.5656 -0.1642 -0.0815
31982SOL    HW199862   6.898   7.106   1.660  1.7148 -0.1384 -0.1724
31982SOL    HW299863   6.833   7.014   1.760  1.3846  1.1942  0.8731
31983SOL     OW99864   5.085   3.319   0.511  0.1544  0.1296  0.9218
31983SOL    HW199865   5.127   3.401   0.534  2.1790 -1.3801  3.1285
31983SOL    HW299866   5.040   3.292   0.591  0.6806 -1.5233  0.7028
31984SOL     OW99867   8.215   4.557   5.576 -0.7649 -0.1754 -0.1774
31984SOL    HW199868   8.232   4.546   5.670  0.7116 -2.5439 -0.6254
31984SOL    HW299869   8.120   4.568   5.570 -0.9165 -0.1457  1.5817
31985SOL     OW99870   4.994   5.563   2.748  0.3702  0.0414  0.5356
31985SOL    HW199871   5.058   5.564   2.677 -0.2429  1.2406 -0.0307
31985SOL    HW299872   4.924   5.622   2.718 -0.1424  0.1689  1.9070
31986SOL     OW99873   7.859   0.112   6.455  0.2163  0.5157 -0.0359
31986SOL    HW199874   7.901   0.134   6.372  2.2085 -1.8533  0.2232
31986SOL    HW299875   7.774   0.075   6.430  0.1633  1.1841 -0.8897
31987SOL     OW99876   5.590   2.810   5.100  0.2097 -0.1989 -0.5965
31987SOL    HW199877   5.598   2.846   5.011  1.8027  0.3260 -0.2682
31987SOL    HW299878   5.635   2.874   5.155 -0.3582 -0.7643  0.5380
31988SOL     OW99879   7.417   0.128   4.951 -0.2705 -0.5394  0.3498
31988SOL    HW199880   7.369   0.064   5.004  0.5123 -0.0014  1.7703
31988SOL    HW299881   7.353   0.195   4.930 -0.6569 -0.8948  0.3765
31989SOL     OW99882   7.973   3.493   9.629  0.2754 -0.0329 -0.2938
31989SOL    HW199883   7.971   3.512   9.723 -0.0531 -2.1837  0.1874
31989SOL    HW299884   7.920   3.563   9.590 -0.3401  0.3960  1.2156
31990SOL     OW99885   5.913   1.986   4.968  0.7421 -0.4574 -0.4554
31990SOL    HW199886   5.855   1.947   4.902  0.2462  1.4688 -1.2408
31990SOL    HW299887   6.001   1.976   4.931  0.5038  0.2365 -1.2693
31991SOL     OW99888   2.563   6.202   5.497 -0.2868  0.0289  0.6575
31991SOL    HW199889   2.658   6.203   5.500 -0.2801 -0.7953  1.0000
31991SOL    HW299890   2.537   6.152   5.575 -1.0284  0.9554  1.0270
31992SOL     OW99891   3.154   6.510   2.098  0.1703  0.3589  0.3000
31992SOL    HW199892   3.173   6.417   2.084 -0.7868  0.3130 -0.8465
31992SOL    HW299893   3.239   6.549   2.118  0.3431 -1.0841  2.9092
31993SOL     OW99894   1.051   3.323   4.839 -0.3715  0.2462 -0.0759
31993SOL    HW199895   1.144   3.321   4.858 -0.3476 -0.8788 -0.2658
31993SOL    HW299896   1.046   3.326   4.744 -0.5310  1.8567 -0.0441
31994SOL     OW99897   1.370   1.156   7.765  0.3906  0.5866 -0.0593
31994SOL    HW199898   1.370   1.081   7.706  0.2259  1.2653 -0.9293
31994SOL    HW299899   1.462   1.167   7.790  0.8519  1.7986 -2.1353
31995SOL     OW99900   3.138   5.162   1.117 -0.4921  0.0710 -0.1795
31995SOL    HW199901   3.149   5.069   1.098 -1.6242 -0.0860 -0.1492
31995SOL    HW299902   3.203   5.206   1.061  0.2349 -0.7434  0.0061
31996SOL     OW99903   0.751   3.201   7.522 -0.5078 -0.4367 -0.5480
31996SOL    HW199904   0.802   3.182   7.443  0.6486 -1.0302  0.3086
31996SOL    HW299905   0.816   3.198   7.593 -1.5474 -0.0533  0.4426
31997SOL     OW99906   8.402   4.203   7.502 -0.5612  0.1888 -0.5520
31997SOL    HW199907   8.324   4.149   7.514 -0.0670 -0.2599  0.8894
31997SOL    HW299908   8.368   4.293   7.505 -0.8798  0.0644  1.9517
31998SOL     OW99909   0.374   9.078   4.580  0.0474  0.1582  0.3623
31998SOL    HW199910   0.307   9.010   4.582 -2.7299  2.6496  0.9798
31998SOL    HW299911   0.421   9.068   4.663 -3.1403  1.3659  2.5225
31999SOL     OW99912   5.552   0.270   4.435 -0.3274 -0.2455 -0.4141
31999SOL    HW199913   5.537   0.363   4.449 -0.2803 -0.3320  0.2209
31999SOL    HW299914   5.648   0.262   4.429 -0.3362 -0.2426 -0.5910
32000SOL     OW99915   1.783   7.878   6.680 -0.2303  0.0498  0.2637
32000SOL    HW199916   1.843   7.807   6.703 -0.5495  0.4920  2.6767
32000SOL    HW299917   1.804   7.898   6.589  1.6123 -1.4253  0.3063
32001SOL     OW99918   3.076   6.326   9.479  0.0784  0.2029  0.1015
32001SOL    HW199919   2.997   6.272   9.468  1.8334 -2.4778 -0.4324
32001SOL    HW299920   3.105   6.309   9.568  0.7672  0.0325 -0.1422
32002SOL     OW99921   2.713   5.521   4.321 -0.2965 -0.0989  0.2906
32002SOL    HW199922   2.778   5.541   4.254 -0.4156 -2.0043 -0.4757
32002SOL    HW299923   2.644   5.586   4.309 -0.2545 -0.3208 -1.3774
32003SOL     OW99924   2.926   6.082   0.903  0.2721 -0.9833 -0.2078
32003SOL    HW199925   2.947   6.148   0.837 -0.8306 -0.3238  0.0726
32003SOL    HW299926   2.987   6.100   0.975  0.2148 -0.4784 -0.2787
32004SOL     OW99927   8.023   8.868   4.689  0.2165  0.2742  0.6036
32004SOL    HW199928   7.960   8.902   4.626  1.0914  0.3707 -0.2555
32004SOL    HW299929   8.107   8.869   4.642  0.4878 -1.9954  0.9236
32005SOL     OW99930   0.985   3.003   4.445  0.9489 -0.4321 -0.3194
32005SOL    HW199931   1.007   2.918   4.482  0.2952 -0.7316 -0.6016
32005SOL    HW299932   0.891   3.013   4.463  0.8283 -0.1664 -1.0804
32006SOL     OW99933   2.670   2.003   6.712 -0.0424  0.0055 -0.1839
32006SOL    HW199934   2.703   1.917   6.685  1.3599  0.7975 -1.1614
32006SOL    HW299935   2.619   1.986   6.791  1.3486 -1.5455  0.4429
32007SOL     OW99936   3.276   0.365   7.171  0.5116 -0.1219 -0.0496
32007SOL    HW199937   3.302   0.456   7.179 -0.4194  0.2687 -1.2447
32007SOL    HW299938   3.357   0.318   7.154  0.7686  0.7723 -1.4713
32008SOL     OW99939   5.811   5.088   4.091  0.1522  0.2796 -0.1366
32008SOL    HW199940   5.842   5.002   4.121 -1.1545 -0.4174 -0.7150
32008SOL    HW299941   5.803   5.079   3.996  0.6316  1.2645 -0.2796
32009SOL     OW99942   8.518   5.461   3.150 -0.0684 -0.2959 -0.6721
32009SOL    HW199943   8.582   5.441   3.081  1.2050  1.4302 -0.0749
32009SOL    HW299944   8.570   5.461   3.231 -1.1881 -0.5548  0.0630
32010SOL     OW99945   9.032   7.789   1.637  0.3439  0.1009  0.1503
32010SOL    HW199946   9.078   7.705   1.627 -1.4015 -1.1177  1.7483
32010SOL    HW299947   9.068   7.826   1.718  0.1552  0.2515  0.1653
32011SOL     OW99948   8.138   5.125   6.759 -0.0624  0.5475  0.1527
32011SOL    HW199949   8.078   5.052   6.772  0.0251  0.6883  1.5388
32011SOL    HW299950   8.178   5.109   6.674 -1.5986  0.1289 -0.5234
32012SOL     OW99951   6.049   4.531   8.110 -0.0735  0.1080  0.0444
32012SOL    HW199952   5.992   4.522   8.186 -0.3119  0.3416 -0.1051
32012SOL    HW299953   6.057   4.442   8.075 -1.5843  0.2813 -0.8296
32013SOL     OW99954   4.668   5.247   0.805 -0.1747 -0.6316 -0.4625
32013SOL    HW199955   4.588   5.297   0.821 -0.0443 -0.8460  0.9169
32013SOL    HW299956   4.715   5.300   0.740  0.0074  1.1347  1.0200
32014SOL     OW99957   5.557   0.833   3.531 -0.4136 -0.0373  0.3877
32014SOL    HW199958   5.611   0.763   3.495 -1.7396 -0.4174 -0.9664
32014SOL    HW299959   5.561   0.903   3.466  0.0344  0.7381  1.2242
32015SOL     OW99960   4.006   9.758   9.121  0.3247  0.3116 -0.3073
32015SOL    HW199961   3.958   9.744   9.039  1.0020 -0.1728 -0.6430
32015SOL    HW299962   4.025   9.851   9.123  0.3651  0.3143 -0.7480
32016SOL     OW99963   7.138  10.113   3.719  0.4951 -0.1779  0.1393
32016SOL    HW199964   7.090  10.033   3.737  0.3790  0.1230  1.2725
32016SOL    HW299965   7.137  10.122   3.624  0.2304 -1.3383  0.0237
32017SOL     OW99966   9.631   4.797   8.825 -0.2357 -0.4639 -0.1878
32017SOL    HW199967   9.724   4.777   8.830 -0.2749 -0.7287 -0.4794
32017SOL    HW299968   9.627   4.892   8.834  0.0026 -0.5228  0.5365
32018SOL     OW99969   8.009   0.662   2.476  0.1548 -0.1654  0.2003
32018SOL    HW199970   7.918   0.634   2.489  0.3179 -0.4418  0.7498
32018SOL    HW299971   8.037   0.615   2.397 -0.3826  0.4349 -0.3631
32019SOL     OW99972   6.751   5.791   4.734  0.1645  0.6500 -0.0365
32019SOL    HW199973   6.818   5.854   4.760  2.3394 -0.9119 -1.4942
32019SOL    HW299974   6.795   5.734   4.671 -2.9738  0.4190 -2.2492
32020SOL     OW99975   8.374   5.833   8.699 -0.0067 -0.6431  0.4701
32020SOL    HW199976   8.435   5.760   8.713  1.6227  0.1287 -1.9954
32020SOL    HW299977   8.426   5.911   8.718  0.1589  0.0681 -2.4685
32021SOL     OW99978   3.031   3.293   1.684  0.0602 -0.2329  0.0502
32021SOL    HW199979   3.050   3.306   1.591 -0.4321  1.0284  0.1178
32021SOL    HW299980   3.090   3.352   1.730  0.2829 -0.8277  0.5538
32022SOL     OW99981   8.319   3.825   7.059  0.1027  0.1284  0.4351
32022SOL    HW199982   8.316   3.788   7.147  1.0427 -0.3711  0.2697
32022SOL    HW299983   8.238   3.795   7.018 -1.1644  1.7365  1.6415
32023SOL     OW99984   5.111   9.937   4.102  0.1379  0.4851  0.1401
32023SOL    HW199985   5.158   9.956   4.020 -0.3502  1.6915  0.1178
32023SOL    HW299986   5.020   9.956   4.082 -0.0083  0.6227  0.9172
32024SOL     OW99987   4.988   4.054   1.091 -0.2120  0.0044 -0.0167
32024SOL    HW199988   4.936   4.078   1.015  0.6670  0.4573 -0.4925
32024SOL    HW299989   5.075   4.089   1.073  0.2269 -0.6002  0.8238
32025SOL     OW99990   5.336   6.049   3.386  0.3068  0.2459 -0.5291
32025SOL    HW199991   5.274   6.121   3.397 -1.3547 -1.0338 -1.1408
32025SOL    HW299992   5.422   6.091   3.395 -0.5956  2.1819 -0.2414
32026SOL     OW99993   5.289   1.173   9.612  0.0567 -0.4817 -0.1386
32026SOL    HW199994   5.264   1.120   9.537 -0.1244  0.5649 -0.8345
32026SOL    HW299995   5.237   1.138   9.684  1.4735 -2.6128 -0.0693
32027SOL     OW99996   2.866   7.698   1.067 -0.5414 -0.6217 -0.4125
32027SOL    HW199997   2.828   7.639   1.131  2.3142 -3.3389 -0.9633
32027SOL    HW299998   2.798   7.711   1.001 -2.3773 -0.4630  1.4320
32028SOL     OW99999   7.492   8.715   0.009 -0.0427 -0.1496 -0.1586
32028SOL    HW1    0   7.528   8.644   0.062  0.9749 -0.2858 -1.0134
32028SOL    HW2    1   7.446   8.770   0.072 -1.7351 -2.0728  0.4075
32029SOL     OW    2   1.515   8.328   8.586  0.3580  0.5377 -0.4831
32029SOL    HW1    3   1.461   8.386   8.532 -0.2306 -0.9980 -1.6131
32029SOL    HW2    4   1.600   8.329   8.543  0.2832  0.3938 -0.6359
32030SOL     OW    5   1.000   4.244   1.004  0.0699  0.4055 -0.0197
32030SOL    HW1    6   1.015   4.188   1.080  1.2725  0.1932 -0.3956
32030SOL    HW2    7   0.936   4.309   1.035  0.8472  0.5832  1.2953
32031SOL     OW    8   1.501   1.006   7.153 -0.4748  0.0818  0.2567
32031SOL    HW1    9   1.554   1.043   7.224 -1.5267 -0.0058  1.1292
32031SOL    HW2   10   1.564   0.983   7.085  0.4069  1.7983  0.4299
32032SOL     OW   11   2.429   1.812   3.332  0.4626 -0.1341 -0.3352
32032SOL    HW1   12   2.346   1.784   3.371  2.2323 -4.6981  0.7662
32032SOL    HW2   13   2.404   1.845   3.245 -2.5482 -1.4235 -0.1030
32033SOL     OW   14   8.690   1.361   1.977  0.5119  0.2780  0.1230
32033SOL    HW1   15   8.606   1.331   1.942  0.3542  1.2444 -0.3654
32033SOL    HW2   16   8.687   1.457   1.968  1.7155  0.3134 -0.0265
32034SOL     OW   17   8.169   7.336   5.014  0.0094  0.4530  0.1417
32034SOL    HW1   18   8.229   7.278   5.061 -0.4680  0.8307  1.2462
32034SOL    HW2   19   8.093   7.281   4.993 -0.2797  0.5685  0.8560
32035SOL     OW   20   4.678   2.748   7.221 -0.2660 -0.1172  0.1142
32035SOL    HW1   21   4.636   2.810   7.280 -0.5351  0.3149 -0.5232
32035SOL    HW2   22   4.686   2.668   7.273  0.5463  0.5812  1.1084
32036SOL     OW   23   5.084   7.913   1.224  0.2850  0.1227  0.1673
32036SOL    HW1   24   5.169   7.957   1.220  1.2145 -1.6892 -1.0131
32036SOL    HW2   25   5.050   7.936   1.311  2.3134  0.2726  0.9750
32037SOL     OW   26   9.062   0.517   9.594 -0.1335 -0.3688 -0.7191
32037SOL    HW1   27   9.108   0.557   9.520  0.8057  0.6317  0.3541
32037SOL    HW2   28   9.017   0.590   9.636 -0.7293 -0.9400 -0.3567
32038SOL     OW   29   4.364   4.390   4.928 -0.1705 -0.0710 -0.7588
32038SOL    HW1   30   4.414   4.311   4.942 -2.3232 -1.3636  0.1543
32038SOL    HW2   31   4.362   4.434   5.013  0.4988  0.6698 -1.1107
32039SOL     OW   32   1.442   5.792   4.876  0.6656  0.3194 -0.1077
32039SOL    HW1   33   1.525   5.773   4.833  1.4538  0.3446  1.3320
32039SOL    HW2   34   1.447   5.746   4.960 -1.0813 -0.2715 -0.2694
32040SOL     OW   35   1.627   2.399   3.466 -0.6631  0.5295 -0.1602
32040SOL    HW1   36   1.694   2.332   3.459 -0.2008  0.9421  0.2709
32040SOL    HW2   37   1.670   2.481   3.440 -1.0059  0.7865  0.0576
32041SOL     OW   38   9.947   8.174   4.043 -0.3134  0.4891 -0.2692
32041SOL    HW1   39   9.946   8.246   3.981 -0.2198  1.1125  0.4413
32041SOL    HW2   40   9.920   8.213   4.126 -0.1244 -0.2598  0.1546
32042SOL     OW   41   9.888   2.207   5.562 -0.2985 -0.1694  0.3743
32042SOL    HW1   42   9.809   2.170   5.522  0.4728  1.4869 -3.1013
32042SOL    HW2   43   9.959   2.152   5.529  0.4537  1.8079 -1.5530
32043SOL     OW   44   3.324   6.568   7.580  0.0326  0.0559 -0.6916
32043SOL    HW1   45   3.307   6.582   7.673 -0.1617 -0.3878 -0.6545
32043SOL    HW2   46   3.409   6.609   7.565 -0.1719  0.5809 -0.4353
32044SOL     OW   47   8.743   9.662   4.789  0.5546  0.2043 -0.6723
32044SOL    HW1   48   8.817   9.612   4.755 -0.2307 -2.5612  1.2995
32044SOL    HW2   49   8.666   9.610   4.765 -0.7484  2.5580 -1.9220
32045SOL     OW   50   4.827   4.130   2.488 -0.7508  0.2526 -0.0854
32045SOL    HW1   51   4.774   4.084   2.423 -1.7318 -0.7448  1.3664
32045SOL    HW2   52   4.801   4.092   2.572 -1.1826  3.0887  1.1586
32046SOL     OW   53   3.905   9.242   5.627 -0.4583 -0.9434  0.0606
32046SOL    HW1   54   3.967   9.279   5.564 -0.2143  1.9915  1.8566
32046SOL    HW2   55   3.923   9.148   5.626  2.8176 -0.4248 -0.7575
32047SOL     OW   56   9.797   8.808   5.004 -0.4574  0.1587  0.1272
32047SOL    HW1   57   9.888   8.833   4.991  0.1359 -0.9886  1.6848
32047SOL    HW2   58   9.769   8.775   4.919 -0.5940  3.7223 -1.3881
32048SOL     OW   59   0.613   0.429   1.839  0.2336 -0.0610  0.3227
32048SOL    HW1   60   0.612   0.351   1.896 -1.1136 -0.2642  0.0412
32048SOL    HW2   61   0.531   0.474   1.859  0.1581  0.3260 -0.8338
32049SOL     OW   62   5.742   8.676   7.603 -0.0669 -0.1754 -0.2451
32049SOL    HW1   63   5.728   8.584   7.625  2.1006 -0.1868  1.5117
32049SOL    HW2   64   5.656   8.708   7.575 -1.3790 -2.1753  1.2206
32050SOL     OW   65   5.197   4.176   4.960  0.7144  0.3059 -0.1162
32050SOL    HW1   66   5.186   4.252   4.902  2.5510  0.5930 -0.1314
32050SOL    HW2   67   5.188   4.100   4.902  0.8343  0.5555 -0.4645
32051SOL     OW   68   7.584   2.968   6.746 -0.3935 -0.0471 -0.0201
32051SOL    HW1   69   7.672   2.983   6.711 -0.5647 -1.1467 -1.0106
32051SOL    HW2   70   7.534   3.044   6.719 -0.3908 -0.6406 -1.8347
32052SOL     OW   71   8.910   4.855   0.662 -0.3097  0.0395  0.1134
32052SOL    HW1   72   8.984   4.915   0.678  0.5662 -1.3494  1.4989
32052SOL    HW2   73   8.910   4.796   0.738 -1.9815 -0.8850 -0.5612
32053SOL     OW   74   3.804   1.638   4.661 -0.4261 -0.4636  0.0152
32053SOL    HW1   75   3.803   1.570   4.728 -0.8022  1.1782  1.7361
32053SOL    HW2   76   3.885   1.622   4.612  0.2477 -1.2312  1.3397
32054SOL     OW   77   9.650   5.742   0.926 -0.0057  0.1821 -0.0926
32054SOL    HW1   78   9.710   5.729   0.853  0.6941  0.9999  0.3234
32054SOL    HW2   79   9.680   5.822   0.969 -1.0154  0.2727  0.4974
32055SOL     OW   80   5.070   0.983   8.008  0.5982 -0.1366  0.0285
32055SOL    HW1   81   5.001   0.984   7.942 -0.9346  1.8988  1.5308
32055SOL    HW2   82   5.102   1.073   8.010  1.8118 -0.5618  0.8813
32056SOL     OW   83   5.702   3.378   3.955 -0.2741  0.6813 -0.2380
32056SOL    HW1   84   5.645   3.454   3.965  1.1316  1.7258  0.1190
32056SOL    HW2   85   5.704   3.363   3.860 -1.2701  0.4946 -0.2466
32057SOL     OW   86   1.612   8.081   9.678  0.0283 -0.3347 -0.1533
32057SOL    HW1   87   1.662   8.054   9.756 -1.6093 -0.7178  0.8149
32057SOL    HW2   88   1.671   8.063   9.605  1.3940 -0.5383  0.9419
32058SOL     OW   89   4.060   6.602   1.195 -0.3446 -1.1006 -0.2845
32058SOL    HW1   90   4.007   6.596   1.116 -2.7833 -1.4090  1.2501
32058SOL    HW2   91   4.060   6.513   1.231  3.1328 -1.6442 -1.2822
32059SOL     OW   92   1.974   6.961   2.322  0.4918 -0.3737 -0.5310
32059SOL    HW1   93   1.975   6.996   2.412 -0.2536 -0.7685 -0.3630
32059SOL    HW2   94   1.980   7.038   2.266  0.0293 -0.0557 -0.1487
32060SOL     OW   95   8.042   8.142   0.140 -0.1561  0.1054  0.2714
32060SOL    HW1   96   8.127   8.109   0.112 -0.5903 -0.5505 -0.3010
32060SOL    HW2   97   8.049   8.148   0.236  1.0257  1.5057  0.1232
32061SOL     OW   98   5.681   3.976   3.633  0.1068  0.2829  0.1581
32061SOL    HW1   99   5.762   3.935   3.662  0.0808  1.0448  1.3535
32061SOL    HW2  100   5.654   4.031   3.706 -1.1004  0.6156 -0.5107
32062SOL     OW  101   9.673   7.507   1.966 -0.5880 -0.4983  0.7112
32062SOL    HW1  102   9.637   7.570   1.903  0.7267  0.0798  0.5097
32062SOL    HW2  103   9.763   7.536   1.981 -0.7263 -0.8815  2.5406
32063SOL     OW  104   7.262   9.844   2.339  0.0272  0.3922 -0.0636
32063SOL    HW1  105   7.259   9.767   2.282  0.5646  0.0439  0.3697
32063SOL    HW2  106   7.335   9.896   2.303 -1.8164  1.9148 -1.8569
32064SOL     OW  107   9.173   3.983   6.421  0.0294 -0.6687 -0.5596
32064SOL    HW1  108   9.204   4.066   6.385 -0.0025  0.2651  1.4407
32064SOL    HW2  109   9.089   4.005   6.462 -0.6951 -2.0243 -1.2370
32065SOL     OW  110   9.386   5.855   1.910 -0.2214 -0.1694 -0.5587
32065SOL    HW1  111   9.464   5.910   1.902  0.2575 -0.1335  2.9125
32065SOL    HW2  112   9.334   5.896   1.978 -0.7713 -2.9237  0.8365
32066SOL     OW  113   4.788   0.668   8.895  0.0739 -0.2213 -0.2459
32066SOL    HW1  114   4.716   0.712   8.849 -1.3936  0.9314  2.8305
32066SOL    HW2  115   4.752   0.584   8.921 -0.5069  0.5912  1.8118
32067SOL     OW  116   3.512   0.368   7.365  0.1912 -0.2789  0.2222
32067SOL    HW1  117   3.517   0.285   7.414 -1.1232 -0.7801 -0.4323
32067SOL    HW2  118   3.534   0.344   7.275 -0.5377  0.0089 -0.0390
32068SOL     OW  119   0.268   3.407   4.742 -0.4317  0.3189 -0.3267
32068SOL    HW1  120   0.346   3.402   4.688  0.0766  0.5888  0.3591
32068SOL    HW2  121   0.298   3.380   4.829 -0.9355  1.1362  0.1072
32069SOL     OW  122   8.701   4.239   4.697  0.5331  0.0691  0.6537
32069SOL    HW1  123   8.725   4.224   4.606 -0.8958 -2.4153  0.5952
32069SOL    HW2  124   8.768   4.193   4.748  0.8094  0.6689  0.8451
32070SOL     OW  125   1.020   0.528   4.683 -0.5928 -0.2407  0.5689
32070SOL    HW1  126   0.955   0.471   4.642 -0.6228  0.0625  0.1883
32070SOL    HW2  127   1.069   0.564   4.610 -1.2499  1.0418  0.7345
32071SOL     OW  128   9.058   9.063   7.479  0.0191 -0.3930  0.0979
32071SOL    HW1  129   8.973   9.047   7.520 -0.2629  0.3523 -0.1711
32071SOL    HW2  130   9.113   8.990   7.508 -1.4997 -2.5033 -2.0242
32072SOL     OW  131   3.311   5.154   4.726 -0.5596 -0.2997 -0.8702
32072SOL    HW1  132   3.231   5.165   4.675 -0.2410  0.2782 -1.2499
32072SOL    HW2  133   3.358   5.237   4.716  0.4658 -0.9157 -1.3155
32073SOL     OW  134   4.328   0.853   7.236  0.3111 -0.4874  0.1780
32073SOL    HW1  135   4.352   0.929   7.290 -0.7796 -0.6933  0.9939
32073SOL    HW2  136   4.380   0.781   7.271 -1.2443 -0.8990  1.8340
32074SOL     OW  137   1.200   7.215  10.104  0.3474  0.2909 -0.0237
32074SOL    HW1  138   1.193   7.263  10.187  1.7558  1.0134 -0.2867
32074SOL    HW2  139   1.112   7.215  10.068 -0.1521  0.5342  1.1735
32075SOL     OW  140   2.773   8.551   3.260 -0.1141  0.2066  0.1682
32075SOL    HW1  141   2.755   8.482   3.196  0.3860  0.1715  0.0611
32075SOL    HW2  142   2.847   8.518   3.311 -0.8356  0.0120  1.1144
32076SOL     OW  143   4.653   9.993   8.171 -0.3635 -0.0943 -0.4872
32076SOL    HW1  144   4.697   9.955   8.247 -0.3713 -0.2210 -0.5456
32076SOL    HW2  145   4.721   9.999   8.104  0.3423  2.4268  0.3182
32077SOL     OW  146   1.360   4.914   3.521 -0.3683  0.0847  0.3365
32077SOL    HW1  147   1.409   4.840   3.555 -0.2663  1.0142  2.3140
32077SOL    HW2  148   1.413   4.946   3.447  1.8496  0.7844  2.1164
32078SOL     OW  149   2.919   4.739  10.063 -0.2165  0.2565  0.2642
32078SOL    HW1  150   2.971   4.796  10.119 -2.2561  0.6685  1.8659
32078SOL    HW2  151   2.857   4.696  10.122 -0.5588 -1.5539 -1.2966
32079SOL     OW  152   1.699   8.429   7.167 -0.4514 -0.2383  0.4097
32079SOL    HW1  153   1.634   8.483   7.122  0.3034 -0.2336 -0.7167
32079SOL    HW2  154   1.661   8.341   7.168  0.6122 -0.8423 -2.7000
32080SOL     OW  155   6.174   1.776   9.030 -0.9554 -0.6157  0.4829
32080SOL    HW1  156   6.133   1.812   9.109 -2.7123 -0.3578 -0.5014
32080SOL    HW2  157   6.252   1.829   9.017 -1.2753  0.1019  1.3977
32081SOL     OW  158   7.490   2.756   0.666 -0.3523  0.3535 -0.4799
32081SOL    HW1  159   7.514   2.686   0.727  0.3878  0.7395 -0.3172
32081SOL    HW2  160   7.541   2.738   0.587 -0.5480  0.4241 -0.6241
32082SOL     OW  161   3.609   6.471   2.370  0.1510  0.1364 -0.8625
32082SOL    HW1  162   3.579   6.551   2.327 -1.1212 -0.1241 -0.4944
32082SOL    HW2  163   3.529   6.425   2.395  0.8543 -0.4157  0.4942
32083SOL     OW  164   9.948   7.643   0.720 -0.3743  0.1173  0.1040
32083SOL    HW1  165   9.899   7.644   0.802 -0.7075 -2.5141  0.0256
32083SOL    HW2  166   9.891   7.687   0.657 -1.1619  0.0420  0.7589
32084SOL     OW  167   5.304   5.912   0.927 -0.3013 -0.0322  0.7233
32084SOL    HW1  168   5.289   5.848   0.997 -0.5880 -0.5107  0.2199
32084SOL    HW2  169   5.220   5.956   0.916 -0.6761 -0.9632 -0.3239
32085SOL     OW  170   8.929   4.144   1.764 -0.3307  0.1244 -0.4235
32085SOL    HW1  171   8.892   4.060   1.737 -1.3125 -0.0769  1.3554
32085SOL    HW2  172   8.881   4.167   1.844  2.0224  0.8613  0.8863
32086SOL     OW  173   8.190   2.285   2.376 -0.1977 -0.2426 -0.3455
32086SOL    HW1  174   8.258   2.351   2.389  0.4815 -0.7113 -1.4481
32086SOL    HW2  175   8.140   2.287   2.458  3.2219 -2.3052  2.0408
32087SOL     OW  176   0.861   1.198   8.008  0.1238  0.5663 -0.0162
32087SOL    HW1  177   0.936   1.171   8.062  0.4887  0.7268 -0.4384
32087SOL    HW2  178   0.900   1.237   7.930 -0.4046  0.8999 -0.1179
32088SOL     OW  179   5.926   8.063   7.254  0.3639 -0.1219 -0.2545
32088SOL    HW1  180   5.937   8.004   7.329 -0.9719  0.7289  0.6362
32088SOL    HW2  181   5.878   8.010   7.190 -0.1291 -0.2813  0.2323
32089SOL     OW  182   2.289   5.186   6.551 -0.1977 -0.1583 -0.3572
32089SOL    HW1  183   2.248   5.272   6.538 -0.6057 -0.4003 -0.7486
32089SOL    HW2  184   2.215   5.127   6.567  0.1744 -0.1796  1.5334
32090SOL     OW  185   4.782   1.735   9.439 -0.0067  0.3681 -0.1458
32090SOL    HW1  186   4.874   1.752   9.464 -0.0004 -1.1041  0.9817
32090SOL    HW2  187   4.733   1.804   9.484  0.4137  0.1722  0.6501
32091SOL     OW  188  10.020   0.579  10.076 -0.0505 -0.5433 -0.1737
32091SOL    HW1  189  10.072   0.580  10.156 -0.2791  2.8351  0.0691
32091SOL    HW2  190   9.929   0.587  10.106 -0.0912  1.4884 -0.7258
32092SOL     OW  191   5.836   8.186   0.756 -0.0887 -0.2857 -0.1621
32092SOL    HW1  192   5.871   8.107   0.797 -3.0303 -1.0978  0.9928
32092SOL    HW2  193   5.820   8.161   0.665 -1.8337 -1.3947  0.4044
32093SOL     OW  194   5.563   8.287   9.030 -0.2177  0.3869  0.2729
32093SOL    HW1  195   5.564   8.270   8.936  0.7974 -2.0526  0.6521
32093SOL    HW2  196   5.651   8.319   9.049 -0.2235  0.2787  0.4795
32094SOL     OW  197   6.497   4.842   6.858 -0.0665 -0.0478  0.1125
32094SOL    HW1  198   6.416   4.812   6.898 -0.0143 -0.3308  0.0089
32094SOL    HW2  199   6.565   4.818   6.921 -0.0812  0.3762  0.2964
32095SOL     OW  200   4.697   5.687   6.633  0.7655  0.2772  0.7052
32095SOL    HW1  201   4.747   5.768   6.636  2.4156 -0.5912 -1.1655
32095SOL    HW2  202   4.754   5.621   6.673  2.1370 -1.1029 -3.0485
32096SOL     OW  203   2.506   3.871   0.648  0.2813  0.3673 -0.2375
32096SOL    HW1  204   2.527   3.953   0.692  0.4782  0.5401 -0.6491
32096SOL    HW2  205   2.428   3.838   0.694  0.6263  0.4209  0.3957
32097SOL     OW  206   5.018   2.486   7.308  0.0427  0.0379  0.0384
32097SOL    HW1  207   5.104   2.482   7.265  0.2319 -0.6955  0.4746
32097SOL    HW2  208   4.991   2.578   7.298 -0.5646 -0.3527 -2.8932
32098SOL     OW  209   8.986   9.541   5.914  0.3427 -0.6860  0.1928
32098SOL    HW1  210   8.963   9.517   6.004 -1.6136 -1.9524 -0.5873
32098SOL    HW2  211   8.984   9.637   5.914 -3.4590 -0.5878  0.7132
32099SOL     OW  212   1.664   9.753   4.027  0.1197  0.3789 -0.4222
32099SOL    HW1  213   1.748   9.717   3.998  0.8309  0.7324  1.0842
32099SOL    HW2  214   1.644   9.704   4.107 -1.2366  0.1584 -0.8633
32100SOL     OW  215  10.136   6.291   5.433  0.2949 -0.1618  0.1160
32100SOL    HW1  216  10.177   6.235   5.499  1.3154  0.9657  0.4604
32100SOL    HW2  217  10.167   6.256   5.349  0.8532 -0.1741  0.3235
32101SOL     OW  218   8.461   8.280   1.181  0.2011  0.1872  0.0891
32101SOL    HW1  219   8.534   8.219   1.169 -0.0165  0.2248 -1.7861
32101SOL    HW2  220   8.481   8.325   1.263  1.6118 -0.7115  0.2798
32102SOL     OW  221   4.923   4.953   2.743  0.5907 -0.4976  0.6706
32102SOL    HW1  222   4.878   4.979   2.823 -1.1376 -1.6488  0.1120
32102SOL    HW2  223   4.871   4.881   2.708  0.9578  0.3391 -1.7956
32103SOL     OW  224   2.672   9.887   9.450 -0.2492  0.3161 -0.4576
32103SOL    HW1  225   2.647   9.977   9.429 -0.3347 -0.0525 -2.1031
32103SOL    HW2  226   2.620   9.833   9.391  1.0052 -0.7166 -0.6803
32104SOL     OW  227   9.906   4.293   5.147 -0.9004  0.1539 -0.1574
32104SOL    HW1  228   9.955   4.339   5.079  1.9317 -0.9097  0.9838
32104SOL    HW2  229   9.873   4.362   5.205 -1.1236  0.9295 -1.1890
32105SOL     OW  230   8.306   5.730   3.339  0.1813  0.1141  0.2704
32105SOL    HW1  231   8.256   5.650   3.328 -1.1501  0.7665  1.2596
32105SOL    HW2  232   8.397   5.705   3.323 -0.1938 -1.6038  0.6957
32106SOL     OW  233   3.615   7.873   2.163  0.3899  0.0884 -0.1156
32106SOL    HW1  234   3.604   7.961   2.200  1.7562  0.1940  0.0716
32106SOL    HW2  235   3.539   7.824   2.196 -0.9426  1.4327 -1.0145
32107SOL     OW  236   8.808   9.228   4.005 -0.5139  0.3528 -0.0839
32107SOL    HW1  237   8.763   9.283   4.069 -1.1513  0.4271 -0.5880
32107SOL    HW2  238   8.755   9.234   3.926 -0.6971 -1.1212 -0.1046
32108SOL     OW  239   8.544   6.159   4.231 -0.5375  0.1550 -0.3413
32108SOL    HW1  240   8.481   6.090   4.252 -1.5992  0.8653 -1.1044
32108SOL    HW2  241   8.548   6.212   4.311  0.2814 -0.7565  0.2468
32109SOL     OW  242   5.744   9.896   4.462  0.0274  0.4121 -0.3768
32109SOL    HW1  243   5.730   9.956   4.389 -0.5553  1.1865  0.3478
32109SOL    HW2  244   5.655   9.875   4.493  0.2578 -0.1453 -0.0831
32110SOL     OW  245   8.891   7.081   3.187 -0.4632  0.0480  0.1853
32110SOL    HW1  246   8.884   7.162   3.136  0.1677  0.4781  0.7652
32110SOL    HW2  247   8.857   7.013   3.128  0.3361  0.5100 -0.8591
32111SOL     OW  248  10.143   6.456   0.950 -0.2405  0.6444 -0.6088
32111SOL    HW1  249  10.055   6.444   0.986  0.4570 -3.1748  0.3008
32111SOL    HW2  250  10.186   6.516   1.011 -1.2090 -0.1817  0.9604
32112SOL     OW  251   9.476   0.417   4.296 -0.1733 -0.5009 -0.1949
32112SOL    HW1  252   9.482   0.512   4.308 -0.0143 -0.6260  0.8689
32112SOL    HW2  253   9.384   0.402   4.274 -0.8683 -0.3151  2.2792
32113SOL     OW  254   4.298   5.583   5.126  0.4845 -0.0804 -0.8855
32113SOL    HW1  255   4.265   5.542   5.206  0.8148 -1.0555 -1.2316
32113SOL    HW2  256   4.292   5.515   5.059  0.3964  0.6609 -1.6542
32114SOL     OW  257   7.225   9.392   6.495  0.1703  0.7910  0.0118
32114SOL    HW1  258   7.268   9.353   6.571 -1.0666  1.7969  1.2798
32114SOL    HW2  259   7.297   9.430   6.444  1.1606 -1.1202 -0.1080
32115SOL     OW  260   0.399   3.360   5.742  0.4170 -0.5720  0.0996
32115SOL    HW1  261   0.443   3.298   5.800  0.7684  0.9029  1.4645
32115SOL    HW2  262   0.318   3.316   5.717  2.0841 -2.9182 -1.6198
32116SOL     OW  263   5.050   7.757   2.816  0.4523 -0.4221 -0.2202
32116SOL    HW1  264   4.977   7.696   2.821  1.3904 -1.5506  0.0416
32116SOL    HW2  265   5.032   7.822   2.885 -0.7066 -0.2048 -0.7081
32117SOL     OW  266   0.444   9.762   5.482  0.1134  0.1495 -0.4336
32117SOL    HW1  267   0.419   9.851   5.507  1.8377  0.7145 -0.6334
32117SOL    HW2  268   0.518   9.773   5.423  1.3585 -1.4411  0.7423
32118SOL     OW  269   8.256   6.076   0.982  0.4330 -0.5992 -0.1103
32118SOL    HW1  270   8.173   6.102   0.943  1.2308 -0.4565 -1.8091
32118SOL    HW2  271   8.289   6.155   1.024 -0.3065 -0.6812  0.6508
32119SOL     OW  272   8.786  10.147   6.570 -0.6263  0.0185 -0.4261
32119SOL    HW1  273   8.872  10.178   6.542 -0.4243 -0.8815 -0.8354
32119SOL    HW2  274   8.802  10.061   6.609 -1.1629  0.4355  0.7640
32120SOL     OW  275   5.906   3.413   4.732  0.1151  0.2289  0.0757
32120SOL    HW1  276   5.889   3.455   4.817  2.1465 -0.4879  0.9062
32120SOL    HW2  277   5.909   3.320   4.752  1.5972  0.1176 -0.5662
32121SOL     OW  278   1.800   9.378   3.781  0.0170  0.1554 -0.2403
32121SOL    HW1  279   1.711   9.392   3.812  0.1091 -0.8461  0.5498
32121SOL    HW2  280   1.815   9.447   3.716 -1.3073  0.3595 -0.3493
32122SOL     OW  281   5.485   2.763   6.791 -0.0161  0.2120  0.3552
32122SOL    HW1  282   5.404   2.798   6.755 -0.5116 -0.5824  0.6849
32122SOL    HW2  283   5.548   2.834   6.781 -0.8607  1.0021  0.5016
32123SOL     OW  284   6.307   7.558   0.317 -0.3994  0.2896 -0.1437
32123SOL    HW1  285   6.238   7.581   0.255 -0.7649 -0.2983  0.0417
32123SOL    HW2  286   6.369   7.507   0.266  1.2156  2.8815 -0.9638
32124SOL     OW  287   8.269   6.548   7.326  0.1946 -0.1053 -0.5736
32124SOL    HW1  288   8.360   6.522   7.312  1.1168  1.9086  1.1255
32124SOL    HW2  289   8.229   6.543   7.240  2.1164 -0.3214 -1.5087
32125SOL     OW  290   4.999   4.024   2.823 -0.0499 -0.5469 -0.1316
32125SOL    HW1  291   5.065   3.995   2.761  1.5637  2.3205  0.0207
32125SOL    HW2  292   5.039   4.010   2.909 -0.2610 -0.2089  0.0280
32126SOL     OW  293   0.885   9.418   8.460  0.2726  0.5202 -0.1956
32126SOL    HW1  294   0.819   9.480   8.491  1.6449  3.6045 -2.8716
32126SOL    HW2  295   0.842   9.371   8.388 -0.5717 -1.4584  1.4633
32127SOL     OW  296   2.550   2.581   2.139  0.1567  0.3950  0.5682
32127SOL    HW1  297   2.555   2.649   2.072  2.4767 -0.3637 -0.1017
32127SOL    HW2  298   2.482   2.522   2.107  0.2433  0.8017 -0.3937
32128SOL     OW  299   4.593   3.734   3.018 -0.6495 -1.0243 -0.1090
32128SOL    HW1  300   4.529   3.788   2.972 -0.2326 -0.7151 -0.3237
32128SOL    HW2  301   4.618   3.786   3.094  0.8263 -0.2745 -1.0723
32129SOL     OW  302   2.505   9.953   2.998 -0.2721  0.2113 -0.0843
32129SOL    HW1  303   2.585   9.908   3.026  0.1563  1.2003  0.3559
32129SOL    HW2  304   2.494   9.928   2.906 -0.5136 -1.4167  0.3485
32130SOL     OW  305   8.929   9.925   1.832 -0.8127 -0.3199  0.5122
32130SOL    HW1  306   8.955   9.994   1.894  0.6960 -1.0717  0.7402
32130SOL    HW2  307   8.897   9.854   1.888 -2.3539  0.1465  0.2768
32131SOL     OW  308   9.485   4.156   3.486  0.2052 -0.1497  0.0789
32131SOL    HW1  309   9.460   4.071   3.522 -0.6678  0.4664  0.9734
32131SOL    HW2  310   9.435   4.162   3.405 -0.5636 -0.0376  0.5542
32132SOL     OW  311   8.076   9.729   9.078  0.2539  0.3417  0.2992
32132SOL    HW1  312   8.071   9.664   9.008  2.1679 -1.1411  1.4457
32132SOL    HW2  313   8.098   9.811   9.033  2.1210 -0.7024 -0.8069
32133SOL     OW  314   4.851   3.490   5.256 -0.7576 -0.7784  0.4922
32133SOL    HW1  315   4.896   3.412   5.286  1.2928  0.4983  0.9281
32133SOL    HW2  316   4.920   3.555   5.244 -2.2981  0.7734 -0.5451
32134SOL     OW  317   9.960   5.139   0.499 -0.5078 -0.2958  0.0862
32134SOL    HW1  318   9.869   5.165   0.485 -0.5819  0.0256  1.0541
32134SOL    HW2  319   9.987   5.097   0.417 -2.0765 -2.0100  0.3859
32135SOL     OW  320   1.669   9.314   2.670 -0.0211  0.0838  0.1913
32135SOL    HW1  321   1.636   9.317   2.580 -0.2759 -0.2798  0.2659
32135SOL    HW2  322   1.621   9.240   2.710  0.2477  0.1067  0.5593
32136SOL     OW  323   6.530   7.685   6.686  0.1323 -0.3163 -0.1196
32136SOL    HW1  324   6.434   7.685   6.684  0.0813  0.4641  1.0572
32136SOL    HW2  325   6.552   7.681   6.780  1.2662 -1.2375 -0.3963
32137SOL     OW  326   8.425   5.049   7.397 -0.1073  0.3987 -0.0652
32137SOL    HW1  327   8.489   5.017   7.461 -1.5552  1.4443  2.0287
32137SOL    HW2  328   8.450   5.140   7.382  0.6952 -0.0474 -1.6959
32138SOL     OW  329   5.803   5.475   1.826 -0.2272 -0.5336  0.2023
32138SOL    HW1  330   5.774   5.557   1.785 -1.1172 -0.4951  0.8751
32138SOL    HW2  331   5.757   5.406   1.778 -0.0213 -0.6031  0.1000
32139SOL     OW  332   9.364   7.028   0.301  0.1857  0.4122 -0.2418
32139SOL    HW1  333   9.377   6.947   0.253 -2.1200 -0.0100 -0.2953
32139SOL    HW2  334   9.439   7.034   0.360  0.2481 -1.9753  0.0279
32140SOL     OW  335   8.205   1.157   1.581  0.5951  0.4802  0.3662
32140SOL    HW1  336   8.124   1.208   1.580  0.7009  0.6582  0.8084
32140SOL    HW2  337   8.222   1.141   1.674  1.4946  1.1240  0.3190
32141SOL     OW  338   1.401   8.771   7.514  0.2118 -0.0043 -0.1242
32141SOL    HW1  339   1.415   8.762   7.419  0.3343 -0.7342 -0.0472
32141SOL    HW2  340   1.312   8.804   7.522 -0.3014 -1.2306 -0.4770
32142SOL     OW  341   2.706   4.547   7.187  0.0352  0.2670 -0.0106
32142SOL    HW1  342   2.614   4.573   7.181 -0.0519  0.0166  0.2086
32142SOL    HW2  343   2.746   4.580   7.107 -1.1578 -3.4904 -2.4271
32143SOL     OW  344   5.796   8.320   8.685 -0.1003 -0.2623  0.8206
32143SOL    HW1  345   5.887   8.328   8.714  0.9087  1.5539 -2.4079
32143SOL    HW2  346   5.772   8.408   8.658 -1.8463 -1.2122 -0.9624
32144SOL     OW  347   4.275   4.189   3.988  0.1277 -0.1945 -0.6567
32144SOL    HW1  348   4.182   4.196   3.965 -0.0664 -1.5294 -0.3975
32144SOL    HW2  349   4.318   4.254   3.933 -1.2083  2.1599  0.9069
32145SOL     OW  350   1.045   4.183   3.081  0.5393 -0.1390  0.0506
32145SOL    HW1  351   1.031   4.237   3.159  1.3398 -0.2236  0.2683
32145SOL    HW2  352   0.961   4.141   3.066  0.8239 -1.5262  1.9446
32146SOL     OW  353   7.695   4.372   1.482  0.3939  0.6407 -0.2077
32146SOL    HW1  354   7.643   4.424   1.544  0.2923  1.3146 -0.8346
32146SOL    HW2  355   7.683   4.417   1.398  0.8554 -0.0200 -0.6368
32147SOL     OW  356   8.257   1.773   5.758 -0.1168 -0.4358  0.1273
32147SOL    HW1  357   8.205   1.782   5.679 -2.1961  0.9305  1.5495
32147SOL    HW2  358   8.294   1.685   5.753  0.1364 -0.2543 -2.4905
32148SOL     OW  359   9.305   9.489  10.108  0.1479  0.5550  0.1390
32148SOL    HW1  360   9.309   9.399  10.077  0.5148  0.4953  0.3494
32148SOL    HW2  361   9.395   9.508  10.137  0.3778  1.3775 -1.0156
32149SOL     OW  362   8.133   4.124   9.439 -0.2844 -0.1873 -0.1307
32149SOL    HW1  363   8.209   4.088   9.487 -1.5942 -0.4966  1.8282
32149SOL    HW2  364   8.170   4.156   9.357  1.5760 -2.6013 -0.3552
32150SOL     OW  365   5.225   4.684   0.861 -0.1107  0.0147 -0.0412
32150SOL    HW1  366   5.247   4.665   0.952  2.2671 -0.7533 -0.7066
32150SOL    HW2  367   5.263   4.770   0.844  0.6525 -0.4281 -0.6526
32151SOL     OW  368   1.692   0.931   6.984 -0.0351  0.7659  0.0800
32151SOL    HW1  369   1.717   1.006   6.931  0.6459 -0.4567 -1.4126
32151SOL    HW2  370   1.773   0.880   6.993 -0.3161  0.5244  1.6536
32152SOL     OW  371   0.648   0.635   6.767  0.3842  0.3497  0.4867
32152SOL    HW1  372   0.679   0.724   6.787  1.0606  0.3855 -0.6184
32152SOL    HW2  373   0.724   0.579   6.786  0.7990  0.3042 -1.1298
32153SOL     OW  374   3.713   7.279   7.109  0.1582  0.3920  0.2078
32153SOL    HW1  375   3.731   7.202   7.054  0.5157  0.2384  0.5395
32153SOL    HW2  376   3.788   7.285   7.167 -0.3901  0.3307  0.9405
32154SOL     OW  377   5.909   2.148   5.526 -0.4480 -0.1096 -0.7468
32154SOL    HW1  378   5.936   2.056   5.519 -1.1866 -0.7868  3.1215
32154SOL    HW2  379   5.823   2.151   5.483 -0.5028 -1.2838 -0.7628
32155SOL     OW  380   5.899   1.358   6.776  0.1719 -0.4888 -0.4102
32155SOL    HW1  381   5.847   1.304   6.717 -1.5721  2.4727 -1.8412
32155SOL    HW2  382   5.985   1.362   6.735 -1.0336  1.5879 -3.0311
32156SOL     OW  383   5.428   8.728   7.567 -0.6408 -0.5441 -0.2748
32156SOL    HW1  384   5.438   8.813   7.523 -1.3512 -0.7715 -0.8981
32156SOL    HW2  385   5.403   8.750   7.657 -1.3506 -0.0912 -0.5723
32157SOL     OW  386   4.180   3.095   6.855  0.6392 -0.3358  0.2555
32157SOL    HW1  387   4.253   3.147   6.821 -0.7529  1.4560 -0.0806
32157SOL    HW2  388   4.119   3.087   6.782 -2.0264  2.8985  1.8692
32158SOL     OW  389   8.853   5.550   2.880  0.1279  0.2798  0.4086
32158SOL    HW1  390   8.841   5.509   2.965  0.5482 -1.3400 -0.2844
32158SOL    HW2  391   8.783   5.616   2.875 -0.5669 -0.3420  1.5593
32159SOL     OW  392   8.105   8.122   4.324 -0.4393  0.2533 -0.0729
32159SOL    HW1  393   8.117   8.209   4.286 -0.2179 -0.3102 -1.3432
32159SOL    HW2  394   8.011   8.115   4.338 -0.2410  1.6717  2.5181
32160SOL     OW  395   8.993   4.584   0.756  0.2516  0.2151 -0.0047
32160SOL    HW1  396   9.076   4.546   0.784 -0.9051 -1.3191  1.5734
32160SOL    HW2  397   8.948   4.512   0.711 -0.6607  0.7031  0.1101
32161SOL     OW  398   9.988   1.820   5.329  0.1737  0.2607  0.2189
32161SOL    HW1  399  10.010   1.776   5.411  0.7640 -0.6432 -0.4036
32161SOL    HW2  400  10.045   1.779   5.264  0.2035  1.4420 -0.5272
32162SOL     OW  401   8.712   2.086   2.314 -0.2148 -0.1119  0.0881
32162SOL    HW1  402   8.687   2.133   2.393 -1.4054  0.5183 -0.6362
32162SOL    HW2  403   8.747   2.154   2.256 -1.5558 -0.1681 -0.8063
32163SOL     OW  404   5.025   8.680   4.921 -0.3531 -0.0490  0.3370
32163SOL    HW1  405   5.051   8.771   4.912  0.3172 -0.4212 -2.1503
32163SOL    HW2  406   5.092   8.641   4.978  0.2710  0.6507  0.0871
32164SOL     OW  407   7.703   3.161   9.164  0.1299 -0.7743 -0.0695
32164SOL    HW1  408   7.707   3.256   9.156  1.5909 -0.9845 -2.6533
32164SOL    HW2  409   7.712   3.145   9.258 -2.6610  1.6653  0.7773
32165SOL     OW  410   9.945   9.879   5.059 -0.0065  0.1163  0.0425
32165SOL    HW1  411  10.000   9.887   5.137 -0.1044  1.5482 -0.0201
32165SOL    HW2  412   9.939   9.968   5.025 -2.0827 -0.0553 -0.1396
32166SOL     OW  413   3.221   7.340   6.612  0.2536 -0.0083 -0.5308
32166SOL    HW1  414   3.187   7.269   6.666  1.2951  0.4789  0.8108
32166SOL    HW2  415   3.165   7.415   6.631 -1.4243 -0.6268 -2.6321
32167SOL     OW  416   8.341   8.463   3.840  0.3395 -0.9857 -0.0775
32167SOL    HW1  417   8.391   8.455   3.759  1.2266  1.2106  0.1750
32167SOL    HW2  418   8.406   8.487   3.906 -0.8997  1.9281  0.2748
32168SOL     OW  419   4.875   3.410   0.355  0.9434 -0.3288 -0.1782
32168SOL    HW1  420   4.943   3.354   0.392  2.3409  2.2930  1.5783
32168SOL    HW2  421   4.923   3.478   0.308 -0.6513 -0.1579 -1.6704
32169SOL     OW  422   9.302   0.775   9.944  0.6018  0.4614  0.1706
32169SOL    HW1  423   9.294   0.681   9.959  2.6263  0.2732  0.3240
32169SOL    HW2  424   9.304   0.784   9.849  2.1998  0.1315  0.1498
32170SOL     OW  425   8.659   6.644   9.089 -0.6073 -0.7075  0.0327
32170SOL    HW1  426   8.566   6.657   9.101 -0.6448 -1.0311  0.1081
32170SOL    HW2  427   8.690   6.609   9.173 -0.2005  0.5144  0.4095
32171SOL     OW  428   0.747   4.108   1.269 -0.5155 -0.4007 -0.1760
32171SOL    HW1  429   0.724   4.188   1.315 -0.0865  0.6256 -1.6601
32171SOL    HW2  430   0.843   4.108   1.266 -0.5327 -0.3464 -1.1720
32172SOL     OW  431   7.058   3.857   6.444  0.2528  0.0185 -0.3512
32172SOL    HW1  432   7.043   3.946   6.410 -1.3678 -0.8688 -2.1608
32172SOL    HW2  433   6.979   3.837   6.494  0.7650 -0.2892  0.3468
32173SOL     OW  434   1.133   1.116   6.252 -0.1979 -0.4877 -0.2695
32173SOL    HW1  435   1.117   1.050   6.185 -0.6976 -0.0336 -0.6091
32173SOL    HW2  436   1.217   1.155   6.228 -0.0461 -0.7968 -0.2379
32174SOL     OW  437   1.321   5.777   5.402  0.3960 -0.5465 -0.0312
32174SOL    HW1  438   1.332   5.872   5.399 -0.2304 -0.4856 -0.7228
32174SOL    HW2  439   1.230   5.764   5.429  0.4491 -0.9495 -0.0345
32175SOL     OW  440   0.733   7.599   9.276  0.0268 -0.0758  0.9800
32175SOL    HW1  441   0.747   7.678   9.223 -0.0102 -0.8937 -0.2624
32175SOL    HW2  442   0.638   7.586   9.275  0.0325 -0.1423  1.1937
32176SOL     OW  443   1.914   2.643   2.724  0.9874 -0.2481 -0.1114
32176SOL    HW1  444   1.932   2.671   2.634  1.0296  1.2062  0.3195
32176SOL    HW2  445   1.992   2.671   2.773  1.4109 -1.9209  0.2278
32177SOL     OW  446   9.861   1.007   0.941  0.2132 -0.0298  0.2863
32177SOL    HW1  447   9.859   1.101   0.922 -2.3234  0.0179  0.4680
32177SOL    HW2  448   9.770   0.979   0.933  0.9196 -2.5264  0.1020
32178SOL     OW  449   6.960   0.673   3.940 -0.2163  0.4786  0.7460
32178SOL    HW1  450   6.888   0.708   3.992 -1.6030  0.3472 -0.9952
32178SOL    HW2  451   7.018   0.631   4.003 -2.2892 -0.4948  2.0966
32179SOL     OW  452   3.504   5.930   0.707 -0.0737 -0.3407 -0.1096
32179SOL    HW1  453   3.569   5.943   0.637  0.5635 -0.6130  0.4177
32179SOL    HW2  454   3.435   5.994   0.688  0.5855  0.3023 -0.4018
32180SOL     OW  455   3.990   2.028  10.204  0.1017 -0.4268 -0.0465
32180SOL    HW1  456   4.030   2.115  10.211 -1.5953  0.4640 -0.8571
32180SOL    HW2  457   3.897   2.043  10.220 -0.3255 -1.9927 -0.8986
32181SOL     OW  458   5.424   7.479   7.753 -0.2963 -0.0196 -0.1672
32181SOL    HW1  459   5.399   7.451   7.841 -0.9687 -2.2794 -1.0187
32181SOL    HW2  460   5.345   7.522   7.719 -0.8430 -1.2456 -0.4848
32182SOL     OW  461   6.570   9.803   0.994 -0.1699 -0.0178 -0.2777
32182SOL    HW1  462   6.540   9.742   0.926  1.1666 -0.4145 -0.5336
32182SOL    HW2  463   6.559   9.755   1.076  1.1005 -0.7241 -0.4967
32183SOL     OW  464  10.111   2.918   1.642  0.4847  0.5210 -0.5026
32183SOL    HW1  465  10.145   2.908   1.731  0.7592  1.2594 -0.5182
32183SOL    HW2  466  10.167   2.984   1.602 -0.3307  1.0151 -0.8605
32184SOL     OW  467   8.532   8.530   6.195  0.2675 -0.1764 -0.0059
32184SOL    HW1  468   8.442   8.564   6.200  0.7058  1.1608 -0.7861
32184SOL    HW2  469   8.566   8.543   6.284  0.0620  0.4360 -0.0058
32185SOL     OW  470   6.237   0.577   2.369 -1.0732  0.7101  0.0963
32185SOL    HW1  471   6.225   0.665   2.404 -0.1842  0.1920  1.7715
32185SOL    HW2  472   6.241   0.521   2.446 -0.1755 -0.6240 -0.8906
32186SOL     OW  473   7.655   7.351   8.192 -0.0953 -0.6862 -0.0546
32186SOL    HW1  474   7.744   7.347   8.226 -0.9611 -0.0688  2.4789
32186SOL    HW2  475   7.640   7.444   8.174 -0.2161 -0.8054 -0.6116
32187SOL     OW  476   3.713   2.788   2.867 -0.3758 -0.3343 -0.1101
32187SOL    HW1  477   3.646   2.771   2.800 -1.7678  1.4766  0.7166
32187SOL    HW2  478   3.785   2.730   2.844 -1.3431 -0.7617 -2.3632
32188SOL     OW  479   1.593   6.014   0.864 -0.1262 -0.1111 -0.0598
32188SOL    HW1  480   1.501   6.039   0.874  0.3368  1.5223  0.3848
32188SOL    HW2  481   1.615   6.036   0.774  1.0685  4.1658  1.0640
32189SOL     OW  482   2.785   1.078   6.241  0.2854 -0.5387 -0.2033
32189SOL    HW1  483   2.790   1.068   6.146  1.9630  0.4437 -0.2504
32189SOL    HW2  484   2.830   1.161   6.259 -0.9841 -0.1282  1.3558
32190SOL     OW  485   3.828   4.045   6.731  0.7140  0.0007  0.3619
32190SOL    HW1  486   3.888   4.115   6.758  1.0179  0.0686 -0.4485
32190SOL    HW2  487   3.860   4.018   6.645  0.4836 -1.0072  0.5705
32191SOL     OW  488   9.127   9.233   1.503  0.2445 -0.2522  0.2410
32191SOL    HW1  489   9.184   9.178   1.449  0.3345  1.6071 -1.7442
32191SOL    HW2  490   9.038   9.205   1.481  0.2848  0.3831 -0.8683
32192SOL     OW  491   2.908   8.034   1.692 -0.1663 -0.0175 -0.0117
32192SOL    HW1  492   2.956   7.963   1.651  0.9330 -0.8551  2.5141
32192SOL    HW2  493   2.962   8.059   1.767 -1.9750  1.4588  0.8845
32193SOL     OW  494   3.140   4.041   9.772  0.0735  0.4147 -0.9083
32193SOL    HW1  495   3.221   4.002   9.804 -0.1770  0.4196 -0.2701
32193SOL    HW2  496   3.164   4.078   9.686  1.0593  1.5238 -0.1867
32194SOL     OW  497   0.572   1.699   1.788 -0.4476 -0.1948 -0.3907
32194SOL    HW1  498   0.560   1.653   1.872 -2.2573  2.0026  0.6872
32194SOL    HW2  499   0.660   1.734   1.792 -0.9273  0.9532  1.2471
32195SOL     OW  500   5.518   5.338   9.571 -0.3650  0.4861  0.3984
32195SOL    HW1  501   5.477   5.252   9.580 -0.6774  0.4727 -1.0152
32195SOL    HW2  502   5.498   5.365   9.482  2.0818  0.8015 -0.1219
32196SOL     OW  503   0.143   6.766   2.620 -0.3377 -0.2662 -0.1382
32196SOL    HW1  504   0.217   6.733   2.570 -1.3992 -0.4532 -1.6802
32196SOL    HW2  505   0.077   6.697   2.613 -1.1252  0.4421  0.0581
32197SOL     OW  506   7.554   6.055   2.017 -0.2861 -0.0823 -0.0643
32197SOL    HW1  507   7.566   6.062   2.112  0.1656  0.7521 -0.1694
32197SOL    HW2  508   7.531   6.143   1.989  0.0161 -0.2242 -0.7869
32198SOL     OW  509   8.779   7.717   0.639  0.2223 -0.1663  0.5527
32198SOL    HW1  510   8.845   7.666   0.687  0.3748 -1.3284 -0.8131
32198SOL    HW2  511   8.828   7.792   0.605  0.6535 -0.5712  0.2652
32199SOL     OW  512   6.444   7.935   6.523 -0.4133 -0.7516 -0.0072
32199SOL    HW1  513   6.425   7.996   6.595  0.4172  0.3590 -0.7040
32199SOL    HW2  514   6.511   7.876   6.559 -0.7849 -0.8955  0.4698
32200SOL     OW  515   8.423   9.521   8.168 -0.0450 -0.5155 -0.3511
32200SOL    HW1  516   8.386   9.501   8.082  1.1847 -0.4237 -0.9220
32200SOL    HW2  517   8.481   9.595   8.152 -2.3573  1.8442  1.1937
32201SOL     OW  518   0.623   6.379   6.759 -0.1458  0.4332  0.2048
32201SOL    HW1  519   0.573   6.392   6.678  1.3364  1.0465 -0.6500
32201SOL    HW2  520   0.713   6.369   6.730  0.4740  1.0329  1.8124
32202SOL     OW  521   4.849   8.127   1.226 -0.1792  0.3455 -0.3524
32202SOL    HW1  522   4.905   8.084   1.291  1.2277 -0.4883 -2.0324
32202SOL    HW2  523   4.866   8.221   1.239  0.0712  0.1962  0.4826
32203SOL     OW  524   6.434   7.827   6.272 -0.6409  0.0812 -0.0438
32203SOL    HW1  525   6.462   7.906   6.227  1.0989  0.0204  0.8467
32203SOL    HW2  526   6.428   7.852   6.364  0.6130 -0.9423  0.3570
32204SOL     OW  527   7.681   3.470   9.869 -0.9148 -0.1915  0.3244
32204SOL    HW1  528   7.730   3.406   9.817 -0.0734  1.4346 -0.9528
32204SOL    HW2  529   7.743   3.498   9.936 -0.3079  1.2629 -0.7948
32205SOL     OW  530   3.339   8.163  10.163  0.4524 -0.1029 -0.0733
32205SOL    HW1  531   3.382   8.078  10.172  2.1154  0.5923 -0.9846
32205SOL    HW2  532   3.301   8.160  10.075  0.4706  0.0900 -0.0860
32206SOL     OW  533   5.256   5.694   4.105 -0.5027 -0.0409 -0.8244
32206SOL    HW1  534   5.289   5.680   4.016 -0.1371 -1.0800 -0.5382
32206SOL    HW2  535   5.277   5.786   4.124  1.6745 -0.4708 -0.8968
32207SOL     OW  536   5.057   3.368   7.556 -0.5318  0.1855 -0.0746
32207SOL    HW1  537   4.979   3.330   7.596  0.4012 -2.1230 -0.3109
32207SOL    HW2  538   5.041   3.364   7.462 -0.1745 -0.2095 -0.1219
32208SOL     OW  539   9.534   4.620   0.537  0.2015  0.2247 -0.2708
32208SOL    HW1  540   9.546   4.686   0.469  0.2843  0.5408  0.0484
32208SOL    HW2  541   9.547   4.667   0.620  0.1973 -0.1742 -0.0377
32209SOL     OW  542   8.727   7.976   0.070  0.1866  0.4088  0.5078
32209SOL    HW1  543   8.717   7.914   0.142  2.6387  0.7664  1.2464
32209SOL    HW2  544   8.777   7.928   0.004 -1.1864  0.4085 -0.5627
32210SOL     OW  545   6.585   0.098   5.898  0.5625 -0.6129 -0.3154
32210SOL    HW1  546   6.665   0.151   5.902 -0.2204  0.7118 -1.5127
32210SOL    HW2  547   6.609   0.024   5.842  1.1693 -0.6174 -0.0553
32211SOL     OW  548   3.180   4.531   7.551  0.0824  0.8433 -0.6421
32211SOL    HW1  549   3.209   4.465   7.488 -0.1708  1.4663 -1.4375
32211SOL    HW2  550   3.098   4.497   7.586  0.8871 -0.1373  0.3656
32212SOL     OW  551   9.945   6.282   0.588 -0.1155 -0.1349  0.2759
32212SOL    HW1  552   9.904   6.222   0.649 -0.7518 -1.2728 -1.2206
32212SOL    HW2  553   9.894   6.363   0.595 -2.2022 -1.2654 -0.9876
32213SOL     OW  554   8.894   9.776   8.822  0.1399  0.0901  0.3474
32213SOL    HW1  555   8.901   9.687   8.857 -1.8697  0.7061  2.5619
32213SOL    HW2  556   8.823   9.770   8.758  1.3322 -0.2559 -0.9925
32214SOL     OW  557   0.542   5.019   6.058  0.5227 -0.3747  0.0232
32214SOL    HW1  558   0.517   5.107   6.029  0.8984 -0.4559 -0.5678
32214SOL    HW2  559   0.462   4.967   6.048  0.8983 -0.6743 -2.0229
32215SOL     OW  560   7.157   0.420   3.651  0.3026 -0.4138  0.2672
32215SOL    HW1  561   7.206   0.374   3.719  1.3843 -1.4387 -1.1655
32215SOL    HW2  562   7.224   0.457   3.593 -0.5484  1.9454  0.6507
32216SOL     OW  563   8.844   3.901   9.958  0.4147  0.2241  0.1442
32216SOL    HW1  564   8.766   3.872   9.910 -0.6699  3.9459 -0.6787
32216SOL    HW2  565   8.828   3.875  10.048  0.3271 -2.8611 -0.6737
32217SOL     OW  566   7.288   1.572   2.621 -0.2757  0.1554  0.1054
32217SOL    HW1  567   7.260   1.500   2.678  2.1204 -1.2505 -0.3568
32217SOL    HW2  568   7.211   1.591   2.567 -1.5622 -0.7230  1.5645
32218SOL     OW  569   9.403   5.889   4.872  0.4819  0.0320  0.1065
32218SOL    HW1  570   9.458   5.967   4.867  0.1178  0.2596 -0.4182
32218SOL    HW2  571   9.354   5.889   4.790  0.2626 -0.5876  0.2349
32219SOL     OW  572   5.559   8.200   8.750  0.6225  0.0982  0.3292
32219SOL    HW1  573   5.641   8.244   8.728  0.9666 -0.9768 -0.6375
32219SOL    HW2  574   5.581   8.107   8.752 -0.3446 -0.1362  1.1456
32220SOL     OW  575   4.785  10.077   6.856  0.1551  0.1761 -0.0658
32220SOL    HW1  576   4.794  10.169   6.832  3.1783 -0.2789 -1.0168
32220SOL    HW2  577   4.852  10.062   6.923 -2.3575 -0.7028  2.5201
32221SOL     OW  578   3.885   6.736   5.096 -0.6937 -0.1474  0.1907
32221SOL    HW1  579   3.856   6.658   5.047 -1.0255  0.9836 -1.4995
32221SOL    HW2  580   3.815   6.752   5.159 -0.2123 -1.7045  1.1731
32222SOL     OW  581   5.711   7.545   8.861  0.1173  0.2893  0.2057
32222SOL    HW1  582   5.762   7.511   8.787  0.1131 -1.5826  0.9906
32222SOL    HW2  583   5.632   7.492   8.861  0.1951  0.1422  1.6453
32223SOL     OW  584   6.510   1.608   6.677 -0.1271 -0.0103  0.5593
32223SOL    HW1  585   6.480   1.598   6.586  1.3311  0.4405 -0.0089
32223SOL    HW2  586   6.432   1.595   6.730 -1.0206 -0.2474 -0.7668
32224SOL     OW  587   9.370   6.365   3.600  0.2962 -0.4310  0.0704
32224SOL    HW1  588   9.340   6.359   3.690  0.7095  0.7959  0.3123
32224SOL    HW2  589   9.315   6.434   3.562  1.4898  0.4964 -0.0210
32225SOL     OW  590   6.298   6.792   3.275  0.0515 -0.2019  0.3375
32225SOL    HW1  591   6.222   6.845   3.298  1.1562  0.7677  1.9021
32225SOL    HW2  592   6.332   6.761   3.359  2.2813  0.6647 -0.2001
32226SOL     OW  593   5.552   5.926   3.126 -0.2807  0.5198 -0.2824
32226SOL    HW1  594   5.625   5.864   3.123  2.0805  3.0922 -0.4430
32226SOL    HW2  595   5.496   5.894   3.196  1.2250 -1.3438  0.1552
32227SOL     OW  596   8.304   3.770   7.320  0.6174 -0.2563  0.1462
32227SOL    HW1  597   8.369   3.826   7.362 -0.0154 -0.6271  1.6689
32227SOL    HW2  598   8.265   3.720   7.392 -1.1859 -0.2134 -0.7489
32228SOL     OW  599   8.498   9.548   4.689  0.0847 -0.0389  0.2882
32228SOL    HW1  600   8.455   9.466   4.714 -1.4337  0.5569 -0.3116
32228SOL    HW2  601   8.432   9.596   4.640  1.4448  0.8999 -0.6959
32229SOL     OW  602   3.672   8.118   0.573 -0.3422 -0.6780 -0.1243
32229SOL    HW1  603   3.582   8.098   0.545 -0.4516 -1.3257  0.6743
32229SOL    HW2  604   3.693   8.050   0.636  0.6295 -0.3778 -0.1173
32230SOL     OW  605   1.758   1.213   5.664  0.1226 -0.0485 -0.2557
32230SOL    HW1  606   1.678   1.259   5.639 -1.8579 -2.7958  0.5983
32230SOL    HW2  607   1.763   1.221   5.759  0.6004 -0.3225 -0.2522
32231SOL     OW  608   6.767   0.504   7.795 -0.1308  0.0590 -0.3581
32231SOL    HW1  609   6.736   0.425   7.839  1.1062 -0.2869 -0.0826
32231SOL    HW2  610   6.703   0.519   7.725 -0.7772 -0.7639  0.0423
32232SOL     OW  611   3.301   8.725   8.692  0.2194  0.7331 -0.3442
32232SOL    HW1  612   3.270   8.787   8.759  1.6307  1.0490  0.0502
32232SOL    HW2  613   3.368   8.773   8.645  0.6160 -0.1662 -0.7052
32233SOL     OW  614   4.628   1.277   7.376  0.1465 -0.1115  0.3369
32233SOL    HW1  615   4.652   1.370   7.373  1.2342 -0.3960 -1.7069
32233SOL    HW2  616   4.709   1.231   7.353 -0.4067 -1.5865  1.2135
32234SOL     OW  617   2.147   5.669   9.580 -0.3393 -0.3000 -0.1486
32234SOL    HW1  618   2.176   5.719   9.657 -1.0931 -1.6109  1.0449
32234SOL    HW2  619   2.226   5.623   9.550  0.3560  1.5082 -1.2482
32235SOL     OW  620   8.562   0.037   3.101  0.2453  0.0032  0.1586
32235SOL    HW1  621   8.533   0.126   3.082  0.1300  0.1321  0.9231
32235SOL    HW2  622   8.503   0.006   3.169 -0.3792 -1.0425 -0.8055
32236SOL     OW  623   7.450   8.709   1.166  0.4280  0.2566 -0.0034
32236SOL    HW1  624   7.471   8.762   1.243 -1.6398  1.4218 -0.1743
32236SOL    HW2  625   7.465   8.767   1.092  0.9829 -0.3818 -0.3991
32237SOL     OW  626   7.514   5.974   7.896  0.0338  0.6255 -0.5451
32237SOL    HW1  627   7.518   6.038   7.825 -1.2910  0.0241 -1.1923
32237SOL    HW2  628   7.582   5.910   7.876  1.9869  2.2489  0.5823
32238SOL     OW  629   5.744   1.032   4.343 -0.2154 -0.1616  0.6117
32238SOL    HW1  630   5.788   1.101   4.293 -1.9199  0.0808 -0.6647
32238SOL    HW2  631   5.717   1.075   4.424 -1.2642  0.7425 -0.1687
32239SOL     OW  632   2.445   4.125   6.431 -0.5189  0.4291  0.6497
32239SOL    HW1  633   2.368   4.079   6.465 -0.7523  1.2650  1.2822
32239SOL    HW2  634   2.519   4.070   6.456 -0.8418  0.0348  0.7590
32240SOL     OW  635   5.723   9.800   7.701 -0.1960 -0.5179 -0.1069
32240SOL    HW1  636   5.700   9.837   7.616  0.0016  0.1921  0.1374
32240SOL    HW2  637   5.733   9.707   7.685 -1.4629 -0.5800 -0.5850
32241SOL     OW  638   5.476   5.100   0.249 -0.3809 -0.4778 -0.2271
32241SOL    HW1  639   5.435   5.098   0.163 -0.5305 -0.2632 -0.1639
32241SOL    HW2  640   5.524   5.018   0.256 -0.4781 -0.5532 -0.4612
32242SOL     OW  641   5.930   3.928   0.272 -0.3496 -0.2802  0.4125
32242SOL    HW1  642   5.954   3.993   0.205  3.5312  0.9743  2.6568
32242SOL    HW2  643   5.836   3.918   0.263 -0.2759  0.8927 -4.1786
32243SOL     OW  644   3.119   2.675   8.477 -0.4050  0.5880  0.5006
32243SOL    HW1  645   3.133   2.613   8.405 -2.4135  0.0486  0.5044
32243SOL    HW2  646   3.144   2.626   8.556  1.2895  1.0013  0.2624
32244SOL     OW  647   3.597   8.078   5.521 -0.2508  0.6238 -0.1896
32244SOL    HW1  648   3.572   8.131   5.597 -1.8078 -0.6237  0.2166
32244SOL    HW2  649   3.678   8.035   5.547 -0.2616  0.9500  0.3976
32245SOL     OW  650   1.216   0.962   3.049  0.1409 -0.1665  0.5224
32245SOL    HW1  651   1.167   0.982   3.130  0.5528  0.6688  0.5767
32245SOL    HW2  652   1.218   0.867   3.046 -1.1162 -0.2285  0.7479
32246SOL     OW  653   7.876   4.434   5.313 -0.7146  0.0608  0.2715
32246SOL    HW1  654   7.911   4.506   5.365 -0.8827  0.0594  0.3904
32246SOL    HW2  655   7.952   4.381   5.291 -0.4363  0.8185 -0.6789
32247SOL     OW  656   9.341   2.596   7.257  0.1573  0.8069  0.0203
32247SOL    HW1  657   9.291   2.557   7.329 -0.5684 -0.4547 -1.1119
32247SOL    HW2  658   9.302   2.558   7.179  0.4266  2.7290 -1.0957
32248SOL     OW  659   9.738   9.289   1.586  0.3126 -0.4478 -0.2753
32248SOL    HW1  660   9.720   9.195   1.587  0.1222 -0.4158 -0.5868
32248SOL    HW2  661   9.652   9.330   1.592  0.4800 -0.2804  1.5154
32249SOL     OW  662   7.006   9.403   8.137  0.3008  0.1605  0.1587
32249SOL    HW1  663   6.970   9.427   8.051 -1.2390 -0.7102  0.5273
32249SOL    HW2  664   7.086   9.354   8.117  0.2561  0.4388 -0.7579
32250SOL     OW  665   1.898   4.897   7.366  0.1689  0.0927 -0.2562
32250SOL    HW1  666   1.948   4.973   7.394  0.3625 -0.1124 -0.0469
32250SOL    HW2  667   1.939   4.870   7.284  0.2316  0.0877 -0.2231
32251SOL     OW  668   9.351   7.467   4.807 -0.2525  0.0233  0.0372
32251SOL    HW1  669   9.444   7.472   4.829 -0.0395  1.6344 -1.0933
32251SOL    HW2  670   9.339   7.534   4.740 -2.4047  0.4504  0.7827
32252SOL     OW  671   7.699   2.691   9.159  0.0582 -0.5041  0.7331
32252SOL    HW1  672   7.765   2.706   9.227 -1.1160 -0.4396  1.8995
32252SOL    HW2  673   7.687   2.777   9.119  0.6906 -0.5225  0.4884
32253SOL     OW  674   0.906   6.192   8.203  0.2354  0.4029 -0.2840
32253SOL    HW1  675   0.939   6.223   8.118 -2.4702  0.3980 -1.4524
32253SOL    HW2  676   0.920   6.266   8.263  2.4251  0.3159 -0.6005
32254SOL     OW  677   2.944   2.125   9.674 -0.1310  0.6024 -0.4749
32254SOL    HW1  678   2.997   2.053   9.708 -0.3201  1.2498  1.3013
32254SOL    HW2  679   2.998   2.164   9.605  0.6695 -0.2127 -0.3280
32255SOL     OW  680   6.453   8.370   6.684  0.0670  0.1831 -0.5175
32255SOL    HW1  681   6.483   8.373   6.593 -3.2440  1.9155 -1.7052
32255SOL    HW2  682   6.461   8.461   6.715 -2.5227  0.4708 -0.5050
32256SOL     OW  683   9.814   1.864   2.845  0.0235  0.1220 -0.5895
32256SOL    HW1  684   9.832   1.791   2.904 -0.0858 -0.1206 -0.8525
32256SOL    HW2  685   9.731   1.840   2.803 -0.7767  1.0881  0.4035
32257SOL     OW  686   7.587   6.849   8.098 -0.3102  0.3887 -0.0147
32257SOL    HW1  687   7.632   6.828   8.016  0.3861 -1.3795  0.7743
32257SOL    HW2  688   7.503   6.884   8.071 -0.8441 -1.8444 -1.5172
32258SOL     OW  689   8.135   0.522   3.939  0.5498 -0.2982  0.2238
32258SOL    HW1  690   8.121   0.447   3.996 -0.1791 -0.4232 -0.1098
32258SOL    HW2  691   8.229   0.538   3.943  0.7193 -1.2593  0.2632
32259SOL     OW  692   9.865   3.299   2.745  0.4466 -0.4496 -0.8247
32259SOL    HW1  693   9.953   3.262   2.755  0.3032 -0.2454  2.4694
32259SOL    HW2  694   9.806   3.226   2.762 -0.0712 -0.4531 -2.4430
32260SOL     OW  695   0.570   8.226   0.270 -0.0266  0.2128 -0.2257
32260SOL    HW1  696   0.531   8.271   0.195 -0.5879  2.2895  1.2296
32260SOL    HW2  697   0.496   8.194   0.321  0.1813  1.5959  1.0282
32261SOL     OW  698   1.733   1.830   7.363 -0.1677 -0.5471  0.0727
32261SOL    HW1  699   1.642   1.802   7.352 -0.7179  1.6940 -1.8949
32261SOL    HW2  700   1.785   1.757   7.327 -1.3503 -0.6850 -1.4706
32262SOL     OW  701   6.822   5.353   8.893 -0.5185 -0.0462  0.1133
32262SOL    HW1  702   6.852   5.441   8.868 -1.4307  0.4938  0.8389
32262SOL    HW2  703   6.773   5.322   8.817  1.8197 -0.9634 -1.1082
32263SOL     OW  704   4.719   2.979   2.586 -0.0453  0.2816  0.0096
32263SOL    HW1  705   4.680   3.059   2.621  0.5184  0.3395  0.5323
32263SOL    HW2  706   4.746   3.001   2.497  0.9752  0.9794  0.4687
32264SOL     OW  707   2.782   6.234   3.956  0.5823 -0.0690 -0.7670
32264SOL    HW1  708   2.867   6.267   3.986  0.6908 -0.2676 -0.8536
32264SOL    HW2  709   2.754   6.175   4.026  0.3053  0.3411 -0.5282
32265SOL     OW  710   4.324   7.788   5.877 -0.4892 -0.7602  0.2176
32265SOL    HW1  711   4.358   7.868   5.918 -0.3907  0.2867 -1.8158
32265SOL    HW2  712   4.354   7.718   5.935 -0.1523  0.6162  1.7911
32266SOL     OW  713   0.138   4.746   0.851 -0.3960 -0.7991  0.0298
32266SOL    HW1  714   0.210   4.743   0.788 -0.1875  0.5186  0.1701
32266SOL    HW2  715   0.059   4.755   0.797 -0.1728  0.8939 -0.0677
32267SOL     OW  716   2.686   5.667   5.288  0.4418 -0.5803  0.1127
32267SOL    HW1  717   2.594   5.692   5.285  1.0112  1.6166 -0.5502
32267SOL    HW2  718   2.693   5.594   5.226 -0.8236 -0.8131  0.2053
32268SOL     OW  719   0.355   8.411   1.425  0.7254 -0.2335 -0.1668
32268SOL    HW1  720   0.282   8.352   1.448  0.4100 -0.9011 -2.5900
32268SOL    HW2  721   0.390   8.374   1.344  1.6233  1.9714 -0.8391
32269SOL     OW  722   8.533   2.296   0.259 -0.0110  0.1570 -0.4855
32269SOL    HW1  723   8.584   2.264   0.333 -0.3439  0.1012 -0.2795
32269SOL    HW2  724   8.533   2.391   0.269  0.0410  0.1571 -0.4812
32270SOL     OW  725   7.634   9.796   7.502 -0.1126  0.4180  0.2030
32270SOL    HW1  726   7.727   9.814   7.486 -0.2409 -0.1438 -1.3333
32270SOL    HW2  727   7.626   9.795   7.597  1.0399  2.5206  0.3833
32271SOL     OW  728   8.164   9.870   5.135  0.4524  0.2797  0.1027
32271SOL    HW1  729   8.220   9.892   5.061  0.2390  0.2457 -0.0687
32271SOL    HW2  730   8.175   9.943   5.196  0.5075  0.3828 -0.0305
32272SOL     OW  731   4.193   5.929   1.345 -0.1609 -0.6575  0.1681
32272SOL    HW1  732   4.186   5.847   1.296  0.9688 -0.3468 -0.5337
32272SOL    HW2  733   4.286   5.948   1.347 -0.2404 -0.3132  1.9006
32273SOL     OW  734   2.079   6.548   1.691  0.4487  0.5733 -0.3868
32273SOL    HW1  735   2.020   6.609   1.735 -0.6287 -1.3482  1.0300
32273SOL    HW2  736   2.020   6.490   1.641  1.1062 -1.1046  0.6856
32274SOL     OW  737   6.119   8.928   4.244  0.0045  0.1565 -0.3224
32274SOL    HW1  738   6.168   8.979   4.308 -0.0625  2.6862 -2.1347
32274SOL    HW2  739   6.039   8.903   4.290  0.9108 -0.0366  1.2256
32275SOL     OW  740   1.379   9.778   1.993 -0.0440 -0.3434 -0.0951
32275SOL    HW1  741   1.330   9.858   2.013  0.7262  0.4779 -1.3079
32275SOL    HW2  742   1.414   9.749   2.077 -1.0632  0.1002  0.4898
32276SOL     OW  743   6.001   4.855   9.156  0.1099  0.4458 -0.4169
32276SOL    HW1  744   6.005   4.831   9.249  0.6811 -0.6410 -0.7066
32276SOL    HW2  745   6.084   4.826   9.120  0.2838  1.7304 -1.0866
32277SOL     OW  746   9.341   9.916   8.000 -0.2062  0.0253 -0.1347
32277SOL    HW1  747   9.424   9.867   8.001  0.6754  1.4721 -0.3011
32277SOL    HW2  748   9.337   9.959   8.085  0.3534  1.7762 -0.9585
32278SOL     OW  749   7.176   9.761   4.646 -0.0087  0.7265  0.1747
32278SOL    HW1  750   7.267   9.745   4.620 -0.4107 -0.7304 -0.4453
32278SOL    HW2  751   7.169   9.723   4.733 -0.1601  0.3278 -0.0089
32279SOL     OW  752   1.995   0.910   4.173 -0.1403 -0.4567  0.4879
32279SOL    HW1  753   2.045   0.884   4.250 -0.5964  0.1300  0.9918
32279SOL    HW2  754   2.057   0.905   4.101  0.3395 -0.8363  0.9165
32280SOL     OW  755   1.853   0.558   7.711 -0.1364  0.3530  0.0816
32280SOL    HW1  756   1.892   0.520   7.789 -0.2208  1.7423  0.8240
32280SOL    HW2  757   1.924   0.607   7.670  0.1013 -0.9361 -1.1354
32281SOL     OW  758   8.986   8.600   9.505  0.3372  0.1393  0.3780
32281SOL    HW1  759   8.891   8.610   9.510  0.1455 -1.3559  0.1302
32281SOL    HW2  760   9.020   8.655   9.576 -0.7911 -0.2186  1.2165
32282SOL     OW  761   5.956   7.382   6.947  0.4946  0.1747  0.2612
32282SOL    HW1  762   6.025   7.332   6.903 -0.4545  0.6532 -1.9521
32282SOL    HW2  763   5.999   7.421   7.023  1.1691 -4.2755  2.4397
32283SOL     OW  764   9.450   2.716   8.273 -0.1509  0.1386  0.2154
32283SOL    HW1  765   9.482   2.789   8.325 -0.7099  1.4437 -1.1779
32283SOL    HW2  766   9.435   2.753   8.186 -2.7316 -1.0459  0.0524
32284SOL     OW  767   3.951   1.396   7.466  0.7617  0.0866 -0.0672
32284SOL    HW1  768   3.999   1.475   7.443 -1.2879  1.2072 -0.8033
32284SOL    HW2  769   3.891   1.382   7.392 -1.1306 -0.2682  1.4402
32285SOL     OW  770   9.827   2.680   2.140 -0.1248  0.1244  0.3195
32285SOL    HW1  771   9.735   2.703   2.159  0.0014  0.1962  0.8646
32285SOL    HW2  772   9.874   2.763   2.148 -0.0027  0.0817  0.0673
32286SOL     OW  773   0.160   7.499   9.906 -0.3696  0.3720  0.4148
32286SOL    HW1  774   0.133   7.589   9.921 -1.2496  0.3359 -0.8336
32286SOL    HW2  775   0.256   7.502   9.911 -0.4263  0.9524  2.4620
32287SOL     OW  776   6.646   8.999   4.865  0.3421 -0.1175  0.5308
32287SOL    HW1  777   6.567   8.999   4.812 -0.0428 -0.0400  1.1011
32287SOL    HW2  778   6.716   9.019   4.803 -0.2984  1.7074  0.3475
32288SOL     OW  779   2.238   5.846   9.105  0.5515  0.3384 -0.0276
32288SOL    HW1  780   2.201   5.927   9.139  1.0728 -0.1214  1.6978
32288SOL    HW2  781   2.167   5.782   9.111  1.5875 -0.6520  3.6758
32289SOL     OW  782   4.762   1.816   0.837  0.0837  0.0981 -0.0930
32289SOL    HW1  783   4.714   1.775   0.765  0.0877  2.2180 -1.3746
32289SOL    HW2  784   4.838   1.759   0.850 -1.3824 -1.9190  0.2643
32290SOL     OW  785   1.661   7.491   1.458 -0.3444  0.3560 -0.0073
32290SOL    HW1  786   1.746   7.519   1.493 -0.7393  2.1005 -0.3614
32290SOL    HW2  787   1.673   7.399   1.437  1.5599  0.6270 -0.2839
32291SOL     OW  788   2.904   6.015   0.584 -0.6657 -1.0366 -0.7796
32291SOL    HW1  789   2.980   6.031   0.527 -0.5829  0.8099 -0.2218
32291SOL    HW2  790   2.938   5.963   0.656  0.6277  1.3720  0.4888
32292SOL     OW  791   0.620   3.412   7.317  0.2982  0.2376  0.1369
32292SOL    HW1  792   0.697   3.415   7.259  0.0394  0.5217 -0.1990
32292SOL    HW2  793   0.653   3.375   7.399  0.3366 -1.8081 -0.7309
32293SOL     OW  794   7.978   7.737  10.111 -0.2583  0.0283  0.3919
32293SOL    HW1  795   8.012   7.808  10.057  0.7725 -0.0094  0.9714
32293SOL    HW2  796   7.899   7.708  10.066 -0.4251  1.2171 -0.1072
32294SOL     OW  797   8.471   3.768   1.694 -0.0524  0.0333 -0.6078
32294SOL    HW1  798   8.430   3.689   1.728 -2.0804  1.1294 -0.3591
32294SOL    HW2  799   8.443   3.773   1.603 -2.4642  1.9417  0.1414
32295SOL     OW  800   5.950   0.641   4.240 -0.1442 -0.2005  0.1117
32295SOL    HW1  801   6.021   0.579   4.259  1.4617  1.6977  0.6624
32295SOL    HW2  802   5.966   0.670   4.151  0.0386  0.5480  0.3801
32296SOL     OW  803   6.090   0.339   7.050 -0.1384 -0.1582 -0.1024
32296SOL    HW1  804   6.078   0.247   7.028 -0.2207 -0.4419  1.0847
32296SOL    HW2  805   6.125   0.378   6.970  1.4094 -1.5200 -0.1312
32297SOL     OW  806   0.126   7.740   9.321 -0.3132  0.0046 -0.0068
32297SOL    HW1  807   0.059   7.688   9.277  0.3554 -0.7773 -0.1300
32297SOL    HW2  808   0.174   7.677   9.375  0.3537  0.5387  0.0442
32298SOL     OW  809   5.490   6.336   0.097 -0.6853 -0.3674 -0.1824
32298SOL    HW1  810   5.433   6.267   0.065 -0.1503 -0.8568 -0.1044
32298SOL    HW2  811   5.579   6.306   0.077 -0.4816  0.9803 -1.5237
32299SOL     OW  812   2.795   8.833   0.757 -0.6594  0.5124 -0.0902
32299SOL    HW1  813   2.855   8.865   0.690 -0.9560  1.8728  0.2603
32299SOL    HW2  814   2.708   8.841   0.717 -0.7756  0.6335  0.1805
32300SOL     OW  815   5.707   4.791   9.409  0.2677 -0.1284  0.0653
32300SOL    HW1  816   5.704   4.884   9.386 -0.5624 -0.0864  0.3028
32300SOL    HW2  817   5.730   4.791   9.502 -0.7921 -0.1006  0.3434
32301SOL     OW  818   0.925   4.127   9.799 -0.1756  0.0314 -0.0410
32301SOL    HW1  819   0.856   4.088   9.852  0.8701 -0.3503  1.0905
32301SOL    HW2  820   0.928   4.073   9.720  0.0549 -1.0940  0.7159
32302SOL     OW  821   2.767   8.594   1.717  0.1874 -0.6711  0.5358
32302SOL    HW1  822   2.699   8.646   1.674 -0.0909 -0.9667  0.6102
32302SOL    HW2  823   2.760   8.507   1.677  0.5410 -0.6952  0.5246
32303SOL     OW  824   7.060   6.944   3.710  0.0466 -0.3838  0.1753
32303SOL    HW1  825   7.050   7.015   3.773 -1.6816  0.0429 -0.5477
32303SOL    HW2  826   7.108   6.982   3.637  0.2559 -0.3200  0.3464
32304SOL     OW  827   6.339   4.796   0.648  0.5984 -0.5607  0.1183
32304SOL    HW1  828   6.258   4.824   0.604 -0.2145 -1.6723  0.8448
32304SOL    HW2  829   6.359   4.712   0.609  1.6807 -0.0936 -0.3658
32305SOL     OW  830   8.841   7.031   6.449 -0.0114  0.2364 -0.9949
32305SOL    HW1  831   8.831   7.126   6.452 -0.2133  0.2306 -1.3963
32305SOL    HW2  832   8.936   7.016   6.450  0.0454  0.4808 -1.8133
32306SOL     OW  833   5.559   8.958   4.412  0.0976  0.4137  0.2961
32306SOL    HW1  834   5.535   8.931   4.323  0.0598 -0.0535  0.4453
32306SOL    HW2  835   5.491   8.921   4.467 -0.1121  1.0656  0.4792
32307SOL     OW  836   5.068   5.195   6.918  0.3221 -0.0609  0.0291
32307SOL    HW1  837   5.044   5.189   6.825 -0.7033 -2.9935  0.3773
32307SOL    HW2  838   5.160   5.166   6.921 -0.0004 -1.1265  0.0208
32308SOL     OW  839   7.007   9.046   6.864 -0.1264  0.0650 -0.2267
32308SOL    HW1  840   7.039   8.956   6.873 -0.7714 -0.0391  1.2186
32308SOL    HW2  841   6.912   9.038   6.867 -0.1790  0.8623  0.7939
32309SOL     OW  842   9.560   1.034   0.882 -0.0869  0.1144  0.0684
32309SOL    HW1  843   9.532   1.095   0.815 -0.3084 -0.6652 -0.5660
32309SOL    HW2  844   9.564   1.086   0.962  2.3262  1.6290 -0.9102
32310SOL     OW  845   9.236  10.046   7.287  0.1740  0.0665 -0.4020
32310SOL    HW1  846   9.189  10.025   7.368  0.3967  0.5734 -0.1335
32310SOL    HW2  847   9.168  10.068   7.224  0.0580  1.3416  0.1422
32311SOL     OW  848   4.779   2.593   4.329 -0.2560  0.1419  0.1883
32311SOL    HW1  849   4.737   2.674   4.358  0.0321  0.1801  0.5045
32311SOL    HW2  850   4.752   2.529   4.396 -0.7428 -0.0978 -0.2306
32312SOL     OW  851   0.606   7.609   5.617  0.0119  0.2774 -0.0498
32312SOL    HW1  852   0.687   7.659   5.627  0.2300  0.2553 -1.4777
32312SOL    HW2  853   0.598   7.559   5.698  1.1652  0.6670  0.3139
32313SOL     OW  854   4.571   9.017   5.244  0.0876 -0.1787  0.6772
32313SOL    HW1  855   4.540   9.060   5.165  0.8898 -0.4910  0.1788
32313SOL    HW2  856   4.512   8.942   5.255  0.1228 -0.2752  0.2324
32314SOL     OW  857   8.073   3.282  10.021  0.1259  0.5229 -0.1272
32314SOL    HW1  858   8.102   3.207   9.968 -2.2117 -0.6524  0.1181
32314SOL    HW2  859   8.123   3.275  10.102 -1.4464 -2.0953  0.7496
32315SOL     OW  860   7.356   7.024   6.628 -0.1878 -0.0047 -0.0345
32315SOL    HW1  861   7.347   7.052   6.719  0.9869  0.5762 -0.0706
32315SOL    HW2  862   7.353   6.929   6.631 -1.1051  0.0293  0.4857
32316SOL     OW  863  10.172   7.181   8.607 -0.7794  0.4564 -0.0399
32316SOL    HW1  864  10.076   7.178   8.610 -0.8634 -0.4511 -2.0060
32316SOL    HW2  865  10.192   7.240   8.534  0.1801  0.7599  0.4518
32317SOL     OW  866   7.570   4.882   4.782  0.1525 -0.2110 -0.1293
32317SOL    HW1  867   7.651   4.845   4.816 -0.5731 -0.6127  1.2730
32317SOL    HW2  868   7.564   4.968   4.825  0.3802  0.2942 -1.0920
32318SOL     OW  869   1.920   1.456   0.533  0.1744 -0.3705 -0.0696
32318SOL    HW1  870   2.011   1.428   0.540  0.1858 -0.3234 -0.0343
32318SOL    HW2  871   1.876   1.414   0.607  0.1577 -0.4324 -0.1145
32319SOL     OW  872   2.736   3.641   2.990  0.4400 -0.0630  0.3140
32319SOL    HW1  873   2.761   3.558   3.031 -0.1493 -0.0407  0.7312
32319SOL    HW2  874   2.751   3.627   2.897  1.4601 -0.2372  0.4913
32320SOL     OW  875   4.310   7.170   8.710  0.0142 -0.2103  0.0444
32320SOL    HW1  876   4.378   7.211   8.656  0.2255 -0.1038  0.3909
32320SOL    HW2  877   4.316   7.214   8.795 -0.3827 -0.3086  0.1282
32321SOL     OW  878   6.019   0.902   1.721 -0.3592  0.2207 -0.4739
32321SOL    HW1  879   6.107   0.868   1.706 -1.5706 -3.6181  0.0779
32321SOL    HW2  880   6.021   0.934   1.811  0.1624 -1.1066  0.0090
32322SOL     OW  881   8.298   7.653   8.531  0.1804 -0.2874 -0.1252
32322SOL    HW1  882   8.309   7.723   8.466 -0.8119 -0.4753 -0.5161
32322SOL    HW2  883   8.359   7.676   8.601  0.7287  0.3253 -0.7842
32323SOL     OW  884   8.193   4.722   4.945  0.3673  0.1671 -0.1369
32323SOL    HW1  885   8.265   4.779   4.971 -1.2361  1.5849  1.4368
32323SOL    HW2  886   8.142   4.774   4.883  1.1546 -1.1936 -2.0336
32324SOL     OW  887   0.950   5.695   9.320  0.0804  0.1095  0.9748
32324SOL    HW1  888   0.956   5.644   9.401  0.9677 -0.5117  0.5289
32324SOL    HW2  889   0.972   5.784   9.347  1.5584 -0.3073  1.2158
32325SOL     OW  890   7.661   8.427   6.829  0.5721  0.2943 -0.2983
32325SOL    HW1  891   7.577   8.448   6.870  1.4060  1.5443  0.8703
32325SOL    HW2  892   7.659   8.332   6.816 -0.8565  0.2589  0.0568
32326SOL     OW  893   0.271   4.172   1.429  0.2441  0.1087  0.0028
32326SOL    HW1  894   0.284   4.186   1.523  0.3109  0.5436 -0.0651
32326SOL    HW2  895   0.217   4.094   1.423 -0.6720  0.6957  0.4471
32327SOL     OW  896   9.894   8.937   2.712  0.1655 -0.3176  0.3031
32327SOL    HW1  897   9.985   8.916   2.689  0.1324 -0.1757  0.0389
32327SOL    HW2  898   9.901   9.009   2.774  0.2480 -0.5643  0.5827
32328SOL     OW  899   0.132   2.457   2.412  0.0227 -0.4214 -0.1835
32328SOL    HW1  900   0.195   2.394   2.446 -2.4007 -1.6729  2.5088
32328SOL    HW2  901   0.149   2.537   2.460  0.2507 -0.4173 -0.2710
32329SOL     OW  902   5.706   8.252   3.036  0.2342 -0.3590  0.5160
32329SOL    HW1  903   5.733   8.342   3.022  1.9365 -0.9351 -0.1148
32329SOL    HW2  904   5.668   8.224   2.953  1.3354 -0.7525  0.1320
32330SOL     OW  905  10.028   0.650   7.510 -0.0475 -0.0250  0.0240
32330SOL    HW1  906   9.995   0.739   7.524 -3.5252 -0.7017 -2.4499
32330SOL    HW2  907   9.957   0.593   7.541  1.0850 -1.8602 -0.5965
32331SOL     OW  908   6.191   3.243   2.666  0.3741 -0.3970 -0.0416
32331SOL    HW1  909   6.105   3.274   2.695  0.2155 -1.2767  0.4565
32331SOL    HW2  910   6.194   3.264   2.573 -0.2161  0.0075  0.0227
32332SOL     OW  911   9.235   7.696   6.124 -0.0896  0.0183 -0.1186
32332SOL    HW1  912   9.176   7.663   6.056  0.4354  0.1966 -0.6651
32332SOL    HW2  913   9.195   7.667   6.206 -0.4917 -0.5825 -0.5201
32333SOL     OW  914   5.511   1.628   4.531 -0.1164  0.0947  0.1202
32333SOL    HW1  915   5.449   1.573   4.482 -0.1211 -1.3890  1.7016
32333SOL    HW2  916   5.456   1.693   4.574 -0.5255 -0.7699  0.9348
32334SOL     OW  917   4.722   7.459   3.473 -0.0920 -0.3897  0.3047
32334SOL    HW1  918   4.640   7.458   3.521 -0.4031  1.0981 -0.1522
32334SOL    HW2  919   4.776   7.524   3.518 -0.1275  0.5085 -0.9058
32335SOL     OW  920   2.815   1.454   3.496 -0.0214  0.0553  0.4552
32335SOL    HW1  921   2.721   1.469   3.504  0.0380  0.2051  0.9231
32335SOL    HW2  922   2.829   1.438   3.403 -0.5187 -0.0345  0.3928
32336SOL     OW  923   4.304   7.214   1.634 -0.4414  0.3543  0.0270
32336SOL    HW1  924   4.363   7.283   1.665  0.5135  1.1241 -3.1529
32336SOL    HW2  925   4.217   7.252   1.642 -0.0611  1.2693 -0.0335
32337SOL     OW  926   7.757   2.469   4.099 -0.1371 -0.1853  0.2429
32337SOL    HW1  927   7.843   2.492   4.136  0.1893 -0.9430 -0.0085
32337SOL    HW2  928   7.761   2.499   4.008  0.1849 -0.9362 -0.0055
32338SOL     OW  929   2.800   0.202   1.443 -0.4345 -0.1438  0.0637
32338SOL    HW1  930   2.786   0.108   1.447 -1.4797 -0.1132 -1.8277
32338SOL    HW2  931   2.805   0.222   1.350 -1.5475  1.8430  0.3726
32339SOL     OW  932   0.574   4.663   9.857 -0.6239 -0.1397 -0.6697
32339SOL    HW1  933   0.632   4.677   9.931  0.5083  1.0090 -1.7355
32339SOL    HW2  934   0.605   4.583   9.817 -1.7960 -1.2631  0.5546
32340SOL     OW  935   5.340   2.204  10.060 -0.3767 -0.6983 -0.4554
32340SOL    HW1  936   5.268   2.141  10.052  0.1340 -1.3219 -0.2144
32340SOL    HW2  937   5.296   2.290  10.065 -1.2637 -1.2056  2.0440
32341SOL     OW  938   5.383   3.773   6.870  0.3240 -0.2986 -0.5543
32341SOL    HW1  939   5.443   3.721   6.922  0.2036 -1.8622 -1.8987
32341SOL    HW2  940   5.418   3.770   6.781 -0.1835  1.1905 -0.8420
32342SOL     OW  941   4.523   3.070   3.028  0.1139 -0.2326 -0.4250
32342SOL    HW1  942   4.508   3.139   3.093  0.2978  0.1461 -0.7806
32342SOL    HW2  943   4.612   3.039   3.045 -0.1809 -0.8097  0.1253
32343SOL     OW  944   8.724   8.201   3.948 -0.2234 -0.3297 -0.3694
32343SOL    HW1  945   8.718   8.128   3.886 -2.4019  0.2049 -0.8587
32343SOL    HW2  946   8.700   8.163   4.033  1.9557 -0.8731  0.0751
32344SOL     OW  947   4.291   8.011   0.966  0.1119  0.7557 -0.3118
32344SOL    HW1  948   4.332   8.060   0.895  0.1423  0.3074 -0.6049
32344SOL    HW2  949   4.329   8.049   1.046  1.3736  0.1125 -0.5814
32345SOL     OW  950  10.025   4.982   0.299  0.0914  0.2857 -0.6481
32345SOL    HW1  951  10.029   4.897   0.255  1.3988  0.1500 -0.3169
32345SOL    HW2  952  10.076   5.040   0.243  0.7944  0.3863  0.0807
32346SOL     OW  953   6.803   4.079   1.080  0.0126  0.5976 -0.3850
32346SOL    HW1  954   6.792   4.050   1.170 -1.4873  1.2073 -0.3573
32346SOL    HW2  955   6.890   4.120   1.078 -0.1684  1.0688  0.9045
32347SOL     OW  956   9.704   6.142   1.330  0.5492 -0.2833 -0.4710
32347SOL    HW1  957   9.711   6.061   1.381 -0.7780 -0.5756 -0.6946
32347SOL    HW2  958   9.621   6.181   1.359  0.1956 -0.0197 -1.7769
32348SOL     OW  959   2.082   4.925   3.338 -0.2618 -0.0205 -0.3615
32348SOL    HW1  960   2.139   4.894   3.267 -0.6988 -0.3734 -0.5670
32348SOL    HW2  961   2.133   4.910   3.418 -0.0107 -0.2090 -0.5517
32349SOL     OW  962   8.427   8.077   8.887 -0.2120  0.2062 -0.6435
32349SOL    HW1  963   8.470   8.018   8.825 -1.2669 -1.6105  0.2551
32349SOL    HW2  964   8.406   8.022   8.962 -1.1054  1.7854  0.3320
32350SOL     OW  965   7.292   8.875   0.071 -0.2263  0.2222  0.2664
32350SOL    HW1  966   7.213   8.906   0.027  0.4873  0.5902 -0.7899
32350SOL    HW2  967   7.318   8.947   0.128 -0.9040 -0.0842  0.9808
32351SOL     OW  968   1.366   3.904  10.045  0.5197  0.4934  0.0555
32351SOL    HW1  969   1.318   3.973  10.091  0.4644  0.6612 -0.2558
32351SOL    HW2  970   1.434   3.950   9.996  0.6917  0.2975  0.1082
32352SOL     OW  971   1.767   4.647   3.297  0.2987 -0.0496  0.4264
32352SOL    HW1  972   1.766   4.558   3.333  0.7292  0.0202  0.6071
32352SOL    HW2  973   1.814   4.639   3.214  0.8082  0.1127  0.7017
32353SOL     OW  974   6.289   2.873   8.680  0.5105 -0.1421  0.1342
32353SOL    HW1  975   6.370   2.887   8.630  0.6271 -0.3619  0.2598
32353SOL    HW2  976   6.219   2.896   8.619  0.6243 -1.1930 -0.4013
32354SOL     OW  977   8.804   9.690   7.142 -0.1604  0.1241 -0.3360
32354SOL    HW1  978   8.870   9.622   7.129  0.4457  0.3892  1.1267
32354SOL    HW2  979   8.753   9.660   7.217  1.0846  1.9289  1.3442
32355SOL     OW  980   4.959   6.426   7.613  0.0409  0.2441  0.4954
32355SOL    HW1  981   4.890   6.451   7.674  0.4073 -1.7907  1.8123
32355SOL    HW2  982   4.922   6.444   7.526 -1.8739 -0.1740  1.1873
32356SOL     OW  983   1.407   0.126   6.498  0.0487  0.0398  0.3862
32356SOL    HW1  984   1.400   0.142   6.404 -0.0245 -0.8582  0.2313
32356SOL    HW2  985   1.484   0.070   6.508  0.2734  0.4329  0.9032
32357SOL     OW  986   9.877   0.290   9.496  0.6207  0.1906  0.2273
32357SOL    HW1  987   9.865   0.355   9.565  0.0555  3.3638 -2.5568
32357SOL    HW2  988   9.792   0.247   9.487  0.7195 -0.2959  1.4831
32358SOL     OW  989   1.287   5.785   9.917  0.3039 -0.0838 -0.0506
32358SOL    HW1  990   1.271   5.878   9.905 -1.0271  0.0207  2.0037
32358SOL    HW2  991   1.380   5.774   9.897  0.5336  1.7136 -0.1260
32359SOL     OW  992   3.028   7.881   5.323  0.3640 -0.1671 -0.1800
32359SOL    HW1  993   2.936   7.905   5.332  0.5117  0.0969  0.8717
32359SOL    HW2  994   3.029   7.811   5.258 -0.7731 -1.2948  0.9570
32360SOL     OW  995   4.635   8.811   4.704 -0.0721  0.2548 -0.1611
32360SOL    HW1  996   4.669   8.793   4.792  0.5032  1.5027 -0.1055
32360SOL    HW2  997   4.546   8.840   4.719 -0.2089 -0.1990 -0.0599
32361SOL     OW  998   4.099   6.540   1.950  0.2483 -0.2124 -0.1101
32361SOL    HW1  999   4.097   6.634   1.933  1.1130 -0.0921  0.3681
32361SOL    HW2 1000   4.153   6.504   1.879  1.7853 -0.0348  0.9205
32362SOL     OW 1001   2.292   9.451   4.800 -0.0801 -0.4544 -0.3802
32362SOL    HW1 1002   2.332   9.494   4.876 -1.2478  1.6522 -0.8980
32362SOL    HW2 1003   2.303   9.513   4.729  1.5568 -2.6440 -2.1930
32363SOL     OW 1004   5.956   2.985   1.680  0.0451 -0.0214 -0.2291
32363SOL    HW1 1005   5.955   3.077   1.709 -1.2402  0.4763 -1.7254
32363SOL    HW2 1006   6.000   2.987   1.595 -1.4180 -0.4970 -1.0425
32364SOL     OW 1007   0.765   6.861   4.166 -0.3634 -0.0715 -0.2906
32364SOL    HW1 1008   0.677   6.825   4.181 -0.8149  0.6926 -1.0251
32364SOL    HW2 1009   0.822   6.805   4.217 -1.4422  0.4120  1.5334
32365SOL     OW 1010   3.544   0.810   8.325  0.4070  0.4992  0.6483
32365SOL    HW1 1011   3.537   0.891   8.377  0.3662  0.7068  0.3237
32365SOL    HW2 1012   3.598   0.835   8.250 -1.2572  0.7740 -0.5156
32366SOL     OW 1013   2.411   5.571   5.181 -0.5516 -0.8266 -0.1729
32366SOL    HW1 1014   2.340   5.594   5.240 -1.3151  0.4602 -1.5311
32366SOL    HW2 1015   2.368   5.528   5.107  0.1432 -0.6096 -0.7147
32367SOL     OW 1016  10.034   9.011   8.528  0.0797 -0.5651  0.1147
32367SOL    HW1 1017  10.086   9.045   8.601 -2.3188 -0.3765  1.8182
32367SOL    HW2 1018  10.018   9.088   8.473 -1.6757  0.2711  1.6922
32368SOL     OW 1019   8.402   9.415   5.696  0.7770  0.2718 -0.1230
32368SOL    HW1 1020   8.429   9.329   5.663  1.1035  0.5755 -0.6646
32368SOL    HW2 1021   8.456   9.477   5.647  0.2531  0.8056 -0.0296
32369SOL     OW 1022   9.352   6.942  10.145 -0.0519  0.1160  0.0428
32369SOL    HW1 1023   9.436   6.955  10.101  0.2339  1.5636  0.9528
32369SOL    HW2 1024   9.289   6.989  10.090 -0.3402 -1.1967 -0.7856
32370SOL     OW 1025   4.489   6.896   9.771 -0.4188 -0.6364 -0.2348
32370SOL    HW1 1026   4.506   6.850   9.689 -0.3532  1.7876 -1.6991
32370SOL    HW2 1027   4.408   6.945   9.754 -0.1022  0.3378  0.9362
32371SOL     OW 1028   6.641   9.320   0.502  0.1225  0.1366 -0.1401
32371SOL    HW1 1029   6.675   9.230   0.508  1.0091  0.4660 -0.0723
32371SOL    HW2 1030   6.616   9.341   0.592  1.4945  0.5377  0.1797
32372SOL     OW 1031   9.537   1.509   2.076  0.3075  0.6765  0.0672
32372SOL    HW1 1032   9.487   1.482   2.153 -0.3386  3.3648  0.7163
32372SOL    HW2 1033   9.486   1.477   2.002 -0.4762  0.2899  0.7547
32373SOL     OW 1034   2.522   0.536   1.370  0.1799  0.3621 -0.4508
32373SOL    HW1 1035   2.459   0.517   1.439  0.7961 -0.6676 -0.1382
32373SOL    HW2 1036   2.532   0.453   1.323  0.2484  0.8820 -1.3814
32374SOL     OW 1037   9.678  10.033   4.043  0.6365 -0.4204  0.0985
32374SOL    HW1 1038   9.692  10.109   4.099  0.9504 -0.8624  0.6204
32374SOL    HW2 1039   9.687   9.958   4.101  0.6882 -0.8724 -0.4858
32375SOL     OW 1040   2.619   5.024   6.221  0.2905 -0.7265  0.0337
32375SOL    HW1 1041   2.551   5.091   6.220  2.3511  1.4878 -0.8820
32375SOL    HW2 1042   2.586   4.954   6.165 -0.6845  0.8932 -1.4839
32376SOL     OW 1043   1.061   9.698   3.551  0.2531 -0.0599  0.1701
32376SOL    HW1 1044   1.110   9.702   3.469 -1.3994  0.1219 -0.8481
32376SOL    HW2 1045   0.972   9.722   3.527 -0.0197  1.2506  2.2597
32377SOL     OW 1046   6.025   0.946   0.291 -0.3950  0.3370 -0.1420
32377SOL    HW1 1047   6.018   1.008   0.364  1.7060  0.4381  0.0288
32377SOL    HW2 1048   6.082   0.877   0.323 -2.4246 -1.5837 -0.4588
32378SOL     OW 1049   1.795   1.131   8.464  0.5912 -0.4267  0.0952
32378SOL    HW1 1050   1.746   1.159   8.542 -0.6239 -0.4156 -0.6322
32378SOL    HW2 1051   1.861   1.199   8.452  0.7876 -0.4231  1.1102
32379SOL     OW 1052   4.769   5.200   7.716 -0.2790  0.6591 -0.1901
32379SOL    HW1 1053   4.831   5.232   7.781  1.2092  1.6272 -1.9955
32379SOL    HW2 1054   4.810   5.219   7.632 -1.6447 -1.4687 -1.4442
32380SOL     OW 1055   1.302   6.272   4.330  0.8965 -0.4137  0.1912
32380SOL    HW1 1056   1.224   6.261   4.275  1.3315 -0.5512 -0.4152
32380SOL    HW2 1057   1.358   6.198   4.306  1.2849 -0.2155  0.4923
32381SOL     OW 1058   1.639   8.869   1.532 -0.1875 -0.0876 -0.0551
32381SOL    HW1 1059   1.654   8.783   1.572  0.1655 -0.3178 -0.6589
32381SOL    HW2 1060   1.697   8.928   1.579 -1.5349  0.1417  1.3966
32382SOL     OW 1061   2.401   2.920   1.507  0.1964  0.1325 -0.0064
32382SOL    HW1 1062   2.358   2.885   1.586  0.0403  1.3276  0.4601
32382SOL    HW2 1063   2.485   2.954   1.538  0.4168  0.0324 -0.4808
32383SOL     OW 1064   8.980   3.886   0.491 -0.5207 -0.2299 -0.3927
32383SOL    HW1 1065   9.029   3.945   0.548  0.2602 -0.1048 -1.1713
32383SOL    HW2 1066   8.888   3.903   0.512 -0.2497 -0.5468  1.1783
32384SOL     OW 1067   1.437   4.963   6.466 -0.1268  0.9122  0.2353
32384SOL    HW1 1068   1.420   4.999   6.379  2.4905  0.2684 -0.6518
32384SOL    HW2 1069   1.499   4.891   6.451  0.0770  0.4867  2.5959
32385SOL     OW 1070   4.160   4.897   2.611 -0.0232 -0.2040  0.2101
32385SOL    HW1 1071   4.251   4.892   2.639 -0.3535 -0.5699  1.2596
32385SOL    HW2 1072   4.110   4.860   2.684 -1.1016  0.9966  0.1280
32386SOL     OW 1073   8.206   2.026   7.938  0.2567 -0.0569 -0.5801
32386SOL    HW1 1074   8.255   1.947   7.960 -0.9905 -0.1662  2.1943
32386SOL    HW2 1075   8.261   2.098   7.970 -0.2985 -0.0520  0.3985
32387SOL     OW 1076   2.458   7.608   7.302 -0.8838  0.0921 -0.3893
32387SOL    HW1 1077   2.402   7.603   7.225 -0.0957 -2.0854 -0.8765
32387SOL    HW2 1078   2.536   7.654   7.272 -0.4890 -0.9397 -0.9469
32388SOL     OW 1079   9.447   2.983   4.034 -0.4509 -0.0358  0.5918
32388SOL    HW1 1080   9.446   2.892   4.062  0.5884  0.3411  1.9530
32388SOL    HW2 1081   9.392   2.985   3.956 -2.3538 -1.3994  1.8135
32389SOL     OW 1082   2.729   4.485   1.846 -0.2315  0.0520 -0.5779
32389SOL    HW1 1083   2.728   4.416   1.912  0.6559 -0.0626 -0.6609
32389SOL    HW2 1084   2.739   4.566   1.896  1.5929 -0.1189 -0.5818
32390SOL     OW 1085   6.537   5.250   3.718  0.3882  0.2606  0.4324
32390SOL    HW1 1086   6.476   5.323   3.728 -1.7074 -1.3249 -0.1660
32390SOL    HW2 1087   6.591   5.275   3.642 -0.2823  1.1805  0.2366
32391SOL     OW 1088   6.261   6.777   8.031  0.4209  1.1188 -0.4355
32391SOL    HW1 1089   6.277   6.727   7.951 -0.1247  2.1059 -1.1965
32391SOL    HW2 1090   6.201   6.722   8.082  0.7784  0.4741 -0.6962
32392SOL     OW 1091   7.520   2.914   2.501 -0.8703  0.0720 -0.3975
32392SOL    HW1 1092   7.460   2.872   2.440  0.2528 -1.0134 -0.7923
32392SOL    HW2 1093   7.549   2.844   2.559 -0.1694  0.6158 -0.0679
32393SOL     OW 1094   3.008  10.168   9.060 -0.1492 -0.6174  0.4048
32393SOL    HW1 1095   2.999  10.159   8.965  1.3018  0.0217  0.1790
32393SOL    HW2 1096   2.927  10.213   9.087 -1.0869 -1.8025 -0.3441
32394SOL     OW 1097   1.329   4.095   7.292 -0.2250  0.4722  0.0811
32394SOL    HW1 1098   1.235   4.106   7.278 -0.4864  0.8196  1.7960
32394SOL    HW2 1099   1.369   4.172   7.252 -0.6088  0.0289 -1.1702
32395SOL     OW 1100   9.308   1.996   7.698  0.4034  0.2586  0.5489
32395SOL    HW1 1101   9.349   1.926   7.748  1.2645  0.1199 -0.3205
32395SOL    HW2 1102   9.214   1.982   7.709  0.5465 -1.3975 -0.0864
32396SOL     OW 1103   6.779   8.915   4.510 -0.4319  0.2224  0.1675
32396SOL    HW1 1104   6.697   8.868   4.495 -0.2729 -0.3869  1.1167
32396SOL    HW2 1105   6.846   8.846   4.514 -0.1951  0.5068  1.5632
32397SOL     OW 1106   3.211   0.761   7.825 -0.1200 -0.1066  0.4279
32397SOL    HW1 1107   3.208   0.818   7.749 -2.7562 -0.1047  0.4498
32397SOL    HW2 1108   3.305   0.749   7.843  0.5229  1.6159 -1.4749
32398SOL     OW 1109   4.221   5.970   0.479  0.5625 -0.2742  0.1755
32398SOL    HW1 1110   4.191   5.880   0.490 -1.1514  0.2685  0.1107
32398SOL    HW2 1111   4.203   5.990   0.387 -0.6762  0.6833  0.6011
32399SOL     OW 1112   6.643   3.758   5.868 -0.0318 -0.0983  0.1236
32399SOL    HW1 1113   6.661   3.727   5.957  1.1936  0.6352  0.1483
32399SOL    HW2 1114   6.671   3.849   5.868 -0.2392 -0.0241 -0.9628
32400SOL     OW 1115   7.346   8.452   4.534  0.6740  0.1263 -0.3971
32400SOL    HW1 1116   7.384   8.364   4.528 -0.5820 -0.5837  1.3637
32400SOL    HW2 1117   7.311   8.469   4.446  2.3885 -0.4074 -1.2234
32401SOL     OW 1118   2.826   8.998   4.874 -0.5434  0.2530 -0.4428
32401SOL    HW1 1119   2.744   8.968   4.914 -0.3882  0.0556 -0.2715
32401SOL    HW2 1120   2.813   8.984   4.781 -0.1943 -1.0608 -0.3165
32402SOL     OW 1121   6.347   6.083   8.846  0.3649  0.4494 -0.5936
32402SOL    HW1 1122   6.354   5.990   8.825  0.6541  0.4667 -0.5788
32402SOL    HW2 1123   6.254   6.098   8.861  0.3903  0.0360 -0.0046
32403SOL     OW 1124   7.600   8.358   8.521  0.4353 -0.0676 -0.1861
32403SOL    HW1 1125   7.620   8.432   8.578  0.3001 -0.5029  0.4523
32403SOL    HW2 1126   7.562   8.397   8.443 -0.0707  0.5141  0.3367
32404SOL     OW 1127   0.220   7.049   0.293 -0.2199  0.2397  0.5726
32404SOL    HW1 1128   0.257   7.000   0.220  1.8087  0.5433  1.3454
32404SOL    HW2 1129   0.126   7.035   0.285  0.0036 -0.4418 -1.5787
32405SOL     OW 1130   7.064   6.071   3.379  0.5219  0.2740 -0.0807
32405SOL    HW1 1131   7.147   6.039   3.344  0.8937 -0.2668  1.2429
32405SOL    HW2 1132   7.002   6.000   3.363  0.7916 -0.1479  0.7371
32406SOL     OW 1133   2.633   8.284   7.348 -0.5015  0.3047 -0.2976
32406SOL    HW1 1134   2.556   8.301   7.295  0.5347  0.2339 -1.8992
32406SOL    HW2 1135   2.656   8.369   7.386 -1.0305  0.4337 -0.2624
32407SOL     OW 1136   5.002   0.868   4.022  0.1349  0.1480  0.0629
32407SOL    HW1 1137   4.982   0.942   4.080 -0.2353  1.9484 -2.2247
32407SOL    HW2 1138   4.999   0.791   4.080 -0.5018  1.7705  2.3441
32408SOL     OW 1139   9.225   6.270   8.842 -0.2238 -0.2377  0.6176
32408SOL    HW1 1140   9.292   6.296   8.906 -2.6655 -1.6433  3.9988
32408SOL    HW2 1141   9.248   6.180   8.818 -1.6908 -1.3909  3.1636
32409SOL     OW 1142   5.292   7.721   2.425 -0.1667 -0.3790  0.5077
32409SOL    HW1 1143   5.301   7.633   2.387 -3.2694  0.4669 -2.6872
32409SOL    HW2 1144   5.198   7.734   2.433  0.1105  3.2345 -0.6627
32410SOL     OW 1145   8.193   4.871   4.060 -0.4548 -0.1425 -0.0959
32410SOL    HW1 1146   8.262   4.938   4.060 -1.1485  0.5949 -0.0296
32410SOL    HW2 1147   8.199   4.830   4.146 -0.7263  0.5977  0.2874
32411SOL     OW 1148   6.504   0.938   1.571  0.5895  0.0945 -0.4394
32411SOL    HW1 1149   6.431   0.987   1.609  1.0406  0.5881 -0.1813
32411SOL    HW2 1150   6.564   0.925   1.645  0.6794 -0.4565 -0.6113
32412SOL     OW 1151   4.883   8.950   9.369 -0.6819  0.3807  0.4076
32412SOL    HW1 1152   4.917   8.875   9.417  0.2866  0.9145  0.5694
32412SOL    HW2 1153   4.868   8.916   9.280  2.5351  0.6354 -0.3718
32413SOL     OW 1154   5.183   4.003   0.744 -0.6130  0.0461 -0.1388
32413SOL    HW1 1155   5.174   3.912   0.772 -1.3911  0.3974  0.8173
32413SOL    HW2 1156   5.105   4.019   0.690 -1.5637  0.7054  1.3603
32414SOL     OW 1157   2.627   0.020   8.493  0.4927  0.1669 -0.0190
32414SOL    HW1 1158   2.619   0.083   8.421 -1.3305  1.0116  0.8800
32414SOL    HW2 1159   2.708   0.045   8.538  2.4718 -1.2291 -2.4923
32415SOL     OW 1160   1.800   3.091   9.450  0.4178  0.6552 -0.4853
32415SOL    HW1 1161   1.800   3.000   9.421 -0.0039  0.7129 -0.6699
32415SOL    HW2 1162   1.862   3.093   9.523 -2.3781 -0.5879  2.1196
32416SOL     OW 1163   3.198   9.602   3.817  0.3027  0.0684 -0.0340
32416SOL    HW1 1164   3.233   9.691   3.810 -0.0548  0.2560  0.4860
32416SOL    HW2 1165   3.236   9.569   3.899  1.2006 -0.6056 -0.7128
32417SOL     OW 1166   9.984   3.267   5.353  0.3070  0.0075  0.2305
32417SOL    HW1 1167   9.946   3.265   5.265 -1.7589 -0.9702  1.0700
32417SOL    HW2 1168  10.011   3.177   5.370 -0.1492 -0.0150  0.9078
32418SOL     OW 1169   3.998   3.108   2.604 -0.0128  0.4283  0.0299
32418SOL    HW1 1170   3.985   3.075   2.693  0.3180  1.4022  0.4595
32418SOL    HW2 1171   4.090   3.135   2.602  0.0566  0.1602 -0.7016
32419SOL     OW 1172   1.100   2.714   4.813  0.2313 -0.3006 -0.3495
32419SOL    HW1 1173   1.072   2.747   4.728 -0.7890 -0.8468 -0.2439
32419SOL    HW2 1174   1.030   2.655   4.840  0.4646 -0.0300  0.9278
32420SOL     OW 1175   2.589   1.167   4.545  0.0815  0.3551 -0.8444
32420SOL    HW1 1176   2.573   1.073   4.545 -0.2486  0.3382  1.5508
32420SOL    HW2 1177   2.684   1.175   4.555  0.0562  0.2489 -0.4885
32421SOL     OW 1178   5.243   7.561   2.870  0.1873 -0.4772  0.0698
32421SOL    HW1 1179   5.185   7.535   2.941 -1.5090  0.8987 -0.7141
32421SOL    HW2 1180   5.204   7.642   2.836  2.2041  0.1368 -0.9688
32422SOL     OW 1181   4.782   7.573   6.485  0.0151  0.1214 -0.2513
32422SOL    HW1 1182   4.707   7.589   6.429 -0.1181 -1.6524 -0.6400
32422SOL    HW2 1183   4.744   7.550   6.570  0.0922 -0.8576 -0.4703
32423SOL     OW 1184   5.512   5.718   1.434 -0.3456 -0.0319 -0.2106
32423SOL    HW1 1185   5.476   5.631   1.417 -1.7578  0.5762 -0.4367
32423SOL    HW2 1186   5.574   5.732   1.362 -3.0473  0.7258 -2.6089
32424SOL     OW 1187   3.056   2.805   8.121 -0.2593  0.0430 -0.3180
32424SOL    HW1 1188   2.966   2.830   8.141  0.2358  0.3525  1.7047
32424SOL    HW2 1189   3.076   2.734   8.182  1.4306  1.2053  0.5841
32425SOL     OW 1190   6.210  10.191   1.622  0.5413 -1.3845 -0.4246
32425SOL    HW1 1191   6.163  10.232   1.549  2.8719  0.3807 -1.0649
32425SOL    HW2 1192   6.153  10.203   1.697 -0.7006 -0.7430 -1.4219
32426SOL     OW 1193   2.527   1.496   6.936  0.0276 -0.5227  0.0770
32426SOL    HW1 1194   2.448   1.520   6.984 -1.1043 -1.4401 -1.2292
32426SOL    HW2 1195   2.598   1.508   6.999 -1.0007  1.3533  0.9657
32427SOL     OW 1196   3.390   1.682   5.123 -0.7034  0.7998 -0.0264
32427SOL    HW1 1197   3.470   1.665   5.072  0.3846  1.3676  1.4205
32427SOL    HW2 1198   3.327   1.714   5.059  0.1595  0.1589 -1.2417
32428SOL     OW 1199   0.497   0.360   6.474 -0.1293 -0.0781  0.0514
32428SOL    HW1 1200   0.422   0.351   6.415 -0.0297  0.3101 -0.1378
32428SOL    HW2 1201   0.532   0.271   6.483  0.1564 -0.0679 -0.8765
32429SOL     OW 1202   0.675   6.149   5.030  0.0833  0.1747  0.4239
32429SOL    HW1 1203   0.651   6.073   4.978  2.0982  0.3006 -0.8175
32429SOL    HW2 1204   0.720   6.207   4.968  0.8634  1.2137  1.8924
32430SOL     OW 1205   9.756   6.524   4.280 -0.1490 -0.0625  0.5556
32430SOL    HW1 1206   9.783   6.495   4.193  0.1189 -0.5255  0.7879
32430SOL    HW2 1207   9.696   6.596   4.264  0.1017  0.0256 -0.0086
32431SOL     OW 1208   5.911   0.825   4.461  0.1943  0.6478 -0.6469
32431SOL    HW1 1209   5.831   0.877   4.454 -0.0872  0.0912 -1.7483
32431SOL    HW2 1210   5.907   0.765   4.387  1.4581  0.3612 -0.4981
32432SOL     OW 1211   9.683   6.806   5.639  0.3954 -0.3166 -0.1135
32432SOL    HW1 1212   9.734   6.789   5.718  1.7302  0.9594 -0.6539
32432SOL    HW2 1213   9.616   6.869   5.668 -0.2868 -1.2432  0.3780
32433SOL     OW 1214   5.567   4.266   9.825  0.3308  0.1451  0.2987
32433SOL    HW1 1215   5.496   4.300   9.771  0.1661  1.6598  1.4188
32433SOL    HW2 1216   5.646   4.307   9.789  0.3467  0.3715  0.5990
32434SOL     OW 1217   1.014   7.007   9.644  0.0404  0.2739 -0.0906
32434SOL    HW1 1218   1.053   6.970   9.723  2.6916  2.0004 -0.4775
32434SOL    HW2 1219   1.058   6.960   9.572  2.5920  3.0792 -0.5570
32435SOL     OW 1220   1.581   9.676   1.009  0.0489 -0.3933 -0.4391
32435SOL    HW1 1221   1.541   9.747   0.958 -0.1601  0.0211  0.2924
32435SOL    HW2 1222   1.512   9.611   1.019  0.2724 -0.7595 -1.2035
32436SOL     OW 1223   1.694   5.596   9.139  0.4543 -0.3223  0.1659
32436SOL    HW1 1224   1.788   5.595   9.122  0.6587 -1.5169  1.2380
32436SOL    HW2 1225   1.679   5.521   9.197 -0.9496  0.6486  1.1154
32437SOL     OW 1226   4.304   6.279   9.600  0.3215  0.1346 -0.2565
32437SOL    HW1 1227   4.335   6.306   9.514  0.9335  0.8446  0.1770
32437SOL    HW2 1228   4.286   6.185   9.590 -0.0327  0.2928 -1.2670
32438SOL     OW 1229   8.563   3.945   1.204 -0.1849  0.0938 -0.3488
32438SOL    HW1 1230   8.590   3.893   1.128 -0.0117  0.3828 -0.4871
32438SOL    HW2 1231   8.486   3.993   1.173 -1.0160 -0.9137  0.1191
32439SOL     OW 1232   9.907   2.444   5.418  0.6176 -0.0677  0.4974
32439SOL    HW1 1233   9.889   2.387   5.492  0.6262 -0.7706 -0.0361
32439SOL    HW2 1234   9.976   2.400   5.369  0.7512  0.4880  0.1717
32440SOL     OW 1235   4.230   9.446   2.236 -0.2475 -0.5139 -0.4896
32440SOL    HW1 1236   4.284   9.373   2.207 -0.2763 -0.2304 -1.3022
32440SOL    HW2 1237   4.277   9.484   2.310  1.9555  1.1593 -2.5600
32441SOL     OW 1238   5.243   7.743   0.303 -0.0059  0.3325  0.0732
32441SOL    HW1 1239   5.300   7.797   0.249 -2.0788  1.1726 -1.3996
32441SOL    HW2 1240   5.255   7.654   0.269  0.9043  0.3778  0.2495
32442SOL     OW 1241   0.638   8.813   0.703 -0.6714  0.1302 -0.1270
32442SOL    HW1 1242   0.667   8.870   0.775 -0.8567  0.1755 -0.0874
32442SOL    HW2 1243   0.615   8.874   0.633  0.3862  0.0541 -0.5609
32443SOL     OW 1244   2.357   2.758   8.193 -0.1146 -0.2194  0.9597
32443SOL    HW1 1245   2.289   2.700   8.157  0.6406 -1.1838  1.0418
32443SOL    HW2 1246   2.392   2.803   8.117  0.6808 -1.3940  0.6002
32444SOL     OW 1247   4.191   2.695   6.562 -0.6962 -0.0314  0.2563
32444SOL    HW1 1248   4.219   2.687   6.654  1.5417 -0.8319 -0.4302
32444SOL    HW2 1249   4.097   2.710   6.567 -0.4897  0.9537  2.7192
32445SOL     OW 1250   0.984   8.140   1.175  0.6219 -0.1333 -0.0475
32445SOL    HW1 1251   1.026   8.226   1.184 -0.1018  0.3988 -1.3670
32445SOL    HW2 1252   0.913   8.141   1.239  0.9332  0.0453  0.2979
32446SOL     OW 1253   6.071   9.222   9.303  0.1231 -0.2588 -0.5971
32446SOL    HW1 1254   6.137   9.243   9.237  1.2240 -0.8495  0.2784
32446SOL    HW2 1255   6.075   9.295   9.365  1.7563 -1.4291  0.7796
32447SOL     OW 1256   4.925   6.319   7.941 -0.4932 -0.2997  0.1827
32447SOL    HW1 1257   4.973   6.381   7.997  0.3703 -2.1368  1.5767
32447SOL    HW2 1258   4.855   6.372   7.903  0.1992  1.5490  1.2928
32448SOL     OW 1259   3.221   7.534   1.526  0.1997  0.4876 -0.0616
32448SOL    HW1 1260   3.158   7.558   1.594 -1.0904 -1.2553 -0.5812
32448SOL    HW2 1261   3.281   7.474   1.570  0.5568  0.8930  0.0161
32449SOL     OW 1262   6.377   0.950   2.267  1.0268  0.3071  0.2746
32449SOL    HW1 1263   6.281   0.956   2.262  0.9193 -1.5957 -1.6858
32449SOL    HW2 1264   6.395   0.935   2.360 -0.9433 -2.6931  0.3213
32450SOL     OW 1265   8.041   0.641   9.059 -0.1331 -0.4838  0.2419
32450SOL    HW1 1266   8.013   0.732   9.049 -0.7446 -0.8723 -2.3498
32450SOL    HW2 1267   8.136   0.646   9.071 -0.2405  0.5002  0.8200
32451SOL     OW 1268   5.703   7.470   1.280 -0.3130  0.2130 -0.2517
32451SOL    HW1 1269   5.667   7.540   1.333 -0.9504  1.1374 -1.8466
32451SOL    HW2 1270   5.770   7.512   1.226 -1.0774 -0.2521 -1.6141
32452SOL     OW 1271   8.297   1.772   7.338  0.3121  0.0196  0.0957
32452SOL    HW1 1272   8.218   1.825   7.336  0.8231  0.7759 -1.2758
32452SOL    HW2 1273   8.274   1.696   7.392 -1.8547 -0.5391 -1.4936
32453SOL     OW 1274   3.197   6.914   3.122  0.0584  0.2264  0.7266
32453SOL    HW1 1275   3.148   6.950   3.048  0.1580  2.5423  1.7001
32453SOL    HW2 1276   3.130   6.875   3.179 -0.6567  2.7221  1.6954
32454SOL     OW 1277   1.637   3.823   5.494  0.3116 -0.5242 -0.3313
32454SOL    HW1 1278   1.716   3.874   5.511 -0.9791  0.8095  2.1362
32454SOL    HW2 1279   1.574   3.886   5.460  0.2684 -1.6101 -2.4308
32455SOL     OW 1280   6.274   7.760   5.036 -0.1669 -0.6473  0.0445
32455SOL    HW1 1281   6.333   7.688   5.060  0.9640  0.2542  0.0587
32455SOL    HW2 1282   6.277   7.761   4.940 -0.4376 -0.8230  0.0341
32456SOL     OW 1283   6.071   9.606   9.714 -0.0918 -0.8862 -0.0115
32456SOL    HW1 1284   6.159   9.588   9.680 -0.1956 -1.6166  0.0966
32456SOL    HW2 1285   6.065   9.553   9.794 -0.7857 -1.1675 -0.2506
32457SOL     OW 1286   7.112   3.582   6.571 -0.1088  0.0043 -0.0032
32457SOL    HW1 1287   7.031   3.631   6.587 -0.0165 -0.2145  1.2503
32457SOL    HW2 1288   7.182   3.645   6.586  0.0321 -0.5534  2.1478
32458SOL     OW 1289   5.416   8.692   9.811 -0.2275 -0.6361 -0.4553
32458SOL    HW1 1290   5.370   8.659   9.888  1.7546 -0.3723  0.9107
32458SOL    HW2 1291   5.470   8.619   9.781  1.4144  0.1583  0.3890
32459SOL     OW 1292   9.599   0.200   3.158 -0.1515 -0.7276  0.0154
32459SOL    HW1 1293   9.515   0.159   3.179  1.1076 -2.2558  2.5579
32459SOL    HW2 1294   9.642   0.209   3.243  2.7311 -1.0715 -1.3206
32460SOL     OW 1295   7.365   4.436   8.659 -0.1727 -0.3030  0.4333
32460SOL    HW1 1296   7.384   4.529   8.650 -1.7094  0.3321  2.8980
32460SOL    HW2 1297   7.449   4.396   8.681  0.5628  0.3997 -0.9512
32461SOL     OW 1298   5.452   8.365   4.467 -0.4552  0.1078  0.3000
32461SOL    HW1 1299   5.546   8.384   4.474 -0.1664 -1.0615 -0.2220
32461SOL    HW2 1300   5.446   8.270   4.473 -1.3983 -0.0286 -2.0106
32462SOL     OW 1301   4.893   9.740   7.140 -0.4777  0.1176 -0.0596
32462SOL    HW1 1302   4.976   9.777   7.172 -1.8895  0.9187  3.0694
32462SOL    HW2 1303   4.833   9.814   7.137 -1.3882 -0.6354 -1.2194
32463SOL     OW 1304   5.108   2.731   2.546  0.0703 -0.0051 -1.2378
32463SOL    HW1 1305   5.144   2.788   2.478  1.6449  1.0016  0.3668
32463SOL    HW2 1306   5.033   2.779   2.580 -0.1233 -0.0600 -1.5818
32464SOL     OW 1307   8.068   6.639   5.867  0.0445  0.4160 -0.3364
32464SOL    HW1 1308   8.042   6.688   5.789 -0.6525  0.3081 -0.1829
32464SOL    HW2 1309   8.123   6.569   5.834  1.0849  1.3070 -0.5575
32465SOL     OW 1310   4.408   6.900   2.338  0.4635 -0.4514  0.4569
32465SOL    HW1 1311   4.321   6.939   2.340  0.0088 -1.3898  2.9579
32465SOL    HW2 1312   4.466   6.970   2.309 -1.0481  0.3008 -0.8860
32466SOL     OW 1313   6.795   0.763   7.301 -0.4466 -0.5196  0.1033
32466SOL    HW1 1314   6.778   0.669   7.304 -0.5655 -0.5107 -0.2702
32466SOL    HW2 1315   6.811   0.787   7.392 -0.6777 -0.8528  0.2352
32467SOL     OW 1316   3.274   0.409   4.625 -0.3230  0.0030  0.1488
32467SOL    HW1 1317   3.210   0.473   4.655  0.5310  0.9582 -0.0466
32467SOL    HW2 1318   3.245   0.387   4.536 -0.3369  0.4738  0.0367
32468SOL     OW 1319   4.360   6.124   7.675  0.0054 -0.3702 -0.3841
32468SOL    HW1 1320   4.420   6.067   7.626 -0.6264  0.1081 -1.7768
32468SOL    HW2 1321   4.299   6.064   7.718  1.4248 -0.8680  1.0362
32469SOL     OW 1322   3.689   4.969   1.570  0.1300 -0.3044  0.0091
32469SOL    HW1 1323   3.687   4.929   1.483  0.4933 -0.0286 -0.1269
32469SOL    HW2 1324   3.601   4.953   1.605 -0.2058  0.0677 -0.6361
32470SOL     OW 1325   8.523   0.029   8.338  0.5199 -0.1490 -0.2853
32470SOL    HW1 1326   8.535   0.017   8.433 -1.2180  0.5832  0.0664
32470SOL    HW2 1327   8.581   0.101   8.316  1.1001 -0.4624  0.1715
32471SOL     OW 1328   2.997   6.595   9.548 -0.0326  0.2000 -0.9716
32471SOL    HW1 1329   3.038   6.520   9.592  1.2750  1.1297 -0.5274
32471SOL    HW2 1330   2.976   6.656   9.619 -0.0799  0.7159 -1.4176
32472SOL     OW 1331   1.916   6.182   0.220 -0.3402  0.8553  0.7147
32472SOL    HW1 1332   1.878   6.267   0.242  0.7825  1.4075  0.5830
32472SOL    HW2 1333   2.010   6.199   0.213  0.0350 -0.6216  1.7376
32473SOL     OW 1334   3.445   3.678   3.795  0.0810  0.6217  0.3577
32473SOL    HW1 1335   3.414   3.623   3.722 -1.8257  0.5222  1.1809
32473SOL    HW2 1336   3.524   3.635   3.826  1.0227  0.7363 -1.7104
32474SOL     OW 1337   6.894   4.981   0.018 -0.1146  0.5496  0.0820
32474SOL    HW1 1338   6.803   4.995   0.042 -0.1380  0.6862 -0.0818
32474SOL    HW2 1339   6.938   4.961   0.100 -0.8780 -2.8286 -0.2072
32475SOL     OW 1340   7.704   2.538   3.724 -0.2555 -0.1987 -0.6814
32475SOL    HW1 1341   7.619   2.500   3.745 -1.1282  1.0990 -1.7088
32475SOL    HW2 1342   7.748   2.470   3.672  0.4647 -1.9388  1.9781
32476SOL     OW 1343   7.623   0.455   0.427  0.0206  0.2598 -0.3397
32476SOL    HW1 1344   7.540   0.487   0.393  0.6790  1.6815 -0.6605
32476SOL    HW2 1345   7.689   0.495   0.372  0.9577 -0.2495  0.3840
32477SOL     OW 1346   1.244   3.710   9.415  0.0774 -0.3879  0.5075
32477SOL    HW1 1347   1.295   3.773   9.465  0.4220 -0.4127  0.1892
32477SOL    HW2 1348   1.266   3.728   9.323 -1.6666  0.6307  0.2566
32478SOL     OW 1349   5.174   1.115   0.660  0.0786  0.2861  0.3258
32478SOL    HW1 1350   5.141   1.073   0.740 -1.0479 -2.0073 -1.2154
32478SOL    HW2 1351   5.136   1.202   0.661 -1.3164 -0.2913  1.4750
32479SOL     OW 1352   1.051   3.191   5.567  0.6374 -0.2857  0.0826
32479SOL    HW1 1353   1.053   3.111   5.514 -0.2889  0.4152 -1.0641
32479SOL    HW2 1354   1.142   3.205   5.593  0.9165 -1.3487 -0.2589
32480SOL     OW 1355   0.764   9.678   0.626 -0.1947 -0.3971 -0.3162
32480SOL    HW1 1356   0.829   9.608   0.637  0.4417  0.4052  1.6401
32480SOL    HW2 1357   0.710   9.672   0.705  0.1852  1.5699  0.1521
32481SOL     OW 1358   8.361   1.265   8.128  0.1612  0.0015 -0.7863
32481SOL    HW1 1359   8.394   1.322   8.058  1.8359 -0.9571 -0.8414
32481SOL    HW2 1360   8.316   1.194   8.082 -0.0735  0.1700 -0.8177
32482SOL     OW 1361   3.872   4.999   6.775 -0.5984  0.3345  0.0987
32482SOL    HW1 1362   3.940   5.001   6.708  1.5779  3.7377  2.1069
32482SOL    HW2 1363   3.794   5.031   6.730  0.5483  1.5794 -1.1286
32483SOL     OW 1364   5.995   3.942   5.032 -0.0342  0.2247  0.0667
32483SOL    HW1 1365   5.924   3.979   5.085  0.3456  0.2843  0.5397
32483SOL    HW2 1366   5.996   3.995   4.952 -1.6023 -0.7984 -0.7003
32484SOL     OW 1367   5.069  10.021   5.745 -0.3347  0.0291  0.1133
32484SOL    HW1 1368   5.134   9.964   5.787 -1.8433 -0.0597  2.5190
32484SOL    HW2 1369   5.016  10.053   5.818 -1.2325  2.3658 -1.4660
32485SOL     OW 1370   0.895   3.211   3.012  0.0526  0.4532 -0.3465
32485SOL    HW1 1371   0.878   3.271   2.939  1.6646  2.6596  0.9921
32485SOL    HW2 1372   0.976   3.166   2.987  0.4212  0.9652 -0.0932
32486SOL     OW 1373   4.776   2.300   3.855 -0.1727 -0.0230 -0.9688
32486SOL    HW1 1374   4.740   2.369   3.799 -1.2158  2.2239  2.2223
32486SOL    HW2 1375   4.846   2.343   3.904 -0.2434 -1.4886  0.4949
32487SOL     OW 1376   6.597   0.846   9.694  0.2597  0.2891 -0.1818
32487SOL    HW1 1377   6.632   0.772   9.744 -0.1761 -0.8361 -1.4703
32487SOL    HW2 1378   6.503   0.846   9.714  0.2563  0.4875 -0.1969
32488SOL     OW 1379   2.944   0.875   3.077  0.5229 -0.0840 -0.3134
32488SOL    HW1 1380   2.968   0.850   2.988 -1.3496  0.1117 -0.9180
32488SOL    HW2 1381   2.856   0.911   3.068  0.6726  0.8021  1.4917
32489SOL     OW 1382   7.631  10.061   1.579 -0.4048 -0.2012  0.0948
32489SOL    HW1 1383   7.723  10.086   1.580 -0.5582  0.4134 -0.1248
32489SOL    HW2 1384   7.584  10.144   1.592 -0.9513 -0.3130 -1.0390
32490SOL     OW 1385   0.133   8.079   0.027  0.1164 -0.5252  0.2743
32490SOL    HW1 1386   0.077   8.155   0.037 -0.9981 -1.0652 -1.3550
32490SOL    HW2 1387   0.124   8.031   0.109  0.2740  0.7054  1.0348
32491SOL     OW 1388   7.091   3.904   0.094 -0.0884  0.4952 -0.0461
32491SOL    HW1 1389   7.030   3.961   0.046 -0.7936 -0.1429  0.0756
32491SOL    HW2 1390   7.060   3.907   0.184 -1.0679 -1.2603 -0.2937
32492SOL     OW 1391   6.390   7.636   8.448  0.3299 -0.3011  0.0525
32492SOL    HW1 1392   6.370   7.651   8.356 -0.1080  2.5805  0.5106
32492SOL    HW2 1393   6.484   7.617   8.450  0.1756 -1.2432 -1.0256
32493SOL     OW 1394   5.583   3.397   8.694  0.8692 -0.2974  0.3799
32493SOL    HW1 1395   5.529   3.328   8.655 -0.1452  0.3499  0.5872
32493SOL    HW2 1396   5.653   3.412   8.631  1.0981 -1.4892  0.3263
32494SOL     OW 1397   9.278   7.907   1.214  0.4159  0.4036 -0.0164
32494SOL    HW1 1398   9.308   7.918   1.304 -0.7818 -2.3743  0.8256
32494SOL    HW2 1399   9.183   7.922   1.219  0.3061 -0.0342 -0.7696
32495SOL     OW 1400   8.281   5.630   1.647  0.4717  0.0105  0.0901
32495SOL    HW1 1401   8.237   5.687   1.584 -0.8764 -0.6316  0.4063
32495SOL    HW2 1402   8.275   5.676   1.730 -1.2686 -0.8716  0.4891
32496SOL     OW 1403   4.769   9.367   7.340  0.1170  0.0336  0.1501
32496SOL    HW1 1404   4.852   9.333   7.374  0.2043  1.2854  1.2586
32496SOL    HW2 1405   4.731   9.416   7.413 -1.0849  0.3824 -0.6808
32497SOL     OW 1406   1.943   6.423   4.039 -1.0357  0.2543  0.1218
32497SOL    HW1 1407   2.026   6.386   4.070 -0.0794  1.6077 -0.6868
32497SOL    HW2 1408   1.899   6.350   3.996  1.0591  0.0910 -1.9747
32498SOL     OW 1409   5.931   5.573   1.223  0.2149  0.1427  0.2850
32498SOL    HW1 1410   5.906   5.666   1.223  0.9807  0.4070 -2.0793
32498SOL    HW2 1411   5.976   5.561   1.307 -0.2173  1.7877  0.8091
32499SOL     OW 1412   5.366   9.790   7.910  0.2405 -0.2828  0.2933
32499SOL    HW1 1413   5.370   9.697   7.934  0.6099 -0.5175 -0.6327
32499SOL    HW2 1414   5.274   9.814   7.924  0.3646 -0.4807  1.5925
32500SOL     OW 1415   7.885   0.373   5.975  0.0207 -0.3380 -0.8883
32500SOL    HW1 1416   7.957   0.436   5.980 -0.4376  0.1097  1.0390
32500SOL    HW2 1417   7.848   0.385   5.887  0.3214  1.6609 -0.7901
32501SOL     OW 1418   4.223   5.177   1.595  0.3157  0.2225 -0.3896
32501SOL    HW1 1419   4.285   5.242   1.628 -0.6465  0.1360  1.7614
32501SOL    HW2 1420   4.152   5.177   1.659  0.0826 -2.6389 -0.5069
32502SOL     OW 1421   4.744   1.585   4.515 -0.2003 -0.0848 -0.2182
32502SOL    HW1 1422   4.671   1.629   4.557  1.2109  0.9893  1.2174
32502SOL    HW2 1423   4.788   1.539   4.586 -0.1283 -1.7214 -1.2572
32503SOL     OW 1424   7.187   1.906   7.602 -0.1141  0.2303 -0.2653
32503SOL    HW1 1425   7.130   1.831   7.585 -0.4785  0.1218  1.3084
32503SOL    HW2 1426   7.273   1.869   7.620 -0.0662  0.2585 -0.4303
32504SOL     OW 1427   3.576   6.172   7.729  0.4975  0.4138  0.3333
32504SOL    HW1 1428   3.530   6.186   7.646 -0.4416 -3.0668  0.0771
32504SOL    HW2 1429   3.509   6.183   7.796 -0.1577 -1.8585  0.1535
32505SOL     OW 1430   5.732   6.973   1.435  0.7367 -0.5885 -0.6226
32505SOL    HW1 1431   5.803   7.018   1.481 -1.3689 -0.2230  2.5610
32505SOL    HW2 1432   5.664   6.961   1.501 -2.0502 -1.2675 -3.3755
32506SOL     OW 1433   0.166   9.141   3.672  0.3141  0.6368  0.3690
32506SOL    HW1 1434   0.241   9.189   3.709 -0.6515  2.7270 -0.2191
32506SOL    HW2 1435   0.206   9.070   3.622  1.8877  1.2526  0.6697
32507SOL     OW 1436  10.169   4.967   0.020  0.2113  0.2453 -0.3192
32507SOL    HW1 1437  10.212   4.899   0.071  0.1230  0.3576 -0.0951
32507SOL    HW2 1438  10.215   5.048   0.043  2.4602 -0.1346 -2.9395
32508SOL     OW 1439   3.026   3.680   0.030 -0.0020 -0.0116  0.6195
32508SOL    HW1 1440   3.076   3.633   0.096 -0.2909 -1.1517  0.0469
32508SOL    HW2 1441   3.089   3.742  -0.008  0.0680  0.9619  2.2066
32509SOL     OW 1442   6.313   0.744   7.047 -0.2444 -0.0462 -0.1567
32509SOL    HW1 1443   6.312   0.779   7.136  1.7846 -0.4705  0.0907
32509SOL    HW2 1444   6.322   0.649   7.058  2.2183  0.0621 -0.7529
32510SOL     OW 1445   7.662  10.031   5.893 -0.4119  0.4016 -0.2214
32510SOL    HW1 1446   7.665  10.104   5.831  1.4774 -0.2661 -1.0135
32510SOL    HW2 1447   7.701  10.066   5.973  0.4197  0.3142 -0.5757
32511SOL     OW 1448   2.097   5.075   7.484  0.6484  0.6425  0.0845
32511SOL    HW1 1449   2.105   5.023   7.565 -2.1672 -2.0334 -1.1467
32511SOL    HW2 1450   2.052   5.155   7.511 -0.4114 -0.2874  1.2190
32512SOL     OW 1451   6.783   9.434   6.309  0.0098 -0.0122  0.0772
32512SOL    HW1 1452   6.820   9.450   6.223 -2.3158  1.9848 -0.6861
32512SOL    HW2 1453   6.769   9.339   6.312  1.9940 -0.3806 -0.8585
32513SOL     OW 1454   4.136   0.688   3.581 -0.2440  0.6508  0.0949
32513SOL    HW1 1455   4.195   0.632   3.531 -1.1075 -0.7596  0.5831
32513SOL    HW2 1456   4.171   0.686   3.670 -1.5612 -1.0832  0.6313
32514SOL     OW 1457   1.453   6.780   6.751  0.3027  0.6486  0.0081
32514SOL    HW1 1458   1.383   6.840   6.777 -0.0044 -0.0150  0.7687
32514SOL    HW2 1459   1.414   6.726   6.682 -0.1177 -0.0482  0.7714
32515SOL     OW 1460   4.761   0.334   8.100  0.3371 -0.2360  0.5793
32515SOL    HW1 1461   4.779   0.427   8.110 -0.9096 -0.0673  1.4006
32515SOL    HW2 1462   4.767   0.298   8.189 -0.0531 -0.7774  0.3947
32516SOL     OW 1463   7.938   9.215   4.731 -0.1868  0.0349  0.3051
32516SOL    HW1 1464   7.977   9.183   4.649  1.6605 -1.1908  1.5850
32516SOL    HW2 1465   7.854   9.170   4.736 -0.2952  0.0683 -0.8752
32517SOL     OW 1466   2.980   1.900   3.799 -0.5032  0.7029 -0.5104
32517SOL    HW1 1467   3.048   1.834   3.784  0.8595  1.6606  1.0836
32517SOL    HW2 1468   2.903   1.848   3.824  0.0732 -0.3424 -0.8137
32518SOL     OW 1469   9.003   8.947   9.910  1.2739  0.7067 -0.0207
32518SOL    HW1 1470   9.054   9.027   9.916  2.0349  0.1912  0.7234
32518SOL    HW2 1471   9.010   8.908   9.997 -0.4819  0.6601  0.1433
32519SOL     OW 1472   0.560   4.732   7.941 -1.2342  0.4071  0.1412
32519SOL    HW1 1473   0.573   4.775   7.856 -3.3658  2.3039  0.6816
32519SOL    HW2 1474   0.530   4.802   7.999 -1.7174 -1.2279  1.9715
32520SOL     OW 1475   5.042   9.123   5.951  0.4282  0.0973 -0.2297
32520SOL    HW1 1476   4.975   9.093   5.889  0.6589  0.2822 -0.5715
32520SOL    HW2 1477   5.071   9.208   5.916 -0.3716  0.8339  0.8442
32521SOL     OW 1478   9.899   4.889   4.585 -0.3945 -0.4562  0.4359
32521SOL    HW1 1479   9.941   4.974   4.599 -1.1632 -0.0919  0.5642
32521SOL    HW2 1480   9.845   4.876   4.663 -2.4541  0.2472 -0.7949
32522SOL     OW 1481   5.466   6.458   7.841  0.2064  0.6392  0.6413
32522SOL    HW1 1482   5.548   6.496   7.810  0.7280 -0.3424  0.7983
32522SOL    HW2 1483   5.468   6.472   7.936  0.2768  0.4538  0.6671
32523SOL     OW 1484   7.436   6.561   2.550  0.2985  0.6160  0.5192
32523SOL    HW1 1485   7.475   6.592   2.631  2.4895 -0.9858  0.1922
32523SOL    HW2 1486   7.489   6.602   2.481 -0.9706  1.2655 -0.0977
32524SOL     OW 1487   8.414   7.806   1.930  0.2611  0.9042 -0.2691
32524SOL    HW1 1488   8.495   7.786   1.975 -0.2915  0.5614  0.6089
32524SOL    HW2 1489   8.405   7.738   1.863 -0.0731  0.0049  0.6682
32525SOL     OW 1490   9.681   1.472   8.721  0.0543 -0.1915 -0.2182
32525SOL    HW1 1491   9.606   1.420   8.691 -0.5183 -1.6656  3.2533
32525SOL    HW2 1492   9.641   1.546   8.768  0.7925  0.0515  0.0360
32526SOL     OW 1493   9.694   3.854   2.350 -0.0177 -0.2351 -0.6121
32526SOL    HW1 1494   9.636   3.930   2.338  1.9333  1.4460 -0.0307
32526SOL    HW2 1495   9.635   3.779   2.352 -2.4441  1.5017  2.0589
32527SOL     OW 1496   3.640   9.780   6.688  0.0694 -0.4426 -0.1289
32527SOL    HW1 1497   3.688   9.827   6.757  0.0049 -1.2404  0.4740
32527SOL    HW2 1498   3.608   9.701   6.731  1.1421 -1.6231 -1.3914
32528SOL     OW 1499   4.603   6.852   9.483 -0.1328  0.4909 -0.2545
32528SOL    HW1 1500   4.569   6.763   9.468 -4.0385  1.4598  1.5276
32528SOL    HW2 1501   4.571   6.903   9.410 -3.1485  1.4782  1.5798
32529SOL     OW 1502   5.950   9.256   1.334 -0.0588  0.0816  0.1676
32529SOL    HW1 1503   5.993   9.197   1.272  0.7672  0.6292  0.1980
32529SOL    HW2 1504   5.861   9.265   1.301  0.9795  2.3268 -2.4354
32530SOL     OW 1505   1.449   4.621   7.538  0.1880 -0.4018  0.0919
32530SOL    HW1 1506   1.459   4.550   7.475 -0.5165 -0.3932 -0.0319
32530SOL    HW2 1507   1.434   4.577   7.622  0.6787 -0.4059  0.1819
32531SOL     OW 1508   7.654   4.558   7.462  0.0396 -0.2395  0.7290
32531SOL    HW1 1509   7.692   4.638   7.499 -1.6860  0.0172  2.0739
32531SOL    HW2 1510   7.575   4.543   7.514 -0.5169 -1.9561 -0.5326
32532SOL     OW 1511   8.753   4.059   6.725 -0.0983  0.1303 -0.1208
32532SOL    HW1 1512   8.794   4.016   6.800  1.0057 -1.1517 -1.3879
32532SOL    HW2 1513   8.823   4.063   6.659 -1.9395 -2.2357 -2.4139
32533SOL     OW 1514   5.681   9.451   1.072 -0.6077  0.5033 -0.4894
32533SOL    HW1 1515   5.761   9.430   1.120 -1.8178  1.5592  2.2232
32533SOL    HW2 1516   5.691   9.543   1.047 -0.5445  0.3423 -1.0566
32534SOL     OW 1517   9.458   7.782   9.123  0.1610 -0.2598  0.1144
32534SOL    HW1 1518   9.364   7.799   9.119  0.2547  0.5041  0.9939
32534SOL    HW2 1519   9.485   7.776   9.031 -0.8977 -1.4508 -0.1512
32535SOL     OW 1520   1.306   6.521   9.964 -0.0972 -0.3061  0.1422
32535SOL    HW1 1521   1.304   6.575  10.043 -1.7634 -1.4078  0.9051
32535SOL    HW2 1522   1.309   6.431   9.996 -0.8639 -0.7783 -1.0342
32536SOL     OW 1523   2.119   5.219   4.082  0.2944 -0.1602  0.0393
32536SOL    HW1 1524   2.142   5.202   3.991  0.2931 -0.3246  0.0710
32536SOL    HW2 1525   2.065   5.299   4.078  0.2468 -0.1998 -0.1096
32537SOL     OW 1526   2.790   6.440   6.989 -0.1858  0.2177 -0.7698
32537SOL    HW1 1527   2.791   6.533   7.010  1.5595 -0.2024  1.2969
32537SOL    HW2 1528   2.720   6.431   6.924  0.2411  3.0989 -1.7854
32538SOL     OW 1529   8.462   9.898   5.934  0.4010  0.0157 -0.4055
32538SOL    HW1 1530   8.533   9.923   5.876  2.4874 -0.4440  1.7777
32538SOL    HW2 1531   8.489   9.930   6.021 -0.9449 -2.1512  0.9146
32539SOL     OW 1532   1.311   2.078   9.521 -0.2757  0.1579 -0.3405
32539SOL    HW1 1533   1.273   2.007   9.469 -2.8256 -0.3709  1.9963
32539SOL    HW2 1534   1.401   2.087   9.488 -0.9258 -1.7863 -3.0207
32540SOL     OW 1535   4.925   4.494  10.037  0.3954 -0.2829 -0.0099
32540SOL    HW1 1536   4.931   4.416  10.093 -0.0861 -0.2635  0.0754
32540SOL    HW2 1537   4.963   4.564  10.090  1.7158 -0.6374 -0.4524
32541SOL     OW 1538   7.811   9.143   9.095  0.3317 -0.0488 -0.0179
32541SOL    HW1 1539   7.792   9.222   9.145  0.7676  0.7441 -1.0520
32541SOL    HW2 1540   7.851   9.083   9.158 -2.2382 -0.4360  1.3740
32542SOL     OW 1541   6.489   3.670   2.270 -0.1867  0.0566 -0.0107
32542SOL    HW1 1542   6.413   3.702   2.319 -0.5241 -0.9938  0.1829
32542SOL    HW2 1543   6.553   3.648   2.337  0.6397  1.7173 -0.2040
32543SOL     OW 1544   0.134   5.812   5.944 -0.3064  0.4948 -0.1169
32543SOL    HW1 1545   0.067   5.822   5.876  0.2001  0.6145 -0.6161
32543SOL    HW2 1546   0.135   5.718   5.962 -0.7396  0.5178  0.0337
32544SOL     OW 1547   3.415   0.154   9.218  0.2006  0.2868 -0.5529
32544SOL    HW1 1548   3.464   0.071   9.217  0.7575  0.4406  2.6304
32544SOL    HW2 1549   3.380   0.162   9.129  1.6949 -2.3984 -1.5172
32545SOL     OW 1550   8.008   6.085   3.950 -0.3916  0.1966 -0.0503
32545SOL    HW1 1551   8.008   6.122   3.861 -1.8179 -1.8982 -1.0015
32545SOL    HW2 1552   7.944   6.014   3.946 -1.3671  0.7630  3.0034
32546SOL     OW 1553   5.372   7.972   5.397 -0.0468 -0.1702 -0.0845
32546SOL    HW1 1554   5.308   7.918   5.444 -0.6512  0.5844 -0.0289
32546SOL    HW2 1555   5.445   7.912   5.380 -0.2412 -0.7191  0.9250
32547SOL     OW 1556   4.339   4.738   5.291  0.1745 -0.1939  0.7714
32547SOL    HW1 1557   4.355   4.658   5.241  2.7211  0.4638  0.3958
32547SOL    HW2 1558   4.344   4.712   5.383 -0.0956 -0.6259  0.6647
32548SOL     OW 1559   3.726   0.758   6.087 -0.3889  0.0251  0.8229
32548SOL    HW1 1560   3.734   0.662   6.082  0.9938  0.1033  1.1683
32548SOL    HW2 1561   3.806   0.791   6.046 -1.1712  1.0629  0.0735
32549SOL     OW 1562   8.538   1.890   2.400 -0.0156 -0.2655  0.0720
32549SOL    HW1 1563   8.516   1.974   2.361 -1.4747 -0.7817 -0.3005
32549SOL    HW2 1564   8.607   1.910   2.463 -0.2339  1.1844 -0.1082
32550SOL     OW 1565   0.419   0.611   6.593 -0.0576 -0.6356  0.2091
32550SOL    HW1 1566   0.440   0.540   6.532  0.1988 -0.1672 -0.2590
32550SOL    HW2 1567   0.492   0.611   6.655  0.3251 -0.3051 -0.2320
32551SOL     OW 1568   2.075   1.991   6.575 -0.2132 -0.0221 -0.0426
32551SOL    HW1 1569   2.024   2.002   6.494 -0.7057 -1.1834  0.0982
32551SOL    HW2 1570   2.011   1.965   6.641  0.3432 -0.0539  0.4968
32552SOL     OW 1571  10.123   2.048   5.082 -0.0585 -0.3107  0.0232
32552SOL    HW1 1572  10.029   2.041   5.068 -0.8776  0.2036  3.9420
32552SOL    HW2 1573  10.162   1.998   5.010 -3.1639  0.8208 -2.6988
32553SOL     OW 1574   1.878   9.636   5.266 -0.0263 -1.1544  0.1202
32553SOL    HW1 1575   1.956   9.623   5.211 -2.4503 -0.2832 -3.9213
32553SOL    HW2 1576   1.883   9.727   5.294  1.0085 -1.4801  1.0924
32554SOL     OW 1577   8.429   7.591   7.425 -0.1029 -0.1929  0.2168
32554SOL    HW1 1578   8.510   7.636   7.448 -0.7480  0.5254  1.1577
32554SOL    HW2 1579   8.376   7.657   7.379 -0.4017 -0.4771  0.1461
32555SOL     OW 1580   2.220   5.070   9.675 -0.1849 -0.2609  0.2143
32555SOL    HW1 1581   2.229   5.164   9.694  1.4351 -0.4116  0.3873
32555SOL    HW2 1582   2.203   5.067   9.581  3.6243  0.1827 -0.6752
32556SOL     OW 1583   6.139   6.791   2.877  0.2142 -0.8359 -0.2213
32556SOL    HW1 1584   6.117   6.716   2.932  0.8288 -2.9426 -2.6185
32556SOL    HW2 1585   6.121   6.760   2.788  1.1837  1.6519 -1.3567
32557SOL     OW 1586   2.945   4.567   7.304 -0.2819  0.3054 -0.2403
32557SOL    HW1 1587   2.856   4.558   7.268 -1.5863  2.4380  2.1222
32557SOL    HW2 1588   2.940   4.524   7.389  0.8353  0.7966  0.0809
32558SOL     OW 1589   2.296   7.087   3.588 -0.8259  0.0325 -0.0079
32558SOL    HW1 1590   2.275   7.177   3.610 -0.3909  0.7671 -2.2942
32558SOL    HW2 1591   2.312   7.088   3.494  0.4019 -2.2093  0.0899
32559SOL     OW 1592   8.735   2.958   7.525 -0.2286  0.0184  0.2516
32559SOL    HW1 1593   8.826   2.938   7.550  0.1058 -0.0637 -0.9548
32559SOL    HW2 1594   8.717   3.043   7.565  0.5782  0.2987  0.0394
32560SOL     OW 1595   6.191   8.907   3.015 -0.2466  0.3747  0.1505
32560SOL    HW1 1596   6.237   8.981   3.055  0.1458  0.1530  0.1115
32560SOL    HW2 1597   6.243   8.830   3.039  0.5900  0.3367 -1.6507
32561SOL     OW 1598   9.133   8.085   1.945 -0.4288  0.1187  0.1676
32561SOL    HW1 1599   9.222   8.121   1.946 -0.1718 -0.5019  1.2987
32561SOL    HW2 1600   9.088   8.130   2.017 -1.4282  1.3177 -1.1355
32562SOL     OW 1601   2.416   5.535   6.735 -0.6310 -0.2969 -0.4512
32562SOL    HW1 1602   2.417   5.574   6.647  0.0184  1.1662  0.1780
32562SOL    HW2 1603   2.324   5.538   6.762 -0.8335 -0.7444 -1.0569
32563SOL     OW 1604   5.990   8.868   0.696 -0.0409 -0.3237 -0.1758
32563SOL    HW1 1605   5.987   8.775   0.719 -0.2936 -0.6502 -1.4251
32563SOL    HW2 1606   6.007   8.869   0.601  0.8422  0.9267 -0.0324
32564SOL     OW 1607   4.884   1.295   5.620  0.5744 -0.3712  0.2533
32564SOL    HW1 1608   4.909   1.259   5.535 -0.8533 -2.0201  0.4649
32564SOL    HW2 1609   4.905   1.388   5.614 -0.3877 -0.2297 -2.2925
32565SOL     OW 1610   0.878   0.708   6.976  0.4322 -0.2604 -0.0062
32565SOL    HW1 1611   0.820   0.780   7.001  0.5366  0.1179 -0.8080
32565SOL    HW2 1612   0.940   0.748   6.915  0.7865 -0.9280 -0.0861
32566SOL     OW 1613   6.657   2.095   0.525 -0.4969  0.0422  0.3980
32566SOL    HW1 1614   6.673   2.055   0.439  0.7631  0.2398  0.5261
32566SOL    HW2 1615   6.672   2.188   0.511 -0.4151  0.0919  0.8033
32567SOL     OW 1616   2.044   3.784   8.776  0.4984  0.7005  0.3748
32567SOL    HW1 1617   2.133   3.819   8.769 -0.2667  2.8243  0.4788
32567SOL    HW2 1618   2.008   3.826   8.853 -0.6200 -0.1426  0.3298
32568SOL     OW 1619   0.233   7.583   2.155 -0.4842  0.6032  0.0586
32568SOL    HW1 1620   0.170   7.552   2.090 -1.1514  1.2170  0.4057
32568SOL    HW2 1621   0.267   7.503   2.195  1.3713  0.0795 -2.3176
32569SOL     OW 1622   5.626   0.785   4.287  0.3483  0.2441  0.1732
32569SOL    HW1 1623   5.644   0.749   4.200 -0.0542  0.2816  0.0731
32569SOL    HW2 1624   5.666   0.872   4.285 -0.2254  0.5033 -0.2003
32570SOL     OW 1625   7.853   5.938   2.093  0.0458  0.1507 -0.1909
32570SOL    HW1 1626   7.788   5.949   2.024 -0.7396 -0.0694  0.4952
32570SOL    HW2 1627   7.803   5.906   2.168  1.0500 -0.6245  0.1653
32571SOL     OW 1628   2.406   7.080   6.118 -0.1111 -0.0544 -0.1571
32571SOL    HW1 1629   2.361   7.016   6.174 -1.4471  0.9773 -0.0031
32571SOL    HW2 1630   2.364   7.070   6.032 -0.8701  1.0981  0.0524
32572SOL     OW 1631   9.857   1.030   1.550 -0.1926 -0.0215  0.1897
32572SOL    HW1 1632   9.910   0.982   1.613 -0.4269  1.3482  1.4989
32572SOL    HW2 1633   9.767   1.020   1.582 -0.4703 -0.4619 -0.7219
32573SOL     OW 1634   6.881   0.613   6.719 -0.0342 -0.7015 -0.1706
32573SOL    HW1 1635   6.927   0.664   6.652 -1.4829  1.7775  0.5838
32573SOL    HW2 1636   6.949   0.565   6.765  1.8009  2.2821  0.4857
32574SOL     OW 1637   9.203   9.635   4.621 -0.1948  0.2204 -0.3769
32574SOL    HW1 1638   9.120   9.594   4.647 -0.2938  1.4501  1.4081
32574SOL    HW2 1639   9.260   9.561   4.598 -0.3658 -1.0192  2.6702
32575SOL     OW 1640   5.601   7.553   0.765  0.5407 -0.2912 -0.3685
32575SOL    HW1 1641   5.616   7.495   0.690  2.0784 -0.4212  0.0078
32575SOL    HW2 1642   5.636   7.506   0.840  0.1770  0.3811  0.2390
32576SOL     OW 1643   2.542   8.089   6.828 -0.2640  0.3018  0.3442
32576SOL    HW1 1644   2.551   8.071   6.734 -1.4622  0.0114  0.2705
32576SOL    HW2 1645   2.560   8.182   6.837 -0.1160  0.3252 -0.1610
32577SOL     OW 1646   4.945   2.402   4.031  0.1198 -0.2653  0.7513
32577SOL    HW1 1647   4.975   2.312   4.025  1.5226 -0.0104  2.9841
32577SOL    HW2 1648   4.881   2.402   4.102  0.9723  0.6540  1.5607
32578SOL     OW 1649   7.673   4.008   8.105  0.1354  0.2613 -0.0687
32578SOL    HW1 1650   7.653   4.094   8.142  0.6122  0.3829 -0.0929
32578SOL    HW2 1651   7.758   3.985   8.141  0.2081 -0.0103 -0.4055
32579SOL     OW 1652   3.264   9.696   5.137  0.2411 -0.4103 -0.4501
32579SOL    HW1 1653   3.307   9.611   5.146  0.2873 -0.1314  3.7239
32579SOL    HW2 1654   3.286   9.724   5.048  3.1647 -3.1843 -0.8023
32580SOL     OW 1655   2.810  10.010   6.246 -0.2832 -0.1054  0.6453
32580SOL    HW1 1656   2.734  10.004   6.189  0.1250 -1.0525  0.1903
32580SOL    HW2 1657   2.855   9.927   6.236  1.1479  0.6605  0.4476
32581SOL     OW 1658   3.507   4.232   1.663 -0.4623  0.2602 -0.3063
32581SOL    HW1 1659   3.564   4.215   1.738 -0.6669  1.1114  0.0542
32581SOL    HW2 1660   3.430   4.179   1.679  0.5964 -1.6825 -1.2925
32582SOL     OW 1661   4.326   0.284   2.716  0.0712  0.1225  0.0338
32582SOL    HW1 1662   4.341   0.209   2.658  1.2807  0.6171 -0.3488
32582SOL    HW2 1663   4.313   0.246   2.802 -2.1351 -0.6563 -0.5874
32583SOL     OW 1664   2.275   9.220   4.981 -0.0917 -0.1631 -0.0791
32583SOL    HW1 1665   2.342   9.218   5.049  0.2167 -1.1732 -0.3979
32583SOL    HW2 1666   2.311   9.278   4.913  1.0049 -1.5753 -0.7664
32584SOL     OW 1667  10.097   5.474   0.267  0.2965  0.0163 -0.2238
32584SOL    HW1 1668  10.032   5.405   0.272  0.9990 -0.6177  0.2772
32584SOL    HW2 1669  10.060   5.537   0.205 -1.2624  0.1902  0.8440
32585SOL     OW 1670   3.328   0.500   8.888 -0.3076 -0.2335 -0.2190
32585SOL    HW1 1671   3.383   0.509   8.810  2.1446  1.3921  1.5257
32585SOL    HW2 1672   3.371   0.432   8.940 -0.7921  0.0268  0.5424
32586SOL     OW 1673   9.046   2.523   9.521 -0.0539 -0.0689  0.0576
32586SOL    HW1 1674   9.053   2.616   9.541 -0.4147  0.2194 -1.0887
32586SOL    HW2 1675   8.986   2.488   9.586 -0.8270  0.7363 -0.2157
32587SOL     OW 1676   5.246   7.544   9.172 -0.1782  0.2770  0.1462
32587SOL    HW1 1677   5.177   7.534   9.237  0.4872 -0.6397  0.7303
32587SOL    HW2 1678   5.206   7.596   9.102 -1.2650  0.2628  0.7422
32588SOL     OW 1679   0.493   2.198   4.428 -0.0365 -0.3215 -0.2480
32588SOL    HW1 1680   0.564   2.226   4.485  0.9414 -2.0531 -0.5402
32588SOL    HW2 1681   0.472   2.275   4.375  2.9674 -0.2717 -1.5281
32589SOL     OW 1682   5.642   8.437   4.930  0.0400  0.0096 -0.3573
32589SOL    HW1 1683   5.596   8.447   4.847  1.3315  0.5539 -1.0401
32589SOL    HW2 1684   5.732   8.462   4.910  0.4830 -0.3488  1.0949
32590SOL     OW 1685  10.170   4.194   1.682  0.2204 -0.2749  0.6598
32590SOL    HW1 1686  10.205   4.280   1.657 -1.0631  0.3204  0.8530
32590SOL    HW2 1687  10.210   4.133   1.621 -0.9349  0.8242 -1.2868
32591SOL     OW 1688   1.061   7.464   8.188  0.3882  0.0858 -0.2014
32591SOL    HW1 1689   0.970   7.463   8.216  0.7451 -1.1339  0.9888
32591SOL    HW2 1690   1.072   7.383   8.139  1.0338 -0.1550  0.3309
32592SOL     OW 1691   5.862   4.527   1.145 -0.6641  0.1785 -0.8617
32592SOL    HW1 1692   5.940   4.582   1.159 -2.2008  1.9067  1.7212
32592SOL    HW2 1693   5.888   4.440   1.176  0.6761  0.3396 -1.4642
32593SOL     OW 1694   2.548   2.114   9.397 -0.2080 -0.4003  0.2467
32593SOL    HW1 1695   2.626   2.066   9.425  0.2229  0.6306  0.8812
32593SOL    HW2 1696   2.568   2.144   9.308 -0.4677 -1.3455 -0.1397
32594SOL     OW 1697   0.778   6.418   9.987 -0.1221  0.3223 -0.4333
32594SOL    HW1 1698   0.864   6.407  10.026  0.1734  1.1189 -0.8284
32594SOL    HW2 1699   0.778   6.362   9.910  1.2800  2.7293 -2.3155
32595SOL     OW 1700   4.571   9.671   8.514 -0.5393  0.1534  0.2599
32595SOL    HW1 1701   4.599   9.685   8.423 -0.7281  2.2447  0.4677
32595SOL    HW2 1702   4.479   9.645   8.507 -0.0450 -1.6374 -0.1911
32596SOL     OW 1703   8.344  10.100   4.736 -0.3264 -0.1585 -0.1620
32596SOL    HW1 1704   8.352  10.005   4.737 -1.7565 -0.3205 -1.3781
32596SOL    HW2 1705   8.339  10.125   4.829 -0.3798 -1.3093  0.1512
32597SOL     OW 1706   5.973   2.023   1.100  0.3847  0.6143  0.1596
32597SOL    HW1 1707   6.021   2.038   1.018 -1.2764 -0.7209 -1.1298
32597SOL    HW2 1708   5.909   2.094   1.104  0.6035  0.7986  0.4197
32598SOL     OW 1709   1.844   3.674   3.739 -0.1518  0.1077  0.7005
32598SOL    HW1 1710   1.829   3.613   3.667 -0.6943  0.5132  0.4579
32598SOL    HW2 1711   1.820   3.625   3.818  2.1221 -0.9455  0.8213
32599SOL     OW 1712   6.174   2.232   1.707 -0.4684  0.2469  0.0127
32599SOL    HW1 1713   6.260   2.214   1.745 -0.7466  0.1925  0.6238
32599SOL    HW2 1714   6.186   2.221   1.613  0.8876  2.8985 -0.2313
32600SOL     OW 1715   6.142   7.359   7.226  0.3514 -0.0089  0.1629
32600SOL    HW1 1716   6.188   7.280   7.197  0.8662 -0.1091  1.2112
32600SOL    HW2 1717   6.210   7.427   7.227  0.4739 -0.1259  1.5929
32601SOL     OW 1718   3.542   5.726   7.138  0.0776  0.0464  0.1597
32601SOL    HW1 1719   3.520   5.675   7.216 -2.2079  1.9892  0.9110
32601SOL    HW2 1720   3.458   5.761   7.108  1.1694  0.9836 -2.0141
32602SOL     OW 1721   1.087   6.109   3.676 -1.0386 -0.1783  0.3949
32602SOL    HW1 1722   1.121   6.195   3.649  0.8338 -1.6262 -2.4665
32602SOL    HW2 1723   1.156   6.073   3.732 -1.3937 -0.1756  0.8343
32603SOL     OW 1724   5.624   8.737   4.100 -0.2270 -0.2270  0.7522
32603SOL    HW1 1725   5.671   8.799   4.044  1.5893 -0.5873  1.8048
32603SOL    HW2 1726   5.558   8.790   4.146  1.0364  0.8668  1.3429
32604SOL     OW 1727   7.187   9.455   1.529  0.1520  0.0067 -0.5352
32604SOL    HW1 1728   7.094   9.463   1.549 -0.0218  2.2948 -1.9273
32604SOL    HW2 1729   7.229   9.441   1.614 -1.4015 -0.7466  0.1477
32605SOL     OW 1730   7.251   9.342   2.754 -0.1643 -0.0944  0.6160
32605SOL    HW1 1731   7.321   9.307   2.808  0.3587  1.1710  0.8049
32605SOL    HW2 1732   7.259   9.297   2.670  0.1879 -0.7355  0.9893
32606SOL     OW 1733   7.483   2.953   1.402 -0.3155  0.3254 -0.0161
32606SOL    HW1 1734   7.486   2.900   1.482 -1.0623 -1.1842 -0.9353
32606SOL    HW2 1735   7.397   2.933   1.364  1.1292 -1.3655 -2.7076
32607SOL     OW 1736   1.390   3.927   6.936 -0.1981 -0.0572 -0.1521
32607SOL    HW1 1737   1.386   4.014   6.976 -0.3896 -0.5622  0.9683
32607SOL    HW2 1738   1.482   3.915   6.914 -0.2518  0.6256 -0.7668
32608SOL     OW 1739   8.735   9.149   1.945 -0.0971  0.1117  0.7554
32608SOL    HW1 1740   8.725   9.069   1.997 -0.5395 -0.1010  0.3534
32608SOL    HW2 1741   8.669   9.141   1.876 -0.8312  1.2833  1.2852
32609SOL     OW 1742   4.230   5.271   2.157 -0.3474  0.1945 -0.4076
32609SOL    HW1 1743   4.303   5.269   2.219  0.1459 -0.8816 -0.9983
32609SOL    HW2 1744   4.268   5.305   2.076 -0.7976  0.7945 -0.3798
32610SOL     OW 1745   8.949   1.498   7.499 -0.0474 -0.1158  0.4018
32610SOL    HW1 1746   8.902   1.551   7.436 -0.8522 -0.6548  0.5332
32610SOL    HW2 1747   9.006   1.443   7.445 -1.9557 -1.7918 -0.0339
32611SOL     OW 1748   7.137   6.778   5.683 -0.3758 -0.4755  0.1281
32611SOL    HW1 1749   7.093   6.846   5.734 -0.0121  1.6369 -2.1489
32611SOL    HW2 1750   7.182   6.724   5.748 -2.2654  0.2771  2.1744
32612SOL     OW 1751   0.007   0.935   3.684 -0.1477  0.6008 -0.1499
32612SOL    HW1 1752   0.076   0.871   3.704 -0.0248  1.3546  2.1604
32612SOL    HW2 1753  -0.069   0.882   3.659  0.4092 -0.3684  0.1717
32613SOL     OW 1754   3.251   6.502   5.148  0.0479  0.1561 -0.1564
32613SOL    HW1 1755   3.225   6.475   5.060  1.9961 -0.3795 -0.6134
32613SOL    HW2 1756   3.175   6.549   5.182 -1.4586 -1.2757 -1.3786
32614SOL     OW 1757   2.545   1.164   3.544 -0.4576  0.0866  0.8030
32614SOL    HW1 1758   2.636   1.160   3.513  0.0343 -0.0766  2.1943
32614SOL    HW2 1759   2.493   1.131   3.471  0.8039 -2.0280  0.7944
32615SOL     OW 1760   9.757   1.635   5.295  0.2747  0.6038 -0.1735
32615SOL    HW1 1761   9.801   1.705   5.344 -1.8301  1.2766  0.8340
32615SOL    HW2 1762   9.667   1.666   5.284 -0.9822 -2.2965  1.0635
32616SOL     OW 1763   2.568   7.093   2.921 -0.3200 -0.3610 -0.2105
32616SOL    HW1 1764   2.590   7.032   2.851  2.2588 -0.3414  0.4873
32616SOL    HW2 1765   2.517   7.041   2.983 -2.2837 -0.4852 -1.8371
32617SOL     OW 1766   2.996   3.338   8.518 -0.2400  0.1750 -0.0349
32617SOL    HW1 1767   3.011   3.246   8.500  0.1096  0.1945  0.1293
32617SOL    HW2 1768   3.066   3.383   8.471  0.9642  0.1931  1.6582
32618SOL     OW 1769   4.857   0.571   6.146 -0.0262 -0.1901  0.3798
32618SOL    HW1 1770   4.936   0.541   6.191 -0.6464  1.8239  3.0454
32618SOL    HW2 1771   4.883   0.654   6.105 -0.8033  0.6967  1.6207
32619SOL     OW 1772   7.469   3.185   3.029  0.1889  0.6813 -0.1345
32619SOL    HW1 1773   7.556   3.146   3.025  0.5728  1.5550 -0.6047
32619SOL    HW2 1774   7.416   3.129   2.971  0.2167 -0.3480  0.8065
32620SOL     OW 1775   6.102   0.407   7.821  0.2677  0.0775  0.6013
32620SOL    HW1 1776   6.155   0.393   7.742  0.2848  1.3882  0.3565
32620SOL    HW2 1777   6.022   0.448   7.789 -0.2770 -0.5502  1.1359
32621SOL     OW 1778   4.010   4.133   0.106 -0.0618 -0.0075  0.5646
32621SOL    HW1 1779   4.087   4.120   0.161 -0.7950 -1.6176  1.2745
32621SOL    HW2 1780   3.936   4.129   0.167 -0.7380  2.4508  0.0438
32622SOL     OW 1781   8.418   7.525   9.544 -0.1669 -0.2046  0.1983
32622SOL    HW1 1782   8.503   7.555   9.575 -0.2962  1.6160 -1.0467
32622SOL    HW2 1783   8.438   7.448   9.490  0.3749 -1.3630  1.9685
32623SOL     OW 1784   0.151   7.601   0.194  0.6025  0.5081  0.1944
32623SOL    HW1 1785   0.106   7.650   0.125  0.8888 -0.3570 -0.6228
32623SOL    HW2 1786   0.169   7.516   0.155  2.2962  0.5838  0.7395
32624SOL     OW 1787   6.757   5.815   7.526  0.2093 -0.1554 -0.2764
32624SOL    HW1 1788   6.843   5.820   7.566  0.4518  1.3605 -0.9241
32624SOL    HW2 1789   6.695   5.823   7.599  0.6385  1.8898 -0.0825
32625SOL     OW 1790   3.348   4.955   1.918  0.1954 -0.2279 -0.5307
32625SOL    HW1 1791   3.264   4.998   1.905  1.2762  1.5634 -2.1350
32625SOL    HW2 1792   3.360   4.901   1.841  1.7237  1.8035 -1.8354
32626SOL     OW 1793   2.724   0.779   5.850 -0.0545  0.4227  0.2052
32626SOL    HW1 1794   2.658   0.771   5.781  1.2440 -2.3343 -0.8575
32626SOL    HW2 1795   2.698   0.713   5.915  0.6175  0.6352  0.7014
32627SOL     OW 1796   8.195   5.761   4.737 -0.5782  0.0954 -0.0986
32627SOL    HW1 1797   8.142   5.727   4.664  1.1654 -1.9395 -0.5139
32627SOL    HW2 1798   8.177   5.701   4.809 -1.2479  1.3074  0.7816
32628SOL     OW 1799   1.462   4.056   2.013 -0.0157 -0.0279  0.1567
32628SOL    HW1 1800   1.477   4.128   2.075  2.0129 -0.8188  0.6862
32628SOL    HW2 1801   1.527   4.070   1.944 -0.5225 -0.5847 -0.4375
32629SOL     OW 1802   8.107   7.387   9.917  0.2028  0.0365  0.0172
32629SOL    HW1 1803   8.126   7.404   9.825 -1.8802 -0.9608 -0.6500
32629SOL    HW2 1804   8.190   7.406   9.962  1.2557  0.6022 -2.0229
32630SOL     OW 1805   7.838   5.022   2.270  0.5523  0.2968 -0.1305
32630SOL    HW1 1806   7.892   4.964   2.323  0.6342  1.1360  0.7265
32630SOL    HW2 1807   7.897   5.055   2.203  0.9055  0.6193  0.3380
32631SOL     OW 1808   1.877   0.491   3.977  0.0144  0.1223 -0.7692
32631SOL    HW1 1809   1.793   0.501   3.933 -0.5560  0.8261  0.4346
32631SOL    HW2 1810   1.940   0.530   3.917 -0.5131 -0.3754 -1.6674
32632SOL     OW 1811   2.781   5.311   9.841  0.0745  0.0343 -0.3691
32632SOL    HW1 1812   2.776   5.338   9.749  2.1828 -0.9856 -0.8344
32632SOL    HW2 1813   2.759   5.391   9.890 -1.0912  0.5914 -1.7321
32633SOL     OW 1814   0.612   7.762   2.765 -0.0259  0.1360 -0.2890
32633SOL    HW1 1815   0.547   7.811   2.714 -0.6966 -0.0319  0.3725
32633SOL    HW2 1816   0.683   7.824   2.779 -0.3456  0.5479 -0.4529
32634SOL     OW 1817   4.201   2.990  10.027 -0.2639 -0.0020 -0.6594
32634SOL    HW1 1818   4.237   2.904  10.009 -1.4825 -0.8905  0.8790
32634SOL    HW2 1819   4.109   2.983  10.003 -0.6218  0.5082  0.4701
32635SOL     OW 1820   5.855   4.080   1.496  0.5061  0.1525 -0.1391
32635SOL    HW1 1821   5.824   3.991   1.481  0.2143  0.3660 -0.8920
32635SOL    HW2 1822   5.873   4.085   1.590 -0.2595 -0.4529  0.0479
32636SOL     OW 1823   4.928   7.154   7.805 -0.3126  0.3083  0.1084
32636SOL    HW1 1824   5.003   7.180   7.752 -0.2638  0.2942  0.1701
32636SOL    HW2 1825   4.887   7.236   7.832  0.6866  0.3743  1.5180
32637SOL     OW 1826   3.432   3.838  10.002 -0.0301 -0.1636 -0.1468
32637SOL    HW1 1827   3.408   3.893   9.927  1.9564 -0.6897 -1.2713
32637SOL    HW2 1828   3.368   3.767  10.002 -0.6138  0.3538 -0.7816
32638SOL     OW 1829   6.676   2.469   7.247 -0.2239  0.4856 -0.0635
32638SOL    HW1 1830   6.739   2.521   7.297  0.9264 -0.1903 -0.7413
32638SOL    HW2 1831   6.620   2.429   7.313  2.5658 -2.1049  1.0138
32639SOL     OW 1832   1.844   0.144   2.005  0.1161  0.2112  0.3303
32639SOL    HW1 1833   1.839   0.223   1.951  0.1081 -0.3210 -0.4559
32639SOL    HW2 1834   1.892   0.172   2.084  0.9413  0.7673 -0.3515
32640SOL     OW 1835   1.679   0.680   4.447 -0.1323 -0.1719 -0.4631
32640SOL    HW1 1836   1.750   0.656   4.388 -0.3592 -0.6779 -0.5342
32640SOL    HW2 1837   1.599   0.671   4.395 -0.1438  2.5104 -1.0706
32641SOL     OW 1838   2.064   3.219   6.715 -0.4177  0.2643  0.1380
32641SOL    HW1 1839   2.001   3.166   6.666 -1.1912  0.1914  1.2000
32641SOL    HW2 1840   2.121   3.256   6.647 -1.9902  0.8608 -0.9212
32642SOL     OW 1841   7.582   1.038   4.362  0.0112  0.1656  0.2895
32642SOL    HW1 1842   7.647   1.086   4.413  1.8991  0.4630 -2.2527
32642SOL    HW2 1843   7.631   0.996   4.292 -2.6235  1.8281 -2.8558
32643SOL     OW 1844   3.617   3.084   1.977 -0.5779 -0.2957  0.0110
32643SOL    HW1 1845   3.653   3.086   1.888  0.0452  0.7223  0.2694
32643SOL    HW2 1846   3.624   2.992   2.004  0.0280 -0.4560 -0.6734
32644SOL     OW 1847   8.331   9.094   0.952 -0.5254 -0.0925 -0.4955
32644SOL    HW1 1848   8.336   9.178   0.998 -0.4044  1.0907 -2.5443
32644SOL    HW2 1849   8.256   9.103   0.893 -1.1862 -1.8657  0.0235
32645SOL     OW 1850   3.549   9.758   6.343 -0.2272 -0.2686  0.2217
32645SOL    HW1 1851   3.532   9.749   6.249 -0.0581  0.1785  0.1442
32645SOL    HW2 1852   3.644   9.764   6.350 -0.2787  0.4178  0.3547
32646SOL     OW 1853   4.568   1.761   6.327 -0.1651 -0.2221 -0.2555
32646SOL    HW1 1854   4.590   1.676   6.364 -0.8826 -0.2037  0.2463
32646SOL    HW2 1855   4.577   1.750   6.232 -0.0841 -0.8021 -0.1800
32647SOL     OW 1856   0.409   8.682   5.989 -0.0685 -0.0112  0.0480
32647SOL    HW1 1857   0.450   8.756   5.945 -2.1088  0.3209 -1.4210
32647SOL    HW2 1858   0.315   8.702   5.988 -0.5664 -2.0862  0.6112
32648SOL     OW 1859   7.275   9.538   6.134 -0.2138  0.0697  0.4181
32648SOL    HW1 1860   7.265   9.507   6.044 -0.7305  0.0816  0.4674
32648SOL    HW2 1861   7.202   9.598   6.147 -1.3435 -1.4657  1.4902
32649SOL     OW 1862   3.683   7.417   9.179 -0.2677  0.3348  0.4992
32649SOL    HW1 1863   3.725   7.502   9.167 -0.1398  0.0778 -1.2122
32649SOL    HW2 1864   3.595   7.437   9.210  0.0080  1.0556  0.8172
32650SOL     OW 1865   3.470   3.505   5.940 -0.0688  0.1635  0.2075
32650SOL    HW1 1866   3.401   3.542   5.994 -0.2543 -0.4805  0.4239
32650SOL    HW2 1867   3.549   3.510   5.994  0.1022  1.0802 -0.1139
32651SOL     OW 1868   9.283   6.714   1.967  0.0419  0.4586  0.3933
32651SOL    HW1 1869   9.270   6.800   1.926  0.7529  0.3820 -0.0115
32651SOL    HW2 1870   9.238   6.721   2.051 -0.3747  1.0429  0.1330
32652SOL     OW 1871   6.168   9.051   7.285 -0.1530 -0.2725  0.2528
32652SOL    HW1 1872   6.225   8.979   7.258  0.0808 -0.5536  1.4396
32652SOL    HW2 1873   6.220   9.130   7.272 -0.9559 -0.1152 -2.5734
32653SOL     OW 1874   7.432   1.699   8.072 -0.2779 -0.0868  0.2790
32653SOL    HW1 1875   7.399   1.626   8.020  0.0332  0.4189 -0.6468
32653SOL    HW2 1876   7.411   1.777   8.021  0.1567  0.4117  0.8452
32654SOL     OW 1877   6.870   1.596   7.757 -0.1771 -0.6025  0.3188
32654SOL    HW1 1878   6.811   1.572   7.828  1.5975  0.1961  2.1394
32654SOL    HW2 1879   6.857   1.690   7.744  0.4233 -0.4897  0.4939
32655SOL     OW 1880   7.870   7.686   3.961 -0.5113  0.8844  0.1960
32655SOL    HW1 1881   7.937   7.618   3.952 -0.3130  1.2645 -1.4715
32655SOL    HW2 1882   7.915   7.759   4.004  0.0178  0.9217 -0.3952
32656SOL     OW 1883   2.121   6.322   0.068  0.5894  0.3014  0.1208
32656SOL    HW1 1884   2.058   6.321  -0.004 -1.0396  2.9321  1.3543
32656SOL    HW2 1885   2.183   6.391   0.045  0.4433  0.7076  0.9267
32657SOL     OW 1886   8.877  10.117   0.621  0.0570 -0.4574 -0.0547
32657SOL    HW1 1887   8.932  10.170   0.678  1.3298 -0.9554 -0.7832
32657SOL    HW2 1888   8.830  10.058   0.680 -0.9348  1.0465  0.7164
32658SOL     OW 1889   1.576   2.027   4.574  0.3543  0.0919 -0.0304
32658SOL    HW1 1890   1.633   2.066   4.507  0.0156 -0.3106 -0.5672
32658SOL    HW2 1891   1.488   2.035   4.537 -0.1045  1.8038  1.3248
32659SOL     OW 1892   3.853   7.588   5.479 -0.2178  0.3634 -0.0197
32659SOL    HW1 1893   3.940   7.621   5.460 -0.4825  1.2373  0.2574
32659SOL    HW2 1894   3.826   7.544   5.398  0.8470 -0.7639  0.2095
32660SOL     OW 1895   6.718   0.872   3.825 -0.3644  0.4184 -0.0615
32660SOL    HW1 1896   6.743   0.964   3.822 -0.8034  0.5275 -0.4128
32660SOL    HW2 1897   6.729   0.847   3.916  2.5294  0.0396 -0.3966
32661SOL     OW 1898   8.253   2.452   5.905  0.2990  0.3423 -0.4255
32661SOL    HW1 1899   8.226   2.438   5.815  0.2730  1.4902 -0.6169
32661SOL    HW2 1900   8.234   2.370   5.950 -0.2120 -0.0449 -1.3343
32662SOL     OW 1901   3.880   8.438   9.532  0.3838  0.0391  0.5226
32662SOL    HW1 1902   3.880   8.357   9.481  0.4657  1.0830 -1.2313
32662SOL    HW2 1903   3.874   8.409   9.623  0.3322 -1.9202 -0.0508
32663SOL     OW 1904   3.718   9.466   1.919  0.1313  0.3018  0.4849
32663SOL    HW1 1905   3.658   9.406   1.875 -1.1114  1.7569  0.1041
32663SOL    HW2 1906   3.753   9.521   1.849  1.0122  0.2355  0.8619
32664SOL     OW 1907   8.977   4.294   0.652  0.0359  0.4567  0.1848
32664SOL    HW1 1908   8.998   4.206   0.681  0.5707 -0.0051 -1.5040
32664SOL    HW2 1909   8.889   4.288   0.614 -0.1454  0.7699  0.5465
32665SOL     OW 1910   2.898   1.520   8.812 -0.2670 -0.3781  0.7696
32665SOL    HW1 1911   2.915   1.612   8.832 -0.9333 -0.2344  0.6781
32665SOL    HW2 1912   2.857   1.485   8.891 -2.9385  0.2018 -0.2704
32666SOL     OW 1913   7.302   1.402   4.756  0.0960 -0.0965 -0.2449
32666SOL    HW1 1914   7.366   1.431   4.691  0.9816 -0.0092  0.6417
32666SOL    HW2 1915   7.328   1.313   4.778 -0.3466 -0.2157 -0.1943
32667SOL     OW 1916   3.076   0.567   8.041  0.0271  0.0943  0.1073
32667SOL    HW1 1917   3.049   0.655   8.066  1.0979  0.7261 -0.8703
32667SOL    HW2 1918   3.087   0.520   8.124 -0.0816  1.0243  0.6558
32668SOL     OW 1919   3.583   6.014   7.319 -0.7368 -0.3438 -0.0242
32668SOL    HW1 1920   3.603   5.942   7.259  0.4974  1.0164 -1.3359
32668SOL    HW2 1921   3.668   6.037   7.358 -0.8788  1.1667 -0.5439
32669SOL     OW 1922   0.206   6.424   2.578  0.0067 -0.0072  0.5593
32669SOL    HW1 1923   0.288   6.403   2.534 -0.0899  0.7895 -0.0245
32669SOL    HW2 1924   0.163   6.487   2.520 -1.6075 -1.3407  0.1951
32670SOL     OW 1925   8.924   6.889   9.271  0.2227  0.4059  0.9681
32670SOL    HW1 1926   8.875   6.950   9.215  1.2655  1.1219  0.7924
32670SOL    HW2 1927   8.857   6.843   9.321 -0.7587 -0.2394 -0.8382
32671SOL     OW 1928   6.992   7.164   5.513 -0.2062 -0.1256  0.6587
32671SOL    HW1 1929   6.938   7.226   5.563  1.1714  0.2290  1.7905
32671SOL    HW2 1930   7.078   7.170   5.554  0.7404 -0.5687 -1.1696
32672SOL     OW 1931   7.252   2.598   8.730  0.3295  0.1075 -0.1570
32672SOL    HW1 1932   7.175   2.640   8.693  0.1684 -0.9512 -1.0778
32672SOL    HW2 1933   7.218   2.523   8.779  0.7201  0.0585  0.0471
32673SOL     OW 1934   8.094   4.292   7.510 -0.1124  0.9420 -0.3837
32673SOL    HW1 1935   8.006   4.310   7.543  0.2550  0.7403  0.7634
32673SOL    HW2 1936   8.126   4.221   7.566  0.6468  0.7689 -1.0235
32674SOL     OW 1937   1.722   1.389   6.663  0.2664  0.0897 -0.1717
32674SOL    HW1 1938   1.726   1.438   6.746  0.3239 -1.5780  0.8656
32674SOL    HW2 1939   1.781   1.315   6.676  1.3055  0.4985 -2.2430
32675SOL     OW 1940   1.648   5.254   8.421 -0.1634 -0.1426  0.6842
32675SOL    HW1 1941   1.673   5.262   8.513  0.4655  0.3032  0.4826
32675SOL    HW2 1942   1.670   5.339   8.383 -0.6924 -0.2262  0.1862
32676SOL     OW 1943   7.394   3.988   3.880  0.1831  0.8154  0.3794
32676SOL    HW1 1944   7.462   3.989   3.947 -0.4966 -1.1923  1.1812
32676SOL    HW2 1945   7.437   3.952   3.802  0.7673  2.4022 -0.0694
32677SOL     OW 1946   0.555   5.231   4.269  0.0613 -0.1047  0.0516
32677SOL    HW1 1947   0.511   5.296   4.324  1.4363  0.4916  0.5001
32677SOL    HW2 1948   0.506   5.150   4.285 -1.1834  0.6318  0.1079
32678SOL     OW 1949   5.971   8.130   9.598  0.1831 -0.3139  0.1580
32678SOL    HW1 1950   5.987   8.044   9.636  1.2324 -0.7126 -1.0857
32678SOL    HW2 1951   5.948   8.112   9.507  2.0061  0.7475 -0.5738
32679SOL     OW 1952   8.978   5.703   9.663 -0.6899  0.0644 -0.0491
32679SOL    HW1 1953   9.041   5.682   9.732 -0.0531  0.0486 -0.6301
32679SOL    HW2 1954   8.984   5.798   9.654 -0.4986  0.0265 -0.3379
32680SOL     OW 1955   7.253   5.826   9.527  0.3730  0.6991  0.5410
32680SOL    HW1 1956   7.337   5.790   9.498 -0.1906 -1.6899  1.6422
32680SOL    HW2 1957   7.194   5.813   9.452  0.3167 -0.2480  0.7328
32681SOL     OW 1958   4.986   0.737   0.376  0.5755 -0.0661  0.4980
32681SOL    HW1 1959   5.076   0.719   0.347  0.0579 -1.8544 -0.1423
32681SOL    HW2 1960   4.971   0.828   0.351  1.8964 -0.0066 -0.1978
32682SOL     OW 1961   3.159   9.425   1.478  0.2164  0.3022 -0.4837
32682SOL    HW1 1962   3.088   9.371   1.512  1.5331 -0.4455  1.2589
32682SOL    HW2 1963   3.165   9.403   1.385 -2.5854  1.3139 -1.0052
32683SOL     OW 1964   1.535   9.705   0.681 -0.4021  0.0960  0.1578
32683SOL    HW1 1965   1.480   9.756   0.741 -1.1310  0.0845 -0.4952
32683SOL    HW2 1966   1.617   9.694   0.729 -0.2713  1.7406  0.3906
32684SOL     OW 1967   6.741   2.837   4.560 -0.3580 -0.5013  0.3719
32684SOL    HW1 1968   6.655   2.798   4.577 -0.1563 -1.4966 -0.7879
32684SOL    HW2 1969   6.769   2.869   4.646 -1.9352 -0.0038  0.7492
32685SOL     OW 1970  10.045   1.586   2.902 -0.0338  0.2614 -0.1894
32685SOL    HW1 1971   9.982   1.646   2.942 -0.3675 -0.2872  0.1183
32685SOL    HW2 1972  10.015   1.499   2.928  0.2703 -0.0583 -0.8866
32686SOL     OW 1973   2.306   1.291   0.989 -1.0407 -0.0983  0.2484
32686SOL    HW1 1974   2.369   1.344   0.940 -0.4570  1.4058  2.4998
32686SOL    HW2 1975   2.231   1.348   1.002 -1.4764 -0.7161  0.4781
32687SOL     OW 1976   6.254   2.424   6.297 -0.1405 -0.1641 -0.0143
32687SOL    HW1 1977   6.270   2.341   6.253  0.6402 -0.2024  0.3288
32687SOL    HW2 1978   6.187   2.404   6.362 -0.2917 -0.4180 -0.2437
32688SOL     OW 1979   7.146   2.006   6.321 -0.0199 -0.3147  0.1461
32688SOL    HW1 1980   7.201   1.958   6.258 -0.7132 -0.8826 -0.0449
32688SOL    HW2 1981   7.202   2.016   6.398  0.8289  0.3449 -0.5226
32689SOL     OW 1982   0.336   7.451   5.581 -0.2013  0.2448  0.3647
32689SOL    HW1 1983   0.308   7.389   5.648  1.4147 -0.6393  0.2824
32689SOL    HW2 1984   0.418   7.487   5.614 -1.1873  2.5849  0.5121
32690SOL     OW 1985   0.076   0.913   0.250 -0.2036  0.4017 -0.0341
32690SOL    HW1 1986   0.059   0.833   0.300  1.7052 -1.2664 -1.8401
32690SOL    HW2 1987   0.159   0.945   0.285 -0.4357  0.9908 -0.0253
32691SOL     OW 1988   9.402   8.912   3.855  0.4245  0.2975  0.5388
32691SOL    HW1 1989   9.316   8.892   3.893 -0.5803  1.9421 -0.7369
32691SOL    HW2 1990   9.441   8.826   3.840 -1.6692 -0.5953 -0.2678
32692SOL     OW 1991   6.582   5.595   5.612  0.0153  0.3685 -0.0201
32692SOL    HW1 1992   6.588   5.671   5.670 -1.8575 -1.9598  3.5745
32692SOL    HW2 1993   6.669   5.556   5.613  0.3619  1.1343  0.0632
32693SOL     OW 1994   8.807   0.182   9.914 -0.0288 -0.2856 -0.1939
32693SOL    HW1 1995   8.878   0.201   9.852 -0.4137 -0.3844 -0.6775
32693SOL    HW2 1996   8.729   0.217   9.871 -0.5672 -1.8485 -0.5347
32694SOL     OW 1997   1.305   9.897   3.383 -0.0241 -0.0893 -0.6034
32694SOL    HW1 1998   1.295   9.873   3.291  0.9082  0.1586 -0.7839
32694SOL    HW2 1999   1.230   9.953   3.402 -1.4197 -1.8529 -0.5909
32695SOL     OW 2000   8.020   4.345   5.958 -0.7521 -0.2637  0.4634
32695SOL    HW1 2001   8.070   4.268   5.935 -1.0917 -0.9122  1.7791
32695SOL    HW2 2002   7.949   4.348   5.895 -0.3477 -0.6233 -0.0159
32696SOL     OW 2003   7.715   8.983   4.061  0.2968 -0.0948 -0.2883
32696SOL    HW1 2004   7.632   9.025   4.040  1.1336  0.8278 -1.9464
32696SOL    HW2 2005   7.747   9.029   4.138 -1.1949 -1.1898  1.0459
32697SOL     OW 2006   6.547   1.199   5.221 -0.2618 -0.5506 -0.6080
32697SOL    HW1 2007   6.590   1.283   5.208 -0.2701 -0.5032 -0.3325
32697SOL    HW2 2008   6.501   1.182   5.138  0.7935 -0.9055 -1.1404
32698SOL     OW 2009   9.486   6.170   3.229 -0.2258 -0.8387  0.2348
32698SOL    HW1 2010   9.401   6.133   3.255 -0.3015 -0.6143  0.3086
32698SOL    HW2 2011   9.465   6.258   3.200 -0.2088 -1.2504 -1.0628
32699SOL     OW 2012   2.339   3.052   4.188  0.6757 -0.4949 -0.6073
32699SOL    HW1 2013   2.296   2.971   4.161  0.6633 -0.6470 -0.1354
32699SOL    HW2 2014   2.306   3.069   4.276  1.3778 -0.4744 -0.3384
32700SOL     OW 2015   0.781   8.796   4.289  0.4964  0.0143  0.4006
32700SOL    HW1 2016   0.777   8.889   4.267 -0.4586 -0.2418 -0.5926
32700SOL    HW2 2017   0.874   8.773   4.277  1.0362  1.1369  2.0839
32701SOL     OW 2018   9.084   6.765   6.559  0.2826  0.1545  0.8065
32701SOL    HW1 2019   9.099   6.806   6.474 -0.3176  1.8442  1.4713
32701SOL    HW2 2020   9.104   6.672   6.545 -1.0133  0.1554 -1.4943
32702SOL     OW 2021   0.767   1.724   3.172 -0.0595 -0.7053  0.3009
32702SOL    HW1 2022   0.744   1.817   3.172  3.0395  0.2173  1.6500
32702SOL    HW2 2023   0.700   1.683   3.226 -2.2632  0.4259 -1.4096
32703SOL     OW 2024   5.682   8.204   0.130  0.3217 -0.2219 -0.0886
32703SOL    HW1 2025   5.705   8.292   0.099  1.0441 -0.7443 -1.0877
32703SOL    HW2 2026   5.634   8.165   0.058 -1.7965  0.0171  1.1006
32704SOL     OW 2027   9.697   7.935   6.364  0.4854 -0.2025 -0.5375
32704SOL    HW1 2028   9.772   7.877   6.352  1.1959  0.3937  0.7922
32704SOL    HW2 2029   9.649   7.929   6.282  1.9256 -0.6862 -1.3831
32705SOL     OW 2030   9.696   0.324   4.114  0.0967  0.4256 -0.5516
32705SOL    HW1 2031   9.762   0.390   4.093 -0.9135  1.8038  0.4421
32705SOL    HW2 2032   9.636   0.368   4.175 -1.3158 -1.0155 -0.8324
32706SOL     OW 2033   4.263   8.917   9.478  0.4471  0.3072  0.3866
32706SOL    HW1 2034   4.275   9.003   9.516 -1.1165 -0.3253  2.4748
32706SOL    HW2 2035   4.238   8.934   9.387  0.9478  1.9884  0.5360
32707SOL     OW 2036   3.012   4.537   8.904 -0.3314 -0.3467  0.0573
32707SOL    HW1 2037   3.003   4.495   8.989 -1.7189 -1.2849 -0.5049
32707SOL    HW2 2038   3.073   4.481   8.856 -0.5956 -0.5812 -0.0083
32708SOL     OW 2039   5.742   1.511   0.156  0.2985  0.1496 -0.7790
32708SOL    HW1 2040   5.684   1.480   0.226  0.2271  0.5194 -0.6771
32708SOL    HW2 2041   5.825   1.465   0.173  0.6067  1.0299  0.1691
32709SOL     OW 2042   9.830   0.561   4.042  0.5513 -0.3505 -0.4296
32709SOL    HW1 2043   9.833   0.526   3.953 -0.0349 -0.5049 -0.3910
32709SOL    HW2 2044   9.864   0.650   4.033  0.0598 -0.2031 -0.8922
32710SOL     OW 2045   0.695   7.134   8.313 -0.8332 -0.2683  0.1225
32710SOL    HW1 2046   0.659   7.134   8.402 -1.5661 -0.4190 -0.1633
32710SOL    HW2 2047   0.669   7.048   8.278 -0.2249 -0.3608 -0.1117
32711SOL     OW 2048   5.401   9.955   9.763  0.2782  0.5928  0.3606
32711SOL    HW1 2049   5.330   9.929   9.822 -0.0409 -1.0300 -0.7003
32711SOL    HW2 2050   5.429  10.040   9.798  0.0651 -0.2459  2.8152
32712SOL     OW 2051   6.989   6.442   1.642  0.7078  0.3962  0.0774
32712SOL    HW1 2052   7.021   6.500   1.712 -0.1017  0.6243  0.2789
32712SOL    HW2 2053   6.894   6.456   1.642  0.6129 -0.2073 -0.5332
32713SOL     OW 2054  10.149   8.239   8.817  0.2517 -0.2773  0.5217
32713SOL    HW1 2055  10.226   8.293   8.802  0.0108 -0.6129 -2.4378
32713SOL    HW2 2056  10.081   8.278   8.761 -0.4078 -2.5942 -0.3985
32714SOL     OW 2057   2.124   8.031   1.228  0.2105 -0.0717 -0.3480
32714SOL    HW1 2058   2.104   7.938   1.238  0.7440  0.0755  3.9400
32714SOL    HW2 2059   2.203   8.044   1.280 -1.1983  3.1550  1.2415
32715SOL     OW 2060   2.491   2.933   9.061 -0.6200 -0.5662  0.2362
32715SOL    HW1 2061   2.530   2.888   8.987 -1.5261 -0.5104 -0.2859
32715SOL    HW2 2062   2.429   2.995   9.022 -0.1516  0.4006  0.9770
32716SOL     OW 2063   1.950   5.556   1.851 -0.0145 -0.7904 -0.1728
32716SOL    HW1 2064   1.969   5.612   1.927  1.7416  0.4999 -1.4809
32716SOL    HW2 2065   1.911   5.615   1.787  1.0602 -1.2250 -1.2608
32717SOL     OW 2066   4.096   0.356  10.084 -0.3905 -0.4999 -0.6136
32717SOL    HW1 2067   4.072   0.354  10.176 -0.1727 -1.2347 -0.5634
32717SOL    HW2 2068   4.189   0.380  10.083 -0.1330 -1.4569 -0.5746
32718SOL     OW 2069   9.049   1.099   5.042  0.2483  0.0084 -0.0460
32718SOL    HW1 2070   8.971   1.155   5.048  1.4347  1.7838 -0.3312
32718SOL    HW2 2071   9.016   1.010   5.053 -1.8763  0.6719 -0.6513
32719SOL     OW 2072   8.017   3.398   8.506 -0.0927  0.0128 -0.9975
32719SOL    HW1 2073   7.948   3.450   8.549  0.1166  1.8120 -2.7064
32719SOL    HW2 2074   7.990   3.307   8.519 -0.9357  0.5223  1.3644
32720SOL     OW 2075   7.699   2.674   8.650  0.5069  0.3685 -0.2583
32720SOL    HW1 2076   7.711   2.668   8.745  1.9424  0.9479 -0.3769
32720SOL    HW2 2077   7.615   2.630   8.634  1.5395 -2.2790  0.9530
32721SOL     OW 2078  10.063   8.394   6.016 -0.1331  0.1750 -0.1860
32721SOL    HW1 2079  10.080   8.314   5.967 -0.7965 -0.4703  0.6098
32721SOL    HW2 2080  10.061   8.367   6.108  0.2800  1.2166  0.1466
32722SOL     OW 2081   3.005   0.138   6.603  0.0537  0.6540  0.0226
32722SOL    HW1 2082   3.084   0.146   6.656 -0.1941 -2.2466  1.0149
32722SOL    HW2 2083   3.006   0.215   6.547  3.1676  1.1450  0.5569
32723SOL     OW 2084   5.720   7.506   1.638  0.2187 -0.3762 -0.6224
32723SOL    HW1 2085   5.728   7.558   1.559 -0.6754 -3.0457 -2.6466
32723SOL    HW2 2086   5.648   7.546   1.686  0.4442  1.0086 -1.3918
32724SOL     OW 2087  10.002   5.504   3.147  0.0222  0.9020  0.3352
32724SOL    HW1 2088  10.083   5.486   3.098 -0.5460 -1.3632  0.1325
32724SOL    HW2 2089   9.932   5.491   3.083 -0.5823  1.5848  0.8381
32725SOL     OW 2090   8.872   8.104   9.576 -0.0221  0.1083  0.1449
32725SOL    HW1 2091   8.862   8.083   9.669  2.6607 -1.3271  0.2202
32725SOL    HW2 2092   8.948   8.162   9.573 -0.9053  1.2715 -1.0893
32726SOL     OW 2093   8.967   4.149   0.928  0.6695  0.4832 -1.1376
32726SOL    HW1 2094   8.943   4.239   0.950  1.3128  0.1594  1.0902
32726SOL    HW2 2095   8.980   4.106   1.012  0.2904 -1.7453 -2.1436
32727SOL     OW 2096   4.870   3.181   7.688 -0.3475  0.2204  1.1504
32727SOL    HW1 2097   4.908   3.236   7.757  1.1194  1.2330 -0.3821
32727SOL    HW2 2098   4.937   3.115   7.671 -1.8420 -1.7791  2.5462
32728SOL     OW 2099   6.486   6.893   1.183 -0.1274  0.0318  0.0287
32728SOL    HW1 2100   6.426   6.965   1.165 -0.3078  0.3142  1.5646
32728SOL    HW2 2101   6.460   6.824   1.123 -0.7861  0.7943 -0.5861
32729SOL     OW 2102   5.836   4.526   5.475  0.1627  0.8788  0.4917
32729SOL    HW1 2103   5.900   4.586   5.514 -0.6693 -0.0937  3.5944
32729SOL    HW2 2104   5.818   4.564   5.388  3.3130  2.3086  0.3308
32730SOL     OW 2105   2.686   5.521   0.443  0.0660 -0.4378 -0.0674
32730SOL    HW1 2106   2.597   5.555   0.435 -0.7612 -2.3987  0.2608
32730SOL    HW2 2107   2.701   5.514   0.537  0.9313  0.6589 -0.0920
32731SOL     OW 2108   1.393   7.533   7.201  0.3522 -0.2003  0.0111
32731SOL    HW1 2109   1.336   7.512   7.127  3.3561 -0.8449 -2.3480
32731SOL    HW2 2110   1.403   7.450   7.247 -0.8544  0.0006  0.6507
32732SOL     OW 2111   6.003   2.993   6.992  0.1058 -0.6398  0.0315
32732SOL    HW1 2112   6.017   3.001   6.898  4.4227  0.0972  0.5305
32732SOL    HW2 2113   5.976   2.902   7.005  2.3351 -1.6757 -1.7987
32733SOL     OW 2114   6.547   4.354   7.669  0.2439 -0.6436  0.1333
32733SOL    HW1 2115   6.459   4.321   7.650 -0.0168 -0.0356  0.2762
32733SOL    HW2 2116   6.603   4.277   7.663 -0.0103 -0.7329 -1.8337
32734SOL     OW 2117   5.088   6.991   8.061 -0.0255 -0.1013 -0.4739
32734SOL    HW1 2118   5.084   7.055   7.990 -0.4262  0.0264 -0.3399
32734SOL    HW2 2119   5.057   6.910   8.022  1.4415 -0.4735 -0.9164
32735SOL     OW 2120   4.345   4.471   5.178  0.3107  0.3063 -0.0803
32735SOL    HW1 2121   4.407   4.406   5.210  0.1822 -0.5866 -1.5456
32735SOL    HW2 2122   4.264   4.452   5.224  0.1738 -0.8378 -0.7705
32736SOL     OW 2123   4.107   5.555   0.314 -0.5102 -0.3085  0.4301
32736SOL    HW1 2124   4.154   5.529   0.235 -0.1806 -0.2464  0.6009
32736SOL    HW2 2125   4.062   5.476   0.343  2.4419 -1.4720  2.3242
32737SOL     OW 2126   2.449   9.512   7.293  0.0632 -0.1325 -0.6150
32737SOL    HW1 2127   2.362   9.548   7.313  0.4803  0.4425  0.2324
32737SOL    HW2 2128   2.510   9.579   7.323  0.8499 -1.2769  0.4624
32738SOL     OW 2129   8.656   3.367   4.921  0.5800 -0.0299  0.2564
32738SOL    HW1 2130   8.643   3.457   4.951 -0.8724  0.0526 -0.5364
32738SOL    HW2 2131   8.705   3.376   4.839  0.3458  0.0464  0.1241
32739SOL     OW 2132   8.660   0.296   8.310 -0.1870 -0.1117  0.1595
32739SOL    HW1 2133   8.698   0.365   8.364 -0.1599  1.6641 -2.0179
32739SOL    HW2 2134   8.728   0.274   8.247  0.3409 -3.2274  1.5941
32740SOL     OW 2135   6.972   9.470   4.556 -0.6097 -0.3701 -0.2880
32740SOL    HW1 2136   7.022   9.471   4.637  0.1529  0.9273 -0.7499
32740SOL    HW2 2137   6.882   9.451   4.584  0.3420 -5.0702  0.3451
32741SOL     OW 2138   6.867  10.064   0.600 -0.0322  0.4013  0.1084
32741SOL    HW1 2139   6.888   9.971   0.593 -0.7343  0.0509  1.9677
32741SOL    HW2 2140   6.902  10.089   0.686 -0.3056  1.7179 -0.1535
32742SOL     OW 2141   4.540   8.943   8.302 -0.0156  0.0662  0.0282
32742SOL    HW1 2142   4.477   8.994   8.251 -1.4998 -1.7059 -0.0077
32742SOL    HW2 2143   4.495   8.924   8.384  0.3460 -1.4524 -0.0928
32743SOL     OW 2144   0.753   0.712   0.680  0.0301 -0.5876  0.3537
32743SOL    HW1 2145   0.704   0.641   0.638  0.1695 -0.5137  0.0633
32743SOL    HW2 2146   0.727   0.791   0.633 -2.6128  0.1113  2.6941
32744SOL     OW 2147   1.485   0.638   0.353  0.1762 -0.0704 -1.0284
32744SOL    HW1 2148   1.438   0.657   0.435  2.7989  0.3669  0.4696
32744SOL    HW2 2149   1.439   0.689   0.286  0.6648  3.3329  1.0034
32745SOL     OW 2150   3.463   9.655   4.361 -0.0251  0.0114  0.2261
32745SOL    HW1 2151   3.390   9.710   4.330 -0.2210  0.2303  1.0656
32745SOL    HW2 2152   3.427   9.607   4.435  0.4567 -0.4725  0.1500
32746SOL     OW 2153   0.570   8.904   8.769  0.3178 -0.4244 -0.3530
32746SOL    HW1 2154   0.549   8.930   8.858  0.6553  1.2743 -0.7233
32746SOL    HW2 2155   0.571   8.809   8.770 -0.7636 -0.4389  1.1935
32747SOL     OW 2156   1.708   5.198   5.882  0.1894 -0.2047 -0.0615
32747SOL    HW1 2157   1.780   5.213   5.820  1.2767 -0.4022  1.0885
32747SOL    HW2 2158   1.667   5.117   5.853 -0.4237  0.5788 -1.4914
32748SOL     OW 2159   7.941   2.791   7.932 -0.0484 -0.0700  0.2205
32748SOL    HW1 2160   7.878   2.722   7.953 -0.7496  0.4018 -0.2856
32748SOL    HW2 2161   7.888   2.871   7.929  0.5535  0.3109 -0.3540
32749SOL     OW 2162   6.004   2.533   6.055 -0.6602  0.0172 -0.4104
32749SOL    HW1 2163   6.006   2.572   6.142  1.2706  0.3809 -0.5575
32749SOL    HW2 2164   6.017   2.439   6.070 -1.0684 -0.0166 -0.2684
32750SOL     OW 2165   0.224   8.175   5.174  0.0335  0.2831  0.4714
32750SOL    HW1 2166   0.300   8.121   5.154 -0.3622  0.0593 -0.4947
32750SOL    HW2 2167   0.149   8.115   5.168 -0.3919  0.8735 -0.4032
32751SOL     OW 2168   9.893   4.505   8.955 -0.2702  0.5753  0.4170
32751SOL    HW1 2169   9.953   4.477   8.885 -0.2087 -1.5625  1.2559
32751SOL    HW2 2170   9.863   4.592   8.927  1.0134  0.4871 -1.4336
32752SOL     OW 2171   1.619   4.475   0.618 -0.0408  0.2727 -0.0462
32752SOL    HW1 2172   1.715   4.480   0.622 -0.0038 -0.1695 -0.3560
32752SOL    HW2 2173   1.601   4.396   0.566 -0.5730  0.0113  0.5162
32753SOL     OW 2174   8.704   3.961   1.633  0.3513  0.1464  0.1394
32753SOL    HW1 2175   8.616   3.928   1.652  0.6747 -0.8401 -0.0171
32753SOL    HW2 2176   8.755   3.883   1.610  1.5347  0.5427  1.2356
32754SOL     OW 2177   4.937   1.391   3.035 -0.0955  0.3090 -0.2605
32754SOL    HW1 2178   4.972   1.436   3.112 -0.9241  0.2424  0.1722
32754SOL    HW2 2179   4.842   1.398   3.045 -0.2160  0.9047 -1.6370
32755SOL     OW 2180   1.834   1.488   5.895 -0.0646 -0.1872 -0.8494
32755SOL    HW1 2181   1.831   1.580   5.921  1.0780 -0.2521 -0.4254
32755SOL    HW2 2182   1.766   1.480   5.828 -0.3200  0.9132 -0.7450
32756SOL     OW 2183   7.787   9.828   9.082 -0.4047 -0.4344 -0.4382
32756SOL    HW1 2184   7.753   9.895   9.022 -0.8728 -0.9283 -0.7327
32756SOL    HW2 2185   7.808   9.876   9.162 -2.0167 -0.1199 -0.1547
32757SOL     OW 2186   2.072   0.398   6.500 -0.1209 -0.1157  0.2775
32757SOL    HW1 2187   2.097   0.307   6.486  2.2346  0.5985 -0.6210
32757SOL    HW2 2188   1.985   0.393   6.538 -0.3447 -2.7113 -0.3793
32758SOL     OW 2189   1.940   8.155   6.138 -0.0810 -0.1870  0.6113
32758SOL    HW1 2190   1.966   8.070   6.102  1.9439  0.7770 -0.3847
32758SOL    HW2 2191   2.023   8.197   6.162 -1.1040  1.0948  2.1141
32759SOL     OW 2192   8.593   5.234   7.601  0.2186  0.2749 -0.0795
32759SOL    HW1 2193   8.599   5.139   7.604  0.3943  0.3010  0.5245
32759SOL    HW2 2194   8.683   5.264   7.588  0.4011  0.4051  1.3259
32760SOL     OW 2195   2.000   3.838   0.431 -0.1911 -0.4550 -0.2599
32760SOL    HW1 2196   1.937   3.884   0.486  0.1015  0.5183 -0.7115
32760SOL    HW2 2197   2.025   3.902   0.364  1.9127 -0.4965  0.4055
32761SOL     OW 2198   9.827   6.259   2.132 -0.3822  0.2209  0.3175
32761SOL    HW1 2199   9.752   6.317   2.115  0.8346  1.3356 -1.6095
32761SOL    HW2 2200   9.875   6.256   2.049  1.4960 -0.8019  1.3653
32762SOL     OW 2201   8.407   7.841   0.969 -0.4141 -0.3895 -0.0308
32762SOL    HW1 2202   8.349   7.889   1.028  0.0067  1.8739 -1.3196
32762SOL    HW2 2203   8.360   7.837   0.886  0.5954  0.0505 -0.6424
32763SOL     OW 2204   2.923   8.826   1.770  0.1138 -0.6979  0.6694
32763SOL    HW1 2205   2.935   8.818   1.864 -1.1607 -2.3755  0.7309
32763SOL    HW2 2206   2.873   8.748   1.745 -2.5398  1.3044 -0.8385
32764SOL     OW 2207   1.303   6.991   4.540  0.4753  0.0039  0.2516
32764SOL    HW1 2208   1.391   7.021   4.518  0.0855  0.2416 -1.0539
32764SOL    HW2 2209   1.277   7.046   4.614  0.5059  1.6342 -0.8931
32765SOL     OW 2210   5.637   5.446   5.946  0.6454 -0.2372 -0.2987
32765SOL    HW1 2211   5.649   5.375   5.883 -0.1058 -1.0963  0.4964
32765SOL    HW2 2212   5.587   5.406   6.017 -2.4004  1.7474 -1.1060
32766SOL     OW 2213   6.173   7.137   4.163  0.4638  0.2209  0.1095
32766SOL    HW1 2214   6.253   7.116   4.114  1.3227 -0.6080  1.7467
32766SOL    HW2 2215   6.177   7.231   4.177  0.6739  0.3244 -0.6200
32767SOL     OW 2216   5.127   5.913   9.332  0.8210 -0.0695 -0.8715
32767SOL    HW1 2217   5.181   5.834   9.331 -1.2871 -1.6472  0.7710
32767SOL    HW2 2218   5.068   5.903   9.257  0.5529 -0.0789 -0.6624
32768SOL     OW 2219   1.288   7.503   6.924  0.3071  0.2384 -0.0824
32768SOL    HW1 2220   1.274   7.426   6.870  0.5837 -0.9098  1.4191
32768SOL    HW2 2221   1.234   7.571   6.883 -0.3221 -0.8658 -1.1664
32769SOL     OW 2222   6.111   9.755   3.886 -0.4774  0.3479  0.2796
32769SOL    HW1 2223   6.105   9.829   3.825 -3.0848  0.2375  0.2613
32769SOL    HW2 2224   6.175   9.783   3.951 -1.1360  2.5099  0.0938
32770SOL     OW 2225   8.105   4.252   8.951 -0.2273 -0.4046  0.1735
32770SOL    HW1 2226   8.102   4.308   8.874  0.9419 -1.2111 -0.4800
32770SOL    HW2 2227   8.171   4.292   9.008  0.0195 -0.6553  0.0677
32771SOL     OW 2228   9.818   6.894   3.789 -0.1266 -0.2289 -0.0549
32771SOL    HW1 2229   9.754   6.929   3.728 -1.3858 -3.7232 -0.9735
32771SOL    HW2 2230   9.891   6.865   3.734  0.1956 -0.4299  0.4696
32772SOL     OW 2231   9.549   2.708   1.200 -0.4575  0.2969 -0.0687
32772SOL    HW1 2232   9.499   2.729   1.122 -1.8858 -1.1155  0.4267
32772SOL    HW2 2233   9.505   2.754   1.271  0.4658  1.0730  0.0283
32773SOL     OW 2234   5.703   2.720   6.463  0.0075 -0.5624  0.2266
32773SOL    HW1 2235   5.698   2.699   6.370 -1.3511 -2.3337  0.6425
32773SOL    HW2 2236   5.732   2.640   6.505  1.6287  0.5099  1.2683
32774SOL     OW 2237   1.115   1.497   4.157  0.0873 -0.1698 -0.2625
32774SOL    HW1 2238   1.116   1.587   4.124 -0.0995  0.2404  0.7994
32774SOL    HW2 2239   1.105   1.506   4.252  0.7856 -1.2909 -0.0528
32775SOL     OW 2240   4.353   7.324   3.256 -0.0572 -0.3282  0.1079
32775SOL    HW1 2241   4.275   7.346   3.308 -0.9929  0.1358 -1.4259
32775SOL    HW2 2242   4.325   7.251   3.200  0.3819  0.2712 -0.9234
32776SOL     OW 2243   0.732   4.750   8.290  0.4896 -0.1974  0.1282
32776SOL    HW1 2244   0.725   4.832   8.339 -1.6107  1.1926 -2.2166
32776SOL    HW2 2245   0.647   4.708   8.301  1.1825 -1.5823  0.4404
32777SOL     OW 2246   7.488   6.392   4.698  0.0041  0.1407  0.8165
32777SOL    HW1 2247   7.535   6.453   4.641  0.2296 -1.2272 -0.5398
32777SOL    HW2 2248   7.481   6.438   4.782  1.7376  1.3030  0.3874
32778SOL     OW 2249   1.548   8.829   6.766  0.0332 -0.4959  0.5630
32778SOL    HW1 2250   1.614   8.812   6.834 -0.3987 -2.6534  0.5217
32778SOL    HW2 2251   1.466   8.841   6.815  0.3010  1.6634  0.5825
32779SOL     OW 2252   5.828   5.204   1.508 -0.0431 -0.1191  0.0797
32779SOL    HW1 2253   5.771   5.162   1.572  1.3722 -1.4388  0.5143
32779SOL    HW2 2254   5.788   5.184   1.424 -1.5168  1.0115  0.4616
32780SOL     OW 2255   5.564   8.848   6.181  0.2661  0.2729  0.0003
32780SOL    HW1 2256   5.605   8.894   6.108  0.3775  1.4018  0.7502
32780SOL    HW2 2257   5.568   8.756   6.156  3.4761  0.2488  0.1093
32781SOL     OW 2258   5.422   1.748   3.857 -0.1839  0.8246 -0.0175
32781SOL    HW1 2259   5.491   1.770   3.795 -0.2396  1.2910  0.0839
32781SOL    HW2 2260   5.468   1.717   3.935 -0.1187 -1.8696 -1.0148
32782SOL     OW 2261   9.310   4.118   1.643 -0.2751  0.0426 -0.0028
32782SOL    HW1 2262   9.331   4.090   1.554 -0.8983  1.8566 -0.7496
32782SOL    HW2 2263   9.234   4.176   1.633 -0.0109  0.7246  1.6496
32783SOL     OW 2264   4.021   7.916   1.090  0.6222  0.8174 -0.2908
32783SOL    HW1 2265   3.930   7.891   1.102  0.6905  0.8946  0.4294
32783SOL    HW2 2266   4.025   8.007   1.118  0.5932  1.3500 -1.8960
32784SOL     OW 2267   9.118   6.840   8.804 -0.5476  0.1446 -0.0236
32784SOL    HW1 2268   9.064   6.917   8.821  0.8375  1.5693 -1.6482
32784SOL    HW2 2269   9.115   6.829   8.708 -0.7230 -1.8513  0.1660
32785SOL     OW 2270   5.266   8.115   2.146 -0.1221  0.2624 -0.0435
32785SOL    HW1 2271   5.293   8.117   2.055  1.1093 -0.0389  0.2902
32785SOL    HW2 2272   5.348   8.106   2.195 -0.4570  3.1856  1.2610
32786SOL     OW 2273   9.776   6.304   5.208 -0.1483 -1.0362  0.1588
32786SOL    HW1 2274   9.709   6.320   5.274  1.1998 -0.4402  1.4367
32786SOL    HW2 2275   9.852   6.355   5.237  0.5875 -0.9819 -1.7104
32787SOL     OW 2276   8.473   8.086   5.470 -0.8403  0.1977 -0.1610
32787SOL    HW1 2277   8.549   8.144   5.472 -0.2947 -0.5010  1.1472
32787SOL    HW2 2278   8.507   8.003   5.435 -0.9972 -0.1160  0.4163
32788SOL     OW 2279   3.484   6.960   1.840  0.1836  0.6160 -0.0051
32788SOL    HW1 2280   3.429   6.888   1.809 -0.4853  0.5220  1.3134
32788SOL    HW2 2281   3.553   6.968   1.775  1.3835 -2.4793  0.7315
32789SOL     OW 2282   4.257   2.369   6.667 -0.4201 -0.0898  0.1889
32789SOL    HW1 2283   4.179   2.345   6.618  0.8048 -2.2407 -0.8507
32789SOL    HW2 2284   4.239   2.457   6.700 -3.1235 -0.4063 -0.2667
32790SOL     OW 2285   3.911   3.584   6.878 -0.1413 -0.0132 -0.1818
32790SOL    HW1 2286   3.839   3.589   6.942 -1.1251  2.4474 -1.3680
32790SOL    HW2 2287   3.977   3.645   6.912  0.4724 -0.6639 -0.1932
32791SOL     OW 2288   7.679   3.461   8.103  0.6030  0.1619 -0.1232
32791SOL    HW1 2289   7.620   3.488   8.034  0.2453  0.5275  0.3209
32791SOL    HW2 2290   7.735   3.395   8.062  0.4290  0.4067 -0.7691
32792SOL     OW 2291   8.407   7.238   5.858 -0.5289  0.1234  0.1480
32792SOL    HW1 2292   8.372   7.195   5.936  0.0679 -0.9297 -0.1305
32792SOL    HW2 2293   8.499   7.212   5.856 -0.2730  1.0296 -0.3234
32793SOL     OW 2294   4.780   6.628   3.927  0.0826  0.4667 -0.3478
32793SOL    HW1 2295   4.728   6.661   3.854 -0.0528  1.0493  0.0062
32793SOL    HW2 2296   4.843   6.568   3.886 -0.7852 -0.1743 -0.7894
32794SOL     OW 2297   4.167   9.006   9.237  0.0426  0.5281  1.2930
32794SOL    HW1 2298   4.072   9.006   9.243 -0.1325 -1.3729 -0.3690
32794SOL    HW2 2299   4.185   9.041   9.149  0.5729 -2.9198 -0.1117
32795SOL     OW 2300   3.398   1.491   8.708 -0.2003 -0.6761 -0.8449
32795SOL    HW1 2301   3.373   1.502   8.800  1.7633 -0.1626 -0.3262
32795SOL    HW2 2302   3.394   1.580   8.672 -1.3616 -0.9348 -1.3847
32796SOL     OW 2303   4.519   4.433   5.650  0.1293 -0.0591 -0.1889
32796SOL    HW1 2304   4.578   4.462   5.580 -0.5039  0.1361 -0.6522
32796SOL    HW2 2305   4.519   4.337   5.642  0.6735 -0.0861  0.0611
32797SOL     OW 2306   0.519   7.521   4.759 -0.2221 -0.0571 -0.1587
32797SOL    HW1 2307   0.594   7.466   4.738 -0.5680 -1.4284  1.9297
32797SOL    HW2 2308   0.556   7.594   4.809 -0.3361 -1.2613  1.7554
32798SOL     OW 2309   7.551   5.109   6.175  0.1881 -0.4456 -1.2254
32798SOL    HW1 2310   7.610   5.036   6.155  1.3755  0.1592 -0.1335
32798SOL    HW2 2311   7.608   5.187   6.170 -0.2938  0.0758  0.6822
32799SOL     OW 2312   2.644   1.222   2.133  0.4882  0.4052 -0.2490
32799SOL    HW1 2313   2.698   1.207   2.056 -1.1357 -0.6793 -1.2610
32799SOL    HW2 2314   2.573   1.279   2.102 -0.9209 -1.1055  0.0094
32800SOL     OW 2315   5.007   6.836   3.440  0.2803  0.3165  0.3014
32800SOL    HW1 2316   4.944   6.788   3.387 -0.9174  1.7173  0.3997
32800SOL    HW2 2317   5.086   6.838   3.387 -1.3831  3.2033 -2.3757
32801SOL     OW 2318   3.386   1.606   6.589 -0.3649  0.1984 -0.5914
32801SOL    HW1 2319   3.456   1.616   6.653  0.4529 -1.5488 -1.1570
32801SOL    HW2 2320   3.307   1.591   6.641 -0.0930  0.8927  0.0240
32802SOL     OW 2321   2.129   0.100   6.070 -0.2887 -0.4545  0.0739
32802SOL    HW1 2322   2.111   0.076   5.979  1.5846 -1.0137 -0.1950
32802SOL    HW2 2323   2.158   0.191   6.066  0.2215 -0.6149  0.0387
32803SOL     OW 2324   7.973   6.369   9.253  0.3937 -0.0686  0.1786
32803SOL    HW1 2325   7.928   6.408   9.179 -1.7781 -1.3789  0.7182
32803SOL    HW2 2326   7.907   6.365   9.322  1.4809 -1.6037  1.2055
32804SOL     OW 2327   5.400   1.583   1.693 -0.5493 -0.3731 -0.2674
32804SOL    HW1 2328   5.460   1.577   1.618  2.3493 -1.3960  1.9294
32804SOL    HW2 2329   5.435   1.520   1.756 -2.0135  1.3727  2.4826
32805SOL     OW 2330   7.828   9.141   8.440  0.5064  0.4655 -0.1574
32805SOL    HW1 2331   7.865   9.219   8.482 -0.8696  1.1990 -0.2459
32805SOL    HW2 2332   7.736   9.140   8.469  0.2985 -0.6652 -0.8212
32806SOL     OW 2333   6.219   9.283   6.478  0.2815  0.2381  0.1142
32806SOL    HW1 2334   6.188   9.322   6.560 -1.5065  0.4729 -0.6190
32806SOL    HW2 2335   6.141   9.277   6.424  1.4997  0.5174 -1.7618
32807SOL     OW 2336   5.186   9.844   8.634  0.0767 -0.2975  0.0229
32807SOL    HW1 2337   5.255   9.782   8.660 -0.5949 -1.2182 -0.3354
32807SOL    HW2 2338   5.142   9.865   8.716  0.7522  0.2684  0.2497
32808SOL     OW 2339   5.961   7.189   0.451  0.1767  0.4826 -0.1926
32808SOL    HW1 2340   5.984   7.258   0.512 -1.3216  1.2117 -0.4120
32808SOL    HW2 2341   5.909   7.233   0.383 -1.1478 -0.8817 -0.1309
32809SOL     OW 2342   6.060   0.918   9.986 -0.6074 -0.5233 -0.5686
32809SOL    HW1 2343   6.010   0.945  10.063 -0.7246  0.3094 -0.9270
32809SOL    HW2 2344   6.131   0.864  10.021  0.1715  0.9876  0.2778
32810SOL     OW 2345   5.422   8.352   4.007  0.5091  0.1170 -0.0389
32810SOL    HW1 2346   5.489   8.414   3.981 -0.9752  1.8044 -0.0142
32810SOL    HW2 2347   5.386   8.319   3.924 -0.4204  1.2543 -0.1106
32811SOL     OW 2348   0.572   9.504   9.668  0.4332 -0.1554  0.7239
32811SOL    HW1 2349   0.577   9.409   9.673  0.4904 -0.2854 -1.0497
32811SOL    HW2 2350   0.609   9.525   9.582 -0.5841  1.3767  0.6223
32812SOL     OW 2351   8.601   9.745   9.757  0.0607  0.1438 -0.5565
32812SOL    HW1 2352   8.661   9.729   9.829 -0.0992 -1.0301 -0.6678
32812SOL    HW2 2353   8.515   9.754   9.799  0.1066  0.4523 -0.5224
32813SOL     OW 2354   4.361   2.243   3.605 -0.3810 -0.0170  0.1023
32813SOL    HW1 2355   4.317   2.298   3.541  1.6159  3.0995  1.1351
32813SOL    HW2 2356   4.418   2.186   3.553  0.9875  2.2341 -1.0116
32814SOL     OW 2357   3.179   9.024   4.774  0.2004 -0.0110 -0.6726
32814SOL    HW1 2358   3.088   9.018   4.803  0.2563 -1.0165 -0.6535
32814SOL    HW2 2359   3.195   9.117   4.762 -0.6720  0.2135 -0.1595
32815SOL     OW 2360   2.505   6.217   3.711  0.0969 -0.2315 -0.5185
32815SOL    HW1 2361   2.471   6.271   3.640 -1.4511  0.9873  1.0500
32815SOL    HW2 2362   2.556   6.277   3.765  1.2067 -1.1221 -0.5441
32816SOL     OW 2363   2.715   5.148   4.309 -0.3041 -0.4363  0.2475
32816SOL    HW1 2364   2.788   5.203   4.337  0.3021 -0.6157 -0.9432
32816SOL    HW2 2365   2.638   5.204   4.320 -0.0156 -0.2574  1.5378
32817SOL     OW 2366   6.852   5.427   3.053 -0.4469  0.1804  0.1822
32817SOL    HW1 2367   6.768   5.473   3.056 -0.0283  1.2568 -2.3149
32817SOL    HW2 2368   6.840   5.359   2.988  0.9609  1.2054 -1.2108
32818SOL     OW 2369   8.290   2.037   5.365  0.1865  0.1465 -0.0192
32818SOL    HW1 2370   8.239   2.050   5.445 -2.9793 -3.1838 -1.2318
32818SOL    HW2 2371   8.358   1.975   5.390  0.8462  1.0760  0.5779
32819SOL     OW 2372   8.272   4.139   1.406 -0.6215  0.4199 -0.5329
32819SOL    HW1 2373   8.362   4.141   1.438 -1.1045 -1.3205  1.0698
32819SOL    HW2 2374   8.275   4.078   1.332 -0.3409  1.1058 -1.1081
32820SOL     OW 2375   4.158   4.847   0.785 -0.1271  0.2847 -0.3180
32820SOL    HW1 2376   4.175   4.769   0.838 -2.8185 -0.2336 -0.0795
32820SOL    HW2 2377   4.196   4.919   0.835  1.6206 -0.7188 -0.1105
32821SOL     OW 2378   7.239   3.310   6.588 -0.1742  0.1293 -0.2419
32821SOL    HW1 2379   7.179   3.240   6.564 -0.4961  0.4328 -0.3287
32821SOL    HW2 2380   7.184   3.388   6.595  0.4839  0.8258 -2.2706
32822SOL     OW 2381   6.397   9.426   0.421 -0.0010  0.5058 -0.1017
32822SOL    HW1 2382   6.483   9.401   0.388 -0.5460 -0.3686 -0.8931
32822SOL    HW2 2383   6.375   9.357   0.484  0.9404  2.0387  2.0613
32823SOL     OW 2384   7.372   2.114   1.381 -0.0479  0.2094  0.1536
32823SOL    HW1 2385   7.462   2.129   1.410  0.8610 -0.8639 -1.9343
32823SOL    HW2 2386   7.360   2.019   1.386 -1.5081  0.3980  1.4520
32824SOL     OW 2387   0.453   7.727   7.054  0.1837 -0.0448  0.2439
32824SOL    HW1 2388   0.435   7.731   7.147 -0.3041 -0.7035  0.1818
32824SOL    HW2 2389   0.510   7.651   7.043  0.2980  0.0711  0.0176
32825SOL     OW 2390   3.333   7.992   2.425 -0.0030 -0.4428  0.4572
32825SOL    HW1 2391   3.323   8.024   2.514 -0.4757  0.6853  0.0157
32825SOL    HW2 2392   3.316   8.068   2.370 -1.0420 -1.4098 -0.6335
32826SOL     OW 2393   2.019   4.784   4.724  0.2243 -0.3216  0.0761
32826SOL    HW1 2394   2.061   4.727   4.789  0.4204 -0.9211 -0.5575
32826SOL    HW2 2395   2.047   4.748   4.640  0.0819  0.5272 -0.3418
32827SOL     OW 2396   1.795   1.304   5.190 -0.2064 -0.1375  0.4870
32827SOL    HW1 2397   1.855   1.285   5.262  2.1470 -1.4703 -1.6395
32827SOL    HW2 2398   1.771   1.218   5.156 -2.7798  0.4034  0.7503
32828SOL     OW 2399   1.666   1.578   7.966  0.2614  0.0577 -0.2127
32828SOL    HW1 2400   1.743   1.616   7.924  0.7845 -2.2838 -1.5333
32828SOL    HW2 2401   1.670   1.485   7.944 -1.3245 -0.6747  2.2558
32829SOL     OW 2402   2.864   2.637   2.351 -0.8560 -0.2740  0.2015
32829SOL    HW1 2403   2.894   2.582   2.279 -0.5556 -1.2021  1.0067
32829SOL    HW2 2404   2.805   2.580   2.401 -1.0255  0.3401  0.7117
32830SOL     OW 2405   6.269   5.077   0.163  0.3047 -0.3438  0.4634
32830SOL    HW1 2406   6.334   5.038   0.104  0.9688  0.7535  0.4422
32830SOL    HW2 2407   6.222   5.139   0.108  0.0394 -0.2715  0.7706
32831SOL     OW 2408   1.578   2.567   6.892  0.0562 -0.0950 -0.2446
32831SOL    HW1 2409   1.615   2.558   6.804  1.8826  0.4314  0.4084
32831SOL    HW2 2410   1.653   2.593   6.946 -1.2244  0.5747  1.2803
32832SOL     OW 2411   3.257   1.350   9.388 -0.6525  0.7897 -0.9912
32832SOL    HW1 2412   3.340   1.302   9.384 -0.7346  0.6778 -1.4014
32832SOL    HW2 2413   3.249   1.377   9.479 -2.0947 -2.6173  0.0478
32833SOL     OW 2414   9.539   1.358   7.000 -0.0813  0.6021 -0.4380
32833SOL    HW1 2415   9.633   1.340   6.996  0.0511  1.3666 -1.0884
32833SOL    HW2 2416   9.519   1.368   7.093  0.0347 -1.7411 -0.0831
32834SOL     OW 2417   2.750   1.144   3.873  0.3720 -0.3156 -0.6652
32834SOL    HW1 2418   2.832   1.189   3.852  0.4716 -0.7740 -1.2875
32834SOL    HW2 2419   2.684   1.213   3.874  0.8079  0.0910  0.0886
32835SOL     OW 2420   3.049   3.075   0.438  0.4437 -0.5376  0.1887
32835SOL    HW1 2421   3.073   2.996   0.486 -1.1666 -0.1442  1.7028
32835SOL    HW2 2422   3.122   3.135   0.455 -0.2601 -0.2561  2.5677
32836SOL     OW 2423   7.162   2.604   5.863  0.0961  0.3276 -0.5771
32836SOL    HW1 2424   7.176   2.652   5.945 -0.3007  0.8035 -0.7844
32836SOL    HW2 2425   7.072   2.624   5.839  0.3205  0.4750 -1.3164
32837SOL     OW 2426   2.068   2.660   4.898  0.4931  0.3328 -0.7429
32837SOL    HW1 2427   2.021   2.610   4.831  0.2318  1.2872 -1.2918
32837SOL    HW2 2428   2.139   2.704   4.850  0.5377  0.7198 -0.3265
32838SOL     OW 2429   6.384   8.340   2.475 -0.3456  0.7627 -0.4525
32838SOL    HW1 2430   6.390   8.408   2.542 -2.6758 -0.8371  1.5694
32838SOL    HW2 2431   6.311   8.368   2.419 -0.2261  0.7461 -0.6157
32839SOL     OW 2432   4.000   4.945   4.863 -0.3999 -0.2568  0.1683
32839SOL    HW1 2433   4.017   4.926   4.955  0.9187 -2.4950 -0.4491
32839SOL    HW2 2434   4.040   5.030   4.848  1.0732 -0.7091  1.2630
32840SOL     OW 2435   3.583   9.735   2.687  0.2418 -0.0035 -0.9304
32840SOL    HW1 2436   3.656   9.793   2.670  1.1680 -1.4111 -2.0443
32840SOL    HW2 2437   3.551   9.760   2.773  2.4753  0.2208 -0.1100
32841SOL     OW 2438   4.945   2.555   1.659 -0.0430 -0.7170 -0.1457
32841SOL    HW1 2439   5.014   2.597   1.709 -0.1298 -2.1532  1.2539
32841SOL    HW2 2440   4.871   2.549   1.720 -0.5658 -1.4488 -0.8233
32842SOL     OW 2441   1.127   8.110   2.384  0.0538 -0.2682 -0.0070
32842SOL    HW1 2442   1.037   8.081   2.370  0.5106 -1.1171 -1.5190
32842SOL    HW2 2443   1.179   8.050   2.330  1.5269  0.1865  0.8581
32843SOL     OW 2444   3.051   7.563   3.052  0.0599  0.0061 -0.1620
32843SOL    HW1 2445   3.097   7.642   3.081 -2.0326  1.2099  0.0198
32843SOL    HW2 2446   3.103   7.532   2.978  2.1838  0.2265  1.1387
32844SOL     OW 2447   5.575   0.626   5.986 -0.3969  0.5356 -0.3228
32844SOL    HW1 2448   5.490   0.584   5.995 -0.9699  0.8450 -3.2490
32844SOL    HW2 2449   5.618   0.611   6.070 -3.0412 -0.2257  1.0175
32845SOL     OW 2450   9.942   4.970   2.844  0.1550 -0.2520 -0.3036
32845SOL    HW1 2451   9.870   4.911   2.863  0.8814 -1.7684 -2.0138
32845SOL    HW2 2452  10.020   4.924   2.876  0.7334 -0.2663 -1.6985
32846SOL     OW 2453   2.586   7.653   9.615 -0.3773  0.0965  0.3592
32846SOL    HW1 2454   2.620   7.566   9.592 -1.5957  0.0855 -1.6100
32846SOL    HW2 2455   2.491   7.645   9.610 -0.5364  1.3504  0.8966
32847SOL     OW 2456   8.902   7.170   7.344 -0.2967 -0.2185  0.0726
32847SOL    HW1 2457   8.844   7.154   7.419  0.3208  0.9309  0.8315
32847SOL    HW2 2458   8.968   7.231   7.378  1.2183 -1.2922 -0.8277
32848SOL     OW 2459   9.886   5.172   3.745 -0.0012  0.1210  0.6304
32848SOL    HW1 2460   9.901   5.077   3.753  1.5268  0.3269  0.4350
32848SOL    HW2 2461   9.882   5.187   3.651  0.2263  0.3151  0.6514
32849SOL     OW 2462   3.482   4.218  10.012  0.1984 -0.2829  0.1596
32849SOL    HW1 2463   3.511   4.129  10.033  0.1037 -0.9472 -2.2434
32849SOL    HW2 2464   3.467   4.217   9.918 -1.0767  1.9444  0.2626
32850SOL     OW 2465   0.455   3.822   9.804  0.3767 -0.3684 -0.4151
32850SOL    HW1 2466   0.416   3.737   9.826  0.8858 -0.6572 -0.5954
32850SOL    HW2 2467   0.383   3.884   9.810 -0.1152 -0.8904 -0.7515
32851SOL     OW 2468   1.528   7.248   9.568  0.0965  0.3714 -0.4940
32851SOL    HW1 2469   1.541   7.240   9.662 -0.7761 -0.4688 -0.4305
32851SOL    HW2 2470   1.560   7.336   9.546 -0.6872  0.9875  0.7580
32852SOL     OW 2471   2.930   9.640   3.963  0.0566  0.2561  0.2477
32852SOL    HW1 2472   2.944   9.546   3.973 -0.2781  0.2261  0.4432
32852SOL    HW2 2473   2.933   9.655   3.869  1.4198  0.2578  0.2682
32853SOL     OW 2474   9.099   9.184   9.978  0.0958 -0.1248  0.4666
32853SOL    HW1 2475   9.107   9.271   9.940 -2.6838 -1.0012 -2.6358
32853SOL    HW2 2476   9.062   9.198  10.065 -0.3358  1.7997  0.0112
32854SOL     OW 2477   5.880   7.427   0.716 -0.2732  0.5244  0.0161
32854SOL    HW1 2478   5.899   7.390   0.803 -0.9820  1.2174  0.4850
32854SOL    HW2 2479   5.870   7.521   0.733 -0.1954  0.6921 -0.8627
32855SOL     OW 2480   9.116   0.923   8.362  0.4779  0.1286  0.2900
32855SOL    HW1 2481   9.119   0.844   8.308  1.1476  0.0105  0.4839
32855SOL    HW2 2482   9.068   0.896   8.441 -0.1536  0.1918 -0.0665
32856SOL     OW 2483   4.453   4.556   4.733 -0.3052  0.3300  0.0463
32856SOL    HW1 2484   4.386   4.622   4.714  0.5542  2.3604  3.2760
32856SOL    HW2 2485   4.423   4.513   4.813  0.7999 -0.8324 -0.1373
32857SOL     OW 2486   2.416   6.302   6.156 -0.3287  0.1935  0.0868
32857SOL    HW1 2487   2.483   6.327   6.093 -0.7142 -0.7777 -0.7384
32857SOL    HW2 2488   2.438   6.351   6.235  1.7881 -0.6526  0.0908
32858SOL     OW 2489   3.759   8.857   8.495 -0.0101 -0.2703  0.0693
32858SOL    HW1 2490   3.695   8.798   8.454 -0.2710  0.8531 -1.2158
32858SOL    HW2 2491   3.792   8.910   8.422 -0.9204  2.2297  1.3728
32859SOL     OW 2492   6.695   8.401   3.247 -0.0038  0.0611 -0.1579
32859SOL    HW1 2493   6.614   8.390   3.297  1.0568  2.0904  2.2381
32859SOL    HW2 2494   6.670   8.457   3.173 -0.8234  0.5714  0.4925
32860SOL     OW 2495   6.864   0.186   4.325  0.1880  0.0857 -0.3183
32860SOL    HW1 2496   6.790   0.143   4.368  1.7169 -1.9943  0.3819
32860SOL    HW2 2497   6.827   0.225   4.246 -1.9547  0.6033  0.8801
32861SOL     OW 2498   8.184   1.541   6.348 -0.5734 -0.6437 -0.5514
32861SOL    HW1 2499   8.122   1.475   6.378  0.5190 -1.3612  0.1931
32861SOL    HW2 2500   8.168   1.616   6.404 -0.6624 -0.8861 -0.2484
32862SOL     OW 2501   1.932   3.495   5.091 -0.4901 -0.2186 -0.4693
32862SOL    HW1 2502   1.887   3.441   5.156  0.5618 -0.7776 -0.1793
32862SOL    HW2 2503   2.000   3.540   5.141 -0.7232  0.6221 -0.8965
32863SOL     OW 2504   5.743   0.420   4.854 -0.4656 -0.0071  0.7146
32863SOL    HW1 2505   5.831   0.453   4.874  0.7646 -2.1070 -0.7977
32863SOL    HW2 2506   5.739   0.336   4.900 -1.7544  0.1176  0.8500
32864SOL     OW 2507   1.995   4.579   6.327  0.1202  0.2409  0.5567
32864SOL    HW1 2508   2.000   4.496   6.280  0.4918  0.7579 -0.3385
32864SOL    HW2 2509   2.086   4.607   6.337 -0.0715  1.6874 -1.2715
32865SOL     OW 2510   2.358   4.805   2.642 -0.4653 -0.3572 -0.0078
32865SOL    HW1 2511   2.435   4.749   2.639  0.4981  0.8921  0.2990
32865SOL    HW2 2512   2.355   4.846   2.556  1.9717  3.0103  1.2423
32866SOL     OW 2513   9.457   7.960   9.848 -0.2349  0.4227  0.3772
32866SOL    HW1 2514   9.534   8.005   9.813 -0.2762  0.0634 -0.1931
32866SOL    HW2 2515   9.408   8.028   9.894 -1.1777  1.3927 -1.9224
32867SOL     OW 2516   1.761   0.310   0.915 -0.1755  0.0042 -0.1997
32867SOL    HW1 2517   1.789   0.226   0.879 -0.5232 -0.6608  1.0106
32867SOL    HW2 2518   1.755   0.295   1.009 -0.4428  1.3365  0.0218
32868SOL     OW 2519   3.907   6.027   7.674  0.1131  0.2387  0.2648
32868SOL    HW1 2520   3.886   5.944   7.717  1.6564 -1.2677 -1.7016
32868SOL    HW2 2521   4.001   6.039   7.687  1.2574 -1.5074 -4.2800
32869SOL     OW 2522   3.283   9.913   3.700 -0.2928  0.1497 -0.4096
32869SOL    HW1 2523   3.361   9.966   3.684  0.6364 -0.9573  0.2702
32869SOL    HW2 2524   3.243   9.952   3.777  1.2711 -1.0069  1.0796
32870SOL     OW 2525   2.934   1.879   8.593 -0.4296 -0.4351 -0.2129
32870SOL    HW1 2526   2.885   1.916   8.666 -2.6130 -1.9616 -0.7979
32870SOL    HW2 2527   3.002   1.826   8.634 -1.7300 -1.4116  0.7990
32871SOL     OW 2528   3.863   3.366  10.116  0.0579  0.5165 -0.2252
32871SOL    HW1 2529   3.865   3.271  10.124 -2.2322  0.4971  1.0215
32871SOL    HW2 2530   3.941   3.388  10.066  1.5229 -1.8783  0.8355
32872SOL     OW 2531   5.507   2.683   3.012  0.0300 -0.5509  0.4979
32872SOL    HW1 2532   5.555   2.601   3.026  2.6238  0.8906  0.8259
32872SOL    HW2 2533   5.575   2.751   3.017 -1.4134  1.4147 -3.1381
32873SOL     OW 2534   8.808   1.473   5.873  1.0327  0.1816  0.2256
32873SOL    HW1 2535   8.761   1.485   5.955 -0.4160 -0.1693 -0.5154
32873SOL    HW2 2536   8.755   1.411   5.823  2.3762 -0.3542 -0.6034
32874SOL     OW 2537   0.491   3.714   3.491 -0.0359  0.0532 -0.4327
32874SOL    HW1 2538   0.577   3.686   3.524  0.2277  0.3318 -0.8551
32874SOL    HW2 2539   0.429   3.685   3.557  0.2242 -1.4575 -0.8108
32875SOL     OW 2540   4.485   3.730   1.313  0.2903 -0.0031 -0.3309
32875SOL    HW1 2541   4.432   3.656   1.282  1.1288 -0.2924 -1.1412
32875SOL    HW2 2542   4.515   3.703   1.400  1.3911 -1.0800 -1.0110
32876SOL     OW 2543   6.061   8.217   8.226  0.0517  0.3571  0.0758
32876SOL    HW1 2544   6.106   8.206   8.310 -0.8805 -0.8447  0.4589
32876SOL    HW2 2545   6.068   8.311   8.207  1.1232  0.4922  0.9980
32877SOL     OW 2546   7.985   6.458   9.679 -0.0722  0.7995 -0.1931
32877SOL    HW1 2547   7.948   6.393   9.739  1.1990 -0.2794 -0.5270
32877SOL    HW2 2548   7.914   6.478   9.619 -0.0394 -1.6709 -1.1854
32878SOL     OW 2549   7.244   9.170   3.091 -0.6016 -0.2058 -0.3280
32878SOL    HW1 2550   7.294   9.221   3.155 -0.8642 -0.4136  0.0494
32878SOL    HW2 2551   7.297   9.173   3.011  0.3578 -0.9759  0.2484
32879SOL     OW 2552   0.027   0.492   9.813 -0.3888  0.3699  0.2452
32879SOL    HW1 2553  -0.013   0.486   9.727 -0.5371 -1.0014  0.3765
32879SOL    HW2 2554   0.076   0.574   9.812 -0.9161  0.6872 -0.9035
32880SOL     OW 2555   5.852   8.146   1.607 -0.3588  0.2570  0.4564
32880SOL    HW1 2556   5.867   8.238   1.625  0.2021 -0.1125  2.0159
32880SOL    HW2 2557   5.801   8.114   1.681  0.9084 -1.0501  0.8250
32881SOL     OW 2558   6.672   9.334   5.722 -0.5691  0.2586 -0.4866
32881SOL    HW1 2559   6.760   9.333   5.685  0.3009  0.8850  1.4275
32881SOL    HW2 2560   6.660   9.423   5.754 -1.6802  0.0337 -0.2452
32882SOL     OW 2561   8.848   8.656   8.445 -0.7595 -0.4809 -0.2167
32882SOL    HW1 2562   8.935   8.615   8.440 -0.7940 -0.5296 -0.4240
32882SOL    HW2 2563   8.866   8.748   8.462 -0.7046 -0.7744  1.4660
32883SOL     OW 2564   6.444   2.088   9.243  0.1540  0.0250  0.2634
32883SOL    HW1 2565   6.402   2.119   9.323 -0.5067  0.5746 -0.2737
32883SOL    HW2 2566   6.498   2.014   9.270 -1.7846 -1.2387  0.8736
32884SOL     OW 2567   0.214  10.134   4.395 -0.6090 -0.1892 -0.0769
32884SOL    HW1 2568   0.285  10.162   4.453  0.6192 -0.8703 -1.2095
32884SOL    HW2 2569   0.231  10.041   4.380 -1.0597 -0.0890 -1.3014
32885SOL     OW 2570   3.120   1.843   7.055  0.1887 -0.0886  0.2215
32885SOL    HW1 2571   3.053   1.910   7.070 -0.2429 -0.2816 -0.7525
32885SOL    HW2 2572   3.202   1.884   7.085  0.4744  2.1045 -2.9538
32886SOL     OW 2573   7.677   5.857   3.318  0.0371  0.3368  0.0352
32886SOL    HW1 2574   7.685   5.952   3.307  0.1970  0.5481  1.7142
32886SOL    HW2 2575   7.586   5.844   3.341  0.0530  0.0874 -0.0456
32887SOL     OW 2576   3.432   4.462   3.547  0.7012 -0.1830 -0.1898
32887SOL    HW1 2577   3.435   4.508   3.631  1.7621 -0.4074 -0.0898
32887SOL    HW2 2578   3.520   4.472   3.511 -0.0744  0.9966 -1.8758
32888SOL     OW 2579   0.815   9.892   7.225 -0.3626 -0.0933  0.1983
32888SOL    HW1 2580   0.758   9.838   7.280 -2.0483 -0.6022 -1.9200
32888SOL    HW2 2581   0.896   9.842   7.216 -1.0354 -1.1931  0.1467
32889SOL     OW 2582   0.492   5.773   5.841 -0.5803  0.4567 -0.1937
32889SOL    HW1 2583   0.579   5.809   5.857 -1.0380  1.8400 -0.7115
32889SOL    HW2 2584   0.501   5.680   5.863  0.5436  0.9222  1.5066
32890SOL     OW 2585   1.173   5.190   8.822 -0.2537  0.1778 -0.0660
32890SOL    HW1 2586   1.162   5.257   8.889 -0.0849  1.4670 -1.2648
32890SOL    HW2 2587   1.123   5.223   8.747  0.3754 -0.7210 -0.9162
32891SOL     OW 2588   8.586   4.582   2.357  0.2198  0.3879 -0.2168
32891SOL    HW1 2589   8.586   4.499   2.405 -2.8206 -0.1618 -0.9699
32891SOL    HW2 2590   8.522   4.637   2.403  0.9074  1.6988 -0.7573
32892SOL     OW 2591   8.177   2.527   9.873  0.0843  0.1206  0.1289
32892SOL    HW1 2592   8.230   2.462   9.827  0.5822  0.7335 -0.1739
32892SOL    HW2 2593   8.098   2.479   9.900  0.3781 -0.5684 -0.2150
32893SOL     OW 2594   2.191   5.078   1.167 -0.2130 -0.4606 -0.0433
32893SOL    HW1 2595   2.124   5.011   1.180  0.2603 -0.9773 -0.2256
32893SOL    HW2 2596   2.199   5.121   1.253 -1.7841  0.5786 -0.3801
32894SOL     OW 2597   2.944   7.565   1.625 -0.0783  0.3022  0.0624
32894SOL    HW1 2598   2.918   7.488   1.575 -0.2008  1.7521 -2.2123
32894SOL    HW2 2599   2.879   7.570   1.696 -0.0802 -1.6178  0.2672
32895SOL     OW 2600   4.704   3.021   0.386  0.1291 -1.0475 -0.3755
32895SOL    HW1 2601   4.770   2.951   0.381  0.7580 -0.4016 -2.9928
32895SOL    HW2 2602   4.704   3.058   0.298 -1.4417  1.1224  0.4804
32896SOL     OW 2603   6.614   5.248   1.371 -0.4831  0.2890 -0.0354
32896SOL    HW1 2604   6.575   5.179   1.317  0.2522  0.5852 -0.9779
32896SOL    HW2 2605   6.563   5.327   1.350 -0.5800  0.2775  0.1581
32897SOL     OW 2606   2.232   1.001   7.710  0.1184  0.5699  0.1094
32897SOL    HW1 2607   2.312   1.055   7.713 -0.4489  1.4551 -0.2479
32897SOL    HW2 2608   2.264   0.911   7.713  1.1109  0.9167  0.4214
32898SOL     OW 2609   8.873   5.813   0.539 -0.3301 -0.2536  0.2977
32898SOL    HW1 2610   8.871   5.843   0.448 -1.1236  0.0142  0.3948
32898SOL    HW2 2611   8.964   5.823   0.566  0.2404 -1.8098 -0.9428
32899SOL     OW 2612   3.969   7.340   5.830 -0.1437  0.3501 -0.1682
32899SOL    HW1 2613   3.948   7.431   5.809 -1.9258 -0.0887 -0.4029
32899SOL    HW2 2614   3.930   7.289   5.759 -0.6804 -0.7093  0.8499
32900SOL     OW 2615   3.855   0.996   4.712  0.7611  0.3752  0.3264
32900SOL    HW1 2616   3.836   0.936   4.785  0.3327  0.6993  0.4842
32900SOL    HW2 2617   3.942   1.031   4.732  0.6181  0.5158  0.7224
32901SOL     OW 2618   4.831   0.550   8.289 -0.7478 -0.5173 -0.3630
32901SOL    HW1 2619   4.924   0.569   8.304 -0.2934 -2.0650 -0.9962
32901SOL    HW2 2620   4.798   0.524   8.374 -1.3175  2.5437  0.4710
32902SOL     OW 2621   2.780   2.006   8.776 -0.1639 -0.2015 -0.6390
32902SOL    HW1 2622   2.773   2.078   8.839  0.9374 -1.2703  0.7688
32902SOL    HW2 2623   2.691   1.970   8.770  0.1234 -1.8043  2.5042
32903SOL     OW 2624   9.343   7.148   3.008 -0.1568 -0.4138 -0.0253
32903SOL    HW1 2625   9.256   7.132   2.974 -0.0000 -0.9726 -0.1648
32903SOL    HW2 2626   9.400   7.090   2.958  0.3842  0.3827 -0.3621
32904SOL     OW 2627   0.582   4.905   7.712 -0.2826 -0.0624  0.1659
32904SOL    HW1 2628   0.533   4.855   7.646 -0.4928 -0.5541  0.6888
32904SOL    HW2 2629   0.673   4.884   7.693 -0.4045 -1.6039  1.1031
32905SOL     OW 2630   2.401   0.467   4.740  0.1330  0.0186 -0.5159
32905SOL    HW1 2631   2.318   0.514   4.740  0.4462  0.8535  2.8524
32905SOL    HW2 2632   2.465   0.532   4.711 -0.2007 -0.3018 -2.0464
32906SOL     OW 2633   0.330   9.676   4.270 -0.1982  0.0735  0.1087
32906SOL    HW1 2634   0.409   9.629   4.296  0.8637  2.1222  0.7762
32906SOL    HW2 2635   0.361   9.747   4.214 -1.4382  1.4063  1.0406
32907SOL     OW 2636   7.055   4.106   2.795 -0.0673  0.5099  0.1301
32907SOL    HW1 2637   7.107   4.035   2.830 -1.6640 -0.3306  0.9218
32907SOL    HW2 2638   7.112   4.183   2.799  1.6234 -0.6599 -0.5722
32908SOL     OW 2639   0.134   8.570   3.079 -0.2765 -0.0748 -0.3491
32908SOL    HW1 2640   0.158   8.486   3.040  0.7550 -0.3228  0.7370
32908SOL    HW2 2641   0.136   8.554   3.174  2.0452  1.6458  0.0005
32909SOL     OW 2642   0.593   9.006   7.025 -0.0709  0.4053 -0.1365
32909SOL    HW1 2643   0.686   8.986   7.014 -0.1958  0.2092 -0.9460
32909SOL    HW2 2644   0.553   8.924   7.054 -0.2518 -0.0087 -1.4619
32910SOL     OW 2645   1.708   3.537   8.353  0.0796 -0.3052  0.3166
32910SOL    HW1 2646   1.674   3.556   8.266 -1.8211 -1.9693  0.6273
32910SOL    HW2 2647   1.655   3.589   8.413  0.6278 -0.0216  0.5640
32911SOL     OW 2648   5.469   8.160   5.689 -0.7486 -0.3114 -0.2981
32911SOL    HW1 2649   5.536   8.142   5.623 -2.1969 -0.1740 -1.8692
32911SOL    HW2 2650   5.481   8.252   5.710  0.8276 -0.7544  0.9778
32912SOL     OW 2651   1.303   7.694   1.081 -0.0460  0.0914  0.3000
32912SOL    HW1 2652   1.291   7.611   1.126 -1.7613  0.3631  0.4071
32912SOL    HW2 2653   1.256   7.684   0.999 -0.4708  1.0207  0.4158
32913SOL     OW 2654   3.786   7.308   4.587 -0.0474 -0.4132  0.4326
32913SOL    HW1 2655   3.781   7.401   4.609  1.7487 -0.3089  0.5691
32913SOL    HW2 2656   3.865   7.277   4.631 -0.3500 -1.8968 -0.0070
32914SOL     OW 2657   0.834   8.015   0.827  0.0178 -0.2244  0.4504
32914SOL    HW1 2658   0.836   7.939   0.885 -1.0608  1.2736  2.6057
32914SOL    HW2 2659   0.913   8.063   0.849  1.3247 -1.2348 -1.7669
32915SOL     OW 2660   6.331   2.241   2.670 -0.1847 -0.5797 -0.0202
32915SOL    HW1 2661   6.330   2.337   2.669  1.1348 -0.5311  1.1364
32915SOL    HW2 2662   6.350   2.216   2.579 -0.5565  0.2335 -0.3315
32916SOL     OW 2663   9.414   7.788   2.128  0.4872 -0.4406  0.1867
32916SOL    HW1 2664   9.453   7.874   2.145 -1.0203  0.3331 -0.0768
32916SOL    HW2 2665   9.425   7.740   2.210  1.2634  0.0235  0.3686
32917SOL     OW 2666   9.240   3.161   9.703 -0.9866  0.0711 -0.2681
32917SOL    HW1 2667   9.148   3.163   9.727 -0.7992  0.3396  0.4349
32917SOL    HW2 2668   9.258   3.248   9.667 -1.1135 -0.1305 -0.8378
32918SOL     OW 2669   9.688   0.481   2.148  0.1105  0.6746  0.1032
32918SOL    HW1 2670   9.775   0.453   2.176  1.3743  0.9789 -3.1071
32918SOL    HW2 2671   9.652   0.405   2.102 -0.8824  0.9263  0.4263
32919SOL     OW 2672   6.793   6.401   3.540 -0.5384 -0.1415  0.7093
32919SOL    HW1 2673   6.844   6.321   3.551  2.2236  1.1917 -1.3091
32919SOL    HW2 2674   6.810   6.451   3.620  2.2874  0.6832 -0.3004
32920SOL     OW 2675   3.567   5.103   2.307  0.2607 -0.3769  0.1087
32920SOL    HW1 2676   3.654   5.062   2.301 -0.2879 -1.8895  1.8212
32920SOL    HW2 2677   3.560   5.133   2.397 -0.9047 -0.0276 -0.0782
32921SOL     OW 2678   6.954   8.161   3.661  0.2165 -0.0773  1.0602
32921SOL    HW1 2679   7.011   8.129   3.731  1.7864  0.5667  0.1485
32921SOL    HW2 2680   7.000   8.138   3.580 -0.5518  0.9534  0.2953
32922SOL     OW 2681   4.980   8.194   2.437 -0.7218  0.3495 -0.0031
32922SOL    HW1 2682   4.977   8.109   2.481  0.3120  0.0128 -0.5589
32922SOL    HW2 2683   4.974   8.173   2.344  1.5908  0.7076 -0.2825
32923SOL     OW 2684   3.767   4.428   9.779  0.8889  0.0213 -0.1895
32923SOL    HW1 2685   3.753   4.496   9.714  1.4799 -0.2574 -0.6202
32923SOL    HW2 2686   3.744   4.469   9.863 -3.3230 -0.6211 -0.7995
32924SOL     OW 2687   2.653   6.765   1.881 -0.3233 -0.2406 -0.2863
32924SOL    HW1 2688   2.702   6.820   1.942  0.8289 -0.9510 -0.5361
32924SOL    HW2 2689   2.566   6.756   1.920  0.4893 -0.9785  1.4354
32925SOL     OW 2690   8.199   2.999   3.965 -0.4806 -0.1893 -0.0385
32925SOL    HW1 2691   8.263   3.057   3.922  0.2797 -1.8266 -1.2127
32925SOL    HW2 2692   8.173   2.937   3.897 -1.1941 -1.3089  1.2066
32926SOL     OW 2693   5.506  10.052   9.361  0.0341  0.0278 -0.2314
32926SOL    HW1 2694   5.550  10.127   9.401 -0.8452  0.1794  0.4792
32926SOL    HW2 2695   5.568  10.020   9.295  0.6511  1.0299 -0.1543
32927SOL     OW 2696   8.293   2.639   9.131 -0.0763 -0.4160  0.3810
32927SOL    HW1 2697   8.328   2.655   9.218 -0.4444  1.7114  0.1900
32927SOL    HW2 2698   8.370   2.628   9.075  0.1875 -0.3700  0.7353
32928SOL     OW 2699   0.087   9.680   2.749  0.4688 -0.5276 -0.0793
32928SOL    HW1 2700   0.090   9.685   2.654 -0.5274 -1.5576 -0.1941
32928SOL    HW2 2701   0.178   9.692   2.777  0.7265  0.0927 -1.1326
32929SOL     OW 2702   4.739   6.289   6.140 -0.1786 -0.0086  0.3204
32929SOL    HW1 2703   4.749   6.207   6.092 -2.6025  0.5765 -1.4287
32929SOL    HW2 2704   4.663   6.275   6.196  2.0770 -0.3673  3.5249
32930SOL     OW 2705   9.934   0.874   4.331  0.3732  0.3433 -0.0382
32930SOL    HW1 2706   9.956   0.791   4.373  0.4702  1.2939  1.8921
32930SOL    HW2 2707   9.999   0.936   4.363 -0.2692  1.3962 -0.6908
32931SOL     OW 2708   3.272   0.953   3.036  0.7372  0.6547  0.2381
32931SOL    HW1 2709   3.218   0.884   3.073  0.0857  1.4323  0.7661
32931SOL    HW2 2710   3.237   1.034   3.074  1.6751  1.2481 -0.1363
32932SOL     OW 2711   1.003   6.853   8.458  0.0458 -0.4291  0.2877
32932SOL    HW1 2712   1.024   6.944   8.435 -0.4510 -0.3658  0.0685
32932SOL    HW2 2713   1.040   6.842   8.545  0.0104  0.0218  0.3659
32933SOL     OW 2714   0.257   5.855   3.157 -0.4358  0.2642 -0.2764
32933SOL    HW1 2715   0.230   5.931   3.106 -0.2557  0.5895  0.1085
32933SOL    HW2 2716   0.187   5.842   3.221 -0.0869  0.6009  0.1807
32934SOL     OW 2717   7.361   6.749   9.450  0.2378  0.3078 -0.0501
32934SOL    HW1 2718   7.268   6.736   9.434  0.3843 -2.8014  0.8761
32934SOL    HW2 2719   7.404   6.730   9.367  0.1044  0.2446 -0.1036
32935SOL     OW 2720   7.257   3.440   1.025  0.2021  0.0385  0.7191
32935SOL    HW1 2721   7.330   3.476   0.976 -1.5538  2.3573 -0.3749
32935SOL    HW2 2722   7.211   3.383   0.962  0.2477 -0.2688  0.9587
32936SOL     OW 2723   7.114   1.869   9.516  0.9800 -0.4302  0.6317
32936SOL    HW1 2724   7.149   1.929   9.449 -0.2152  1.3850  1.5633
32936SOL    HW2 2725   7.032   1.837   9.478 -0.3827  1.6286  1.6669
32937SOL     OW 2726   1.708   7.993   8.448  0.2065  0.0418  0.0319
32937SOL    HW1 2727   1.687   8.086   8.451 -0.3134 -0.0640 -0.1426
32937SOL    HW2 2728   1.803   7.989   8.463 -0.1586  0.3989  3.1964
32938SOL     OW 2729   3.881   9.514   3.274  0.0941 -0.3329  0.0563
32938SOL    HW1 2730   3.794   9.535   3.306 -0.9945 -0.4704 -2.5289
32938SOL    HW2 2731   3.899   9.426   3.307 -0.9600 -0.4899  0.2340
32939SOL     OW 2732   4.526   4.494   4.108  0.3753  0.0609 -0.2010
32939SOL    HW1 2733   4.479   4.562   4.158  0.7641 -1.4723  2.4082
32939SOL    HW2 2734   4.618   4.518   4.116  0.3657  0.7261 -1.7146
32940SOL     OW 2735   8.773   0.408   5.014  0.4632  0.3036  0.0008
32940SOL    HW1 2736   8.748   0.336   5.071  0.6331  1.0255  1.0277
32940SOL    HW2 2737   8.826   0.368   4.946 -1.2888 -0.8770 -0.7556
32941SOL     OW 2738   2.345   4.860   6.491 -0.3782 -0.5785 -0.0661
32941SOL    HW1 2739   2.280   4.908   6.544 -0.2097  0.2141 -0.5545
32941SOL    HW2 2740   2.310   4.864   6.402 -0.3394 -1.3530 -0.1190
32942SOL     OW 2741   0.645   1.512   7.769 -0.1200  0.5588 -0.3164
32942SOL    HW1 2742   0.590   1.550   7.837 -0.6658  0.6015 -0.7721
32942SOL    HW2 2743   0.633   1.417   7.779  1.7251  0.4337  1.2213
32943SOL     OW 2744   8.548   8.824   9.452 -0.0302 -0.0225  0.1037
32943SOL    HW1 2745   8.516   8.907   9.488 -1.0252 -0.9156  1.3895
32943SOL    HW2 2746   8.470   8.771   9.441  0.6885 -1.1457  0.2554
32944SOL     OW 2747   3.842   8.645   0.679 -0.5462  0.3112 -0.1729
32944SOL    HW1 2748   3.750   8.668   0.663 -0.1345  3.3274  1.0739
32944SOL    HW2 2749   3.890   8.694   0.612  0.2396 -0.1526  0.0466
32945SOL     OW 2750   1.666   9.915   7.211  0.3996  0.3135 -0.0488
32945SOL    HW1 2751   1.663   9.873   7.297  1.1330  0.8466  0.2384
32945SOL    HW2 2752   1.708   9.999   7.226  0.9072  0.2405 -1.0051
32946SOL     OW 2753   3.806   2.380   3.469 -0.0541  0.0434  0.1120
32946SOL    HW1 2754   3.765   2.298   3.494  0.2245 -0.3657 -0.7183
32946SOL    HW2 2755   3.845   2.362   3.383 -3.3755  2.1314 -2.0772
32947SOL     OW 2756   2.510   9.606   6.730 -0.5770 -0.3841 -0.0485
32947SOL    HW1 2757   2.455   9.595   6.808 -2.0018  1.2764 -0.7874
32947SOL    HW2 2758   2.450   9.601   6.656  0.1417  1.8017 -0.8665
32948SOL     OW 2759   5.587   6.003   7.753  0.0751  0.8706 -0.0561
32948SOL    HW1 2760   5.539   5.953   7.819 -0.1409  1.8397  0.5406
32948SOL    HW2 2761   5.525   6.068   7.722  0.4088  0.8945 -0.6883
32949SOL     OW 2762   5.141   5.512   5.626 -0.6235  0.5211  0.5243
32949SOL    HW1 2763   5.063   5.522   5.572 -0.6070 -0.9074  0.2023
32949SOL    HW2 2764   5.109   5.474   5.708 -0.1797 -1.0742  0.0028
32950SOL     OW 2765   9.764   8.886   8.588 -0.1923  0.0611 -0.3772
32950SOL    HW1 2766   9.851   8.923   8.578 -0.1069 -0.5785 -2.2494
32950SOL    HW2 2767   9.777   8.807   8.640  0.1809  0.5011  0.2105
32951SOL     OW 2768   3.139   3.693   4.466 -0.7814  0.3160 -0.6934
32951SOL    HW1 2769   3.092   3.673   4.386 -1.4573  1.6882 -0.6656
32951SOL    HW2 2770   3.073   3.688   4.535 -0.1704 -1.0393 -0.1700
32952SOL     OW 2771   5.580   7.729   3.342 -0.0345  0.6483  0.3546
32952SOL    HW1 2772   5.495   7.690   3.364 -0.1453  0.1451 -0.8776
32952SOL    HW2 2773   5.644   7.663   3.370 -0.0777  0.7381  0.6732
32953SOL     OW 2774   8.517   1.488   8.492  0.1643  0.2120  0.2946
32953SOL    HW1 2775   8.475   1.404   8.476 -0.5069  0.7430 -0.9045
32953SOL    HW2 2776   8.589   1.469   8.552 -1.0635 -0.9182  1.4528
32954SOL     OW 2777   2.944   9.727   0.523 -0.6813 -0.0750  0.0689
32954SOL    HW1 2778   2.910   9.771   0.601 -0.6373  0.7116 -0.3396
32954SOL    HW2 2779   3.039   9.727   0.535 -0.7576 -1.8051  0.9652
32955SOL     OW 2780   0.348   9.676   0.929 -0.1739  0.3412 -0.5387
32955SOL    HW1 2781   0.399   9.741   0.977  1.8129 -2.6773  1.8056
32955SOL    HW2 2782   0.280   9.647   0.990 -0.4990 -0.3923 -1.2198
32956SOL     OW 2783   3.548   7.110   3.489 -0.2106 -0.6120 -0.1583
32956SOL    HW1 2784   3.481   7.091   3.423  0.8389  0.3196 -1.5535
32956SOL    HW2 2785   3.517   7.189   3.533 -0.4549 -0.6957 -0.1804
32957SOL     OW 2786   1.118   8.651   4.281  0.0583 -0.5217  0.4398
32957SOL    HW1 2787   1.108   8.745   4.291 -2.2413 -0.5924 -0.5985
32957SOL    HW2 2788   1.049   8.613   4.335 -0.8184 -1.4818 -1.2700
32958SOL     OW 2789   2.115   1.475   1.035 -0.3913  0.4413 -0.2999
32958SOL    HW1 2790   2.084   1.543   0.975  0.0646  1.7725  0.9314
32958SOL    HW2 2791   2.035   1.432   1.065 -0.7833  1.1961 -0.2241
32959SOL     OW 2792   3.529  10.100   4.526 -0.5414 -0.0142  0.5050
32959SOL    HW1 2793   3.592  10.136   4.588 -1.7380  1.6178  0.8188
32959SOL    HW2 2794   3.546  10.005   4.527  0.8799  0.2259  1.6936
32960SOL     OW 2795   2.505   2.809   7.959 -0.0564  0.2898  0.8131
32960SOL    HW1 2796   2.585   2.851   7.928 -0.8313  0.2008 -1.4447
32960SOL    HW2 2797   2.477   2.753   7.887 -2.4828  0.7772  1.2895
32961SOL     OW 2798   1.632   7.021   5.182 -0.5897  0.1365  0.2290
32961SOL    HW1 2799   1.671   6.955   5.239 -1.0142 -0.8931 -0.6432
32961SOL    HW2 2800   1.687   7.098   5.194  0.0596 -0.4369  1.0858
32962SOL     OW 2801   3.647   8.257   1.835  0.5338  0.3359 -0.5554
32962SOL    HW1 2802   3.677   8.342   1.867 -0.3089  0.1340  0.8693
32962SOL    HW2 2803   3.721   8.198   1.850  0.1176  0.2210  1.2146
32963SOL     OW 2804   3.225   4.442   5.485 -0.4502 -0.1698 -0.5120
32963SOL    HW1 2805   3.192   4.532   5.488  0.9812  0.3640 -0.3226
32963SOL    HW2 2806   3.222   4.412   5.576 -2.5526 -0.9690 -0.7744
32964SOL     OW 2807   7.764   2.036   8.136 -0.0196 -0.0146  0.0355
32964SOL    HW1 2808   7.816   1.966   8.098 -0.9584 -1.3435  1.0864
32964SOL    HW2 2809   7.786   2.114   8.085  1.0823 -1.0631 -1.1374
32965SOL     OW 2810   4.207   3.918   3.655 -0.2718 -0.9562  0.2184
32965SOL    HW1 2811   4.143   3.934   3.724 -0.6582  0.1359 -0.3576
32965SOL    HW2 2812   4.257   3.842   3.685  0.8175  0.5887  2.6209
32966SOL     OW 2813   0.749   1.488   2.670  0.2955 -0.4617  0.0701
32966SOL    HW1 2814   0.687   1.416   2.666  1.5309 -1.5874  0.3270
32966SOL    HW2 2815   0.716   1.545   2.739 -1.6222  0.1570 -1.2701
32967SOL     OW 2816   0.615   2.262   7.109 -0.2540  0.1041  0.3644
32967SOL    HW1 2817   0.596   2.176   7.071 -0.2747 -0.2099  1.0724
32967SOL    HW2 2818   0.552   2.321   7.068  0.5024  0.0207 -0.9989
32968SOL     OW 2819   9.257   0.756   8.750  0.2211  0.0817  0.1236
32968SOL    HW1 2820   9.265   0.661   8.760 -3.1796 -0.2897  0.3617
32968SOL    HW2 2821   9.330   0.781   8.694  1.8892 -2.4606  1.0135
32969SOL     OW 2822   4.692   2.513   7.366 -0.4494  0.0069 -0.1457
32969SOL    HW1 2823   4.758   2.499   7.434 -0.1237  1.7827 -0.0541
32969SOL    HW2 2824   4.710   2.445   7.301  0.5023 -0.4819  0.5969
32970SOL     OW 2825   3.027   9.688   5.280 -0.1240 -0.0287 -0.1803
32970SOL    HW1 2826   3.039   9.661   5.371 -0.1541  2.3367  0.5873
32970SOL    HW2 2827   3.115   9.684   5.242 -0.0103 -0.4402  0.1189
32971SOL     OW 2828   8.940   3.856   7.653  0.6681  0.4021  0.3449
32971SOL    HW1 2829   8.873   3.789   7.645  0.9542  0.2955 -1.8458
32971SOL    HW2 2830   8.901   3.923   7.710 -0.6504 -0.4025  0.4273
32972SOL     OW 2831   8.952   6.488   5.772 -0.1965  0.2236  0.4870
32972SOL    HW1 2832   9.007   6.554   5.815 -1.1749  1.8385 -0.6451
32972SOL    HW2 2833   8.999   6.467   5.691 -0.6032  0.6345  0.1436
32973SOL     OW 2834   9.153   2.009   9.686  0.3708 -0.1199  0.1130
32973SOL    HW1 2835   9.113   1.983   9.770 -0.4810  0.3087 -0.1433
32973SOL    HW2 2836   9.091   1.978   9.620  0.7813  0.0133 -0.3369
32974SOL     OW 2837   0.083   3.448   1.049 -0.5725  0.3319 -0.3346
32974SOL    HW1 2838   0.051   3.369   1.005  1.1339 -1.2153  1.0266
32974SOL    HW2 2839   0.170   3.462   1.010 -1.0538  1.8802 -0.9182
32975SOL     OW 2840   2.423   5.914   2.496  0.1811  0.4065  0.3968
32975SOL    HW1 2841   2.337   5.908   2.539  0.4039 -0.7018  0.7334
32975SOL    HW2 2842   2.427   6.003   2.462 -0.4915  0.9550  1.6713
32976SOL     OW 2843   3.954   2.376   5.455  0.3856  0.5624 -0.1180
32976SOL    HW1 2844   4.021   2.347   5.392 -0.1099  1.8624 -1.2794
32976SOL    HW2 2845   3.923   2.294   5.495  1.2370 -0.2362 -1.0198
32977SOL     OW 2846   9.602   4.571   0.865 -0.1188  0.2081  0.3711
32977SOL    HW1 2847   9.575   4.565   0.957  1.1503 -1.1690  0.6976
32977SOL    HW2 2848   9.696   4.550   0.866 -0.0335  0.3816 -1.2112
32978SOL     OW 2849   1.589   6.662   8.087  0.0814  0.1894 -0.3563
32978SOL    HW1 2850   1.658   6.595   8.086  0.6020  0.7215 -0.4345
32978SOL    HW2 2851   1.597   6.703   8.173  0.6868  1.0882 -0.8202
32979SOL     OW 2852   0.868   8.125   9.977 -0.1042 -0.2884 -0.1272
32979SOL    HW1 2853   0.876   8.045   9.926 -1.9701 -0.0874 -0.8190
32979SOL    HW2 2854   0.911   8.192   9.923  0.4951 -0.6058 -0.0545
32980SOL     OW 2855   1.698   2.082   5.767 -0.0469 -0.8840  0.1974
32980SOL    HW1 2856   1.778   2.031   5.751  0.7479  1.0150 -2.7945
32980SOL    HW2 2857   1.629   2.017   5.776  1.0936 -2.5975 -2.2891
32981SOL     OW 2858   5.319   9.465   5.547 -0.1948 -0.1550  0.4581
32981SOL    HW1 2859   5.264   9.468   5.469 -1.4223  0.0766  1.3090
32981SOL    HW2 2860   5.400   9.423   5.517 -0.0604  1.2337 -1.2564
32982SOL     OW 2861   1.481   4.886   7.497 -0.7783  0.0995 -0.3423
32982SOL    HW1 2862   1.474   4.790   7.505  0.7821 -0.0972 -0.9885
32982SOL    HW2 2863   1.547   4.911   7.561 -2.2121  0.9854  0.8769
32983SOL     OW 2864   8.187   9.845   3.957  0.5343 -0.3400  0.5189
32983SOL    HW1 2865   8.127   9.770   3.954 -0.3198  0.3210  0.4952
32983SOL    HW2 2866   8.140   9.911   4.008  1.1185  0.3054  0.2413
32984SOL     OW 2867   8.979   1.281   1.630 -0.3523  1.0158 -0.1041
32984SOL    HW1 2868   8.935   1.210   1.584 -0.6625  0.5561  0.9007
32984SOL    HW2 2869   8.909   1.340   1.657 -0.0757  1.9066 -1.2132
32985SOL     OW 2870   9.742   5.487   3.944 -0.0960  0.2619 -0.2783
32985SOL    HW1 2871   9.732   5.451   4.032  2.4624  0.2154  0.0787
32985SOL    HW2 2872   9.825   5.451   3.913 -0.7083  0.6254 -2.5748
32986SOL     OW 2873   8.168   4.894   2.616  0.3012 -0.2095  0.4018
32986SOL    HW1 2874   8.081   4.870   2.587 -0.3348  0.1778  1.8894
32986SOL    HW2 2875   8.183   4.981   2.581 -1.4379  1.2850  3.0440
32987SOL     OW 2876   0.241   2.481   2.880  0.4554  0.0114 -0.4486
32987SOL    HW1 2877   0.210   2.394   2.852  0.4474 -0.5700  1.2638
32987SOL    HW2 2878   0.329   2.465   2.914 -0.6610  0.0342  2.7781
32988SOL     OW 2879   5.415   6.152   8.403 -0.1301  0.1942  0.1926
32988SOL    HW1 2880   5.480   6.215   8.435  1.4427 -1.7127  0.9828
32988SOL    HW2 2881   5.463   6.069   8.397 -2.1034 -0.9456 -0.7997
32989SOL     OW 2882   9.646   3.264   8.471 -0.4858 -0.2155  0.4040
32989SOL    HW1 2883   9.608   3.300   8.391  0.3331  0.0242  0.1084
32989SOL    HW2 2884   9.648   3.169   8.456 -0.4946 -0.1853  0.2072
32990SOL     OW 2885   9.846   2.421   4.165  0.0130  0.0752 -0.0342
32990SOL    HW1 2886   9.878   2.468   4.242 -0.5423  0.1835  0.1280
32990SOL    HW2 2887   9.926   2.386   4.124  0.2541 -0.4900  0.9100
32991SOL     OW 2888   1.258   3.403   7.730 -0.6769 -0.7193  0.1991
32991SOL    HW1 2889   1.166   3.415   7.751 -0.6661  1.4291 -0.7813
32991SOL    HW2 2890   1.302   3.401   7.816 -1.4881 -0.4682  0.6329
32992SOL     OW 2891   6.710   3.018   0.215  0.4354 -0.0587  0.7537
32992SOL    HW1 2892   6.685   2.968   0.137  0.6757  0.1964  0.5090
32992SOL    HW2 2893   6.638   3.081   0.228  0.9629  0.7259  0.0060
32993SOL     OW 2894   7.458   5.098   4.401  0.0401 -0.1331  0.1273
32993SOL    HW1 2895   7.464   5.005   4.425 -1.2406 -0.0970  0.6676
32993SOL    HW2 2896   7.541   5.117   4.358 -0.2808 -1.9689 -1.4760
32994SOL     OW 2897   6.094   7.432   1.187  0.5727  0.2546  0.4545
32994SOL    HW1 2898   6.065   7.384   1.265 -1.7301 -0.0578 -0.5161
32994SOL    HW2 2899   6.113   7.520   1.218 -0.7072  0.2401  1.3286
32995SOL     OW 2900   2.715   7.734   2.704  0.0144 -0.5794  0.5789
32995SOL    HW1 2901   2.741   7.697   2.788 -0.9470 -0.3221  1.0119
32995SOL    HW2 2902   2.655   7.806   2.727 -0.1238 -0.3949 -0.3156
32996SOL     OW 2903   9.014   7.337   2.318 -0.3654 -0.2949 -0.0651
32996SOL    HW1 2904   9.045   7.320   2.229 -0.1105 -1.3008  0.2099
32996SOL    HW2 2905   9.079   7.398   2.354 -0.7878  0.5935 -0.7474
32997SOL     OW 2906   1.903   4.557   4.526  0.1081  0.2040  0.1200
32997SOL    HW1 2907   1.828   4.511   4.489 -0.0070  0.0165  0.5790
32997SOL    HW2 2908   1.886   4.560   4.620  1.1685 -0.7842  0.3783
32998SOL     OW 2909   5.089   7.937   9.799  0.3306  0.3530 -0.0709
32998SOL    HW1 2910   5.037   8.006   9.759  0.0548  1.2074  1.6804
32998SOL    HW2 2911   5.103   7.966   9.889  0.2732 -1.8281  0.7029
32999SOL     OW 2912   4.446   4.949   1.624  0.5663 -0.2457 -0.3079
32999SOL    HW1 2913   4.451   4.859   1.593 -0.1005 -0.6879  0.8240
32999SOL    HW2 2914   4.371   4.987   1.577 -0.2626 -0.8245  0.5308
33000SOL     OW 2915   0.021   0.390   0.988 -0.0460  0.1137 -0.0888
33000SOL    HW1 2916   0.041   0.385   1.082 -0.6759  1.3291  0.1271
33000SOL    HW2 2917  -0.005   0.301   0.965  2.0565 -0.6934  0.4054
33001SOL     OW 2918   6.397   1.437   9.557 -0.4928 -0.5565  0.4384
33001SOL    HW1 2919   6.490   1.413   9.568 -0.7536 -1.7148  0.2873
33001SOL    HW2 2920   6.377   1.414   9.466 -0.9078 -0.2184  0.4406
33002SOL     OW 2921   9.862   2.018   5.826 -0.0808  0.4540 -0.3508
33002SOL    HW1 2922   9.770   2.010   5.850  0.4904 -1.1204  1.5763
33002SOL    HW2 2923   9.885   2.109   5.846 -0.6062  0.1872  1.7211
33003SOL     OW 2924   6.111   6.257   2.025  0.3782  0.1118  0.1771
33003SOL    HW1 2925   6.071   6.170   2.018  0.4259 -0.1507  2.3339
33003SOL    HW2 2926   6.075   6.306   1.951  0.5662 -1.7955 -1.2552
33004SOL     OW 2927   5.671   4.236   6.723  0.0383 -0.0038  0.1815
33004SOL    HW1 2928   5.582   4.254   6.753 -0.6357 -0.9504 -1.1294
33004SOL    HW2 2929   5.704   4.320   6.692 -0.3508  0.3677  0.7460
33005SOL     OW 2930   8.451   9.855   0.367 -0.1028 -0.5419 -0.4203
33005SOL    HW1 2931   8.545   9.843   0.380  0.0711  1.5554  0.5958
33005SOL    HW2 2932   8.412   9.775   0.401  1.1940 -0.4313  1.4625
33006SOL     OW 2933   8.129   7.158   1.470 -0.3810 -0.2285 -0.3156
33006SOL    HW1 2934   8.217   7.173   1.435 -1.3199 -1.0939 -3.2825
33006SOL    HW2 2935   8.143   7.097   1.543  1.4643 -0.3666 -0.7264
33007SOL     OW 2936   2.111   4.387   4.021  0.1401  0.1654  0.2236
33007SOL    HW1 2937   2.121   4.481   4.031  1.1130  0.1021 -0.1082
33007SOL    HW2 2938   2.196   4.356   3.991 -0.4106 -0.7073 -0.5002
33008SOL     OW 2939   4.933   7.292   6.624  0.7419  0.0438  0.4724
33008SOL    HW1 2940   4.998   7.360   6.609 -1.0701  1.4600 -1.6759
33008SOL    HW2 2941   4.862   7.337   6.670  0.9503 -1.3223  2.2467
33009SOL     OW 2942   9.481   7.972   1.062  0.2457  0.1408 -0.3658
33009SOL    HW1 2943   9.479   7.906   0.992 -1.1304  0.5945 -0.7658
33009SOL    HW2 2944   9.412   7.945   1.122  0.6764  0.3881  0.2487
33010SOL     OW 2945   4.920   0.052   8.091 -0.0640  0.0960 -0.0746
33010SOL    HW1 2946   4.876  -0.021   8.046  0.6390  0.5442 -1.5669
33010SOL    HW2 2947   4.958   0.104   8.020  0.7760  1.0630  1.0488
33011SOL     OW 2948   4.945   9.004   7.285 -0.3868  0.0091 -0.1473
33011SOL    HW1 2949   4.925   8.917   7.253  1.3090 -0.4474 -0.0467
33011SOL    HW2 2950   5.036   8.999   7.314 -1.1042  0.9848  2.6416
33012SOL     OW 2951   2.726   0.319   3.746  0.1691  0.1325 -0.3273
33012SOL    HW1 2952   2.695   0.282   3.829  0.7320  0.3776  0.0015
33012SOL    HW2 2953   2.809   0.274   3.730 -0.0660 -0.1015 -0.8954
33013SOL     OW 2954   2.325   3.862   5.945 -0.2760 -0.1836  0.1644
33013SOL    HW1 2955   2.351   3.907   5.865  2.6937  1.8466  2.0911
33013SOL    HW2 2956   2.283   3.929   5.998  0.9494 -0.5459  1.6602
33014SOL     OW 2957   0.697   6.050  10.082 -0.5390 -0.4517  0.5836
33014SOL    HW1 2958   0.742   6.055  10.166  0.9939 -1.8462 -0.0916
33014SOL    HW2 2959   0.715   6.134  10.040  2.0840 -1.1948  0.0703
33015SOL     OW 2960   6.811   5.115   1.074  0.2002 -0.6203 -0.2018
33015SOL    HW1 2961   6.784   5.197   1.033 -0.4251  0.6322  2.5165
33015SOL    HW2 2962   6.736   5.057   1.063  0.0759 -0.3440 -0.8608
33016SOL     OW 2963   5.511   9.726   4.088 -0.1827  0.1851 -0.5624
33016SOL    HW1 2964   5.582   9.664   4.105 -0.1722  0.1628 -0.6868
33016SOL    HW2 2965   5.433   9.672   4.081 -0.7093  0.4098  2.4062
33017SOL     OW 2966   4.963   3.706   1.346 -0.0358 -0.1155 -0.4746
33017SOL    HW1 2967   4.924   3.628   1.306 -0.5149  0.9868 -2.3044
33017SOL    HW2 2968   4.945   3.776   1.283  1.6103  1.1960  0.4357
33018SOL     OW 2969   2.600   8.945   6.102 -0.2637  0.0199 -0.6899
33018SOL    HW1 2970   2.650   8.970   6.024  1.5215  0.8824  0.6469
33018SOL    HW2 2971   2.617   8.851   6.111  1.2186  0.2934 -0.2527
33019SOL     OW 2972   0.087   5.929   0.949 -0.6008  0.1818 -0.2509
33019SOL    HW1 2973   0.105   5.924   0.855 -0.8713 -0.7100 -0.2612
33019SOL    HW2 2974  -0.003   5.960   0.955 -1.1963 -1.4394 -0.3421
33020SOL     OW 2975   1.102   4.338   6.036  0.2780  0.4975 -0.5967
33020SOL    HW1 2976   1.072   4.251   6.010  2.7182 -0.0891 -1.7531
33020SOL    HW2 2977   1.109   4.334   6.132 -1.5977  0.1832 -0.4227
33021SOL     OW 2978   7.673   6.414   6.015  0.2250 -0.1361 -0.5749
33021SOL    HW1 2979   7.631   6.499   6.033 -2.2057 -1.5745  1.1091
33021SOL    HW2 2980   7.644   6.391   5.927 -1.3821 -0.4102 -0.0028
33022SOL     OW 2981   6.114   2.050   4.259  0.5345 -0.5610 -0.1872
33022SOL    HW1 2982   6.112   1.969   4.208 -0.3665 -0.6601 -0.0046
33022SOL    HW2 2983   6.055   2.035   4.332  0.5784  0.1588  0.0095
33023SOL     OW 2984   8.793   7.035   3.827 -0.0359 -0.4883 -0.0167
33023SOL    HW1 2985   8.792   7.040   3.923  1.8323  0.7881  0.0112
33023SOL    HW2 2986   8.717   7.086   3.800  1.2949  2.1386  0.8287
33024SOL     OW 2987   7.629   4.262   9.634 -0.2068  0.6360 -0.1778
33024SOL    HW1 2988   7.572   4.225   9.702  1.1229 -0.5001  0.3809
33024SOL    HW2 2989   7.660   4.186   9.585 -0.1595  1.3387 -1.2737
33025SOL     OW 2990   8.280   0.406   7.294  0.5204  0.7144  0.4059
33025SOL    HW1 2991   8.369   0.440   7.301  0.6091  0.8209 -1.0568
33025SOL    HW2 2992   8.258   0.415   7.202 -0.7550  0.0392  0.6271
33026SOL     OW 2993   6.667   0.603   9.791 -0.6601 -0.0524  0.2460
33026SOL    HW1 2994   6.621   0.524   9.762  0.0115 -0.0707 -0.8155
33026SOL    HW2 2995   6.759   0.585   9.774 -0.4589  0.7988  0.4037
33027SOL     OW 2996   9.218   1.415   8.792  0.5610  0.5245 -0.0547
33027SOL    HW1 2997   9.194   1.471   8.718 -0.3551 -0.3214 -0.4067
33027SOL    HW2 2998   9.170   1.452   8.866  1.1234  1.0940  0.0387
33028SOL     OW 2999   0.730   1.157   3.837 -0.1209 -0.3746 -0.3344
33028SOL    HW1 3000   0.678   1.219   3.888 -1.7392 -0.4967 -1.7648
33028SOL    HW2 3001   0.752   1.205   3.756  1.3915 -0.5875 -0.0827
33029SOL     OW 3002   9.507   2.050   9.906  0.4393 -0.0069 -0.0454
33029SOL    HW1 3003   9.551   1.971   9.939 -0.4230  0.0684  1.4197
33029SOL    HW2 3004   9.441   2.016   9.846 -2.1349 -0.8485  2.9532
33030SOL     OW 3005   2.507   0.596   2.717 -0.6293  0.4800  0.0683
33030SOL    HW1 3006   2.456   0.577   2.638  0.3247 -1.0231 -0.2192
33030SOL    HW2 3007   2.445   0.586   2.789 -0.6962 -1.7311 -0.2480
33031SOL     OW 3008   4.725   3.180   8.581  0.3967  0.2863 -0.2111
33031SOL    HW1 3009   4.656   3.137   8.632  1.0293 -0.6103 -0.0811
33031SOL    HW2 3010   4.750   3.115   8.516  0.6767  0.8441 -0.6677
33032SOL     OW 3011   6.449   9.121   6.471  0.5963 -0.9189  0.3433
33032SOL    HW1 3012   6.385   9.190   6.490  3.5097  1.7829  1.2788
33032SOL    HW2 3013   6.477   9.139   6.382  0.5563 -1.6582  0.1778
33033SOL     OW 3014   3.752   2.432   0.076 -0.1650 -0.3159 -0.0648
33033SOL    HW1 3015   3.680   2.464   0.132  0.4713  0.4468  0.3445
33033SOL    HW2 3016   3.739   2.477  -0.008 -0.1335 -0.1135  0.0358
33034SOL     OW 3017   2.023   2.059  10.072  0.0140  0.2721 -0.6182
33034SOL    HW1 3018   2.110   2.080  10.106  0.0634 -1.3080  0.3239
33034SOL    HW2 3019   1.989   1.994  10.133 -2.4701  1.9373 -0.0678
33035SOL     OW 3020   2.246   8.064   0.773 -0.1193 -0.1009  0.5099
33035SOL    HW1 3021   2.172   8.022   0.731  0.6534 -0.9720 -0.0111
33035SOL    HW2 3022   2.210   8.099   0.855 -1.5133  1.1506 -0.5756
33036SOL     OW 3023   4.211   0.167   7.336  0.2083 -0.1809  0.5076
33036SOL    HW1 3024   4.143   0.193   7.397 -0.0301  0.4588 -0.0093
33036SOL    HW2 3025   4.293   0.187   7.381  0.0319  0.8425  0.4120
33037SOL     OW 3026   4.491   2.465   0.193  0.8765  1.1102  0.3244
33037SOL    HW1 3027   4.427   2.488   0.125  0.3649  0.2045  0.4761
33037SOL    HW2 3028   4.576   2.481   0.152  0.5805  0.3888 -0.6285
33038SOL     OW 3029   9.168   0.207   8.881  0.2226 -0.0388  0.5261
33038SOL    HW1 3030   9.164   0.268   8.807  1.7832  0.3242  0.6937
33038SOL    HW2 3031   9.126   0.254   8.953 -0.2663  0.0792  0.1668
33039SOL     OW 3032  10.043   5.463   7.944 -0.3152  0.7157  0.2888
33039SOL    HW1 3033  10.034   5.456   7.849 -1.2844 -0.3130  0.4389
33039SOL    HW2 3034   9.954   5.452   7.978  0.2462 -0.8487  1.3894
33040SOL     OW 3035   0.892   9.995   3.065  0.0670  0.1208 -0.9865
33040SOL    HW1 3036   0.975   9.952   3.048  0.0596  0.8973 -3.3789
33040SOL    HW2 3037   0.903  10.083   3.030 -1.1364  0.8978  0.4513
33041SOL     OW 3038   1.596   4.880   0.010 -0.1775  0.1353  0.1946
33041SOL    HW1 3039   1.563   4.937  -0.059  1.7587  0.9844 -0.0785
33041SOL    HW2 3040   1.543   4.902   0.087 -2.6765 -1.1492 -1.0358
33042SOL     OW 3041   9.522   6.493   5.322  0.1358  0.1338 -0.2126
33042SOL    HW1 3042   9.445   6.454   5.280  1.3482 -0.6012 -1.8586
33042SOL    HW2 3043   9.497   6.584   5.338 -1.2967 -0.2495 -0.1002
33043SOL     OW 3044   6.163   3.243   3.815 -0.0027 -0.0584  0.3388
33043SOL    HW1 3045   6.160   3.293   3.734  1.2122  0.0257  0.3206
33043SOL    HW2 3046   6.171   3.152   3.786  0.1179 -0.0550  0.3600
33044SOL     OW 3047   0.693   1.894   8.149  0.0592 -0.0513  0.3067
33044SOL    HW1 3048   0.779   1.924   8.176 -0.0180 -1.5056  2.4534
33044SOL    HW2 3049   0.709   1.834   8.077  0.9849 -1.0196  1.2823
33045SOL     OW 3050   2.087   8.590   5.502  0.5577 -0.0558  0.1639
33045SOL    HW1 3051   2.162   8.649   5.505  0.7403 -0.3032  0.5686
33045SOL    HW2 3052   2.113   8.520   5.443  0.8164 -0.3667  0.6397
33046SOL     OW 3053   6.081   9.764   7.609  0.1058 -0.1051 -0.4928
33046SOL    HW1 3054   6.046   9.828   7.548  1.7019  0.3182 -1.0111
33046SOL    HW2 3055   6.029   9.776   7.689 -1.2942  0.0590 -1.3923
33047SOL     OW 3056   7.363   6.599   3.903  0.5087 -0.4795 -0.1299
33047SOL    HW1 3057   7.323   6.524   3.858  0.3917  0.2403 -1.2645
33047SOL    HW2 3058   7.418   6.560   3.971  1.6470 -1.6668 -1.6827
33048SOL     OW 3059   9.056   8.593   2.988  0.4573 -0.6158 -0.3930
33048SOL    HW1 3060   9.104   8.511   2.985 -0.4185 -1.1340 -0.7435
33048SOL    HW2 3061   8.993   8.582   3.059 -1.1687 -1.1376 -1.8487
33049SOL     OW 3062   8.822   3.470   9.176  0.1470 -0.5084  0.0204
33049SOL    HW1 3063   8.748   3.440   9.124  0.8205 -2.4958  0.1411
33049SOL    HW2 3064   8.787   3.541   9.229 -0.4372  2.2108 -3.5910
33050SOL     OW 3065   4.921   2.331   2.463 -0.3369 -0.3338  0.7346
33050SOL    HW1 3066   4.931   2.238   2.482  1.0895 -0.6479 -1.3084
33050SOL    HW2 3067   5.007   2.358   2.430 -0.9687  1.5222  0.5236
33051SOL     OW 3068   9.269   3.811   4.099  0.0142  0.2156  0.1839
33051SOL    HW1 3069   9.271   3.864   4.019 -0.6498  0.3034  0.2177
33051SOL    HW2 3070   9.184   3.830   4.138  0.0450 -0.3626  0.5502
33052SOL     OW 3071   4.410   5.512   8.293  0.2607  0.3205 -0.0521
33052SOL    HW1 3072   4.334   5.567   8.311 -0.5254 -0.5834 -0.5122
33052SOL    HW2 3073   4.469   5.568   8.243 -1.0478  0.4048 -1.5687
33053SOL     OW 3074   3.874   2.943   9.041 -0.3172 -0.4298 -0.1060
33053SOL    HW1 3075   3.911   2.883   8.976  1.0576  0.2236  0.0285
33053SOL    HW2 3076   3.931   2.933   9.117 -0.4314  0.6059  0.1262
33054SOL     OW 3077   7.930   7.701   7.789  0.4013 -0.7445  0.1614
33054SOL    HW1 3078   8.019   7.678   7.762  0.7987 -0.5062  1.2296
33054SOL    HW2 3079   7.912   7.783   7.743  1.1786 -0.1862  0.8160
33055SOL     OW 3080   0.594   8.524   6.175 -0.3935  0.2759  0.2379
33055SOL    HW1 3081   0.620   8.435   6.200 -0.0877  0.6317  1.2396
33055SOL    HW2 3082   0.610   8.527   6.080  0.3584 -0.4872  0.3192
33056SOL     OW 3083   8.283   8.630   9.356  0.0717  0.0765 -0.3948
33056SOL    HW1 3084   8.195   8.642   9.391 -0.5880  0.4115 -2.0583
33056SOL    HW2 3085   8.334   8.596   9.429 -1.7933 -1.5680  0.2195
33057SOL     OW 3086   8.463   7.116  10.003  0.0320 -0.3557  0.1008
33057SOL    HW1 3087   8.549   7.101  10.042 -0.3775 -2.8899  0.2021
33057SOL    HW2 3088   8.401   7.101  10.076 -0.5437  3.7265  0.6688
33058SOL     OW 3089   8.068   5.982   6.719 -0.5337 -0.3615 -0.2237
33058SOL    HW1 3090   8.090   6.060   6.668 -0.2638 -0.0767  0.3204
33058SOL    HW2 3091   8.012   5.930   6.661  0.6659 -0.5831 -1.2442
33059SOL     OW 3092   2.677   3.797   9.631 -1.0844 -0.2331 -0.4533
33059SOL    HW1 3093   2.641   3.709   9.622  1.6446 -1.4009 -0.7515
33059SOL    HW2 3094   2.692   3.807   9.725  1.5763 -1.4724 -0.6496
33060SOL     OW 3095   9.871   5.939   3.692  0.2306  0.5542  0.8378
33060SOL    HW1 3096   9.854   5.846   3.679  1.0699  0.1854  2.2177
33060SOL    HW2 3097   9.786   5.981   3.679 -0.3716 -0.5110  1.1856
33061SOL     OW 3098   8.994   4.609   6.669 -0.1223  0.0522  0.2203
33061SOL    HW1 3099   8.919   4.663   6.695  0.3398 -0.0977  1.9513
33061SOL    HW2 3100   9.017   4.642   6.582 -2.3114 -0.0410 -0.4633
33062SOL     OW 3101   7.439   2.079   4.711 -0.8145 -0.0396 -0.1839
33062SOL    HW1 3102   7.370   2.114   4.654  0.6791  3.7520  0.0235
33062SOL    HW2 3103   7.518   2.083   4.658  0.0589  0.4792  1.1045
33063SOL     OW 3104   4.373   7.407   1.082  0.1398 -0.9844 -0.7654
33063SOL    HW1 3105   4.281   7.413   1.056 -0.1580  0.9656  0.5918
33063SOL    HW2 3106   4.418   7.471   1.027 -0.1266  1.4618  1.6647
33064SOL     OW 3107   7.450   2.529   5.133  0.1774 -0.2719  0.0597
33064SOL    HW1 3108   7.453   2.506   5.041 -0.2173 -0.9953  0.2183
33064SOL    HW2 3109   7.519   2.594   5.144  0.4310 -0.4082 -0.6781
33065SOL     OW 3110   5.754   5.648   5.807 -0.2337 -0.1264  0.4560
33065SOL    HW1 3111   5.699   5.573   5.832  0.7473 -1.1451 -0.3101
33065SOL    HW2 3112   5.753   5.706   5.883 -0.9471 -0.9648  1.1055
33066SOL     OW 3113   6.867   6.292   4.755  0.3839  0.1396  0.0541
33066SOL    HW1 3114   6.776   6.266   4.738  0.2216  1.1993 -0.8942
33066SOL    HW2 3115   6.916   6.258   4.680  0.6241  0.2718  0.1498
33067SOL     OW 3116   6.091   0.992   2.311 -0.1515  0.2802 -0.0431
33067SOL    HW1 3117   6.001   0.960   2.310  0.5412 -1.9079  0.5770
33067SOL    HW2 3118   6.084   1.086   2.326 -2.2534 -0.2446  3.0731
33068SOL     OW 3119   7.031   0.110   6.787 -0.3015 -0.4372  0.0981
33068SOL    HW1 3120   7.087   0.122   6.863  0.2678  1.6776 -0.5900
33068SOL    HW2 3121   6.962   0.176   6.797 -1.0044 -1.0418 -0.5578
33069SOL     OW 3122   6.265   5.154   5.859 -0.6767 -0.2626  0.1004
33069SOL    HW1 3123   6.287   5.168   5.767 -0.3592  0.4189  0.2755
33069SOL    HW2 3124   6.316   5.220   5.907 -1.4825 -0.0597  0.6989
33070SOL     OW 3125   1.629   0.487   3.869 -0.7305  0.0783 -0.2427
33070SOL    HW1 3126   1.551   0.458   3.917 -0.2739  0.8753  1.0196
33070SOL    HW2 3127   1.653   0.412   3.814 -1.1523 -0.9435  0.9354
33071SOL     OW 3128   3.020   6.542   3.880 -0.5553 -0.0606  0.4641
33071SOL    HW1 3129   3.008   6.476   3.949  2.1720  1.1907  2.3169
33071SOL    HW2 3130   3.048   6.621   3.927  0.3407  1.1860 -1.9992
33072SOL     OW 3131   5.704   3.399   1.669  0.6125 -0.2066 -0.1012
33072SOL    HW1 3132   5.731   3.426   1.581 -2.0258  2.5176 -0.2318
33072SOL    HW2 3133   5.627   3.343   1.654 -0.7648  1.4610  0.3951
33073SOL     OW 3134   1.244   3.055   0.163 -0.1257  0.0193  0.5076
33073SOL    HW1 3135   1.320   3.035   0.110  0.5782 -0.0872  1.5265
33073SOL    HW2 3136   1.170   3.052   0.102  0.5299 -1.0482 -0.2616
33074SOL     OW 3137   7.585   0.158   8.496  0.1746 -0.0115 -0.2098
33074SOL    HW1 3138   7.644   0.187   8.566 -0.1740 -0.7232  0.3865
33074SOL    HW2 3139   7.502   0.143   8.540  0.0260 -0.7355 -0.7287
33075SOL     OW 3140   0.217   1.405   3.797  0.2651 -0.4158  0.0081
33075SOL    HW1 3141   0.233   1.461   3.873  1.9470 -0.0172 -0.5851
33075SOL    HW2 3142   0.240   1.317   3.827  2.6131 -0.0264 -0.4555
33076SOL     OW 3143   3.972   2.396   1.231  0.1017  0.4303 -0.0067
33076SOL    HW1 3144   4.018   2.478   1.212  0.8479 -0.0682 -0.4189
33076SOL    HW2 3145   4.013   2.332   1.173 -2.2959  0.2960 -1.7102
33077SOL     OW 3146   3.873   7.222   1.587 -0.5340 -0.3334 -0.5945
33077SOL    HW1 3147   3.851   7.129   1.582  0.1192 -0.4125 -2.7644
33077SOL    HW2 3148   3.868   7.254   1.497  0.7006  1.3879 -0.1154
33078SOL     OW 3149   8.441   6.388   6.224  0.1046 -0.2771 -0.9407
33078SOL    HW1 3150   8.481   6.413   6.141 -0.8022 -0.0480 -1.3250
33078SOL    HW2 3151   8.374   6.324   6.201  1.5998 -2.2408 -0.0853
33079SOL     OW 3152   5.331   3.428   8.980 -0.0102  0.0086  0.5808
33079SOL    HW1 3153   5.238   3.414   8.999  0.1432 -0.2390  1.1587
33079SOL    HW2 3154   5.364   3.474   9.057  0.6297 -1.0506  0.9590
33080SOL     OW 3155   9.840   1.408   6.476  0.1138 -0.2311 -0.1006
33080SOL    HW1 3156   9.760   1.382   6.522  0.9382 -0.3990  1.2806
33080SOL    HW2 3157   9.808   1.458   6.400 -1.2917 -0.1577  0.5013
33081SOL     OW 3158   3.084   2.501   8.242  0.2350 -0.2967  0.4073
33081SOL    HW1 3159   3.072   2.406   8.246 -2.2576 -0.0393  0.2748
33081SOL    HW2 3160   3.123   2.515   8.156  3.8740 -1.3879  1.7007
33082SOL     OW 3161   6.805   6.286   6.854 -0.2138  0.0206 -0.4237
33082SOL    HW1 3162   6.715   6.300   6.883  0.2502  1.6422  0.3854
33082SOL    HW2 3163   6.833   6.206   6.898 -1.0065 -0.0634 -0.0512
33083SOL     OW 3164   8.664   4.836   7.314  0.7756 -0.0678  0.2379
33083SOL    HW1 3165   8.682   4.801   7.226  1.1603  1.1049 -0.1661
33083SOL    HW2 3166   8.603   4.773   7.352  1.8168 -1.4365 -0.2712
33084SOL     OW 3167   3.195   7.887   5.986  0.1374 -0.0767 -0.9845
33084SOL    HW1 3168   3.279   7.911   6.026 -0.8402  1.1662  0.4053
33084SOL    HW2 3169   3.172   7.961   5.930 -0.3299 -0.1444 -0.8868
33085SOL     OW 3170   0.947   1.541   3.234 -0.4009 -0.1339  1.1476
33085SOL    HW1 3171   0.985   1.571   3.151 -1.0881  0.0508  0.8913
33085SOL    HW2 3172   0.858   1.576   3.233 -0.3667 -0.0027  2.0392
33086SOL     OW 3173   2.081   8.965   7.962 -0.1369 -0.4245  0.1165
33086SOL    HW1 3174   2.160   8.936   7.916 -0.1210  1.1101 -0.8985
33086SOL    HW2 3175   2.091   8.930   8.050  2.0189  0.2741  0.2146
33087SOL     OW 3176   1.046   0.380   1.671  0.6200 -0.2120 -0.1005
33087SOL    HW1 3177   1.079   0.303   1.717 -0.5683 -1.0057 -0.5272
33087SOL    HW2 3178   0.961   0.353   1.635 -0.1843  1.5259  0.3698
33088SOL     OW 3179   6.468   0.772   1.046  0.4286 -0.3587  0.4260
33088SOL    HW1 3180   6.547   0.736   1.006  0.0524 -1.6454  0.7860
33088SOL    HW2 3181   6.489   0.779   1.139 -0.0831 -1.3255  0.6248
33089SOL     OW 3182   5.484   2.476   8.624 -0.1107 -0.2150 -0.3378
33089SOL    HW1 3183   5.429   2.399   8.613  0.2227 -0.7490  1.3974
33089SOL    HW2 3184   5.572   2.441   8.641 -0.3700  0.4021  2.7814
33090SOL     OW 3185   2.646   3.388   5.830 -0.0999 -0.5496 -0.2643
33090SOL    HW1 3186   2.648   3.343   5.745 -1.3507  0.1626 -0.7014
33090SOL    HW2 3187   2.554   3.385   5.856 -0.0272  0.8153  0.1970
33091SOL     OW 3188   8.894   5.757   1.528  0.3621 -0.3880 -0.5281
33091SOL    HW1 3189   8.862   5.824   1.589 -0.0178 -0.6459 -0.4388
33091SOL    HW2 3190   8.973   5.794   1.490  0.3891 -0.0647 -0.1584
33092SOL     OW 3191   0.997   6.028   7.554 -0.4902 -0.2640 -0.1975
33092SOL    HW1 3192   0.918   6.080   7.537 -1.3239 -1.3343  0.3309
33092SOL    HW2 3193   0.997   6.015   7.649 -1.5467 -3.0753 -0.4792
33093SOL     OW 3194   8.410   3.204   7.940 -0.3913  0.2755 -0.3086
33093SOL    HW1 3195   8.438   3.213   8.031 -1.0017 -0.7419  0.0015
33093SOL    HW2 3196   8.481   3.157   7.897  0.3971  1.7155 -0.6491
33094SOL     OW 3197   2.889   4.444   5.267  0.6473  0.1438  0.6721
33094SOL    HW1 3198   2.863   4.490   5.346  0.4546  0.6408  0.3179
33094SOL    HW2 3199   2.962   4.388   5.295 -0.4416 -0.8866  1.5572
33095SOL     OW 3200   2.405   1.735   0.111 -0.0023 -0.0538 -0.0763
33095SOL    HW1 3201   2.387   1.768   0.199 -2.5640 -1.5576  0.0628
33095SOL    HW2 3202   2.324   1.692   0.084  1.4983 -1.8152 -2.1954
33096SOL     OW 3203   0.606  10.126   1.027  0.2260 -0.4367  0.3708
33096SOL    HW1 3204   0.660  10.204   1.037 -0.6909  0.1413  0.8793
33096SOL    HW2 3205   0.571  10.132   0.938 -2.3213  1.3966  1.3767
33097SOL     OW 3206   2.339   4.598   4.713  0.0858 -0.3965 -0.0735
33097SOL    HW1 3207   2.344   4.687   4.677  1.8771 -1.1203 -1.7247
33097SOL    HW2 3208   2.300   4.546   4.643  0.7611 -1.2677  0.1919
33098SOL     OW 3209   1.803   5.523   8.846 -0.0909 -0.0779 -0.4418
33098SOL    HW1 3210   1.798   5.431   8.823  0.8564 -1.0271  2.6346
33098SOL    HW2 3211   1.891   5.534   8.883 -0.2259  2.0432 -0.5995
33099SOL     OW 3212   6.374   8.378   2.029  0.1947 -0.5844  0.1574
33099SOL    HW1 3213   6.416   8.451   1.984  1.0373 -0.7645  0.6238
33099SOL    HW2 3214   6.284   8.407   2.045  0.7719  0.7348  1.1592
33100SOL     OW 3215   6.581   2.873   0.020  0.0541  0.0735 -0.4441
33100SOL    HW1 3216   6.499   2.823   0.014  0.6874 -1.4010  1.6689
33100SOL    HW2 3217   6.637   2.834  -0.047 -0.7040  0.5831 -1.3990
33101SOL     OW 3218   5.665   7.922   8.556 -0.1115 -0.1790 -0.3813
33101SOL    HW1 3219   5.601   7.861   8.519 -1.6020  0.8096  0.4813
33101SOL    HW2 3220   5.677   7.989   8.488  0.8599 -0.9285 -0.9749
33102SOL     OW 3221   4.699   1.841   3.376  0.1782 -0.5099 -0.1932
33102SOL    HW1 3222   4.732   1.885   3.298 -0.7438  2.6943  1.0532
33102SOL    HW2 3223   4.778   1.821   3.427  0.6434 -0.4513 -0.8793
33103SOL     OW 3224   2.656   1.010   8.636 -0.0039  0.7208  0.3408
33103SOL    HW1 3225   2.635   1.061   8.557 -0.9765  2.2751  1.5349
33103SOL    HW2 3226   2.665   0.920   8.605 -0.3231  1.2914 -1.5412
33104SOL     OW 3227   6.512   4.287   9.607 -0.0710 -0.3112 -0.4020
33104SOL    HW1 3228   6.551   4.307   9.522 -0.2466 -0.0697 -0.4273
33104SOL    HW2 3229   6.488   4.194   9.601 -0.5363 -0.1663 -0.7956
33105SOL     OW 3230   7.862   2.221   0.132  0.1978 -0.1813  0.5870
33105SOL    HW1 3231   7.781   2.208   0.082  0.8148  0.3021 -0.5718
33105SOL    HW2 3232   7.832   2.246   0.220 -0.9077 -0.7953  0.4080
33106SOL     OW 3233   0.304   9.666   9.192  0.5622  0.2846  0.2923
33106SOL    HW1 3234   0.313   9.722   9.115  0.2730 -1.2686 -0.9190
33106SOL    HW2 3235   0.236   9.708   9.244  0.5573  1.2069 -0.4322
33107SOL     OW 3236   9.587   7.145   8.750 -0.2036  0.0271  0.4516
33107SOL    HW1 3237   9.615   7.054   8.761 -1.0790 -0.2641  0.3501
33107SOL    HW2 3238   9.554   7.170   8.836 -1.2003 -0.1984  0.1498
33108SOL     OW 3239   5.889   8.501   4.853 -0.4320 -0.6227  0.5677
33108SOL    HW1 3240   5.917   8.584   4.812 -1.0008 -0.4532  0.5179
33108SOL    HW2 3241   5.957   8.439   4.828  0.0947 -0.1273  0.7526
33109SOL     OW 3242   4.946   8.114   6.391 -0.1038  0.5174 -0.0803
33109SOL    HW1 3243   4.998   8.135   6.469  1.4031 -0.4862 -0.7778
33109SOL    HW2 3244   4.897   8.035   6.415 -1.6599  1.6402  0.6878
33110SOL     OW 3245   2.614   2.115   1.166 -0.1557 -0.0630 -0.1564
33110SOL    HW1 3246   2.709   2.120   1.164  0.1714 -3.2671  1.3871
33110SOL    HW2 3247   2.594   2.022   1.151 -2.9675  0.2771  0.8215
33111SOL     OW 3248   1.358   6.993  10.130  0.3175  0.5192  0.4934
33111SOL    HW1 3249   1.290   7.060  10.133  0.8942  1.1113  0.6659
33111SOL    HW2 3250   1.380   6.984  10.037 -0.2787  0.0278  0.3953
33112SOL     OW 3251   7.628   3.784   3.329 -0.2364 -0.0741 -0.4074
33112SOL    HW1 3252   7.576   3.858   3.362  2.2765  1.0544  1.2893
33112SOL    HW2 3253   7.600   3.709   3.382  0.4653  0.7310  1.1751
33113SOL     OW 3254   7.321   4.370   3.195  0.5301  0.8869  0.0646
33113SOL    HW1 3255   7.324   4.456   3.153  2.4208  0.4834 -0.7250
33113SOL    HW2 3256   7.367   4.382   3.278  1.0880  0.5605 -0.1977
33114SOL     OW 3257   5.260   3.827   4.831  0.3731  0.0653 -0.2411
33114SOL    HW1 3258   5.277   3.734   4.817  0.1705  0.3012 -2.5170
33114SOL    HW2 3259   5.339   3.860   4.874  1.7770 -0.6327 -2.1233
33115SOL     OW 3260   3.632   7.665   5.854 -0.6938  0.6047  0.2821
33115SOL    HW1 3261   3.594   7.578   5.866  1.6004 -0.3335  1.3873
33115SOL    HW2 3262   3.558   7.720   5.828 -2.6742 -1.1892  1.7167
33116SOL     OW 3263   1.739   3.835   7.191  0.0313  0.1435  0.3829
33116SOL    HW1 3264   1.788   3.914   7.166 -1.6071  1.3851  0.8978
33116SOL    HW2 3265   1.803   3.765   7.186  1.3545  1.3674 -0.9083
33117SOL     OW 3266   9.091   6.712   2.170  0.5109 -0.4755  0.1827
33117SOL    HW1 3267   9.095   6.617   2.163 -0.7561 -0.4708 -1.2421
33117SOL    HW2 3268   9.135   6.733   2.252 -1.6674 -2.4996  1.9965
33118SOL     OW 3269   9.686   5.994   9.264 -0.3968 -0.0202 -0.1077
33118SOL    HW1 3270   9.755   6.053   9.296 -0.6740  1.9277 -2.7924
33118SOL    HW2 3271   9.608   6.049   9.260 -1.4727 -1.4735  0.2999
33119SOL     OW 3272   8.855   7.079   4.313  0.0215  0.4301 -0.3763
33119SOL    HW1 3273   8.893   7.162   4.340 -0.7406  0.1960  1.5350
33119SOL    HW2 3274   8.930   7.021   4.298  0.5202  0.4791  1.6366
33120SOL     OW 3275   9.628   2.744   5.755  0.2263  0.3240 -0.2741
33120SOL    HW1 3276   9.711   2.788   5.738  0.8392  0.5440  2.7250
33120SOL    HW2 3277   9.646   2.652   5.739  0.7560  0.4678 -0.5388
33121SOL     OW 3278   5.848   4.706   5.130 -0.2377 -0.0662 -0.2193
33121SOL    HW1 3279   5.778   4.645   5.154  0.3730 -1.2046 -1.2609
33121SOL    HW2 3280   5.830   4.729   5.039  0.7421 -0.3854 -0.5077
33122SOL     OW 3281   3.313   0.972   3.742  0.1287 -0.2405  0.2629
33122SOL    HW1 3282   3.267   1.048   3.708  0.2461  0.2068  1.0682
33122SOL    HW2 3283   3.401   1.004   3.763 -1.0897  0.7428  5.0182
33123SOL     OW 3284   5.002   0.653   4.190 -0.0603  0.3452  0.2670
33123SOL    HW1 3285   5.056   0.577   4.170 -0.3143  0.8209 -2.6882
33123SOL    HW2 3286   4.917   0.617   4.215  0.6270 -0.3390  1.7243
33124SOL     OW 3287   5.791   6.608   3.992 -0.1065  0.5235 -0.3030
33124SOL    HW1 3288   5.824   6.583   4.078 -1.0894  0.0569 -0.0380
33124SOL    HW2 3289   5.748   6.692   4.006 -2.9362 -0.8871  0.4143
33125SOL     OW 3290   8.885   1.264   4.206 -0.7384 -0.3532  0.0777
33125SOL    HW1 3291   8.968   1.312   4.207 -0.3823 -0.8154 -2.2204
33125SOL    HW2 3292   8.906   1.180   4.246 -0.0812 -0.4574 -0.4719
33126SOL     OW 3293   5.260   0.923   7.764  0.7662  0.2272 -0.0208
33126SOL    HW1 3294   5.221   0.936   7.851 -0.3826 -0.8690 -0.3386
33126SOL    HW2 3295   5.187   0.930   7.704  1.2663 -0.6868 -0.7544
33127SOL     OW 3296   3.141   9.260   1.972 -0.2321 -0.1778  0.6655
33127SOL    HW1 3297   3.081   9.331   1.994 -0.5924  0.3412 -1.7108
33127SOL    HW2 3298   3.228   9.299   1.982 -0.4290  1.4021 -2.6342
33128SOL     OW 3299   8.297   6.887  10.149  0.2492 -0.1174  0.4191
33128SOL    HW1 3300   8.219   6.936  10.122 -0.4464 -1.0916  0.5987
33128SOL    HW2 3301   8.288   6.802  10.106  0.0386 -1.0572  2.2380
33129SOL     OW 3302   0.325   9.214   0.326 -0.2392  0.3192 -0.0048
33129SOL    HW1 3303   0.304   9.262   0.406  0.8858 -0.3236  0.7061
33129SOL    HW2 3304   0.240   9.196   0.285 -0.8106  0.8957  0.8943
33130SOL     OW 3305   5.412   9.947   0.800 -0.2682  0.4035 -0.6675
33130SOL    HW1 3306   5.472  10.021   0.808 -0.3303  0.2951  1.1542
33130SOL    HW2 3307   5.466   9.877   0.765 -0.1014  1.1543 -1.9931
33131SOL     OW 3308  10.045   5.429   4.235 -0.4727 -0.0757  0.7117
33131SOL    HW1 3309   9.995   5.460   4.159 -0.8811 -0.0209  0.9965
33131SOL    HW2 3310  10.080   5.344   4.207 -1.4205 -0.5089  0.7810
33132SOL     OW 3311   2.096   7.289   6.747 -0.8563 -0.1128  0.7349
33132SOL    HW1 3312   2.155   7.364   6.737  1.0814 -1.4080  1.7427
33132SOL    HW2 3313   2.050   7.305   6.829 -1.5993  0.6701  0.1861
33133SOL     OW 3314   2.146   7.000   6.616 -0.0012 -0.2486  0.4247
33133SOL    HW1 3315   2.116   7.088   6.636  0.9522 -0.2541  2.0951
33133SOL    HW2 3316   2.089   6.970   6.545 -0.8063  1.4264  0.3251
33134SOL     OW 3317   5.394   3.413   5.593  0.0832  0.4588 -0.0534
33134SOL    HW1 3318   5.398   3.504   5.564 -1.2535  1.3809  2.4219
33134SOL    HW2 3319   5.485   3.391   5.615  0.4096  1.1914 -0.6017
33135SOL     OW 3320   6.309   1.538   3.942  0.1012  0.1038  0.7954
33135SOL    HW1 3321   6.288   1.477   4.012 -0.2741 -0.2146  0.4119
33135SOL    HW2 3322   6.374   1.598   3.980 -0.5980  0.3480  1.6207
33136SOL     OW 3323   4.151   4.678   2.046  0.0144  0.3606  0.4310
33136SOL    HW1 3324   4.236   4.639   2.067  0.5162  0.5345 -1.1842
33136SOL    HW2 3325   4.158   4.703   1.954 -1.8045  0.3594  0.2642
33137SOL     OW 3326   1.906   5.996   7.939  0.0110  0.2119 -0.5436
33137SOL    HW1 3327   1.962   5.991   8.017 -0.2184 -1.2611 -0.4486
33137SOL    HW2 3328   1.960   6.042   7.874  1.4036 -1.2521 -0.4872
33138SOL     OW 3329   1.673   1.072   1.912 -0.6136 -0.0862  0.0087
33138SOL    HW1 3330   1.670   0.995   1.970  0.8488 -0.1075  0.0894
33138SOL    HW2 3331   1.586   1.109   1.918 -0.5956 -0.2489  2.0341
33139SOL     OW 3332   3.864   7.190   9.235 -0.4763 -0.0108  0.3028
33139SOL    HW1 3333   3.816   7.270   9.211 -1.1007 -0.2714  0.6529
33139SOL    HW2 3334   3.862   7.136   9.156 -0.1528  0.2683  0.1011
33140SOL     OW 3335   2.229   6.014  10.031 -0.2949  0.1410  0.1026
33140SOL    HW1 3336   2.276   5.967  10.100 -0.6263 -1.2207 -0.5750
33140SOL    HW2 3337   2.160   6.063  10.078  0.0099 -0.0975  0.8091
33141SOL     OW 3338   8.480   2.306   8.044 -0.1504  0.8077 -0.3530
33141SOL    HW1 3339   8.557   2.285   7.992  1.0469  2.3586  0.7120
33141SOL    HW2 3340   8.512   2.311   8.134 -1.4847  1.5161  0.1214
33142SOL     OW 3341   9.066   1.127   5.674 -0.3762  0.2535 -0.2801
33142SOL    HW1 3342   9.019   1.093   5.598 -0.9372 -0.8757  0.5440
33142SOL    HW2 3343   9.148   1.160   5.638  0.6623 -2.8468 -1.0720
33143SOL     OW 3344   2.352   1.523   6.227  0.0086  0.0600 -0.3027
33143SOL    HW1 3345   2.398   1.473   6.295  0.3395  0.9207  0.1160
33143SOL    HW2 3346   2.294   1.459   6.186  0.1971 -0.5990  0.4330
33144SOL     OW 3347   2.102   2.905   9.257  0.1849  0.3481 -0.6104
33144SOL    HW1 3348   2.008   2.900   9.241  0.1011  1.4574 -0.5142
33144SOL    HW2 3349   2.109   2.939   9.346  0.6849  0.0229 -0.5210
33145SOL     OW 3350   0.656   0.509   7.164 -0.1308  0.1525 -0.3109
33145SOL    HW1 3351   0.673   0.457   7.085  2.0259 -0.1680  0.3088
33145SOL    HW2 3352   0.737   0.557   7.180 -0.8416  0.9191  1.2055
33146SOL     OW 3353   8.770   8.964   9.281  0.0367 -0.5502  0.0181
33146SOL    HW1 3354   8.832   8.944   9.351  0.9703 -0.4371 -0.7371
33146SOL    HW2 3355   8.735   8.880   9.254  0.6297 -0.7298 -0.2120
33147SOL     OW 3356   9.080   9.531   9.412 -0.0847  0.8323  0.0828
33147SOL    HW1 3357   9.023   9.597   9.452 -0.4170  0.1659  0.7199
33147SOL    HW2 3358   9.048   9.523   9.322 -0.3701  1.1628  0.1536
33148SOL     OW 3359   0.297   6.164   7.658  0.7474 -0.5639  0.1333
33148SOL    HW1 3360   0.359   6.233   7.683  1.3222 -1.8561  2.6130
33148SOL    HW2 3361   0.235   6.207   7.599  1.8134  1.7201  0.5714
33149SOL     OW 3362   5.349   2.955   3.956 -0.0850  0.1628 -0.2731
33149SOL    HW1 3363   5.308   2.947   3.870 -0.9458  0.9030  0.0590
33149SOL    HW2 3364   5.385   3.043   3.958 -2.4425  1.2116  1.0911
33150SOL     OW 3365   7.780   8.970   9.317 -0.5492  0.4172  0.0344
33150SOL    HW1 3366   7.686   8.987   9.306 -0.3000  2.2045  0.3096
33150SOL    HW2 3367   7.784   8.896   9.377 -1.7803 -0.4914 -0.9414
33151SOL     OW 3368   9.665   5.269   9.020 -0.0889 -0.2793 -0.6652
33151SOL    HW1 3369   9.728   5.295   8.952  1.0726 -0.2175  0.3979
33151SOL    HW2 3370   9.584   5.314   8.995  1.1214  2.2489 -0.3867
33152SOL     OW 3371   2.699   7.405   7.965 -0.5620  1.1102 -0.0591
33152SOL    HW1 3372   2.730   7.399   8.055  3.6123 -1.6928 -1.3586
33152SOL    HW2 3373   2.763   7.461   7.921 -0.6455 -0.0342 -1.7785
33153SOL     OW 3374   9.310   8.377   4.037  0.0033  0.1645  0.4083
33153SOL    HW1 3375   9.363   8.299   4.050  1.9926  1.6177  1.5676
33153SOL    HW2 3376   9.227   8.344   4.002  1.5716 -2.2286 -1.3770
33154SOL     OW 3377   6.581   1.504   2.881  0.3933  0.1097  0.0333
33154SOL    HW1 3378   6.627   1.455   2.950  0.6644  0.5105  0.1385
33154SOL    HW2 3379   6.638   1.579   2.862  0.1255  0.2235 -0.3425
33155SOL     OW 3380   1.726   8.965   9.389  0.5929  0.4311 -0.4869
33155SOL    HW1 3381   1.650   8.945   9.444  1.7840  0.2957  1.1686
33155SOL    HW2 3382   1.702   8.930   9.303 -0.5274 -1.2025  0.4184
33156SOL     OW 3383   9.878   7.208   1.933 -0.1795 -0.0142  0.0014
33156SOL    HW1 3384   9.940   7.143   1.965  0.3806  0.9298  0.8908
33156SOL    HW2 3385   9.798   7.159   1.915  0.0316 -0.8359  1.2501
33157SOL     OW 3386   5.670   0.514   9.276  0.4279  0.8012 -0.0983
33157SOL    HW1 3387   5.582   0.484   9.299 -0.2193  1.6305 -1.3712
33157SOL    HW2 3388   5.682   0.484   9.186  1.3075  1.0346 -0.0629
33158SOL     OW 3389   8.066   8.770   7.308 -0.3518  0.2631 -0.1720
33158SOL    HW1 3390   7.994   8.811   7.356 -0.2100  0.1548  0.1347
33158SOL    HW2 3391   8.050   8.795   7.216 -0.2089  1.1005  0.0182
33159SOL     OW 3392   8.106   4.255   4.030 -0.1912 -0.0776  0.1994
33159SOL    HW1 3393   8.087   4.175   4.080  1.3352  0.0160  0.9974
33159SOL    HW2 3394   8.129   4.224   3.943 -0.0927 -0.4643  0.3602
33160SOL     OW 3395   5.889   4.562   9.451 -0.2991  0.2432 -0.5895
33160SOL    HW1 3396   5.822   4.630   9.451  0.8994  1.4680 -0.2230
33160SOL    HW2 3397   5.929   4.568   9.364  0.1225  0.3380 -0.3934
33161SOL     OW 3398   4.257   1.457   0.402 -0.2177  0.7373  0.4390
33161SOL    HW1 3399   4.185   1.463   0.340 -0.4044 -0.1074  0.5560
33161SOL    HW2 3400   4.246   1.371   0.443  2.3808 -0.6216 -1.4586
33162SOL     OW 3401   1.498   0.566   8.335  0.2351  0.1832 -0.0516
33162SOL    HW1 3402   1.499   0.567   8.430  0.0166  1.3033 -0.0457
33162SOL    HW2 3403   1.486   0.474   8.312  2.5867 -0.4387  0.9496
33163SOL     OW 3404   3.395   0.369   9.868 -0.2815  0.6049  0.0393
33163SOL    HW1 3405   3.467   0.308   9.857 -0.1831  0.4170  1.5189
33163SOL    HW2 3406   3.324   0.333   9.815 -0.1675 -0.7138  0.7527
33164SOL     OW 3407   7.687   0.997   8.703 -0.3795 -0.5272  0.2557
33164SOL    HW1 3408   7.759   1.053   8.732  0.5194 -1.9259  0.8245
33164SOL    HW2 3409   7.672   1.022   8.612 -0.3764  1.0016  0.6567
33165SOL     OW 3410   1.559   9.129   2.857 -0.1833 -0.0442 -0.4157
33165SOL    HW1 3411   1.565   9.185   2.934  0.2057  0.0611 -0.5200
33165SOL    HW2 3412   1.465   9.122   2.839 -0.2709 -0.0054  0.0187
33166SOL     OW 3413   6.596   8.315   9.904 -0.3394 -0.2844 -0.1721
33166SOL    HW1 3414   6.544   8.262   9.843 -1.8539  1.5609 -0.5741
33166SOL    HW2 3415   6.670   8.346   9.851  0.2674 -1.5192 -0.0758
33167SOL     OW 3416   2.178   5.855   5.887 -0.4900  0.0099 -0.1749
33167SOL    HW1 3417   2.180   5.787   5.820  2.0744 -0.9130  0.7368
33167SOL    HW2 3418   2.254   5.910   5.869 -1.3847  1.4750  0.3094
33168SOL     OW 3419   7.529   2.442   3.368 -0.1060 -0.4271  0.3111
33168SOL    HW1 3420   7.546   2.357   3.408  0.5405  0.4676  2.0994
33168SOL    HW2 3421   7.616   2.475   3.344  0.3012  1.5228  3.7356
33169SOL     OW 3422   0.385   2.527   3.887 -0.0693  0.0712 -0.2179
33169SOL    HW1 3423   0.438   2.606   3.901 -1.1566  0.7551  0.1975
33169SOL    HW2 3424   0.412   2.494   3.802  0.3056  0.9861 -0.4633
33170SOL     OW 3425   4.230   0.870   9.984  0.0479 -0.1929  0.3648
33170SOL    HW1 3426   4.142   0.850   9.952  0.1230  0.3409 -0.1726
33170SOL    HW2 3427   4.282   0.792   9.962 -0.7699 -1.5244  2.7106
33171SOL     OW 3428   7.865   2.735   2.334 -0.1057  0.0866  0.2339
33171SOL    HW1 3429   7.884   2.807   2.274  0.4156  0.8691  1.3050
33171SOL    HW2 3430   7.923   2.749   2.408 -0.7723 -0.8263  0.9598
33172SOL     OW 3431   3.985   5.666   3.763 -0.0275 -0.7315  0.1496
33172SOL    HW1 3432   4.046   5.602   3.799  0.2864  0.0420  1.0432
33172SOL    HW2 3433   3.981   5.735   3.830 -0.6630 -0.0143 -0.6098
33173SOL     OW 3434   6.790   3.033   7.868 -0.0286  0.1758  0.0484
33173SOL    HW1 3435   6.850   2.982   7.814 -1.3254  0.3432 -1.6130
33173SOL    HW2 3436   6.848   3.086   7.923  1.3394 -0.6181 -0.5585
33174SOL     OW 3437   8.675   1.742   7.956  0.1278 -0.2572  0.0384
33174SOL    HW1 3438   8.757   1.714   7.915 -0.3476 -2.2524  0.3503
33174SOL    HW2 3439   8.662   1.682   8.029  1.2115  3.4816  3.6465
33175SOL     OW 3440   3.931   2.981   9.699 -0.1644 -0.4906  0.1926
33175SOL    HW1 3441   3.837   2.981   9.681 -0.1979 -0.2249  0.3633
33175SOL    HW2 3442   3.967   3.044   9.636 -0.4674  1.5757  1.9679
33176SOL     OW 3443   5.824   4.748   8.354 -0.2250 -0.5796  0.0540
33176SOL    HW1 3444   5.831   4.818   8.289  2.4261  0.5414  1.3825
33176SOL    HW2 3445   5.786   4.790   8.431  0.1204 -0.9200  0.4208
33177SOL     OW 3446   1.014   8.675   1.660 -0.2886  0.2410  0.9681
33177SOL    HW1 3447   1.061   8.704   1.582  1.3598  0.1952  1.8904
33177SOL    HW2 3448   1.015   8.751   1.718 -0.7712  0.0214  1.2717
33178SOL     OW 3449   5.377   6.887   6.722  0.1997 -0.9294  0.6095
33178SOL    HW1 3450   5.316   6.812   6.724 -0.8879 -0.2127 -1.9951
33178SOL    HW2 3451   5.365   6.929   6.807 -1.9600 -1.6059  0.7112
33179SOL     OW 3452   1.740   6.611   3.187  0.1041 -0.4131 -0.1311
33179SOL    HW1 3453   1.767   6.700   3.165 -2.7535  0.5927  0.0013
33179SOL    HW2 3454   1.776   6.557   3.117  2.7496  0.5994  0.3018
33180SOL     OW 3455   9.722  10.121   7.871  0.4121 -0.2674 -0.3395
33180SOL    HW1 3456   9.807  10.102   7.830  1.2179  1.7936  0.2605
33180SOL    HW2 3457   9.745  10.151   7.959 -0.6140  3.6357 -1.2476
33181SOL     OW 3458   0.454   6.362   7.715  0.0382 -0.1134  0.1253
33181SOL    HW1 3459   0.463   6.456   7.731 -0.9868 -0.0677  0.4887
33181SOL    HW2 3460   0.510   6.322   7.782 -2.3879  0.1547  2.4902
33182SOL     OW 3461   4.618   7.236   9.349 -0.1628  0.0656  0.1793
33182SOL    HW1 3462   4.643   7.327   9.365 -0.5621  0.1692  0.2193
33182SOL    HW2 3463   4.616   7.197   9.437  0.2429 -0.0424  0.1399
33183SOL     OW 3464   2.450   7.283   7.034 -0.5190 -0.1843  0.1928
33183SOL    HW1 3465   2.480   7.242   7.115 -0.9885  0.9358  0.9565
33183SOL    HW2 3466   2.501   7.240   6.965  1.2934  0.1793  1.2376
33184SOL     OW 3467   1.950   5.931   9.002  0.2687  0.4618  0.4006
33184SOL    HW1 3468   1.944   5.838   9.024 -3.3183  0.2561 -0.7042
33184SOL    HW2 3469   2.007   5.935   8.926 -0.6469 -1.0731 -0.3988
33185SOL     OW 3470   6.111   7.426   0.548 -0.6190  0.3687  0.8016
33185SOL    HW1 3471   6.033   7.422   0.603 -0.2364  1.2206  1.4299
33185SOL    HW2 3472   6.176   7.471   0.602  0.6163 -1.1479  0.6659
33186SOL     OW 3473   5.580   7.284   7.568  0.5516 -0.8364 -0.4790
33186SOL    HW1 3474   5.533   7.340   7.630  2.1794 -0.8991  0.8626
33186SOL    HW2 3475   5.516   7.268   7.498 -1.6365 -1.4171  1.5089
33187SOL     OW 3476   9.123   6.861   5.259 -0.3328 -0.2413  0.1853
33187SOL    HW1 3477   9.066   6.868   5.182 -3.0102  1.8935  2.1306
33187SOL    HW2 3478   9.212   6.864   5.223 -1.4299  0.0123 -2.8396
33188SOL     OW 3479   7.507   8.327   7.222  0.3515  0.3572 -0.0553
33188SOL    HW1 3480   7.543   8.382   7.292  1.7405 -0.4982 -0.0592
33188SOL    HW2 3481   7.484   8.389   7.153 -0.8054  1.1966  1.0224
33189SOL     OW 3482   0.544   0.906   3.754  0.0170  1.1685 -0.3743
33189SOL    HW1 3483   0.512   0.913   3.664  3.6096 -0.3421 -1.9379
33189SOL    HW2 3484   0.595   0.986   3.767 -0.5181  1.4004  0.4125
33190SOL     OW 3485   3.715   7.549   7.763  0.3431  0.2846 -0.1463
33190SOL    HW1 3486   3.688   7.546   7.671 -1.9140  0.6510  0.4568
33190SOL    HW2 3487   3.806   7.578   7.759  1.0259 -1.7975 -2.3404
33191SOL     OW 3488   6.113   5.904   6.682 -0.1213 -0.0017  0.2588
33191SOL    HW1 3489   6.049   5.975   6.688  0.3148  0.4139  0.0097
33191SOL    HW2 3490   6.143   5.906   6.592  0.9099  0.3987  0.5966
33192SOL     OW 3491   1.896   8.966  10.038 -0.0224  0.0206 -0.0673
33192SOL    HW1 3492   1.942   8.997  10.115 -0.0175 -0.2322  0.0339
33192SOL    HW2 3493   1.954   8.987   9.965  0.3954 -0.5629  0.0874
33193SOL     OW 3494   4.246   6.696   2.523 -0.4525 -0.1156 -0.1351
33193SOL    HW1 3495   4.274   6.784   2.497 -1.3283 -0.1975 -1.4249
33193SOL    HW2 3496   4.327   6.645   2.524 -0.0531  0.5057 -0.2017
33194SOL     OW 3497   5.201   1.800   3.006  0.2145 -0.0882  0.2167
33194SOL    HW1 3498   5.252   1.720   2.992  0.5871  0.0266  0.8603
33194SOL    HW2 3499   5.118   1.784   2.961 -0.2487 -1.3824  1.4508
33195SOL     OW 3500   2.389   5.695   2.846 -0.3512 -0.1002  0.1121
33195SOL    HW1 3501   2.480   5.725   2.843 -0.3025 -0.1553  0.8266
33195SOL    HW2 3502   2.354   5.734   2.926 -1.0167  0.0778 -0.2590
33196SOL     OW 3503   4.502   7.937   9.309  0.9881 -0.2631 -0.0813
33196SOL    HW1 3504   4.572   7.877   9.332  1.2759 -0.0213 -0.3181
33196SOL    HW2 3505   4.465   7.966   9.393  1.2016 -0.3550  0.0425
33197SOL     OW 3506   3.024   5.372   9.158 -0.5405 -0.4704  0.5590
33197SOL    HW1 3507   3.045   5.416   9.075 -0.9412  0.8615  1.1515
33197SOL    HW2 3508   3.052   5.433   9.226  0.6626 -1.9389  1.4555
33198SOL     OW 3509   7.001   7.828   0.654 -0.3386 -0.2123 -0.2854
33198SOL    HW1 3510   7.023   7.789   0.570  3.2192  1.4153 -0.2858
33198SOL    HW2 3511   7.032   7.765   0.719  0.7216  0.3237 -0.2565
33199SOL     OW 3512   5.906   6.722   7.469 -0.0336 -0.0038  0.2368
33199SOL    HW1 3513   5.842   6.792   7.460  0.8424  0.7728 -0.1229
33199SOL    HW2 3514   5.905   6.677   7.385  1.2213  1.2095 -0.4870
33200SOL     OW 3515   0.347   5.970   4.958  0.0424 -0.7638 -0.1717
33200SOL    HW1 3516   0.361   6.010   5.043  1.4205  0.2283 -0.8279
33200SOL    HW2 3517   0.307   6.040   4.905 -1.3978 -1.5606 -0.1974
33201SOL     OW 3518   7.762   9.613   1.358 -0.0544  0.2262 -0.2638
33201SOL    HW1 3519   7.718   9.675   1.416 -0.0412 -0.3514  0.3833
33201SOL    HW2 3520   7.728   9.633   1.271 -0.5432  0.7051  0.0307
33202SOL     OW 3521   0.029   6.817   4.646  0.1912 -0.1640 -0.0903
33202SOL    HW1 3522  -0.033   6.830   4.575 -0.2900 -0.1596  0.3263
33202SOL    HW2 3523  -0.006   6.742   4.695  0.9983 -0.7408 -0.3801
33203SOL     OW 3524   0.671   1.170   6.758  0.0599 -0.6006  0.0852
33203SOL    HW1 3525   0.722   1.136   6.684  0.4569 -1.2741  0.6572
33203SOL    HW2 3526   0.581   1.145   6.739  0.0784 -0.3107 -0.4227
33204SOL     OW 3527   8.385   6.860   3.979  0.2001 -0.2282 -0.0445
33204SOL    HW1 3528   8.405   6.932   4.040  0.7843  0.2227 -0.7447
33204SOL    HW2 3529   8.457   6.862   3.916  0.1488 -1.3547 -0.1573
33205SOL     OW 3530   6.762   4.396   4.529  0.3891 -0.8424  0.1654
33205SOL    HW1 3531   6.815   4.393   4.608 -1.0875  2.1697  1.4339
33205SOL    HW2 3532   6.808   4.458   4.472 -0.8240  0.5195  0.6060
33206SOL     OW 3533   5.237   1.915   4.983  0.4988  0.3997  0.1039
33206SOL    HW1 3534   5.324   1.904   4.946 -0.2969 -2.2512 -1.3070
33206SOL    HW2 3535   5.183   1.851   4.936 -2.1642  1.7547  1.0813
33207SOL     OW 3536   6.523   7.921   2.363 -0.3155  0.2069 -0.3423
33207SOL    HW1 3537   6.433   7.929   2.330 -1.0975 -2.1157  1.0234
33207SOL    HW2 3538   6.536   7.827   2.375  1.9753  0.5613  0.4685
33208SOL     OW 3539   4.204   7.177   2.116  0.2615 -0.1525  0.3609
33208SOL    HW1 3540   4.218   7.270   2.135 -0.3534 -0.1753  0.9629
33208SOL    HW2 3541   4.288   7.147   2.083  0.5545  0.5490  0.4382
33209SOL     OW 3542   3.793   4.218   5.512  0.1579 -0.4173  0.0315
33209SOL    HW1 3543   3.802   4.311   5.490 -2.6581 -0.0222  0.1602
33209SOL    HW2 3544   3.825   4.212   5.602  1.0829  0.2492 -0.2356
33210SOL     OW 3545   7.873   6.047   9.530 -0.0631  0.2901  0.6267
33210SOL    HW1 3546   7.955   5.997   9.533 -1.2424 -1.7991 -0.4943
33210SOL    HW2 3547   7.853   6.054   9.437 -2.5491 -1.6760  0.9289
33211SOL     OW 3548   1.463   9.877   0.895 -0.5976 -0.3047 -0.7904
33211SOL    HW1 3549   1.495   9.961   0.927  0.8688 -0.4357 -1.7925
33211SOL    HW2 3550   1.368   9.884   0.897 -0.4948  1.0771 -0.1094
33212SOL     OW 3551   8.327   0.231   2.884 -0.3978 -0.1771  0.2457
33212SOL    HW1 3552   8.405   0.271   2.921 -0.1345 -2.4594  2.3354
33212SOL    HW2 3553   8.255   0.263   2.939 -0.8647  1.0539 -1.0030
33213SOL     OW 3554   2.562   9.266   2.537 -0.2036 -0.2208 -0.0557
33213SOL    HW1 3555   2.475   9.283   2.501 -0.0026  0.1750 -0.3516
33213SOL    HW2 3556   2.594   9.352   2.564 -0.4170 -0.5202  1.2315
33214SOL     OW 3557   4.122   4.046   1.211  0.0239 -0.1488 -0.3606
33214SOL    HW1 3558   4.086   4.067   1.125  0.4165  0.8037 -0.3034
33214SOL    HW2 3559   4.207   4.006   1.192 -0.4918 -1.2509 -0.4494
33215SOL     OW 3560   1.099   3.447   6.289 -0.4173  0.6178  0.1686
33215SOL    HW1 3561   1.105   3.522   6.348  0.1367 -0.1336  1.0941
33215SOL    HW2 3562   1.031   3.391   6.327 -0.0143  0.0991  0.1471
33216SOL     OW 3563   6.673   2.094   3.677 -0.9278  0.3070 -0.1123
33216SOL    HW1 3564   6.614   2.129   3.745 -1.9416  0.8704 -1.2514
33216SOL    HW2 3565   6.675   2.000   3.695 -2.2084  0.2694 -0.0544
33217SOL     OW 3566   6.745   3.330   2.338  0.8413 -0.1933  0.0991
33217SOL    HW1 3567   6.678   3.277   2.380  0.0576  0.7780  0.0824
33217SOL    HW2 3568   6.721   3.420   2.356  2.7327  0.1927  1.0131
33218SOL     OW 3569   3.055   5.678   0.510  0.4603  0.0833  0.0464
33218SOL    HW1 3570   3.147   5.653   0.513  0.3192 -0.3504  1.2504
33218SOL    HW2 3571   3.040   5.727   0.591 -0.1788  0.8668 -0.5246
33219SOL     OW 3572   7.304   1.994   5.364  0.0490 -0.1406 -0.8714
33219SOL    HW1 3573   7.278   1.926   5.302 -1.4483 -1.3310  0.9841
33219SOL    HW2 3574   7.243   2.066   5.348 -0.4354 -0.5053 -0.6563
33220SOL     OW 3575   6.635   9.188   5.063  0.1968  0.0207  0.3278
33220SOL    HW1 3576   6.637   9.119   4.997  1.2559  0.4127 -0.0696
33220SOL    HW2 3577   6.642   9.269   5.012 -1.3307  0.4549  0.7587
33221SOL     OW 3578   4.373   5.299   6.966  0.0860 -0.1937  0.1423
33221SOL    HW1 3579   4.343   5.285   7.056  0.0057 -1.3935 -0.0509
33221SOL    HW2 3580   4.307   5.356   6.927 -0.3014 -0.3144  0.6116
33222SOL     OW 3581   3.602   7.291   9.844 -0.0314 -0.2860  0.2722
33222SOL    HW1 3582   3.545   7.352   9.891  0.7539  0.3648  0.3946
33222SOL    HW2 3583   3.569   7.292   9.754  0.0739  0.4529  0.2330
33223SOL     OW 3584   8.557   5.687   2.594  0.5584  0.6507 -0.2577
33223SOL    HW1 3585   8.626   5.744   2.629  1.6368 -0.0117 -1.2552
33223SOL    HW2 3586   8.571   5.603   2.636  1.9725 -0.2037 -2.3070
33224SOL     OW 3587   3.838   3.332   8.170 -0.1033  0.1926 -0.2468
33224SOL    HW1 3588   3.891   3.292   8.239 -0.5043  1.8390  1.0912
33224SOL    HW2 3589   3.897   3.340   8.095  0.5907 -0.8793  0.1619
33225SOL     OW 3590   6.411   8.294   8.056 -0.0088 -0.3382 -0.4029
33225SOL    HW1 3591   6.341   8.359   8.064 -0.6493 -1.0959  0.2032
33225SOL    HW2 3592   6.452   8.292   8.142 -1.9045 -2.8510  0.5513
33226SOL     OW 3593   6.231   2.725   3.950 -0.4408  0.2364  0.0897
33226SOL    HW1 3594   6.256   2.817   3.939 -2.4484  0.9955  1.3581
33226SOL    HW2 3595   6.245   2.708   4.043  0.7531 -1.0571 -0.2915
33227SOL     OW 3596   6.418   4.823   4.798  0.1400 -0.4245  0.2738
33227SOL    HW1 3597   6.392   4.810   4.707  1.2985  1.1522 -0.3458
33227SOL    HW2 3598   6.499   4.773   4.808 -0.4161 -1.2465  0.6820
33228SOL     OW 3599  10.127   9.405   6.553  0.7924 -0.6380 -0.3676
33228SOL    HW1 3600  10.101   9.355   6.630  0.8225 -0.1276 -0.0215
33228SOL    HW2 3601  10.211   9.445   6.578 -0.1143  1.0982  0.0650
33229SOL     OW 3602   8.064   5.042   2.116 -0.0498 -0.4037  0.2500
33229SOL    HW1 3603   8.159   5.054   2.111 -0.1435  0.0711 -0.4251
33229SOL    HW2 3604   8.035   5.046   2.025 -0.7224 -0.5441  0.4577
33230SOL     OW 3605   8.316   0.408   8.657 -0.2893 -0.4795 -0.0872
33230SOL    HW1 3606   8.284   0.496   8.673 -2.8961 -0.9388 -2.0349
33230SOL    HW2 3607   8.297   0.360   8.737 -0.5845  0.3034  0.3197
33231SOL     OW 3608   4.374   9.025   5.884  0.3245 -0.5991 -0.3145
33231SOL    HW1 3609   4.324   9.101   5.855  0.5904 -0.1318  0.4340
33231SOL    HW2 3610   4.387   8.973   5.805 -1.4314 -0.7894 -0.5168
33232SOL     OW 3611   2.879   9.094   0.450 -0.4725  0.6711  1.1723
33232SOL    HW1 3612   2.873   9.036   0.374 -1.2269  1.4996  0.5691
33232SOL    HW2 3613   2.924   9.042   0.517  0.1149 -0.1171  0.2002
33233SOL     OW 3614   8.321   0.425   0.200 -0.3457 -0.6412  0.1412
33233SOL    HW1 3615   8.302   0.332   0.189 -0.9351 -0.5185  0.0774
33233SOL    HW2 3616   8.410   0.436   0.166 -0.5202 -1.0607 -0.4678
33234SOL     OW 3617   8.453   7.395   2.750 -0.6620 -0.1527  0.5606
33234SOL    HW1 3618   8.512   7.450   2.801 -1.7834  1.2398  0.4219
33234SOL    HW2 3619   8.368   7.403   2.794 -0.9430 -1.5091  0.3236
33235SOL     OW 3620   7.664   6.675   4.798  0.2016 -0.4277  0.2911
33235SOL    HW1 3621   7.570   6.666   4.816  0.2391  0.3318  0.9097
33235SOL    HW2 3622   7.671   6.660   4.703 -0.4521 -1.0997  0.3315
33236SOL     OW 3623  10.101   9.415   8.433  0.2233 -0.4527  0.8231
33236SOL    HW1 3624  10.186   9.371   8.432  1.2196  1.2761 -2.2727
33236SOL    HW2 3625  10.038   9.346   8.414  1.2107 -1.3368  0.6616
33237SOL     OW 3626   3.632   6.376   3.335  0.4032  0.2320 -0.3137
33237SOL    HW1 3627   3.667   6.465   3.329 -1.3917  0.9573 -0.6997
33237SOL    HW2 3628   3.593   6.372   3.423 -0.7036  0.3324 -0.7744
33238SOL     OW 3629   8.324   3.439   5.970 -0.0571  0.4068  0.1916
33238SOL    HW1 3630   8.348   3.347   5.984 -1.4422  0.2632  2.1161
33238SOL    HW2 3631   8.311   3.447   5.876  1.7462 -0.9112 -0.2185
33239SOL     OW 3632   5.246   2.909   6.272 -0.0438  0.3902  0.4941
33239SOL    HW1 3633   5.174   2.972   6.272  0.8045  1.4451  2.4838
33239SOL    HW2 3634   5.215   2.837   6.326 -0.0273  0.3212  0.4119
33240SOL     OW 3635   7.221   6.554   9.133 -0.0745  0.2250  0.2109
33240SOL    HW1 3636   7.165   6.502   9.075  1.3354 -3.6655  1.9859
33240SOL    HW2 3637   7.304   6.560   9.087  0.4682 -1.2433  0.9259
33241SOL     OW 3638   4.655   1.274   9.279 -0.2049  0.6265  0.6425
33241SOL    HW1 3639   4.659   1.370   9.278  1.1633  0.6060 -0.6102
33241SOL    HW2 3640   4.564   1.253   9.302 -1.4070  2.2921 -2.0624
33242SOL     OW 3641   0.387   9.383   4.515 -0.1348  0.2121  0.8329
33242SOL    HW1 3642   0.391   9.287   4.511 -0.4371  0.1946  0.8788
33242SOL    HW2 3643   0.478   9.411   4.509 -0.1633  0.0144 -1.1450
33243SOL     OW 3644   2.811   2.915  10.137  0.0946 -0.2708  0.1670
33243SOL    HW1 3645   2.822   2.898  10.231 -0.0775  0.6034  0.3495
33243SOL    HW2 3646   2.849   3.001  10.123  3.0797 -1.6649 -1.1975
33244SOL     OW 3647   9.327   0.980   2.487  0.1529  0.0448  0.4616
33244SOL    HW1 3648   9.255   0.930   2.448 -2.0361  3.8653 -1.0005
33244SOL    HW2 3649   9.296   1.001   2.575  0.4199 -0.0380  0.5746
33245SOL     OW 3650   1.844   2.865   0.387  0.6237 -0.2479 -0.3532
33245SOL    HW1 3651   1.891   2.941   0.423 -0.3467  0.9385 -1.4760
33245SOL    HW2 3652   1.764   2.902   0.350 -0.9718 -2.1217  1.0164
33246SOL     OW 3653   6.196   5.134   3.643  0.1879  0.3845  0.3063
33246SOL    HW1 3654   6.274   5.083   3.665 -0.6503 -1.1494 -0.1743
33246SOL    HW2 3655   6.160   5.160   3.728 -0.0288 -0.8678  0.6221
33247SOL     OW 3656   5.567   4.305   1.714 -0.1500 -0.3567  0.6419
33247SOL    HW1 3657   5.553   4.338   1.626 -1.4624  0.4351  1.1260
33247SOL    HW2 3658   5.480   4.300   1.753  0.5145  0.8349  2.4285
33248SOL     OW 3659   3.890   9.707   0.312  0.2515  0.0630  0.3486
33248SOL    HW1 3660   3.831   9.774   0.348  0.2840  0.0226  0.4796
33248SOL    HW2 3661   3.978   9.737   0.339  0.2612 -0.0628  0.4561
33249SOL     OW 3662   7.079   2.579   6.274 -0.0649 -0.3127 -0.2546
33249SOL    HW1 3663   7.057   2.634   6.349  0.0208 -0.7198  0.0742
33249SOL    HW2 3664   7.162   2.612   6.242 -0.7739  0.7721 -1.0507
33250SOL     OW 3665   0.422   3.543   5.455  0.5356 -0.3844  0.0274
33250SOL    HW1 3666   0.447   3.453   5.472  1.8245 -0.3208 -1.2645
33250SOL    HW2 3667   0.505   3.588   5.440 -0.1761  0.6477 -0.9779
33251SOL     OW 3668   9.778   5.397   1.667  0.4770 -0.4931 -0.3366
33251SOL    HW1 3669   9.683   5.403   1.671  0.3997 -1.7857  0.2133
33251SOL    HW2 3670   9.798   5.305   1.688  1.9854  0.3686  2.5968
33252SOL     OW 3671   6.601   4.927   0.377  0.1220 -0.1422 -0.1120
33252SOL    HW1 3672   6.527   4.980   0.405 -1.2275 -1.4731 -0.9517
33252SOL    HW2 3673   6.639   4.894   0.458  0.1171  0.9518  0.3538
33253SOL     OW 3674   6.169   5.403   2.487 -0.1326  0.2497  0.0438
33253SOL    HW1 3675   6.236   5.415   2.420  0.3072  0.1730  0.4574
33253SOL    HW2 3676   6.215   5.418   2.570 -0.8064  0.9578  0.3035
33254SOL     OW 3677   3.180   0.685   4.718 -0.4718 -0.2874  0.3210
33254SOL    HW1 3678   3.116   0.756   4.707 -1.0041 -0.6084  1.2806
33254SOL    HW2 3679   3.218   0.700   4.805 -0.1423 -0.8338  0.2741
33255SOL     OW 3680   0.910   5.544   0.566 -0.2139 -0.2042  0.3852
33255SOL    HW1 3681   0.888   5.524   0.475 -3.0226  0.6593  0.7683
33255SOL    HW2 3682   1.002   5.570   0.564  0.4699 -2.4217 -1.7840
33256SOL     OW 3683   0.331   0.159   4.685 -0.0965  0.0876  0.0789
33256SOL    HW1 3684   0.364   0.126   4.601 -2.2354  0.2516 -0.9205
33256SOL    HW2 3685   0.279   0.087   4.720 -0.9248  0.7341  0.2165
33257SOL     OW 3686   6.593   1.443   1.174 -0.1603 -0.4474  0.0200
33257SOL    HW1 3687   6.681   1.412   1.194 -0.2523 -0.9408 -0.3354
33257SOL    HW2 3688   6.607   1.527   1.130  0.1744 -0.9495 -0.8552
33258SOL     OW 3689   6.270   4.400   6.396  0.6408 -0.1477  0.0852
33258SOL    HW1 3690   6.254   4.464   6.465  2.6992  0.9304 -0.3605
33258SOL    HW2 3691   6.257   4.449   6.314  0.6703 -0.7428 -0.2830
33259SOL     OW 3692   1.638   0.914   0.612 -0.7719  0.0984  0.1082
33259SOL    HW1 3693   1.655   0.830   0.570 -1.6146 -0.1145  0.1797
33259SOL    HW2 3694   1.582   0.892   0.687 -0.0944  0.5893  0.7743
33260SOL     OW 3695   8.065   2.683   8.736  0.4757  0.2680 -0.0045
33260SOL    HW1 3696   8.054   2.592   8.763 -1.1775  0.4521  0.0492
33260SOL    HW2 3697   8.153   2.687   8.700  0.5645 -1.3542 -0.0267
33261SOL     OW 3698   8.847   4.731   0.941  0.8653 -0.3691  0.5000
33261SOL    HW1 3699   8.768   4.696   0.900 -0.7125  1.8960  1.4414
33261SOL    HW2 3700   8.918   4.679   0.903 -0.9009 -1.4398 -1.5745
33262SOL     OW 3701   2.620   7.694   2.993 -0.2572 -0.2544 -0.0116
33262SOL    HW1 3702   2.669   7.775   3.007  1.4054 -1.1880 -0.2399
33262SOL    HW2 3703   2.531   7.724   2.971  0.0651  1.4629  0.8782
33263SOL     OW 3704   2.489   2.268   6.016  0.6392  0.3083 -0.0921
33263SOL    HW1 3705   2.490   2.264   5.921 -1.4335 -2.0139 -0.1214
33263SOL    HW2 3706   2.580   2.253   6.042  1.3524  1.6839 -1.6838
33264SOL     OW 3707   2.801   7.156   0.206 -0.3553 -0.1593  0.1551
33264SOL    HW1 3708   2.786   7.170   0.112 -1.0173 -0.5609  0.1985
33264SOL    HW2 3709   2.869   7.089   0.210  1.8860  1.9864 -0.0475
33265SOL     OW 3710   2.516   4.538   5.308 -0.8280  0.7191 -0.7598
33265SOL    HW1 3711   2.443   4.505   5.256 -2.1495 -0.5373  1.7174
33265SOL    HW2 3712   2.483   4.620   5.345  0.0552  1.5341 -1.6939
33266SOL     OW 3713   4.606   3.283   7.830  0.5623  0.1995 -0.0127
33266SOL    HW1 3714   4.664   3.227   7.779  0.6975 -2.6004  2.8980
33266SOL    HW2 3715   4.660   3.358   7.854  1.2160  0.3677 -1.9015
33267SOL     OW 3716   2.280   3.525   3.455 -0.5186  0.2573 -0.5293
33267SOL    HW1 3717   2.303   3.525   3.362  0.0561  0.2643 -0.3915
33267SOL    HW2 3718   2.198   3.574   3.459 -1.7125 -1.5725 -1.2967
33268SOL     OW 3719   4.821   1.275   6.030  0.4017 -0.3329 -0.4276
33268SOL    HW1 3720   4.772   1.238   6.104  2.2021 -0.2212  0.9017
33268SOL    HW2 3721   4.913   1.258   6.052  1.0034 -0.4352 -2.7544
33269SOL     OW 3722   6.441   5.464   6.808  0.3771 -0.1535  0.1689
33269SOL    HW1 3723   6.414   5.378   6.840  0.0335  0.6059  2.0666
33269SOL    HW2 3724   6.536   5.466   6.820  0.2681  0.0705  1.0639
33270SOL     OW 3725   8.937   7.750   4.727  0.4675  0.1641 -0.4796
33270SOL    HW1 3726   8.935   7.692   4.650  1.1822  1.9657 -1.9343
33270SOL    HW2 3727   9.026   7.742   4.761  0.2176 -0.4579  0.0589
33271SOL     OW 3728   8.804   2.983   8.445  0.4702  0.0344  0.6418
33271SOL    HW1 3729   8.834   2.914   8.386  1.5948 -1.0395  2.3515
33271SOL    HW2 3730   8.710   2.989   8.430  0.5128 -1.1794 -0.2652
33272SOL     OW 3731   8.429   6.180   5.231  0.2668  0.9954 -0.1031
33272SOL    HW1 3732   8.444   6.124   5.307  0.0757 -0.3943 -1.0428
33272SOL    HW2 3733   8.513   6.183   5.187  0.3531  1.7236  0.0967
33273SOL     OW 3734   8.883   7.884   7.413  0.1853 -0.1826 -0.5521
33273SOL    HW1 3735   8.821   7.836   7.359 -0.5229  1.0542 -0.8524
33273SOL    HW2 3736   8.840   7.967   7.433  1.0050 -0.0257  0.7354
33274SOL     OW 3737   7.974   9.229   5.885  0.1850  0.2564 -0.3156
33274SOL    HW1 3738   7.879   9.225   5.898  0.0995 -0.5755 -1.1082
33274SOL    HW2 3739   8.010   9.177   5.957 -0.0576 -0.7804 -0.9247
33275SOL     OW 3740   4.508   9.507   6.369  0.2421  0.5825  0.2852
33275SOL    HW1 3741   4.496   9.541   6.457  0.5301  2.7695 -0.4697
33275SOL    HW2 3742   4.599   9.527   6.347  0.2401 -0.1447 -0.4213
33276SOL     OW 3743   8.666   9.416   2.257  0.1564  0.3428 -0.8055
33276SOL    HW1 3744   8.744   9.391   2.208  0.2531 -0.2829 -0.3611
33276SOL    HW2 3745   8.633   9.333   2.292 -1.1941  0.4841 -1.6920
33277SOL     OW 3746   4.129   8.826   2.864  0.2920  0.7144 -0.4307
33277SOL    HW1 3747   4.087   8.904   2.901 -0.3449  0.0205  0.3781
33277SOL    HW2 3748   4.188   8.859   2.797 -1.8291  1.7560 -1.9186
33278SOL     OW 3749   9.531   7.928   8.203 -0.6179 -0.5928 -0.2359
33278SOL    HW1 3750   9.492   7.851   8.160 -1.3593 -0.4918  0.2373
33278SOL    HW2 3751   9.459   7.967   8.253 -0.5695  1.0807 -1.3775
33279SOL     OW 3752   5.301   2.916   1.824 -0.4434  0.5822 -0.0208
33279SOL    HW1 3753   5.373   2.971   1.794 -1.0046  0.7306 -1.1785
33279SOL    HW2 3754   5.342   2.850   1.879  0.2930  1.8995  1.0660
33280SOL     OW 3755   9.816   6.515   6.735 -0.0582 -0.3342 -0.0500
33280SOL    HW1 3756   9.761   6.588   6.705  1.3709  0.4679 -0.8590
33280SOL    HW2 3757   9.838   6.537   6.825 -0.5173 -0.3301  0.0653
33281SOL     OW 3758   3.474   3.733   5.038 -0.5516  0.0225 -0.5963
33281SOL    HW1 3759   3.411   3.780   4.983 -0.0530  1.6278  0.1440
33281SOL    HW2 3760   3.466   3.774   5.124  0.2601 -0.9396 -0.0444
33282SOL     OW 3761   6.027   0.453   2.194 -0.1814 -0.5643 -0.1488
33282SOL    HW1 3762   6.042   0.493   2.280 -1.5873  1.1118 -0.6116
33282SOL    HW2 3763   6.058   0.518   2.131  2.1334 -2.3429 -0.9851
33283SOL     OW 3764   7.673   0.165   0.511  0.6044 -0.5534  0.1856
33283SOL    HW1 3765   7.763   0.179   0.482  0.4916 -0.6324 -0.2094
33283SOL    HW2 3766   7.632   0.251   0.504  0.8513 -0.3611  1.0846
33284SOL     OW 3767   9.289   8.484   5.209  0.1749 -0.5736 -0.1949
33284SOL    HW1 3768   9.196   8.504   5.198  0.3461 -0.1113 -0.9000
33284SOL    HW2 3769   9.301   8.476   5.304 -0.4715 -0.0776 -0.0629
33285SOL     OW 3770   5.053   8.421   7.035  0.5392  0.4323  0.1737
33285SOL    HW1 3771   5.039   8.516   7.036 -1.4430  0.1660  0.1061
33285SOL    HW2 3772   5.149   8.412   7.039  0.7529  2.3837  3.0287
33286SOL     OW 3773   0.983   5.755   0.317  0.0520  0.2445 -0.4581
33286SOL    HW1 3774   0.951   5.825   0.374 -0.6843 -0.3667 -0.1085
33286SOL    HW2 3775   1.044   5.706   0.371 -0.1083  0.0838 -0.4237
33287SOL     OW 3776   3.193   7.970   0.498 -0.0401 -0.8074  0.2290
33287SOL    HW1 3777   3.166   7.886   0.461 -0.9369  0.0460 -1.1166
33287SOL    HW2 3778   3.119   8.028   0.483  1.3419  0.7910 -0.7851
33288SOL     OW 3779   4.683   1.375   6.791 -0.5965 -0.8226  0.2999
33288SOL    HW1 3780   4.608   1.328   6.756 -2.8458  1.8503  1.1635
33288SOL    HW2 3781   4.660   1.394   6.882  0.9226  0.4379  0.4815
33289SOL     OW 3782   1.263   7.905   4.049 -0.1388  0.3045 -0.4386
33289SOL    HW1 3783   1.183   7.958   4.050 -1.7494 -1.9002 -1.7394
33289SOL    HW2 3784   1.335   7.968   4.052 -1.9106  2.3856  0.6009
33290SOL     OW 3785   4.996   5.187   8.697  0.6084  0.4733 -0.1705
33290SOL    HW1 3786   5.012   5.095   8.675 -0.7617 -0.6340  2.8934
33290SOL    HW2 3787   4.916   5.186   8.750  0.4625  3.4685 -0.1557
33291SOL     OW 3788   2.175   1.769   1.745 -0.2439  0.1661 -0.3903
33291SOL    HW1 3789   2.164   1.864   1.742 -0.0476  0.2263  0.6089
33291SOL    HW2 3790   2.251   1.751   1.690  0.8373  0.7821  0.8540
33292SOL     OW 3791   0.791   4.873   4.206  0.6230  0.2946  0.2823
33292SOL    HW1 3792   0.776   4.967   4.218  0.5266  0.2611  0.4291
33292SOL    HW2 3793   0.858   4.851   4.270  1.9321  0.6087 -0.9249
33293SOL     OW 3794   5.531   2.505   5.766  0.1912  0.4692  0.2485
33293SOL    HW1 3795   5.508   2.536   5.853  1.3299 -0.4446  0.8980
33293SOL    HW2 3796   5.448   2.509   5.717 -0.8182 -0.3999  1.7789
33294SOL     OW 3797   3.136   7.731   0.356  0.4928 -0.1714 -0.2364
33294SOL    HW1 3798   3.067   7.680   0.313  2.0589 -1.0781 -1.7953
33294SOL    HW2 3799   3.200   7.666   0.385  0.8597  0.6722  0.9345
33295SOL     OW 3800   1.842   1.710   6.426  0.2635  0.2544  0.4554
33295SOL    HW1 3801   1.879   1.694   6.513  0.3711 -0.3000  0.3111
33295SOL    HW2 3802   1.766   1.651   6.421  0.6148 -0.1614 -0.0555
33296SOL     OW 3803   9.928   2.601   7.172 -0.3857  0.3956 -0.2229
33296SOL    HW1 3804   9.866   2.610   7.099  0.8015  1.0867 -1.1995
33296SOL    HW2 3805   9.883   2.545   7.235 -2.3546  1.5848 -0.4714
33297SOL     OW 3806   8.443   7.023   9.109 -0.1552  0.3808  0.1284
33297SOL    HW1 3807   8.391   7.103   9.097  0.2035  0.4519 -1.0068
33297SOL    HW2 3808   8.378   6.953   9.108 -0.4270  0.6172  0.6827
33298SOL     OW 3809   9.819   3.780   1.141  0.1422 -0.1237  0.0179
33298SOL    HW1 3810   9.739   3.776   1.088 -0.1052  0.9598  0.2735
33298SOL    HW2 3811   9.802   3.720   1.213 -1.1682  1.3059  0.9787
33299SOL     OW 3812   8.292   7.983   0.121  0.2177 -0.4280  0.1510
33299SOL    HW1 3813   8.367   7.987   0.181 -0.2987 -0.1336  0.7768
33299SOL    HW2 3814   8.329   7.948   0.040  0.7664 -1.6485  0.8977
33300SOL     OW 3815   8.437   1.248   5.838  0.0588  0.9212  0.6367
33300SOL    HW1 3816   8.345   1.224   5.848  0.0829  0.2109 -0.6315
33300SOL    HW2 3817   8.466   1.269   5.927 -0.9853 -0.0844  1.2418
33301SOL     OW 3818   8.207   4.504   5.245  0.7606 -0.5032  0.0324
33301SOL    HW1 3819   8.154   4.579   5.218  0.1089 -0.1716  2.0917
33301SOL    HW2 3820   8.269   4.492   5.173 -0.3569  0.7942 -1.2123
33302SOL     OW 3821   3.810   8.506   8.707 -0.0035 -0.2855 -0.3428
33302SOL    HW1 3822   3.738   8.554   8.749 -0.3439 -1.9373  1.0572
33302SOL    HW2 3823   3.775   8.483   8.620 -0.3784  0.7039 -0.4646
33303SOL     OW 3824   1.858   2.859   3.439 -0.8100 -0.5793 -0.2579
33303SOL    HW1 3825   1.844   2.915   3.515 -0.4863 -0.4367 -0.3000
33303SOL    HW2 3826   1.953   2.848   3.435 -0.5797  1.5607 -2.1781
33304SOL     OW 3827   3.359   1.846   3.599  0.2556 -0.2879 -0.5869
33304SOL    HW1 3828   3.292   1.801   3.548  0.9257 -0.4897 -1.3218
33304SOL    HW2 3829   3.418   1.776   3.627  0.1523 -0.1158  0.0630
33305SOL     OW 3830   6.116   9.895   5.372 -0.2885  0.1113 -0.1300
33305SOL    HW1 3831   6.062   9.970   5.398 -1.0176 -0.1838 -0.7381
33305SOL    HW2 3832   6.077   9.866   5.290 -0.1308 -1.0461  0.1916
33306SOL     OW 3833   3.823   6.703   0.772  0.1058 -0.2841  0.0753
33306SOL    HW1 3834   3.902   6.733   0.816  0.4012  0.7366 -1.0718
33306SOL    HW2 3835   3.753   6.759   0.807 -0.2779 -1.6278  1.5833
33307SOL     OW 3836   0.119   8.127   7.590  0.1134  0.1750  1.0844
33307SOL    HW1 3837   0.133   8.107   7.498  0.3314  0.0424  1.1472
33307SOL    HW2 3838   0.026   8.109   7.605 -0.2589  1.4991  0.5570
33308SOL     OW 3839   7.579   8.388   6.079 -0.3279 -0.1765  0.7746
33308SOL    HW1 3840   7.547   8.409   6.166 -0.2836  3.2660  0.0869
33308SOL    HW2 3841   7.606   8.472   6.042  2.2548 -1.8527 -1.5693
33309SOL     OW 3842   1.836   1.150   8.917 -0.9524  0.1980  1.1847
33309SOL    HW1 3843   1.812   1.117   9.003 -1.1986 -3.6944 -0.1618
33309SOL    HW2 3844   1.925   1.119   8.903 -1.4821 -0.6861 -0.5189
33310SOL     OW 3845   6.254   4.502   4.553 -0.2078  0.5856  0.0561
33310SOL    HW1 3846   6.265   4.531   4.462  0.4799  2.1814  0.6112
33310SOL    HW2 3847   6.159   4.510   4.569 -0.5677 -1.2053 -0.9604
33311SOL     OW 3848   2.936   9.440   8.266  0.3448  0.0377 -0.3342
33311SOL    HW1 3849   2.865   9.418   8.206 -0.1344  0.5762  0.0147
33311SOL    HW2 3850   2.997   9.367   8.261  0.1460 -0.0673 -1.2255
33312SOL     OW 3851   2.366   1.664   7.119  0.3139 -0.1293  0.5069
33312SOL    HW1 3852   2.387   1.585   7.170  1.5998 -0.0006  0.2148
33312SOL    HW2 3853   2.360   1.733   7.184  1.6594 -0.0214  0.5448
33313SOL     OW 3854   7.014   7.728   1.842  0.5566  0.0434 -0.0040
33313SOL    HW1 3855   6.941   7.710   1.782  0.5742 -0.7351  0.1977
33313SOL    HW2 3856   7.088   7.679   1.805  0.5308 -0.5666  0.7186
33314SOL     OW 3857   2.918   6.918   3.227 -0.2903 -0.6401 -0.4657
33314SOL    HW1 3858   2.859   6.860   3.179 -0.7288 -0.7555  0.1915
33314SOL    HW2 3859   2.868   6.943   3.305  0.6820 -1.0910  0.3248
33315SOL     OW 3860   7.301  10.035   1.740 -0.4160  0.6795  0.4113
33315SOL    HW1 3861   7.322  10.069   1.653 -0.1153 -1.1206 -0.2806
33315SOL    HW2 3862   7.385  10.029   1.785 -0.4116  0.5307  0.3862
33316SOL     OW 3863   8.613   0.891   1.030  0.5982 -0.0577  0.1929
33316SOL    HW1 3864   8.574   0.927   1.109 -0.1566 -0.0765 -0.1581
33316SOL    HW2 3865   8.698   0.857   1.058 -0.0753 -0.9749  1.2025
33317SOL     OW 3866   9.834   2.224   3.531 -0.1108 -0.1815 -0.1472
33317SOL    HW1 3867   9.788   2.146   3.502  1.0302 -0.8435 -0.2261
33317SOL    HW2 3868   9.896   2.243   3.460  0.5949 -0.0337  0.4968
33318SOL     OW 3869   6.926   2.629   7.301  0.2532 -0.2933  0.9319
33318SOL    HW1 3870   6.917   2.716   7.262 -1.6535 -0.7216  0.2842
33318SOL    HW2 3871   6.925   2.645   7.396  0.5144  0.4317  0.8181
33319SOL     OW 3872   9.858   7.857   9.003  0.3493 -0.1838  0.4355
33319SOL    HW1 3873   9.817   7.773   9.021 -0.1234 -0.4195 -1.5109
33319SOL    HW2 3874   9.805   7.921   9.051 -1.3756 -0.6638 -0.7130
33320SOL     OW 3875   4.048   2.114   5.899  0.4581  0.2342  0.4046
33320SOL    HW1 3876   4.138   2.127   5.928  0.6399 -1.1122  0.4737
33320SOL    HW2 3877   4.050   2.033   5.848 -0.9140 -0.4027  1.3164
33321SOL     OW 3878  10.168   0.066   1.298 -0.2958  0.1189  0.3433
33321SOL    HW1 3879  10.237   0.107   1.351 -0.4738  1.5058 -0.4467
33321SOL    HW2 3880  10.132  -0.002   1.355  1.3009 -0.2302  0.9932
33322SOL     OW 3881   6.009   8.421   6.842 -0.2084 -0.5127  0.1945
33322SOL    HW1 3882   5.991   8.391   6.753 -0.4113 -1.6588  0.6006
33322SOL    HW2 3883   6.074   8.359   6.875 -0.7804 -0.6337  1.1361
33323SOL     OW 3884   8.178   5.259   1.788 -1.0117 -0.0877 -0.1290
33323SOL    HW1 3885   8.108   5.212   1.834 -2.8371  1.9923 -0.6245
33323SOL    HW2 3886   8.251   5.258   1.850 -0.8252 -3.6451 -0.1928
33324SOL     OW 3887   2.664   1.701   9.075 -0.1489 -0.3110  0.2622
33324SOL    HW1 3888   2.701   1.613   9.069 -0.5356 -0.5203  0.8762
33324SOL    HW2 3889   2.661   1.719   9.169 -0.7547  0.0632  0.1750
33325SOL     OW 3890   1.415   6.278   1.861  0.1900 -0.2059  0.3595
33325SOL    HW1 3891   1.418   6.183   1.875  1.5287  0.0767  2.3345
33325SOL    HW2 3892   1.412   6.316   1.949  0.1642  1.5964 -0.3711
33326SOL     OW 3893   3.079   1.143   3.799 -0.6435 -0.3000  0.2600
33326SOL    HW1 3894   3.071   1.050   3.820 -2.4946 -0.5606 -1.3007
33326SOL    HW2 3895   3.089   1.146   3.704 -0.1573  1.0953  0.3177
33327SOL     OW 3896   4.705   6.394   4.133 -0.3164  0.1457  0.3283
33327SOL    HW1 3897   4.708   6.480   4.176 -1.5641  0.4526 -0.1537
33327SOL    HW2 3898   4.633   6.401   4.071 -0.7011 -1.3892  0.5718
33328SOL     OW 3899   7.006   3.374   2.260  0.1695 -0.0569  0.1382
33328SOL    HW1 3900   6.914   3.350   2.271  0.1064 -0.5069 -1.1352
33328SOL    HW2 3901   7.045   3.297   2.217  1.0952  0.1992  0.5095
33329SOL     OW 3902   6.775   7.147   8.853  0.0236 -0.0716 -0.5889
33329SOL    HW1 3903   6.738   7.222   8.898  2.2432  0.4047  0.5790
33329SOL    HW2 3904   6.703   7.084   8.848 -1.0870  0.9886  1.0361
33330SOL     OW 3905   1.364   4.820   2.224 -0.1952  0.0217  0.7727
33330SOL    HW1 3906   1.421   4.888   2.187  0.8801 -1.4576 -0.4274
33330SOL    HW2 3907   1.318   4.864   2.296 -0.0474  2.1741 -0.3688
33331SOL     OW 3908   6.138   2.227   6.673  0.2869 -0.0971 -0.7734
33331SOL    HW1 3909   6.048   2.200   6.688  0.3104  0.3698  0.3234
33331SOL    HW2 3910   6.180   2.222   6.760  0.1874  3.7043 -0.3161
33332SOL     OW 3911   9.921   3.754   2.816  0.2584  0.1549  0.1191
33332SOL    HW1 3912   9.944   3.799   2.736 -0.0790 -0.2434 -0.2083
33332SOL    HW2 3913   9.840   3.795   2.845  0.9055  0.9748  0.8048
33333SOL     OW 3914   3.663   7.822   3.653  0.3013 -0.1601  0.1844
33333SOL    HW1 3915   3.642   7.735   3.619  0.0427  0.1349 -0.4162
33333SOL    HW2 3916   3.706   7.867   3.580  1.4265 -0.1457  0.8304
33334SOL     OW 3917   2.219   4.557   9.072 -0.5253 -0.5546 -0.1021
33334SOL    HW1 3918   2.253   4.486   9.018  1.6459  0.4615 -0.1640
33334SOL    HW2 3919   2.241   4.637   9.023 -1.4421  0.2449  0.7392
33335SOL     OW 3920   6.279   9.352   8.317 -0.0240 -0.3857 -0.1140
33335SOL    HW1 3921   6.360   9.401   8.327  0.0981 -0.3961 -1.0014
33335SOL    HW2 3922   6.218   9.394   8.377  0.1866  0.6250 -0.5935
33336SOL     OW 3923   3.398   6.679   9.143 -0.3217 -0.2486 -0.5423
33336SOL    HW1 3924   3.452   6.752   9.176 -0.6102 -1.3549  2.8054
33336SOL    HW2 3925   3.440   6.601   9.178 -2.0211 -1.4129 -0.9793
33337SOL     OW 3926   7.468   2.243   9.160  0.1962 -0.2004  0.1619
33337SOL    HW1 3927   7.547   2.293   9.181  0.0042 -0.6989  2.2992
33337SOL    HW2 3928   7.501   2.165   9.116  0.8448 -0.0667  0.4003
33338SOL     OW 3929   3.799   6.011   0.254  0.1162 -0.6853  0.2573
33338SOL    HW1 3930   3.879   6.055   0.283  0.9891 -1.4340 -0.9151
33338SOL    HW2 3931   3.799   6.021   0.159 -0.5788 -1.6814  0.1359
33339SOL     OW 3932   7.915   3.717   5.307 -0.1966 -0.1057  1.0899
33339SOL    HW1 3933   7.821   3.722   5.291 -0.2930 -0.7957  1.3765
33339SOL    HW2 3934   7.931   3.779   5.378 -0.4817 -0.1845  1.2220
33340SOL     OW 3935   7.693   8.935   4.429  0.0347 -0.6686  0.4508
33340SOL    HW1 3936   7.699   8.865   4.494 -0.3599 -1.6572 -0.5400
33340SOL    HW2 3937   7.611   8.917   4.382 -0.1913  0.5966  0.3292
33341SOL     OW 3938   7.052   2.029   7.201  0.3795 -0.3668  0.2429
33341SOL    HW1 3939   7.111   2.082   7.255  1.1551 -1.0594  0.0966
33341SOL    HW2 3940   7.107   1.999   7.129 -0.2450 -0.7544 -0.0708
33342SOL     OW 3941   8.434   0.540   1.054  0.2665 -0.2977 -0.4120
33342SOL    HW1 3942   8.455   0.590   0.975 -0.1102 -0.8555 -0.8738
33342SOL    HW2 3943   8.365   0.479   1.026 -1.1796  0.7432  0.8019
33343SOL     OW 3944   5.229   4.932   4.203 -0.2449 -0.4754 -0.2295
33343SOL    HW1 3945   5.254   5.024   4.191 -1.4497 -0.2256 -1.0294
33343SOL    HW2 3946   5.134   4.935   4.216 -0.2725 -1.5978 -0.1155
33344SOL     OW 3947   7.688   8.173   2.004 -0.0731 -0.1987 -0.6142
33344SOL    HW1 3948   7.666   8.193   2.095 -1.3222  0.0099 -0.9320
33344SOL    HW2 3949   7.773   8.215   1.990  0.4195 -0.7367  0.6071
33345SOL     OW 3950   1.804   6.498   4.936 -0.7657 -0.2960 -0.0044
33345SOL    HW1 3951   1.715   6.534   4.946  0.3948  2.5641  1.1020
33345SOL    HW2 3952   1.825   6.513   4.844 -0.7139  0.9846  0.1907
33346SOL     OW 3953   9.523   1.301   8.580  0.0419  0.1167  0.2176
33346SOL    HW1 3954   9.600   1.286   8.525  0.3765  1.0501  0.3982
33346SOL    HW2 3955   9.507   1.218   8.623  1.3380  0.0672  0.6443
33347SOL     OW 3956   6.075   4.667   2.738  0.0749 -0.0354  0.1375
33347SOL    HW1 3957   5.999   4.612   2.758 -0.2578  0.9917  2.0060
33347SOL    HW2 3958   6.141   4.641   2.803  0.9452 -0.1945 -0.7955
33348SOL     OW 3959   5.714   0.137  10.137  0.0123  0.1746  0.0967
33348SOL    HW1 3960   5.786   0.141  10.200  0.8010 -1.3744 -0.6604
33348SOL    HW2 3961   5.654   0.073  10.173  0.1859 -0.2918 -0.4359
33349SOL     OW 3962   3.259   9.990   5.194  0.4271 -0.8673 -0.7459
33349SOL    HW1 3963   3.232   9.899   5.180 -0.4545 -0.6311 -0.5984
33349SOL    HW2 3964   3.194  10.042   5.148  0.3272 -0.2756  0.0382
33350SOL     OW 3965   5.807   6.871   5.537  0.0191  0.2275 -0.3337
33350SOL    HW1 3966   5.732   6.821   5.569  1.1502 -2.3947 -1.4283
33350SOL    HW2 3967   5.871   6.865   5.608  0.4531 -0.6773 -0.7770
33351SOL     OW 3968   9.715   2.898   3.000 -0.0146 -0.8602 -0.4613
33351SOL    HW1 3969   9.637   2.866   3.046 -0.5695  1.1313  0.1103
33351SOL    HW2 3970   9.738   2.828   2.939 -1.6085 -1.9466  0.1256
33352SOL     OW 3971   4.112   1.383   1.651  0.6155  0.8170  0.0123
33352SOL    HW1 3972   4.090   1.418   1.737  0.0484 -0.2650  0.3313
33352SOL    HW2 3973   4.060   1.434   1.589  1.2718  1.8193  0.2656
33353SOL     OW 3974   0.621   4.409   5.474 -0.0893 -0.0992 -0.3543
33353SOL    HW1 3975   0.700   4.365   5.442  0.0559  0.1893 -0.3929
33353SOL    HW2 3976   0.589   4.459   5.400 -0.0732  0.1179 -0.2146
33354SOL     OW 3977   4.870   5.359   7.936 -0.2024 -0.1406  0.4099
33354SOL    HW1 3978   4.899   5.426   7.998  0.5375  0.6584 -0.7602
33354SOL    HW2 3979   4.803   5.402   7.884  0.0915 -0.3890 -0.1845
33355SOL     OW 3980   2.376  10.067   9.698  0.2250 -0.3730 -0.4927
33355SOL    HW1 3981   2.405   9.985   9.738  1.4205 -0.4695 -1.5273
33355SOL    HW2 3982   2.325  10.040   9.621  2.9037 -0.2086 -2.4537
33356SOL     OW 3983   3.122   6.083   1.122  0.1535  0.3274  0.0254
33356SOL    HW1 3984   3.193   6.136   1.159  1.4371 -0.9170 -0.5447
33356SOL    HW2 3985   3.086   6.036   1.198  0.2706  0.6039  0.2548
33357SOL     OW 3986   6.663   1.099   8.159  0.0959 -0.3465  0.6196
33357SOL    HW1 3987   6.645   1.112   8.253 -0.3111 -0.5737  0.5755
33357SOL    HW2 3988   6.662   1.004   8.148  0.0260 -0.3142  0.3596
33358SOL     OW 3989   2.256   8.448   1.636  0.1302  0.3360 -0.1856
33358SOL    HW1 3990   2.246   8.374   1.576  0.3209 -1.0698  1.4059
33358SOL    HW2 3991   2.173   8.450   1.684  0.4967  0.5290  0.4477
33359SOL     OW 3992   0.066   4.907   2.877  0.1059  0.4656 -0.7321
33359SOL    HW1 3993   0.086   4.927   2.969 -0.1454 -2.4403  0.0522
33359SOL    HW2 3994   0.151   4.908   2.834  0.4651  0.0691 -0.0551
33360SOL     OW 3995   9.873   6.339   1.442  0.3984 -0.0251  0.7397
33360SOL    HW1 3996   9.901   6.325   1.532  1.5133  0.8654  0.5518
33360SOL    HW2 3997   9.837   6.255   1.414 -2.6935  0.3836  2.9123
33361SOL     OW 3998   3.232   9.920   8.138 -0.0924 -0.0117  0.1228
33361SOL    HW1 3999   3.139   9.925   8.158 -0.1725  1.0003 -0.4469
33361SOL    HW2 4000   3.261  10.011   8.129  0.6420 -0.3213 -1.0086
33362SOL     OW 4001   5.555   5.137   7.029 -0.0853 -0.4833 -0.5194
33362SOL    HW1 4002   5.527   5.063   7.083  0.2136 -0.8564 -0.8717
33362SOL    HW2 4003   5.630   5.174   7.077 -1.9673  1.3989  1.1807
33363SOL     OW 4004   8.663   8.471   9.764  0.4463  0.3108 -1.2128
33363SOL    HW1 4005   8.739   8.452   9.819  0.9974 -2.0837 -2.6844
33363SOL    HW2 4006   8.694   8.537   9.702  0.3564  1.6278  0.0734
33364SOL     OW 4007   4.283   9.564   7.016  0.6886 -0.3030 -0.0440
33364SOL    HW1 4008   4.288   9.624   7.090 -1.6217 -0.6465  0.4785
33364SOL    HW2 4009   4.342   9.600   6.951 -1.0619  2.9724 -0.0165
33365SOL     OW 4010   8.908   2.753   9.992  0.3669 -0.2544 -0.1708
33365SOL    HW1 4011   8.828   2.705   9.971 -0.4175  1.2910 -0.9835
33365SOL    HW2 4012   8.885   2.804  10.070  2.2687 -3.5987  2.8352
33366SOL     OW 4013   7.625   0.361   7.058  0.3764  0.4025 -0.3469
33366SOL    HW1 4014   7.629   0.303   6.983  2.2024  0.3253 -0.2428
33366SOL    HW2 4015   7.652   0.307   7.132  1.1583  1.1063 -0.0921
33367SOL     OW 4016   0.714   3.636   5.553  0.1530  0.0821  0.7425
33367SOL    HW1 4017   0.747   3.710   5.502 -1.1411  0.7643  0.8600
33367SOL    HW2 4018   0.706   3.565   5.488 -1.1582  0.8462  0.0208
33368SOL     OW 4019   5.273   1.547   8.944  0.6079 -0.3924  0.7003
33368SOL    HW1 4020   5.281   1.456   8.914 -1.1071  0.0044 -1.1750
33368SOL    HW2 4021   5.179   1.566   8.937  0.9762  1.6220  0.7547
33369SOL     OW 4022   0.415   6.249   9.585 -0.4139 -0.0525  0.5581
33369SOL    HW1 4023   0.331   6.293   9.575 -0.3699 -0.1778 -0.5403
33369SOL    HW2 4024   0.401   6.187   9.657 -1.2571 -0.0592  0.4028
33370SOL     OW 4025   9.397   6.488   4.452  0.3429  0.1739  0.1301
33370SOL    HW1 4026   9.468   6.440   4.409  0.9349  1.5496 -0.4718
33370SOL    HW2 4027   9.434   6.573   4.474 -0.9326  0.7001  0.3759
33371SOL     OW 4028   8.668   1.316   7.135  0.4481  0.0178  0.6887
33371SOL    HW1 4029   8.637   1.241   7.084  0.3789 -0.3438  1.2550
33371SOL    HW2 4030   8.653   1.392   7.079  1.7839 -0.5204 -0.4597
33372SOL     OW 4031  10.194   6.599   8.371  0.7956  0.5894 -0.3181
33372SOL    HW1 4032  10.269   6.554   8.333 -0.2314 -0.0246 -1.7096
33372SOL    HW2 4033  10.125   6.532   8.375  0.3761  1.0599  1.1786
33373SOL     OW 4034   7.732   1.795   0.930 -0.5257 -0.6175  0.0878
33373SOL    HW1 4035   7.711   1.837   1.013  0.1197  0.2667 -0.1799
33373SOL    HW2 4036   7.695   1.853   0.863 -0.8824 -1.2250 -0.2587
33374SOL     OW 4037   0.073   6.949   0.819  0.0576 -0.0376  0.3743
33374SOL    HW1 4038   0.100   6.945   0.728 -1.0034 -0.7209  0.0789
33374SOL    HW2 4039   0.051   7.041   0.834 -2.5100 -0.3756 -0.9006
33375SOL     OW 4040   8.433   6.887   0.860 -0.3090  0.0635 -0.2932
33375SOL    HW1 4041   8.519   6.915   0.827  0.2851 -2.1757 -0.8288
33375SOL    HW2 4042   8.373   6.956   0.832  1.1151  1.0733 -0.9888
33376SOL     OW 4043   2.282   8.259   3.353 -0.7291  0.1697 -0.2118
33376SOL    HW1 4044   2.198   8.300   3.372 -0.3168  1.3347 -0.8397
33376SOL    HW2 4045   2.333   8.327   3.309  1.2530  0.1306  1.8654
33377SOL     OW 4046   7.183   1.501   9.223  0.2094  0.1158 -0.0684
33377SOL    HW1 4047   7.186   1.596   9.211 -0.0773  0.4699  2.1740
33377SOL    HW2 4048   7.101   1.474   9.182 -0.5878  1.1252  0.7902
33378SOL     OW 4049   0.532   2.750   3.941 -0.3547  0.2492 -0.1416
33378SOL    HW1 4050   0.599   2.723   3.879  0.2159 -0.7763  0.8916
33378SOL    HW2 4051   0.580   2.772   4.021 -1.1300  0.8819  0.1666
33379SOL     OW 4052   5.402   2.093   0.618  0.3139  0.0897 -0.3611
33379SOL    HW1 4053   5.399   2.186   0.599 -1.8175 -0.5954 -4.5872
33379SOL    HW2 4054   5.490   2.066   0.591  0.6748  0.7272  0.1539
33380SOL     OW 4055   0.094   5.418   7.350 -0.7219  0.1647 -0.2843
33380SOL    HW1 4056   0.183   5.388   7.333 -0.4479 -0.9091  2.5327
33380SOL    HW2 4057   0.103   5.488   7.414 -1.9048 -0.2360  0.3627
33381SOL     OW 4058   1.703   5.281   5.555 -0.0867  0.4427  0.4960
33381SOL    HW1 4059   1.660   5.324   5.629  1.1126 -1.4169  2.3772
33381SOL    HW2 4060   1.644   5.210   5.531  0.6271 -0.4696  1.3388
33382SOL     OW 4061   1.553   8.191   9.349  0.4092  0.3494 -0.1345
33382SOL    HW1 4062   1.621   8.204   9.416  1.0034 -0.5214 -0.5487
33382SOL    HW2 4063   1.601   8.195   9.266  0.2343 -1.7420 -0.3892
33383SOL     OW 4064   5.260   4.638   6.519 -0.1702 -0.1761 -0.0161
33383SOL    HW1 4065   5.203   4.641   6.597  1.1101 -0.6920  0.9762
33383SOL    HW2 4066   5.201   4.617   6.447 -1.4878  0.8553  0.7125
33384SOL     OW 4067   6.443   2.405   1.851 -0.6242 -0.4776 -0.2940
33384SOL    HW1 4068   6.530   2.446   1.854 -1.0051  0.2937  0.2750
33384SOL    HW2 4069   6.420   2.407   1.758  0.0835 -0.9502 -0.4939
33385SOL     OW 4070   1.667   9.302   1.106 -0.2257 -0.3387  0.2320
33385SOL    HW1 4071   1.744   9.291   1.050 -0.1001 -1.9529  0.6613
33385SOL    HW2 4072   1.695   9.365   1.173  0.3353 -0.0423 -0.2730
33386SOL     OW 4073   3.223   6.628   6.212 -0.3189 -0.2638 -0.5934
33386SOL    HW1 4074   3.164   6.677   6.154 -0.7553 -0.7613 -0.5768
33386SOL    HW2 4075   3.215   6.671   6.297  0.7551  0.8271 -1.0161
33387SOL     OW 4076   1.519   6.039   5.736 -0.1050  0.0236 -0.1440
33387SOL    HW1 4077   1.537   5.984   5.812  1.1024  2.3465  1.3601
33387SOL    HW2 4078   1.566   5.997   5.664  0.8436 -0.8717  0.9625
33388SOL     OW 4079   9.228   3.337   4.657  0.2772 -0.1499 -0.2820
33388SOL    HW1 4080   9.201   3.293   4.577 -0.3846  0.3907 -0.3669
33388SOL    HW2 4081   9.323   3.335   4.654  0.3092  1.2127 -1.8629
33389SOL     OW 4082   1.827   2.898   2.005 -0.1087  0.2452 -0.0885
33389SOL    HW1 4083   1.867   2.869   1.923  0.1387 -1.6736  0.6726
33389SOL    HW2 4084   1.830   2.994   2.000  2.0423  0.1727 -1.2812
33390SOL     OW 4085   8.764   3.401   2.853  0.6704  0.2083 -0.2431
33390SOL    HW1 4086   8.705   3.435   2.786  1.2068  2.1664  0.2116
33390SOL    HW2 4087   8.778   3.474   2.913  1.0843 -1.1467  1.4198
33391SOL     OW 4088   3.996   3.647   1.398  0.0592  0.5169  0.0573
33391SOL    HW1 4089   3.968   3.738   1.410  0.6482  0.8909 -1.1917
33391SOL    HW2 4090   4.024   3.643   1.306  2.5853 -0.2117  0.7902
33392SOL     OW 4091   3.715   3.575   3.820  0.2179 -0.2686 -0.0596
33392SOL    HW1 4092   3.772   3.628   3.874  0.2149  0.1759 -0.4849
33392SOL    HW2 4093   3.747   3.588   3.731 -0.7497  0.2599 -0.3468
33393SOL     OW 4094   4.225   7.803   9.879  0.1928 -0.0431  0.4947
33393SOL    HW1 4095   4.188   7.878   9.832  0.7885 -0.5055 -0.7411
33393SOL    HW2 4096   4.304   7.837   9.921 -0.8120  0.5928  1.9582
33394SOL     OW 4097   2.456   8.058   4.044 -0.1531 -0.0868 -0.2590
33394SOL    HW1 4098   2.465   8.094   3.956  0.0726 -0.8524 -0.5594
33394SOL    HW2 4099   2.540   8.078   4.086 -0.5046  0.8736  0.0242
33395SOL     OW 4100   4.161   6.090   4.413 -0.1667 -0.4688  0.3611
33395SOL    HW1 4101   4.220   6.122   4.344  1.1214 -3.5418 -0.1281
33395SOL    HW2 4102   4.077   6.080   4.370  0.5663 -2.1244 -0.7927
33396SOL     OW 4103   0.576   0.084   9.359  0.3105 -0.4490 -0.0372
33396SOL    HW1 4104   0.576   0.049   9.270  0.1076 -0.3102 -0.0946
33396SOL    HW2 4105   0.585   0.178   9.347 -1.6687 -0.2113 -0.0266
33397SOL     OW 4106   9.412   9.079   2.269 -0.4086 -0.5253 -0.2986
33397SOL    HW1 4107   9.366   9.149   2.224 -0.9779 -0.5315  0.2593
33397SOL    HW2 4108   9.499   9.077   2.228 -0.3264  0.6101 -0.1980
33398SOL     OW 4109   0.728   0.289   9.774  0.2048 -0.5436 -0.2024
33398SOL    HW1 4110   0.769   0.218   9.726 -2.0504 -2.3631  0.4021
33398SOL    HW2 4111   0.714   0.254   9.862 -0.1822  0.9476  0.3596
33399SOL     OW 4112   5.425   0.744   8.100  0.1391  0.1771  0.3984
33399SOL    HW1 4113   5.409   0.837   8.114  0.2585  0.2661 -0.0519
33399SOL    HW2 4114   5.359   0.699   8.154  2.1113  0.4726  3.2904
33400SOL     OW 4115   5.455   9.690   5.344  0.4286 -0.1462 -0.0386
33400SOL    HW1 4116   5.500   9.614   5.380 -0.6534 -0.4320  0.7543
33400SOL    HW2 4117   5.512   9.764   5.365  0.7994 -0.5651  0.4506
33401SOL     OW 4118   2.741   2.545   4.669  0.3156  0.5797 -0.0733
33401SOL    HW1 4119   2.823   2.588   4.693  0.5403 -0.7309  1.6868
33401SOL    HW2 4120   2.684   2.558   4.745 -0.2761 -0.5539 -0.3058
33402SOL     OW 4121   8.875   1.038   9.012 -0.2535  0.2363 -0.1692
33402SOL    HW1 4122   8.865   1.124   8.969  0.1854  0.6890  0.6234
33402SOL    HW2 4123   8.793   0.993   8.993 -0.4837  0.8248 -0.6147
33403SOL     OW 4124   8.562   1.931   9.889 -0.3552  0.0056 -0.1746
33403SOL    HW1 4125   8.530   1.969   9.807  0.0592  0.3406 -0.1869
33403SOL    HW2 4126   8.657   1.946   9.887 -0.2271 -0.7232 -0.0170
33404SOL     OW 4127   4.629   0.943   9.429 -0.2922 -0.0386  0.6140
33404SOL    HW1 4128   4.545   0.907   9.398 -0.8340  1.1078  0.7088
33404SOL    HW2 4129   4.606   0.991   9.508  0.4206  0.5144  0.4874
33405SOL     OW 4130   2.404   0.558   0.282  0.6357 -0.1480  0.6179
33405SOL    HW1 4131   2.336   0.625   0.288  0.9709  0.1313  1.5117
33405SOL    HW2 4132   2.486   0.607   0.281  0.8297 -0.4222 -1.5400
33406SOL     OW 4133  10.161   7.008   6.602  0.0736 -0.2051 -0.0485
33406SOL    HW1 4134  10.192   7.046   6.684  0.7176  0.1737 -0.4565
33406SOL    HW2 4135  10.142   6.916   6.623  0.4892 -0.1779  0.4565
33407SOL     OW 4136   0.953   9.120   6.218  0.5033  0.5175 -0.4980
33407SOL    HW1 4137   0.971   9.059   6.146  0.5269  1.1579 -1.0352
33407SOL    HW2 4138   0.870   9.089   6.255  0.0003  0.7609 -1.4106
33408SOL     OW 4139   9.576   1.904   3.115  0.6911  0.2526 -0.4491
33408SOL    HW1 4140   9.571   1.866   3.028 -0.1191  0.8361 -0.6719
33408SOL    HW2 4141   9.624   1.840   3.167 -0.6937 -1.1332 -0.7841
33409SOL     OW 4142   4.174   1.565   6.993 -0.1185  0.1031  0.1106
33409SOL    HW1 4143   4.179   1.574   6.898  0.3756 -2.1916 -0.1555
33409SOL    HW2 4144   4.224   1.639   7.027  0.1589  0.6670 -1.4311
33410SOL     OW 4145   9.332   0.255   0.096 -0.2779  0.2547  0.3822
33410SOL    HW1 4146   9.371   0.342   0.106 -0.3460  0.4030 -0.5711
33410SOL    HW2 4147   9.351   0.231   0.006 -0.1751 -0.7669  0.6699
33411SOL     OW 4148   4.935   3.385   0.749  0.1605  0.3371  0.7982
33411SOL    HW1 4149   4.947   3.477   0.726  2.3391 -0.1137 -0.1370
33411SOL    HW2 4150   4.953   3.381   0.843  2.3293  0.5753  0.4370
33412SOL     OW 4151   8.176   5.367   6.510  0.0058 -0.1647  0.1074
33412SOL    HW1 4152   8.163   5.431   6.440  1.5442 -0.4028 -0.4403
33412SOL    HW2 4153   8.103   5.305   6.501 -1.4240  1.3707  0.5511
33413SOL     OW 4154   5.072   0.242   5.273 -0.1275  0.1637  0.2757
33413SOL    HW1 4155   5.043   0.315   5.219 -0.8620  1.8448  2.7386
33413SOL    HW2 4156   5.157   0.270   5.307  0.6687 -1.1795 -0.5606
33414SOL     OW 4157   8.179   8.800   5.828  0.0654 -0.3115  0.0708
33414SOL    HW1 4158   8.201   8.755   5.747  1.2651 -0.4173  0.4414
33414SOL    HW2 4159   8.112   8.864   5.803 -0.4032 -1.1157 -0.7735
33415SOL     OW 4160   9.684   7.857   8.512  0.0104  0.5565 -0.2517
33415SOL    HW1 4161   9.657   7.875   8.602 -0.8641 -1.3859 -0.0711
33415SOL    HW2 4162   9.707   7.942   8.476  0.5289  1.3541  1.8508
33416SOL     OW 4163   6.198   4.664   9.217 -0.1056  0.6747 -0.2769
33416SOL    HW1 4164   6.171   4.573   9.205  0.2928  0.5749 -0.4638
33416SOL    HW2 4165   6.287   4.657   9.252 -0.2854  0.9906  0.2525
33417SOL     OW 4166   4.724   0.863   5.807 -0.4587 -0.1347  0.5367
33417SOL    HW1 4167   4.726   0.826   5.719  3.2363 -0.3160  0.5253
33417SOL    HW2 4168   4.727   0.958   5.793 -2.0170 -0.0585  0.5409
33418SOL     OW 4169   6.207   0.622   3.587 -0.2752 -0.6010  0.3650
33418SOL    HW1 4170   6.297   0.639   3.612 -0.1267 -1.5637  0.5390
33418SOL    HW2 4171   6.210   0.538   3.541 -0.5263  1.0468 -2.9310
33419SOL     OW 4172   1.326   6.071   9.835  0.2559 -0.2906 -0.3307
33419SOL    HW1 4173   1.246   6.071   9.783 -0.0420  0.1515  0.1254
33419SOL    HW2 4174   1.392   6.108   9.776  0.2592 -1.1631 -0.8946
33420SOL     OW 4175   9.734   0.654   1.836 -0.2470 -0.1435  0.1151
33420SOL    HW1 4176   9.804   0.646   1.900 -1.4013 -0.1785  1.4334
33420SOL    HW2 4177   9.691   0.737   1.859 -1.7083 -0.9684  0.4945
33421SOL     OW 4178   7.450   5.343   2.974  0.0484  0.0444  0.5048
33421SOL    HW1 4179   7.523   5.382   3.022 -0.2226  0.0595  0.9189
33421SOL    HW2 4180   7.372   5.386   3.011 -0.1657  0.0884  0.0144
33422SOL     OW 4181   2.181   3.188   8.375  0.0916  0.0379  0.0620
33422SOL    HW1 4182   2.126   3.231   8.310 -1.0612 -0.8681  0.3970
33422SOL    HW2 4183   2.225   3.118   8.327 -1.4351 -1.1961  0.3944
33423SOL     OW 4184   7.452   9.239   9.739 -0.3051 -0.8496 -0.2911
33423SOL    HW1 4185   7.527   9.202   9.691 -0.0899 -1.9886  0.8848
33423SOL    HW2 4186   7.414   9.302   9.678  1.2325 -0.7152 -1.1530
33424SOL     OW 4187   7.367   2.787   8.245 -0.1371  0.1544 -0.1637
33424SOL    HW1 4188   7.312   2.711   8.261 -1.0491  0.9225  0.4389
33424SOL    HW2 4189   7.307   2.853   8.210  0.3504  1.0614  0.6661
33425SOL     OW 4190   4.602   0.274  10.129 -0.3410  0.0305 -0.0945
33425SOL    HW1 4191   4.668   0.304  10.190  1.9524  1.5727 -3.0403
33425SOL    HW2 4192   4.645   0.205  10.079 -2.0257 -1.0056 -0.1813
33426SOL     OW 4193   1.687   9.966   4.974 -0.5759 -0.0542 -0.0772
33426SOL    HW1 4194   1.648   9.879   4.984  0.8043 -0.7017 -0.0595
33426SOL    HW2 4195   1.713   9.970   4.882 -1.3370  0.6662 -0.2732
33427SOL     OW 4196   2.501   8.147   0.354  0.1770  0.4562  0.1271
33427SOL    HW1 4197   2.461   8.061   0.343 -1.1049  1.2602 -2.2059
33427SOL    HW2 4198   2.449   8.188   0.423 -0.2879 -0.0395  0.0841
33428SOL     OW 4199   9.908   3.694   3.583 -0.5111  0.2348 -0.1521
33428SOL    HW1 4200   9.813   3.696   3.592 -0.5393 -0.3445 -0.2870
33428SOL    HW2 4201   9.923   3.676   3.490 -0.3042 -2.0022  0.2624
33429SOL     OW 4202   5.136   7.511   7.022  0.0871  0.2573  0.0639
33429SOL    HW1 4203   5.115   7.418   7.019  0.6923  0.1258 -0.5828
33429SOL    HW2 4204   5.226   7.514   7.054 -0.1238  0.6566  0.6213
33430SOL     OW 4205   0.906   1.617   8.119  0.5926  0.3491  0.3525
33430SOL    HW1 4206   0.862   1.595   8.201 -0.8189 -2.0394 -0.9364
33430SOL    HW2 4207   0.957   1.538   8.098  0.0672  0.4840 -1.5839
33431SOL     OW 4208   5.463   2.102   4.195  0.2709 -0.0170  0.2632
33431SOL    HW1 4209   5.483   2.191   4.223  1.3818  0.1061 -0.8153
33431SOL    HW2 4210   5.548   2.062   4.181 -0.1962 -0.4657 -1.5968
33432SOL     OW 4211   3.618   1.481   0.538  0.2505 -0.0841 -0.2336
33432SOL    HW1 4212   3.603   1.562   0.587  0.6460  0.4952 -1.0422
33432SOL    HW2 4213   3.558   1.485   0.464 -1.0066 -1.3933  0.6501
33433SOL     OW 4214   4.120   9.152   8.754  0.2503  0.1014 -0.4061
33433SOL    HW1 4215   4.185   9.218   8.730 -0.2760  1.3998  1.4972
33433SOL    HW2 4216   4.160   9.106   8.829 -0.4609  0.0105 -0.0746
33434SOL     OW 4217   0.679   2.016   4.044 -0.2859 -0.2680 -0.0588
33434SOL    HW1 4218   0.761   2.026   3.996 -0.0885 -4.3827 -0.9927
33434SOL    HW2 4219   0.613   2.056   3.988  0.5435 -0.9678 -1.5916
33435SOL     OW 4220   9.547   7.361   2.154  0.1496  0.8380 -0.8884
33435SOL    HW1 4221   9.624   7.330   2.203 -0.4291 -0.3039 -0.6593
33435SOL    HW2 4222   9.583   7.424   2.091  1.1681  0.9013 -0.2757
33436SOL     OW 4223   3.465   3.337   2.785 -0.6162  0.4164 -0.4119
33436SOL    HW1 4224   3.372   3.333   2.807 -0.9156 -0.4151 -1.7076
33436SOL    HW2 4225   3.473   3.285   2.705  1.2901 -1.1343  0.6910
33437SOL     OW 4226   6.946   6.068   9.663 -0.1411 -0.0022 -0.2889
33437SOL    HW1 4227   7.027   6.115   9.643  0.9239 -1.8634 -0.5281
33437SOL    HW2 4228   6.940   6.068   9.758  1.0342 -1.2596 -0.1961
33438SOL     OW 4229   1.654   3.548   1.865  0.0698  0.0927 -0.0574
33438SOL    HW1 4230   1.734   3.558   1.916 -0.9923  2.3653  1.3414
33438SOL    HW2 4231   1.669   3.597   1.785  0.6116 -0.8160 -0.5242
33439SOL     OW 4232   6.300   8.918   5.442 -0.2383 -0.3279 -0.6548
33439SOL    HW1 4233   6.327   8.995   5.392  0.0033 -0.4074 -0.6481
33439SOL    HW2 4234   6.205   8.914   5.430 -0.2566 -0.0071 -0.6203
33440SOL     OW 4235   2.541   0.477   0.533 -0.3604 -0.1610  0.0203
33440SOL    HW1 4236   2.445   0.479   0.532 -0.3853 -0.8576 -1.3285
33440SOL    HW2 4237   2.566   0.530   0.457  0.3428  0.3561  0.6000
33441SOL     OW 4238   7.858   1.088   5.279  0.2384  0.4775  0.1548
33441SOL    HW1 4239   7.930   1.027   5.297 -0.3407  0.2577  1.9287
33441SOL    HW2 4240   7.783   1.031   5.262  0.3580  0.7119 -1.2956
33442SOL     OW 4241   5.133   4.597   6.120  0.4544  0.0941 -0.0868
33442SOL    HW1 4242   5.073   4.554   6.181  0.5951  0.9331  0.6609
33442SOL    HW2 4243   5.181   4.525   6.079 -1.1837 -0.6121 -0.8530
33443SOL     OW 4244   7.861   5.724   5.617 -0.3329  0.0231  0.4662
33443SOL    HW1 4245   7.834   5.701   5.528  3.4520 -0.6849 -0.6812
33443SOL    HW2 4246   7.898   5.812   5.609  3.1267 -1.2698  0.3972
33444SOL     OW 4247   7.375   8.670   4.045 -0.4916 -0.4467 -0.8854
33444SOL    HW1 4248   7.391   8.578   4.023  1.9614  0.1197 -1.7977
33444SOL    HW2 4249   7.457   8.700   4.084 -0.5210  1.8636 -2.4461
33445SOL     OW 4250   6.903   9.179   5.962 -0.4706  0.1728 -0.1668
33445SOL    HW1 4251   6.946   9.119   5.902 -0.9826 -0.9246  0.5373
33445SOL    HW2 4252   6.810   9.172   5.941 -0.4837  1.2189 -0.5103
33446SOL     OW 4253   8.387   3.186   9.845 -0.2250  0.0362  0.3141
33446SOL    HW1 4254   8.473   3.214   9.875 -0.3752  0.7638  0.1075
33446SOL    HW2 4255   8.402   3.148   9.759  0.5170 -4.0103  2.0371
33447SOL     OW 4256   2.202   3.782   9.769 -0.1209  0.0024  0.1925
33447SOL    HW1 4257   2.151   3.730   9.831  1.2119  0.0792  1.3792
33447SOL    HW2 4258   2.263   3.831   9.822  2.1705 -1.1260 -1.2422
33448SOL     OW 4259  10.160   6.938   2.725  1.1449 -0.2124 -0.2848
33448SOL    HW1 4260  10.232   6.887   2.687 -0.7197 -1.3589 -2.5945
33448SOL    HW2 4261  10.081   6.892   2.696 -0.6289  2.9432 -0.9014
33449SOL     OW 4262   7.026   2.692   8.607  0.1286  0.7507 -0.2033
33449SOL    HW1 4263   6.994   2.651   8.527  1.8282  1.8655 -1.5182
33449SOL    HW2 4264   6.952   2.685   8.668 -0.9416 -0.8130 -1.5764
33450SOL     OW 4265   6.090   9.350   4.469 -0.3372 -0.3989 -0.4133
33450SOL    HW1 4266   5.996   9.367   4.474 -0.0157  1.7505 -0.4084
33450SOL    HW2 4267   6.115   9.372   4.379  0.3013  0.1586 -0.1206
33451SOL     OW 4268   3.400   5.832   1.547  0.0072 -0.6143  0.4068
33451SOL    HW1 4269   3.489   5.863   1.528  0.4541 -1.2856  1.3389
33451SOL    HW2 4270   3.350   5.911   1.563  1.2405 -0.2838  3.2574
33452SOL     OW 4271   1.555   3.033   6.575  0.4173  0.1921 -0.2117
33452SOL    HW1 4272   1.510   3.060   6.655 -0.1421  0.6663 -0.6765
33452SOL    HW2 4273   1.502   3.070   6.504  1.8544  1.2269 -0.7679
33453SOL     OW 4274   4.752   5.512   4.229 -0.1763 -0.4329  0.1474
33453SOL    HW1 4275   4.823   5.554   4.180  1.0030 -0.7878  1.4684
33453SOL    HW2 4276   4.741   5.568   4.306 -1.8506  0.0129 -0.3941
33454SOL     OW 4277   3.034   1.765   2.161  0.2812  0.3112  0.6038
33454SOL    HW1 4278   3.036   1.841   2.103  0.9531 -0.2626 -0.1643
33454SOL    HW2 4279   2.959   1.714   2.132 -0.3716  0.8411  1.3424
33455SOL     OW 4280   7.243   8.500   4.274 -0.1597 -0.2124  0.1863
33455SOL    HW1 4281   7.269   8.582   4.232  1.3818 -0.8985 -0.2952
33455SOL    HW2 4282   7.297   8.433   4.232 -0.6617 -1.3407  1.2500
33456SOL     OW 4283   6.226   9.142   4.377  0.2251  0.2165 -0.8773
33456SOL    HW1 4284   6.316   9.160   4.404  0.6560 -2.2876 -0.4035
33456SOL    HW2 4285   6.174   9.206   4.426  1.6900  1.5611 -0.9801
33457SOL     OW 4286   7.898   2.195   4.631  0.2234  0.0784 -0.3794
33457SOL    HW1 4287   7.921   2.283   4.600  0.8652 -0.3501 -1.1723
33457SOL    HW2 4288   7.953   2.137   4.579  0.2160 -0.7667  0.5275
33458SOL     OW 4289   6.479   8.638   8.154 -0.1636 -0.9239 -0.4156
33458SOL    HW1 4290   6.454   8.655   8.245 -0.8562 -0.0687 -0.7444
33458SOL    HW2 4291   6.424   8.698   8.103  1.5056 -0.0853 -1.2892
33459SOL     OW 4292   7.473   3.040   5.459 -0.2884  0.6812  0.1557
33459SOL    HW1 4293   7.567   3.054   5.448 -0.1941 -0.2218 -0.2519
33459SOL    HW2 4294   7.433   3.091   5.388 -0.1284  1.2378  0.4585
33460SOL     OW 4295   9.155   3.215   9.033 -0.0572 -0.3206 -0.0969
33460SOL    HW1 4296   9.200   3.132   9.049 -0.5694 -0.8400 -1.2962
33460SOL    HW2 4297   9.066   3.201   9.065  0.0215 -0.0055  0.2816
33461SOL     OW 4298   2.658   3.244   9.328  0.1320  0.2261  0.8473
33461SOL    HW1 4299   2.692   3.333   9.315  0.9573  0.0555  1.7536
33461SOL    HW2 4300   2.721   3.202   9.387 -0.1389 -1.0358  0.2727
33462SOL     OW 4301   0.255   6.026   6.874 -0.2132  0.0731 -0.2713
33462SOL    HW1 4302   0.336   5.979   6.853  0.9939  1.4639  1.0050
33462SOL    HW2 4303   0.225   6.061   6.790  2.5736  2.6001 -0.3778
33463SOL     OW 4304   2.599   0.311   8.700  0.0410  0.3440 -0.6852
33463SOL    HW1 4305   2.659   0.238   8.717  1.1508  1.4273  0.2091
33463SOL    HW2 4306   2.596   0.317   8.604 -0.3858 -1.1109 -0.7869
33464SOL     OW 4307   6.254   5.014   8.492  0.5688  0.0449 -0.1586
33464SOL    HW1 4308   6.293   5.056   8.570 -0.6176  0.8472  0.0256
33464SOL    HW2 4309   6.256   4.921   8.512  1.0813  0.1741  0.4558
33465SOL     OW 4310   3.687   6.118   8.542  0.6433  0.0349  0.4025
33465SOL    HW1 4311   3.601   6.091   8.576  0.9060 -0.4291  0.7058
33465SOL    HW2 4312   3.670   6.138   8.450 -0.2858  2.2858  0.9960
33466SOL     OW 4313   8.127   8.907   9.063 -0.5369  0.1158 -0.4671
33466SOL    HW1 4314   8.117   8.938   9.152  0.1513  2.0746 -1.0177
33466SOL    HW2 4315   8.150   8.814   9.072  2.9534  0.9827  1.5932
33467SOL     OW 4316  10.138   4.501   1.861 -0.1671 -0.0053  0.2793
33467SOL    HW1 4317  10.136   4.588   1.821 -0.9198  0.5905  1.5710
33467SOL    HW2 4318  10.096   4.444   1.795  2.6038  0.0501 -1.7003
33468SOL     OW 4319   4.659   1.164   5.187  0.5185 -0.2709  0.1616
33468SOL    HW1 4320   4.725   1.107   5.148  1.1941  1.2812 -1.0686
33468SOL    HW2 4321   4.606   1.193   5.113 -1.5372 -1.4007  1.1151
33469SOL     OW 4322   6.957   7.412   5.672  0.5423 -0.2537 -0.4832
33469SOL    HW1 4323   6.872   7.381   5.704  0.5104 -0.1208 -0.4386
33469SOL    HW2 4324   6.986   7.475   5.739  1.2655 -1.2410  0.1597
33470SOL     OW 4325   2.732   0.083   3.526  0.9324 -0.6063  0.0668
33470SOL    HW1 4326   2.814   0.098   3.572  1.9691 -1.1683 -1.5548
33470SOL    HW2 4327   2.735   0.140   3.450 -0.6200  0.0667  0.4526
33471SOL     OW 4328   7.831   7.646   7.124  0.0645  0.1985  0.0716
33471SOL    HW1 4329   7.809   7.560   7.089  1.0268 -0.1761  0.3433
33471SOL    HW2 4330   7.798   7.645   7.214 -0.8026  0.4906 -0.2358
33472SOL     OW 4331   2.886   2.467   3.359  0.3534  0.0847  0.6006
33472SOL    HW1 4332   2.866   2.450   3.267  0.7772  0.3676  0.4493
33472SOL    HW2 4333   2.845   2.552   3.376  0.9710  0.4223  0.4349
33473SOL     OW 4334   3.061   0.404   0.029  0.2433  0.3568 -0.0439
33473SOL    HW1 4335   3.099   0.324   0.066  1.5282  0.6389 -0.7298
33473SOL    HW2 4336   3.064   0.468   0.100 -0.8452 -0.1946  0.5262
33474SOL     OW 4337   0.350   5.985   5.975 -0.1501 -0.6382 -0.6054
33474SOL    HW1 4338   0.415   5.921   5.945  1.9193 -0.0967  2.2547
33474SOL    HW2 4339   0.277   5.932   6.006  1.2659 -1.6738  1.1500
33475SOL     OW 4340   8.901   2.310   1.557  0.0706 -0.1374 -0.5400
33475SOL    HW1 4341   8.861   2.396   1.566 -0.8403 -0.3382 -2.3100
33475SOL    HW2 4342   8.837   2.249   1.593  0.7505 -0.0978  0.7908
33476SOL     OW 4343   7.438   0.422   6.554 -0.4559 -0.2217 -0.2980
33476SOL    HW1 4344   7.450   0.449   6.463 -0.0468 -1.2587 -0.5635
33476SOL    HW2 4345   7.463   0.330   6.555  0.3621 -0.0137  1.0360
33477SOL     OW 4346   6.812   4.593   8.311  0.2371 -0.5131 -0.2930
33477SOL    HW1 4347   6.844   4.662   8.369  2.0455 -1.1143 -0.5019
33477SOL    HW2 4348   6.887   4.534   8.301 -1.2720 -2.5675 -0.0521
33478SOL     OW 4349   8.844   5.511   6.308 -0.2961  0.5746  0.3906
33478SOL    HW1 4350   8.850   5.437   6.367 -1.2422  1.5434  1.7640
33478SOL    HW2 4351   8.931   5.552   6.311 -0.9140  1.9052  2.9515
33479SOL     OW 4352   5.559   7.055   9.097 -0.6254 -0.5235 -0.4451
33479SOL    HW1 4353   5.515   7.098   9.171 -0.1203  0.0369 -0.4602
33479SOL    HW2 4354   5.628   7.003   9.138 -1.4583 -1.6331 -0.3999
33480SOL     OW 4355   2.644   1.500   9.756 -0.2177 -0.6585  0.2487
33480SOL    HW1 4356   2.738   1.490   9.771  0.0294  0.3639 -0.4761
33480SOL    HW2 4357   2.605   1.425   9.799  1.0924 -2.3044 -1.2905
33481SOL     OW 4358   0.988   7.606   4.951 -0.2347 -0.1561 -0.7876
33481SOL    HW1 4359   1.004   7.623   5.044  1.0924  1.4556 -1.2564
33481SOL    HW2 4360   1.061   7.551   4.923 -0.2980 -0.1295 -1.0112
33482SOL     OW 4361   3.974   1.518   7.167 -0.1708 -0.0449 -0.0994
33482SOL    HW1 4362   3.992   1.588   7.230 -1.5829  1.7189 -1.5827
33482SOL    HW2 4363   4.032   1.537   7.093 -0.5520 -0.4739 -0.5112
33483SOL     OW 4364   9.487   9.631   7.924  0.4078 -0.4233  0.4994
33483SOL    HW1 4365   9.413   9.592   7.878  0.0473  1.6444 -0.7978
33483SOL    HW2 4366   9.553   9.643   7.856 -0.3187  3.1678  0.2733
33484SOL     OW 4367   2.160   8.023   8.256  0.1674 -0.3976 -0.3697
33484SOL    HW1 4368   2.220   8.062   8.193 -0.6788  1.8751  0.1159
33484SOL    HW2 4369   2.216   7.969   8.313  1.4018 -0.0285 -1.1974
33485SOL     OW 4370   9.339   9.051   9.680  0.3541  0.5135  0.6049
33485SOL    HW1 4371   9.321   8.991   9.608  0.0523  0.1510  0.9715
33485SOL    HW2 4372   9.369   9.132   9.638 -0.2101  0.4482  0.0542
33486SOL     OW 4373   1.636   3.509   2.938 -0.1699 -0.1757  0.2111
33486SOL    HW1 4374   1.617   3.556   3.019 -1.0560  0.8022 -0.5374
33486SOL    HW2 4375   1.629   3.417   2.962  1.7243  0.0046  1.7491
33487SOL     OW 4376   5.503   4.002   9.946 -0.4131 -0.6289  0.2053
33487SOL    HW1 4377   5.584   4.038   9.909 -2.3280  1.9412 -1.8275
33487SOL    HW2 4378   5.468   3.945   9.878 -0.9975 -0.6058  0.4763
33488SOL     OW 4379   5.401   6.002   0.145  0.2120 -0.2832  0.1695
33488SOL    HW1 4380   5.346   5.975   0.219 -1.2462 -0.1237 -0.8095
33488SOL    HW2 4381   5.451   5.923   0.123 -1.6476 -1.3083 -0.6248
33489SOL     OW 4382   2.737   7.967   4.545  0.6900 -0.6035  0.2380
33489SOL    HW1 4383   2.706   8.058   4.539  0.3533 -0.7405 -0.1309
33489SOL    HW2 4384   2.666   7.920   4.588 -0.0906 -1.1212 -1.5149
33490SOL     OW 4385   0.205   1.148   3.586 -0.1878  0.2955 -0.0823
33490SOL    HW1 4386   0.144   1.077   3.606 -0.5516  1.0762  1.7315
33490SOL    HW2 4387   0.151   1.215   3.544 -0.2116  0.2443 -0.1336
33491SOL     OW 4388  10.081   5.987   4.818 -0.1805 -0.6806 -0.0555
33491SOL    HW1 4389  10.170   5.952   4.806 -0.1288 -0.4543 -0.3284
33491SOL    HW2 4390  10.030   5.947   4.748  0.4198  1.7092 -1.9655
33492SOL     OW 4391   5.748   4.627   1.420  1.1260  0.8168  0.0612
33492SOL    HW1 4392   5.745   4.562   1.350 -0.0879 -0.2672  1.0537
33492SOL    HW2 4393   5.778   4.707   1.378  2.9418 -0.4309 -1.1476
33493SOL     OW 4394   1.945   8.577   0.981 -0.0677 -0.5260  0.2816
33493SOL    HW1 4395   1.925   8.570   1.075  0.6813  0.6480  0.5429
33493SOL    HW2 4396   2.037   8.604   0.978 -0.2755  0.1155 -0.7699
33494SOL     OW 4397   2.855   5.053   4.506 -0.2472  0.3597 -0.2428
33494SOL    HW1 4398   2.790   5.049   4.437 -1.5394  0.8147  0.8978
33494SOL    HW2 4399   2.854   5.144   4.535  0.7677  0.3328 -0.0643
33495SOL     OW 4400   7.345   4.450   0.149  0.1634  0.2640  0.9558
33495SOL    HW1 4401   7.278   4.445   0.080  0.9170 -0.3250  0.2464
33495SOL    HW2 4402   7.390   4.365   0.145  1.6196  1.0090  0.7152
33496SOL     OW 4403   1.820   6.750   2.553  0.1460  0.2394  0.3766
33496SOL    HW1 4404   1.793   6.839   2.576 -4.2768 -0.7429 -0.3070
33496SOL    HW2 4405   1.804   6.743   2.459  0.2846 -1.3422  0.4437
33497SOL     OW 4406   2.622   7.547   1.642 -0.2172  0.5092 -0.0484
33497SOL    HW1 4407   2.530   7.528   1.624  0.2492 -0.0359 -2.0341
33497SOL    HW2 4408   2.628   7.549   1.738 -2.3339  0.8339  0.1092
33498SOL     OW 4409   9.237   7.301   0.724  0.3544 -0.2136  0.1485
33498SOL    HW1 4410   9.249   7.233   0.658 -3.8644 -0.7594 -0.3113
33498SOL    HW2 4411   9.153   7.341   0.703  0.8162  2.4746  2.7716
33499SOL     OW 4412   3.521   8.557   7.616  0.4181 -0.2022 -0.2104
33499SOL    HW1 4413   3.527   8.521   7.527  2.7803 -1.9095  0.5545
33499SOL    HW2 4414   3.440   8.608   7.615 -0.1949 -1.0339 -3.0143
33500SOL     OW 4415   9.635   0.381   0.965  0.1357  0.9181  0.1364
33500SOL    HW1 4416   9.667   0.461   1.008  0.1115  1.0781 -0.1395
33500SOL    HW2 4417   9.686   0.311   1.005  2.5222  1.3654 -1.8438
33501SOL     OW 4418   6.099   6.961   7.871  0.6158  0.0578  0.1027
33501SOL    HW1 4419   6.154   6.895   7.915  0.3060 -0.5031 -0.3391
33501SOL    HW2 4420   6.145   7.044   7.886  0.5369 -0.1203  1.4662
33502SOL     OW 4421   6.509   7.078   7.580 -0.0158 -0.1816  0.2205
33502SOL    HW1 4422   6.452   7.124   7.519 -1.3110 -2.0475 -0.0472
33502SOL    HW2 4423   6.464   7.083   7.664  0.1792 -0.3697  0.3385
33503SOL     OW 4424   7.067   1.316   8.731  0.1456 -0.2309 -0.1250
33503SOL    HW1 4425   7.078   1.400   8.686  0.8267 -0.8522 -1.1619
33503SOL    HW2 4426   7.152   1.273   8.723 -0.2846 -1.1460  0.1164
33504SOL     OW 4427   5.974   4.923   5.817 -0.3293 -0.1139 -0.1515
33504SOL    HW1 4428   6.064   4.956   5.817 -0.1628 -0.4670 -2.1475
33504SOL    HW2 4429   5.923   4.993   5.777 -1.0954  0.3579  1.5590
33505SOL     OW 4430   3.171   0.910   7.579 -0.1430 -0.3600  0.0602
33505SOL    HW1 4431   3.149   1.003   7.572  1.1918 -0.0688 -0.4796
33505SOL    HW2 4432   3.255   0.902   7.534  0.5539 -1.5471  1.5227
33506SOL     OW 4433   6.109   1.118   1.052  0.3899  0.1106  0.3309
33506SOL    HW1 4434   6.149   1.077   0.975 -0.5262 -1.1236  0.4808
33506SOL    HW2 4435   6.022   1.145   1.022  0.4602  0.6579  0.6210
33507SOL     OW 4436   5.646   3.061   8.693  0.4236 -0.0998  0.5328
33507SOL    HW1 4437   5.569   3.111   8.664  1.5908  1.3176 -0.2888
33507SOL    HW2 4438   5.612   2.974   8.714 -1.2712  0.2339 -0.6014
33508SOL     OW 4439   1.647   5.516   1.436  0.8797 -0.2102 -0.4495
33508SOL    HW1 4440   1.614   5.574   1.367 -0.3522  0.2472  0.4709
33508SOL    HW2 4441   1.733   5.487   1.405  0.4915  0.2263 -2.0144
33509SOL     OW 4442   0.849   8.497   0.059 -0.2061  0.0825 -0.0553
33509SOL    HW1 4443   0.819   8.574   0.012 -0.5622 -0.0581 -0.0627
33509SOL    HW2 4444   0.783   8.483   0.127  0.1936  0.1636  0.3547
33510SOL     OW 4445   1.504   6.330   8.320 -0.4797  0.1737 -0.3516
33510SOL    HW1 4446   1.416   6.341   8.355 -0.9251 -1.2571 -0.9191
33510SOL    HW2 4447   1.497   6.357   8.228  0.3372  2.5433  0.2187
33511SOL     OW 4448   2.484   7.419   2.600  0.9279 -0.6150  0.2989
33511SOL    HW1 4449   2.415   7.431   2.665  0.7627  0.2157 -0.0263
33511SOL    HW2 4450   2.565   7.413   2.652  1.0624  2.0839  0.5099
33512SOL     OW 4451   3.549   7.574   6.185  0.0303 -0.1255  0.1960
33512SOL    HW1 4452   3.625   7.624   6.153 -0.6616  0.7782 -0.0835
33512SOL    HW2 4453   3.571   7.483   6.166  0.7034  0.1884 -0.6127
33513SOL     OW 4454   4.722   3.205   9.780  0.4706 -0.1268  0.0504
33513SOL    HW1 4455   4.761   3.221   9.866 -0.7209 -0.8224  0.7480
33513SOL    HW2 4456   4.649   3.146   9.798  0.1595 -0.2210 -1.4396
33514SOL     OW 4457   6.302   0.172   1.374  0.8837 -0.3568  0.1255
33514SOL    HW1 4458   6.310   0.243   1.310  0.2339 -0.4728 -0.0854
33514SOL    HW2 4459   6.228   0.120   1.344 -1.2807  1.1425  2.4255
33515SOL     OW 4460   4.360   7.070   6.450  0.7294  0.1285 -0.1076
33515SOL    HW1 4461   4.309   7.087   6.530  2.5117 -0.3883  1.1864
33515SOL    HW2 4462   4.312   6.999   6.407 -0.4129  0.6024  0.3207
33516SOL     OW 4463   0.361   1.521   2.646  0.3389 -0.1249 -0.3024
33516SOL    HW1 4464   0.400   1.606   2.627  0.1706  0.0379  0.0704
33516SOL    HW2 4465   0.267   1.537   2.645  0.3048  0.2486  2.1481
33517SOL     OW 4466   5.660   0.641   7.957 -0.1487  0.3906 -0.0873
33517SOL    HW1 4467   5.588   0.704   7.959  1.2169  2.0297 -0.0376
33517SOL    HW2 4468   5.623   0.561   7.993 -2.4816  0.5671 -1.8569
33518SOL     OW 4469   3.998   8.093   7.283 -0.2426 -0.1293  0.0327
33518SOL    HW1 4470   3.982   8.129   7.196  1.8342  0.9065  0.0069
33518SOL    HW2 4471   4.030   8.168   7.334 -3.9877 -0.0008  2.5787
33519SOL     OW 4472   9.750   9.411   4.311  0.0133  0.1013 -0.9166
33519SOL    HW1 4473   9.684   9.479   4.301 -0.6134  0.3777  3.2645
33519SOL    HW2 4474   9.702   9.328   4.305 -1.0177  0.3044  2.4566
33520SOL     OW 4475   4.550   1.065   1.283  0.6015 -0.2199 -0.9587
33520SOL    HW1 4476   4.619   1.094   1.343  0.3032 -1.3660 -0.0203
33520SOL    HW2 4477   4.538   0.973   1.304 -0.4868 -0.2950 -1.8486
33521SOL     OW 4478   3.979  10.086   4.463  0.0159 -0.5731  0.3719
33521SOL    HW1 4479   3.978  10.127   4.550 -1.1647  0.3700 -0.0618
33521SOL    HW2 4480   3.903  10.124   4.418  1.3459 -0.0511 -1.5290
33522SOL     OW 4481   4.678   1.601   2.002  0.1266 -0.1177 -0.1017
33522SOL    HW1 4482   4.687   1.552   1.920 -0.4979  0.4569 -0.5265
33522SOL    HW2 4483   4.677   1.533   2.070 -0.5600 -0.6923 -0.6643
33523SOL     OW 4484   9.682   7.692   0.028  0.1150  0.5253  0.1867
33523SOL    HW1 4485   9.708   7.617   0.082  2.3324  0.9758 -0.1672
33523SOL    HW2 4486   9.763   7.719  -0.015 -0.9603  2.1941 -0.8651
33524SOL     OW 4487   4.276   9.983   2.997  0.1275  0.6576  0.0975
33524SOL    HW1 4488   4.205  10.040   3.027 -0.6650  0.2023 -0.8495
33524SOL    HW2 4489   4.352  10.011   3.048 -0.8524  0.7750  1.5547
33525SOL     OW 4490   3.662   4.891   5.023  0.6473 -0.0422 -0.4112
33525SOL    HW1 4491   3.635   4.979   4.995 -3.5963 -0.3263  2.0115
33525SOL    HW2 4492   3.705   4.905   5.107 -0.6316 -0.2630  0.3009
33526SOL     OW 4493   6.724   7.435   4.320  0.0504 -0.1956 -0.0940
33526SOL    HW1 4494   6.687   7.495   4.256 -0.1979 -0.5135 -0.2530
33526SOL    HW2 4495   6.757   7.491   4.390 -1.6325  0.0683  0.5416
33527SOL     OW 4496   7.449   0.685   1.324 -0.2577 -0.3030  0.2155
33527SOL    HW1 4497   7.528   0.705   1.274 -0.1746 -1.3104 -0.0652
33527SOL    HW2 4498   7.417   0.603   1.287 -0.6501 -0.6371  1.2646
33528SOL     OW 4499   1.594   6.760   0.615  0.0329  0.4062 -0.8578
33528SOL    HW1 4500   1.632   6.687   0.567 -2.3618 -1.1891 -0.5229
33528SOL    HW2 4501   1.653   6.773   0.690  1.1306 -0.3669 -1.5613
33529SOL     OW 4502   4.338   0.837   4.912 -0.1772  0.0950 -0.0448
33529SOL    HW1 4503   4.334   0.741   4.917  2.0884 -0.1090 -0.8494
33529SOL    HW2 4504   4.422   0.860   4.953 -0.7657  1.7589  0.3041
33530SOL     OW 4505   5.814   4.362   1.833 -0.0732  0.6715  0.2295
33530SOL    HW1 4506   5.731   4.338   1.791  0.5672  0.6477 -1.0694
33530SOL    HW2 4507   5.871   4.287   1.819  0.0656  0.5086  1.5041
33531SOL     OW 4508   1.345   9.292   9.729  0.2118 -0.7047  0.6284
33531SOL    HW1 4509   1.432   9.250   9.734  1.6161  1.8816 -0.2839
33531SOL    HW2 4510   1.351   9.351   9.653 -2.7617 -1.2059 -0.1379
33532SOL     OW 4511   3.041   2.810   3.450  0.2024 -0.5751 -0.6343
33532SOL    HW1 4512   3.123   2.835   3.408  0.7751  0.8382  1.1988
33532SOL    HW2 4513   3.064   2.743   3.513 -0.1639 -0.6790 -0.6066
33533SOL     OW 4514   2.071   6.387   3.265 -0.4876  0.1868 -0.4579
33533SOL    HW1 4515   2.097   6.478   3.251  1.2270 -0.4118 -1.4410
33533SOL    HW2 4516   2.059   6.352   3.177 -3.0093 -0.0783 -0.0748
33534SOL     OW 4517   1.005   1.568   0.226 -0.0912  0.5142 -0.0323
33534SOL    HW1 4518   0.967   1.497   0.277 -0.1780  0.0871 -0.6863
33534SOL    HW2 4519   1.023   1.530   0.140 -1.7877  1.7400 -0.9851
33535SOL     OW 4520   0.964   7.848   4.602  0.1255 -1.0133  0.1426
33535SOL    HW1 4521   1.042   7.811   4.642  0.8213 -0.6404 -0.8216
33535SOL    HW2 4522   0.977   7.833   4.508 -0.0326  0.7790 -0.1914
33536SOL     OW 4523   5.681   0.353   2.037  0.2434 -0.0083 -0.0624
33536SOL    HW1 4524   5.729   0.270   2.030  3.1499  1.5004  0.4298
33536SOL    HW2 4525   5.683   0.374   2.130 -0.6694  0.5083 -0.1507
33537SOL     OW 4526   7.553   5.229   7.094 -0.0605 -0.7673  0.4133
33537SOL    HW1 4527   7.595   5.309   7.124  1.5736 -1.5523  0.3267
33537SOL    HW2 4528   7.503   5.199   7.171  0.1840 -0.2272  0.7907
33538SOL     OW 4529   0.315   1.555   4.035  0.5007  0.0610  0.2975
33538SOL    HW1 4530   0.332   1.641   3.996 -0.3244  0.0438 -0.1239
33538SOL    HW2 4531   0.381   1.547   4.104  0.7885  0.8969  0.1382
33539SOL     OW 4532   8.559   5.369   9.125 -0.0510  0.4897 -0.0223
33539SOL    HW1 4533   8.510   5.325   9.195 -0.6633  2.9314  1.1829
33539SOL    HW2 4534   8.643   5.323   9.124 -1.5192 -2.4437 -0.7438
33540SOL     OW 4535   3.354   6.073   1.927 -0.2397  0.0808 -0.2837
33540SOL    HW1 4536   3.419   6.040   1.865 -0.1842 -2.2176  0.8894
33540SOL    HW2 4537   3.406   6.108   2.000 -0.3159  0.7351 -0.5402
33541SOL     OW 4538   6.172   0.151   4.493  0.1896 -0.3615 -0.1962
33541SOL    HW1 4539   6.119   0.139   4.572  0.1148  1.2058  0.0334
33541SOL    HW2 4540   6.218   0.234   4.508  1.8735 -1.1212 -0.8593
33542SOL     OW 4541   6.820   9.978   5.334 -0.1181 -0.0728  0.2208
33542SOL    HW1 4542   6.854  10.054   5.382  2.2632 -0.7106 -0.3246
33542SOL    HW2 4543   6.798   9.914   5.401  1.3061 -0.2122  0.5841
33543SOL     OW 4544   2.847   8.345   1.070 -0.0944 -0.0056  0.1595
33543SOL    HW1 4545   2.857   8.250   1.064 -0.4859 -0.1347  1.2482
33543SOL    HW2 4546   2.824   8.373   0.982 -2.0899 -1.1897  0.2567
33544SOL     OW 4547   7.836   7.780   8.810 -0.5085 -0.1721 -0.0966
33544SOL    HW1 4548   7.916   7.766   8.760  0.2962  2.0512  0.4216
33544SOL    HW2 4549   7.777   7.825   8.750 -1.0281 -0.9545 -0.1856
33545SOL     OW 4550   7.209   6.288   7.274  0.3768 -0.4949  0.7454
33545SOL    HW1 4551   7.180   6.199   7.290 -2.5390  0.0901 -0.6886
33545SOL    HW2 4552   7.267   6.281   7.198  0.9813 -1.2582  1.2643
33546SOL     OW 4553   9.354   2.122   6.549 -0.5028  0.6459 -0.3747
33546SOL    HW1 4554   9.307   2.096   6.470 -0.4713 -0.7983  0.0547
33546SOL    HW2 4555   9.430   2.170   6.517  0.3575 -1.2640 -1.3519
33547SOL     OW 4556   9.728   3.956   4.231 -0.1521 -0.0426 -0.2679
33547SOL    HW1 4557   9.783   3.886   4.266 -0.5748 -0.7134 -0.9244
33547SOL    HW2 4558   9.639   3.922   4.236 -0.2382 -0.1221 -1.8959
33548SOL     OW 4559   6.112   6.053   2.940 -0.4924 -0.5280  0.5625
33548SOL    HW1 4560   6.153   6.042   2.854  0.3364  1.2942  0.6841
33548SOL    HW2 4561   6.185   6.052   3.001 -0.8347  0.4566  1.0098
33549SOL     OW 4562   4.077   4.109   0.414 -0.6076  0.5514 -0.1990
33549SOL    HW1 4563   4.111   4.182   0.465 -0.8466  0.6060 -0.1183
33549SOL    HW2 4564   4.142   4.095   0.345  0.6194 -0.6530  1.1337
33550SOL     OW 4565   2.283   0.565  10.156  0.8421  0.5840  0.2872
33550SOL    HW1 4566   2.218   0.535  10.219  0.0326 -0.3314 -0.9423
33550SOL    HW2 4567   2.250   0.535  10.071  2.1257  1.3916 -0.5291
33551SOL     OW 4568   9.209   6.870   1.723 -0.1635 -0.4341  0.1882
33551SOL    HW1 4569   9.220   6.961   1.753  0.9560 -1.3483  2.8747
33551SOL    HW2 4570   9.277   6.858   1.657  3.5038 -0.7194  3.6476
33552SOL     OW 4571   5.618   0.205   1.210  0.6906 -0.3547 -0.4280
33552SOL    HW1 4572   5.681   0.229   1.278 -1.0338 -0.6396  1.3601
33552SOL    HW2 4573   5.611   0.110   1.214 -1.2346 -0.2254  0.7971
33553SOL     OW 4574   3.245   1.920   6.813  0.1257 -0.0322  0.5194
33553SOL    HW1 4575   3.156   1.920   6.848 -0.1077  0.1964 -0.0669
33553SOL    HW2 4576   3.299   1.893   6.887 -0.4717 -0.5940  0.7649
33554SOL     OW 4577   2.754   9.144   0.907 -0.0531 -0.2190 -0.2519
33554SOL    HW1 4578   2.674   9.185   0.939  0.1155 -0.5635  0.6340
33554SOL    HW2 4579   2.734   9.120   0.816 -0.0620  2.0409 -0.8971
33555SOL     OW 4580   5.465   7.080   4.664 -0.2273  0.1862 -0.1110
33555SOL    HW1 4581   5.514   7.134   4.602  0.9280  2.2721  2.4261
33555SOL    HW2 4582   5.382   7.062   4.620 -0.2022  3.1325 -1.5775
33556SOL     OW 4583   3.223   9.232   3.265  0.4113  0.0408  0.1767
33556SOL    HW1 4584   3.192   9.141   3.264 -0.3474  0.2918 -0.8175
33556SOL    HW2 4585   3.191   9.269   3.182  0.9541  1.1352  0.4381
33557SOL     OW 4586   1.358   4.030   5.962 -0.3762 -0.4790  0.2064
33557SOL    HW1 4587   1.452   4.009   5.960 -0.6934 -1.9294 -0.7285
33557SOL    HW2 4588   1.338   4.037   6.055  0.2314 -2.2924  0.5116
33558SOL     OW 4589   2.751   4.017  10.023  0.0949 -0.1368 -0.5149
33558SOL    HW1 4590   2.701   4.098  10.028  2.1469  1.1670  0.5105
33558SOL    HW2 4591   2.739   3.976  10.109  0.0829 -0.2790 -0.5834
33559SOL     OW 4592   5.046   5.437   3.259 -0.3981  0.4210  0.0781
33559SOL    HW1 4593   5.095   5.519   3.259  0.1362  0.1011  0.1619
33559SOL    HW2 4594   5.108   5.371   3.227  0.0426 -0.4555  2.5608
33560SOL     OW 4595   8.836   2.075   7.084 -0.2149 -0.0963 -0.8382
33560SOL    HW1 4596   8.758   2.073   7.030 -0.9953 -0.9887  0.2699
33560SOL    HW2 4597   8.877   1.990   7.071  0.1170  0.0487 -0.7618
33561SOL     OW 4598   5.201   2.513   8.147 -0.2997 -0.1911  0.0509
33561SOL    HW1 4599   5.235   2.593   8.188  1.1804 -0.4480 -0.5949
33561SOL    HW2 4600   5.166   2.542   8.063  0.1207 -0.1885 -0.1271
33562SOL     OW 4601   1.773   5.992   4.067 -0.0363 -0.6138  0.3131
33562SOL    HW1 4602   1.781   5.971   4.160  2.2824  2.7985  1.0945
33562SOL    HW2 4603   1.863   5.993   4.034 -0.8548 -2.6936 -2.3193
33563SOL     OW 4604   5.652   6.296   9.377 -0.0240 -0.1449  0.1526
33563SOL    HW1 4605   5.653   6.373   9.434 -0.8452 -0.8650  1.1618
33563SOL    HW2 4606   5.560   6.286   9.352  0.0052 -1.0902  0.4241
33564SOL     OW 4607   7.788   9.323   1.172 -0.1682 -0.0898 -1.0130
33564SOL    HW1 4608   7.708   9.304   1.221  0.3335  1.7473  0.6536
33564SOL    HW2 4609   7.769   9.294   1.083 -2.8091  0.5725 -0.7488
33565SOL     OW 4610   2.690   5.498   7.050 -0.3057 -0.6926  0.0967
33565SOL    HW1 4611   2.783   5.504   7.072 -0.5741 -0.7891  1.3225
33565SOL    HW2 4612   2.689   5.471   6.958  0.8710  0.5867 -0.3298
33566SOL     OW 4613   4.539   7.355   8.195  0.1031  0.8576 -0.1403
33566SOL    HW1 4614   4.471   7.328   8.256 -0.2501 -0.1187 -0.9280
33566SOL    HW2 4615   4.621   7.348   8.245  0.4426 -4.3360 -0.8456
33567SOL     OW 4616   2.383   3.133   8.112  0.2316  0.3674  0.2491
33567SOL    HW1 4617   2.350   3.048   8.138 -0.8652  0.5318 -0.5321
33567SOL    HW2 4618   2.451   3.154   8.176 -1.6131  0.3116  2.3423
33568SOL     OW 4619   3.205   3.480   3.362  0.0688  0.2116  0.5950
33568SOL    HW1 4620   3.122   3.495   3.408  0.2196  0.5047  0.7765
33568SOL    HW2 4621   3.267   3.455   3.430  0.3239  0.7635  0.5730
33569SOL     OW 4622   5.235   1.948   9.472 -0.2323 -0.2339 -0.1118
33569SOL    HW1 4623   5.198   2.029   9.507 -0.9292 -0.9332  0.8013
33569SOL    HW2 4624   5.327   1.951   9.497 -0.5020 -0.2493  0.8994
33570SOL     OW 4625   8.907   6.781   3.107  0.1572  0.1291  0.1007
33570SOL    HW1 4626   8.996   6.794   3.139  1.3736  0.6502 -3.0946
33570SOL    HW2 4627   8.916   6.714   3.039 -2.1011 -0.5677  0.4036
33571SOL     OW 4628   2.473   8.998   2.257 -0.3097 -0.3952  0.5851
33571SOL    HW1 4629   2.430   8.987   2.342 -0.9551  1.8710  0.6263
33571SOL    HW2 4630   2.404   9.030   2.199  1.0172  2.4702  0.4242
33572SOL     OW 4631   7.586   3.175   7.911 -0.0238  0.1586 -0.1988
33572SOL    HW1 4632   7.500   3.158   7.872 -0.1457  1.2632 -0.4500
33572SOL    HW2 4633   7.607   3.265   7.886  1.6295 -0.3765 -0.9237
33573SOL     OW 4634   6.221   7.129   7.142  0.1575 -0.3452 -0.4861
33573SOL    HW1 4635   6.244   7.067   7.211  1.3013  0.7874  0.1953
33573SOL    HW2 4636   6.192   7.074   7.069 -1.2586 -1.5636  0.9239
33574SOL     OW 4637   9.507   4.600   3.179 -0.2455 -0.1133 -0.3895
33574SOL    HW1 4638   9.592   4.574   3.144  0.9522  0.1285  2.0847
33574SOL    HW2 4639   9.518   4.594   3.274 -2.9596  0.1234  0.0084
33575SOL     OW 4640   1.726   1.914   9.088 -0.0503  0.6984  0.0725
33575SOL    HW1 4641   1.673   1.835   9.093  0.1941  0.4581 -1.0385
33575SOL    HW2 4642   1.761   1.915   8.999  3.4457 -0.2268  1.2658
33576SOL     OW 4643   7.445   2.697   7.858 -0.0544  0.0165 -0.0505
33576SOL    HW1 4644   7.483   2.720   7.943 -2.1794 -0.0127  0.9735
33576SOL    HW2 4645   7.438   2.602   7.860  0.0009  0.0074 -0.2994
33577SOL     OW 4646   0.877   1.805   2.022 -0.2167  0.6167  0.1767
33577SOL    HW1 4647   0.860   1.855   2.102 -0.4626 -0.6068  0.9066
33577SOL    HW2 4648   0.841   1.718   2.039  1.6827 -0.3442 -0.4090
33578SOL     OW 4649   5.761   2.453   7.313 -0.4009  0.1462 -0.5967
33578SOL    HW1 4650   5.695   2.520   7.330 -0.6437 -0.0808 -0.6333
33578SOL    HW2 4651   5.711   2.371   7.308 -0.0973 -0.0514 -0.4521
33579SOL     OW 4652   4.173   9.506   3.904  0.4601 -0.4132 -0.5102
33579SOL    HW1 4653   4.180   9.600   3.885  2.0714 -0.6304 -1.1783
33579SOL    HW2 4654   4.208   9.498   3.993 -2.9289  0.0162  1.0031
33580SOL     OW 4655   2.901   9.311   9.946 -0.2016  0.7464 -0.0294
33580SOL    HW1 4656   2.885   9.379   9.881  0.3937 -1.1816 -2.3212
33580SOL    HW2 4657   2.996   9.304   9.951 -0.2540 -0.5552 -0.5702
33581SOL     OW 4658   9.622   7.678   5.445  0.0040 -0.5324  0.2419
33581SOL    HW1 4659   9.662   7.591   5.453  0.6978 -0.7231 -3.3342
33581SOL    HW2 4660   9.677   7.724   5.382 -1.1488  2.0303  0.9764
33582SOL     OW 4661   9.986   6.399   6.268  0.3785 -0.1769 -0.7625
33582SOL    HW1 4662   9.971   6.422   6.177 -0.6677 -1.9399 -1.0986
33582SOL    HW2 4663  10.007   6.305   6.266  1.0838 -0.0871  0.7481
33583SOL     OW 4664   6.080   6.948   5.896  0.1823 -0.0436  0.2519
33583SOL    HW1 4665   6.091   6.946   5.801  0.0548 -0.3257  0.2429
33583SOL    HW2 4666   6.147   7.009   5.926 -1.8931  2.7379 -0.3189
33584SOL     OW 4667   5.007   3.403   5.795  0.2671 -0.7731  0.2203
33584SOL    HW1 4668   5.079   3.399   5.732 -1.1754 -2.4298 -1.4280
33584SOL    HW2 4669   5.013   3.321   5.844 -0.5368 -0.9528  0.0230
33585SOL     OW 4670   6.409   6.542   6.903 -0.2415  0.0296 -0.5140
33585SOL    HW1 4671   6.404   6.562   6.809  1.2651 -1.0014 -0.8490
33585SOL    HW2 4672   6.426   6.627   6.944 -3.3194  0.9422 -0.8461
33586SOL     OW 4673   0.945   7.956   8.690 -0.1476  0.5533 -0.6034
33586SOL    HW1 4674   0.906   7.879   8.732  1.9233 -0.5914 -0.6672
33586SOL    HW2 4675   0.894   8.030   8.723 -1.1947 -0.6927  0.6755
33587SOL     OW 4676   9.210   5.904   2.714 -0.0622 -0.4294 -0.8504
33587SOL    HW1 4677   9.222   5.812   2.688 -0.4999 -0.3987 -1.1697
33587SOL    HW2 4678   9.293   5.946   2.690  0.4334 -0.8997  0.0133
33588SOL     OW 4679  10.094   5.689   9.379  0.1236  0.1200 -0.4610
33588SOL    HW1 4680  10.140   5.686   9.463  1.0583  2.6847 -0.7867
33588SOL    HW2 4681  10.003   5.669   9.401  0.7121 -1.3571  0.7970
33589SOL     OW 4682   5.000   8.388   0.980 -0.0696  0.0763 -0.0784
33589SOL    HW1 4683   5.028   8.400   1.070  0.0326  0.5616 -0.1690
33589SOL    HW2 4684   5.068   8.430   0.928 -0.6532  0.7472 -0.3260
33590SOL     OW 4685   4.383   1.069   7.384  0.0657 -0.0527 -0.1083
33590SOL    HW1 4686   4.355   1.061   7.475 -0.1530 -0.6890 -0.2228
33590SOL    HW2 4687   4.366   1.160   7.361  0.1774  0.1247  0.5051
33591SOL     OW 4688   8.835   8.926   6.760 -0.5041 -0.1719 -0.3842
33591SOL    HW1 4689   8.770   8.867   6.722 -2.7253  2.3801 -0.7760
33591SOL    HW2 4690   8.786   9.002   6.790  1.9202  0.5243  2.3308
33592SOL     OW 4691   9.817   8.099   4.345 -0.8101 -0.1440 -0.0673
33592SOL    HW1 4692   9.831   8.193   4.340 -1.1925 -0.1265 -1.0242
33592SOL    HW2 4693   9.741   8.089   4.402 -1.8649  0.2437 -1.3678
33593SOL     OW 4694   1.615   8.049   0.684 -0.1742 -0.3871  0.0718
33593SOL    HW1 4695   1.681   8.049   0.754  0.5855 -1.6659 -0.5937
33593SOL    HW2 4696   1.567   7.967   0.696 -1.9100  0.6672  0.7343
33594SOL     OW 4697   1.621   7.869   7.729 -0.4572 -0.0528 -0.0674
33594SOL    HW1 4698   1.716   7.873   7.742 -0.5423 -0.9744  1.0085
33594SOL    HW2 4699   1.598   7.779   7.752 -1.6912  0.3816  0.4654
33595SOL     OW 4700   5.378   6.183   6.903  0.5288 -0.1141 -0.3009
33595SOL    HW1 4701   5.367   6.088   6.912 -1.2531  0.0026 -0.8463
33595SOL    HW2 4702   5.381   6.215   6.994 -0.3834 -0.5565 -0.1056
33596SOL     OW 4703   6.837   9.182   4.714 -0.1124 -0.1618  0.2526
33596SOL    HW1 4704   6.830   9.137   4.630  1.4013  0.0307 -0.0089
33596SOL    HW2 4705   6.822   9.274   4.692  1.2452  0.0172  0.0016
33597SOL     OW 4706   3.292   6.454   2.631  0.3243 -0.7265  0.5479
33597SOL    HW1 4707   3.228   6.515   2.669  1.0542  0.0304  0.5818
33597SOL    HW2 4708   3.240   6.376   2.610 -0.7494  0.0936 -0.0032
33598SOL     OW 4709   7.048   6.679   3.558  0.4489 -0.1994 -0.4916
33598SOL    HW1 4710   7.043   6.717   3.645 -1.1932 -0.6473 -0.3686
33598SOL    HW2 4711   7.073   6.588   3.573  1.8721  0.1476 -0.6244
33599SOL     OW 4712   0.722  10.104   5.905  0.3954  0.3056  0.0941
33599SOL    HW1 4713   0.714  10.172   5.971 -1.1882  0.0009  0.2597
33599SOL    HW2 4714   0.710  10.150   5.822 -0.9848  0.2175  0.2208
33600SOL     OW 4715   6.219   8.350   8.689 -0.3842  0.4388  0.1774
33600SOL    HW1 4716   6.223   8.254   8.682  0.1266  0.4947 -0.4391
33600SOL    HW2 4717   6.152   8.367   8.755 -2.5021 -0.2776 -1.6631
33601SOL     OW 4718   7.965   4.926   2.857  0.2123 -0.0717 -0.0048
33601SOL    HW1 4719   8.033   4.884   2.806  0.1313  1.3787 -1.3881
33601SOL    HW2 4720   7.989   5.019   2.858 -0.3657  0.1069  1.7230
33602SOL     OW 4721   3.380   9.882   7.261 -0.1381  0.6206 -0.4860
33602SOL    HW1 4722   3.453   9.844   7.310 -0.2013  0.1772 -0.7288
33602SOL    HW2 4723   3.338   9.806   7.220 -0.8867  0.8342 -0.1373
33603SOL     OW 4724   7.092   1.327   7.991  0.1940  0.1321  0.6889
33603SOL    HW1 4725   7.019   1.331   8.054  0.3015  1.6982  0.7444
33603SOL    HW2 4726   7.130   1.415   7.992 -0.1088  0.3668 -1.9595
33604SOL     OW 4727   4.679   0.730   8.158 -0.2051  0.1292 -0.3462
33604SOL    HW1 4728   4.726   0.755   8.078  1.4018  0.1319  0.5566
33604SOL    HW2 4729   4.737   0.668   8.201 -1.4173 -0.4884  0.4483
33605SOL     OW 4730   3.766   7.568   4.650 -0.0950 -0.2816  0.0948
33605SOL    HW1 4731   3.762   7.568   4.746  0.7340 -0.1255  0.1418
33605SOL    HW2 4732   3.732   7.654   4.625  0.1136 -0.1424  0.2788
33606SOL     OW 4733   4.994   7.965   9.414  0.0444  0.1080  0.4012
33606SOL    HW1 4734   5.086   7.976   9.438 -0.3872  2.1954  1.3701
33606SOL    HW2 4735   4.945   7.989   9.493 -1.3485  0.0525 -0.4035
33607SOL     OW 4736   2.749   0.474   2.547 -0.0414  0.7333 -0.3010
33607SOL    HW1 4737   2.832   0.517   2.569 -0.1459  1.2053 -0.7879
33607SOL    HW2 4738   2.714   0.444   2.630  0.9713 -0.1214 -0.1659
33608SOL     OW 4739   4.084   1.402   2.221  0.3500 -0.0780  0.1321
33608SOL    HW1 4740   4.127   1.487   2.229  0.7541 -0.0713 -1.6440
33608SOL    HW2 4741   4.155   1.338   2.229  0.0351 -0.2808  1.5486
33609SOL     OW 4742   4.610   7.769   4.957 -0.4359 -0.1269 -0.0180
33609SOL    HW1 4743   4.587   7.837   4.894  3.2563  0.6074 -0.7704
33609SOL    HW2 4744   4.576   7.688   4.918 -1.0438  0.7157 -1.3067
33610SOL     OW 4745   0.887   9.122   1.868  0.4602 -0.2892  0.1918
33610SOL    HW1 4746   0.873   9.154   1.778  1.7939 -0.7566 -0.2121
33610SOL    HW2 4747   0.869   9.198   1.923  0.1604  0.1614 -0.5046
33611SOL     OW 4748   4.284   3.142   1.912 -0.8313  0.4502  0.0954
33611SOL    HW1 4749   4.309   3.063   1.960  0.1024  0.2115 -0.7545
33611SOL    HW2 4750   4.189   3.133   1.898 -0.8255 -0.2588  0.4619
33612SOL     OW 4751   2.768   9.688   1.807 -0.1703 -0.1545  0.3515
33612SOL    HW1 4752   2.758   9.775   1.768 -3.1606 -0.0509  1.0474
33612SOL    HW2 4753   2.796   9.632   1.735  0.4079  1.1291 -0.4427
33613SOL     OW 4754   6.575   8.707   4.454  0.1877  0.7304 -0.6358
33613SOL    HW1 4755   6.587   8.637   4.389 -0.2438 -0.4939  0.5564
33613SOL    HW2 4756   6.496   8.752   4.425  1.0883  1.5001 -2.0539
33614SOL     OW 4757  10.188   4.332   7.144  0.3271  0.3944  0.2094
33614SOL    HW1 4758  10.176   4.425   7.125  1.9134  0.7210  0.6154
33614SOL    HW2 4759  10.124   4.287   7.089 -1.9263  1.8086  1.5044
33615SOL     OW 4760   5.027   6.498   4.289 -0.4659  0.5368  0.2187
33615SOL    HW1 4761   5.120   6.521   4.289  0.1799 -1.8054  0.3262
33615SOL    HW2 4762   5.013   6.458   4.375 -1.3784  0.2137 -0.0729
33616SOL     OW 4763   4.446   5.908   4.886 -0.6282 -0.1075  0.5513
33616SOL    HW1 4764   4.424   5.966   4.813  0.1567  0.6736  0.9176
33616SOL    HW2 4765   4.364   5.898   4.934 -0.5417  1.7450  1.1920
33617SOL     OW 4766   5.238   6.802   7.750 -0.4083  0.8089  0.2301
33617SOL    HW1 4767   5.303   6.817   7.819  0.4904  0.6261 -0.5578
33617SOL    HW2 4768   5.283   6.745   7.687 -1.5823  0.0900  0.0215
33618SOL     OW 4769   5.723   8.398   7.420  0.1427 -0.5228  0.0902
33618SOL    HW1 4770   5.784   8.458   7.377  0.2434 -1.5804 -1.2835
33618SOL    HW2 4771   5.642   8.449   7.429  0.5840  0.2009  0.0165
33619SOL     OW 4772   7.698   6.410   7.052 -0.1327  0.1318  0.1054
33619SOL    HW1 4773   7.697   6.392   7.146 -0.4221 -0.2349  0.0336
33619SOL    HW2 4774   7.751   6.489   7.044  1.1287 -0.6480  0.4315
33620SOL     OW 4775   4.565   0.037   6.765  0.5750  0.2797  0.2377
33620SOL    HW1 4776   4.628  -0.004   6.704  1.8125  1.1839  0.8571
33620SOL    HW2 4777   4.490  -0.022   6.765  0.6859  0.0518 -1.8676
33621SOL     OW 4778   7.575   5.549   8.629 -0.0688  0.6680 -0.1776
33621SOL    HW1 4779   7.636   5.616   8.597 -0.0768  0.6799 -0.1677
33621SOL    HW2 4780   7.558   5.574   8.720 -1.8243  1.9366 -0.8081
33622SOL     OW 4781   4.003   3.588   6.398  0.4514 -0.3252 -0.0156
33622SOL    HW1 4782   4.048   3.505   6.414 -0.3941 -0.7922 -0.0285
33622SOL    HW2 4783   3.994   3.593   6.303  2.0615  0.6316 -0.1475
33623SOL     OW 4784   7.757   1.007   0.858  0.0204 -0.2721  0.0323
33623SOL    HW1 4785   7.771   0.963   0.942  0.7374  0.0497  0.0844
33623SOL    HW2 4786   7.837   0.991   0.809  0.6558  1.6547  0.3580
33624SOL     OW 4787  10.145   1.976   8.428 -0.0416  0.1049  0.4279
33624SOL    HW1 4788  10.219   2.035   8.443 -0.4828  0.8016 -0.0798
33624SOL    HW2 4789  10.144   1.962   8.334  1.4477 -2.5798  0.7328
33625SOL     OW 4790   2.500   7.978   0.777  0.6093  0.9296 -0.3908
33625SOL    HW1 4791   2.514   7.928   0.697 -0.7186 -1.7227  0.8920
33625SOL    HW2 4792   2.407   8.001   0.775  0.4893  0.5748  0.4704
33626SOL     OW 4793   7.018   0.560   0.932  0.1596  0.2875 -0.1596
33626SOL    HW1 4794   7.007   0.634   0.872 -1.9603  0.3167  0.1841
33626SOL    HW2 4795   7.060   0.492   0.880  0.4671  1.0994 -0.9940
33627SOL     OW 4796   7.755   2.809   5.436  0.0362  0.0049 -0.5924
33627SOL    HW1 4797   7.795   2.724   5.453  0.7329  0.8617  2.7648
33627SOL    HW2 4798   7.666   2.801   5.470 -0.5924  0.0495 -2.1586
33628SOL     OW 4799   2.968   4.902   4.811  0.0631  0.1904  0.0169
33628SOL    HW1 4800   3.063   4.886   4.819  0.0482  0.3408  0.5871
33628SOL    HW2 4801   2.959   4.951   4.730  0.4774  0.1658 -0.0509
33629SOL     OW 4802   0.655   4.186   9.584 -0.0936 -0.5025 -0.0424
33629SOL    HW1 4803   0.577   4.240   9.571  0.2796 -0.3106 -1.7651
33629SOL    HW2 4804   0.720   4.245   9.621 -0.4378 -0.3883  0.3775
33630SOL     OW 4805   3.610   7.111   6.730 -0.2112 -0.0858  0.1520
33630SOL    HW1 4806   3.593   7.201   6.759  1.0849  0.3088 -0.2658
33630SOL    HW2 4807   3.617   7.117   6.635  0.2181 -0.5730  0.1507
33631SOL     OW 4808   0.394   1.789   8.430  0.1690  0.6104 -0.2607
33631SOL    HW1 4809   0.438   1.703   8.428  0.8814  0.9654 -0.1298
33631SOL    HW2 4810   0.374   1.803   8.522 -1.9234 -0.3811 -0.5041
33632SOL     OW 4811   0.595   8.769   2.467  0.6017  1.2173  0.3958
33632SOL    HW1 4812   0.674   8.823   2.468  1.9400 -0.5837 -1.2770
33632SOL    HW2 4813   0.588   8.737   2.377 -1.4330  0.4465  0.7634
33633SOL     OW 4814   8.353   0.941   4.896  0.4606 -0.3854  0.4573
33633SOL    HW1 4815   8.421   1.006   4.877  0.1238 -0.0766  0.2884
33633SOL    HW2 4816   8.343   0.944   4.991 -2.1703  2.5616  0.2645
33634SOL     OW 4817   5.531   5.251   2.519  0.3525  0.6822 -0.0076
33634SOL    HW1 4818   5.549   5.270   2.611  1.5649  0.5930 -0.2165
33634SOL    HW2 4819   5.498   5.334   2.484 -0.8541  0.5157  0.6602
33635SOL     OW 4820   7.859   6.988  10.201  0.6290 -0.1158 -0.0162
33635SOL    HW1 4821   7.786   7.010  10.259 -0.4025  0.2025 -1.4026
33635SOL    HW2 4822   7.823   6.925  10.139  0.9550  1.4625 -1.9112
33636SOL     OW 4823   8.388   9.017   7.320  0.7576  0.3608  0.5855
33636SOL    HW1 4824   8.324   9.008   7.249  1.3708  0.6931 -0.0166
33636SOL    HW2 4825   8.466   8.973   7.288  0.8292 -0.0608  1.3298
33637SOL     OW 4826   0.133   6.193   2.445 -0.1406  0.0331 -0.0668
33637SOL    HW1 4827   0.042   6.196   2.476  0.9444  1.3614  3.5528
33637SOL    HW2 4828   0.162   6.284   2.448  1.3368 -0.3776 -1.1336
33638SOL     OW 4829   9.121   3.621   3.979 -0.2633  0.0272 -0.1303
33638SOL    HW1 4830   9.151   3.545   4.027  0.3713 -1.1980 -2.3424
33638SOL    HW2 4831   9.176   3.693   4.010  0.4964 -0.8256  0.5400
33639SOL     OW 4832   5.594   4.436   0.377 -0.2788 -0.9529 -0.3976
33639SOL    HW1 4833   5.666   4.378   0.354 -1.3267 -1.5978 -2.2882
33639SOL    HW2 4834   5.515   4.391   0.346 -1.2463  0.8806 -0.7560
33640SOL     OW 4835   7.066   2.124   4.448  0.0508  0.1437  0.2617
33640SOL    HW1 4836   7.050   2.160   4.360  1.6089  3.0242  1.0390
33640SOL    HW2 4837   7.148   2.076   4.440  1.2318  2.0183  0.4581
33641SOL     OW 4838   0.152   5.707   4.580 -0.7483  0.5477  0.4914
33641SOL    HW1 4839   0.146   5.750   4.665 -0.5258 -0.0365  0.8059
33641SOL    HW2 4840   0.232   5.742   4.541 -1.4403  1.6836  0.0225
33642SOL     OW 4841  10.179   4.422   4.373  0.1215 -0.0134 -0.2130
33642SOL    HW1 4842  10.248   4.384   4.426  0.5672 -1.0303 -1.4745
33642SOL    HW2 4843  10.101   4.370   4.392  0.1832 -0.1266 -0.2759
33643SOL     OW 4844   8.136   1.739   6.543  0.3041 -0.2640  0.4477
33643SOL    HW1 4845   8.044   1.766   6.553  0.5302  0.3194  1.0106
33643SOL    HW2 4846   8.176   1.760   6.627  0.3051 -3.2132  1.2798
33644SOL     OW 4847   4.792   8.962   1.023  0.7199 -0.1765  0.3983
33644SOL    HW1 4848   4.762   8.887   0.972 -1.0456  0.4144  0.4756
33644SOL    HW2 4849   4.757   9.038   0.976 -0.1515  0.4287  1.9194
33645SOL     OW 4850  10.022   1.497   0.679  0.1317 -0.3546 -0.0545
33645SOL    HW1 4851  10.069   1.430   0.628  1.0921  1.0100 -1.0305
33645SOL    HW2 4852  10.091   1.550   0.719 -0.6151 -0.0255  0.8203
33646SOL     OW 4853   4.025   8.393   5.046 -0.1430 -0.1573  0.3911
33646SOL    HW1 4854   4.023   8.308   5.002  1.7676 -0.8000  1.4335
33646SOL    HW2 4855   3.975   8.451   4.988  0.7491 -1.3565 -1.7048
33647SOL     OW 4856   9.823   0.805   5.415 -0.1695 -0.4717  0.0741
33647SOL    HW1 4857   9.798   0.751   5.490 -1.6796 -1.0287 -0.7878
33647SOL    HW2 4858   9.910   0.774   5.390 -0.3644 -1.4256  0.5615
33648SOL     OW 4859   9.070   6.335   9.122 -0.0257 -0.1345 -0.4448
33648SOL    HW1 4860   9.163   6.355   9.112 -0.1871  1.7502  1.1720
33648SOL    HW2 4861   9.048   6.367   9.210 -2.4458  0.4225 -1.1818
33649SOL     OW 4862   5.522   0.863   2.659 -0.2574 -0.3523  0.0503
33649SOL    HW1 4863   5.607   0.822   2.669  0.1421  0.0491 -1.4109
33649SOL    HW2 4864   5.535   0.929   2.590 -1.5764  0.1917  0.2834
33650SOL     OW 4865   2.817   6.116   3.699 -0.0088  0.6735  0.2561
33650SOL    HW1 4866   2.760   6.188   3.727  0.6904  1.4319 -0.1906
33650SOL    HW2 4867   2.824   6.060   3.776 -0.2727  1.2824  0.7415
33651SOL     OW 4868   2.342   7.900   8.455 -0.1205 -0.1181  0.1535
33651SOL    HW1 4869   2.428   7.929   8.487 -0.0548 -0.3954  0.2336
33651SOL    HW2 4870   2.298   7.864   8.532  0.1985 -1.1616 -0.1263
33652SOL     OW 4871   9.163   2.621   7.725  0.4780  0.1452  0.1461
33652SOL    HW1 4872   9.141   2.544   7.777  0.0579 -0.8737 -1.4639
33652SOL    HW2 4873   9.170   2.692   7.789  1.2117 -1.2741  1.7186
33653SOL     OW 4874   5.569   1.375   0.319  0.0644 -0.6479  0.4229
33653SOL    HW1 4875   5.584   1.416   0.404 -0.3338  0.9914 -0.2665
33653SOL    HW2 4876   5.475   1.361   0.316 -0.0032 -0.1007 -0.0128
33654SOL     OW 4877   5.052   8.536   1.637 -0.3547  0.0233  0.0365
33654SOL    HW1 4878   5.140   8.499   1.648  0.2353  1.2693 -0.3318
33654SOL    HW2 4879   5.067   8.625   1.605 -1.7555  0.2712  0.0059
33655SOL     OW 4880   7.728   5.290   5.770 -0.0927 -0.2423 -0.2839
33655SOL    HW1 4881   7.651   5.238   5.789 -1.5953  2.0559  0.3572
33655SOL    HW2 4882   7.792   5.265   5.837 -1.4728  0.1057  1.1989
33656SOL     OW 4883   1.731   9.863   3.697  0.0453 -0.0615 -0.3051
33656SOL    HW1 4884   1.727   9.819   3.782 -1.6267 -0.4246 -0.5279
33656SOL    HW2 4885   1.643   9.898   3.684  0.3377  0.2091 -1.7850
33657SOL     OW 4886   9.166   6.995   8.207  0.1905  0.4786  0.0894
33657SOL    HW1 4887   9.156   6.906   8.243 -0.8510  1.3923  2.2346
33657SOL    HW2 4888   9.257   6.998   8.177  0.8740 -0.7181  1.8350
33658SOL     OW 4889   7.493  10.182   6.757  0.1167 -0.6978 -0.5271
33658SOL    HW1 4890   7.417  10.124   6.760 -0.5194  0.1239 -0.3591
33658SOL    HW2 4891   7.514  10.197   6.850 -0.0947 -0.1972 -0.5563
33659SOL     OW 4892   9.472   7.785   9.417  0.2411  0.0537  0.0108
33659SOL    HW1 4893   9.486   7.779   9.322  0.1958  0.3017 -0.0111
33659SOL    HW2 4894   9.446   7.697   9.442  0.4358 -0.0614 -0.1783
33660SOL     OW 4895   1.571   3.624   3.440 -0.8500 -0.8031  0.2772
33660SOL    HW1 4896   1.497   3.567   3.462 -1.3288 -0.0739  0.6067
33660SOL    HW2 4897   1.647   3.566   3.441 -0.8853 -0.9456  3.3861
33661SOL     OW 4898   2.547   9.397   9.779 -0.5716 -0.7381 -0.3354
33661SOL    HW1 4899   2.550   9.321   9.720  1.4974 -0.7779 -0.2686
33661SOL    HW2 4900   2.486   9.457   9.737 -0.9546 -1.7407 -1.2863
33662SOL     OW 4901   8.961   7.947   6.823 -0.2395 -0.0114 -0.1410
33662SOL    HW1 4902   8.935   7.939   6.732  1.0435 -2.5840 -0.3671
33662SOL    HW2 4903   9.046   7.990   6.820 -0.1661 -0.1578 -0.1642
33663SOL     OW 4904   3.332   0.135   4.948 -0.3096  0.3890  0.3735
33663SOL    HW1 4905   3.334   0.167   4.858 -0.0877 -3.0976 -1.0364
33663SOL    HW2 4906   3.420   0.099   4.963 -0.4565  0.5825  1.8665
33664SOL     OW 4907   5.738   5.817   4.015 -0.1400  0.1710  0.0252
33664SOL    HW1 4908   5.722   5.761   4.091  0.5679  0.8224  0.6760
33664SOL    HW2 4909   5.831   5.838   4.020 -0.4598  1.7122  0.0408
33665SOL     OW 4910   0.217   3.459   7.299 -0.1716  0.2803  0.3896
33665SOL    HW1 4911   0.195   3.407   7.222  2.5270  0.2411 -0.4774
33665SOL    HW2 4912   0.231   3.547   7.265  0.3461  0.4138  0.9404
33666SOL     OW 4913   9.321   1.814   5.696 -0.2850  0.3947 -0.2536
33666SOL    HW1 4914   9.317   1.752   5.768  1.4089 -0.2375 -0.6499
33666SOL    HW2 4915   9.282   1.895   5.731 -1.5431 -0.5519  0.6093
33667SOL     OW 4916   0.276   7.418   5.071  0.6813 -0.3362  0.3252
33667SOL    HW1 4917   0.283   7.377   4.984 -0.0684 -0.4068  0.2898
33667SOL    HW2 4918   0.356   7.392   5.116  0.8446 -0.7189 -0.1695
33668SOL     OW 4919   3.399   0.459   1.676  0.4607 -0.7162 -0.1486
33668SOL    HW1 4920   3.348   0.382   1.650 -2.0498  0.6302  0.4038
33668SOL    HW2 4921   3.417   0.445   1.769 -0.1189 -0.6065 -0.0133
33669SOL     OW 4922   3.033   9.839   7.900  0.2499 -0.5731 -0.3887
33669SOL    HW1 4923   3.098   9.831   7.831  1.1073 -0.3165  0.3674
33669SOL    HW2 4924   3.083   9.830   7.981 -0.7209 -0.8041  0.2046
33670SOL     OW 4925   9.785   2.999   5.039 -0.3573  0.1502 -0.0014
33670SOL    HW1 4926   9.765   2.982   5.131 -1.2140  0.5013 -0.1114
33670SOL    HW2 4927   9.706   2.972   4.992 -0.5826  1.5541 -0.4659
33671SOL     OW 4928   3.465   6.912   6.923  1.1517  0.5411 -0.1828
33671SOL    HW1 4929   3.462   7.008   6.921 -1.0794  0.5904  1.7094
33671SOL    HW2 4930   3.387   6.886   6.973  0.8838 -2.3402 -1.8689
33672SOL     OW 4931   1.620   0.166   3.939  0.1241 -0.1392 -0.1569
33672SOL    HW1 4932   1.642   0.095   4.000  0.6546 -0.6117 -0.8773
33672SOL    HW2 4933   1.703   0.212   3.925 -0.2161  0.6482  0.3110
33673SOL     OW 4934   4.523   8.860   7.030 -0.0362 -0.1250 -0.0814
33673SOL    HW1 4935   4.566   8.891   6.950  0.9260  0.9220  0.7975
33673SOL    HW2 4936   4.447   8.916   7.040 -0.6484 -0.8260 -0.7041
33674SOL     OW 4937   5.323   9.570   4.682  0.0758  0.6289  0.3940
33674SOL    HW1 4938   5.313   9.653   4.728  1.9817  0.4808  1.1645
33674SOL    HW2 4939   5.376   9.591   4.605 -1.8329  0.6002 -0.9983
33675SOL     OW 4940   6.782   1.434   3.063 -0.0386 -0.8919  0.2836
33675SOL    HW1 4941   6.853   1.460   3.004 -1.4639 -1.1348 -1.6080
33675SOL    HW2 4942   6.773   1.508   3.123  1.2012 -0.4687 -0.0272
33676SOL     OW 4943   8.162   9.892   2.862  0.0302 -1.0960 -0.1248
33676SOL    HW1 4944   8.222   9.955   2.902  1.5028 -2.6381  0.2310
33676SOL    HW2 4945   8.128   9.936   2.785  1.4390 -0.0510 -0.1836
33677SOL     OW 4946   0.610   0.200   0.477 -0.0052 -0.0577 -0.5513
33677SOL    HW1 4947   0.702   0.185   0.456 -0.6462 -1.1515 -2.9760
33677SOL    HW2 4948   0.583   0.270   0.417 -0.5110  1.0631  0.9272
33678SOL     OW 4949   7.799   9.878   7.198 -0.1439  0.0458  0.0022
33678SOL    HW1 4950   7.794   9.850   7.289 -2.3983  1.5569  0.4290
33678SOL    HW2 4951   7.796   9.974   7.203  0.0997  0.1695 -1.6688
33679SOL     OW 4952   5.372   5.745   1.833  0.6379  0.8693 -0.4178
33679SOL    HW1 4953   5.278   5.740   1.816  0.6474 -0.2838 -0.2318
33679SOL    HW2 4954   5.377   5.778   1.923  0.3729  0.0282 -0.0844
33680SOL     OW 4955   5.492   9.920   2.160  0.1609 -0.7475  0.5817
33680SOL    HW1 4956   5.525   9.934   2.071 -0.1211  1.6714  0.8086
33680SOL    HW2 4957   5.433   9.845   2.151  1.2601 -1.4929 -0.9646
33681SOL     OW 4958   9.983   9.061   4.536  0.2897 -0.1417 -0.3740
33681SOL    HW1 4959  10.041   8.986   4.521  0.8845  0.1501  0.4424
33681SOL    HW2 4960   9.977   9.104   4.451 -0.1152 -1.1456 -0.8734
33682SOL     OW 4961   3.142   1.039   1.181 -0.2670 -0.4616  0.0205
33682SOL    HW1 4962   3.107   1.010   1.265 -0.8421 -2.1201 -0.7472
33682SOL    HW2 4963   3.206   0.971   1.157  1.0125  0.7768 -0.1777
33683SOL     OW 4964   7.221   1.116   9.430 -0.4290  0.2396  0.1226
33683SOL    HW1 4965   7.252   1.207   9.433  1.5900 -0.3833 -0.3219
33683SOL    HW2 4966   7.275   1.071   9.494  0.0574 -1.0369 -1.1393
33684SOL     OW 4967   2.137   0.754   4.379 -0.1527 -0.5699 -0.3565
33684SOL    HW1 4968   2.205   0.712   4.326 -1.3071 -4.0513  0.6894
33684SOL    HW2 4969   2.102   0.685   4.435 -0.5832  2.3435  3.4358
33685SOL     OW 4970   2.783   1.760   7.261  0.1288 -0.2070  0.6146
33685SOL    HW1 4971   2.704   1.776   7.312  0.1637 -0.1784  0.6605
33685SOL    HW2 4972   2.854   1.790   7.318  0.1441  0.1594  0.4069
33686SOL     OW 4973   7.662   5.276   9.471  0.8060  0.3861  0.2262
33686SOL    HW1 4974   7.587   5.217   9.472  0.2620  1.0482  1.9427
33686SOL    HW2 4975   7.629   5.356   9.430  1.1771 -0.0074 -0.8872
33687SOL     OW 4976   0.607   6.140   6.163 -0.2904  0.3898 -0.8643
33687SOL    HW1 4977   0.622   6.046   6.148  2.1121  0.8046 -1.5846
33687SOL    HW2 4978   0.679   6.183   6.116 -0.3328  2.5021  0.8599
33688SOL     OW 4979   0.633   9.336   4.307 -0.2814  0.5501  0.8668
33688SOL    HW1 4980   0.589   9.349   4.223 -1.1924 -1.3952  0.9942
33688SOL    HW2 4981   0.624   9.420   4.352 -0.3190  1.4306 -0.7043
33689SOL     OW 4982   3.029   5.698   1.227  0.5362 -0.2171  0.8571
33689SOL    HW1 4983   2.969   5.761   1.188  1.8200  0.3212 -0.3369
33689SOL    HW2 4984   3.039   5.727   1.317  0.6516  0.9650  0.4840
33690SOL     OW 4985   6.757   5.356   4.844 -0.3417  0.0532  0.3958
33690SOL    HW1 4986   6.767   5.439   4.892  0.8055  0.5559 -0.6771
33690SOL    HW2 4987   6.740   5.292   4.913 -1.0862  1.1293  1.2730
33691SOL     OW 4988   9.129   0.264   7.012  0.3398  0.0719 -0.3360
33691SOL    HW1 4989   9.082   0.239   6.932  0.8614 -0.8087 -0.3847
33691SOL    HW2 4990   9.185   0.336   6.985  1.3223 -0.9197 -1.0654
33692SOL     OW 4991   2.709   2.463   2.704  0.4108  0.3087  0.1511
33692SOL    HW1 4992   2.636   2.523   2.686  0.6916  1.2057  1.7813
33692SOL    HW2 4993   2.669   2.386   2.744 -0.0967 -1.2487 -3.0446
33693SOL     OW 4994   1.622   7.324   4.304 -0.1387 -0.1901  0.0039
33693SOL    HW1 4995   1.533   7.287   4.298 -0.5467  0.6718  0.6292
33693SOL    HW2 4996   1.610   7.418   4.293  0.7493 -0.1032 -0.2752
33694SOL     OW 4997   9.934   4.204   3.883 -0.8211 -0.6016 -0.2676
33694SOL    HW1 4998   9.947   4.213   3.789  0.2767 -1.0804 -0.1797
33694SOL    HW2 4999   9.904   4.291   3.911  0.6849  0.1285 -0.7880
33695SOL     OW 5000   1.981   8.152   8.410 -0.2097  0.3647  0.0570
33695SOL    HW1 5001   2.034   8.104   8.346  0.2495 -1.9160  2.0346
33695SOL    HW2 5002   2.043   8.214   8.450  0.5898 -1.0551  1.1049
33696SOL     OW 5003   2.835   6.213   9.547 -0.4161  0.0555  0.0800
33696SOL    HW1 5004   2.758   6.257   9.583 -0.2645  0.1974  0.2361
33696SOL    HW2 5005   2.862   6.152   9.616  0.1196  0.6210  0.3871
33697SOL     OW 5006   6.861   5.039   5.744  0.4400  0.3248 -0.1254
33697SOL    HW1 5007   6.808   4.962   5.721 -0.0938  0.9417 -1.0645
33697SOL    HW2 5008   6.873   5.084   5.660  3.0854 -0.1513 -0.0605
33698SOL     OW 5009   7.653   7.013   3.394 -0.5657  0.7953 -0.0365
33698SOL    HW1 5010   7.691   6.990   3.479 -3.0969  0.2217  1.0348
33698SOL    HW2 5011   7.586   7.079   3.415 -1.2842  0.6000 -1.5786
33699SOL     OW 5012   8.707   9.675  10.020 -0.1753 -0.0536  0.5661
33699SOL    HW1 5013   8.742   9.599  10.067  1.3216  0.3315  0.1238
33699SOL    HW2 5014   8.761   9.749  10.050  0.4566  0.2874 -1.3040
33700SOL     OW 5015   7.314   1.365   9.431 -0.2884  0.1443  0.5234
33700SOL    HW1 5016   7.269   1.430   9.485  0.2390 -0.0779  1.2450
33700SOL    HW2 5017   7.287   1.385   9.341 -0.9204  0.7224  0.8386
33701SOL     OW 5018   8.614   8.420   4.481 -0.0499  0.2714  0.2253
33701SOL    HW1 5019   8.529   8.383   4.506  1.1011 -2.7048  0.1737
33701SOL    HW2 5020   8.601   8.450   4.390 -1.2308  0.6076  0.4885
33702SOL     OW 5021   1.998   3.692   5.662 -0.2208  0.7742 -0.1945
33702SOL    HW1 5022   2.042   3.718   5.581  2.4091 -1.3491  0.4152
33702SOL    HW2 5023   1.919   3.648   5.632  1.1019 -0.7030 -1.7186
33703SOL     OW 5024   1.257   6.267   4.006  0.3491 -0.8864  0.4079
33703SOL    HW1 5025   1.331   6.311   4.048  0.0607 -2.1028  2.3084
33703SOL    HW2 5026   1.195   6.337   3.987  0.3497 -0.2775  2.3861
33704SOL     OW 5027   0.395   2.609   2.608  0.5978  0.0354  0.3249
33704SOL    HW1 5028   0.438   2.604   2.693 -0.8375  0.8412  1.1534
33704SOL    HW2 5029   0.420   2.528   2.564 -0.4661 -1.5797  2.4545
33705SOL     OW 5030   0.210   6.761   6.861 -0.5716  0.7987 -0.3047
33705SOL    HW1 5031   0.303   6.783   6.857 -0.4897  0.8595  1.2839
33705SOL    HW2 5032   0.187   6.770   6.954 -2.1651  0.7829 -0.6655
33706SOL     OW 5033   3.736   8.367   5.495 -0.6838  0.5943  0.4190
33706SOL    HW1 5034   3.650   8.351   5.535 -0.5343  0.4578  0.6931
33706SOL    HW2 5035   3.734   8.317   5.414 -1.4301  1.8169 -0.3379
33707SOL     OW 5036   4.368   8.747   4.266  0.0743 -0.1874 -0.2992
33707SOL    HW1 5037   4.398   8.723   4.354  0.2207  0.5870 -0.1354
33707SOL    HW2 5038   4.446   8.781   4.222  0.2335 -1.5004 -1.0773
33708SOL     OW 5039   1.594   1.169   0.501 -0.2126  0.1478  0.3344
33708SOL    HW1 5040   1.575   1.147   0.410 -0.2293 -0.5557  0.5034
33708SOL    HW2 5041   1.609   1.084   0.544 -0.4329  0.4548  1.0342
33709SOL     OW 5042   9.400   3.200   4.187 -0.1095  0.3583  1.0226
33709SOL    HW1 5043   9.411   3.123   4.131  0.8483 -0.4757  2.2949
33709SOL    HW2 5044   9.405   3.275   4.127 -1.6440 -0.5441 -0.3221
33710SOL     OW 5045   4.682   3.165   5.851  0.4431 -0.1657  0.4718
33710SOL    HW1 5046   4.600   3.161   5.802  1.2753 -1.9094 -0.8965
33710SOL    HW2 5047   4.703   3.258   5.855 -0.3438  0.1381 -1.3557
33711SOL     OW 5048   9.148   6.152   6.407  0.7516 -0.5539  0.0783
33711SOL    HW1 5049   9.221   6.197   6.366 -0.1006  0.2733 -0.5833
33711SOL    HW2 5050   9.134   6.073   6.354  0.7975 -0.4143 -0.1388
33712SOL     OW 5051   6.390   6.448   8.262  0.0541  0.1736 -0.3897
33712SOL    HW1 5052   6.486   6.440   8.255  0.0434  0.0743 -0.4327
33712SOL    HW2 5053   6.358   6.424   8.175 -0.0530 -0.5727 -0.1533
33713SOL     OW 5054   6.526   5.751   0.041 -0.0046  0.1048 -0.1909
33713SOL    HW1 5055   6.458   5.721  -0.019  0.5784 -0.6431 -0.4803
33713SOL    HW2 5056   6.517   5.694   0.118 -0.2922  0.6026  0.1520
33714SOL     OW 5057   1.821   8.155   9.490 -0.4607  0.2001 -0.3507
33714SOL    HW1 5058   1.852   8.210   9.561 -0.4904  0.2155 -0.3491
33714SOL    HW2 5059   1.881   8.172   9.418  0.8068 -1.3132  0.2791
33715SOL     OW 5060   9.296   3.081   1.477 -0.2315  0.4371  0.6763
33715SOL    HW1 5061   9.305   3.089   1.572 -0.4052 -0.2986  0.7616
33715SOL    HW2 5062   9.352   3.150   1.442  1.0001 -0.2186  1.2955
33716SOL     OW 5063   0.998   9.727   5.809  0.3907 -0.5178  0.3264
33716SOL    HW1 5064   0.948   9.771   5.878  0.4843  1.0856 -0.5821
33716SOL    HW2 5065   1.083   9.709   5.849  0.3653  0.1774  0.6995
33717SOL     OW 5066   5.288   3.947   7.525 -0.2329  0.6712  0.1979
33717SOL    HW1 5067   5.342   4.020   7.495 -0.8789  0.1095 -2.6040
33717SOL    HW2 5068   5.226   3.932   7.453 -2.8757  0.0342  2.4244
33718SOL     OW 5069   7.513   1.197   7.213 -0.7667 -0.3174 -0.5134
33718SOL    HW1 5070   7.512   1.274   7.269 -0.7470  1.1126 -2.4061
33718SOL    HW2 5071   7.498   1.124   7.274 -2.0785  1.2448  1.1732
33719SOL     OW 5072   3.259   3.630   5.508 -0.3101  0.2563 -0.0739
33719SOL    HW1 5073   3.283   3.602   5.420 -0.8471 -3.4750  0.7619
33719SOL    HW2 5074   3.342   3.648   5.551  0.0433  0.7523 -0.9504
33720SOL     OW 5075   8.696   1.247   5.755  0.1141  0.0241 -0.2115
33720SOL    HW1 5076   8.603   1.231   5.773  0.5868 -1.2720  1.2090
33720SOL    HW2 5077   8.705   1.230   5.661 -0.7281 -1.7500 -0.0059
33721SOL     OW 5078   8.206   0.738   5.177  0.0576  0.0519 -0.0477
33721SOL    HW1 5079   8.178   0.726   5.086  1.5714 -0.5160 -0.4748
33721SOL    HW2 5080   8.302   0.735   5.173  0.1468 -2.0006  1.8119
33722SOL     OW 5081   3.566   6.144   1.263 -0.3123  0.1383  0.1825
33722SOL    HW1 5082   3.544   6.084   1.192  0.6558 -1.0761  0.8657
33722SOL    HW2 5083   3.660   6.131   1.278 -0.4792  0.3766  1.6576
33723SOL     OW 5084   7.722   6.334   2.271  0.7709 -0.6095  0.3372
33723SOL    HW1 5085   7.774   6.337   2.351  0.1041 -0.3164  0.7693
33723SOL    HW2 5086   7.638   6.295   2.297 -0.4813  1.9222  0.4243
33724SOL     OW 5087   7.056   4.408   4.202  0.1946  0.1292  0.3925
33724SOL    HW1 5088   7.042   4.427   4.110  3.7166 -0.0270 -0.2864
33724SOL    HW2 5089   7.033   4.315   4.211 -0.8054  0.3105 -0.1202
33725SOL     OW 5090   0.533   0.467   9.904 -0.6205  0.0593 -0.1954
33725SOL    HW1 5091   0.504   0.498   9.818 -0.8443  0.4984  0.0374
33725SOL    HW2 5092   0.525   0.372   9.899  0.6207 -0.0375 -1.1292
33726SOL     OW 5093   4.638   3.504   9.510  0.1880  0.1488 -0.2476
33726SOL    HW1 5094   4.627   3.549   9.594 -0.3307  2.2924 -1.4069
33726SOL    HW2 5095   4.682   3.568   9.454  0.6294 -1.2754 -1.6097
33727SOL     OW 5096   1.952   5.376   8.438 -0.0837  0.3736 -0.1095
33727SOL    HW1 5097   1.956   5.312   8.508 -1.1344  0.4395  0.0315
33727SOL    HW2 5098   1.859   5.395   8.428 -0.1175 -0.6227 -2.4237
33728SOL     OW 5099   0.009   5.695   8.841 -0.4693  0.4687  0.4785
33728SOL    HW1 5100   0.016   5.787   8.869 -0.2379  0.5437  0.1713
33728SOL    HW2 5101  -0.047   5.655   8.907  0.0121  0.6672  1.0220
33729SOL     OW 5102   9.836   4.954   0.020  0.4674  0.0677 -0.2274
33729SOL    HW1 5103   9.844   4.988   0.110 -1.9465  0.8525 -0.2242
33729SOL    HW2 5104   9.885   4.872   0.020  2.7015  1.3174  1.0563
33730SOL     OW 5105   6.596   8.260   0.136  0.1102 -0.1437 -0.6411
33730SOL    HW1 5106   6.515   8.239   0.184 -0.3447 -0.2091 -1.4101
33730SOL    HW2 5107   6.636   8.174   0.120 -0.2533 -0.2126 -1.2342
33731SOL     OW 5108   4.647   6.730   3.697  0.6216  0.4375  0.0457
33731SOL    HW1 5109   4.604   6.755   3.615  0.7770 -1.8357 -0.8112
33731SOL    HW2 5110   4.730   6.777   3.696  1.5792 -1.1336 -2.2272
33732SOL     OW 5111   8.794   6.543   8.860 -0.2542  0.6351 -0.0239
33732SOL    HW1 5112   8.736   6.581   8.926  1.7904  0.4995  2.0231
33732SOL    HW2 5113   8.876   6.527   8.908  0.3734 -2.3573 -1.8617
33733SOL     OW 5114   3.845   5.694   0.327  0.0014  0.1750 -0.4110
33733SOL    HW1 5115   3.853   5.603   0.298  2.9387  0.4073 -0.6290
33733SOL    HW2 5116   3.867   5.745   0.249  1.4658  0.9679  0.4964
33734SOL     OW 5117   2.467   9.359   7.988 -0.5289 -0.6942  0.1717
33734SOL    HW1 5118   2.377   9.376   7.961 -0.0998  1.0952 -0.2481
33734SOL    HW2 5119   2.505   9.446   8.002  1.1901 -1.4043  0.1755
33735SOL     OW 5120   0.399   7.308   0.294  0.4739 -0.7068 -0.6802
33735SOL    HW1 5121   0.312   7.273   0.273 -0.4258  1.2752 -0.5347
33735SOL    HW2 5122   0.381   7.382   0.351  2.2894 -0.3108 -0.5746
33736SOL     OW 5123   3.750   9.986   3.113 -0.1022 -0.0359 -0.1104
33736SOL    HW1 5124   3.813   9.914   3.106 -0.0475 -0.1655  1.4564
33736SOL    HW2 5125   3.766  10.025   3.198 -0.9802  1.0562 -0.4146
33737SOL     OW 5126   6.719   3.127   0.630  0.0409  0.3117 -0.2325
33737SOL    HW1 5127   6.635   3.110   0.671 -0.0385 -0.3250 -0.6353
33737SOL    HW2 5128   6.701   3.125   0.536  0.5464 -0.1167 -0.3272
33738SOL     OW 5129   8.062   9.665   7.489  0.2385 -0.0915  0.6235
33738SOL    HW1 5130   8.034   9.640   7.577  1.5393  1.2342  1.4470
33738SOL    HW2 5131   8.140   9.718   7.502  0.5676 -0.0087 -1.3533
33739SOL     OW 5132   8.847   7.923   2.908 -0.8576  0.6628  0.2881
33739SOL    HW1 5133   8.835   7.912   2.814  0.9302  1.7534 -0.1035
33739SOL    HW2 5134   8.812   8.010   2.927  0.5151  1.2521  0.2472
33740SOL     OW 5135   0.438   3.439   1.543 -0.7109  0.0388  0.6630
33740SOL    HW1 5136   0.475   3.402   1.623 -0.4646 -1.1681  0.0090
33740SOL    HW2 5137   0.476   3.527   1.537  0.3686 -0.3792  1.1386
33741SOL     OW 5138   4.248   4.030   9.389  0.4982  0.3433 -0.0020
33741SOL    HW1 5139   4.268   4.039   9.482 -2.0482  0.9697  0.5591
33741SOL    HW2 5140   4.277   3.942   9.366  2.3543  0.6376  1.0146
33742SOL     OW 5141   7.370   8.742   4.899 -0.0214  0.2351  0.0090
33742SOL    HW1 5142   7.309   8.682   4.943 -0.0014  0.8666  0.9119
33742SOL    HW2 5143   7.318   8.820   4.882 -0.0725 -0.0493 -1.2630
33743SOL     OW 5144   0.563   8.485   6.816 -0.4317 -0.3087 -0.3992
33743SOL    HW1 5145   0.517   8.528   6.744  1.2113 -0.0237 -1.3230
33743SOL    HW2 5146   0.622   8.423   6.774 -1.0588 -1.8082  0.8159
33744SOL     OW 5147   2.741   1.348   2.812 -0.3407  0.0539  0.4993
33744SOL    HW1 5148   2.746   1.361   2.718  1.4630 -0.1723  0.5237
33744SOL    HW2 5149   2.697   1.264   2.823  1.5737 -1.1085 -0.2803
33745SOL     OW 5150   9.990   8.275   1.376  0.4970  0.2495  0.0147
33745SOL    HW1 5151  10.036   8.262   1.293 -0.6422  0.7314 -0.7213
33745SOL    HW2 5152   9.963   8.367   1.375 -0.3356  0.0210  0.4908
33746SOL     OW 5153   6.960   0.634   4.921 -0.0088  0.0485 -0.1623
33746SOL    HW1 5154   7.030   0.602   4.978 -1.0304 -1.3632  0.3430
33746SOL    HW2 5155   6.959   0.573   4.847  1.0180  1.6079 -1.5527
33747SOL     OW 5156   7.547   2.617   2.669 -0.2197 -0.0042  0.3670
33747SOL    HW1 5157   7.477   2.563   2.634  0.4586 -0.7210  0.1121
33747SOL    HW2 5158   7.508   2.661   2.745 -1.2369  0.3918 -0.3734
33748SOL     OW 5159   3.954   6.599   5.461  0.3451 -0.4392  0.5769
33748SOL    HW1 5160   4.045   6.598   5.490  0.3087 -0.1312  0.7013
33748SOL    HW2 5161   3.933   6.507   5.445  1.2462 -0.3683 -1.2284
33749SOL     OW 5162   6.798   2.780   3.654  0.2749 -0.3904  0.2560
33749SOL    HW1 5163   6.788   2.710   3.590 -0.5476 -0.8413  0.8536
33749SOL    HW2 5164   6.886   2.767   3.690 -0.5582 -2.3387  1.7412
33750SOL     OW 5165   2.333   1.462   4.474 -0.1399  0.3545 -0.3517
33750SOL    HW1 5166   2.341   1.374   4.511 -0.9592 -0.5027 -2.0959
33750SOL    HW2 5167   2.240   1.472   4.454  0.4250  0.0344 -3.7082
33751SOL     OW 5168   4.440   8.587   3.123  0.6449  0.4536 -0.3032
33751SOL    HW1 5169   4.388   8.593   3.203  0.7861 -2.8348  0.1617
33751SOL    HW2 5170   4.524   8.550   3.150  0.6386 -0.9006 -1.9598
33752SOL     OW 5171   4.594   7.235   0.446  0.1246  0.3701 -0.4464
33752SOL    HW1 5172   4.597   7.196   0.534 -1.3325 -2.1096 -1.3888
33752SOL    HW2 5173   4.668   7.295   0.444  1.2221 -0.7617  1.9138
33753SOL     OW 5174   2.990   8.568   3.572  0.3874 -0.6729  0.3964
33753SOL    HW1 5175   2.937   8.507   3.521  2.3814 -0.3741 -2.2897
33753SOL    HW2 5176   3.079   8.554   3.540  1.3204  1.7612  1.6714
33754SOL     OW 5177   5.967   7.156   3.226  0.4856  0.0429  0.2579
33754SOL    HW1 5178   5.984   7.135   3.134  0.9309  0.2230  0.2984
33754SOL    HW2 5179   5.903   7.227   3.223  1.0550  0.5591  0.0696
33755SOL     OW 5180   1.091   2.673   2.666 -0.5282  0.7683  0.1863
33755SOL    HW1 5181   1.145   2.605   2.706  0.2994  1.7675  0.8375
33755SOL    HW2 5182   1.145   2.709   2.596  0.1686  2.5185  1.5366
33756SOL     OW 5183   4.847   5.355   8.932  0.3524 -0.1555 -0.2961
33756SOL    HW1 5184   4.930   5.398   8.951  0.4254 -0.5536  0.3207
33756SOL    HW2 5185   4.789   5.425   8.903  0.1983  0.5170  1.5377
33757SOL     OW 5186   7.829   3.188   6.220  0.0951 -0.0213 -0.5087
33757SOL    HW1 5187   7.787   3.202   6.135 -2.6678 -1.1717  0.5309
33757SOL    HW2 5188   7.805   3.266   6.271  0.3753 -0.0807 -0.2830
33758SOL     OW 5189   6.752   0.975   3.391  0.4746 -0.5913 -0.1242
33758SOL    HW1 5190   6.801   1.013   3.318  1.3568 -2.1027 -0.3556
33758SOL    HW2 5191   6.660   0.992   3.370  0.6719 -1.5559 -1.9320
33759SOL     OW 5192   2.387   2.954   4.956  0.6497 -0.0634  0.3701
33759SOL    HW1 5193   2.398   2.862   4.932  0.2403 -0.0214  0.0078
33759SOL    HW2 5194   2.446   3.002   4.898  0.7922 -0.0902  0.4932
33760SOL     OW 5195   6.659   2.711   0.631  0.2766  0.1487  1.0241
33760SOL    HW1 5196   6.726   2.651   0.600 -0.7011 -1.4561  1.8802
33760SOL    HW2 5197   6.707   2.790   0.658  1.5961 -0.2557 -0.0598
33761SOL     OW 5198   1.137   6.811   9.800 -0.2297 -0.1697 -0.5201
33761SOL    HW1 5199   1.132   6.720   9.769  0.3625  0.0268 -1.2119
33761SOL    HW2 5200   1.231   6.831   9.802 -0.3337  0.2902  0.0407
33762SOL     OW 5201   2.010   3.418   3.745 -0.2511 -0.0094  0.1708
33762SOL    HW1 5202   1.979   3.418   3.655 -0.4805 -1.5060  0.2337
33762SOL    HW2 5203   2.071   3.344   3.751 -0.2879  0.0235  1.2576
33763SOL     OW 5204   2.651   1.722   5.297  0.3756  0.3779  0.0266
33763SOL    HW1 5205   2.643   1.645   5.354 -0.9630 -0.5691 -1.3628
33763SOL    HW2 5206   2.711   1.780   5.344 -1.7514  0.3002  3.1086
33764SOL     OW 5207   6.918   7.242   0.086  0.7404 -0.5758  0.2137
33764SOL    HW1 5208   6.854   7.212   0.022  0.1185  0.8605  0.1104
33764SOL    HW2 5209   6.867   7.266   0.163  1.3963 -1.5058  0.9582
33765SOL     OW 5210   0.906   5.360   7.119  0.5546 -0.6752 -0.2438
33765SOL    HW1 5211   0.885   5.442   7.163 -0.4122 -0.8043 -0.4474
33765SOL    HW2 5212   0.875   5.292   7.178 -1.1099 -0.8455 -1.2465
33766SOL     OW 5213   0.216   1.640   1.964  0.0364  0.2934  0.5834
33766SOL    HW1 5214   0.175   1.611   1.882  0.2116 -1.5118  1.0911
33766SOL    HW2 5215   0.186   1.577   2.029  1.6706  0.3603  1.4610
33767SOL     OW 5216   8.313   8.593   8.335  0.0601  0.2540  0.1004
33767SOL    HW1 5217   8.259   8.672   8.346  0.5485  0.7372 -0.8497
33767SOL    HW2 5218   8.399   8.626   8.310  0.1555 -0.6009 -0.7515
33768SOL     OW 5219   1.625   0.052   6.052 -0.7061  0.7227  0.0627
33768SOL    HW1 5220   1.686  -0.019   6.035 -1.2235  0.1889  0.4189
33768SOL    HW2 5221   1.681   0.129   6.066 -0.1909  0.7354 -1.8273
33769SOL     OW 5222   2.834   4.778   0.408  0.9148 -0.7133 -0.5979
33769SOL    HW1 5223   2.768   4.717   0.441 -0.3568  0.8236 -0.2192
33769SOL    HW2 5224   2.838   4.847   0.473  2.2313 -0.2910 -1.0945
33770SOL     OW 5225   7.037   1.402   3.692 -0.4040  0.2779  0.1679
33770SOL    HW1 5226   7.129   1.409   3.717 -0.3309 -0.1372  0.0274
33770SOL    HW2 5227   7.038   1.349   3.612 -0.7260  0.6624 -0.1020
33771SOL     OW 5228   3.918   7.601   1.630 -0.6279  0.9376  0.2706
33771SOL    HW1 5229   3.901   7.690   1.598 -2.4174  0.3708 -0.4886
33771SOL    HW2 5230   3.831   7.565   1.648  0.0632 -0.6490  0.5912
33772SOL     OW 5231   1.394   0.957   2.228 -0.1288  0.2652  0.0781
33772SOL    HW1 5232   1.455   0.924   2.294  2.3123  1.6626 -1.3520
33772SOL    HW2 5233   1.382   0.883   2.168 -1.1249 -0.4978  1.1616
33773SOL     OW 5234   4.298   5.785   2.892  0.1795  0.0687  0.4253
33773SOL    HW1 5235   4.267   5.875   2.906  2.7256  1.0537  0.2132
33773SOL    HW2 5236   4.261   5.760   2.807  0.5509  1.4644 -0.1768
33774SOL     OW 5237   2.083   1.718   7.193 -0.3553  0.1628  0.2981
33774SOL    HW1 5238   2.003   1.665   7.187  1.8254 -3.3969 -0.1783
33774SOL    HW2 5239   2.085   1.747   7.284 -1.8288 -0.2271  0.4880
33775SOL     OW 5240   6.199   9.312   3.437  0.2082  0.1601 -0.2071
33775SOL    HW1 5241   6.258   9.288   3.364  0.3590 -2.9217  0.7676
33775SOL    HW2 5242   6.254   9.365   3.495  0.5925  1.2340 -1.4956
33776SOL     OW 5243   2.764   8.708   1.207 -0.4467 -0.5409  0.1848
33776SOL    HW1 5244   2.797   8.795   1.183  0.1108 -0.4842  1.1191
33776SOL    HW2 5245   2.716   8.678   1.130  1.4563 -0.4674 -1.0756
33777SOL     OW 5246   4.018   1.766   0.117  0.6924  0.7205  0.1215
33777SOL    HW1 5247   3.970   1.822   0.055 -1.4752 -1.9084 -0.7660
33777SOL    HW2 5248   3.988   1.795   0.203  1.1032  2.1339 -0.1721
33778SOL     OW 5249   5.912   6.002   2.650  1.1171  0.5779  0.0410
33778SOL    HW1 5250   5.881   6.051   2.574 -0.4805  0.9982  0.9067
33778SOL    HW2 5251   6.007   5.996   2.638  0.9010  0.5244 -2.0199
33779SOL     OW 5252   3.403   2.955   5.271  0.3778  0.2121 -0.2745
33779SOL    HW1 5253   3.340   2.996   5.331  0.3064 -0.3408  0.0340
33779SOL    HW2 5254   3.358   2.877   5.239  1.0541 -0.4194  0.2785
33780SOL     OW 5255   5.133   7.837   3.298 -0.5873 -0.0719 -0.2678
33780SOL    HW1 5256   5.153   7.920   3.255  0.7349 -1.2289 -2.0285
33780SOL    HW2 5257   5.045   7.814   3.268 -1.6022  1.3441  1.4170
33781SOL     OW 5258   6.757   8.382   4.862  0.4935  0.2391  0.1222
33781SOL    HW1 5259   6.777   8.289   4.854  0.3738  0.2039  0.2303
33781SOL    HW2 5260   6.743   8.395   4.956  1.3153  0.5265  0.2169
33782SOL     OW 5261   4.946   0.147   3.283 -0.0254 -0.2019  0.0137
33782SOL    HW1 5262   4.903   0.232   3.280  0.9764  0.3233 -0.1725
33782SOL    HW2 5263   4.927   0.107   3.198 -2.3896 -1.1670  0.9334
33783SOL     OW 5264   8.274   6.220   0.615  0.4639  0.2113 -0.1595
33783SOL    HW1 5265   8.232   6.282   0.556  0.6268  1.9812  1.5242
33783SOL    HW2 5266   8.367   6.243   0.612  0.5763 -0.1819  0.2037
33784SOL     OW 5267   8.181   7.075   2.369  0.2827  0.3551  0.0652
33784SOL    HW1 5268   8.178   7.001   2.428 -0.1990 -0.1012 -0.5170
33784SOL    HW2 5269   8.254   7.128   2.400  0.3949 -0.1670  0.7096
33785SOL     OW 5270   5.275   5.604   0.092 -0.3333  0.3516  0.2583
33785SOL    HW1 5271   5.251   5.558   0.173  0.9887  0.6567  0.8565
33785SOL    HW2 5272   5.196   5.651   0.067 -1.1874 -0.8408  0.6015
33786SOL     OW 5273  10.052   3.674   1.455  0.1011  0.3660 -0.3534
33786SOL    HW1 5274  10.011   3.601   1.502  0.4144 -0.7150 -1.6653
33786SOL    HW2 5275  10.058   3.643   1.364 -0.3128  2.2880 -1.0806
33787SOL     OW 5276   2.334   7.430   4.120  0.0311 -0.7284  0.1169
33787SOL    HW1 5277   2.284   7.511   4.118 -1.0249 -1.3669 -1.1872
33787SOL    HW2 5278   2.407   7.444   4.060 -0.5810 -0.9811 -0.7045
33788SOL     OW 5279   3.510   9.495   9.367 -0.1840  0.0050  0.1988
33788SOL    HW1 5280   3.466   9.551   9.303 -0.1723 -0.4047 -0.1700
33788SOL    HW2 5281   3.600   9.528   9.370  0.3597 -1.1844 -1.4587
33789SOL     OW 5282   9.963  10.187   5.274  0.4485  0.3487 -0.3755
33789SOL    HW1 5283   9.936  10.261   5.219  2.1347 -0.4172 -2.3465
33789SOL    HW2 5284   9.897  10.120   5.259 -0.3307  0.9174  0.3603
33790SOL     OW 5285   7.723   9.738   1.708  0.2286  0.7043 -0.4879
33790SOL    HW1 5286   7.669   9.754   1.786 -0.3943  0.8782 -0.9516
33790SOL    HW2 5287   7.661   9.738   1.635  0.8759  1.0551 -1.0462
33791SOL     OW 5288   8.419   0.450   9.280 -0.4077 -0.0538 -0.0094
33791SOL    HW1 5289   8.435   0.533   9.325 -2.3965  0.8921 -0.9385
33791SOL    HW2 5290   8.506   0.415   9.261  0.4666  0.8435  2.1059
33792SOL     OW 5291   0.688   7.281   9.718 -0.2316  0.1518 -0.4372
33792SOL    HW1 5292   0.742   7.226   9.774 -0.8768  1.4453  1.5840
33792SOL    HW2 5293   0.713   7.258   9.629  1.0796 -1.7738  0.3747
33793SOL     OW 5294   7.981   6.410   3.413  0.4297  0.0834  0.2037
33793SOL    HW1 5295   7.904   6.389   3.361  0.1177 -1.8308  1.3454
33793SOL    HW2 5296   8.054   6.397   3.353  0.0243 -1.2435 -0.0432
33794SOL     OW 5297   8.158   4.884   5.231  0.2136 -0.1100 -0.2602
33794SOL    HW1 5298   8.213   4.884   5.309 -0.9186 -0.5585  0.5659
33794SOL    HW2 5299   8.218   4.900   5.159  1.1383  1.3884  0.7998
33795SOL     OW 5300   1.314   3.681   7.668 -0.6054 -0.2263 -0.7745
33795SOL    HW1 5301   1.279   3.731   7.594 -0.2741  1.5358  0.2059
33795SOL    HW2 5302   1.237   3.638   7.706 -0.8130 -0.9397 -1.9521
33796SOL     OW 5303   2.682   0.137   4.497  0.1626  0.1915  0.2925
33796SOL    HW1 5304   2.606   0.173   4.543  1.2222  0.6091  1.7853
33796SOL    HW2 5305   2.723   0.078   4.560  1.5496  0.6103 -0.1740
33797SOL     OW 5306   3.002   1.849   7.388 -0.4092  0.6955 -0.0167
33797SOL    HW1 5307   3.067   1.787   7.355 -1.4890 -0.4163 -0.1527
33797SOL    HW2 5308   3.048   1.900   7.454  1.2963  1.7283 -1.9209
33798SOL     OW 5309   5.103   8.493   7.532 -0.1387  0.5211  0.1372
33798SOL    HW1 5310   5.077   8.502   7.623  0.6527  0.0431  0.4157
33798SOL    HW2 5311   5.156   8.413   7.529  0.4284  0.9078 -0.6076
33799SOL     OW 5312   8.576   2.840   0.424  0.8500  0.5990 -0.1972
33799SOL    HW1 5313   8.519   2.917   0.428  0.1340  0.0995 -0.6215
33799SOL    HW2 5314   8.588   2.815   0.516  1.4109  1.4475 -0.0330
33800SOL     OW 5315   6.975   9.715   4.437 -0.7337  0.1012 -0.0513
33800SOL    HW1 5316   7.001   9.630   4.472 -0.0921 -0.1731 -1.1566
33800SOL    HW2 5317   6.937   9.761   4.512  0.9642 -0.2988  1.1159
33801SOL     OW 5318   9.481   6.113   6.532 -0.3736  0.0892 -0.1582
33801SOL    HW1 5319   9.445   6.161   6.458 -2.7996  0.0775  0.9041
33801SOL    HW2 5320   9.538   6.176   6.576  0.0723  0.5039 -1.2999
33802SOL     OW 5321   3.457   2.256   1.689 -0.7742 -0.0703 -0.2140
33802SOL    HW1 5322   3.381   2.296   1.646 -1.4889 -0.5087  0.5874
33802SOL    HW2 5323   3.483   2.185   1.631 -0.8971  0.1663 -0.5603
33803SOL     OW 5324   5.242   2.204   9.763  0.1313 -0.2544  0.0377
33803SOL    HW1 5325   5.229   2.216   9.668 -1.4603  0.6259  0.3337
33803SOL    HW2 5326   5.307   2.270   9.786  1.3610 -1.1927 -0.5941
33804SOL     OW 5327   8.763   2.272   7.268  0.4311  0.2024 -0.3794
33804SOL    HW1 5328   8.801   2.226   7.194  0.7556  1.6079 -1.1267
33804SOL    HW2 5329   8.826   2.258   7.340  0.1835 -1.0427 -0.3937
33805SOL     OW 5330   4.541   6.038   5.254  0.4315  0.5969 -0.2412
33805SOL    HW1 5331   4.561   6.101   5.185 -1.8839  1.3903 -0.2794
33805SOL    HW2 5332   4.545   5.953   5.211 -1.7817  1.1170 -1.6710
33806SOL     OW 5333  10.121   8.966   1.410  0.4271 -0.5322 -0.0228
33806SOL    HW1 5334  10.161   8.937   1.328  1.7449  1.3252 -0.1032
33806SOL    HW2 5335  10.158   9.054   1.424 -4.2451  1.8107 -0.5440
33807SOL     OW 5336   1.663   9.426   3.349  0.7815 -0.5756 -0.1045
33807SOL    HW1 5337   1.728   9.473   3.296  0.0906 -0.3906 -0.7946
33807SOL    HW2 5338   1.584   9.479   3.343  0.7030 -0.4926  1.2114
33808SOL     OW 5339   9.714   9.301   5.615 -0.1595  0.8274  0.2656
33808SOL    HW1 5340   9.647   9.268   5.555  0.1835 -0.6029  0.6158
33808SOL    HW2 5341   9.781   9.339   5.558  0.6616 -1.4274 -0.3997
33809SOL     OW 5342   4.802   3.050   2.319 -0.1222 -0.2082  0.8197
33809SOL    HW1 5343   4.763   3.001   2.247  2.7443  0.2164 -1.1946
33809SOL    HW2 5344   4.792   3.142   2.294  2.5621 -0.0899 -0.1244
33810SOL     OW 5345   3.398   0.462   5.203  0.1557  0.3816  0.2305
33810SOL    HW1 5346   3.390   0.375   5.242 -0.0922  0.3589  0.1337
33810SOL    HW2 5347   3.353   0.519   5.266  0.8595  0.5356  0.6043
33811SOL     OW 5348   3.981   4.609   2.255 -0.3673 -0.1381  0.6976
33811SOL    HW1 5349   4.008   4.690   2.299 -1.2429  1.5058 -1.5369
33811SOL    HW2 5350   4.030   4.610   2.172 -1.3001 -1.2604  0.1038
33812SOL     OW 5351   0.638   7.982   0.642 -0.1308 -0.7707 -0.4722
33812SOL    HW1 5352   0.664   8.039   0.570  0.1757  0.8605  0.8934
33812SOL    HW2 5353   0.710   7.986   0.704 -0.3220 -2.2820 -0.1061
33813SOL     OW 5354   4.451   6.498   3.027 -0.4113  0.3086 -0.2319
33813SOL    HW1 5355   4.424   6.579   2.985 -0.8012 -0.3601 -1.3340
33813SOL    HW2 5356   4.545   6.492   3.010 -0.3084  0.7060  0.1813
33814SOL     OW 5357   6.120   4.370   5.211  0.0606  0.7228 -0.8597
33814SOL    HW1 5358   6.134   4.375   5.305 -2.3192  0.1032 -0.3984
33814SOL    HW2 5359   6.148   4.454   5.177  1.9441  0.5767  0.2208
33815SOL     OW 5360   3.862   1.888   4.695 -0.1486  0.3461  0.1284
33815SOL    HW1 5361   3.889   1.885   4.786 -0.2709  1.6876  0.2225
33815SOL    HW2 5362   3.825   1.801   4.678  0.5545 -0.1611  1.1293
33816SOL     OW 5363   8.176  10.199   5.040  0.2410  0.0982 -0.0752
33816SOL    HW1 5364   8.135  10.175   4.957  0.5729  0.5832 -0.3834
33816SOL    HW2 5365   8.269  10.183   5.027  0.5476  1.9063 -0.4509
33817SOL     OW 5366   8.614   2.019   9.131 -0.9330  0.5322 -0.6272
33817SOL    HW1 5367   8.632   1.931   9.097 -0.9258  0.9701 -1.7798
33817SOL    HW2 5368   8.658   2.078   9.070  0.0909  1.3108  0.8133
33818SOL     OW 5369   2.743   5.496   5.079 -0.4116 -0.4557  0.2191
33818SOL    HW1 5370   2.827   5.453   5.063  0.5410  1.0918  0.8339
33818SOL    HW2 5371   2.699   5.495   4.994  1.0116  0.2899 -0.5591
33819SOL     OW 5372   3.226   5.194   3.970  0.6062  0.0088 -0.5240
33819SOL    HW1 5373   3.187   5.130   4.029  2.2582 -2.8828 -2.3570
33819SOL    HW2 5374   3.318   5.198   3.995  0.5628  1.7158 -0.4896
33820SOL     OW 5375   0.326   9.055  10.182  0.1779 -0.1308 -0.0477
33820SOL    HW1 5376   0.264   9.023  10.248  0.9522  0.8035  1.1830
33820SOL    HW2 5377   0.406   9.004  10.198  1.4394  2.2512  1.9635
33821SOL     OW 5378   2.544   8.484   0.549  0.2771 -0.5528  0.4618
33821SOL    HW1 5379   2.495   8.406   0.522 -1.0271 -0.0351  1.2030
33821SOL    HW2 5380   2.482   8.532   0.604  0.8896  1.2285 -0.3391
33822SOL     OW 5381   0.845   1.051   6.549  0.1547  0.0044 -0.2053
33822SOL    HW1 5382   0.883   1.129   6.508 -0.6632  1.4856  1.6882
33822SOL    HW2 5383   0.762   1.038   6.503 -1.0029  1.9590  1.1492
33823SOL     OW 5384   0.939   2.920   2.249  0.2187 -0.0568  0.1231
33823SOL    HW1 5385   0.962   2.828   2.244 -1.1546 -0.5164  1.4700
33823SOL    HW2 5386   0.843   2.921   2.248  0.1699  1.5129 -1.8829
33824SOL     OW 5387   0.465   8.010   7.022 -0.3173 -0.5719  0.3191
33824SOL    HW1 5388   0.393   8.066   7.050  0.2606  0.3808 -0.0706
33824SOL    HW2 5389   0.454   7.930   7.073 -1.0651 -0.0452  1.0023
33825SOL     OW 5390   9.215   1.821   8.183  0.0043  0.6663 -0.4249
33825SOL    HW1 5391   9.142   1.808   8.123  0.8496 -1.1516 -1.1540
33825SOL    HW2 5392   9.233   1.915   8.179 -1.6031  0.9766 -1.0244
33826SOL     OW 5393   3.178   0.235   2.393 -0.4779  0.4511 -0.2100
33826SOL    HW1 5394   3.244   0.224   2.462  1.0622  2.0661 -1.3492
33826SOL    HW2 5395   3.200   0.170   2.327 -1.1647 -0.2228  0.2068
33827SOL     OW 5396   8.113   6.122   8.414  0.2444  0.0120  0.2919
33827SOL    HW1 5397   8.035   6.112   8.469 -0.2368  1.2705 -0.1346
33827SOL    HW2 5398   8.155   6.202   8.446 -0.1956  0.9320 -1.3199
33828SOL     OW 5399   3.364   7.441   3.833 -0.3264  0.5788 -0.1612
33828SOL    HW1 5400   3.305   7.473   3.901 -1.0867 -0.4914 -0.2854
33828SOL    HW2 5401   3.452   7.460   3.866 -0.6701 -0.1314  1.2421
33829SOL     OW 5402   2.343   2.049   0.873  0.2203 -0.2063  0.0718
33829SOL    HW1 5403   2.276   2.069   0.938  2.3066 -0.0116  2.2880
33829SOL    HW2 5404   2.332   1.955   0.854 -0.9457 -0.0691  0.0040
33830SOL     OW 5405   2.961   7.497   5.977 -0.2402  0.2047  0.1360
33830SOL    HW1 5406   2.891   7.559   5.958 -1.0196 -0.2058  1.5275
33830SOL    HW2 5407   3.031   7.521   5.917 -1.6483  0.4702 -1.4758
33831SOL     OW 5408   8.693   4.390   1.287  0.3684 -0.3403 -0.4068
33831SOL    HW1 5409   8.600   4.382   1.309  0.3464 -0.3281 -0.4973
33831SOL    HW2 5410   8.717   4.306   1.249  0.6247 -0.6809  0.4730
33832SOL     OW 5411   9.085  10.074  10.173  0.0658 -0.2765 -0.2369
33832SOL    HW1 5412   9.132  10.073  10.089 -2.4535 -1.0122 -1.7602
33832SOL    HW2 5413   9.116  10.153  10.216  1.3642  0.2077 -1.9235
33833SOL     OW 5414   0.480   5.877   8.699 -0.1076 -0.2142  0.3448
33833SOL    HW1 5415   0.565   5.838   8.680  0.2301 -0.2187  1.7373
33833SOL    HW2 5416   0.416   5.808   8.680  0.1135 -0.0063 -1.3189
33834SOL     OW 5417   5.725   4.525   9.870 -0.4944  0.4728 -0.5716
33834SOL    HW1 5418   5.814   4.502   9.896 -0.3693 -0.0315 -1.3809
33834SOL    HW2 5419   5.673   4.517   9.950 -0.2058 -1.4248 -0.5104
33835SOL     OW 5420   5.584   8.987   1.092  0.0474 -0.1993  0.1196
33835SOL    HW1 5421   5.649   8.930   1.052 -1.4026 -1.5753 -0.3658
33835SOL    HW2 5422   5.559   9.048   1.023 -0.0274 -0.4057 -0.0324
33836SOL     OW 5423   9.584   8.207   3.358  0.2498  0.5998 -0.6126
33836SOL    HW1 5424   9.668   8.182   3.397  0.0630  1.3893  0.3308
33836SOL    HW2 5425   9.534   8.125   3.354  0.8723  0.2162 -0.7220
33837SOL     OW 5426   3.478   9.123   4.312 -0.2909  0.4896 -0.2209
33837SOL    HW1 5427   3.439   9.037   4.326  0.6274 -0.4630 -2.8427
33837SOL    HW2 5428   3.404   9.182   4.305 -0.9862 -0.2653  0.5394
33838SOL     OW 5429   0.916   6.352   5.036  0.3006 -0.1970  0.7551
33838SOL    HW1 5430   0.859   6.365   5.111  0.5761  0.8651  0.7941
33838SOL    HW2 5431   0.957   6.437   5.021  0.4239 -0.4417 -0.4572
33839SOL     OW 5432   2.694   6.332   8.139  0.2851 -0.2261  0.4242
33839SOL    HW1 5433   2.664   6.309   8.051 -0.7010  3.1413 -0.2604
33839SOL    HW2 5434   2.780   6.370   8.126 -0.4821  1.6988  0.6032
33840SOL     OW 5435   5.048   8.061   5.459 -0.0078 -0.6157 -0.4832
33840SOL    HW1 5436   5.012   8.063   5.548 -2.9229  1.4326 -1.5369
33840SOL    HW2 5437   5.015   7.980   5.421  0.6592 -1.1471  0.0423
33841SOL     OW 5438   9.765   0.161   1.036 -0.7947 -0.1470 -0.0006
33841SOL    HW1 5439   9.808   0.136   0.954 -1.3173  0.8936 -0.6117
33841SOL    HW2 5440   9.836   0.187   1.094 -0.3794 -1.3656  0.0668
33842SOL     OW 5441   8.466   9.657   3.136  0.2217 -0.4229 -0.7592
33842SOL    HW1 5442   8.535   9.639   3.072  1.2742 -0.9111  0.4469
33842SOL    HW2 5443   8.488   9.600   3.210 -1.2446 -0.2490 -0.1661
33843SOL     OW 5444   3.180   0.031   6.152 -0.7861  0.0119 -0.1236
33843SOL    HW1 5445   3.097   0.062   6.190 -1.0370 -2.2509  1.3820
33843SOL    HW2 5446   3.201  -0.047   6.203  1.2756 -0.5883 -1.7851
33844SOL     OW 5447   9.929   9.536   8.922 -0.0605 -0.0820  0.5799
33844SOL    HW1 5448   9.846   9.504   8.889  0.6350 -1.3631 -0.0029
33844SOL    HW2 5449   9.978   9.561   8.843  0.1409  0.6090  0.9139
33845SOL     OW 5450   2.942   6.478   8.687  0.7162  0.5484 -0.1363
33845SOL    HW1 5451   3.009   6.489   8.619  0.5907  0.4053 -0.2845
33845SOL    HW2 5452   2.900   6.563   8.693 -1.0173 -0.0781 -2.0863
33846SOL     OW 5453   8.667   5.919   8.368 -0.2872 -0.3069 -0.3002
33846SOL    HW1 5454   8.681   5.981   8.439 -1.8435 -0.3631  0.1074
33846SOL    HW2 5455   8.610   5.966   8.307 -0.3267 -0.8428 -0.6804
33847SOL     OW 5456   0.253   5.038   6.467  0.5203  0.0316  0.2652
33847SOL    HW1 5457   0.291   4.950   6.471 -2.0387 -1.1323  1.6027
33847SOL    HW2 5458   0.222   5.046   6.377  1.4490 -0.0937 -0.0772
33848SOL     OW 5459   2.205   0.793   8.398  0.8402  0.3169 -0.4436
33848SOL    HW1 5460   2.116   0.825   8.409  1.1438  1.2975 -0.7108
33848SOL    HW2 5461   2.238   0.781   8.487  1.0416  1.7462 -0.2940
33849SOL     OW 5462   8.052   1.954   0.314 -0.7128 -0.3975 -0.6474
33849SOL    HW1 5463   8.132   1.988   0.274  0.3474 -0.1243  1.5501
33849SOL    HW2 5464   8.079   1.926   0.402 -3.1295  0.2338  0.3847
33850SOL     OW 5465   8.228   9.776   3.098 -0.1272  0.1245 -0.2103
33850SOL    HW1 5466   8.313   9.734   3.110 -0.5543 -0.5940  0.3786
33850SOL    HW2 5467   8.225   9.798   3.005  2.4302  3.9784  0.4129
33851SOL     OW 5468   7.060   9.067   5.568  0.3847  0.4507 -0.0492
33851SOL    HW1 5469   7.101   8.988   5.532  0.8774  0.6310  0.1222
33851SOL    HW2 5470   6.979   9.076   5.518  1.1291  0.7929 -1.2316
33852SOL     OW 5471   5.977   4.365   4.958 -0.7116 -0.1260 -0.0002
33852SOL    HW1 5472   5.892   4.325   4.977 -1.0051  0.2559 -0.4765
33852SOL    HW2 5473   6.026   4.357   5.039 -2.0313  1.7172  1.0547
33853SOL     OW 5474   8.529   8.448   8.994 -0.1062 -0.5598 -0.5758
33853SOL    HW1 5475   8.496   8.454   8.904 -3.0826 -0.2131  0.4244
33853SOL    HW2 5476   8.497   8.529   9.035  3.2589  0.4853  0.2606
33854SOL     OW 5477   0.491   2.136   4.764  0.4354 -0.0210  0.0748
33854SOL    HW1 5478   0.519   2.055   4.722  1.3263  0.0833  0.4575
33854SOL    HW2 5479   0.397   2.123   4.780  0.5249 -0.8837 -0.0609
33855SOL     OW 5480   4.221   3.198   4.997  0.6189  0.1057  0.1879
33855SOL    HW1 5481   4.139   3.240   4.969 -0.0210  0.1688  2.0306
33855SOL    HW2 5482   4.234   3.127   4.934 -1.5057 -0.6637  0.5503
33856SOL     OW 5483   1.878   3.130   4.477 -0.2227  0.1049 -0.6111
33856SOL    HW1 5484   1.922   3.140   4.392  0.0582  1.7689 -0.3066
33856SOL    HW2 5485   1.930   3.183   4.537 -1.9199  1.0950  0.0408
33857SOL     OW 5486   4.122   9.628   7.346  0.2729 -0.5414  0.2450
33857SOL    HW1 5487   4.084   9.713   7.324 -0.1001 -0.6682  0.3925
33857SOL    HW2 5488   4.101   9.572   7.271  0.9405 -0.3763 -0.0714
33858SOL     OW 5489   0.461   8.982   6.504 -0.4123 -0.1970  0.0051
33858SOL    HW1 5490   0.534   8.997   6.564  0.0644  0.1210 -0.6475
33858SOL    HW2 5491   0.383   8.987   6.560 -0.2017  2.9226  0.2139
33859SOL     OW 5492   6.146   8.381   1.055  0.1920 -0.2239 -0.6537
33859SOL    HW1 5493   6.072   8.338   1.099 -0.2274  0.0851 -1.0416
33859SOL    HW2 5494   6.209   8.397   1.125 -0.7314  0.8438 -0.0275
33860SOL     OW 5495   4.071   6.941   1.271  0.3561  0.0584 -0.3777
33860SOL    HW1 5496   4.070   6.996   1.192  1.5251 -0.0286 -0.4691
33860SOL    HW2 5497   4.155   6.895   1.267 -0.1479 -0.9592  0.2398
33861SOL     OW 5498   5.925   9.360   5.986 -0.0270 -0.2282  0.3800
33861SOL    HW1 5499   5.993   9.422   6.014  1.8025 -1.9176 -0.0890
33861SOL    HW2 5500   5.921   9.370   5.891 -0.8180  0.2199  0.4561
33862SOL     OW 5501   3.557   1.748   7.918  0.3283 -0.1756 -0.4202
33862SOL    HW1 5502   3.550   1.758   8.013  1.8708  1.3461 -0.4210
33862SOL    HW2 5503   3.506   1.669   7.898  1.5030 -1.6269  1.9044
33863SOL     OW 5504   9.046   9.670   5.582 -0.1508  0.7076 -0.0354
33863SOL    HW1 5505   9.017   9.599   5.525 -2.0410  0.9256  0.5623
33863SOL    HW2 5506   9.129   9.641   5.618 -1.6103 -2.0124  1.4736
33864SOL     OW 5507   6.811   4.633   8.883  0.0504  0.4913  0.4507
33864SOL    HW1 5508   6.773   4.610   8.798  0.5044 -0.0565  0.3919
33864SOL    HW2 5509   6.904   4.617   8.873  0.2171  1.2281  0.7923
33865SOL     OW 5510   5.949   5.712   6.474 -0.0080  0.2624 -0.4905
33865SOL    HW1 5511   6.011   5.782   6.495  0.7797 -0.6976  0.5171
33865SOL    HW2 5512   6.002   5.632   6.476 -1.5604 -0.8187  2.2173
33866SOL     OW 5513   0.633   8.390   8.075  0.4122 -0.2663 -0.6524
33866SOL    HW1 5514   0.592   8.401   8.161  0.1909 -0.1046 -0.7799
33866SOL    HW2 5515   0.686   8.311   8.084  2.1067  0.8829  0.3242
33867SOL     OW 5516   0.263  10.109   4.820 -0.0268 -0.2258 -0.1162
33867SOL    HW1 5517   0.187  10.059   4.849 -0.4023  0.4673  0.1029
33867SOL    HW2 5518   0.335  10.075   4.873 -0.3904 -0.1277  0.4556
33868SOL     OW 5519   6.617   9.658   0.167 -0.3363  0.9637  0.3431
33868SOL    HW1 5520   6.681   9.621   0.228  0.7522  1.8242 -0.2416
33868SOL    HW2 5521   6.544   9.685   0.223 -0.3340 -0.2985  0.9862
33869SOL     OW 5522   3.133   8.165   3.531 -0.3114  0.2319  0.4736
33869SOL    HW1 5523   3.205   8.177   3.470 -0.4067 -1.8047 -0.1116
33869SOL    HW2 5524   3.172   8.124   3.608 -0.6792  0.0735  0.5803
33870SOL     OW 5525   6.223   7.262   3.097  0.2022  0.2045 -0.0703
33870SOL    HW1 5526   6.257   7.288   3.183  0.3656 -0.7042  0.1450
33870SOL    HW2 5527   6.153   7.326   3.080  0.9301  1.1053  0.2026
33871SOL     OW 5528  10.030   4.723   0.219 -0.0095 -0.5781  0.2849
33871SOL    HW1 5529  10.014   4.712   0.125  1.3705 -0.9303  0.0746
33871SOL    HW2 5530  10.018   4.635   0.256 -2.2403 -0.1402  0.7455
33872SOL     OW 5531   9.504   4.083   0.465  0.3375 -0.4236  0.4320
33872SOL    HW1 5532   9.490   4.124   0.550 -0.5703 -3.2017  1.7283
33872SOL    HW2 5533   9.429   4.111   0.412  0.6826  0.9809  0.6413
33873SOL     OW 5534   4.232   0.555   7.447  0.0692 -0.4817  0.0472
33873SOL    HW1 5535   4.316   0.597   7.426 -0.1327 -0.0408  0.0997
33873SOL    HW2 5536   4.195   0.533   7.361 -0.3906  0.5961 -0.0540
33874SOL     OW 5537   3.717   5.258   5.822  0.3297  0.0869  0.0691
33874SOL    HW1 5538   3.766   5.285   5.744  0.1742  0.8482  0.2323
33874SOL    HW2 5539   3.776   5.198   5.867  0.0388 -1.1800 -1.1509
33875SOL     OW 5540   9.849   6.355   7.958  0.8008  0.2028  0.2215
33875SOL    HW1 5541   9.832   6.313   7.874  2.3373 -3.5568  1.5965
33875SOL    HW2 5542   9.778   6.324   8.015  2.1901 -0.9431  1.3820
33876SOL     OW 5543   5.810   0.058   1.577 -0.6610 -0.0767 -0.3193
33876SOL    HW1 5544   5.717   0.047   1.594 -0.6418  0.1808 -0.0288
33876SOL    HW2 5545   5.818   0.146   1.541 -0.6020 -0.3230 -0.9197
33877SOL     OW 5546   0.246   5.070   2.228 -0.1710  1.0469 -0.7180
33877SOL    HW1 5547   0.313   5.132   2.255  0.5188  0.9880 -2.1749
33877SOL    HW2 5548   0.278   4.985   2.257 -1.7901  1.3851  2.5726
33878SOL     OW 5549   4.970   2.692   7.646 -0.2620 -0.4078 -0.3578
33878SOL    HW1 5550   5.048   2.678   7.593  0.2192 -2.2226  0.7116
33878SOL    HW2 5551   4.986   2.775   7.691  1.7183 -1.3538  0.8380
33879SOL     OW 5552   4.232   4.640   3.549  0.1913 -0.2562 -0.1920
33879SOL    HW1 5553   4.221   4.640   3.454  1.8352 -0.2856 -0.4161
33879SOL    HW2 5554   4.325   4.622   3.562  0.1897  0.6876  1.4003
33880SOL     OW 5555   0.674   5.407   4.822 -0.3273 -0.5067 -0.5174
33880SOL    HW1 5556   0.767   5.407   4.804 -0.2252  0.6541 -0.0688
33880SOL    HW2 5557   0.645   5.496   4.804 -0.5402  0.3465  3.1281
33881SOL     OW 5558   9.232   6.460   1.818  0.3091 -0.0156  0.5488
33881SOL    HW1 5559   9.217   6.548   1.853 -0.7733  0.4220 -0.8847
33881SOL    HW2 5560   9.175   6.403   1.870 -1.3221  0.6306 -0.4485
33882SOL     OW 5561   5.268   9.308   4.009  0.1147 -0.6208  0.2702
33882SOL    HW1 5562   5.263   9.401   4.027  0.7855 -0.7035  0.9472
33882SOL    HW2 5563   5.265   9.267   4.095  1.6624 -1.1269  0.1104
33883SOL     OW 5564   7.140   0.121   4.911 -0.5787 -0.1106 -0.4000
33883SOL    HW1 5565   7.046   0.129   4.929 -0.4402  0.8804 -0.0505
33883SOL    HW2 5566   7.168   0.210   4.890  0.3763 -0.3156 -0.0332
33884SOL     OW 5567   1.980   5.545   0.295 -0.6298  0.5747 -0.1959
33884SOL    HW1 5568   2.010   5.546   0.386  0.0786 -0.8041 -0.4009
33884SOL    HW2 5569   2.032   5.477   0.252 -0.4909  1.6263 -1.8002
33885SOL     OW 5570   7.439   7.627   6.914 -0.5080 -0.0407  0.4111
33885SOL    HW1 5571   7.464   7.550   6.965 -1.5308  1.1798  2.9201
33885SOL    HW2 5572   7.351   7.607   6.882 -0.8277  0.1043  1.1754
33886SOL     OW 5573   1.177   2.164   5.972  0.1035 -0.5933 -0.1095
33886SOL    HW1 5574   1.236   2.143   6.044  2.3655  0.9561 -1.3986
33886SOL    HW2 5575   1.138   2.080   5.948  0.0171 -1.2863  2.2577
33887SOL     OW 5576   8.945   9.795   3.181 -0.3198  0.1079  0.4850
33887SOL    HW1 5577   8.860   9.833   3.203 -0.3238  0.3169  0.1224
33887SOL    HW2 5578   8.939   9.704   3.208  0.2945  0.7272  3.0431
33888SOL     OW 5579   5.447   5.572   7.905 -0.2547  0.5725  0.0458
33888SOL    HW1 5580   5.423   5.532   7.988 -0.9561  0.2261 -0.3157
33888SOL    HW2 5581   5.543   5.579   7.908 -0.1270 -0.9290  0.2191
33889SOL     OW 5582   5.966   5.101   8.227  1.1242  0.3435  0.0508
33889SOL    HW1 5583   5.913   5.092   8.307 -0.7299 -0.2696 -1.1765
33889SOL    HW2 5584   5.903   5.092   8.156  2.9445 -0.5797 -1.5242
33890SOL     OW 5585   7.509   7.616   1.540  0.7467  0.7598  0.5589
33890SOL    HW1 5586   7.592   7.655   1.568  0.7404  0.6639  0.7117
33890SOL    HW2 5587   7.442   7.673   1.578  0.7392  1.7336 -0.8218
33891SOL     OW 5588   6.434   7.856   6.984  0.0812 -0.7167  0.7539
33891SOL    HW1 5589   6.345   7.853   7.018 -1.1826 -0.0985 -2.2373
33891SOL    HW2 5590   6.456   7.765   6.966 -1.4245 -0.6512 -1.8313
33892SOL     OW 5591   2.702   4.944   1.968  0.1478  0.2123  0.1824
33892SOL    HW1 5592   2.711   4.943   1.872  3.1358 -0.7947  0.4002
33892SOL    HW2 5593   2.766   5.009   1.997 -0.5105  0.2729  1.5530
33893SOL     OW 5594   7.458   7.053   2.714  0.5523 -0.3448  0.2345
33893SOL    HW1 5595   7.541   7.029   2.755 -0.0518 -1.0621  1.0974
33893SOL    HW2 5596   7.399   7.070   2.788 -0.9279 -2.9064 -0.2102
33894SOL     OW 5597   3.359   8.011   3.618 -0.4078 -0.0208  0.5380
33894SOL    HW1 5598   3.335   7.919   3.605  1.5033 -0.5824  0.7395
33894SOL    HW2 5599   3.410   8.033   3.540 -0.5205  0.7561  0.6818
33895SOL     OW 5600   4.894   5.649   8.062 -0.0756  0.0099  0.1653
33895SOL    HW1 5601   4.866   5.643   7.970  0.2939 -0.7948  0.0967
33895SOL    HW2 5602   4.967   5.711   8.061 -1.0677  1.2299  0.1697
33896SOL     OW 5603   8.195   6.455   1.475  0.2601  0.2049 -0.5695
33896SOL    HW1 5604   8.264   6.395   1.504 -0.5542 -0.8099 -0.6647
33896SOL    HW2 5605   8.168   6.501   1.555  1.1574  0.7488 -0.5641
33897SOL     OW 5606   1.511   0.394   0.202 -0.2876 -0.1706  0.2070
33897SOL    HW1 5607   1.504   0.477   0.250  2.5694  0.9845 -1.1158
33897SOL    HW2 5608   1.566   0.338   0.256  1.6511  0.5763 -0.8803
33898SOL     OW 5609   1.983   0.205   0.607  0.1613 -0.0688  0.5057
33898SOL    HW1 5610   2.055   0.265   0.629  1.0084 -0.3926 -1.2473
33898SOL    HW2 5611   1.948   0.178   0.692  1.3010  1.0574  1.3734
33899SOL     OW 5612   6.243   1.237   3.208  0.3338 -0.5614  0.7298
33899SOL    HW1 5613   6.336   1.220   3.224  0.4585  1.0855  2.0921
33899SOL    HW2 5614   6.241   1.316   3.155 -0.2929 -0.0804  1.4496
33900SOL     OW 5615   6.408   1.364   9.001  0.1020  0.4787  0.1594
33900SOL    HW1 5616   6.334   1.421   8.980 -0.0163  0.2579 -0.0251
33900SOL    HW2 5617   6.424   1.314   8.921  0.4657  0.5384  0.1912
33901SOL     OW 5618   2.162   8.427   7.712  0.1487 -0.6654 -0.2478
33901SOL    HW1 5619   2.245   8.386   7.737  0.1299 -0.2394  0.5256
33901SOL    HW2 5620   2.178   8.458   7.622  1.7157  1.6135  0.7059
33902SOL     OW 5621  10.110   7.441   3.496 -0.1491  0.0695 -0.2681
33902SOL    HW1 5622  10.109   7.518   3.438 -1.6461  0.5099  0.2902
33902SOL    HW2 5623  10.046   7.381   3.457 -0.2760 -0.1443  0.2669
33903SOL     OW 5624   0.600   2.778   6.695  0.0937  0.0842  0.2906
33903SOL    HW1 5625   0.566   2.695   6.730  1.4940 -0.5589  0.1696
33903SOL    HW2 5626   0.676   2.798   6.750  0.9132  0.2907 -0.8782
33904SOL     OW 5627   2.077   1.887   7.689  0.7194 -0.0817 -0.2606
33904SOL    HW1 5628   2.045   1.912   7.776  0.5086  0.4540 -0.4851
33904SOL    HW2 5629   2.114   1.968   7.653  1.8306 -0.5526 -0.2314
33905SOL     OW 5630   6.895   1.243   1.665 -0.3358 -0.4157  0.5585
33905SOL    HW1 5631   6.824   1.290   1.708 -0.5120 -0.0515 -0.1130
33905SOL    HW2 5632   6.935   1.308   1.607 -0.7790 -1.1593 -0.6139
33906SOL     OW 5633   5.629   2.553   2.022 -0.4776 -0.3158 -0.9241
33906SOL    HW1 5634   5.647   2.633   1.974 -1.4285 -0.6454 -1.8957
33906SOL    HW2 5635   5.679   2.561   2.103  2.4767 -0.4216 -2.5902
33907SOL     OW 5636   6.367   1.622   1.981 -0.1197  0.2493 -0.1669
33907SOL    HW1 5637   6.448   1.672   1.971 -0.4936  1.1157  0.9538
33907SOL    HW2 5638   6.374   1.551   1.917  1.3547  0.5233 -0.3314
33908SOL     OW 5639   9.401   3.749   3.150 -0.3237 -0.1705 -0.3151
33908SOL    HW1 5640   9.446   3.665   3.144  1.5972  0.6715  1.1759
33908SOL    HW2 5641   9.392   3.779   3.059  0.2762 -1.3214 -0.7654
33909SOL     OW 5642   8.218   4.523   5.827  0.5423  0.1670 -0.3952
33909SOL    HW1 5643   8.146   4.474   5.868  1.2262  0.0154  0.6556
33909SOL    HW2 5644   8.267   4.559   5.900 -0.2536  2.9564 -1.1256
33910SOL     OW 5645   5.865   4.128   0.595  0.4247 -0.8303 -0.2669
33910SOL    HW1 5646   5.807   4.088   0.660 -0.2260  1.6602  0.8128
33910SOL    HW2 5647   5.921   4.187   0.647  1.3982 -0.4202 -1.7266
33911SOL     OW 5648   3.876   5.639   9.401  0.3036 -0.6157 -0.1749
33911SOL    HW1 5649   3.835   5.645   9.315  0.6438  0.1198 -0.2946
33911SOL    HW2 5650   3.968   5.625   9.383  0.3507 -0.6352  0.0729
33912SOL     OW 5651   5.314   5.763   0.487 -0.5912  0.0184  0.5667
33912SOL    HW1 5652   5.248   5.730   0.547 -1.8389 -0.0810 -0.8034
33912SOL    HW2 5653   5.266   5.823   0.429  0.4739 -0.2211 -0.6001
33913SOL     OW 5654   1.015   2.752   4.555 -0.3106  0.2226  0.8598
33913SOL    HW1 5655   0.931   2.707   4.562 -0.7364  0.4302 -1.8188
33913SOL    HW2 5656   1.067   2.696   4.497  1.0696  0.6182  1.6586
33914SOL     OW 5657   9.054   4.833   4.304 -0.3179 -0.0818 -0.2009
33914SOL    HW1 5658   8.995   4.761   4.281 -1.0838  0.9306 -1.5681
33914SOL    HW2 5659   8.998   4.896   4.350  0.3305 -0.3081  0.9318
33915SOL     OW 5660   9.257   8.966   6.305 -0.0499 -0.1763 -0.2616
33915SOL    HW1 5661   9.255   9.062   6.301 -1.1440 -0.1995 -0.6251
33915SOL    HW2 5662   9.345   8.943   6.275 -0.2773  0.6612 -1.6850
33916SOL     OW 5663   6.334   8.869   7.172  0.1319  0.3613 -0.2450
33916SOL    HW1 5664   6.297   8.808   7.108 -0.1070 -0.1833  0.3990
33916SOL    HW2 5665   6.382   8.813   7.233 -1.1966  0.6678  1.1305
33917SOL     OW 5666   3.242   8.969   7.007 -0.2427 -0.1547  0.3198
33917SOL    HW1 5667   3.283   9.050   6.974  0.7937 -1.3409 -1.4798
33917SOL    HW2 5668   3.153   8.995   7.028 -0.4789  1.1200 -1.9229
33918SOL     OW 5669   6.465   2.145   1.234 -0.2544  0.3485 -0.2651
33918SOL    HW1 5670   6.492   2.058   1.261  0.1841  0.8123  0.8526
33918SOL    HW2 5671   6.547   2.193   1.221 -0.3905 -0.0173 -3.1811
33919SOL     OW 5672   5.007   0.715   8.059  0.3988 -0.3469 -0.0987
33919SOL    HW1 5673   5.011   0.810   8.052 -1.4952 -0.1721  0.5799
33919SOL    HW2 5674   5.054   0.683   7.982  0.0115  1.1608 -1.0073
33920SOL     OW 5675   3.336   4.599   3.163 -0.0087  0.6752 -0.1225
33920SOL    HW1 5676   3.241   4.590   3.151  0.0774 -0.3383 -0.1896
33920SOL    HW2 5677   3.347   4.683   3.207 -1.0331  0.3260  0.8704
33921SOL     OW 5678   5.548   8.375   9.921 -0.3072  0.0973 -0.0524
33921SOL    HW1 5679   5.619   8.369   9.985 -0.9504  0.6147  0.7317
33921SOL    HW2 5680   5.590   8.408   9.842  0.8448 -2.2210 -0.4941
33922SOL     OW 5681   3.919   9.356   9.013 -0.3393  0.2307  0.7401
33922SOL    HW1 5682   3.964   9.431   8.974  0.3253 -0.7177 -0.3661
33922SOL    HW2 5683   3.951   9.353   9.103  0.2703  0.7754  0.5467
33923SOL     OW 5684   8.335   3.355   4.530  0.3396  0.0867 -0.4482
33923SOL    HW1 5685   8.277   3.416   4.484  1.9110  1.5581 -0.5933
33923SOL    HW2 5686   8.386   3.314   4.460  1.9564  1.5040 -0.1738
33924SOL     OW 5687   6.880   7.884   3.427 -0.1253  0.0375 -0.0872
33924SOL    HW1 5688   6.950   7.944   3.454  0.4317 -0.6240 -0.0629
33924SOL    HW2 5689   6.895   7.870   3.334 -0.7214  0.5458 -0.2652
33925SOL     OW 5690   9.454   3.615   1.891  0.1513  0.0709 -0.1808
33925SOL    HW1 5691   9.543   3.605   1.924  0.3153  1.1205 -0.2893
33925SOL    HW2 5692   9.426   3.701   1.921 -1.2920 -0.7322  0.9178
33926SOL     OW 5693   4.453   7.222   5.309  0.1103 -0.0187  0.5372
33926SOL    HW1 5694   4.399   7.244   5.385  0.4879  1.0576  0.5111
33926SOL    HW2 5695   4.543   7.229   5.341  0.3064  1.4622 -0.2408
33927SOL     OW 5696   9.256   6.033   4.606  0.3470 -0.1408  0.5385
33927SOL    HW1 5697   9.238   6.027   4.512 -0.1841  1.3806  0.5063
33927SOL    HW2 5698   9.256   6.128   4.624  1.2516 -0.3710  1.9151
33928SOL     OW 5699   8.689   4.931   2.032  0.3113 -0.8583 -0.3432
33928SOL    HW1 5700   8.717   4.993   2.100  0.6017  0.0642 -1.2844
33928SOL    HW2 5701   8.594   4.925   2.043  0.5053 -1.8972  1.1068
33929SOL     OW 5702   0.288   5.571   0.522  0.1844  0.2694  0.3920
33929SOL    HW1 5703   0.277   5.642   0.586 -0.2604  0.4557  0.1167
33929SOL    HW2 5704   0.252   5.494   0.566  0.3653  0.2827  0.5667
33930SOL     OW 5705   0.961   2.393   1.237 -0.3378  0.7778 -0.3438
33930SOL    HW1 5706   0.875   2.378   1.275 -0.0890  1.0700  0.3546
33930SOL    HW2 5707   0.972   2.324   1.172 -0.9710  0.5582 -0.2177
33931SOL     OW 5708   9.723   6.601   9.026 -0.3027  0.0710 -0.2743
33931SOL    HW1 5709   9.641   6.553   9.017 -0.0440 -0.4590  0.1383
33931SOL    HW2 5710   9.778   6.569   8.954  0.2770 -1.1163  0.6529
33932SOL     OW 5711   2.474   0.331   0.173  0.1043 -0.0506 -0.5441
33932SOL    HW1 5712   2.444   0.416   0.206  0.2543  0.3719 -1.4630
33932SOL    HW2 5713   2.398   0.274   0.182  0.2247 -0.0363  0.7876
33933SOL     OW 5714   9.229   5.187   7.280  0.0343  0.0269 -0.2873
33933SOL    HW1 5715   9.163   5.165   7.214 -0.1603 -0.0817 -0.0582
33933SOL    HW2 5716   9.184   5.245   7.341 -0.1604 -0.8751  0.4476
33934SOL     OW 5717   2.925   1.782   8.872 -0.7159 -0.4595 -0.2167
33934SOL    HW1 5718   2.865   1.856   8.879 -0.9431 -0.7754  1.9834
33934SOL    HW2 5719   2.995   1.801   8.934 -0.2165 -1.5852 -0.3950
33935SOL     OW 5720   3.638   6.889   2.058 -0.0885  0.4379  0.1681
33935SOL    HW1 5721   3.592   6.947   1.997 -0.3112  1.1255  0.9861
33935SOL    HW2 5722   3.670   6.818   2.002 -1.5935  0.2598 -0.5346
33936SOL     OW 5723   9.739   1.951   8.021 -0.5558  0.1226  0.3235
33936SOL    HW1 5724   9.739   1.861   7.989 -0.3198 -0.0516  0.8098
33936SOL    HW2 5725   9.825   1.985   7.996 -0.8341  0.3899 -0.3225
33937SOL     OW 5726   6.177   5.230   8.366 -0.0821  0.3170 -0.1996
33937SOL    HW1 5727   6.207   5.156   8.418  0.0215  0.2626 -0.3373
33937SOL    HW2 5728   6.099   5.197   8.320  1.0869 -0.3335 -1.8003
33938SOL     OW 5729   7.056   8.616   8.081  0.4250 -0.7549 -0.1128
33938SOL    HW1 5730   7.058   8.520   8.072  0.7246 -0.7221 -0.4127
33938SOL    HW2 5731   6.968   8.635   8.114  0.4284 -1.1484  0.1291
33939SOL     OW 5732   7.934   6.265   1.506 -0.0241  0.1680 -0.2085
33939SOL    HW1 5733   7.891   6.236   1.587 -1.0996 -0.7898 -1.0867
33939SOL    HW2 5734   7.940   6.360   1.515 -0.4685  0.1128  0.8337
33940SOL     OW 5735   9.637   8.962   0.547  0.3380  0.0782 -0.0948
33940SOL    HW1 5736   9.610   9.028   0.610 -1.7676 -0.1562 -0.6853
33940SOL    HW2 5737   9.594   8.881   0.576 -1.3524  0.1433 -2.2150
33941SOL     OW 5738   2.713   9.081   1.416  0.0850 -0.1893 -0.5482
33941SOL    HW1 5739   2.681   8.996   1.386 -0.0281 -0.0436 -0.8470
33941SOL    HW2 5740   2.745   9.065   1.505 -2.1723 -0.0627  0.3776
33942SOL     OW 5741   4.790   8.627   4.513  0.5257  0.4626  0.1903
33942SOL    HW1 5742   4.854   8.656   4.579 -0.4431 -0.1248  1.4290
33942SOL    HW2 5743   4.761   8.542   4.545 -1.2404  0.9364 -0.0731
33943SOL     OW 5744   7.063   1.077   4.319 -0.0100  0.0418 -0.3031
33943SOL    HW1 5745   7.115   1.018   4.264 -0.0672 -0.8243  0.5488
33943SOL    HW2 5746   7.125   1.110   4.384  0.0526  1.0501 -0.8469
33944SOL     OW 5747   4.090   3.839   4.070  0.3498  0.4066  0.2576
33944SOL    HW1 5748   4.090   3.900   4.144 -0.0134  1.9257 -0.9270
33944SOL    HW2 5749   4.039   3.884   4.002  3.4602  0.7254 -2.1493
33945SOL     OW 5750   5.400   0.192   1.513  0.1155 -0.2658 -0.2755
33945SOL    HW1 5751   5.338   0.200   1.585 -0.3702  1.1838 -0.8066
33945SOL    HW2 5752   5.387   0.104   1.478 -0.9025 -0.3400  0.2810
33946SOL     OW 5753   8.206   0.661   1.562  0.1883  0.1381  0.0123
33946SOL    HW1 5754   8.272   0.681   1.628 -0.8416  0.7521  0.8846
33946SOL    HW2 5755   8.201   0.741   1.509  0.8121 -0.2505 -0.6358
33947SOL     OW 5756   4.295   0.021   5.939 -0.1958 -0.5439  0.0981
33947SOL    HW1 5757   4.354  -0.022   5.877  0.7122  0.3283  0.3312
33947SOL    HW2 5758   4.297  -0.036   6.016 -0.4554 -1.0441 -0.2548
33948SOL     OW 5759   4.492   2.087   7.438 -0.6247 -0.1051  0.1706
33948SOL    HW1 5760   4.478   2.138   7.518 -0.8415 -0.3785  0.3101
33948SOL    HW2 5761   4.495   2.152   7.368  0.3412  0.2161  0.4846
33949SOL     OW 5762   1.980   8.350   7.886  0.0351 -0.2314 -0.3549
33949SOL    HW1 5763   2.040   8.350   7.812  0.3435  2.7146 -0.2342
33949SOL    HW2 5764   1.968   8.443   7.907 -3.3298 -0.7634  0.6579
33950SOL     OW 5765   4.100   8.902   1.030 -0.5967  0.8013 -0.4507
33950SOL    HW1 5766   4.141   8.881   0.945  1.6549  2.9566 -0.0170
33950SOL    HW2 5767   4.171   8.941   1.081 -1.9309 -0.2560  2.4179
33951SOL     OW 5768   3.830   2.679   5.880 -0.1248 -0.5778 -0.4584
33951SOL    HW1 5769   3.855   2.765   5.845  0.0093  0.3271  1.6871
33951SOL    HW2 5770   3.889   2.617   5.836  0.2226  0.4927 -1.5707
33952SOL     OW 5771   4.524   4.115   8.440 -0.6663  0.7408 -0.0933
33952SOL    HW1 5772   4.438   4.095   8.477  0.1474 -1.0935  0.9692
33952SOL    HW2 5773   4.511   4.114   8.346 -1.5242 -1.2109 -0.0110
33953SOL     OW 5774   2.927   4.412   9.878 -0.6322  0.2383 -0.0360
33953SOL    HW1 5775   2.931   4.434   9.971 -0.5075  2.1240 -0.4415
33953SOL    HW2 5776   2.863   4.341   9.873 -1.7677  1.1040  1.3344
33954SOL     OW 5777   0.458   0.744   0.184 -0.2447  0.0380 -0.3069
33954SOL    HW1 5778   0.433   0.717   0.272 -0.1678  0.2478 -0.2188
33954SOL    HW2 5779   0.443   0.839   0.183  0.2125  0.1126 -0.3632
33955SOL     OW 5780   6.136   4.763   6.748 -0.0625  0.1448  0.8759
33955SOL    HW1 5781   6.151   4.757   6.842  1.9626 -0.6964  0.5503
33955SOL    HW2 5782   6.048   4.727   6.736 -0.2225 -0.0562  2.4048
33956SOL     OW 5783   1.134   8.172   3.538 -0.0111 -0.4172 -0.6932
33956SOL    HW1 5784   1.141   8.077   3.527  0.4646 -0.3249 -1.2530
33956SOL    HW2 5785   1.042   8.187   3.557 -0.3044 -0.9021 -1.6507
33957SOL     OW 5786   1.341   7.714   1.584  0.3554  0.1531  0.2682
33957SOL    HW1 5787   1.426   7.675   1.604  0.4530  0.9658  1.6063
33957SOL    HW2 5788   1.288   7.694   1.661 -0.2119  0.8796  0.0739
33958SOL     OW 5789   7.969   9.803   6.064 -0.1583  0.3157 -0.0221
33958SOL    HW1 5790   7.977   9.708   6.053  1.6443  0.4938 -0.6256
33958SOL    HW2 5791   8.009   9.839   5.985  0.9674  1.5928  1.0832
33959SOL     OW 5792   7.945  10.159   3.631  0.0668 -0.1880 -0.0751
33959SOL    HW1 5793   7.987  10.160   3.545 -0.6880 -0.3863 -0.4520
33959SOL    HW2 5794   7.915  10.249   3.644 -0.3197 -0.2840 -0.2764
33960SOL     OW 5795   9.631   8.350   7.545  0.3527  0.5922 -0.1180
33960SOL    HW1 5796   9.695   8.306   7.490  1.4161 -1.4064  2.4588
33960SOL    HW2 5797   9.547   8.332   7.504  1.0712 -1.0905 -0.9245
33961SOL     OW 5798   9.262   2.690   9.659  0.2275 -0.3189 -0.1331
33961SOL    HW1 5799   9.276   2.779   9.625  0.0835 -0.3319 -0.2260
33961SOL    HW2 5800   9.177   2.695   9.705 -0.7927 -0.9113 -1.8602
33962SOL     OW 5801   7.624   6.657   2.383 -0.1008  0.5355  0.4943
33962SOL    HW1 5802   7.703   6.625   2.339  0.8367 -0.1679  2.5596
33962SOL    HW2 5803   7.647   6.746   2.410 -0.9859  1.2884 -1.1046
33963SOL     OW 5804   0.567   6.974   2.938 -0.5957  0.2812 -0.0386
33963SOL    HW1 5805   0.555   6.882   2.964  0.1245  0.1876  0.0050
33963SOL    HW2 5806   0.503   6.988   2.868 -0.6501 -0.2856 -0.1069
33964SOL     OW 5807   4.378   3.154   6.413 -0.5772  0.3572  0.5900
33964SOL    HW1 5808   4.337   3.170   6.328 -0.8151  0.6101  0.7538
33964SOL    HW2 5809   4.361   3.061   6.430 -1.2021  0.4895  0.7178
33965SOL     OW 5810   4.599   5.740   7.452  0.1295  0.3355 -0.1198
33965SOL    HW1 5811   4.511   5.779   7.461 -0.1860 -0.2425 -0.6568
33965SOL    HW2 5812   4.594   5.689   7.371  0.5274 -0.8571  0.5887
33966SOL     OW 5813   8.023  10.062   7.972  0.3122 -0.5630 -0.2421
33966SOL    HW1 5814   8.105  10.024   8.002 -0.3618 -1.8947 -0.0104
33966SOL    HW2 5815   7.955  10.017   8.023 -0.4800  2.0442  1.1496
33967SOL     OW 5816   8.462   3.108   9.602  0.6378  0.5971 -0.3919
33967SOL    HW1 5817   8.541   3.155   9.574  0.5747  0.5937 -0.5733
33967SOL    HW2 5818   8.396   3.131   9.536  0.3781  0.9149 -0.0264
33968SOL     OW 5819   4.118   3.082   2.333 -0.6681  0.2171 -0.1669
33968SOL    HW1 5820   4.047   3.144   2.316  0.1721  1.5198  0.8674
33968SOL    HW2 5821   4.172   3.125   2.400 -1.0082 -2.4086  1.9097
33969SOL     OW 5822   5.305   1.591   8.017 -0.3799  0.0615  0.0576
33969SOL    HW1 5823   5.294   1.552   7.931 -0.5256  0.4415 -0.0995
33969SOL    HW2 5824   5.239   1.660   8.021 -0.5230 -0.0964  0.5588
33970SOL     OW 5825   2.589   9.220   4.805  0.2440 -0.4910  0.3635
33970SOL    HW1 5826   2.641   9.299   4.791  0.7023 -0.9050 -0.3287
33970SOL    HW2 5827   2.563   9.225   4.897 -1.6202  1.5787 -0.2085
33971SOL     OW 5828   7.438   5.882   7.067  0.2670 -0.8298 -0.4985
33971SOL    HW1 5829   7.431   5.872   7.162 -0.4588 -2.9690 -0.7251
33971SOL    HW2 5830   7.531   5.867   7.048  0.8429  1.6840  0.0196
33972SOL     OW 5831   2.863   0.118   5.346  0.3423 -0.3973 -0.2719
33972SOL    HW1 5832   2.807   0.137   5.270 -1.2586  1.8238  1.3105
33972SOL    HW2 5833   2.822   0.041   5.387  0.1102 -0.4838 -0.6578
33973SOL     OW 5834   4.333   1.159   9.014 -0.0178 -0.4097 -0.3226
33973SOL    HW1 5835   4.369   1.076   9.046 -1.2421 -1.0307 -0.5311
33973SOL    HW2 5836   4.260   1.134   8.958 -0.1436  0.8022 -0.7233
33974SOL     OW 5837   9.742   8.800   0.813 -0.3665  0.1241  1.0685
33974SOL    HW1 5838   9.662   8.770   0.769 -0.3071  1.3354  0.0728
33974SOL    HW2 5839   9.813   8.751   0.771 -0.4200  0.3930  0.6622
33975SOL     OW 5840   0.567   6.673   0.971 -0.3115 -0.0744 -0.0152
33975SOL    HW1 5841   0.543   6.695   0.881  1.3935 -0.9810 -0.7233
33975SOL    HW2 5842   0.620   6.748   1.001  1.7135 -1.0918 -0.8774
33976SOL     OW 5843   8.424   4.810   1.815  0.4458 -0.0416 -0.6275
33976SOL    HW1 5844   8.428   4.715   1.812 -0.5460 -0.1122 -0.0149
33976SOL    HW2 5845   8.404   4.831   1.906  0.8150  0.7658 -0.7200
33977SOL     OW 5846   6.665   2.171   2.087  0.2175  0.0314 -0.3388
33977SOL    HW1 5847   6.687   2.180   1.994  0.4116 -0.0607 -0.3020
33977SOL    HW2 5848   6.574   2.198   2.093 -0.0070 -0.6386 -0.6741
33978SOL     OW 5849   4.792   6.824   2.171  0.1120 -0.3320  0.3494
33978SOL    HW1 5850   4.730   6.794   2.238  0.4539 -0.8032  0.4629
33978SOL    HW2 5851   4.838   6.897   2.212 -1.3011  0.9326 -0.2260
33979SOL     OW 5852   1.880   1.150   4.537  0.0124  0.3891 -0.2476
33979SOL    HW1 5853   1.914   1.158   4.448  1.4021 -0.0144  0.2172
33979SOL    HW2 5854   1.825   1.072   4.535 -1.5738  1.4658 -1.1920
33980SOL     OW 5855   9.538  10.129   5.364  0.2151  0.3808  0.5078
33980SOL    HW1 5856   9.549  10.224   5.361  0.3447  0.3745  0.7527
33980SOL    HW2 5857   9.607  10.095   5.307  3.1342  0.2243  3.8049
33981SOL     OW 5858   1.163   1.763   4.963  0.5609  0.1352 -0.2477
33981SOL    HW1 5859   1.085   1.708   4.957 -1.0024  1.8666  2.0631
33981SOL    HW2 5860   1.167   1.809   4.879 -1.1801  0.2949 -0.2817
33982SOL     OW 5861   5.821   4.229   0.339  0.3596  0.4210  0.2541
33982SOL    HW1 5862   5.864   4.155   0.297 -1.7176 -0.6017 -0.1678
33982SOL    HW2 5863   5.839   4.217   0.432  0.8632 -0.0464  0.1008
33983NA      NA 5864   5.511   3.840   1.750  0.4764 -0.2567  0.3190
33984NA      NA 5865   5.390   1.390  10.080 -0.3451  0.0616  0.1752
33985NA      NA 5866   6.222   4.690   8.129  0.1410 -0.4385  0.0423
33986NA      NA 5867   5.259  10.017   0.465  0.3729  0.1432  0.7307
33987NA      NA 5868   6.989   3.359   6.051  0.4286 -0.5250  0.4092
33988NA      NA 5869   2.161   7.575   8.624  0.0954 -0.3757  0.1922
33989NA      NA 5870   6.913   4.555   1.742 -0.1320  0.2042 -0.2333
33990NA      NA 5871   6.585   4.998   7.747  0.7486 -0.5079 -0.1648
33991NA      NA 5872   0.474   9.707   5.699  0.3233 -0.1008 -0.3036
33992NA      NA 5873   8.428   7.391   8.254 -0.1255 -0.2024 -0.2280
33993NA      NA 5874   2.550   8.446   8.935  0.1222 -0.5578 -0.1519
33994NA      NA 5875   5.004   2.302   7.416  0.0262 -0.2107  0.6343
33995NA      NA 5876   2.489   1.644   4.461 -0.3303 -0.1102  0.0171
33996NA      NA 5877   9.784   7.241   4.484 -0.4093  0.2017 -0.2108
33997NA      NA 5878   2.619   6.433   0.321  0.1963  0.1062  0.3089
33998NA      NA 5879  10.052   4.215   2.442 -0.1928 -0.0992 -0.0919
33999NA      NA 5880   4.604   2.046   0.503 -0.5178  0.1691 -0.1404
34000NA      NA 5881   7.690   6.294   2.837  0.2016 -0.4463 -0.2399
34001NA      NA 5882   9.722   5.280   2.697  0.5273 -0.2195 -0.2048
34002NA      NA 5883   3.063   0.600   7.822  0.3673  0.0798 -0.0194
34003NA      NA 5884   3.064   2.100   3.858  0.0709  0.4472  0.0412
34004NA      NA 5885   9.368  10.001   5.411  0.7304 -0.0422  0.2731
34005NA      NA 5886   0.491   8.309  10.068 -0.1912  0.5451 -0.5975
34006NA      NA 5887   9.691   8.021   7.774 -0.5388  0.2623  0.1745
34007NA      NA 5888   5.140   8.988   3.567 -0.4490 -0.2503 -0.1350
34008NA      NA 5889   3.810   8.915   3.871  0.2593  0.0132  0.1873
34009NA      NA 5890   2.611   0.548   7.673  0.4023 -0.4004  0.6989
34010NA      NA 5891   9.025  10.205   3.145  0.0177 -0.0628  0.2118
34011NA      NA 5892   9.611   7.870   0.091  0.1198  0.1670  0.1183
34012NA      NA 5893   6.357   1.569   9.724  0.4470 -0.0330  0.3981
34013NA      NA 5894   8.459   6.741   2.952  0.4231  0.2389  0.1349
34014NA      NA 5895   8.534   7.164   6.172  0.2821 -0.3038  0.1723
34015NA      NA 5896   0.971   7.975   8.462  0.2268  0.5716 -0.0968
34016NA      NA 5897   0.470   8.791   2.634  0.0670 -0.1878  0.7602
34017NA      NA 5898   6.397  10.095   1.641  0.0617  0.4469 -0.0287
34018NA      NA 5899   5.202   5.489   9.797  0.0814 -0.1640 -0.0055
34019NA      NA 5900   5.323   4.723   2.849 -0.3132  0.2036  0.2191
34020NA      NA 5901   0.445   0.551   7.226 -0.2063  0.3677 -0.4358
34021NA      NA 5902   0.826   5.427   0.714  0.1851 -0.1330 -0.3125
34022NA      NA 5903   3.757   9.239   0.401 -0.3620  0.0152 -0.5836
34023NA      NA 5904   6.494   2.846   5.596  0.1359  0.3518  0.6487
34024NA      NA 5905   5.813   1.868   2.470 -0.2323  0.2998  0.2070
34025NA      NA 5906   5.114   1.448   2.053 -0.1453 -0.1512 -0.1948
34026NA      NA 5907   7.023   9.943   2.989  0.2367 -0.2070 -0.2731
34027NA      NA 5908   7.974   7.327   5.678 -0.0751  0.1520 -0.0442
34028NA      NA 5909   2.677   0.248   0.227 -0.2319 -0.4536 -0.5357
34029NA      NA 5910   2.587   6.614   3.961 -0.4635  0.4975 -0.2426
34030NA      NA 5911   5.215   1.103   3.522  0.3716  0.0032  0.8490
34031NA      NA 5912   3.474   2.113   7.926  0.0109 -0.1006  0.0878
34032NA      NA 5913   3.397   4.611   4.165  0.1698 -0.1787  0.5119
34033NA      NA 5914   4.092   5.489   4.298  0.1006 -0.1678  0.4383
34034NA      NA 5915   4.197  10.123   6.747 -0.5297 -0.2029  0.0830
34035NA      NA 5916   0.957   1.174   8.556 -0.4664 -0.3279  0.1539
34036NA      NA 5917   6.400   3.761   6.527 -0.1256 -0.0102  0.1411
34037NA      NA 5918   4.096   9.576   2.113 -0.0997  0.0448  0.1811
34038NA      NA 5919   8.275   4.419   5.426  0.3306 -0.4639  0.2069
34039NA      NA 5920   8.488   8.225   8.312  0.2436 -0.4250 -0.2357
34040NA      NA 5921   0.154   0.763   0.725  0.0592 -0.2763  0.8661
34041NA      NA 5922   2.146   1.842   2.467  0.2027  0.0508  0.5573
34042NA      NA 5923   0.279   6.915   1.676  0.1219  0.4163 -0.0150
34043NA      NA 5924   0.999   0.071   7.032 -0.3911 -0.5545  0.5451
34044NA      NA 5925   7.579   7.457   4.579 -0.1892  0.1118  0.7221
34045NA      NA 5926   6.266   7.180   2.901 -0.0606 -0.3476 -0.1257
34046NA      NA 5927   3.598   6.269   3.149 -0.1204  0.4076  0.6085
34047NA      NA 5928   8.047   9.538   1.947 -0.3582 -0.2833  0.2998
34048NA      NA 5929   4.637   7.314   7.819  0.5086 -0.1790  0.5749
34049NA      NA 5930   3.835   3.846   2.171  0.2580 -0.2607 -0.1949
34050NA      NA 5931   2.396   9.888   1.915 -0.1527 -0.5957  0.3929
34051NA      NA 5932   5.404   5.700   3.422  0.1830  0.0902  0.4718
34052NA      NA 5933   4.007   5.129   3.616 -0.5304 -0.3140  0.1472
34053NA      NA 5934   4.713   0.888   7.508  0.2181 -0.0800  0.0234
34054NA      NA 5935   2.911   9.302   0.427  0.2592  0.4024  0.0792
34055NA      NA 5936   8.200   1.053   2.707 -0.3962  0.6466  0.0888
34056NA      NA 5937   2.698   1.926  10.014  0.0456  0.1426 -0.1025
34057NA      NA 5938   8.138   0.355   3.261  0.2966 -0.1620  0.2015
34058NA      NA 5939   5.568   2.845   4.043  0.0274  0.0946  0.1410
34059NA      NA 5940   3.706   2.076   9.764 -0.0263 -0.3869 -0.5211
34060NA      NA 5941   6.604   7.766   0.520  0.5295  0.0626  0.2728
34061NA      NA 5942   7.932   0.052   7.900 -0.2364  0.3569 -0.0568
34062NA      NA 5943   8.937   1.071   4.731  0.1742 -0.5969 -0.0490
34063NA      NA 5944   2.974   1.413   4.169 -0.2482  0.0651  0.4120
34064NA      NA 5945   5.942   4.982   0.936  0.1782  0.1163 -0.6349
34065NA      NA 5946   1.355   4.886   5.196 -0.0914 -0.0437  0.4710
34066NA      NA 5947   7.880   0.936   9.538 -0.3168 -0.0083 -0.0956
34067NA      NA 5948   5.152   7.103   1.052  0.1056  0.2451 -0.6441
34068NA      NA 5949   3.189   1.118   8.681  0.3303  0.6381  0.2764
34069NA      NA 5950   3.457   2.600   6.198 -0.2972  0.0682 -0.1893
34070NA      NA 5951   8.516   5.746   3.962 -0.2963 -0.0120 -0.6124
34071NA      NA 5952   2.260   3.824   3.891 -0.3068 -0.2316  0.7870
34072NA      NA 5953   8.610   9.151   9.716 -0.3922  0.0830  0.3622
34073NA      NA 5954   7.324   1.985   2.143  0.1218 -0.7458  0.0951
34074NA      NA 5955   4.593   1.236   5.626 -0.3435 -0.3198  0.4932
34075NA      NA 5956   4.758   3.241   5.543 -0.0750  0.1334  0.2354
34076NA      NA 5957   4.127   7.888   0.894 -0.2704  0.3587 -0.4699
34077NA      NA 5958   4.686   5.078   8.265  0.1774 -0.0266  0.2393
34078NA      NA 5959   5.446   6.093   5.496 -0.3163  0.1657  0.1225
34079NA      NA 5960   8.764   7.877   4.735  0.4024 -0.5442  0.0148
34080NA      NA 5961   1.630   0.595   5.370 -0.4503  0.1208  0.0770
34081CL      CL 5962   8.382   5.526   5.442 -0.3186  0.0096 -0.0366
34082CL      CL 5963   8.789   5.476   3.312  0.3736  0.1016 -0.6986
34083CL      CL 5964   6.119   6.591   9.750  0.2055  0.0008  0.0350
34084CL      CL 5965   6.101   1.384  10.166  0.1763  0.3543  0.4787
34085CL      CL 5966   5.908   0.597   7.597  0.1190  0.0353 -0.1647
34086CL      CL 5967   4.474   4.484   9.738 -0.1260 -0.0467  0.1062
34087CL      CL 5968   3.598   0.437   6.709  0.0190 -0.2911  0.2456
34088CL      CL 5969   4.609   2.623   6.555  0.0188  0.1426  0.1678
34089CL      CL 5970   2.171   2.700   7.736 -0.3913  0.2153  0.1301
34090CL      CL 5971   1.942   3.506   9.660  0.1920  0.3481 -0.1676
34091CL      CL 5972   0.047   8.691   3.874 -0.0200 -0.1157 -0.5960
34092CL      CL 5973   0.393   9.316   3.769 -0.1062  0.0488  0.2226
34093CL      CL 5974   9.101   6.960   1.186  0.0333  0.3728 -0.2288
34094CL      CL 5975   0.969   8.222   7.189 -0.3731 -0.1019 -0.2966
34095CL      CL 5976   6.125   6.795   9.333 -0.1808  0.4218 -0.2856
34096CL      CL 5977   9.888   2.860   6.358 -0.3984 -0.1614  0.0265
34097CL      CL 5978   3.881   0.805   4.938  0.0736 -0.0642 -0.1218
34098CL      CL 5979   2.971   2.908   7.363  0.2414 -0.1986 -0.1839
34099CL      CL 5980   7.414   0.124  10.006  0.1212  0.0723  0.1086
34100CL      CL 5981   3.098   1.652   9.833  0.1883 -0.2855  0.2408
34101CL      CL 5982   8.458   7.650   7.863 -0.0856  0.2864 -0.2871
34102CL      CL 5983   1.845   3.476   3.504  0.1691 -0.0297  0.2127
34103CL      CL 5984   7.680   9.682   2.190  0.1497 -0.2252 -0.2966
34104CL      CL 5985   2.564   9.962   9.122  0.2887 -0.2088 -0.4928
34105CL      CL 5986   1.384   2.824   1.832 -0.2254 -0.3260 -0.1032
34106CL      CL 5987   0.389   2.489   7.044 -0.3480 -0.0105  0.0312
34107CL      CL 5988   1.350   6.352   0.327  0.2813  0.3002  0.1234
34108CL      CL 5989   2.619   6.518  10.053  0.1170  0.1032 -0.3974
34109CL      CL 5990   2.274   5.257   8.315 -0.0599 -0.0092  0.3115
34110CL      CL 5991   5.412   5.420   9.286  0.0418  0.2086  0.0796
34111CL      CL 5992   4.863   6.088   4.767 -0.0486 -0.1722 -0.2451
34112CL      CL 5993   9.320  10.059   9.926  0.4649  0.0555 -0.0965
34113CL      CL 5994   1.503   1.595   7.571  0.0599 -0.2446 -0.0307
34114CL      CL 5995   0.106   0.601   0.541  0.3870  0.2544  0.1391
34115CL      CL 5996   6.386   9.211   1.909  0.0643  0.4132 -0.1580
34116CL      CL 5997   0.917   5.578   8.195 -0.6173  0.4047 -0.1388
34117CL      CL 5998   3.623   2.973   9.655  0.5810 -0.2081  0.2827
34118CL      CL 5999   0.756   1.303   8.461 -0.2118  0.1476 -0.0700
34119CL      CL 6000   1.098   4.502   6.743  0.4202 -0.5790 -0.2063
34120CL      CL 6001   6.565   3.061   5.514 -0.4171  0.2294  0.0090
34121CL      CL 6002   3.260   5.923   9.772  0.3024 -0.3392 -0.0700
34122CL      CL 6003  10.086   7.179   7.681  0.0981  0.1388  0.2283
34123CL      CL 6004   2.393   4.713   9.524  0.2477  0.0954  0.0940
34124CL      CL 6005   4.823   6.640   3.305  0.1310  0.0194 -0.0771
34125CL      CL 6006   9.919   8.255   0.392 -0.1973  0.0210 -0.6010
34126CL      CL 6007   6.816   4.359   3.687 -0.0608 -0.0375  0.0772
34127CL      CL 6008   2.356   6.784   2.795  0.6389  0.0073 -0.0013
34128CL      CL 6009   4.787   1.500   5.277 -0.3685  0.4208  0.1946
34129CL      CL 6010   9.479   4.487   4.173  0.0494  0.1457  0.2027
34130CL      CL 6011   0.867   1.728   9.789 -0.1065 -0.0048  0.4453
34131CL      CL 6012   2.006   5.638   9.110  0.1781  0.0953  0.1823
34132CL      CL 6013   0.818   2.095   1.439 -0.1625 -0.4557  0.1464
34133CL      CL 6014   5.739   3.739   7.209 -0.0589 -0.0290 -0.2203
34134CL      CL 6015   9.781   7.462   0.198 -0.3046  0.3338  0.1204
34135CL      CL 6016   8.591   8.191   7.165  0.0943  0.0129 -0.1970
34136CL      CL 6017   2.447   4.879   3.772  0.2970 -0.0545 -0.2530
34137CL      CL 6018   3.940   1.327   1.244  0.5052 -0.3513  0.1311
34138CL      CL 6019   3.564   8.657   4.020 -0.0638  0.0139  0.2224
34139CL      CL 6020   9.603   6.298   8.116  0.1568 -0.1183  0.4431
34140CL      CL 6021   9.328   8.357   8.432 -0.7173 -0.2202 -0.1003
34141CL      CL 6022   8.651   7.532   9.751  0.0142  0.0488 -0.1256
34142CL      CL 6023   9.071   5.105   6.645  0.1384  0.0386 -0.3715
34143CL      CL 6024   3.631   2.058   6.986 -0.0283  0.8265  0.1996
34144CL      CL 6025   7.553   3.689   7.189  0.0845  0.1529  0.0546
34145CL      CL 6026   7.090   1.840   8.897 -0.2599 -0.1945  0.1544
34146CL      CL 6027   0.772   1.024  10.184 -0.0171 -0.1935 -0.0891
34147CL      CL 6028   9.114   6.784   5.866 -0.0064  0.4893  0.0626
34148CL      CL 6029   6.455   9.880   1.736 -0.5411  0.4038 -0.1454
34149CL      CL 6030   6.044   4.246  10.127  0.4009 -0.2027  0.2227
34150CL      CL 6031   2.301   7.927   9.001  0.2452 -0.0468  0.2139
34151CL      CL 6032   1.747   2.354   9.782 -0.3154  0.1213 -0.3403
34152CL      CL 6033   8.375   3.128   0.391 -0.1436 -0.3107  0.0110
34153CL      CL 6034   3.817   2.600   7.434  0.2373 -0.2215  0.0323
34154CL      CL 6035   0.123   4.899   9.754  0.0041 -0.1064 -0.1486
34155CL      CL 6036   9.566   9.083   1.093  0.1695 -0.1728 -0.0129
34156CL      CL 6037   6.464   2.047   9.695  0.2016 -0.1670  0.0499
34157CL      CL 6038   5.279   4.955   3.355  0.0362 -0.1216 -0.2944
34158CL      CL 6039   8.963   6.278   2.546 -0.3072 -0.4072 -0.1922
34159CL      CL 6040   9.567   2.959   8.416  0.1821 -0.5613  0.1119
34160CL      CL 6041   0.786   9.031   2.640  0.4394  0.1958 -0.0382
34161CL      CL 6042   1.514   4.939   5.833 -0.0442  0.3141 -0.0775
34162CL      CL 6043   9.030   5.439   7.341 -0.3843  0.0655 -0.2508
34163CL      CL 6044   0.611   4.560   0.004  0.1382  0.4725  0.4748
34164CL      CL 6045   5.921   9.262   2.127 -0.0179  0.1082 -0.1781
34165CL      CL 6046   7.062   8.315   8.005  0.2314  0.1821 -0.0215
34166CL      CL 6047   8.511   1.512   6.899  0.2280 -0.5296  0.2769
34167CL      CL 6048   1.065   1.031   9.543 -0.3233 -0.0990 -0.1410
34168CL      CL 6049   8.190   4.047   7.714 -0.0117 -0.2874  0.4961
34169CL      CL 6050   8.758   5.017   1.349  0.4035 -0.1782 -0.4720
34170CL      CL 6051   3.730   6.954   4.343 -0.1202  0.0393 -0.1229
34171CL      CL 6052   1.350   7.113   7.869 -0.4732  0.1465 -0.0365
34172CL      CL 6053   2.136  10.152   0.826 -0.0096  0.4001  0.4694
34173CL      CL 6054   8.113   2.149   0.900 -0.2262  0.3813  0.2444
34174CL      CL 6055   7.924   4.613   5.539 -0.3000  0.1782 -0.4873
34175CL      CL 6056   9.327   3.822   0.855  0.0522 -0.1357  0.0887
34176CL      CL 6057   8.749   3.575   9.598 -0.0684  0.4982  0.2711
34177CL      CL 6058   2.592   2.219   2.871 -0.3582  0.6327 -0.0223
34178CL      CL 6059   2.923   3.966   3.899 -0.2728  0.2607 -0.1708
34179CL      CL 6060   8.364   0.495   3.223  0.0314 -0.0986 -0.2920
34180CL      CL 6061   7.388   5.776   7.352  0.0435 -0.4073  0.2755
34181CL      CL 6062   6.483   5.727   1.110  0.0819  0.1272 -0.1746
34182CL      CL 6063   9.924   3.185   9.108  0.0001 -0.0604  0.2986
34183CL      CL 6064   1.624   1.804   4.011 -0.0513 -0.2978 -0.0874
34184CL      CL 6065   2.101   3.255   9.162 -0.1713  0.1786 -0.1715
34185CL      CL 6066   0.149   4.581   6.612 -0.1736 -0.1772 -0.1678
34186CL      CL 6067   1.764   5.238   8.706  0.0842  0.1018 -0.0111
34187CL      CL 6068   2.947   2.264   0.498  0.1253  0.4406  0.0535
34188CL      CL 6069   8.609   3.758   7.784  0.1685  0.0996  0.4226
34189CL      CL 6070   2.213   1.521   0.011  0.0969 -0.0719 -0.1963
34190CL      CL 6071   8.748   1.935   1.876 -0.1023  0.3066  0.3298
34191CL      CL 6072   7.717   4.707   6.868 -0.3488  0.2553  0.3512
34192CL      CL 6073   8.790   2.654   2.807  0.6684  0.0802 -0.0877
34193CL      CL 6074   8.642   0.950   1.782  0.0849 -0.1277  0.1381
34194CL      CL 6075   5.728   1.205   2.256 -0.2031  0.4337  0.0574
34195CL      CL 6076   0.994   3.966   7.905  0.0730 -0.0984  0.2083
34196CL      CL 6077   1.265   5.409   7.516 -0.5530  0.1693  0.1271
34197CL      CL 6078   8.560   1.006   8.928 -0.4078  0.4680  0.2467
34198CL      CL 6079   0.972   0.673   8.040 -0.3623  0.0259  0.1059
34199CL      CL 6080   6.873   5.465   9.822 -0.3924  0.5286  0.1756
34200CL      CL 6081   0.443   4.662   8.325 -0.1131  0.2879 -0.5540
34201CL      CL 6082   9.051   4.606   6.125  0.0253 -0.1105  0.2476
34202CL      CL 6083   1.649   1.251   7.908 -0.2526  0.2514  0.1076
34203CL      CL 6084   3.326   9.694   5.813  0.0705  0.1692 -0.0928
34204CL      CL 6085   5.574   4.930  10.123  0.0196  0.0598  0.2284
34205CL      CL 6086   1.565   1.631   9.110  0.1571  0.0360 -0.3055
34206CL      CL 6087  10.192   5.378   9.739  0.0285  0.0085  0.2653
34207CL      CL 6088   7.726   1.238   4.561 -0.4777  0.0946 -0.4246
34208CL      CL 6089   0.721   0.279   7.907  0.0159  0.2279 -0.2007
34209CL      CL 6090   2.314   8.858   9.037 -0.3082  0.0174 -0.0323
34210CL      CL 6091   9.665   2.327   7.228  0.2029 -0.4440 -0.1411
34211CL      CL 6092   0.227   5.794   0.686  0.1115  0.1714 -0.1977
34212CL      CL 6093   3.959   4.680   5.289 -0.2405  0.0157  0.0331
34213CL      CL 6094   8.602   3.093   8.805 -0.0498  0.1712 -0.0276
34214CL      CL 6095   5.007   7.551   1.526  0.2059  0.0425  0.4971
34215CL      CL 6096   9.853   1.242   7.306 -0.4358  0.0308  0.7139
34216CL      CL 6097   4.160   5.608   7.658 -0.3966  0.1315  0.1191
34217CL      CL 6098   7.042   4.633   1.961  0.0663  0.0634  0.1290
34218CL      CL 6099   8.318   5.638   9.429  0.0419  0.2356  0.2349
34219CL      CL 6100   9.907   1.648   7.103  0.0352 -0.5765  0.2793
34220CL      CL 6101   3.936   3.407   0.395  0.7179  0.7093 -0.1636
34221CL      CL 6102   1.977   5.495   7.157  0.0858 -0.1096  0.1404
34222CL      CL 6103   2.056   4.432   2.079 -0.0279  0.4732  0.1942
34223CL      CL 6104   1.031   4.151   7.197  0.1730  0.3674  0.1743
34224CL      CL 6105   1.969   3.279   8.173  0.0073 -0.6504  0.4373
34225CL      CL 6106   9.048   6.470   9.404  0.0212  0.4169 -0.2833
34226CL      CL 6107   2.285   3.512  10.025 -0.0734 -0.1507 -0.1881
34227CL      CL 6108   6.044   8.415   4.167 -0.0372 -0.1260  0.2315
34228CL      CL 6109   0.748   3.397   8.016 -0.0891 -0.1303  0.2557
34229CL      CL 6110   8.250   6.353  10.195  0.2762 -0.0003 -0.1529
34230CL      CL 6111   3.759   1.837   9.007 -0.2704 -0.0619 -0.0588
34231CL      CL 6112   2.839   9.921   7.487  0.3152 -0.1924 -0.2520
34232CL      CL 6113   2.932   0.523   8.553 -0.0915 -0.3954 -0.2625
34233CL      CL 6114   7.468   4.451   7.710  0.3547  0.0732 -0.2162
34234CL      CL 6115   0.865   2.188   8.571 -0.4543  0.2992 -0.5762
34235CL      CL 6116   8.417   4.622   7.368 -0.3473  0.4519  0.2716
34236CL      CL 6117   8.548   8.146   3.494 -0.2083  0.1656  0.0889
34237CL      CL 6118  10.147   5.431   1.035  0.1297 -0.0384 -0.2536
34238CL      CL 6119   1.724   6.829   1.553  0.1837  0.0603  0.3660
34239CL      CL 6120   5.721   3.640   1.185 -0.3388 -0.0732  0.2425
34240CL      CL 6121   0.534   2.871   5.744 -0.0232  0.1940 -0.3429
34241CL      CL 6122   8.729   2.164   0.479 -0.2241  0.0888 -0.1268
34242CL      CL 6123   8.426   4.084   9.314 -0.2068  0.3900  0.2492
34243CL      CL 6124   9.822   6.142   0.832  0.3456 -0.1367 -0.1669
34244CL      CL 6125   1.617   6.578   5.393  0.5123  0.0598  0.0434
34245CL      CL 6126   3.904   9.048   0.391 -0.5708  0.1267  0.2165
34246CL      CL 6127   2.250   1.390   1.466  0.4553 -0.0388  0.5615
34247CL      CL 6128   8.919   2.211  10.035  0.1033 -0.0891  0.4419
34248CL      CL 6129   9.280   7.590   8.227  0.1913 -0.2015  0.5362
34249CL      CL 6130   5.501   4.914   1.675 -0.0945  0.1847 -0.2890
34250CL      CL 6131   6.163   1.273   6.602 -0.1137 -0.2645  0.0272
34251CL      CL 6132   9.225   9.099   4.403 -0.1982 -0.0921  0.0111
34252CL      CL 6133   5.887   3.366   2.660  0.4120  0.3232  0.2696
34253CL      CL 6134   1.754   2.367   0.670  0.1781 -0.1430  0.1111
34254CL      CL 6135   9.923   2.895   5.650  0.1720  0.1554  0.0209
34255CL      CL 6136   8.967   6.053   0.041  0.0456  0.2927 -0.3141
34256CL      CL 6137   9.607   7.317   9.449  0.0098 -0.2822 -0.0254
34257CL      CL 6138   7.891   2.955   0.427 -0.1759  0.4255  0.2829
34258CL      CL 6139  10.001   6.745   7.515 -0.0668  0.6141 -0.2173
34259CL      CL 6140   6.965   5.121   8.004 -0.3087 -0.2334 -0.0757
34260CL      CL 6141   8.588   6.716   3.749  0.3447 -0.0595 -0.0289
34261CL      CL 6142   5.986   0.009   7.310  0.2020  0.1913  0.1851
34262CL      CL 6143   5.436   8.017   1.872  0.2076  0.0492 -0.0834
34263CL      CL 6144   4.822   8.793   3.280 -0.0619  0.1042  0.1384
34264CL      CL 6145   1.116   9.798   7.168 -0.4294  0.1621  0.0504
34265CL      CL 6146   8.577   5.238   2.916 -0.2597 -0.0261 -0.2614
34266CL      CL 6147   8.614   7.414   6.160 -0.1229 -0.3352  0.1728
34267CL      CL 6148   0.791   9.792   3.434 -0.0149  0.1257 -0.0757
34268CL      CL 6149   9.896   1.648   4.374 -0.5242 -0.0123 -0.1078
34269CL      CL 6150   8.943   1.459   3.055  0.0625 -0.0369  0.2405
34270CL      CL 6151   8.321   9.648   6.516  0.1885 -0.0563  0.0707
34271CL      CL 6152   0.142   0.137  10.175 -0.3442 -0.3008  0.0029
34272CL      CL 6153   8.186   4.797   4.380  0.2107  0.0361  0.0536
34273CL      CL 6154   7.827   6.481   2.932 -0.3473 -0.3848  0.1501
34274CL      CL 6155   3.440   1.536   7.420 -0.4127  0.3730  0.8792
34275CL      CL 6156   1.044   1.709   8.737 -0.2157 -0.3383 -0.0167
34276CL      CL 6157   4.484   5.161   4.098  0.2198  0.3240  0.0624
34277CL      CL 6158   1.767   3.955   0.615 -0.0388 -0.0524 -0.5523
34278CL      CL 6159   8.413   6.800   3.173 -0.4928  0.1013 -0.0794
34279CL      CL 6160   7.729   6.356   7.361 -0.0574 -0.4764  0.2639
34280CL      CL 6161   9.734   3.604   1.987  0.2907  0.0866  0.1926
34281CL      CL 6162   9.462   2.189   5.709  0.0259  0.2963  0.3120
34282CL      CL 6163   2.070   4.046   0.211 -0.2733  0.0375 -0.2868
34283CL      CL 6164   8.784   3.671  10.180 -0.3916  0.0565 -0.3032
34284CL      CL 6165   2.253   0.836   2.847  0.0770  0.0299  0.0978
34285CL      CL 6166   0.966   3.768   0.511 -0.1641  0.2027  0.4298
34286CL      CL 6167   7.114   9.058   9.030 -0.0275  0.3981  0.4503
34287CL      CL 6168  10.180   3.091   0.615  0.1714 -0.1028 -0.1701
34288CL      CL 6169   2.010   7.719   9.306  0.1416  0.0225 -0.1040
34289CL      CL 6170   7.860   2.045   3.582  0.1204 -0.1175 -0.0365
34290CL      CL 6171   8.641   2.564   9.473 -0.0985  0.0211  0.2693
34291CL      CL 6172   0.640   1.085   0.633  0.2281 -0.2426 -0.0157
34292CL      CL 6173   7.149   5.897   8.294  0.1401 -0.0493  0.0834
34293CL      CL 6174   9.187   4.534   9.340  0.1137 -0.2401 -0.1335
34294CL      CL 6175   1.194   3.948   6.280  0.0995 -0.0061 -0.2327
34295CL      CL 6176   0.136   1.256   8.861  0.1504 -0.5050  0.3212
34296CL      CL 6177   0.897   6.723   9.009 -0.3080  0.0247 -0.0627
34297CL      CL 6178   1.170   7.263   6.696 -0.0372 -0.0094  0.1052
34298CL      CL 6179   0.738   6.623   5.242  0.5874 -0.1533 -0.4856
34299CL      CL 6180   9.077   3.797   5.760  0.4033 -0.5431  0.3920
34300CL      CL 6181   1.158   9.375   1.654  0.1789 -0.0033 -0.0091
34301CL      CL 6182   3.185   0.589   1.907  0.3553 -0.2164  0.3529
34302CL      CL 6183   5.737   1.350   4.194 -0.3169  0.2329  0.1687
34303CL      CL 6184   1.680   1.918   3.404  0.2065  0.2696  0.1567
34304CL      CL 6185   8.998   0.832   9.629  0.1789  0.4805 -0.0105
34305CL      CL 6186   7.706   6.027   9.210 -0.0868  0.0879 -0.0675
34306CL      CL 6187   8.634   9.586   5.545 -0.1920  0.1387  0.1887
  10.20720  10.20720  10.20720
