;
;   File g4dpncore_petim_betagalactose.itp  was generated
;   By user: sairam (1000)
;   On host: sairam
;   At date: Sat. January  6 15:11:41 2025
;
;   This is a standalone topology file
;
;   Created by:
;   ParmEd:       amb2gro_top_gro.py, VERSION 3.4.1
;   Executable:   amb2gro_top_gro.py
;   Library dir:  /usr/local/gromacs/share/gromacs/top
;   Command line:
;     ./amb2gro_top_gro.py -p g4dpncore_petim_betagalactose.prmtop -c g4dpncore_petim_betagalactose.inpcrd -t g4dpncore_petim_betagalactose.itp -g g4dpncore_petim_betagalactose.gro -b g4dpncore_petim_betagalactose.pdb
;

;[ defaults ]
;; nbfunc        comb-rule       gen-pairs       fudgeLJ fudgeQQ
;1               2               yes             0.5          0.83333333  
;
;[ atomtypes ]
;; name    at.num    mass    charge ptype  sigma      epsilon
;n4             7  14.010000  0.00000000  A     0.32499985        0.71128
;c3             6  12.010000  0.00000000  A     0.33996695      0.4577296
;hx             1   1.008000  0.00000000  A     0.19599772      0.0656888
;hc             1   1.008000  0.00000000  A     0.26495328      0.0656888
;h1             1   1.008000  0.00000000  A      0.2471353      0.0656888
;hn             1   1.008000  0.00000000  A     0.10690785      0.0656888
;os             8  16.000000  0.00000000  A     0.30000123        0.71128
;h2             1   1.008000  0.00000000  A     0.22931733      0.0656888
;oh             8  16.000000  0.00000000  A     0.30664734      0.8803136
;ho             1   1.008000  0.00000000  A              0              0


[ moleculetype ]
; Name            nrexcl
g4dpncore_petim_betagalactose          3

[ atoms ]
;   nr       type  resnr residue  atom   cgnr    charge       mass  typeB    chargeB      massB
; residue    1 aaa rtp aaa q 1.0
    1         n4      1    aaa     N1      1 -0.24795800  14.010000   ; qtot -0.247958
    2         c3      1    aaa     C1      2 0.15727100  12.010000   ; qtot -0.090687
    3         hx      1    aaa     H1      3 0.05072400   1.008000   ; qtot -0.039963
    4         hx      1    aaa     H2      4 0.05072400   1.008000   ; qtot 0.010761
    5         c3      1    aaa     C2      5 0.15727100  12.010000   ; qtot 0.168032
    6         hx      1    aaa     H3      6 0.05072400   1.008000   ; qtot 0.218756
    7         hx      1    aaa     H4      7 0.05072400   1.008000   ; qtot 0.269480
    8         c3      1    aaa     C3      8 0.15727100  12.010000   ; qtot 0.426751
    9         hx      1    aaa     H5      9 0.05072400   1.008000   ; qtot 0.477475
   10         hx      1    aaa     H6     10 0.05072400   1.008000   ; qtot 0.528199
   11         c3      1    aaa     C4     11 0.05437700  12.010000   ; qtot 0.582576
   12         hc      1    aaa     H7     12 0.07708700   1.008000   ; qtot 0.659663
   13         hc      1    aaa     H8     13 0.07708700   1.008000   ; qtot 0.736750
   14         c3      1    aaa     C5     14 0.05437700  12.010000   ; qtot 0.791127
   15         hc      1    aaa     H9     15 0.07708700   1.008000   ; qtot 0.868214
   16         hc      1    aaa    H10     16 0.07708700   1.008000   ; qtot 0.945301
   17         c3      1    aaa     C6     17 0.05437700  12.010000   ; qtot 0.999678
   18         hc      1    aaa    H11     18 0.07708700   1.008000   ; qtot 1.076765
   19         hc      1    aaa    H12     19 0.07708700   1.008000   ; qtot 1.153852
   20         c3      1    aaa     C7     20 -0.74569400  12.010000   ; qtot 0.408158
   21         h1      1    aaa    H13     21 0.30837900   1.008000   ; qtot 0.716537
   22         h1      1    aaa    H14     22 0.30837900   1.008000   ; qtot 1.024916
   23         c3      1    aaa     C8     23 -0.74569400  12.010000   ; qtot 0.279222
   24         h1      1    aaa    H15     24 0.30837900   1.008000   ; qtot 0.587601
   25         h1      1    aaa    H16     25 0.30837900   1.008000   ; qtot 0.895980
   26         c3      1    aaa     C9     26 -0.74569400  12.010000   ; qtot 0.150286
   27         h1      1    aaa    H17     27 0.30837900   1.008000   ; qtot 0.458665
   28         h1      1    aaa    H18     28 0.30837900   1.008000   ; qtot 0.767044
   29         hn      1    aaa    H19     29 0.23295100   1.008000   ; qtot 0.999995
; residue    2 bbb rtp bbb q 1.0
   30         n4      2    bbb     N1     30 0.03726400  14.010000   ; qtot 1.037259
   31         c3      2    bbb     C1     31 -0.07020100  12.010000   ; qtot 0.967058
   32         hx      2    bbb     H1     32 0.12219000   1.008000   ; qtot 1.089248
   33         hx      2    bbb     H2     33 0.12219000   1.008000   ; qtot 1.211438
   34         c3      2    bbb     C2     34 -0.07020100  12.010000   ; qtot 1.141237
   35         hx      2    bbb     H3     35 0.12219000   1.008000   ; qtot 1.263427
   36         hx      2    bbb     H4     36 0.12219000   1.008000   ; qtot 1.385617
   37         c3      2    bbb     C3     37 -0.39007700  12.010000   ; qtot 0.995540
   38         hx      2    bbb     H5     38 0.14940300   1.008000   ; qtot 1.144943
   39         hx      2    bbb     H6     39 0.14940300   1.008000   ; qtot 1.294346
   40         c3      2    bbb     C4     40 0.18057300  12.010000   ; qtot 1.474919
   41         hc      2    bbb     H7     41 0.01788900   1.008000   ; qtot 1.492808
   42         hc      2    bbb     H8     42 0.01788900   1.008000   ; qtot 1.510697
   43         c3      2    bbb     C5     43 -0.11337700  12.010000   ; qtot 1.397320
   44         hc      2    bbb     H9     44 0.09515400   1.008000   ; qtot 1.492474
   45         hc      2    bbb    H10     45 0.09515400   1.008000   ; qtot 1.587628
   46         c3      2    bbb     C6     46 -0.11337700  12.010000   ; qtot 1.474251
   47         hc      2    bbb    H11     47 0.09515400   1.008000   ; qtot 1.569405
   48         hc      2    bbb    H12     48 0.09515400   1.008000   ; qtot 1.664559
   49         c3      2    bbb     C7     49 0.21842400  12.010000   ; qtot 1.882983
   50         h1      2    bbb    H13     50 0.04500300   1.008000   ; qtot 1.927986
   51         h1      2    bbb    H14     51 0.04500300   1.008000   ; qtot 1.972989
   52         c3      2    bbb     C8     52 -0.06455200  12.010000   ; qtot 1.908437
   53         h1      2    bbb    H15     53 0.13554100   1.008000   ; qtot 2.043978
   54         h1      2    bbb    H16     54 0.13554100   1.008000   ; qtot 2.179519
   55         c3      2    bbb     C9     55 -0.06455200  12.010000   ; qtot 2.114967
   56         h1      2    bbb    H17     56 0.13554100   1.008000   ; qtot 2.250508
   57         h1      2    bbb    H18     57 0.13554100   1.008000   ; qtot 2.386049
   58         os      2    bbb     O1     58 -0.62587700  16.000000   ; qtot 1.760172
   59         hn      2    bbb    H19     59 0.23982500   1.008000   ; qtot 1.999997
; residue    3 bbb rtp bbb q 1.0
   60         n4      3    bbb     N1     60 0.03726400  14.010000   ; qtot 2.037261
   61         c3      3    bbb     C1     61 -0.07020100  12.010000   ; qtot 1.967060
   62         hx      3    bbb     H1     62 0.12219000   1.008000   ; qtot 2.089250
   63         hx      3    bbb     H2     63 0.12219000   1.008000   ; qtot 2.211440
   64         c3      3    bbb     C2     64 -0.07020100  12.010000   ; qtot 2.141239
   65         hx      3    bbb     H3     65 0.12219000   1.008000   ; qtot 2.263429
   66         hx      3    bbb     H4     66 0.12219000   1.008000   ; qtot 2.385619
   67         c3      3    bbb     C3     67 -0.39007700  12.010000   ; qtot 1.995542
   68         hx      3    bbb     H5     68 0.14940300   1.008000   ; qtot 2.144945
   69         hx      3    bbb     H6     69 0.14940300   1.008000   ; qtot 2.294348
   70         c3      3    bbb     C4     70 0.18057300  12.010000   ; qtot 2.474921
   71         hc      3    bbb     H7     71 0.01788900   1.008000   ; qtot 2.492810
   72         hc      3    bbb     H8     72 0.01788900   1.008000   ; qtot 2.510699
   73         c3      3    bbb     C5     73 -0.11337700  12.010000   ; qtot 2.397322
   74         hc      3    bbb     H9     74 0.09515400   1.008000   ; qtot 2.492476
   75         hc      3    bbb    H10     75 0.09515400   1.008000   ; qtot 2.587630
   76         c3      3    bbb     C6     76 -0.11337700  12.010000   ; qtot 2.474253
   77         hc      3    bbb    H11     77 0.09515400   1.008000   ; qtot 2.569407
   78         hc      3    bbb    H12     78 0.09515400   1.008000   ; qtot 2.664561
   79         c3      3    bbb     C7     79 0.21842400  12.010000   ; qtot 2.882985
   80         h1      3    bbb    H13     80 0.04500300   1.008000   ; qtot 2.927988
   81         h1      3    bbb    H14     81 0.04500300   1.008000   ; qtot 2.972991
   82         c3      3    bbb     C8     82 -0.06455200  12.010000   ; qtot 2.908439
   83         h1      3    bbb    H15     83 0.13554100   1.008000   ; qtot 3.043980
   84         h1      3    bbb    H16     84 0.13554100   1.008000   ; qtot 3.179521
   85         c3      3    bbb     C9     85 -0.06455200  12.010000   ; qtot 3.114969
   86         h1      3    bbb    H17     86 0.13554100   1.008000   ; qtot 3.250510
   87         h1      3    bbb    H18     87 0.13554100   1.008000   ; qtot 3.386051
   88         os      3    bbb     O1     88 -0.62587700  16.000000   ; qtot 2.760174
   89         hn      3    bbb    H19     89 0.23982500   1.008000   ; qtot 2.999999
; residue    4 bbb rtp bbb q 1.0
   90         n4      4    bbb     N1     90 0.03726400  14.010000   ; qtot 3.037263
   91         c3      4    bbb     C1     91 -0.07020100  12.010000   ; qtot 2.967062
   92         hx      4    bbb     H1     92 0.12219000   1.008000   ; qtot 3.089252
   93         hx      4    bbb     H2     93 0.12219000   1.008000   ; qtot 3.211442
   94         c3      4    bbb     C2     94 -0.07020100  12.010000   ; qtot 3.141241
   95         hx      4    bbb     H3     95 0.12219000   1.008000   ; qtot 3.263431
   96         hx      4    bbb     H4     96 0.12219000   1.008000   ; qtot 3.385621
   97         c3      4    bbb     C3     97 -0.39007700  12.010000   ; qtot 2.995544
   98         hx      4    bbb     H5     98 0.14940300   1.008000   ; qtot 3.144947
   99         hx      4    bbb     H6     99 0.14940300   1.008000   ; qtot 3.294350
  100         c3      4    bbb     C4    100 0.18057300  12.010000   ; qtot 3.474923
  101         hc      4    bbb     H7    101 0.01788900   1.008000   ; qtot 3.492812
  102         hc      4    bbb     H8    102 0.01788900   1.008000   ; qtot 3.510701
  103         c3      4    bbb     C5    103 -0.11337700  12.010000   ; qtot 3.397324
  104         hc      4    bbb     H9    104 0.09515400   1.008000   ; qtot 3.492478
  105         hc      4    bbb    H10    105 0.09515400   1.008000   ; qtot 3.587632
  106         c3      4    bbb     C6    106 -0.11337700  12.010000   ; qtot 3.474255
  107         hc      4    bbb    H11    107 0.09515400   1.008000   ; qtot 3.569409
  108         hc      4    bbb    H12    108 0.09515400   1.008000   ; qtot 3.664563
  109         c3      4    bbb     C7    109 0.21842400  12.010000   ; qtot 3.882987
  110         h1      4    bbb    H13    110 0.04500300   1.008000   ; qtot 3.927990
  111         h1      4    bbb    H14    111 0.04500300   1.008000   ; qtot 3.972993
  112         c3      4    bbb     C8    112 -0.06455200  12.010000   ; qtot 3.908441
  113         h1      4    bbb    H15    113 0.13554100   1.008000   ; qtot 4.043982
  114         h1      4    bbb    H16    114 0.13554100   1.008000   ; qtot 4.179523
  115         c3      4    bbb     C9    115 -0.06455200  12.010000   ; qtot 4.114971
  116         h1      4    bbb    H17    116 0.13554100   1.008000   ; qtot 4.250512
  117         h1      4    bbb    H18    117 0.13554100   1.008000   ; qtot 4.386053
  118         os      4    bbb     O1    118 -0.62587700  16.000000   ; qtot 3.760176
  119         hn      4    bbb    H19    119 0.23982500   1.008000   ; qtot 4.000001
; residue    5 bbb rtp bbb q 1.0
  120         n4      5    bbb     N1    120 0.03726400  14.010000   ; qtot 4.037265
  121         c3      5    bbb     C1    121 -0.07020100  12.010000   ; qtot 3.967064
  122         hx      5    bbb     H1    122 0.12219000   1.008000   ; qtot 4.089254
  123         hx      5    bbb     H2    123 0.12219000   1.008000   ; qtot 4.211444
  124         c3      5    bbb     C2    124 -0.07020100  12.010000   ; qtot 4.141243
  125         hx      5    bbb     H3    125 0.12219000   1.008000   ; qtot 4.263433
  126         hx      5    bbb     H4    126 0.12219000   1.008000   ; qtot 4.385623
  127         c3      5    bbb     C3    127 -0.39007700  12.010000   ; qtot 3.995546
  128         hx      5    bbb     H5    128 0.14940300   1.008000   ; qtot 4.144949
  129         hx      5    bbb     H6    129 0.14940300   1.008000   ; qtot 4.294352
  130         c3      5    bbb     C4    130 0.18057300  12.010000   ; qtot 4.474925
  131         hc      5    bbb     H7    131 0.01788900   1.008000   ; qtot 4.492814
  132         hc      5    bbb     H8    132 0.01788900   1.008000   ; qtot 4.510703
  133         c3      5    bbb     C5    133 -0.11337700  12.010000   ; qtot 4.397326
  134         hc      5    bbb     H9    134 0.09515400   1.008000   ; qtot 4.492480
  135         hc      5    bbb    H10    135 0.09515400   1.008000   ; qtot 4.587634
  136         c3      5    bbb     C6    136 -0.11337700  12.010000   ; qtot 4.474257
  137         hc      5    bbb    H11    137 0.09515400   1.008000   ; qtot 4.569411
  138         hc      5    bbb    H12    138 0.09515400   1.008000   ; qtot 4.664565
  139         c3      5    bbb     C7    139 0.21842400  12.010000   ; qtot 4.882989
  140         h1      5    bbb    H13    140 0.04500300   1.008000   ; qtot 4.927992
  141         h1      5    bbb    H14    141 0.04500300   1.008000   ; qtot 4.972995
  142         c3      5    bbb     C8    142 -0.06455200  12.010000   ; qtot 4.908443
  143         h1      5    bbb    H15    143 0.13554100   1.008000   ; qtot 5.043984
  144         h1      5    bbb    H16    144 0.13554100   1.008000   ; qtot 5.179525
  145         c3      5    bbb     C9    145 -0.06455200  12.010000   ; qtot 5.114973
  146         h1      5    bbb    H17    146 0.13554100   1.008000   ; qtot 5.250514
  147         h1      5    bbb    H18    147 0.13554100   1.008000   ; qtot 5.386055
  148         os      5    bbb     O1    148 -0.62587700  16.000000   ; qtot 4.760178
  149         hn      5    bbb    H19    149 0.23982500   1.008000   ; qtot 5.000003
; residue    6 bbb rtp bbb q 1.0
  150         n4      6    bbb     N1    150 0.03726400  14.010000   ; qtot 5.037267
  151         c3      6    bbb     C1    151 -0.07020100  12.010000   ; qtot 4.967066
  152         hx      6    bbb     H1    152 0.12219000   1.008000   ; qtot 5.089256
  153         hx      6    bbb     H2    153 0.12219000   1.008000   ; qtot 5.211446
  154         c3      6    bbb     C2    154 -0.07020100  12.010000   ; qtot 5.141245
  155         hx      6    bbb     H3    155 0.12219000   1.008000   ; qtot 5.263435
  156         hx      6    bbb     H4    156 0.12219000   1.008000   ; qtot 5.385625
  157         c3      6    bbb     C3    157 -0.39007700  12.010000   ; qtot 4.995548
  158         hx      6    bbb     H5    158 0.14940300   1.008000   ; qtot 5.144951
  159         hx      6    bbb     H6    159 0.14940300   1.008000   ; qtot 5.294354
  160         c3      6    bbb     C4    160 0.18057300  12.010000   ; qtot 5.474927
  161         hc      6    bbb     H7    161 0.01788900   1.008000   ; qtot 5.492816
  162         hc      6    bbb     H8    162 0.01788900   1.008000   ; qtot 5.510705
  163         c3      6    bbb     C5    163 -0.11337700  12.010000   ; qtot 5.397328
  164         hc      6    bbb     H9    164 0.09515400   1.008000   ; qtot 5.492482
  165         hc      6    bbb    H10    165 0.09515400   1.008000   ; qtot 5.587636
  166         c3      6    bbb     C6    166 -0.11337700  12.010000   ; qtot 5.474259
  167         hc      6    bbb    H11    167 0.09515400   1.008000   ; qtot 5.569413
  168         hc      6    bbb    H12    168 0.09515400   1.008000   ; qtot 5.664567
  169         c3      6    bbb     C7    169 0.21842400  12.010000   ; qtot 5.882991
  170         h1      6    bbb    H13    170 0.04500300   1.008000   ; qtot 5.927994
  171         h1      6    bbb    H14    171 0.04500300   1.008000   ; qtot 5.972997
  172         c3      6    bbb     C8    172 -0.06455200  12.010000   ; qtot 5.908445
  173         h1      6    bbb    H15    173 0.13554100   1.008000   ; qtot 6.043986
  174         h1      6    bbb    H16    174 0.13554100   1.008000   ; qtot 6.179527
  175         c3      6    bbb     C9    175 -0.06455200  12.010000   ; qtot 6.114975
  176         h1      6    bbb    H17    176 0.13554100   1.008000   ; qtot 6.250516
  177         h1      6    bbb    H18    177 0.13554100   1.008000   ; qtot 6.386057
  178         os      6    bbb     O1    178 -0.62587700  16.000000   ; qtot 5.760180
  179         hn      6    bbb    H19    179 0.23982500   1.008000   ; qtot 6.000005
; residue    7 bbb rtp bbb q 1.0
  180         n4      7    bbb     N1    180 0.03726400  14.010000   ; qtot 6.037269
  181         c3      7    bbb     C1    181 -0.07020100  12.010000   ; qtot 5.967068
  182         hx      7    bbb     H1    182 0.12219000   1.008000   ; qtot 6.089258
  183         hx      7    bbb     H2    183 0.12219000   1.008000   ; qtot 6.211448
  184         c3      7    bbb     C2    184 -0.07020100  12.010000   ; qtot 6.141247
  185         hx      7    bbb     H3    185 0.12219000   1.008000   ; qtot 6.263437
  186         hx      7    bbb     H4    186 0.12219000   1.008000   ; qtot 6.385627
  187         c3      7    bbb     C3    187 -0.39007700  12.010000   ; qtot 5.995550
  188         hx      7    bbb     H5    188 0.14940300   1.008000   ; qtot 6.144953
  189         hx      7    bbb     H6    189 0.14940300   1.008000   ; qtot 6.294356
  190         c3      7    bbb     C4    190 0.18057300  12.010000   ; qtot 6.474929
  191         hc      7    bbb     H7    191 0.01788900   1.008000   ; qtot 6.492818
  192         hc      7    bbb     H8    192 0.01788900   1.008000   ; qtot 6.510707
  193         c3      7    bbb     C5    193 -0.11337700  12.010000   ; qtot 6.397330
  194         hc      7    bbb     H9    194 0.09515400   1.008000   ; qtot 6.492484
  195         hc      7    bbb    H10    195 0.09515400   1.008000   ; qtot 6.587638
  196         c3      7    bbb     C6    196 -0.11337700  12.010000   ; qtot 6.474261
  197         hc      7    bbb    H11    197 0.09515400   1.008000   ; qtot 6.569415
  198         hc      7    bbb    H12    198 0.09515400   1.008000   ; qtot 6.664569
  199         c3      7    bbb     C7    199 0.21842400  12.010000   ; qtot 6.882993
  200         h1      7    bbb    H13    200 0.04500300   1.008000   ; qtot 6.927996
  201         h1      7    bbb    H14    201 0.04500300   1.008000   ; qtot 6.972999
  202         c3      7    bbb     C8    202 -0.06455200  12.010000   ; qtot 6.908447
  203         h1      7    bbb    H15    203 0.13554100   1.008000   ; qtot 7.043988
  204         h1      7    bbb    H16    204 0.13554100   1.008000   ; qtot 7.179529
  205         c3      7    bbb     C9    205 -0.06455200  12.010000   ; qtot 7.114977
  206         h1      7    bbb    H17    206 0.13554100   1.008000   ; qtot 7.250518
  207         h1      7    bbb    H18    207 0.13554100   1.008000   ; qtot 7.386059
  208         os      7    bbb     O1    208 -0.62587700  16.000000   ; qtot 6.760182
  209         hn      7    bbb    H19    209 0.23982500   1.008000   ; qtot 7.000007
; residue    8 bbb rtp bbb q 1.0
  210         n4      8    bbb     N1    210 0.03726400  14.010000   ; qtot 7.037271
  211         c3      8    bbb     C1    211 -0.07020100  12.010000   ; qtot 6.967070
  212         hx      8    bbb     H1    212 0.12219000   1.008000   ; qtot 7.089260
  213         hx      8    bbb     H2    213 0.12219000   1.008000   ; qtot 7.211450
  214         c3      8    bbb     C2    214 -0.07020100  12.010000   ; qtot 7.141249
  215         hx      8    bbb     H3    215 0.12219000   1.008000   ; qtot 7.263439
  216         hx      8    bbb     H4    216 0.12219000   1.008000   ; qtot 7.385629
  217         c3      8    bbb     C3    217 -0.39007700  12.010000   ; qtot 6.995552
  218         hx      8    bbb     H5    218 0.14940300   1.008000   ; qtot 7.144955
  219         hx      8    bbb     H6    219 0.14940300   1.008000   ; qtot 7.294358
  220         c3      8    bbb     C4    220 0.18057300  12.010000   ; qtot 7.474931
  221         hc      8    bbb     H7    221 0.01788900   1.008000   ; qtot 7.492820
  222         hc      8    bbb     H8    222 0.01788900   1.008000   ; qtot 7.510709
  223         c3      8    bbb     C5    223 -0.11337700  12.010000   ; qtot 7.397332
  224         hc      8    bbb     H9    224 0.09515400   1.008000   ; qtot 7.492486
  225         hc      8    bbb    H10    225 0.09515400   1.008000   ; qtot 7.587640
  226         c3      8    bbb     C6    226 -0.11337700  12.010000   ; qtot 7.474263
  227         hc      8    bbb    H11    227 0.09515400   1.008000   ; qtot 7.569417
  228         hc      8    bbb    H12    228 0.09515400   1.008000   ; qtot 7.664571
  229         c3      8    bbb     C7    229 0.21842400  12.010000   ; qtot 7.882995
  230         h1      8    bbb    H13    230 0.04500300   1.008000   ; qtot 7.927998
  231         h1      8    bbb    H14    231 0.04500300   1.008000   ; qtot 7.973001
  232         c3      8    bbb     C8    232 -0.06455200  12.010000   ; qtot 7.908449
  233         h1      8    bbb    H15    233 0.13554100   1.008000   ; qtot 8.043990
  234         h1      8    bbb    H16    234 0.13554100   1.008000   ; qtot 8.179531
  235         c3      8    bbb     C9    235 -0.06455200  12.010000   ; qtot 8.114979
  236         h1      8    bbb    H17    236 0.13554100   1.008000   ; qtot 8.250520
  237         h1      8    bbb    H18    237 0.13554100   1.008000   ; qtot 8.386061
  238         os      8    bbb     O1    238 -0.62587700  16.000000   ; qtot 7.760184
  239         hn      8    bbb    H19    239 0.23982500   1.008000   ; qtot 8.000009
; residue    9 bbb rtp bbb q 1.0
  240         n4      9    bbb     N1    240 0.03726400  14.010000   ; qtot 8.037273
  241         c3      9    bbb     C1    241 -0.07020100  12.010000   ; qtot 7.967072
  242         hx      9    bbb     H1    242 0.12219000   1.008000   ; qtot 8.089262
  243         hx      9    bbb     H2    243 0.12219000   1.008000   ; qtot 8.211452
  244         c3      9    bbb     C2    244 -0.07020100  12.010000   ; qtot 8.141251
  245         hx      9    bbb     H3    245 0.12219000   1.008000   ; qtot 8.263441
  246         hx      9    bbb     H4    246 0.12219000   1.008000   ; qtot 8.385631
  247         c3      9    bbb     C3    247 -0.39007700  12.010000   ; qtot 7.995554
  248         hx      9    bbb     H5    248 0.14940300   1.008000   ; qtot 8.144957
  249         hx      9    bbb     H6    249 0.14940300   1.008000   ; qtot 8.294360
  250         c3      9    bbb     C4    250 0.18057300  12.010000   ; qtot 8.474933
  251         hc      9    bbb     H7    251 0.01788900   1.008000   ; qtot 8.492822
  252         hc      9    bbb     H8    252 0.01788900   1.008000   ; qtot 8.510711
  253         c3      9    bbb     C5    253 -0.11337700  12.010000   ; qtot 8.397334
  254         hc      9    bbb     H9    254 0.09515400   1.008000   ; qtot 8.492488
  255         hc      9    bbb    H10    255 0.09515400   1.008000   ; qtot 8.587642
  256         c3      9    bbb     C6    256 -0.11337700  12.010000   ; qtot 8.474265
  257         hc      9    bbb    H11    257 0.09515400   1.008000   ; qtot 8.569419
  258         hc      9    bbb    H12    258 0.09515400   1.008000   ; qtot 8.664573
  259         c3      9    bbb     C7    259 0.21842400  12.010000   ; qtot 8.882997
  260         h1      9    bbb    H13    260 0.04500300   1.008000   ; qtot 8.928000
  261         h1      9    bbb    H14    261 0.04500300   1.008000   ; qtot 8.973003
  262         c3      9    bbb     C8    262 -0.06455200  12.010000   ; qtot 8.908451
  263         h1      9    bbb    H15    263 0.13554100   1.008000   ; qtot 9.043992
  264         h1      9    bbb    H16    264 0.13554100   1.008000   ; qtot 9.179533
  265         c3      9    bbb     C9    265 -0.06455200  12.010000   ; qtot 9.114981
  266         h1      9    bbb    H17    266 0.13554100   1.008000   ; qtot 9.250522
  267         h1      9    bbb    H18    267 0.13554100   1.008000   ; qtot 9.386063
  268         os      9    bbb     O1    268 -0.62587700  16.000000   ; qtot 8.760186
  269         hn      9    bbb    H19    269 0.23982500   1.008000   ; qtot 9.000011
; residue   10 bbb rtp bbb q 1.0
  270         n4     10    bbb     N1    270 0.03726400  14.010000   ; qtot 9.037275
  271         c3     10    bbb     C1    271 -0.07020100  12.010000   ; qtot 8.967074
  272         hx     10    bbb     H1    272 0.12219000   1.008000   ; qtot 9.089264
  273         hx     10    bbb     H2    273 0.12219000   1.008000   ; qtot 9.211454
  274         c3     10    bbb     C2    274 -0.07020100  12.010000   ; qtot 9.141253
  275         hx     10    bbb     H3    275 0.12219000   1.008000   ; qtot 9.263443
  276         hx     10    bbb     H4    276 0.12219000   1.008000   ; qtot 9.385633
  277         c3     10    bbb     C3    277 -0.39007700  12.010000   ; qtot 8.995556
  278         hx     10    bbb     H5    278 0.14940300   1.008000   ; qtot 9.144959
  279         hx     10    bbb     H6    279 0.14940300   1.008000   ; qtot 9.294362
  280         c3     10    bbb     C4    280 0.18057300  12.010000   ; qtot 9.474935
  281         hc     10    bbb     H7    281 0.01788900   1.008000   ; qtot 9.492824
  282         hc     10    bbb     H8    282 0.01788900   1.008000   ; qtot 9.510713
  283         c3     10    bbb     C5    283 -0.11337700  12.010000   ; qtot 9.397336
  284         hc     10    bbb     H9    284 0.09515400   1.008000   ; qtot 9.492490
  285         hc     10    bbb    H10    285 0.09515400   1.008000   ; qtot 9.587644
  286         c3     10    bbb     C6    286 -0.11337700  12.010000   ; qtot 9.474267
  287         hc     10    bbb    H11    287 0.09515400   1.008000   ; qtot 9.569421
  288         hc     10    bbb    H12    288 0.09515400   1.008000   ; qtot 9.664575
  289         c3     10    bbb     C7    289 0.21842400  12.010000   ; qtot 9.882999
  290         h1     10    bbb    H13    290 0.04500300   1.008000   ; qtot 9.928002
  291         h1     10    bbb    H14    291 0.04500300   1.008000   ; qtot 9.973005
  292         c3     10    bbb     C8    292 -0.06455200  12.010000   ; qtot 9.908453
  293         h1     10    bbb    H15    293 0.13554100   1.008000   ; qtot 10.043994
  294         h1     10    bbb    H16    294 0.13554100   1.008000   ; qtot 10.179535
  295         c3     10    bbb     C9    295 -0.06455200  12.010000   ; qtot 10.114983
  296         h1     10    bbb    H17    296 0.13554100   1.008000   ; qtot 10.250524
  297         h1     10    bbb    H18    297 0.13554100   1.008000   ; qtot 10.386065
  298         os     10    bbb     O1    298 -0.62587700  16.000000   ; qtot 9.760188
  299         hn     10    bbb    H19    299 0.23982500   1.008000   ; qtot 10.000013
; residue   11 bbb rtp bbb q 1.0
  300         n4     11    bbb     N1    300 0.03726400  14.010000   ; qtot 10.037277
  301         c3     11    bbb     C1    301 -0.07020100  12.010000   ; qtot 9.967076
  302         hx     11    bbb     H1    302 0.12219000   1.008000   ; qtot 10.089266
  303         hx     11    bbb     H2    303 0.12219000   1.008000   ; qtot 10.211456
  304         c3     11    bbb     C2    304 -0.07020100  12.010000   ; qtot 10.141255
  305         hx     11    bbb     H3    305 0.12219000   1.008000   ; qtot 10.263445
  306         hx     11    bbb     H4    306 0.12219000   1.008000   ; qtot 10.385635
  307         c3     11    bbb     C3    307 -0.39007700  12.010000   ; qtot 9.995558
  308         hx     11    bbb     H5    308 0.14940300   1.008000   ; qtot 10.144961
  309         hx     11    bbb     H6    309 0.14940300   1.008000   ; qtot 10.294364
  310         c3     11    bbb     C4    310 0.18057300  12.010000   ; qtot 10.474937
  311         hc     11    bbb     H7    311 0.01788900   1.008000   ; qtot 10.492826
  312         hc     11    bbb     H8    312 0.01788900   1.008000   ; qtot 10.510715
  313         c3     11    bbb     C5    313 -0.11337700  12.010000   ; qtot 10.397338
  314         hc     11    bbb     H9    314 0.09515400   1.008000   ; qtot 10.492492
  315         hc     11    bbb    H10    315 0.09515400   1.008000   ; qtot 10.587646
  316         c3     11    bbb     C6    316 -0.11337700  12.010000   ; qtot 10.474269
  317         hc     11    bbb    H11    317 0.09515400   1.008000   ; qtot 10.569423
  318         hc     11    bbb    H12    318 0.09515400   1.008000   ; qtot 10.664577
  319         c3     11    bbb     C7    319 0.21842400  12.010000   ; qtot 10.883001
  320         h1     11    bbb    H13    320 0.04500300   1.008000   ; qtot 10.928004
  321         h1     11    bbb    H14    321 0.04500300   1.008000   ; qtot 10.973007
  322         c3     11    bbb     C8    322 -0.06455200  12.010000   ; qtot 10.908455
  323         h1     11    bbb    H15    323 0.13554100   1.008000   ; qtot 11.043996
  324         h1     11    bbb    H16    324 0.13554100   1.008000   ; qtot 11.179537
  325         c3     11    bbb     C9    325 -0.06455200  12.010000   ; qtot 11.114985
  326         h1     11    bbb    H17    326 0.13554100   1.008000   ; qtot 11.250526
  327         h1     11    bbb    H18    327 0.13554100   1.008000   ; qtot 11.386067
  328         os     11    bbb     O1    328 -0.62587700  16.000000   ; qtot 10.760190
  329         hn     11    bbb    H19    329 0.23982500   1.008000   ; qtot 11.000015
; residue   12 bbb rtp bbb q 1.0
  330         n4     12    bbb     N1    330 0.03726400  14.010000   ; qtot 11.037279
  331         c3     12    bbb     C1    331 -0.07020100  12.010000   ; qtot 10.967078
  332         hx     12    bbb     H1    332 0.12219000   1.008000   ; qtot 11.089268
  333         hx     12    bbb     H2    333 0.12219000   1.008000   ; qtot 11.211458
  334         c3     12    bbb     C2    334 -0.07020100  12.010000   ; qtot 11.141257
  335         hx     12    bbb     H3    335 0.12219000   1.008000   ; qtot 11.263447
  336         hx     12    bbb     H4    336 0.12219000   1.008000   ; qtot 11.385637
  337         c3     12    bbb     C3    337 -0.39007700  12.010000   ; qtot 10.995560
  338         hx     12    bbb     H5    338 0.14940300   1.008000   ; qtot 11.144963
  339         hx     12    bbb     H6    339 0.14940300   1.008000   ; qtot 11.294366
  340         c3     12    bbb     C4    340 0.18057300  12.010000   ; qtot 11.474939
  341         hc     12    bbb     H7    341 0.01788900   1.008000   ; qtot 11.492828
  342         hc     12    bbb     H8    342 0.01788900   1.008000   ; qtot 11.510717
  343         c3     12    bbb     C5    343 -0.11337700  12.010000   ; qtot 11.397340
  344         hc     12    bbb     H9    344 0.09515400   1.008000   ; qtot 11.492494
  345         hc     12    bbb    H10    345 0.09515400   1.008000   ; qtot 11.587648
  346         c3     12    bbb     C6    346 -0.11337700  12.010000   ; qtot 11.474271
  347         hc     12    bbb    H11    347 0.09515400   1.008000   ; qtot 11.569425
  348         hc     12    bbb    H12    348 0.09515400   1.008000   ; qtot 11.664579
  349         c3     12    bbb     C7    349 0.21842400  12.010000   ; qtot 11.883003
  350         h1     12    bbb    H13    350 0.04500300   1.008000   ; qtot 11.928006
  351         h1     12    bbb    H14    351 0.04500300   1.008000   ; qtot 11.973009
  352         c3     12    bbb     C8    352 -0.06455200  12.010000   ; qtot 11.908457
  353         h1     12    bbb    H15    353 0.13554100   1.008000   ; qtot 12.043998
  354         h1     12    bbb    H16    354 0.13554100   1.008000   ; qtot 12.179539
  355         c3     12    bbb     C9    355 -0.06455200  12.010000   ; qtot 12.114987
  356         h1     12    bbb    H17    356 0.13554100   1.008000   ; qtot 12.250528
  357         h1     12    bbb    H18    357 0.13554100   1.008000   ; qtot 12.386069
  358         os     12    bbb     O1    358 -0.62587700  16.000000   ; qtot 11.760192
  359         hn     12    bbb    H19    359 0.23982500   1.008000   ; qtot 12.000017
; residue   13 bbb rtp bbb q 1.0
  360         n4     13    bbb     N1    360 0.03726400  14.010000   ; qtot 12.037281
  361         c3     13    bbb     C1    361 -0.07020100  12.010000   ; qtot 11.967080
  362         hx     13    bbb     H1    362 0.12219000   1.008000   ; qtot 12.089270
  363         hx     13    bbb     H2    363 0.12219000   1.008000   ; qtot 12.211460
  364         c3     13    bbb     C2    364 -0.07020100  12.010000   ; qtot 12.141259
  365         hx     13    bbb     H3    365 0.12219000   1.008000   ; qtot 12.263449
  366         hx     13    bbb     H4    366 0.12219000   1.008000   ; qtot 12.385639
  367         c3     13    bbb     C3    367 -0.39007700  12.010000   ; qtot 11.995562
  368         hx     13    bbb     H5    368 0.14940300   1.008000   ; qtot 12.144965
  369         hx     13    bbb     H6    369 0.14940300   1.008000   ; qtot 12.294368
  370         c3     13    bbb     C4    370 0.18057300  12.010000   ; qtot 12.474941
  371         hc     13    bbb     H7    371 0.01788900   1.008000   ; qtot 12.492830
  372         hc     13    bbb     H8    372 0.01788900   1.008000   ; qtot 12.510719
  373         c3     13    bbb     C5    373 -0.11337700  12.010000   ; qtot 12.397342
  374         hc     13    bbb     H9    374 0.09515400   1.008000   ; qtot 12.492496
  375         hc     13    bbb    H10    375 0.09515400   1.008000   ; qtot 12.587650
  376         c3     13    bbb     C6    376 -0.11337700  12.010000   ; qtot 12.474273
  377         hc     13    bbb    H11    377 0.09515400   1.008000   ; qtot 12.569427
  378         hc     13    bbb    H12    378 0.09515400   1.008000   ; qtot 12.664581
  379         c3     13    bbb     C7    379 0.21842400  12.010000   ; qtot 12.883005
  380         h1     13    bbb    H13    380 0.04500300   1.008000   ; qtot 12.928008
  381         h1     13    bbb    H14    381 0.04500300   1.008000   ; qtot 12.973011
  382         c3     13    bbb     C8    382 -0.06455200  12.010000   ; qtot 12.908459
  383         h1     13    bbb    H15    383 0.13554100   1.008000   ; qtot 13.044000
  384         h1     13    bbb    H16    384 0.13554100   1.008000   ; qtot 13.179541
  385         c3     13    bbb     C9    385 -0.06455200  12.010000   ; qtot 13.114989
  386         h1     13    bbb    H17    386 0.13554100   1.008000   ; qtot 13.250530
  387         h1     13    bbb    H18    387 0.13554100   1.008000   ; qtot 13.386071
  388         os     13    bbb     O1    388 -0.62587700  16.000000   ; qtot 12.760194
  389         hn     13    bbb    H19    389 0.23982500   1.008000   ; qtot 13.000019
; residue   14 bbb rtp bbb q 1.0
  390         n4     14    bbb     N1    390 0.03726400  14.010000   ; qtot 13.037283
  391         c3     14    bbb     C1    391 -0.07020100  12.010000   ; qtot 12.967082
  392         hx     14    bbb     H1    392 0.12219000   1.008000   ; qtot 13.089272
  393         hx     14    bbb     H2    393 0.12219000   1.008000   ; qtot 13.211462
  394         c3     14    bbb     C2    394 -0.07020100  12.010000   ; qtot 13.141261
  395         hx     14    bbb     H3    395 0.12219000   1.008000   ; qtot 13.263451
  396         hx     14    bbb     H4    396 0.12219000   1.008000   ; qtot 13.385641
  397         c3     14    bbb     C3    397 -0.39007700  12.010000   ; qtot 12.995564
  398         hx     14    bbb     H5    398 0.14940300   1.008000   ; qtot 13.144967
  399         hx     14    bbb     H6    399 0.14940300   1.008000   ; qtot 13.294370
  400         c3     14    bbb     C4    400 0.18057300  12.010000   ; qtot 13.474943
  401         hc     14    bbb     H7    401 0.01788900   1.008000   ; qtot 13.492832
  402         hc     14    bbb     H8    402 0.01788900   1.008000   ; qtot 13.510721
  403         c3     14    bbb     C5    403 -0.11337700  12.010000   ; qtot 13.397344
  404         hc     14    bbb     H9    404 0.09515400   1.008000   ; qtot 13.492498
  405         hc     14    bbb    H10    405 0.09515400   1.008000   ; qtot 13.587652
  406         c3     14    bbb     C6    406 -0.11337700  12.010000   ; qtot 13.474275
  407         hc     14    bbb    H11    407 0.09515400   1.008000   ; qtot 13.569429
  408         hc     14    bbb    H12    408 0.09515400   1.008000   ; qtot 13.664583
  409         c3     14    bbb     C7    409 0.21842400  12.010000   ; qtot 13.883007
  410         h1     14    bbb    H13    410 0.04500300   1.008000   ; qtot 13.928010
  411         h1     14    bbb    H14    411 0.04500300   1.008000   ; qtot 13.973013
  412         c3     14    bbb     C8    412 -0.06455200  12.010000   ; qtot 13.908461
  413         h1     14    bbb    H15    413 0.13554100   1.008000   ; qtot 14.044002
  414         h1     14    bbb    H16    414 0.13554100   1.008000   ; qtot 14.179543
  415         c3     14    bbb     C9    415 -0.06455200  12.010000   ; qtot 14.114991
  416         h1     14    bbb    H17    416 0.13554100   1.008000   ; qtot 14.250532
  417         h1     14    bbb    H18    417 0.13554100   1.008000   ; qtot 14.386073
  418         os     14    bbb     O1    418 -0.62587700  16.000000   ; qtot 13.760196
  419         hn     14    bbb    H19    419 0.23982500   1.008000   ; qtot 14.000021
; residue   15 bbb rtp bbb q 1.0
  420         n4     15    bbb     N1    420 0.03726400  14.010000   ; qtot 14.037285
  421         c3     15    bbb     C1    421 -0.07020100  12.010000   ; qtot 13.967084
  422         hx     15    bbb     H1    422 0.12219000   1.008000   ; qtot 14.089274
  423         hx     15    bbb     H2    423 0.12219000   1.008000   ; qtot 14.211464
  424         c3     15    bbb     C2    424 -0.07020100  12.010000   ; qtot 14.141263
  425         hx     15    bbb     H3    425 0.12219000   1.008000   ; qtot 14.263453
  426         hx     15    bbb     H4    426 0.12219000   1.008000   ; qtot 14.385643
  427         c3     15    bbb     C3    427 -0.39007700  12.010000   ; qtot 13.995566
  428         hx     15    bbb     H5    428 0.14940300   1.008000   ; qtot 14.144969
  429         hx     15    bbb     H6    429 0.14940300   1.008000   ; qtot 14.294372
  430         c3     15    bbb     C4    430 0.18057300  12.010000   ; qtot 14.474945
  431         hc     15    bbb     H7    431 0.01788900   1.008000   ; qtot 14.492834
  432         hc     15    bbb     H8    432 0.01788900   1.008000   ; qtot 14.510723
  433         c3     15    bbb     C5    433 -0.11337700  12.010000   ; qtot 14.397346
  434         hc     15    bbb     H9    434 0.09515400   1.008000   ; qtot 14.492500
  435         hc     15    bbb    H10    435 0.09515400   1.008000   ; qtot 14.587654
  436         c3     15    bbb     C6    436 -0.11337700  12.010000   ; qtot 14.474277
  437         hc     15    bbb    H11    437 0.09515400   1.008000   ; qtot 14.569431
  438         hc     15    bbb    H12    438 0.09515400   1.008000   ; qtot 14.664585
  439         c3     15    bbb     C7    439 0.21842400  12.010000   ; qtot 14.883009
  440         h1     15    bbb    H13    440 0.04500300   1.008000   ; qtot 14.928012
  441         h1     15    bbb    H14    441 0.04500300   1.008000   ; qtot 14.973015
  442         c3     15    bbb     C8    442 -0.06455200  12.010000   ; qtot 14.908463
  443         h1     15    bbb    H15    443 0.13554100   1.008000   ; qtot 15.044004
  444         h1     15    bbb    H16    444 0.13554100   1.008000   ; qtot 15.179545
  445         c3     15    bbb     C9    445 -0.06455200  12.010000   ; qtot 15.114993
  446         h1     15    bbb    H17    446 0.13554100   1.008000   ; qtot 15.250534
  447         h1     15    bbb    H18    447 0.13554100   1.008000   ; qtot 15.386075
  448         os     15    bbb     O1    448 -0.62587700  16.000000   ; qtot 14.760198
  449         hn     15    bbb    H19    449 0.23982500   1.008000   ; qtot 15.000023
; residue   16 bbb rtp bbb q 1.0
  450         n4     16    bbb     N1    450 0.03726400  14.010000   ; qtot 15.037287
  451         c3     16    bbb     C1    451 -0.07020100  12.010000   ; qtot 14.967086
  452         hx     16    bbb     H1    452 0.12219000   1.008000   ; qtot 15.089276
  453         hx     16    bbb     H2    453 0.12219000   1.008000   ; qtot 15.211466
  454         c3     16    bbb     C2    454 -0.07020100  12.010000   ; qtot 15.141265
  455         hx     16    bbb     H3    455 0.12219000   1.008000   ; qtot 15.263455
  456         hx     16    bbb     H4    456 0.12219000   1.008000   ; qtot 15.385645
  457         c3     16    bbb     C3    457 -0.39007700  12.010000   ; qtot 14.995568
  458         hx     16    bbb     H5    458 0.14940300   1.008000   ; qtot 15.144971
  459         hx     16    bbb     H6    459 0.14940300   1.008000   ; qtot 15.294374
  460         c3     16    bbb     C4    460 0.18057300  12.010000   ; qtot 15.474947
  461         hc     16    bbb     H7    461 0.01788900   1.008000   ; qtot 15.492836
  462         hc     16    bbb     H8    462 0.01788900   1.008000   ; qtot 15.510725
  463         c3     16    bbb     C5    463 -0.11337700  12.010000   ; qtot 15.397348
  464         hc     16    bbb     H9    464 0.09515400   1.008000   ; qtot 15.492502
  465         hc     16    bbb    H10    465 0.09515400   1.008000   ; qtot 15.587656
  466         c3     16    bbb     C6    466 -0.11337700  12.010000   ; qtot 15.474279
  467         hc     16    bbb    H11    467 0.09515400   1.008000   ; qtot 15.569433
  468         hc     16    bbb    H12    468 0.09515400   1.008000   ; qtot 15.664587
  469         c3     16    bbb     C7    469 0.21842400  12.010000   ; qtot 15.883011
  470         h1     16    bbb    H13    470 0.04500300   1.008000   ; qtot 15.928014
  471         h1     16    bbb    H14    471 0.04500300   1.008000   ; qtot 15.973017
  472         c3     16    bbb     C8    472 -0.06455200  12.010000   ; qtot 15.908465
  473         h1     16    bbb    H15    473 0.13554100   1.008000   ; qtot 16.044006
  474         h1     16    bbb    H16    474 0.13554100   1.008000   ; qtot 16.179547
  475         c3     16    bbb     C9    475 -0.06455200  12.010000   ; qtot 16.114995
  476         h1     16    bbb    H17    476 0.13554100   1.008000   ; qtot 16.250536
  477         h1     16    bbb    H18    477 0.13554100   1.008000   ; qtot 16.386077
  478         os     16    bbb     O1    478 -0.62587700  16.000000   ; qtot 15.760200
  479         hn     16    bbb    H19    479 0.23982500   1.008000   ; qtot 16.000025
; residue   17 bbb rtp bbb q 1.0
  480         n4     17    bbb     N1    480 0.03726400  14.010000   ; qtot 16.037289
  481         c3     17    bbb     C1    481 -0.07020100  12.010000   ; qtot 15.967088
  482         hx     17    bbb     H1    482 0.12219000   1.008000   ; qtot 16.089278
  483         hx     17    bbb     H2    483 0.12219000   1.008000   ; qtot 16.211468
  484         c3     17    bbb     C2    484 -0.07020100  12.010000   ; qtot 16.141267
  485         hx     17    bbb     H3    485 0.12219000   1.008000   ; qtot 16.263457
  486         hx     17    bbb     H4    486 0.12219000   1.008000   ; qtot 16.385647
  487         c3     17    bbb     C3    487 -0.39007700  12.010000   ; qtot 15.995570
  488         hx     17    bbb     H5    488 0.14940300   1.008000   ; qtot 16.144973
  489         hx     17    bbb     H6    489 0.14940300   1.008000   ; qtot 16.294376
  490         c3     17    bbb     C4    490 0.18057300  12.010000   ; qtot 16.474949
  491         hc     17    bbb     H7    491 0.01788900   1.008000   ; qtot 16.492838
  492         hc     17    bbb     H8    492 0.01788900   1.008000   ; qtot 16.510727
  493         c3     17    bbb     C5    493 -0.11337700  12.010000   ; qtot 16.397350
  494         hc     17    bbb     H9    494 0.09515400   1.008000   ; qtot 16.492504
  495         hc     17    bbb    H10    495 0.09515400   1.008000   ; qtot 16.587658
  496         c3     17    bbb     C6    496 -0.11337700  12.010000   ; qtot 16.474281
  497         hc     17    bbb    H11    497 0.09515400   1.008000   ; qtot 16.569435
  498         hc     17    bbb    H12    498 0.09515400   1.008000   ; qtot 16.664589
  499         c3     17    bbb     C7    499 0.21842400  12.010000   ; qtot 16.883013
  500         h1     17    bbb    H13    500 0.04500300   1.008000   ; qtot 16.928016
  501         h1     17    bbb    H14    501 0.04500300   1.008000   ; qtot 16.973019
  502         c3     17    bbb     C8    502 -0.06455200  12.010000   ; qtot 16.908467
  503         h1     17    bbb    H15    503 0.13554100   1.008000   ; qtot 17.044008
  504         h1     17    bbb    H16    504 0.13554100   1.008000   ; qtot 17.179549
  505         c3     17    bbb     C9    505 -0.06455200  12.010000   ; qtot 17.114997
  506         h1     17    bbb    H17    506 0.13554100   1.008000   ; qtot 17.250538
  507         h1     17    bbb    H18    507 0.13554100   1.008000   ; qtot 17.386079
  508         os     17    bbb     O1    508 -0.62587700  16.000000   ; qtot 16.760202
  509         hn     17    bbb    H19    509 0.23982500   1.008000   ; qtot 17.000027
; residue   18 bbb rtp bbb q 1.0
  510         n4     18    bbb     N1    510 0.03726400  14.010000   ; qtot 17.037291
  511         c3     18    bbb     C1    511 -0.07020100  12.010000   ; qtot 16.967090
  512         hx     18    bbb     H1    512 0.12219000   1.008000   ; qtot 17.089280
  513         hx     18    bbb     H2    513 0.12219000   1.008000   ; qtot 17.211470
  514         c3     18    bbb     C2    514 -0.07020100  12.010000   ; qtot 17.141269
  515         hx     18    bbb     H3    515 0.12219000   1.008000   ; qtot 17.263459
  516         hx     18    bbb     H4    516 0.12219000   1.008000   ; qtot 17.385649
  517         c3     18    bbb     C3    517 -0.39007700  12.010000   ; qtot 16.995572
  518         hx     18    bbb     H5    518 0.14940300   1.008000   ; qtot 17.144975
  519         hx     18    bbb     H6    519 0.14940300   1.008000   ; qtot 17.294378
  520         c3     18    bbb     C4    520 0.18057300  12.010000   ; qtot 17.474951
  521         hc     18    bbb     H7    521 0.01788900   1.008000   ; qtot 17.492840
  522         hc     18    bbb     H8    522 0.01788900   1.008000   ; qtot 17.510729
  523         c3     18    bbb     C5    523 -0.11337700  12.010000   ; qtot 17.397352
  524         hc     18    bbb     H9    524 0.09515400   1.008000   ; qtot 17.492506
  525         hc     18    bbb    H10    525 0.09515400   1.008000   ; qtot 17.587660
  526         c3     18    bbb     C6    526 -0.11337700  12.010000   ; qtot 17.474283
  527         hc     18    bbb    H11    527 0.09515400   1.008000   ; qtot 17.569437
  528         hc     18    bbb    H12    528 0.09515400   1.008000   ; qtot 17.664591
  529         c3     18    bbb     C7    529 0.21842400  12.010000   ; qtot 17.883015
  530         h1     18    bbb    H13    530 0.04500300   1.008000   ; qtot 17.928018
  531         h1     18    bbb    H14    531 0.04500300   1.008000   ; qtot 17.973021
  532         c3     18    bbb     C8    532 -0.06455200  12.010000   ; qtot 17.908469
  533         h1     18    bbb    H15    533 0.13554100   1.008000   ; qtot 18.044010
  534         h1     18    bbb    H16    534 0.13554100   1.008000   ; qtot 18.179551
  535         c3     18    bbb     C9    535 -0.06455200  12.010000   ; qtot 18.114999
  536         h1     18    bbb    H17    536 0.13554100   1.008000   ; qtot 18.250540
  537         h1     18    bbb    H18    537 0.13554100   1.008000   ; qtot 18.386081
  538         os     18    bbb     O1    538 -0.62587700  16.000000   ; qtot 17.760204
  539         hn     18    bbb    H19    539 0.23982500   1.008000   ; qtot 18.000029
; residue   19 bbb rtp bbb q 1.0
  540         n4     19    bbb     N1    540 0.03726400  14.010000   ; qtot 18.037293
  541         c3     19    bbb     C1    541 -0.07020100  12.010000   ; qtot 17.967092
  542         hx     19    bbb     H1    542 0.12219000   1.008000   ; qtot 18.089282
  543         hx     19    bbb     H2    543 0.12219000   1.008000   ; qtot 18.211472
  544         c3     19    bbb     C2    544 -0.07020100  12.010000   ; qtot 18.141271
  545         hx     19    bbb     H3    545 0.12219000   1.008000   ; qtot 18.263461
  546         hx     19    bbb     H4    546 0.12219000   1.008000   ; qtot 18.385651
  547         c3     19    bbb     C3    547 -0.39007700  12.010000   ; qtot 17.995574
  548         hx     19    bbb     H5    548 0.14940300   1.008000   ; qtot 18.144977
  549         hx     19    bbb     H6    549 0.14940300   1.008000   ; qtot 18.294380
  550         c3     19    bbb     C4    550 0.18057300  12.010000   ; qtot 18.474953
  551         hc     19    bbb     H7    551 0.01788900   1.008000   ; qtot 18.492842
  552         hc     19    bbb     H8    552 0.01788900   1.008000   ; qtot 18.510731
  553         c3     19    bbb     C5    553 -0.11337700  12.010000   ; qtot 18.397354
  554         hc     19    bbb     H9    554 0.09515400   1.008000   ; qtot 18.492508
  555         hc     19    bbb    H10    555 0.09515400   1.008000   ; qtot 18.587662
  556         c3     19    bbb     C6    556 -0.11337700  12.010000   ; qtot 18.474285
  557         hc     19    bbb    H11    557 0.09515400   1.008000   ; qtot 18.569439
  558         hc     19    bbb    H12    558 0.09515400   1.008000   ; qtot 18.664593
  559         c3     19    bbb     C7    559 0.21842400  12.010000   ; qtot 18.883017
  560         h1     19    bbb    H13    560 0.04500300   1.008000   ; qtot 18.928020
  561         h1     19    bbb    H14    561 0.04500300   1.008000   ; qtot 18.973023
  562         c3     19    bbb     C8    562 -0.06455200  12.010000   ; qtot 18.908471
  563         h1     19    bbb    H15    563 0.13554100   1.008000   ; qtot 19.044012
  564         h1     19    bbb    H16    564 0.13554100   1.008000   ; qtot 19.179553
  565         c3     19    bbb     C9    565 -0.06455200  12.010000   ; qtot 19.115001
  566         h1     19    bbb    H17    566 0.13554100   1.008000   ; qtot 19.250542
  567         h1     19    bbb    H18    567 0.13554100   1.008000   ; qtot 19.386083
  568         os     19    bbb     O1    568 -0.62587700  16.000000   ; qtot 18.760206
  569         hn     19    bbb    H19    569 0.23982500   1.008000   ; qtot 19.000031
; residue   20 bbb rtp bbb q 1.0
  570         n4     20    bbb     N1    570 0.03726400  14.010000   ; qtot 19.037295
  571         c3     20    bbb     C1    571 -0.07020100  12.010000   ; qtot 18.967094
  572         hx     20    bbb     H1    572 0.12219000   1.008000   ; qtot 19.089284
  573         hx     20    bbb     H2    573 0.12219000   1.008000   ; qtot 19.211474
  574         c3     20    bbb     C2    574 -0.07020100  12.010000   ; qtot 19.141273
  575         hx     20    bbb     H3    575 0.12219000   1.008000   ; qtot 19.263463
  576         hx     20    bbb     H4    576 0.12219000   1.008000   ; qtot 19.385653
  577         c3     20    bbb     C3    577 -0.39007700  12.010000   ; qtot 18.995576
  578         hx     20    bbb     H5    578 0.14940300   1.008000   ; qtot 19.144979
  579         hx     20    bbb     H6    579 0.14940300   1.008000   ; qtot 19.294382
  580         c3     20    bbb     C4    580 0.18057300  12.010000   ; qtot 19.474955
  581         hc     20    bbb     H7    581 0.01788900   1.008000   ; qtot 19.492844
  582         hc     20    bbb     H8    582 0.01788900   1.008000   ; qtot 19.510733
  583         c3     20    bbb     C5    583 -0.11337700  12.010000   ; qtot 19.397356
  584         hc     20    bbb     H9    584 0.09515400   1.008000   ; qtot 19.492510
  585         hc     20    bbb    H10    585 0.09515400   1.008000   ; qtot 19.587664
  586         c3     20    bbb     C6    586 -0.11337700  12.010000   ; qtot 19.474287
  587         hc     20    bbb    H11    587 0.09515400   1.008000   ; qtot 19.569441
  588         hc     20    bbb    H12    588 0.09515400   1.008000   ; qtot 19.664595
  589         c3     20    bbb     C7    589 0.21842400  12.010000   ; qtot 19.883019
  590         h1     20    bbb    H13    590 0.04500300   1.008000   ; qtot 19.928022
  591         h1     20    bbb    H14    591 0.04500300   1.008000   ; qtot 19.973025
  592         c3     20    bbb     C8    592 -0.06455200  12.010000   ; qtot 19.908473
  593         h1     20    bbb    H15    593 0.13554100   1.008000   ; qtot 20.044014
  594         h1     20    bbb    H16    594 0.13554100   1.008000   ; qtot 20.179555
  595         c3     20    bbb     C9    595 -0.06455200  12.010000   ; qtot 20.115003
  596         h1     20    bbb    H17    596 0.13554100   1.008000   ; qtot 20.250544
  597         h1     20    bbb    H18    597 0.13554100   1.008000   ; qtot 20.386085
  598         os     20    bbb     O1    598 -0.62587700  16.000000   ; qtot 19.760208
  599         hn     20    bbb    H19    599 0.23982500   1.008000   ; qtot 20.000033
; residue   21 bbb rtp bbb q 1.0
  600         n4     21    bbb     N1    600 0.03726400  14.010000   ; qtot 20.037297
  601         c3     21    bbb     C1    601 -0.07020100  12.010000   ; qtot 19.967096
  602         hx     21    bbb     H1    602 0.12219000   1.008000   ; qtot 20.089286
  603         hx     21    bbb     H2    603 0.12219000   1.008000   ; qtot 20.211476
  604         c3     21    bbb     C2    604 -0.07020100  12.010000   ; qtot 20.141275
  605         hx     21    bbb     H3    605 0.12219000   1.008000   ; qtot 20.263465
  606         hx     21    bbb     H4    606 0.12219000   1.008000   ; qtot 20.385655
  607         c3     21    bbb     C3    607 -0.39007700  12.010000   ; qtot 19.995578
  608         hx     21    bbb     H5    608 0.14940300   1.008000   ; qtot 20.144981
  609         hx     21    bbb     H6    609 0.14940300   1.008000   ; qtot 20.294384
  610         c3     21    bbb     C4    610 0.18057300  12.010000   ; qtot 20.474957
  611         hc     21    bbb     H7    611 0.01788900   1.008000   ; qtot 20.492846
  612         hc     21    bbb     H8    612 0.01788900   1.008000   ; qtot 20.510735
  613         c3     21    bbb     C5    613 -0.11337700  12.010000   ; qtot 20.397358
  614         hc     21    bbb     H9    614 0.09515400   1.008000   ; qtot 20.492512
  615         hc     21    bbb    H10    615 0.09515400   1.008000   ; qtot 20.587666
  616         c3     21    bbb     C6    616 -0.11337700  12.010000   ; qtot 20.474289
  617         hc     21    bbb    H11    617 0.09515400   1.008000   ; qtot 20.569443
  618         hc     21    bbb    H12    618 0.09515400   1.008000   ; qtot 20.664597
  619         c3     21    bbb     C7    619 0.21842400  12.010000   ; qtot 20.883021
  620         h1     21    bbb    H13    620 0.04500300   1.008000   ; qtot 20.928024
  621         h1     21    bbb    H14    621 0.04500300   1.008000   ; qtot 20.973027
  622         c3     21    bbb     C8    622 -0.06455200  12.010000   ; qtot 20.908475
  623         h1     21    bbb    H15    623 0.13554100   1.008000   ; qtot 21.044016
  624         h1     21    bbb    H16    624 0.13554100   1.008000   ; qtot 21.179557
  625         c3     21    bbb     C9    625 -0.06455200  12.010000   ; qtot 21.115005
  626         h1     21    bbb    H17    626 0.13554100   1.008000   ; qtot 21.250546
  627         h1     21    bbb    H18    627 0.13554100   1.008000   ; qtot 21.386087
  628         os     21    bbb     O1    628 -0.62587700  16.000000   ; qtot 20.760210
  629         hn     21    bbb    H19    629 0.23982500   1.008000   ; qtot 21.000035
; residue   22 bbb rtp bbb q 1.0
  630         n4     22    bbb     N1    630 0.03726400  14.010000   ; qtot 21.037299
  631         c3     22    bbb     C1    631 -0.07020100  12.010000   ; qtot 20.967098
  632         hx     22    bbb     H1    632 0.12219000   1.008000   ; qtot 21.089288
  633         hx     22    bbb     H2    633 0.12219000   1.008000   ; qtot 21.211478
  634         c3     22    bbb     C2    634 -0.07020100  12.010000   ; qtot 21.141277
  635         hx     22    bbb     H3    635 0.12219000   1.008000   ; qtot 21.263467
  636         hx     22    bbb     H4    636 0.12219000   1.008000   ; qtot 21.385657
  637         c3     22    bbb     C3    637 -0.39007700  12.010000   ; qtot 20.995580
  638         hx     22    bbb     H5    638 0.14940300   1.008000   ; qtot 21.144983
  639         hx     22    bbb     H6    639 0.14940300   1.008000   ; qtot 21.294386
  640         c3     22    bbb     C4    640 0.18057300  12.010000   ; qtot 21.474959
  641         hc     22    bbb     H7    641 0.01788900   1.008000   ; qtot 21.492848
  642         hc     22    bbb     H8    642 0.01788900   1.008000   ; qtot 21.510737
  643         c3     22    bbb     C5    643 -0.11337700  12.010000   ; qtot 21.397360
  644         hc     22    bbb     H9    644 0.09515400   1.008000   ; qtot 21.492514
  645         hc     22    bbb    H10    645 0.09515400   1.008000   ; qtot 21.587668
  646         c3     22    bbb     C6    646 -0.11337700  12.010000   ; qtot 21.474291
  647         hc     22    bbb    H11    647 0.09515400   1.008000   ; qtot 21.569445
  648         hc     22    bbb    H12    648 0.09515400   1.008000   ; qtot 21.664599
  649         c3     22    bbb     C7    649 0.21842400  12.010000   ; qtot 21.883023
  650         h1     22    bbb    H13    650 0.04500300   1.008000   ; qtot 21.928026
  651         h1     22    bbb    H14    651 0.04500300   1.008000   ; qtot 21.973029
  652         c3     22    bbb     C8    652 -0.06455200  12.010000   ; qtot 21.908477
  653         h1     22    bbb    H15    653 0.13554100   1.008000   ; qtot 22.044018
  654         h1     22    bbb    H16    654 0.13554100   1.008000   ; qtot 22.179559
  655         c3     22    bbb     C9    655 -0.06455200  12.010000   ; qtot 22.115007
  656         h1     22    bbb    H17    656 0.13554100   1.008000   ; qtot 22.250548
  657         h1     22    bbb    H18    657 0.13554100   1.008000   ; qtot 22.386089
  658         os     22    bbb     O1    658 -0.62587700  16.000000   ; qtot 21.760212
  659         hn     22    bbb    H19    659 0.23982500   1.008000   ; qtot 22.000037
; residue   23 bbb rtp bbb q 1.0
  660         n4     23    bbb     N1    660 0.03726400  14.010000   ; qtot 22.037301
  661         c3     23    bbb     C1    661 -0.07020100  12.010000   ; qtot 21.967100
  662         hx     23    bbb     H1    662 0.12219000   1.008000   ; qtot 22.089290
  663         hx     23    bbb     H2    663 0.12219000   1.008000   ; qtot 22.211480
  664         c3     23    bbb     C2    664 -0.07020100  12.010000   ; qtot 22.141279
  665         hx     23    bbb     H3    665 0.12219000   1.008000   ; qtot 22.263469
  666         hx     23    bbb     H4    666 0.12219000   1.008000   ; qtot 22.385659
  667         c3     23    bbb     C3    667 -0.39007700  12.010000   ; qtot 21.995582
  668         hx     23    bbb     H5    668 0.14940300   1.008000   ; qtot 22.144985
  669         hx     23    bbb     H6    669 0.14940300   1.008000   ; qtot 22.294388
  670         c3     23    bbb     C4    670 0.18057300  12.010000   ; qtot 22.474961
  671         hc     23    bbb     H7    671 0.01788900   1.008000   ; qtot 22.492850
  672         hc     23    bbb     H8    672 0.01788900   1.008000   ; qtot 22.510739
  673         c3     23    bbb     C5    673 -0.11337700  12.010000   ; qtot 22.397362
  674         hc     23    bbb     H9    674 0.09515400   1.008000   ; qtot 22.492516
  675         hc     23    bbb    H10    675 0.09515400   1.008000   ; qtot 22.587670
  676         c3     23    bbb     C6    676 -0.11337700  12.010000   ; qtot 22.474293
  677         hc     23    bbb    H11    677 0.09515400   1.008000   ; qtot 22.569447
  678         hc     23    bbb    H12    678 0.09515400   1.008000   ; qtot 22.664601
  679         c3     23    bbb     C7    679 0.21842400  12.010000   ; qtot 22.883025
  680         h1     23    bbb    H13    680 0.04500300   1.008000   ; qtot 22.928028
  681         h1     23    bbb    H14    681 0.04500300   1.008000   ; qtot 22.973031
  682         c3     23    bbb     C8    682 -0.06455200  12.010000   ; qtot 22.908479
  683         h1     23    bbb    H15    683 0.13554100   1.008000   ; qtot 23.044020
  684         h1     23    bbb    H16    684 0.13554100   1.008000   ; qtot 23.179561
  685         c3     23    bbb     C9    685 -0.06455200  12.010000   ; qtot 23.115009
  686         h1     23    bbb    H17    686 0.13554100   1.008000   ; qtot 23.250550
  687         h1     23    bbb    H18    687 0.13554100   1.008000   ; qtot 23.386091
  688         os     23    bbb     O1    688 -0.62587700  16.000000   ; qtot 22.760214
  689         hn     23    bbb    H19    689 0.23982500   1.008000   ; qtot 23.000039
; residue   24 bbb rtp bbb q 1.0
  690         n4     24    bbb     N1    690 0.03726400  14.010000   ; qtot 23.037303
  691         c3     24    bbb     C1    691 -0.07020100  12.010000   ; qtot 22.967102
  692         hx     24    bbb     H1    692 0.12219000   1.008000   ; qtot 23.089292
  693         hx     24    bbb     H2    693 0.12219000   1.008000   ; qtot 23.211482
  694         c3     24    bbb     C2    694 -0.07020100  12.010000   ; qtot 23.141281
  695         hx     24    bbb     H3    695 0.12219000   1.008000   ; qtot 23.263471
  696         hx     24    bbb     H4    696 0.12219000   1.008000   ; qtot 23.385661
  697         c3     24    bbb     C3    697 -0.39007700  12.010000   ; qtot 22.995584
  698         hx     24    bbb     H5    698 0.14940300   1.008000   ; qtot 23.144987
  699         hx     24    bbb     H6    699 0.14940300   1.008000   ; qtot 23.294390
  700         c3     24    bbb     C4    700 0.18057300  12.010000   ; qtot 23.474963
  701         hc     24    bbb     H7    701 0.01788900   1.008000   ; qtot 23.492852
  702         hc     24    bbb     H8    702 0.01788900   1.008000   ; qtot 23.510741
  703         c3     24    bbb     C5    703 -0.11337700  12.010000   ; qtot 23.397364
  704         hc     24    bbb     H9    704 0.09515400   1.008000   ; qtot 23.492518
  705         hc     24    bbb    H10    705 0.09515400   1.008000   ; qtot 23.587672
  706         c3     24    bbb     C6    706 -0.11337700  12.010000   ; qtot 23.474295
  707         hc     24    bbb    H11    707 0.09515400   1.008000   ; qtot 23.569449
  708         hc     24    bbb    H12    708 0.09515400   1.008000   ; qtot 23.664603
  709         c3     24    bbb     C7    709 0.21842400  12.010000   ; qtot 23.883027
  710         h1     24    bbb    H13    710 0.04500300   1.008000   ; qtot 23.928030
  711         h1     24    bbb    H14    711 0.04500300   1.008000   ; qtot 23.973033
  712         c3     24    bbb     C8    712 -0.06455200  12.010000   ; qtot 23.908481
  713         h1     24    bbb    H15    713 0.13554100   1.008000   ; qtot 24.044022
  714         h1     24    bbb    H16    714 0.13554100   1.008000   ; qtot 24.179563
  715         c3     24    bbb     C9    715 -0.06455200  12.010000   ; qtot 24.115011
  716         h1     24    bbb    H17    716 0.13554100   1.008000   ; qtot 24.250552
  717         h1     24    bbb    H18    717 0.13554100   1.008000   ; qtot 24.386093
  718         os     24    bbb     O1    718 -0.62587700  16.000000   ; qtot 23.760216
  719         hn     24    bbb    H19    719 0.23982500   1.008000   ; qtot 24.000041
; residue   25 bbb rtp bbb q 1.0
  720         n4     25    bbb     N1    720 0.03726400  14.010000   ; qtot 24.037305
  721         c3     25    bbb     C1    721 -0.07020100  12.010000   ; qtot 23.967104
  722         hx     25    bbb     H1    722 0.12219000   1.008000   ; qtot 24.089294
  723         hx     25    bbb     H2    723 0.12219000   1.008000   ; qtot 24.211484
  724         c3     25    bbb     C2    724 -0.07020100  12.010000   ; qtot 24.141283
  725         hx     25    bbb     H3    725 0.12219000   1.008000   ; qtot 24.263473
  726         hx     25    bbb     H4    726 0.12219000   1.008000   ; qtot 24.385663
  727         c3     25    bbb     C3    727 -0.39007700  12.010000   ; qtot 23.995586
  728         hx     25    bbb     H5    728 0.14940300   1.008000   ; qtot 24.144989
  729         hx     25    bbb     H6    729 0.14940300   1.008000   ; qtot 24.294392
  730         c3     25    bbb     C4    730 0.18057300  12.010000   ; qtot 24.474965
  731         hc     25    bbb     H7    731 0.01788900   1.008000   ; qtot 24.492854
  732         hc     25    bbb     H8    732 0.01788900   1.008000   ; qtot 24.510743
  733         c3     25    bbb     C5    733 -0.11337700  12.010000   ; qtot 24.397366
  734         hc     25    bbb     H9    734 0.09515400   1.008000   ; qtot 24.492520
  735         hc     25    bbb    H10    735 0.09515400   1.008000   ; qtot 24.587674
  736         c3     25    bbb     C6    736 -0.11337700  12.010000   ; qtot 24.474297
  737         hc     25    bbb    H11    737 0.09515400   1.008000   ; qtot 24.569451
  738         hc     25    bbb    H12    738 0.09515400   1.008000   ; qtot 24.664605
  739         c3     25    bbb     C7    739 0.21842400  12.010000   ; qtot 24.883029
  740         h1     25    bbb    H13    740 0.04500300   1.008000   ; qtot 24.928032
  741         h1     25    bbb    H14    741 0.04500300   1.008000   ; qtot 24.973035
  742         c3     25    bbb     C8    742 -0.06455200  12.010000   ; qtot 24.908483
  743         h1     25    bbb    H15    743 0.13554100   1.008000   ; qtot 25.044024
  744         h1     25    bbb    H16    744 0.13554100   1.008000   ; qtot 25.179565
  745         c3     25    bbb     C9    745 -0.06455200  12.010000   ; qtot 25.115013
  746         h1     25    bbb    H17    746 0.13554100   1.008000   ; qtot 25.250554
  747         h1     25    bbb    H18    747 0.13554100   1.008000   ; qtot 25.386095
  748         os     25    bbb     O1    748 -0.62587700  16.000000   ; qtot 24.760218
  749         hn     25    bbb    H19    749 0.23982500   1.008000   ; qtot 25.000043
; residue   26 bbb rtp bbb q 1.0
  750         n4     26    bbb     N1    750 0.03726400  14.010000   ; qtot 25.037307
  751         c3     26    bbb     C1    751 -0.07020100  12.010000   ; qtot 24.967106
  752         hx     26    bbb     H1    752 0.12219000   1.008000   ; qtot 25.089296
  753         hx     26    bbb     H2    753 0.12219000   1.008000   ; qtot 25.211486
  754         c3     26    bbb     C2    754 -0.07020100  12.010000   ; qtot 25.141285
  755         hx     26    bbb     H3    755 0.12219000   1.008000   ; qtot 25.263475
  756         hx     26    bbb     H4    756 0.12219000   1.008000   ; qtot 25.385665
  757         c3     26    bbb     C3    757 -0.39007700  12.010000   ; qtot 24.995588
  758         hx     26    bbb     H5    758 0.14940300   1.008000   ; qtot 25.144991
  759         hx     26    bbb     H6    759 0.14940300   1.008000   ; qtot 25.294394
  760         c3     26    bbb     C4    760 0.18057300  12.010000   ; qtot 25.474967
  761         hc     26    bbb     H7    761 0.01788900   1.008000   ; qtot 25.492856
  762         hc     26    bbb     H8    762 0.01788900   1.008000   ; qtot 25.510745
  763         c3     26    bbb     C5    763 -0.11337700  12.010000   ; qtot 25.397368
  764         hc     26    bbb     H9    764 0.09515400   1.008000   ; qtot 25.492522
  765         hc     26    bbb    H10    765 0.09515400   1.008000   ; qtot 25.587676
  766         c3     26    bbb     C6    766 -0.11337700  12.010000   ; qtot 25.474299
  767         hc     26    bbb    H11    767 0.09515400   1.008000   ; qtot 25.569453
  768         hc     26    bbb    H12    768 0.09515400   1.008000   ; qtot 25.664607
  769         c3     26    bbb     C7    769 0.21842400  12.010000   ; qtot 25.883031
  770         h1     26    bbb    H13    770 0.04500300   1.008000   ; qtot 25.928034
  771         h1     26    bbb    H14    771 0.04500300   1.008000   ; qtot 25.973037
  772         c3     26    bbb     C8    772 -0.06455200  12.010000   ; qtot 25.908485
  773         h1     26    bbb    H15    773 0.13554100   1.008000   ; qtot 26.044026
  774         h1     26    bbb    H16    774 0.13554100   1.008000   ; qtot 26.179567
  775         c3     26    bbb     C9    775 -0.06455200  12.010000   ; qtot 26.115015
  776         h1     26    bbb    H17    776 0.13554100   1.008000   ; qtot 26.250556
  777         h1     26    bbb    H18    777 0.13554100   1.008000   ; qtot 26.386097
  778         os     26    bbb     O1    778 -0.62587700  16.000000   ; qtot 25.760220
  779         hn     26    bbb    H19    779 0.23982500   1.008000   ; qtot 26.000045
; residue   27 bbb rtp bbb q 1.0
  780         n4     27    bbb     N1    780 0.03726400  14.010000   ; qtot 26.037309
  781         c3     27    bbb     C1    781 -0.07020100  12.010000   ; qtot 25.967108
  782         hx     27    bbb     H1    782 0.12219000   1.008000   ; qtot 26.089298
  783         hx     27    bbb     H2    783 0.12219000   1.008000   ; qtot 26.211488
  784         c3     27    bbb     C2    784 -0.07020100  12.010000   ; qtot 26.141287
  785         hx     27    bbb     H3    785 0.12219000   1.008000   ; qtot 26.263477
  786         hx     27    bbb     H4    786 0.12219000   1.008000   ; qtot 26.385667
  787         c3     27    bbb     C3    787 -0.39007700  12.010000   ; qtot 25.995590
  788         hx     27    bbb     H5    788 0.14940300   1.008000   ; qtot 26.144993
  789         hx     27    bbb     H6    789 0.14940300   1.008000   ; qtot 26.294396
  790         c3     27    bbb     C4    790 0.18057300  12.010000   ; qtot 26.474969
  791         hc     27    bbb     H7    791 0.01788900   1.008000   ; qtot 26.492858
  792         hc     27    bbb     H8    792 0.01788900   1.008000   ; qtot 26.510747
  793         c3     27    bbb     C5    793 -0.11337700  12.010000   ; qtot 26.397370
  794         hc     27    bbb     H9    794 0.09515400   1.008000   ; qtot 26.492524
  795         hc     27    bbb    H10    795 0.09515400   1.008000   ; qtot 26.587678
  796         c3     27    bbb     C6    796 -0.11337700  12.010000   ; qtot 26.474301
  797         hc     27    bbb    H11    797 0.09515400   1.008000   ; qtot 26.569455
  798         hc     27    bbb    H12    798 0.09515400   1.008000   ; qtot 26.664609
  799         c3     27    bbb     C7    799 0.21842400  12.010000   ; qtot 26.883033
  800         h1     27    bbb    H13    800 0.04500300   1.008000   ; qtot 26.928036
  801         h1     27    bbb    H14    801 0.04500300   1.008000   ; qtot 26.973039
  802         c3     27    bbb     C8    802 -0.06455200  12.010000   ; qtot 26.908487
  803         h1     27    bbb    H15    803 0.13554100   1.008000   ; qtot 27.044028
  804         h1     27    bbb    H16    804 0.13554100   1.008000   ; qtot 27.179569
  805         c3     27    bbb     C9    805 -0.06455200  12.010000   ; qtot 27.115017
  806         h1     27    bbb    H17    806 0.13554100   1.008000   ; qtot 27.250558
  807         h1     27    bbb    H18    807 0.13554100   1.008000   ; qtot 27.386099
  808         os     27    bbb     O1    808 -0.62587700  16.000000   ; qtot 26.760222
  809         hn     27    bbb    H19    809 0.23982500   1.008000   ; qtot 27.000047
; residue   28 bbb rtp bbb q 1.0
  810         n4     28    bbb     N1    810 0.03726400  14.010000   ; qtot 27.037311
  811         c3     28    bbb     C1    811 -0.07020100  12.010000   ; qtot 26.967110
  812         hx     28    bbb     H1    812 0.12219000   1.008000   ; qtot 27.089300
  813         hx     28    bbb     H2    813 0.12219000   1.008000   ; qtot 27.211490
  814         c3     28    bbb     C2    814 -0.07020100  12.010000   ; qtot 27.141289
  815         hx     28    bbb     H3    815 0.12219000   1.008000   ; qtot 27.263479
  816         hx     28    bbb     H4    816 0.12219000   1.008000   ; qtot 27.385669
  817         c3     28    bbb     C3    817 -0.39007700  12.010000   ; qtot 26.995592
  818         hx     28    bbb     H5    818 0.14940300   1.008000   ; qtot 27.144995
  819         hx     28    bbb     H6    819 0.14940300   1.008000   ; qtot 27.294398
  820         c3     28    bbb     C4    820 0.18057300  12.010000   ; qtot 27.474971
  821         hc     28    bbb     H7    821 0.01788900   1.008000   ; qtot 27.492860
  822         hc     28    bbb     H8    822 0.01788900   1.008000   ; qtot 27.510749
  823         c3     28    bbb     C5    823 -0.11337700  12.010000   ; qtot 27.397372
  824         hc     28    bbb     H9    824 0.09515400   1.008000   ; qtot 27.492526
  825         hc     28    bbb    H10    825 0.09515400   1.008000   ; qtot 27.587680
  826         c3     28    bbb     C6    826 -0.11337700  12.010000   ; qtot 27.474303
  827         hc     28    bbb    H11    827 0.09515400   1.008000   ; qtot 27.569457
  828         hc     28    bbb    H12    828 0.09515400   1.008000   ; qtot 27.664611
  829         c3     28    bbb     C7    829 0.21842400  12.010000   ; qtot 27.883035
  830         h1     28    bbb    H13    830 0.04500300   1.008000   ; qtot 27.928038
  831         h1     28    bbb    H14    831 0.04500300   1.008000   ; qtot 27.973041
  832         c3     28    bbb     C8    832 -0.06455200  12.010000   ; qtot 27.908489
  833         h1     28    bbb    H15    833 0.13554100   1.008000   ; qtot 28.044030
  834         h1     28    bbb    H16    834 0.13554100   1.008000   ; qtot 28.179571
  835         c3     28    bbb     C9    835 -0.06455200  12.010000   ; qtot 28.115019
  836         h1     28    bbb    H17    836 0.13554100   1.008000   ; qtot 28.250560
  837         h1     28    bbb    H18    837 0.13554100   1.008000   ; qtot 28.386101
  838         os     28    bbb     O1    838 -0.62587700  16.000000   ; qtot 27.760224
  839         hn     28    bbb    H19    839 0.23982500   1.008000   ; qtot 28.000049
; residue   29 bbb rtp bbb q 1.0
  840         n4     29    bbb     N1    840 0.03726400  14.010000   ; qtot 28.037313
  841         c3     29    bbb     C1    841 -0.07020100  12.010000   ; qtot 27.967112
  842         hx     29    bbb     H1    842 0.12219000   1.008000   ; qtot 28.089302
  843         hx     29    bbb     H2    843 0.12219000   1.008000   ; qtot 28.211492
  844         c3     29    bbb     C2    844 -0.07020100  12.010000   ; qtot 28.141291
  845         hx     29    bbb     H3    845 0.12219000   1.008000   ; qtot 28.263481
  846         hx     29    bbb     H4    846 0.12219000   1.008000   ; qtot 28.385671
  847         c3     29    bbb     C3    847 -0.39007700  12.010000   ; qtot 27.995594
  848         hx     29    bbb     H5    848 0.14940300   1.008000   ; qtot 28.144997
  849         hx     29    bbb     H6    849 0.14940300   1.008000   ; qtot 28.294400
  850         c3     29    bbb     C4    850 0.18057300  12.010000   ; qtot 28.474973
  851         hc     29    bbb     H7    851 0.01788900   1.008000   ; qtot 28.492862
  852         hc     29    bbb     H8    852 0.01788900   1.008000   ; qtot 28.510751
  853         c3     29    bbb     C5    853 -0.11337700  12.010000   ; qtot 28.397374
  854         hc     29    bbb     H9    854 0.09515400   1.008000   ; qtot 28.492528
  855         hc     29    bbb    H10    855 0.09515400   1.008000   ; qtot 28.587682
  856         c3     29    bbb     C6    856 -0.11337700  12.010000   ; qtot 28.474305
  857         hc     29    bbb    H11    857 0.09515400   1.008000   ; qtot 28.569459
  858         hc     29    bbb    H12    858 0.09515400   1.008000   ; qtot 28.664613
  859         c3     29    bbb     C7    859 0.21842400  12.010000   ; qtot 28.883037
  860         h1     29    bbb    H13    860 0.04500300   1.008000   ; qtot 28.928040
  861         h1     29    bbb    H14    861 0.04500300   1.008000   ; qtot 28.973043
  862         c3     29    bbb     C8    862 -0.06455200  12.010000   ; qtot 28.908491
  863         h1     29    bbb    H15    863 0.13554100   1.008000   ; qtot 29.044032
  864         h1     29    bbb    H16    864 0.13554100   1.008000   ; qtot 29.179573
  865         c3     29    bbb     C9    865 -0.06455200  12.010000   ; qtot 29.115021
  866         h1     29    bbb    H17    866 0.13554100   1.008000   ; qtot 29.250562
  867         h1     29    bbb    H18    867 0.13554100   1.008000   ; qtot 29.386103
  868         os     29    bbb     O1    868 -0.62587700  16.000000   ; qtot 28.760226
  869         hn     29    bbb    H19    869 0.23982500   1.008000   ; qtot 29.000051
; residue   30 bbb rtp bbb q 1.0
  870         n4     30    bbb     N1    870 0.03726400  14.010000   ; qtot 29.037315
  871         c3     30    bbb     C1    871 -0.07020100  12.010000   ; qtot 28.967114
  872         hx     30    bbb     H1    872 0.12219000   1.008000   ; qtot 29.089304
  873         hx     30    bbb     H2    873 0.12219000   1.008000   ; qtot 29.211494
  874         c3     30    bbb     C2    874 -0.07020100  12.010000   ; qtot 29.141293
  875         hx     30    bbb     H3    875 0.12219000   1.008000   ; qtot 29.263483
  876         hx     30    bbb     H4    876 0.12219000   1.008000   ; qtot 29.385673
  877         c3     30    bbb     C3    877 -0.39007700  12.010000   ; qtot 28.995596
  878         hx     30    bbb     H5    878 0.14940300   1.008000   ; qtot 29.144999
  879         hx     30    bbb     H6    879 0.14940300   1.008000   ; qtot 29.294402
  880         c3     30    bbb     C4    880 0.18057300  12.010000   ; qtot 29.474975
  881         hc     30    bbb     H7    881 0.01788900   1.008000   ; qtot 29.492864
  882         hc     30    bbb     H8    882 0.01788900   1.008000   ; qtot 29.510753
  883         c3     30    bbb     C5    883 -0.11337700  12.010000   ; qtot 29.397376
  884         hc     30    bbb     H9    884 0.09515400   1.008000   ; qtot 29.492530
  885         hc     30    bbb    H10    885 0.09515400   1.008000   ; qtot 29.587684
  886         c3     30    bbb     C6    886 -0.11337700  12.010000   ; qtot 29.474307
  887         hc     30    bbb    H11    887 0.09515400   1.008000   ; qtot 29.569461
  888         hc     30    bbb    H12    888 0.09515400   1.008000   ; qtot 29.664615
  889         c3     30    bbb     C7    889 0.21842400  12.010000   ; qtot 29.883039
  890         h1     30    bbb    H13    890 0.04500300   1.008000   ; qtot 29.928042
  891         h1     30    bbb    H14    891 0.04500300   1.008000   ; qtot 29.973045
  892         c3     30    bbb     C8    892 -0.06455200  12.010000   ; qtot 29.908493
  893         h1     30    bbb    H15    893 0.13554100   1.008000   ; qtot 30.044034
  894         h1     30    bbb    H16    894 0.13554100   1.008000   ; qtot 30.179575
  895         c3     30    bbb     C9    895 -0.06455200  12.010000   ; qtot 30.115023
  896         h1     30    bbb    H17    896 0.13554100   1.008000   ; qtot 30.250564
  897         h1     30    bbb    H18    897 0.13554100   1.008000   ; qtot 30.386105
  898         os     30    bbb     O1    898 -0.62587700  16.000000   ; qtot 29.760228
  899         hn     30    bbb    H19    899 0.23982500   1.008000   ; qtot 30.000053
; residue   31 bbb rtp bbb q 1.0
  900         n4     31    bbb     N1    900 0.03726400  14.010000   ; qtot 30.037317
  901         c3     31    bbb     C1    901 -0.07020100  12.010000   ; qtot 29.967116
  902         hx     31    bbb     H1    902 0.12219000   1.008000   ; qtot 30.089306
  903         hx     31    bbb     H2    903 0.12219000   1.008000   ; qtot 30.211496
  904         c3     31    bbb     C2    904 -0.07020100  12.010000   ; qtot 30.141295
  905         hx     31    bbb     H3    905 0.12219000   1.008000   ; qtot 30.263485
  906         hx     31    bbb     H4    906 0.12219000   1.008000   ; qtot 30.385675
  907         c3     31    bbb     C3    907 -0.39007700  12.010000   ; qtot 29.995598
  908         hx     31    bbb     H5    908 0.14940300   1.008000   ; qtot 30.145001
  909         hx     31    bbb     H6    909 0.14940300   1.008000   ; qtot 30.294404
  910         c3     31    bbb     C4    910 0.18057300  12.010000   ; qtot 30.474977
  911         hc     31    bbb     H7    911 0.01788900   1.008000   ; qtot 30.492866
  912         hc     31    bbb     H8    912 0.01788900   1.008000   ; qtot 30.510755
  913         c3     31    bbb     C5    913 -0.11337700  12.010000   ; qtot 30.397378
  914         hc     31    bbb     H9    914 0.09515400   1.008000   ; qtot 30.492532
  915         hc     31    bbb    H10    915 0.09515400   1.008000   ; qtot 30.587686
  916         c3     31    bbb     C6    916 -0.11337700  12.010000   ; qtot 30.474309
  917         hc     31    bbb    H11    917 0.09515400   1.008000   ; qtot 30.569463
  918         hc     31    bbb    H12    918 0.09515400   1.008000   ; qtot 30.664617
  919         c3     31    bbb     C7    919 0.21842400  12.010000   ; qtot 30.883041
  920         h1     31    bbb    H13    920 0.04500300   1.008000   ; qtot 30.928044
  921         h1     31    bbb    H14    921 0.04500300   1.008000   ; qtot 30.973047
  922         c3     31    bbb     C8    922 -0.06455200  12.010000   ; qtot 30.908495
  923         h1     31    bbb    H15    923 0.13554100   1.008000   ; qtot 31.044036
  924         h1     31    bbb    H16    924 0.13554100   1.008000   ; qtot 31.179577
  925         c3     31    bbb     C9    925 -0.06455200  12.010000   ; qtot 31.115025
  926         h1     31    bbb    H17    926 0.13554100   1.008000   ; qtot 31.250566
  927         h1     31    bbb    H18    927 0.13554100   1.008000   ; qtot 31.386107
  928         os     31    bbb     O1    928 -0.62587700  16.000000   ; qtot 30.760230
  929         hn     31    bbb    H19    929 0.23982500   1.008000   ; qtot 31.000055
; residue   32 bbb rtp bbb q 1.0
  930         n4     32    bbb     N1    930 0.03726400  14.010000   ; qtot 31.037319
  931         c3     32    bbb     C1    931 -0.07020100  12.010000   ; qtot 30.967118
  932         hx     32    bbb     H1    932 0.12219000   1.008000   ; qtot 31.089308
  933         hx     32    bbb     H2    933 0.12219000   1.008000   ; qtot 31.211498
  934         c3     32    bbb     C2    934 -0.07020100  12.010000   ; qtot 31.141297
  935         hx     32    bbb     H3    935 0.12219000   1.008000   ; qtot 31.263487
  936         hx     32    bbb     H4    936 0.12219000   1.008000   ; qtot 31.385677
  937         c3     32    bbb     C3    937 -0.39007700  12.010000   ; qtot 30.995600
  938         hx     32    bbb     H5    938 0.14940300   1.008000   ; qtot 31.145003
  939         hx     32    bbb     H6    939 0.14940300   1.008000   ; qtot 31.294406
  940         c3     32    bbb     C4    940 0.18057300  12.010000   ; qtot 31.474979
  941         hc     32    bbb     H7    941 0.01788900   1.008000   ; qtot 31.492868
  942         hc     32    bbb     H8    942 0.01788900   1.008000   ; qtot 31.510757
  943         c3     32    bbb     C5    943 -0.11337700  12.010000   ; qtot 31.397380
  944         hc     32    bbb     H9    944 0.09515400   1.008000   ; qtot 31.492534
  945         hc     32    bbb    H10    945 0.09515400   1.008000   ; qtot 31.587688
  946         c3     32    bbb     C6    946 -0.11337700  12.010000   ; qtot 31.474311
  947         hc     32    bbb    H11    947 0.09515400   1.008000   ; qtot 31.569465
  948         hc     32    bbb    H12    948 0.09515400   1.008000   ; qtot 31.664619
  949         c3     32    bbb     C7    949 0.21842400  12.010000   ; qtot 31.883043
  950         h1     32    bbb    H13    950 0.04500300   1.008000   ; qtot 31.928046
  951         h1     32    bbb    H14    951 0.04500300   1.008000   ; qtot 31.973049
  952         c3     32    bbb     C8    952 -0.06455200  12.010000   ; qtot 31.908497
  953         h1     32    bbb    H15    953 0.13554100   1.008000   ; qtot 32.044038
  954         h1     32    bbb    H16    954 0.13554100   1.008000   ; qtot 32.179579
  955         c3     32    bbb     C9    955 -0.06455200  12.010000   ; qtot 32.115027
  956         h1     32    bbb    H17    956 0.13554100   1.008000   ; qtot 32.250568
  957         h1     32    bbb    H18    957 0.13554100   1.008000   ; qtot 32.386109
  958         os     32    bbb     O1    958 -0.62587700  16.000000   ; qtot 31.760232
  959         hn     32    bbb    H19    959 0.23982500   1.008000   ; qtot 32.000057
; residue   33 bbb rtp bbb q 1.0
  960         n4     33    bbb     N1    960 0.03726400  14.010000   ; qtot 32.037321
  961         c3     33    bbb     C1    961 -0.07020100  12.010000   ; qtot 31.967120
  962         hx     33    bbb     H1    962 0.12219000   1.008000   ; qtot 32.089310
  963         hx     33    bbb     H2    963 0.12219000   1.008000   ; qtot 32.211500
  964         c3     33    bbb     C2    964 -0.07020100  12.010000   ; qtot 32.141299
  965         hx     33    bbb     H3    965 0.12219000   1.008000   ; qtot 32.263489
  966         hx     33    bbb     H4    966 0.12219000   1.008000   ; qtot 32.385679
  967         c3     33    bbb     C3    967 -0.39007700  12.010000   ; qtot 31.995602
  968         hx     33    bbb     H5    968 0.14940300   1.008000   ; qtot 32.145005
  969         hx     33    bbb     H6    969 0.14940300   1.008000   ; qtot 32.294408
  970         c3     33    bbb     C4    970 0.18057300  12.010000   ; qtot 32.474981
  971         hc     33    bbb     H7    971 0.01788900   1.008000   ; qtot 32.492870
  972         hc     33    bbb     H8    972 0.01788900   1.008000   ; qtot 32.510759
  973         c3     33    bbb     C5    973 -0.11337700  12.010000   ; qtot 32.397382
  974         hc     33    bbb     H9    974 0.09515400   1.008000   ; qtot 32.492536
  975         hc     33    bbb    H10    975 0.09515400   1.008000   ; qtot 32.587690
  976         c3     33    bbb     C6    976 -0.11337700  12.010000   ; qtot 32.474313
  977         hc     33    bbb    H11    977 0.09515400   1.008000   ; qtot 32.569467
  978         hc     33    bbb    H12    978 0.09515400   1.008000   ; qtot 32.664621
  979         c3     33    bbb     C7    979 0.21842400  12.010000   ; qtot 32.883045
  980         h1     33    bbb    H13    980 0.04500300   1.008000   ; qtot 32.928048
  981         h1     33    bbb    H14    981 0.04500300   1.008000   ; qtot 32.973051
  982         c3     33    bbb     C8    982 -0.06455200  12.010000   ; qtot 32.908499
  983         h1     33    bbb    H15    983 0.13554100   1.008000   ; qtot 33.044040
  984         h1     33    bbb    H16    984 0.13554100   1.008000   ; qtot 33.179581
  985         c3     33    bbb     C9    985 -0.06455200  12.010000   ; qtot 33.115029
  986         h1     33    bbb    H17    986 0.13554100   1.008000   ; qtot 33.250570
  987         h1     33    bbb    H18    987 0.13554100   1.008000   ; qtot 33.386111
  988         os     33    bbb     O1    988 -0.62587700  16.000000   ; qtot 32.760234
  989         hn     33    bbb    H19    989 0.23982500   1.008000   ; qtot 33.000059
; residue   34 bbb rtp bbb q 1.0
  990         n4     34    bbb     N1    990 0.03726400  14.010000   ; qtot 33.037323
  991         c3     34    bbb     C1    991 -0.07020100  12.010000   ; qtot 32.967122
  992         hx     34    bbb     H1    992 0.12219000   1.008000   ; qtot 33.089312
  993         hx     34    bbb     H2    993 0.12219000   1.008000   ; qtot 33.211502
  994         c3     34    bbb     C2    994 -0.07020100  12.010000   ; qtot 33.141301
  995         hx     34    bbb     H3    995 0.12219000   1.008000   ; qtot 33.263491
  996         hx     34    bbb     H4    996 0.12219000   1.008000   ; qtot 33.385681
  997         c3     34    bbb     C3    997 -0.39007700  12.010000   ; qtot 32.995604
  998         hx     34    bbb     H5    998 0.14940300   1.008000   ; qtot 33.145007
  999         hx     34    bbb     H6    999 0.14940300   1.008000   ; qtot 33.294410
 1000         c3     34    bbb     C4   1000 0.18057300  12.010000   ; qtot 33.474983
 1001         hc     34    bbb     H7   1001 0.01788900   1.008000   ; qtot 33.492872
 1002         hc     34    bbb     H8   1002 0.01788900   1.008000   ; qtot 33.510761
 1003         c3     34    bbb     C5   1003 -0.11337700  12.010000   ; qtot 33.397384
 1004         hc     34    bbb     H9   1004 0.09515400   1.008000   ; qtot 33.492538
 1005         hc     34    bbb    H10   1005 0.09515400   1.008000   ; qtot 33.587692
 1006         c3     34    bbb     C6   1006 -0.11337700  12.010000   ; qtot 33.474315
 1007         hc     34    bbb    H11   1007 0.09515400   1.008000   ; qtot 33.569469
 1008         hc     34    bbb    H12   1008 0.09515400   1.008000   ; qtot 33.664623
 1009         c3     34    bbb     C7   1009 0.21842400  12.010000   ; qtot 33.883047
 1010         h1     34    bbb    H13   1010 0.04500300   1.008000   ; qtot 33.928050
 1011         h1     34    bbb    H14   1011 0.04500300   1.008000   ; qtot 33.973053
 1012         c3     34    bbb     C8   1012 -0.06455200  12.010000   ; qtot 33.908501
 1013         h1     34    bbb    H15   1013 0.13554100   1.008000   ; qtot 34.044042
 1014         h1     34    bbb    H16   1014 0.13554100   1.008000   ; qtot 34.179583
 1015         c3     34    bbb     C9   1015 -0.06455200  12.010000   ; qtot 34.115031
 1016         h1     34    bbb    H17   1016 0.13554100   1.008000   ; qtot 34.250572
 1017         h1     34    bbb    H18   1017 0.13554100   1.008000   ; qtot 34.386113
 1018         os     34    bbb     O1   1018 -0.62587700  16.000000   ; qtot 33.760236
 1019         hn     34    bbb    H19   1019 0.23982500   1.008000   ; qtot 34.000061
; residue   35 bbb rtp bbb q 1.0
 1020         n4     35    bbb     N1   1020 0.03726400  14.010000   ; qtot 34.037325
 1021         c3     35    bbb     C1   1021 -0.07020100  12.010000   ; qtot 33.967124
 1022         hx     35    bbb     H1   1022 0.12219000   1.008000   ; qtot 34.089314
 1023         hx     35    bbb     H2   1023 0.12219000   1.008000   ; qtot 34.211504
 1024         c3     35    bbb     C2   1024 -0.07020100  12.010000   ; qtot 34.141303
 1025         hx     35    bbb     H3   1025 0.12219000   1.008000   ; qtot 34.263493
 1026         hx     35    bbb     H4   1026 0.12219000   1.008000   ; qtot 34.385683
 1027         c3     35    bbb     C3   1027 -0.39007700  12.010000   ; qtot 33.995606
 1028         hx     35    bbb     H5   1028 0.14940300   1.008000   ; qtot 34.145009
 1029         hx     35    bbb     H6   1029 0.14940300   1.008000   ; qtot 34.294412
 1030         c3     35    bbb     C4   1030 0.18057300  12.010000   ; qtot 34.474985
 1031         hc     35    bbb     H7   1031 0.01788900   1.008000   ; qtot 34.492874
 1032         hc     35    bbb     H8   1032 0.01788900   1.008000   ; qtot 34.510763
 1033         c3     35    bbb     C5   1033 -0.11337700  12.010000   ; qtot 34.397386
 1034         hc     35    bbb     H9   1034 0.09515400   1.008000   ; qtot 34.492540
 1035         hc     35    bbb    H10   1035 0.09515400   1.008000   ; qtot 34.587694
 1036         c3     35    bbb     C6   1036 -0.11337700  12.010000   ; qtot 34.474317
 1037         hc     35    bbb    H11   1037 0.09515400   1.008000   ; qtot 34.569471
 1038         hc     35    bbb    H12   1038 0.09515400   1.008000   ; qtot 34.664625
 1039         c3     35    bbb     C7   1039 0.21842400  12.010000   ; qtot 34.883049
 1040         h1     35    bbb    H13   1040 0.04500300   1.008000   ; qtot 34.928052
 1041         h1     35    bbb    H14   1041 0.04500300   1.008000   ; qtot 34.973055
 1042         c3     35    bbb     C8   1042 -0.06455200  12.010000   ; qtot 34.908503
 1043         h1     35    bbb    H15   1043 0.13554100   1.008000   ; qtot 35.044044
 1044         h1     35    bbb    H16   1044 0.13554100   1.008000   ; qtot 35.179585
 1045         c3     35    bbb     C9   1045 -0.06455200  12.010000   ; qtot 35.115033
 1046         h1     35    bbb    H17   1046 0.13554100   1.008000   ; qtot 35.250574
 1047         h1     35    bbb    H18   1047 0.13554100   1.008000   ; qtot 35.386115
 1048         os     35    bbb     O1   1048 -0.62587700  16.000000   ; qtot 34.760238
 1049         hn     35    bbb    H19   1049 0.23982500   1.008000   ; qtot 35.000063
; residue   36 bbb rtp bbb q 1.0
 1050         n4     36    bbb     N1   1050 0.03726400  14.010000   ; qtot 35.037327
 1051         c3     36    bbb     C1   1051 -0.07020100  12.010000   ; qtot 34.967126
 1052         hx     36    bbb     H1   1052 0.12219000   1.008000   ; qtot 35.089316
 1053         hx     36    bbb     H2   1053 0.12219000   1.008000   ; qtot 35.211506
 1054         c3     36    bbb     C2   1054 -0.07020100  12.010000   ; qtot 35.141305
 1055         hx     36    bbb     H3   1055 0.12219000   1.008000   ; qtot 35.263495
 1056         hx     36    bbb     H4   1056 0.12219000   1.008000   ; qtot 35.385685
 1057         c3     36    bbb     C3   1057 -0.39007700  12.010000   ; qtot 34.995608
 1058         hx     36    bbb     H5   1058 0.14940300   1.008000   ; qtot 35.145011
 1059         hx     36    bbb     H6   1059 0.14940300   1.008000   ; qtot 35.294414
 1060         c3     36    bbb     C4   1060 0.18057300  12.010000   ; qtot 35.474987
 1061         hc     36    bbb     H7   1061 0.01788900   1.008000   ; qtot 35.492876
 1062         hc     36    bbb     H8   1062 0.01788900   1.008000   ; qtot 35.510765
 1063         c3     36    bbb     C5   1063 -0.11337700  12.010000   ; qtot 35.397388
 1064         hc     36    bbb     H9   1064 0.09515400   1.008000   ; qtot 35.492542
 1065         hc     36    bbb    H10   1065 0.09515400   1.008000   ; qtot 35.587696
 1066         c3     36    bbb     C6   1066 -0.11337700  12.010000   ; qtot 35.474319
 1067         hc     36    bbb    H11   1067 0.09515400   1.008000   ; qtot 35.569473
 1068         hc     36    bbb    H12   1068 0.09515400   1.008000   ; qtot 35.664627
 1069         c3     36    bbb     C7   1069 0.21842400  12.010000   ; qtot 35.883051
 1070         h1     36    bbb    H13   1070 0.04500300   1.008000   ; qtot 35.928054
 1071         h1     36    bbb    H14   1071 0.04500300   1.008000   ; qtot 35.973057
 1072         c3     36    bbb     C8   1072 -0.06455200  12.010000   ; qtot 35.908505
 1073         h1     36    bbb    H15   1073 0.13554100   1.008000   ; qtot 36.044046
 1074         h1     36    bbb    H16   1074 0.13554100   1.008000   ; qtot 36.179587
 1075         c3     36    bbb     C9   1075 -0.06455200  12.010000   ; qtot 36.115035
 1076         h1     36    bbb    H17   1076 0.13554100   1.008000   ; qtot 36.250576
 1077         h1     36    bbb    H18   1077 0.13554100   1.008000   ; qtot 36.386117
 1078         os     36    bbb     O1   1078 -0.62587700  16.000000   ; qtot 35.760240
 1079         hn     36    bbb    H19   1079 0.23982500   1.008000   ; qtot 36.000065
; residue   37 bbb rtp bbb q 1.0
 1080         n4     37    bbb     N1   1080 0.03726400  14.010000   ; qtot 36.037329
 1081         c3     37    bbb     C1   1081 -0.07020100  12.010000   ; qtot 35.967128
 1082         hx     37    bbb     H1   1082 0.12219000   1.008000   ; qtot 36.089318
 1083         hx     37    bbb     H2   1083 0.12219000   1.008000   ; qtot 36.211508
 1084         c3     37    bbb     C2   1084 -0.07020100  12.010000   ; qtot 36.141307
 1085         hx     37    bbb     H3   1085 0.12219000   1.008000   ; qtot 36.263497
 1086         hx     37    bbb     H4   1086 0.12219000   1.008000   ; qtot 36.385687
 1087         c3     37    bbb     C3   1087 -0.39007700  12.010000   ; qtot 35.995610
 1088         hx     37    bbb     H5   1088 0.14940300   1.008000   ; qtot 36.145013
 1089         hx     37    bbb     H6   1089 0.14940300   1.008000   ; qtot 36.294416
 1090         c3     37    bbb     C4   1090 0.18057300  12.010000   ; qtot 36.474989
 1091         hc     37    bbb     H7   1091 0.01788900   1.008000   ; qtot 36.492878
 1092         hc     37    bbb     H8   1092 0.01788900   1.008000   ; qtot 36.510767
 1093         c3     37    bbb     C5   1093 -0.11337700  12.010000   ; qtot 36.397390
 1094         hc     37    bbb     H9   1094 0.09515400   1.008000   ; qtot 36.492544
 1095         hc     37    bbb    H10   1095 0.09515400   1.008000   ; qtot 36.587698
 1096         c3     37    bbb     C6   1096 -0.11337700  12.010000   ; qtot 36.474321
 1097         hc     37    bbb    H11   1097 0.09515400   1.008000   ; qtot 36.569475
 1098         hc     37    bbb    H12   1098 0.09515400   1.008000   ; qtot 36.664629
 1099         c3     37    bbb     C7   1099 0.21842400  12.010000   ; qtot 36.883053
 1100         h1     37    bbb    H13   1100 0.04500300   1.008000   ; qtot 36.928056
 1101         h1     37    bbb    H14   1101 0.04500300   1.008000   ; qtot 36.973059
 1102         c3     37    bbb     C8   1102 -0.06455200  12.010000   ; qtot 36.908507
 1103         h1     37    bbb    H15   1103 0.13554100   1.008000   ; qtot 37.044048
 1104         h1     37    bbb    H16   1104 0.13554100   1.008000   ; qtot 37.179589
 1105         c3     37    bbb     C9   1105 -0.06455200  12.010000   ; qtot 37.115037
 1106         h1     37    bbb    H17   1106 0.13554100   1.008000   ; qtot 37.250578
 1107         h1     37    bbb    H18   1107 0.13554100   1.008000   ; qtot 37.386119
 1108         os     37    bbb     O1   1108 -0.62587700  16.000000   ; qtot 36.760242
 1109         hn     37    bbb    H19   1109 0.23982500   1.008000   ; qtot 37.000067
; residue   38 bbb rtp bbb q 1.0
 1110         n4     38    bbb     N1   1110 0.03726400  14.010000   ; qtot 37.037331
 1111         c3     38    bbb     C1   1111 -0.07020100  12.010000   ; qtot 36.967130
 1112         hx     38    bbb     H1   1112 0.12219000   1.008000   ; qtot 37.089320
 1113         hx     38    bbb     H2   1113 0.12219000   1.008000   ; qtot 37.211510
 1114         c3     38    bbb     C2   1114 -0.07020100  12.010000   ; qtot 37.141309
 1115         hx     38    bbb     H3   1115 0.12219000   1.008000   ; qtot 37.263499
 1116         hx     38    bbb     H4   1116 0.12219000   1.008000   ; qtot 37.385689
 1117         c3     38    bbb     C3   1117 -0.39007700  12.010000   ; qtot 36.995612
 1118         hx     38    bbb     H5   1118 0.14940300   1.008000   ; qtot 37.145015
 1119         hx     38    bbb     H6   1119 0.14940300   1.008000   ; qtot 37.294418
 1120         c3     38    bbb     C4   1120 0.18057300  12.010000   ; qtot 37.474991
 1121         hc     38    bbb     H7   1121 0.01788900   1.008000   ; qtot 37.492880
 1122         hc     38    bbb     H8   1122 0.01788900   1.008000   ; qtot 37.510769
 1123         c3     38    bbb     C5   1123 -0.11337700  12.010000   ; qtot 37.397392
 1124         hc     38    bbb     H9   1124 0.09515400   1.008000   ; qtot 37.492546
 1125         hc     38    bbb    H10   1125 0.09515400   1.008000   ; qtot 37.587700
 1126         c3     38    bbb     C6   1126 -0.11337700  12.010000   ; qtot 37.474323
 1127         hc     38    bbb    H11   1127 0.09515400   1.008000   ; qtot 37.569477
 1128         hc     38    bbb    H12   1128 0.09515400   1.008000   ; qtot 37.664631
 1129         c3     38    bbb     C7   1129 0.21842400  12.010000   ; qtot 37.883055
 1130         h1     38    bbb    H13   1130 0.04500300   1.008000   ; qtot 37.928058
 1131         h1     38    bbb    H14   1131 0.04500300   1.008000   ; qtot 37.973061
 1132         c3     38    bbb     C8   1132 -0.06455200  12.010000   ; qtot 37.908509
 1133         h1     38    bbb    H15   1133 0.13554100   1.008000   ; qtot 38.044050
 1134         h1     38    bbb    H16   1134 0.13554100   1.008000   ; qtot 38.179591
 1135         c3     38    bbb     C9   1135 -0.06455200  12.010000   ; qtot 38.115039
 1136         h1     38    bbb    H17   1136 0.13554100   1.008000   ; qtot 38.250580
 1137         h1     38    bbb    H18   1137 0.13554100   1.008000   ; qtot 38.386121
 1138         os     38    bbb     O1   1138 -0.62587700  16.000000   ; qtot 37.760244
 1139         hn     38    bbb    H19   1139 0.23982500   1.008000   ; qtot 38.000069
; residue   39 bbb rtp bbb q 1.0
 1140         n4     39    bbb     N1   1140 0.03726400  14.010000   ; qtot 38.037333
 1141         c3     39    bbb     C1   1141 -0.07020100  12.010000   ; qtot 37.967132
 1142         hx     39    bbb     H1   1142 0.12219000   1.008000   ; qtot 38.089322
 1143         hx     39    bbb     H2   1143 0.12219000   1.008000   ; qtot 38.211512
 1144         c3     39    bbb     C2   1144 -0.07020100  12.010000   ; qtot 38.141311
 1145         hx     39    bbb     H3   1145 0.12219000   1.008000   ; qtot 38.263501
 1146         hx     39    bbb     H4   1146 0.12219000   1.008000   ; qtot 38.385691
 1147         c3     39    bbb     C3   1147 -0.39007700  12.010000   ; qtot 37.995614
 1148         hx     39    bbb     H5   1148 0.14940300   1.008000   ; qtot 38.145017
 1149         hx     39    bbb     H6   1149 0.14940300   1.008000   ; qtot 38.294420
 1150         c3     39    bbb     C4   1150 0.18057300  12.010000   ; qtot 38.474993
 1151         hc     39    bbb     H7   1151 0.01788900   1.008000   ; qtot 38.492882
 1152         hc     39    bbb     H8   1152 0.01788900   1.008000   ; qtot 38.510771
 1153         c3     39    bbb     C5   1153 -0.11337700  12.010000   ; qtot 38.397394
 1154         hc     39    bbb     H9   1154 0.09515400   1.008000   ; qtot 38.492548
 1155         hc     39    bbb    H10   1155 0.09515400   1.008000   ; qtot 38.587702
 1156         c3     39    bbb     C6   1156 -0.11337700  12.010000   ; qtot 38.474325
 1157         hc     39    bbb    H11   1157 0.09515400   1.008000   ; qtot 38.569479
 1158         hc     39    bbb    H12   1158 0.09515400   1.008000   ; qtot 38.664633
 1159         c3     39    bbb     C7   1159 0.21842400  12.010000   ; qtot 38.883057
 1160         h1     39    bbb    H13   1160 0.04500300   1.008000   ; qtot 38.928060
 1161         h1     39    bbb    H14   1161 0.04500300   1.008000   ; qtot 38.973063
 1162         c3     39    bbb     C8   1162 -0.06455200  12.010000   ; qtot 38.908511
 1163         h1     39    bbb    H15   1163 0.13554100   1.008000   ; qtot 39.044052
 1164         h1     39    bbb    H16   1164 0.13554100   1.008000   ; qtot 39.179593
 1165         c3     39    bbb     C9   1165 -0.06455200  12.010000   ; qtot 39.115041
 1166         h1     39    bbb    H17   1166 0.13554100   1.008000   ; qtot 39.250582
 1167         h1     39    bbb    H18   1167 0.13554100   1.008000   ; qtot 39.386123
 1168         os     39    bbb     O1   1168 -0.62587700  16.000000   ; qtot 38.760246
 1169         hn     39    bbb    H19   1169 0.23982500   1.008000   ; qtot 39.000071
; residue   40 bbb rtp bbb q 1.0
 1170         n4     40    bbb     N1   1170 0.03726400  14.010000   ; qtot 39.037335
 1171         c3     40    bbb     C1   1171 -0.07020100  12.010000   ; qtot 38.967134
 1172         hx     40    bbb     H1   1172 0.12219000   1.008000   ; qtot 39.089324
 1173         hx     40    bbb     H2   1173 0.12219000   1.008000   ; qtot 39.211514
 1174         c3     40    bbb     C2   1174 -0.07020100  12.010000   ; qtot 39.141313
 1175         hx     40    bbb     H3   1175 0.12219000   1.008000   ; qtot 39.263503
 1176         hx     40    bbb     H4   1176 0.12219000   1.008000   ; qtot 39.385693
 1177         c3     40    bbb     C3   1177 -0.39007700  12.010000   ; qtot 38.995616
 1178         hx     40    bbb     H5   1178 0.14940300   1.008000   ; qtot 39.145019
 1179         hx     40    bbb     H6   1179 0.14940300   1.008000   ; qtot 39.294422
 1180         c3     40    bbb     C4   1180 0.18057300  12.010000   ; qtot 39.474995
 1181         hc     40    bbb     H7   1181 0.01788900   1.008000   ; qtot 39.492884
 1182         hc     40    bbb     H8   1182 0.01788900   1.008000   ; qtot 39.510773
 1183         c3     40    bbb     C5   1183 -0.11337700  12.010000   ; qtot 39.397396
 1184         hc     40    bbb     H9   1184 0.09515400   1.008000   ; qtot 39.492550
 1185         hc     40    bbb    H10   1185 0.09515400   1.008000   ; qtot 39.587704
 1186         c3     40    bbb     C6   1186 -0.11337700  12.010000   ; qtot 39.474327
 1187         hc     40    bbb    H11   1187 0.09515400   1.008000   ; qtot 39.569481
 1188         hc     40    bbb    H12   1188 0.09515400   1.008000   ; qtot 39.664635
 1189         c3     40    bbb     C7   1189 0.21842400  12.010000   ; qtot 39.883059
 1190         h1     40    bbb    H13   1190 0.04500300   1.008000   ; qtot 39.928062
 1191         h1     40    bbb    H14   1191 0.04500300   1.008000   ; qtot 39.973065
 1192         c3     40    bbb     C8   1192 -0.06455200  12.010000   ; qtot 39.908513
 1193         h1     40    bbb    H15   1193 0.13554100   1.008000   ; qtot 40.044054
 1194         h1     40    bbb    H16   1194 0.13554100   1.008000   ; qtot 40.179595
 1195         c3     40    bbb     C9   1195 -0.06455200  12.010000   ; qtot 40.115043
 1196         h1     40    bbb    H17   1196 0.13554100   1.008000   ; qtot 40.250584
 1197         h1     40    bbb    H18   1197 0.13554100   1.008000   ; qtot 40.386125
 1198         os     40    bbb     O1   1198 -0.62587700  16.000000   ; qtot 39.760248
 1199         hn     40    bbb    H19   1199 0.23982500   1.008000   ; qtot 40.000073
; residue   41 bbb rtp bbb q 1.0
 1200         n4     41    bbb     N1   1200 0.03726400  14.010000   ; qtot 40.037337
 1201         c3     41    bbb     C1   1201 -0.07020100  12.010000   ; qtot 39.967136
 1202         hx     41    bbb     H1   1202 0.12219000   1.008000   ; qtot 40.089326
 1203         hx     41    bbb     H2   1203 0.12219000   1.008000   ; qtot 40.211516
 1204         c3     41    bbb     C2   1204 -0.07020100  12.010000   ; qtot 40.141315
 1205         hx     41    bbb     H3   1205 0.12219000   1.008000   ; qtot 40.263505
 1206         hx     41    bbb     H4   1206 0.12219000   1.008000   ; qtot 40.385695
 1207         c3     41    bbb     C3   1207 -0.39007700  12.010000   ; qtot 39.995618
 1208         hx     41    bbb     H5   1208 0.14940300   1.008000   ; qtot 40.145021
 1209         hx     41    bbb     H6   1209 0.14940300   1.008000   ; qtot 40.294424
 1210         c3     41    bbb     C4   1210 0.18057300  12.010000   ; qtot 40.474997
 1211         hc     41    bbb     H7   1211 0.01788900   1.008000   ; qtot 40.492886
 1212         hc     41    bbb     H8   1212 0.01788900   1.008000   ; qtot 40.510775
 1213         c3     41    bbb     C5   1213 -0.11337700  12.010000   ; qtot 40.397398
 1214         hc     41    bbb     H9   1214 0.09515400   1.008000   ; qtot 40.492552
 1215         hc     41    bbb    H10   1215 0.09515400   1.008000   ; qtot 40.587706
 1216         c3     41    bbb     C6   1216 -0.11337700  12.010000   ; qtot 40.474329
 1217         hc     41    bbb    H11   1217 0.09515400   1.008000   ; qtot 40.569483
 1218         hc     41    bbb    H12   1218 0.09515400   1.008000   ; qtot 40.664637
 1219         c3     41    bbb     C7   1219 0.21842400  12.010000   ; qtot 40.883061
 1220         h1     41    bbb    H13   1220 0.04500300   1.008000   ; qtot 40.928064
 1221         h1     41    bbb    H14   1221 0.04500300   1.008000   ; qtot 40.973067
 1222         c3     41    bbb     C8   1222 -0.06455200  12.010000   ; qtot 40.908515
 1223         h1     41    bbb    H15   1223 0.13554100   1.008000   ; qtot 41.044056
 1224         h1     41    bbb    H16   1224 0.13554100   1.008000   ; qtot 41.179597
 1225         c3     41    bbb     C9   1225 -0.06455200  12.010000   ; qtot 41.115045
 1226         h1     41    bbb    H17   1226 0.13554100   1.008000   ; qtot 41.250586
 1227         h1     41    bbb    H18   1227 0.13554100   1.008000   ; qtot 41.386127
 1228         os     41    bbb     O1   1228 -0.62587700  16.000000   ; qtot 40.760250
 1229         hn     41    bbb    H19   1229 0.23982500   1.008000   ; qtot 41.000075
; residue   42 bbb rtp bbb q 1.0
 1230         n4     42    bbb     N1   1230 0.03726400  14.010000   ; qtot 41.037339
 1231         c3     42    bbb     C1   1231 -0.07020100  12.010000   ; qtot 40.967138
 1232         hx     42    bbb     H1   1232 0.12219000   1.008000   ; qtot 41.089328
 1233         hx     42    bbb     H2   1233 0.12219000   1.008000   ; qtot 41.211518
 1234         c3     42    bbb     C2   1234 -0.07020100  12.010000   ; qtot 41.141317
 1235         hx     42    bbb     H3   1235 0.12219000   1.008000   ; qtot 41.263507
 1236         hx     42    bbb     H4   1236 0.12219000   1.008000   ; qtot 41.385697
 1237         c3     42    bbb     C3   1237 -0.39007700  12.010000   ; qtot 40.995620
 1238         hx     42    bbb     H5   1238 0.14940300   1.008000   ; qtot 41.145023
 1239         hx     42    bbb     H6   1239 0.14940300   1.008000   ; qtot 41.294426
 1240         c3     42    bbb     C4   1240 0.18057300  12.010000   ; qtot 41.474999
 1241         hc     42    bbb     H7   1241 0.01788900   1.008000   ; qtot 41.492888
 1242         hc     42    bbb     H8   1242 0.01788900   1.008000   ; qtot 41.510777
 1243         c3     42    bbb     C5   1243 -0.11337700  12.010000   ; qtot 41.397400
 1244         hc     42    bbb     H9   1244 0.09515400   1.008000   ; qtot 41.492554
 1245         hc     42    bbb    H10   1245 0.09515400   1.008000   ; qtot 41.587708
 1246         c3     42    bbb     C6   1246 -0.11337700  12.010000   ; qtot 41.474331
 1247         hc     42    bbb    H11   1247 0.09515400   1.008000   ; qtot 41.569485
 1248         hc     42    bbb    H12   1248 0.09515400   1.008000   ; qtot 41.664639
 1249         c3     42    bbb     C7   1249 0.21842400  12.010000   ; qtot 41.883063
 1250         h1     42    bbb    H13   1250 0.04500300   1.008000   ; qtot 41.928066
 1251         h1     42    bbb    H14   1251 0.04500300   1.008000   ; qtot 41.973069
 1252         c3     42    bbb     C8   1252 -0.06455200  12.010000   ; qtot 41.908517
 1253         h1     42    bbb    H15   1253 0.13554100   1.008000   ; qtot 42.044058
 1254         h1     42    bbb    H16   1254 0.13554100   1.008000   ; qtot 42.179599
 1255         c3     42    bbb     C9   1255 -0.06455200  12.010000   ; qtot 42.115047
 1256         h1     42    bbb    H17   1256 0.13554100   1.008000   ; qtot 42.250588
 1257         h1     42    bbb    H18   1257 0.13554100   1.008000   ; qtot 42.386129
 1258         os     42    bbb     O1   1258 -0.62587700  16.000000   ; qtot 41.760252
 1259         hn     42    bbb    H19   1259 0.23982500   1.008000   ; qtot 42.000077
; residue   43 bbb rtp bbb q 1.0
 1260         n4     43    bbb     N1   1260 0.03726400  14.010000   ; qtot 42.037341
 1261         c3     43    bbb     C1   1261 -0.07020100  12.010000   ; qtot 41.967140
 1262         hx     43    bbb     H1   1262 0.12219000   1.008000   ; qtot 42.089330
 1263         hx     43    bbb     H2   1263 0.12219000   1.008000   ; qtot 42.211520
 1264         c3     43    bbb     C2   1264 -0.07020100  12.010000   ; qtot 42.141319
 1265         hx     43    bbb     H3   1265 0.12219000   1.008000   ; qtot 42.263509
 1266         hx     43    bbb     H4   1266 0.12219000   1.008000   ; qtot 42.385699
 1267         c3     43    bbb     C3   1267 -0.39007700  12.010000   ; qtot 41.995622
 1268         hx     43    bbb     H5   1268 0.14940300   1.008000   ; qtot 42.145025
 1269         hx     43    bbb     H6   1269 0.14940300   1.008000   ; qtot 42.294428
 1270         c3     43    bbb     C4   1270 0.18057300  12.010000   ; qtot 42.475001
 1271         hc     43    bbb     H7   1271 0.01788900   1.008000   ; qtot 42.492890
 1272         hc     43    bbb     H8   1272 0.01788900   1.008000   ; qtot 42.510779
 1273         c3     43    bbb     C5   1273 -0.11337700  12.010000   ; qtot 42.397402
 1274         hc     43    bbb     H9   1274 0.09515400   1.008000   ; qtot 42.492556
 1275         hc     43    bbb    H10   1275 0.09515400   1.008000   ; qtot 42.587710
 1276         c3     43    bbb     C6   1276 -0.11337700  12.010000   ; qtot 42.474333
 1277         hc     43    bbb    H11   1277 0.09515400   1.008000   ; qtot 42.569487
 1278         hc     43    bbb    H12   1278 0.09515400   1.008000   ; qtot 42.664641
 1279         c3     43    bbb     C7   1279 0.21842400  12.010000   ; qtot 42.883065
 1280         h1     43    bbb    H13   1280 0.04500300   1.008000   ; qtot 42.928068
 1281         h1     43    bbb    H14   1281 0.04500300   1.008000   ; qtot 42.973071
 1282         c3     43    bbb     C8   1282 -0.06455200  12.010000   ; qtot 42.908519
 1283         h1     43    bbb    H15   1283 0.13554100   1.008000   ; qtot 43.044060
 1284         h1     43    bbb    H16   1284 0.13554100   1.008000   ; qtot 43.179601
 1285         c3     43    bbb     C9   1285 -0.06455200  12.010000   ; qtot 43.115049
 1286         h1     43    bbb    H17   1286 0.13554100   1.008000   ; qtot 43.250590
 1287         h1     43    bbb    H18   1287 0.13554100   1.008000   ; qtot 43.386131
 1288         os     43    bbb     O1   1288 -0.62587700  16.000000   ; qtot 42.760254
 1289         hn     43    bbb    H19   1289 0.23982500   1.008000   ; qtot 43.000079
; residue   44 bbb rtp bbb q 1.0
 1290         n4     44    bbb     N1   1290 0.03726400  14.010000   ; qtot 43.037343
 1291         c3     44    bbb     C1   1291 -0.07020100  12.010000   ; qtot 42.967142
 1292         hx     44    bbb     H1   1292 0.12219000   1.008000   ; qtot 43.089332
 1293         hx     44    bbb     H2   1293 0.12219000   1.008000   ; qtot 43.211522
 1294         c3     44    bbb     C2   1294 -0.07020100  12.010000   ; qtot 43.141321
 1295         hx     44    bbb     H3   1295 0.12219000   1.008000   ; qtot 43.263511
 1296         hx     44    bbb     H4   1296 0.12219000   1.008000   ; qtot 43.385701
 1297         c3     44    bbb     C3   1297 -0.39007700  12.010000   ; qtot 42.995624
 1298         hx     44    bbb     H5   1298 0.14940300   1.008000   ; qtot 43.145027
 1299         hx     44    bbb     H6   1299 0.14940300   1.008000   ; qtot 43.294430
 1300         c3     44    bbb     C4   1300 0.18057300  12.010000   ; qtot 43.475003
 1301         hc     44    bbb     H7   1301 0.01788900   1.008000   ; qtot 43.492892
 1302         hc     44    bbb     H8   1302 0.01788900   1.008000   ; qtot 43.510781
 1303         c3     44    bbb     C5   1303 -0.11337700  12.010000   ; qtot 43.397404
 1304         hc     44    bbb     H9   1304 0.09515400   1.008000   ; qtot 43.492558
 1305         hc     44    bbb    H10   1305 0.09515400   1.008000   ; qtot 43.587712
 1306         c3     44    bbb     C6   1306 -0.11337700  12.010000   ; qtot 43.474335
 1307         hc     44    bbb    H11   1307 0.09515400   1.008000   ; qtot 43.569489
 1308         hc     44    bbb    H12   1308 0.09515400   1.008000   ; qtot 43.664643
 1309         c3     44    bbb     C7   1309 0.21842400  12.010000   ; qtot 43.883067
 1310         h1     44    bbb    H13   1310 0.04500300   1.008000   ; qtot 43.928070
 1311         h1     44    bbb    H14   1311 0.04500300   1.008000   ; qtot 43.973073
 1312         c3     44    bbb     C8   1312 -0.06455200  12.010000   ; qtot 43.908521
 1313         h1     44    bbb    H15   1313 0.13554100   1.008000   ; qtot 44.044062
 1314         h1     44    bbb    H16   1314 0.13554100   1.008000   ; qtot 44.179603
 1315         c3     44    bbb     C9   1315 -0.06455200  12.010000   ; qtot 44.115051
 1316         h1     44    bbb    H17   1316 0.13554100   1.008000   ; qtot 44.250592
 1317         h1     44    bbb    H18   1317 0.13554100   1.008000   ; qtot 44.386133
 1318         os     44    bbb     O1   1318 -0.62587700  16.000000   ; qtot 43.760256
 1319         hn     44    bbb    H19   1319 0.23982500   1.008000   ; qtot 44.000081
; residue   45 bbb rtp bbb q 1.0
 1320         n4     45    bbb     N1   1320 0.03726400  14.010000   ; qtot 44.037345
 1321         c3     45    bbb     C1   1321 -0.07020100  12.010000   ; qtot 43.967144
 1322         hx     45    bbb     H1   1322 0.12219000   1.008000   ; qtot 44.089334
 1323         hx     45    bbb     H2   1323 0.12219000   1.008000   ; qtot 44.211524
 1324         c3     45    bbb     C2   1324 -0.07020100  12.010000   ; qtot 44.141323
 1325         hx     45    bbb     H3   1325 0.12219000   1.008000   ; qtot 44.263513
 1326         hx     45    bbb     H4   1326 0.12219000   1.008000   ; qtot 44.385703
 1327         c3     45    bbb     C3   1327 -0.39007700  12.010000   ; qtot 43.995626
 1328         hx     45    bbb     H5   1328 0.14940300   1.008000   ; qtot 44.145029
 1329         hx     45    bbb     H6   1329 0.14940300   1.008000   ; qtot 44.294432
 1330         c3     45    bbb     C4   1330 0.18057300  12.010000   ; qtot 44.475005
 1331         hc     45    bbb     H7   1331 0.01788900   1.008000   ; qtot 44.492894
 1332         hc     45    bbb     H8   1332 0.01788900   1.008000   ; qtot 44.510783
 1333         c3     45    bbb     C5   1333 -0.11337700  12.010000   ; qtot 44.397406
 1334         hc     45    bbb     H9   1334 0.09515400   1.008000   ; qtot 44.492560
 1335         hc     45    bbb    H10   1335 0.09515400   1.008000   ; qtot 44.587714
 1336         c3     45    bbb     C6   1336 -0.11337700  12.010000   ; qtot 44.474337
 1337         hc     45    bbb    H11   1337 0.09515400   1.008000   ; qtot 44.569491
 1338         hc     45    bbb    H12   1338 0.09515400   1.008000   ; qtot 44.664645
 1339         c3     45    bbb     C7   1339 0.21842400  12.010000   ; qtot 44.883069
 1340         h1     45    bbb    H13   1340 0.04500300   1.008000   ; qtot 44.928072
 1341         h1     45    bbb    H14   1341 0.04500300   1.008000   ; qtot 44.973075
 1342         c3     45    bbb     C8   1342 -0.06455200  12.010000   ; qtot 44.908523
 1343         h1     45    bbb    H15   1343 0.13554100   1.008000   ; qtot 45.044064
 1344         h1     45    bbb    H16   1344 0.13554100   1.008000   ; qtot 45.179605
 1345         c3     45    bbb     C9   1345 -0.06455200  12.010000   ; qtot 45.115053
 1346         h1     45    bbb    H17   1346 0.13554100   1.008000   ; qtot 45.250594
 1347         h1     45    bbb    H18   1347 0.13554100   1.008000   ; qtot 45.386135
 1348         os     45    bbb     O1   1348 -0.62587700  16.000000   ; qtot 44.760258
 1349         hn     45    bbb    H19   1349 0.23982500   1.008000   ; qtot 45.000083
; residue   46 bbb rtp bbb q 1.0
 1350         n4     46    bbb     N1   1350 0.03726400  14.010000   ; qtot 45.037347
 1351         c3     46    bbb     C1   1351 -0.07020100  12.010000   ; qtot 44.967146
 1352         hx     46    bbb     H1   1352 0.12219000   1.008000   ; qtot 45.089336
 1353         hx     46    bbb     H2   1353 0.12219000   1.008000   ; qtot 45.211526
 1354         c3     46    bbb     C2   1354 -0.07020100  12.010000   ; qtot 45.141325
 1355         hx     46    bbb     H3   1355 0.12219000   1.008000   ; qtot 45.263515
 1356         hx     46    bbb     H4   1356 0.12219000   1.008000   ; qtot 45.385705
 1357         c3     46    bbb     C3   1357 -0.39007700  12.010000   ; qtot 44.995628
 1358         hx     46    bbb     H5   1358 0.14940300   1.008000   ; qtot 45.145031
 1359         hx     46    bbb     H6   1359 0.14940300   1.008000   ; qtot 45.294434
 1360         c3     46    bbb     C4   1360 0.18057300  12.010000   ; qtot 45.475007
 1361         hc     46    bbb     H7   1361 0.01788900   1.008000   ; qtot 45.492896
 1362         hc     46    bbb     H8   1362 0.01788900   1.008000   ; qtot 45.510785
 1363         c3     46    bbb     C5   1363 -0.11337700  12.010000   ; qtot 45.397408
 1364         hc     46    bbb     H9   1364 0.09515400   1.008000   ; qtot 45.492562
 1365         hc     46    bbb    H10   1365 0.09515400   1.008000   ; qtot 45.587716
 1366         c3     46    bbb     C6   1366 -0.11337700  12.010000   ; qtot 45.474339
 1367         hc     46    bbb    H11   1367 0.09515400   1.008000   ; qtot 45.569493
 1368         hc     46    bbb    H12   1368 0.09515400   1.008000   ; qtot 45.664647
 1369         c3     46    bbb     C7   1369 0.21842400  12.010000   ; qtot 45.883071
 1370         h1     46    bbb    H13   1370 0.04500300   1.008000   ; qtot 45.928074
 1371         h1     46    bbb    H14   1371 0.04500300   1.008000   ; qtot 45.973077
 1372         c3     46    bbb     C8   1372 -0.06455200  12.010000   ; qtot 45.908525
 1373         h1     46    bbb    H15   1373 0.13554100   1.008000   ; qtot 46.044066
 1374         h1     46    bbb    H16   1374 0.13554100   1.008000   ; qtot 46.179607
 1375         c3     46    bbb     C9   1375 -0.06455200  12.010000   ; qtot 46.115055
 1376         h1     46    bbb    H17   1376 0.13554100   1.008000   ; qtot 46.250596
 1377         h1     46    bbb    H18   1377 0.13554100   1.008000   ; qtot 46.386137
 1378         os     46    bbb     O1   1378 -0.62587700  16.000000   ; qtot 45.760260
 1379         hn     46    bbb    H19   1379 0.23982500   1.008000   ; qtot 46.000085
; residue   47 bbb rtp bbb q 1.0
 1380         n4     47    bbb     N1   1380 0.03726400  14.010000   ; qtot 46.037349
 1381         c3     47    bbb     C1   1381 -0.07020100  12.010000   ; qtot 45.967148
 1382         hx     47    bbb     H1   1382 0.12219000   1.008000   ; qtot 46.089338
 1383         hx     47    bbb     H2   1383 0.12219000   1.008000   ; qtot 46.211528
 1384         c3     47    bbb     C2   1384 -0.07020100  12.010000   ; qtot 46.141327
 1385         hx     47    bbb     H3   1385 0.12219000   1.008000   ; qtot 46.263517
 1386         hx     47    bbb     H4   1386 0.12219000   1.008000   ; qtot 46.385707
 1387         c3     47    bbb     C3   1387 -0.39007700  12.010000   ; qtot 45.995630
 1388         hx     47    bbb     H5   1388 0.14940300   1.008000   ; qtot 46.145033
 1389         hx     47    bbb     H6   1389 0.14940300   1.008000   ; qtot 46.294436
 1390         c3     47    bbb     C4   1390 0.18057300  12.010000   ; qtot 46.475009
 1391         hc     47    bbb     H7   1391 0.01788900   1.008000   ; qtot 46.492898
 1392         hc     47    bbb     H8   1392 0.01788900   1.008000   ; qtot 46.510787
 1393         c3     47    bbb     C5   1393 -0.11337700  12.010000   ; qtot 46.397410
 1394         hc     47    bbb     H9   1394 0.09515400   1.008000   ; qtot 46.492564
 1395         hc     47    bbb    H10   1395 0.09515400   1.008000   ; qtot 46.587718
 1396         c3     47    bbb     C6   1396 -0.11337700  12.010000   ; qtot 46.474341
 1397         hc     47    bbb    H11   1397 0.09515400   1.008000   ; qtot 46.569495
 1398         hc     47    bbb    H12   1398 0.09515400   1.008000   ; qtot 46.664649
 1399         c3     47    bbb     C7   1399 0.21842400  12.010000   ; qtot 46.883073
 1400         h1     47    bbb    H13   1400 0.04500300   1.008000   ; qtot 46.928076
 1401         h1     47    bbb    H14   1401 0.04500300   1.008000   ; qtot 46.973079
 1402         c3     47    bbb     C8   1402 -0.06455200  12.010000   ; qtot 46.908527
 1403         h1     47    bbb    H15   1403 0.13554100   1.008000   ; qtot 47.044068
 1404         h1     47    bbb    H16   1404 0.13554100   1.008000   ; qtot 47.179609
 1405         c3     47    bbb     C9   1405 -0.06455200  12.010000   ; qtot 47.115057
 1406         h1     47    bbb    H17   1406 0.13554100   1.008000   ; qtot 47.250598
 1407         h1     47    bbb    H18   1407 0.13554100   1.008000   ; qtot 47.386139
 1408         os     47    bbb     O1   1408 -0.62587700  16.000000   ; qtot 46.760262
 1409         hn     47    bbb    H19   1409 0.23982500   1.008000   ; qtot 47.000087
; residue   48 bbb rtp bbb q 1.0
 1410         n4     48    bbb     N1   1410 0.03726400  14.010000   ; qtot 47.037351
 1411         c3     48    bbb     C1   1411 -0.07020100  12.010000   ; qtot 46.967150
 1412         hx     48    bbb     H1   1412 0.12219000   1.008000   ; qtot 47.089340
 1413         hx     48    bbb     H2   1413 0.12219000   1.008000   ; qtot 47.211530
 1414         c3     48    bbb     C2   1414 -0.07020100  12.010000   ; qtot 47.141329
 1415         hx     48    bbb     H3   1415 0.12219000   1.008000   ; qtot 47.263519
 1416         hx     48    bbb     H4   1416 0.12219000   1.008000   ; qtot 47.385709
 1417         c3     48    bbb     C3   1417 -0.39007700  12.010000   ; qtot 46.995632
 1418         hx     48    bbb     H5   1418 0.14940300   1.008000   ; qtot 47.145035
 1419         hx     48    bbb     H6   1419 0.14940300   1.008000   ; qtot 47.294438
 1420         c3     48    bbb     C4   1420 0.18057300  12.010000   ; qtot 47.475011
 1421         hc     48    bbb     H7   1421 0.01788900   1.008000   ; qtot 47.492900
 1422         hc     48    bbb     H8   1422 0.01788900   1.008000   ; qtot 47.510789
 1423         c3     48    bbb     C5   1423 -0.11337700  12.010000   ; qtot 47.397412
 1424         hc     48    bbb     H9   1424 0.09515400   1.008000   ; qtot 47.492566
 1425         hc     48    bbb    H10   1425 0.09515400   1.008000   ; qtot 47.587720
 1426         c3     48    bbb     C6   1426 -0.11337700  12.010000   ; qtot 47.474343
 1427         hc     48    bbb    H11   1427 0.09515400   1.008000   ; qtot 47.569497
 1428         hc     48    bbb    H12   1428 0.09515400   1.008000   ; qtot 47.664651
 1429         c3     48    bbb     C7   1429 0.21842400  12.010000   ; qtot 47.883075
 1430         h1     48    bbb    H13   1430 0.04500300   1.008000   ; qtot 47.928078
 1431         h1     48    bbb    H14   1431 0.04500300   1.008000   ; qtot 47.973081
 1432         c3     48    bbb     C8   1432 -0.06455200  12.010000   ; qtot 47.908529
 1433         h1     48    bbb    H15   1433 0.13554100   1.008000   ; qtot 48.044070
 1434         h1     48    bbb    H16   1434 0.13554100   1.008000   ; qtot 48.179611
 1435         c3     48    bbb     C9   1435 -0.06455200  12.010000   ; qtot 48.115059
 1436         h1     48    bbb    H17   1436 0.13554100   1.008000   ; qtot 48.250600
 1437         h1     48    bbb    H18   1437 0.13554100   1.008000   ; qtot 48.386141
 1438         os     48    bbb     O1   1438 -0.62587700  16.000000   ; qtot 47.760264
 1439         hn     48    bbb    H19   1439 0.23982500   1.008000   ; qtot 48.000089
; residue   49 bbb rtp bbb q 1.0
 1440         n4     49    bbb     N1   1440 0.03726400  14.010000   ; qtot 48.037353
 1441         c3     49    bbb     C1   1441 -0.07020100  12.010000   ; qtot 47.967152
 1442         hx     49    bbb     H1   1442 0.12219000   1.008000   ; qtot 48.089342
 1443         hx     49    bbb     H2   1443 0.12219000   1.008000   ; qtot 48.211532
 1444         c3     49    bbb     C2   1444 -0.07020100  12.010000   ; qtot 48.141331
 1445         hx     49    bbb     H3   1445 0.12219000   1.008000   ; qtot 48.263521
 1446         hx     49    bbb     H4   1446 0.12219000   1.008000   ; qtot 48.385711
 1447         c3     49    bbb     C3   1447 -0.39007700  12.010000   ; qtot 47.995634
 1448         hx     49    bbb     H5   1448 0.14940300   1.008000   ; qtot 48.145037
 1449         hx     49    bbb     H6   1449 0.14940300   1.008000   ; qtot 48.294440
 1450         c3     49    bbb     C4   1450 0.18057300  12.010000   ; qtot 48.475013
 1451         hc     49    bbb     H7   1451 0.01788900   1.008000   ; qtot 48.492902
 1452         hc     49    bbb     H8   1452 0.01788900   1.008000   ; qtot 48.510791
 1453         c3     49    bbb     C5   1453 -0.11337700  12.010000   ; qtot 48.397414
 1454         hc     49    bbb     H9   1454 0.09515400   1.008000   ; qtot 48.492568
 1455         hc     49    bbb    H10   1455 0.09515400   1.008000   ; qtot 48.587722
 1456         c3     49    bbb     C6   1456 -0.11337700  12.010000   ; qtot 48.474345
 1457         hc     49    bbb    H11   1457 0.09515400   1.008000   ; qtot 48.569499
 1458         hc     49    bbb    H12   1458 0.09515400   1.008000   ; qtot 48.664653
 1459         c3     49    bbb     C7   1459 0.21842400  12.010000   ; qtot 48.883077
 1460         h1     49    bbb    H13   1460 0.04500300   1.008000   ; qtot 48.928080
 1461         h1     49    bbb    H14   1461 0.04500300   1.008000   ; qtot 48.973083
 1462         c3     49    bbb     C8   1462 -0.06455200  12.010000   ; qtot 48.908531
 1463         h1     49    bbb    H15   1463 0.13554100   1.008000   ; qtot 49.044072
 1464         h1     49    bbb    H16   1464 0.13554100   1.008000   ; qtot 49.179613
 1465         c3     49    bbb     C9   1465 -0.06455200  12.010000   ; qtot 49.115061
 1466         h1     49    bbb    H17   1466 0.13554100   1.008000   ; qtot 49.250602
 1467         h1     49    bbb    H18   1467 0.13554100   1.008000   ; qtot 49.386143
 1468         os     49    bbb     O1   1468 -0.62587700  16.000000   ; qtot 48.760266
 1469         hn     49    bbb    H19   1469 0.23982500   1.008000   ; qtot 49.000091
; residue   50 bbb rtp bbb q 1.0
 1470         n4     50    bbb     N1   1470 0.03726400  14.010000   ; qtot 49.037355
 1471         c3     50    bbb     C1   1471 -0.07020100  12.010000   ; qtot 48.967154
 1472         hx     50    bbb     H1   1472 0.12219000   1.008000   ; qtot 49.089344
 1473         hx     50    bbb     H2   1473 0.12219000   1.008000   ; qtot 49.211534
 1474         c3     50    bbb     C2   1474 -0.07020100  12.010000   ; qtot 49.141333
 1475         hx     50    bbb     H3   1475 0.12219000   1.008000   ; qtot 49.263523
 1476         hx     50    bbb     H4   1476 0.12219000   1.008000   ; qtot 49.385713
 1477         c3     50    bbb     C3   1477 -0.39007700  12.010000   ; qtot 48.995636
 1478         hx     50    bbb     H5   1478 0.14940300   1.008000   ; qtot 49.145039
 1479         hx     50    bbb     H6   1479 0.14940300   1.008000   ; qtot 49.294442
 1480         c3     50    bbb     C4   1480 0.18057300  12.010000   ; qtot 49.475015
 1481         hc     50    bbb     H7   1481 0.01788900   1.008000   ; qtot 49.492904
 1482         hc     50    bbb     H8   1482 0.01788900   1.008000   ; qtot 49.510793
 1483         c3     50    bbb     C5   1483 -0.11337700  12.010000   ; qtot 49.397416
 1484         hc     50    bbb     H9   1484 0.09515400   1.008000   ; qtot 49.492570
 1485         hc     50    bbb    H10   1485 0.09515400   1.008000   ; qtot 49.587724
 1486         c3     50    bbb     C6   1486 -0.11337700  12.010000   ; qtot 49.474347
 1487         hc     50    bbb    H11   1487 0.09515400   1.008000   ; qtot 49.569501
 1488         hc     50    bbb    H12   1488 0.09515400   1.008000   ; qtot 49.664655
 1489         c3     50    bbb     C7   1489 0.21842400  12.010000   ; qtot 49.883079
 1490         h1     50    bbb    H13   1490 0.04500300   1.008000   ; qtot 49.928082
 1491         h1     50    bbb    H14   1491 0.04500300   1.008000   ; qtot 49.973085
 1492         c3     50    bbb     C8   1492 -0.06455200  12.010000   ; qtot 49.908533
 1493         h1     50    bbb    H15   1493 0.13554100   1.008000   ; qtot 50.044074
 1494         h1     50    bbb    H16   1494 0.13554100   1.008000   ; qtot 50.179615
 1495         c3     50    bbb     C9   1495 -0.06455200  12.010000   ; qtot 50.115063
 1496         h1     50    bbb    H17   1496 0.13554100   1.008000   ; qtot 50.250604
 1497         h1     50    bbb    H18   1497 0.13554100   1.008000   ; qtot 50.386145
 1498         os     50    bbb     O1   1498 -0.62587700  16.000000   ; qtot 49.760268
 1499         hn     50    bbb    H19   1499 0.23982500   1.008000   ; qtot 50.000093
; residue   51 bbb rtp bbb q 1.0
 1500         n4     51    bbb     N1   1500 0.03726400  14.010000   ; qtot 50.037357
 1501         c3     51    bbb     C1   1501 -0.07020100  12.010000   ; qtot 49.967156
 1502         hx     51    bbb     H1   1502 0.12219000   1.008000   ; qtot 50.089346
 1503         hx     51    bbb     H2   1503 0.12219000   1.008000   ; qtot 50.211536
 1504         c3     51    bbb     C2   1504 -0.07020100  12.010000   ; qtot 50.141335
 1505         hx     51    bbb     H3   1505 0.12219000   1.008000   ; qtot 50.263525
 1506         hx     51    bbb     H4   1506 0.12219000   1.008000   ; qtot 50.385715
 1507         c3     51    bbb     C3   1507 -0.39007700  12.010000   ; qtot 49.995638
 1508         hx     51    bbb     H5   1508 0.14940300   1.008000   ; qtot 50.145041
 1509         hx     51    bbb     H6   1509 0.14940300   1.008000   ; qtot 50.294444
 1510         c3     51    bbb     C4   1510 0.18057300  12.010000   ; qtot 50.475017
 1511         hc     51    bbb     H7   1511 0.01788900   1.008000   ; qtot 50.492906
 1512         hc     51    bbb     H8   1512 0.01788900   1.008000   ; qtot 50.510795
 1513         c3     51    bbb     C5   1513 -0.11337700  12.010000   ; qtot 50.397418
 1514         hc     51    bbb     H9   1514 0.09515400   1.008000   ; qtot 50.492572
 1515         hc     51    bbb    H10   1515 0.09515400   1.008000   ; qtot 50.587726
 1516         c3     51    bbb     C6   1516 -0.11337700  12.010000   ; qtot 50.474349
 1517         hc     51    bbb    H11   1517 0.09515400   1.008000   ; qtot 50.569503
 1518         hc     51    bbb    H12   1518 0.09515400   1.008000   ; qtot 50.664657
 1519         c3     51    bbb     C7   1519 0.21842400  12.010000   ; qtot 50.883081
 1520         h1     51    bbb    H13   1520 0.04500300   1.008000   ; qtot 50.928084
 1521         h1     51    bbb    H14   1521 0.04500300   1.008000   ; qtot 50.973087
 1522         c3     51    bbb     C8   1522 -0.06455200  12.010000   ; qtot 50.908535
 1523         h1     51    bbb    H15   1523 0.13554100   1.008000   ; qtot 51.044076
 1524         h1     51    bbb    H16   1524 0.13554100   1.008000   ; qtot 51.179617
 1525         c3     51    bbb     C9   1525 -0.06455200  12.010000   ; qtot 51.115065
 1526         h1     51    bbb    H17   1526 0.13554100   1.008000   ; qtot 51.250606
 1527         h1     51    bbb    H18   1527 0.13554100   1.008000   ; qtot 51.386147
 1528         os     51    bbb     O1   1528 -0.62587700  16.000000   ; qtot 50.760270
 1529         hn     51    bbb    H19   1529 0.23982500   1.008000   ; qtot 51.000095
; residue   52 bbb rtp bbb q 1.0
 1530         n4     52    bbb     N1   1530 0.03726400  14.010000   ; qtot 51.037359
 1531         c3     52    bbb     C1   1531 -0.07020100  12.010000   ; qtot 50.967158
 1532         hx     52    bbb     H1   1532 0.12219000   1.008000   ; qtot 51.089348
 1533         hx     52    bbb     H2   1533 0.12219000   1.008000   ; qtot 51.211538
 1534         c3     52    bbb     C2   1534 -0.07020100  12.010000   ; qtot 51.141337
 1535         hx     52    bbb     H3   1535 0.12219000   1.008000   ; qtot 51.263527
 1536         hx     52    bbb     H4   1536 0.12219000   1.008000   ; qtot 51.385717
 1537         c3     52    bbb     C3   1537 -0.39007700  12.010000   ; qtot 50.995640
 1538         hx     52    bbb     H5   1538 0.14940300   1.008000   ; qtot 51.145043
 1539         hx     52    bbb     H6   1539 0.14940300   1.008000   ; qtot 51.294446
 1540         c3     52    bbb     C4   1540 0.18057300  12.010000   ; qtot 51.475019
 1541         hc     52    bbb     H7   1541 0.01788900   1.008000   ; qtot 51.492908
 1542         hc     52    bbb     H8   1542 0.01788900   1.008000   ; qtot 51.510797
 1543         c3     52    bbb     C5   1543 -0.11337700  12.010000   ; qtot 51.397420
 1544         hc     52    bbb     H9   1544 0.09515400   1.008000   ; qtot 51.492574
 1545         hc     52    bbb    H10   1545 0.09515400   1.008000   ; qtot 51.587728
 1546         c3     52    bbb     C6   1546 -0.11337700  12.010000   ; qtot 51.474351
 1547         hc     52    bbb    H11   1547 0.09515400   1.008000   ; qtot 51.569505
 1548         hc     52    bbb    H12   1548 0.09515400   1.008000   ; qtot 51.664659
 1549         c3     52    bbb     C7   1549 0.21842400  12.010000   ; qtot 51.883083
 1550         h1     52    bbb    H13   1550 0.04500300   1.008000   ; qtot 51.928086
 1551         h1     52    bbb    H14   1551 0.04500300   1.008000   ; qtot 51.973089
 1552         c3     52    bbb     C8   1552 -0.06455200  12.010000   ; qtot 51.908537
 1553         h1     52    bbb    H15   1553 0.13554100   1.008000   ; qtot 52.044078
 1554         h1     52    bbb    H16   1554 0.13554100   1.008000   ; qtot 52.179619
 1555         c3     52    bbb     C9   1555 -0.06455200  12.010000   ; qtot 52.115067
 1556         h1     52    bbb    H17   1556 0.13554100   1.008000   ; qtot 52.250608
 1557         h1     52    bbb    H18   1557 0.13554100   1.008000   ; qtot 52.386149
 1558         os     52    bbb     O1   1558 -0.62587700  16.000000   ; qtot 51.760272
 1559         hn     52    bbb    H19   1559 0.23982500   1.008000   ; qtot 52.000097
; residue   53 bbb rtp bbb q 1.0
 1560         n4     53    bbb     N1   1560 0.03726400  14.010000   ; qtot 52.037361
 1561         c3     53    bbb     C1   1561 -0.07020100  12.010000   ; qtot 51.967160
 1562         hx     53    bbb     H1   1562 0.12219000   1.008000   ; qtot 52.089350
 1563         hx     53    bbb     H2   1563 0.12219000   1.008000   ; qtot 52.211540
 1564         c3     53    bbb     C2   1564 -0.07020100  12.010000   ; qtot 52.141339
 1565         hx     53    bbb     H3   1565 0.12219000   1.008000   ; qtot 52.263529
 1566         hx     53    bbb     H4   1566 0.12219000   1.008000   ; qtot 52.385719
 1567         c3     53    bbb     C3   1567 -0.39007700  12.010000   ; qtot 51.995642
 1568         hx     53    bbb     H5   1568 0.14940300   1.008000   ; qtot 52.145045
 1569         hx     53    bbb     H6   1569 0.14940300   1.008000   ; qtot 52.294448
 1570         c3     53    bbb     C4   1570 0.18057300  12.010000   ; qtot 52.475021
 1571         hc     53    bbb     H7   1571 0.01788900   1.008000   ; qtot 52.492910
 1572         hc     53    bbb     H8   1572 0.01788900   1.008000   ; qtot 52.510799
 1573         c3     53    bbb     C5   1573 -0.11337700  12.010000   ; qtot 52.397422
 1574         hc     53    bbb     H9   1574 0.09515400   1.008000   ; qtot 52.492576
 1575         hc     53    bbb    H10   1575 0.09515400   1.008000   ; qtot 52.587730
 1576         c3     53    bbb     C6   1576 -0.11337700  12.010000   ; qtot 52.474353
 1577         hc     53    bbb    H11   1577 0.09515400   1.008000   ; qtot 52.569507
 1578         hc     53    bbb    H12   1578 0.09515400   1.008000   ; qtot 52.664661
 1579         c3     53    bbb     C7   1579 0.21842400  12.010000   ; qtot 52.883085
 1580         h1     53    bbb    H13   1580 0.04500300   1.008000   ; qtot 52.928088
 1581         h1     53    bbb    H14   1581 0.04500300   1.008000   ; qtot 52.973091
 1582         c3     53    bbb     C8   1582 -0.06455200  12.010000   ; qtot 52.908539
 1583         h1     53    bbb    H15   1583 0.13554100   1.008000   ; qtot 53.044080
 1584         h1     53    bbb    H16   1584 0.13554100   1.008000   ; qtot 53.179621
 1585         c3     53    bbb     C9   1585 -0.06455200  12.010000   ; qtot 53.115069
 1586         h1     53    bbb    H17   1586 0.13554100   1.008000   ; qtot 53.250610
 1587         h1     53    bbb    H18   1587 0.13554100   1.008000   ; qtot 53.386151
 1588         os     53    bbb     O1   1588 -0.62587700  16.000000   ; qtot 52.760274
 1589         hn     53    bbb    H19   1589 0.23982500   1.008000   ; qtot 53.000099
; residue   54 bbb rtp bbb q 1.0
 1590         n4     54    bbb     N1   1590 0.03726400  14.010000   ; qtot 53.037363
 1591         c3     54    bbb     C1   1591 -0.07020100  12.010000   ; qtot 52.967162
 1592         hx     54    bbb     H1   1592 0.12219000   1.008000   ; qtot 53.089352
 1593         hx     54    bbb     H2   1593 0.12219000   1.008000   ; qtot 53.211542
 1594         c3     54    bbb     C2   1594 -0.07020100  12.010000   ; qtot 53.141341
 1595         hx     54    bbb     H3   1595 0.12219000   1.008000   ; qtot 53.263531
 1596         hx     54    bbb     H4   1596 0.12219000   1.008000   ; qtot 53.385721
 1597         c3     54    bbb     C3   1597 -0.39007700  12.010000   ; qtot 52.995644
 1598         hx     54    bbb     H5   1598 0.14940300   1.008000   ; qtot 53.145047
 1599         hx     54    bbb     H6   1599 0.14940300   1.008000   ; qtot 53.294450
 1600         c3     54    bbb     C4   1600 0.18057300  12.010000   ; qtot 53.475023
 1601         hc     54    bbb     H7   1601 0.01788900   1.008000   ; qtot 53.492912
 1602         hc     54    bbb     H8   1602 0.01788900   1.008000   ; qtot 53.510801
 1603         c3     54    bbb     C5   1603 -0.11337700  12.010000   ; qtot 53.397424
 1604         hc     54    bbb     H9   1604 0.09515400   1.008000   ; qtot 53.492578
 1605         hc     54    bbb    H10   1605 0.09515400   1.008000   ; qtot 53.587732
 1606         c3     54    bbb     C6   1606 -0.11337700  12.010000   ; qtot 53.474355
 1607         hc     54    bbb    H11   1607 0.09515400   1.008000   ; qtot 53.569509
 1608         hc     54    bbb    H12   1608 0.09515400   1.008000   ; qtot 53.664663
 1609         c3     54    bbb     C7   1609 0.21842400  12.010000   ; qtot 53.883087
 1610         h1     54    bbb    H13   1610 0.04500300   1.008000   ; qtot 53.928090
 1611         h1     54    bbb    H14   1611 0.04500300   1.008000   ; qtot 53.973093
 1612         c3     54    bbb     C8   1612 -0.06455200  12.010000   ; qtot 53.908541
 1613         h1     54    bbb    H15   1613 0.13554100   1.008000   ; qtot 54.044082
 1614         h1     54    bbb    H16   1614 0.13554100   1.008000   ; qtot 54.179623
 1615         c3     54    bbb     C9   1615 -0.06455200  12.010000   ; qtot 54.115071
 1616         h1     54    bbb    H17   1616 0.13554100   1.008000   ; qtot 54.250612
 1617         h1     54    bbb    H18   1617 0.13554100   1.008000   ; qtot 54.386153
 1618         os     54    bbb     O1   1618 -0.62587700  16.000000   ; qtot 53.760276
 1619         hn     54    bbb    H19   1619 0.23982500   1.008000   ; qtot 54.000101
; residue   55 bbb rtp bbb q 1.0
 1620         n4     55    bbb     N1   1620 0.03726400  14.010000   ; qtot 54.037365
 1621         c3     55    bbb     C1   1621 -0.07020100  12.010000   ; qtot 53.967164
 1622         hx     55    bbb     H1   1622 0.12219000   1.008000   ; qtot 54.089354
 1623         hx     55    bbb     H2   1623 0.12219000   1.008000   ; qtot 54.211544
 1624         c3     55    bbb     C2   1624 -0.07020100  12.010000   ; qtot 54.141343
 1625         hx     55    bbb     H3   1625 0.12219000   1.008000   ; qtot 54.263533
 1626         hx     55    bbb     H4   1626 0.12219000   1.008000   ; qtot 54.385723
 1627         c3     55    bbb     C3   1627 -0.39007700  12.010000   ; qtot 53.995646
 1628         hx     55    bbb     H5   1628 0.14940300   1.008000   ; qtot 54.145049
 1629         hx     55    bbb     H6   1629 0.14940300   1.008000   ; qtot 54.294452
 1630         c3     55    bbb     C4   1630 0.18057300  12.010000   ; qtot 54.475025
 1631         hc     55    bbb     H7   1631 0.01788900   1.008000   ; qtot 54.492914
 1632         hc     55    bbb     H8   1632 0.01788900   1.008000   ; qtot 54.510803
 1633         c3     55    bbb     C5   1633 -0.11337700  12.010000   ; qtot 54.397426
 1634         hc     55    bbb     H9   1634 0.09515400   1.008000   ; qtot 54.492580
 1635         hc     55    bbb    H10   1635 0.09515400   1.008000   ; qtot 54.587734
 1636         c3     55    bbb     C6   1636 -0.11337700  12.010000   ; qtot 54.474357
 1637         hc     55    bbb    H11   1637 0.09515400   1.008000   ; qtot 54.569511
 1638         hc     55    bbb    H12   1638 0.09515400   1.008000   ; qtot 54.664665
 1639         c3     55    bbb     C7   1639 0.21842400  12.010000   ; qtot 54.883089
 1640         h1     55    bbb    H13   1640 0.04500300   1.008000   ; qtot 54.928092
 1641         h1     55    bbb    H14   1641 0.04500300   1.008000   ; qtot 54.973095
 1642         c3     55    bbb     C8   1642 -0.06455200  12.010000   ; qtot 54.908543
 1643         h1     55    bbb    H15   1643 0.13554100   1.008000   ; qtot 55.044084
 1644         h1     55    bbb    H16   1644 0.13554100   1.008000   ; qtot 55.179625
 1645         c3     55    bbb     C9   1645 -0.06455200  12.010000   ; qtot 55.115073
 1646         h1     55    bbb    H17   1646 0.13554100   1.008000   ; qtot 55.250614
 1647         h1     55    bbb    H18   1647 0.13554100   1.008000   ; qtot 55.386155
 1648         os     55    bbb     O1   1648 -0.62587700  16.000000   ; qtot 54.760278
 1649         hn     55    bbb    H19   1649 0.23982500   1.008000   ; qtot 55.000103
; residue   56 bbb rtp bbb q 1.0
 1650         n4     56    bbb     N1   1650 0.03726400  14.010000   ; qtot 55.037367
 1651         c3     56    bbb     C1   1651 -0.07020100  12.010000   ; qtot 54.967166
 1652         hx     56    bbb     H1   1652 0.12219000   1.008000   ; qtot 55.089356
 1653         hx     56    bbb     H2   1653 0.12219000   1.008000   ; qtot 55.211546
 1654         c3     56    bbb     C2   1654 -0.07020100  12.010000   ; qtot 55.141345
 1655         hx     56    bbb     H3   1655 0.12219000   1.008000   ; qtot 55.263535
 1656         hx     56    bbb     H4   1656 0.12219000   1.008000   ; qtot 55.385725
 1657         c3     56    bbb     C3   1657 -0.39007700  12.010000   ; qtot 54.995648
 1658         hx     56    bbb     H5   1658 0.14940300   1.008000   ; qtot 55.145051
 1659         hx     56    bbb     H6   1659 0.14940300   1.008000   ; qtot 55.294454
 1660         c3     56    bbb     C4   1660 0.18057300  12.010000   ; qtot 55.475027
 1661         hc     56    bbb     H7   1661 0.01788900   1.008000   ; qtot 55.492916
 1662         hc     56    bbb     H8   1662 0.01788900   1.008000   ; qtot 55.510805
 1663         c3     56    bbb     C5   1663 -0.11337700  12.010000   ; qtot 55.397428
 1664         hc     56    bbb     H9   1664 0.09515400   1.008000   ; qtot 55.492582
 1665         hc     56    bbb    H10   1665 0.09515400   1.008000   ; qtot 55.587736
 1666         c3     56    bbb     C6   1666 -0.11337700  12.010000   ; qtot 55.474359
 1667         hc     56    bbb    H11   1667 0.09515400   1.008000   ; qtot 55.569513
 1668         hc     56    bbb    H12   1668 0.09515400   1.008000   ; qtot 55.664667
 1669         c3     56    bbb     C7   1669 0.21842400  12.010000   ; qtot 55.883091
 1670         h1     56    bbb    H13   1670 0.04500300   1.008000   ; qtot 55.928094
 1671         h1     56    bbb    H14   1671 0.04500300   1.008000   ; qtot 55.973097
 1672         c3     56    bbb     C8   1672 -0.06455200  12.010000   ; qtot 55.908545
 1673         h1     56    bbb    H15   1673 0.13554100   1.008000   ; qtot 56.044086
 1674         h1     56    bbb    H16   1674 0.13554100   1.008000   ; qtot 56.179627
 1675         c3     56    bbb     C9   1675 -0.06455200  12.010000   ; qtot 56.115075
 1676         h1     56    bbb    H17   1676 0.13554100   1.008000   ; qtot 56.250616
 1677         h1     56    bbb    H18   1677 0.13554100   1.008000   ; qtot 56.386157
 1678         os     56    bbb     O1   1678 -0.62587700  16.000000   ; qtot 55.760280
 1679         hn     56    bbb    H19   1679 0.23982500   1.008000   ; qtot 56.000105
; residue   57 bbb rtp bbb q 1.0
 1680         n4     57    bbb     N1   1680 0.03726400  14.010000   ; qtot 56.037369
 1681         c3     57    bbb     C1   1681 -0.07020100  12.010000   ; qtot 55.967168
 1682         hx     57    bbb     H1   1682 0.12219000   1.008000   ; qtot 56.089358
 1683         hx     57    bbb     H2   1683 0.12219000   1.008000   ; qtot 56.211548
 1684         c3     57    bbb     C2   1684 -0.07020100  12.010000   ; qtot 56.141347
 1685         hx     57    bbb     H3   1685 0.12219000   1.008000   ; qtot 56.263537
 1686         hx     57    bbb     H4   1686 0.12219000   1.008000   ; qtot 56.385727
 1687         c3     57    bbb     C3   1687 -0.39007700  12.010000   ; qtot 55.995650
 1688         hx     57    bbb     H5   1688 0.14940300   1.008000   ; qtot 56.145053
 1689         hx     57    bbb     H6   1689 0.14940300   1.008000   ; qtot 56.294456
 1690         c3     57    bbb     C4   1690 0.18057300  12.010000   ; qtot 56.475029
 1691         hc     57    bbb     H7   1691 0.01788900   1.008000   ; qtot 56.492918
 1692         hc     57    bbb     H8   1692 0.01788900   1.008000   ; qtot 56.510807
 1693         c3     57    bbb     C5   1693 -0.11337700  12.010000   ; qtot 56.397430
 1694         hc     57    bbb     H9   1694 0.09515400   1.008000   ; qtot 56.492584
 1695         hc     57    bbb    H10   1695 0.09515400   1.008000   ; qtot 56.587738
 1696         c3     57    bbb     C6   1696 -0.11337700  12.010000   ; qtot 56.474361
 1697         hc     57    bbb    H11   1697 0.09515400   1.008000   ; qtot 56.569515
 1698         hc     57    bbb    H12   1698 0.09515400   1.008000   ; qtot 56.664669
 1699         c3     57    bbb     C7   1699 0.21842400  12.010000   ; qtot 56.883093
 1700         h1     57    bbb    H13   1700 0.04500300   1.008000   ; qtot 56.928096
 1701         h1     57    bbb    H14   1701 0.04500300   1.008000   ; qtot 56.973099
 1702         c3     57    bbb     C8   1702 -0.06455200  12.010000   ; qtot 56.908547
 1703         h1     57    bbb    H15   1703 0.13554100   1.008000   ; qtot 57.044088
 1704         h1     57    bbb    H16   1704 0.13554100   1.008000   ; qtot 57.179629
 1705         c3     57    bbb     C9   1705 -0.06455200  12.010000   ; qtot 57.115077
 1706         h1     57    bbb    H17   1706 0.13554100   1.008000   ; qtot 57.250618
 1707         h1     57    bbb    H18   1707 0.13554100   1.008000   ; qtot 57.386159
 1708         os     57    bbb     O1   1708 -0.62587700  16.000000   ; qtot 56.760282
 1709         hn     57    bbb    H19   1709 0.23982500   1.008000   ; qtot 57.000107
; residue   58 bbb rtp bbb q 1.0
 1710         n4     58    bbb     N1   1710 0.03726400  14.010000   ; qtot 57.037371
 1711         c3     58    bbb     C1   1711 -0.07020100  12.010000   ; qtot 56.967170
 1712         hx     58    bbb     H1   1712 0.12219000   1.008000   ; qtot 57.089360
 1713         hx     58    bbb     H2   1713 0.12219000   1.008000   ; qtot 57.211550
 1714         c3     58    bbb     C2   1714 -0.07020100  12.010000   ; qtot 57.141349
 1715         hx     58    bbb     H3   1715 0.12219000   1.008000   ; qtot 57.263539
 1716         hx     58    bbb     H4   1716 0.12219000   1.008000   ; qtot 57.385729
 1717         c3     58    bbb     C3   1717 -0.39007700  12.010000   ; qtot 56.995652
 1718         hx     58    bbb     H5   1718 0.14940300   1.008000   ; qtot 57.145055
 1719         hx     58    bbb     H6   1719 0.14940300   1.008000   ; qtot 57.294458
 1720         c3     58    bbb     C4   1720 0.18057300  12.010000   ; qtot 57.475031
 1721         hc     58    bbb     H7   1721 0.01788900   1.008000   ; qtot 57.492920
 1722         hc     58    bbb     H8   1722 0.01788900   1.008000   ; qtot 57.510809
 1723         c3     58    bbb     C5   1723 -0.11337700  12.010000   ; qtot 57.397432
 1724         hc     58    bbb     H9   1724 0.09515400   1.008000   ; qtot 57.492586
 1725         hc     58    bbb    H10   1725 0.09515400   1.008000   ; qtot 57.587740
 1726         c3     58    bbb     C6   1726 -0.11337700  12.010000   ; qtot 57.474363
 1727         hc     58    bbb    H11   1727 0.09515400   1.008000   ; qtot 57.569517
 1728         hc     58    bbb    H12   1728 0.09515400   1.008000   ; qtot 57.664671
 1729         c3     58    bbb     C7   1729 0.21842400  12.010000   ; qtot 57.883095
 1730         h1     58    bbb    H13   1730 0.04500300   1.008000   ; qtot 57.928098
 1731         h1     58    bbb    H14   1731 0.04500300   1.008000   ; qtot 57.973101
 1732         c3     58    bbb     C8   1732 -0.06455200  12.010000   ; qtot 57.908549
 1733         h1     58    bbb    H15   1733 0.13554100   1.008000   ; qtot 58.044090
 1734         h1     58    bbb    H16   1734 0.13554100   1.008000   ; qtot 58.179631
 1735         c3     58    bbb     C9   1735 -0.06455200  12.010000   ; qtot 58.115079
 1736         h1     58    bbb    H17   1736 0.13554100   1.008000   ; qtot 58.250620
 1737         h1     58    bbb    H18   1737 0.13554100   1.008000   ; qtot 58.386161
 1738         os     58    bbb     O1   1738 -0.62587700  16.000000   ; qtot 57.760284
 1739         hn     58    bbb    H19   1739 0.23982500   1.008000   ; qtot 58.000109
; residue   59 bbb rtp bbb q 1.0
 1740         n4     59    bbb     N1   1740 0.03726400  14.010000   ; qtot 58.037373
 1741         c3     59    bbb     C1   1741 -0.07020100  12.010000   ; qtot 57.967172
 1742         hx     59    bbb     H1   1742 0.12219000   1.008000   ; qtot 58.089362
 1743         hx     59    bbb     H2   1743 0.12219000   1.008000   ; qtot 58.211552
 1744         c3     59    bbb     C2   1744 -0.07020100  12.010000   ; qtot 58.141351
 1745         hx     59    bbb     H3   1745 0.12219000   1.008000   ; qtot 58.263541
 1746         hx     59    bbb     H4   1746 0.12219000   1.008000   ; qtot 58.385731
 1747         c3     59    bbb     C3   1747 -0.39007700  12.010000   ; qtot 57.995654
 1748         hx     59    bbb     H5   1748 0.14940300   1.008000   ; qtot 58.145057
 1749         hx     59    bbb     H6   1749 0.14940300   1.008000   ; qtot 58.294460
 1750         c3     59    bbb     C4   1750 0.18057300  12.010000   ; qtot 58.475033
 1751         hc     59    bbb     H7   1751 0.01788900   1.008000   ; qtot 58.492922
 1752         hc     59    bbb     H8   1752 0.01788900   1.008000   ; qtot 58.510811
 1753         c3     59    bbb     C5   1753 -0.11337700  12.010000   ; qtot 58.397434
 1754         hc     59    bbb     H9   1754 0.09515400   1.008000   ; qtot 58.492588
 1755         hc     59    bbb    H10   1755 0.09515400   1.008000   ; qtot 58.587742
 1756         c3     59    bbb     C6   1756 -0.11337700  12.010000   ; qtot 58.474365
 1757         hc     59    bbb    H11   1757 0.09515400   1.008000   ; qtot 58.569519
 1758         hc     59    bbb    H12   1758 0.09515400   1.008000   ; qtot 58.664673
 1759         c3     59    bbb     C7   1759 0.21842400  12.010000   ; qtot 58.883097
 1760         h1     59    bbb    H13   1760 0.04500300   1.008000   ; qtot 58.928100
 1761         h1     59    bbb    H14   1761 0.04500300   1.008000   ; qtot 58.973103
 1762         c3     59    bbb     C8   1762 -0.06455200  12.010000   ; qtot 58.908551
 1763         h1     59    bbb    H15   1763 0.13554100   1.008000   ; qtot 59.044092
 1764         h1     59    bbb    H16   1764 0.13554100   1.008000   ; qtot 59.179633
 1765         c3     59    bbb     C9   1765 -0.06455200  12.010000   ; qtot 59.115081
 1766         h1     59    bbb    H17   1766 0.13554100   1.008000   ; qtot 59.250622
 1767         h1     59    bbb    H18   1767 0.13554100   1.008000   ; qtot 59.386163
 1768         os     59    bbb     O1   1768 -0.62587700  16.000000   ; qtot 58.760286
 1769         hn     59    bbb    H19   1769 0.23982500   1.008000   ; qtot 59.000111
; residue   60 bbb rtp bbb q 1.0
 1770         n4     60    bbb     N1   1770 0.03726400  14.010000   ; qtot 59.037375
 1771         c3     60    bbb     C1   1771 -0.07020100  12.010000   ; qtot 58.967174
 1772         hx     60    bbb     H1   1772 0.12219000   1.008000   ; qtot 59.089364
 1773         hx     60    bbb     H2   1773 0.12219000   1.008000   ; qtot 59.211554
 1774         c3     60    bbb     C2   1774 -0.07020100  12.010000   ; qtot 59.141353
 1775         hx     60    bbb     H3   1775 0.12219000   1.008000   ; qtot 59.263543
 1776         hx     60    bbb     H4   1776 0.12219000   1.008000   ; qtot 59.385733
 1777         c3     60    bbb     C3   1777 -0.39007700  12.010000   ; qtot 58.995656
 1778         hx     60    bbb     H5   1778 0.14940300   1.008000   ; qtot 59.145059
 1779         hx     60    bbb     H6   1779 0.14940300   1.008000   ; qtot 59.294462
 1780         c3     60    bbb     C4   1780 0.18057300  12.010000   ; qtot 59.475035
 1781         hc     60    bbb     H7   1781 0.01788900   1.008000   ; qtot 59.492924
 1782         hc     60    bbb     H8   1782 0.01788900   1.008000   ; qtot 59.510813
 1783         c3     60    bbb     C5   1783 -0.11337700  12.010000   ; qtot 59.397436
 1784         hc     60    bbb     H9   1784 0.09515400   1.008000   ; qtot 59.492590
 1785         hc     60    bbb    H10   1785 0.09515400   1.008000   ; qtot 59.587744
 1786         c3     60    bbb     C6   1786 -0.11337700  12.010000   ; qtot 59.474367
 1787         hc     60    bbb    H11   1787 0.09515400   1.008000   ; qtot 59.569521
 1788         hc     60    bbb    H12   1788 0.09515400   1.008000   ; qtot 59.664675
 1789         c3     60    bbb     C7   1789 0.21842400  12.010000   ; qtot 59.883099
 1790         h1     60    bbb    H13   1790 0.04500300   1.008000   ; qtot 59.928102
 1791         h1     60    bbb    H14   1791 0.04500300   1.008000   ; qtot 59.973105
 1792         c3     60    bbb     C8   1792 -0.06455200  12.010000   ; qtot 59.908553
 1793         h1     60    bbb    H15   1793 0.13554100   1.008000   ; qtot 60.044094
 1794         h1     60    bbb    H16   1794 0.13554100   1.008000   ; qtot 60.179635
 1795         c3     60    bbb     C9   1795 -0.06455200  12.010000   ; qtot 60.115083
 1796         h1     60    bbb    H17   1796 0.13554100   1.008000   ; qtot 60.250624
 1797         h1     60    bbb    H18   1797 0.13554100   1.008000   ; qtot 60.386165
 1798         os     60    bbb     O1   1798 -0.62587700  16.000000   ; qtot 59.760288
 1799         hn     60    bbb    H19   1799 0.23982500   1.008000   ; qtot 60.000113
; residue   61 bbb rtp bbb q 1.0
 1800         n4     61    bbb     N1   1800 0.03726400  14.010000   ; qtot 60.037377
 1801         c3     61    bbb     C1   1801 -0.07020100  12.010000   ; qtot 59.967176
 1802         hx     61    bbb     H1   1802 0.12219000   1.008000   ; qtot 60.089366
 1803         hx     61    bbb     H2   1803 0.12219000   1.008000   ; qtot 60.211556
 1804         c3     61    bbb     C2   1804 -0.07020100  12.010000   ; qtot 60.141355
 1805         hx     61    bbb     H3   1805 0.12219000   1.008000   ; qtot 60.263545
 1806         hx     61    bbb     H4   1806 0.12219000   1.008000   ; qtot 60.385735
 1807         c3     61    bbb     C3   1807 -0.39007700  12.010000   ; qtot 59.995658
 1808         hx     61    bbb     H5   1808 0.14940300   1.008000   ; qtot 60.145061
 1809         hx     61    bbb     H6   1809 0.14940300   1.008000   ; qtot 60.294464
 1810         c3     61    bbb     C4   1810 0.18057300  12.010000   ; qtot 60.475037
 1811         hc     61    bbb     H7   1811 0.01788900   1.008000   ; qtot 60.492926
 1812         hc     61    bbb     H8   1812 0.01788900   1.008000   ; qtot 60.510815
 1813         c3     61    bbb     C5   1813 -0.11337700  12.010000   ; qtot 60.397438
 1814         hc     61    bbb     H9   1814 0.09515400   1.008000   ; qtot 60.492592
 1815         hc     61    bbb    H10   1815 0.09515400   1.008000   ; qtot 60.587746
 1816         c3     61    bbb     C6   1816 -0.11337700  12.010000   ; qtot 60.474369
 1817         hc     61    bbb    H11   1817 0.09515400   1.008000   ; qtot 60.569523
 1818         hc     61    bbb    H12   1818 0.09515400   1.008000   ; qtot 60.664677
 1819         c3     61    bbb     C7   1819 0.21842400  12.010000   ; qtot 60.883101
 1820         h1     61    bbb    H13   1820 0.04500300   1.008000   ; qtot 60.928104
 1821         h1     61    bbb    H14   1821 0.04500300   1.008000   ; qtot 60.973107
 1822         c3     61    bbb     C8   1822 -0.06455200  12.010000   ; qtot 60.908555
 1823         h1     61    bbb    H15   1823 0.13554100   1.008000   ; qtot 61.044096
 1824         h1     61    bbb    H16   1824 0.13554100   1.008000   ; qtot 61.179637
 1825         c3     61    bbb     C9   1825 -0.06455200  12.010000   ; qtot 61.115085
 1826         h1     61    bbb    H17   1826 0.13554100   1.008000   ; qtot 61.250626
 1827         h1     61    bbb    H18   1827 0.13554100   1.008000   ; qtot 61.386167
 1828         os     61    bbb     O1   1828 -0.62587700  16.000000   ; qtot 60.760290
 1829         hn     61    bbb    H19   1829 0.23982500   1.008000   ; qtot 61.000115
; residue   62 bbb rtp bbb q 1.0
 1830         n4     62    bbb     N1   1830 0.03726400  14.010000   ; qtot 61.037379
 1831         c3     62    bbb     C1   1831 -0.07020100  12.010000   ; qtot 60.967178
 1832         hx     62    bbb     H1   1832 0.12219000   1.008000   ; qtot 61.089368
 1833         hx     62    bbb     H2   1833 0.12219000   1.008000   ; qtot 61.211558
 1834         c3     62    bbb     C2   1834 -0.07020100  12.010000   ; qtot 61.141357
 1835         hx     62    bbb     H3   1835 0.12219000   1.008000   ; qtot 61.263547
 1836         hx     62    bbb     H4   1836 0.12219000   1.008000   ; qtot 61.385737
 1837         c3     62    bbb     C3   1837 -0.39007700  12.010000   ; qtot 60.995660
 1838         hx     62    bbb     H5   1838 0.14940300   1.008000   ; qtot 61.145063
 1839         hx     62    bbb     H6   1839 0.14940300   1.008000   ; qtot 61.294466
 1840         c3     62    bbb     C4   1840 0.18057300  12.010000   ; qtot 61.475039
 1841         hc     62    bbb     H7   1841 0.01788900   1.008000   ; qtot 61.492928
 1842         hc     62    bbb     H8   1842 0.01788900   1.008000   ; qtot 61.510817
 1843         c3     62    bbb     C5   1843 -0.11337700  12.010000   ; qtot 61.397440
 1844         hc     62    bbb     H9   1844 0.09515400   1.008000   ; qtot 61.492594
 1845         hc     62    bbb    H10   1845 0.09515400   1.008000   ; qtot 61.587748
 1846         c3     62    bbb     C6   1846 -0.11337700  12.010000   ; qtot 61.474371
 1847         hc     62    bbb    H11   1847 0.09515400   1.008000   ; qtot 61.569525
 1848         hc     62    bbb    H12   1848 0.09515400   1.008000   ; qtot 61.664679
 1849         c3     62    bbb     C7   1849 0.21842400  12.010000   ; qtot 61.883103
 1850         h1     62    bbb    H13   1850 0.04500300   1.008000   ; qtot 61.928106
 1851         h1     62    bbb    H14   1851 0.04500300   1.008000   ; qtot 61.973109
 1852         c3     62    bbb     C8   1852 -0.06455200  12.010000   ; qtot 61.908557
 1853         h1     62    bbb    H15   1853 0.13554100   1.008000   ; qtot 62.044098
 1854         h1     62    bbb    H16   1854 0.13554100   1.008000   ; qtot 62.179639
 1855         c3     62    bbb     C9   1855 -0.06455200  12.010000   ; qtot 62.115087
 1856         h1     62    bbb    H17   1856 0.13554100   1.008000   ; qtot 62.250628
 1857         h1     62    bbb    H18   1857 0.13554100   1.008000   ; qtot 62.386169
 1858         os     62    bbb     O1   1858 -0.62587700  16.000000   ; qtot 61.760292
 1859         hn     62    bbb    H19   1859 0.23982500   1.008000   ; qtot 62.000117
; residue   63 bbb rtp bbb q 1.0
 1860         n4     63    bbb     N1   1860 0.03726400  14.010000   ; qtot 62.037381
 1861         c3     63    bbb     C1   1861 -0.07020100  12.010000   ; qtot 61.967180
 1862         hx     63    bbb     H1   1862 0.12219000   1.008000   ; qtot 62.089370
 1863         hx     63    bbb     H2   1863 0.12219000   1.008000   ; qtot 62.211560
 1864         c3     63    bbb     C2   1864 -0.07020100  12.010000   ; qtot 62.141359
 1865         hx     63    bbb     H3   1865 0.12219000   1.008000   ; qtot 62.263549
 1866         hx     63    bbb     H4   1866 0.12219000   1.008000   ; qtot 62.385739
 1867         c3     63    bbb     C3   1867 -0.39007700  12.010000   ; qtot 61.995662
 1868         hx     63    bbb     H5   1868 0.14940300   1.008000   ; qtot 62.145065
 1869         hx     63    bbb     H6   1869 0.14940300   1.008000   ; qtot 62.294468
 1870         c3     63    bbb     C4   1870 0.18057300  12.010000   ; qtot 62.475041
 1871         hc     63    bbb     H7   1871 0.01788900   1.008000   ; qtot 62.492930
 1872         hc     63    bbb     H8   1872 0.01788900   1.008000   ; qtot 62.510819
 1873         c3     63    bbb     C5   1873 -0.11337700  12.010000   ; qtot 62.397442
 1874         hc     63    bbb     H9   1874 0.09515400   1.008000   ; qtot 62.492596
 1875         hc     63    bbb    H10   1875 0.09515400   1.008000   ; qtot 62.587750
 1876         c3     63    bbb     C6   1876 -0.11337700  12.010000   ; qtot 62.474373
 1877         hc     63    bbb    H11   1877 0.09515400   1.008000   ; qtot 62.569527
 1878         hc     63    bbb    H12   1878 0.09515400   1.008000   ; qtot 62.664681
 1879         c3     63    bbb     C7   1879 0.21842400  12.010000   ; qtot 62.883105
 1880         h1     63    bbb    H13   1880 0.04500300   1.008000   ; qtot 62.928108
 1881         h1     63    bbb    H14   1881 0.04500300   1.008000   ; qtot 62.973111
 1882         c3     63    bbb     C8   1882 -0.06455200  12.010000   ; qtot 62.908559
 1883         h1     63    bbb    H15   1883 0.13554100   1.008000   ; qtot 63.044100
 1884         h1     63    bbb    H16   1884 0.13554100   1.008000   ; qtot 63.179641
 1885         c3     63    bbb     C9   1885 -0.06455200  12.010000   ; qtot 63.115089
 1886         h1     63    bbb    H17   1886 0.13554100   1.008000   ; qtot 63.250630
 1887         h1     63    bbb    H18   1887 0.13554100   1.008000   ; qtot 63.386171
 1888         os     63    bbb     O1   1888 -0.62587700  16.000000   ; qtot 62.760294
 1889         hn     63    bbb    H19   1889 0.23982500   1.008000   ; qtot 63.000119
; residue   64 bbb rtp bbb q 1.0
 1890         n4     64    bbb     N1   1890 0.03726400  14.010000   ; qtot 63.037383
 1891         c3     64    bbb     C1   1891 -0.07020100  12.010000   ; qtot 62.967182
 1892         hx     64    bbb     H1   1892 0.12219000   1.008000   ; qtot 63.089372
 1893         hx     64    bbb     H2   1893 0.12219000   1.008000   ; qtot 63.211562
 1894         c3     64    bbb     C2   1894 -0.07020100  12.010000   ; qtot 63.141361
 1895         hx     64    bbb     H3   1895 0.12219000   1.008000   ; qtot 63.263551
 1896         hx     64    bbb     H4   1896 0.12219000   1.008000   ; qtot 63.385741
 1897         c3     64    bbb     C3   1897 -0.39007700  12.010000   ; qtot 62.995664
 1898         hx     64    bbb     H5   1898 0.14940300   1.008000   ; qtot 63.145067
 1899         hx     64    bbb     H6   1899 0.14940300   1.008000   ; qtot 63.294470
 1900         c3     64    bbb     C4   1900 0.18057300  12.010000   ; qtot 63.475043
 1901         hc     64    bbb     H7   1901 0.01788900   1.008000   ; qtot 63.492932
 1902         hc     64    bbb     H8   1902 0.01788900   1.008000   ; qtot 63.510821
 1903         c3     64    bbb     C5   1903 -0.11337700  12.010000   ; qtot 63.397444
 1904         hc     64    bbb     H9   1904 0.09515400   1.008000   ; qtot 63.492598
 1905         hc     64    bbb    H10   1905 0.09515400   1.008000   ; qtot 63.587752
 1906         c3     64    bbb     C6   1906 -0.11337700  12.010000   ; qtot 63.474375
 1907         hc     64    bbb    H11   1907 0.09515400   1.008000   ; qtot 63.569529
 1908         hc     64    bbb    H12   1908 0.09515400   1.008000   ; qtot 63.664683
 1909         c3     64    bbb     C7   1909 0.21842400  12.010000   ; qtot 63.883107
 1910         h1     64    bbb    H13   1910 0.04500300   1.008000   ; qtot 63.928110
 1911         h1     64    bbb    H14   1911 0.04500300   1.008000   ; qtot 63.973113
 1912         c3     64    bbb     C8   1912 -0.06455200  12.010000   ; qtot 63.908561
 1913         h1     64    bbb    H15   1913 0.13554100   1.008000   ; qtot 64.044102
 1914         h1     64    bbb    H16   1914 0.13554100   1.008000   ; qtot 64.179643
 1915         c3     64    bbb     C9   1915 -0.06455200  12.010000   ; qtot 64.115091
 1916         h1     64    bbb    H17   1916 0.13554100   1.008000   ; qtot 64.250632
 1917         h1     64    bbb    H18   1917 0.13554100   1.008000   ; qtot 64.386173
 1918         os     64    bbb     O1   1918 -0.62587700  16.000000   ; qtot 63.760296
 1919         hn     64    bbb    H19   1919 0.23982500   1.008000   ; qtot 64.000121
; residue   65 bbb rtp bbb q 1.0
 1920         n4     65    bbb     N1   1920 0.03726400  14.010000   ; qtot 64.037385
 1921         c3     65    bbb     C1   1921 -0.07020100  12.010000   ; qtot 63.967184
 1922         hx     65    bbb     H1   1922 0.12219000   1.008000   ; qtot 64.089374
 1923         hx     65    bbb     H2   1923 0.12219000   1.008000   ; qtot 64.211564
 1924         c3     65    bbb     C2   1924 -0.07020100  12.010000   ; qtot 64.141363
 1925         hx     65    bbb     H3   1925 0.12219000   1.008000   ; qtot 64.263553
 1926         hx     65    bbb     H4   1926 0.12219000   1.008000   ; qtot 64.385743
 1927         c3     65    bbb     C3   1927 -0.39007700  12.010000   ; qtot 63.995666
 1928         hx     65    bbb     H5   1928 0.14940300   1.008000   ; qtot 64.145069
 1929         hx     65    bbb     H6   1929 0.14940300   1.008000   ; qtot 64.294472
 1930         c3     65    bbb     C4   1930 0.18057300  12.010000   ; qtot 64.475045
 1931         hc     65    bbb     H7   1931 0.01788900   1.008000   ; qtot 64.492934
 1932         hc     65    bbb     H8   1932 0.01788900   1.008000   ; qtot 64.510823
 1933         c3     65    bbb     C5   1933 -0.11337700  12.010000   ; qtot 64.397446
 1934         hc     65    bbb     H9   1934 0.09515400   1.008000   ; qtot 64.492600
 1935         hc     65    bbb    H10   1935 0.09515400   1.008000   ; qtot 64.587754
 1936         c3     65    bbb     C6   1936 -0.11337700  12.010000   ; qtot 64.474377
 1937         hc     65    bbb    H11   1937 0.09515400   1.008000   ; qtot 64.569531
 1938         hc     65    bbb    H12   1938 0.09515400   1.008000   ; qtot 64.664685
 1939         c3     65    bbb     C7   1939 0.21842400  12.010000   ; qtot 64.883109
 1940         h1     65    bbb    H13   1940 0.04500300   1.008000   ; qtot 64.928112
 1941         h1     65    bbb    H14   1941 0.04500300   1.008000   ; qtot 64.973115
 1942         c3     65    bbb     C8   1942 -0.06455200  12.010000   ; qtot 64.908563
 1943         h1     65    bbb    H15   1943 0.13554100   1.008000   ; qtot 65.044104
 1944         h1     65    bbb    H16   1944 0.13554100   1.008000   ; qtot 65.179645
 1945         c3     65    bbb     C9   1945 -0.06455200  12.010000   ; qtot 65.115093
 1946         h1     65    bbb    H17   1946 0.13554100   1.008000   ; qtot 65.250634
 1947         h1     65    bbb    H18   1947 0.13554100   1.008000   ; qtot 65.386175
 1948         os     65    bbb     O1   1948 -0.62587700  16.000000   ; qtot 64.760298
 1949         hn     65    bbb    H19   1949 0.23982500   1.008000   ; qtot 65.000123
; residue   66 bbb rtp bbb q 1.0
 1950         n4     66    bbb     N1   1950 0.03726400  14.010000   ; qtot 65.037387
 1951         c3     66    bbb     C1   1951 -0.07020100  12.010000   ; qtot 64.967186
 1952         hx     66    bbb     H1   1952 0.12219000   1.008000   ; qtot 65.089376
 1953         hx     66    bbb     H2   1953 0.12219000   1.008000   ; qtot 65.211566
 1954         c3     66    bbb     C2   1954 -0.07020100  12.010000   ; qtot 65.141365
 1955         hx     66    bbb     H3   1955 0.12219000   1.008000   ; qtot 65.263555
 1956         hx     66    bbb     H4   1956 0.12219000   1.008000   ; qtot 65.385745
 1957         c3     66    bbb     C3   1957 -0.39007700  12.010000   ; qtot 64.995668
 1958         hx     66    bbb     H5   1958 0.14940300   1.008000   ; qtot 65.145071
 1959         hx     66    bbb     H6   1959 0.14940300   1.008000   ; qtot 65.294474
 1960         c3     66    bbb     C4   1960 0.18057300  12.010000   ; qtot 65.475047
 1961         hc     66    bbb     H7   1961 0.01788900   1.008000   ; qtot 65.492936
 1962         hc     66    bbb     H8   1962 0.01788900   1.008000   ; qtot 65.510825
 1963         c3     66    bbb     C5   1963 -0.11337700  12.010000   ; qtot 65.397448
 1964         hc     66    bbb     H9   1964 0.09515400   1.008000   ; qtot 65.492602
 1965         hc     66    bbb    H10   1965 0.09515400   1.008000   ; qtot 65.587756
 1966         c3     66    bbb     C6   1966 -0.11337700  12.010000   ; qtot 65.474379
 1967         hc     66    bbb    H11   1967 0.09515400   1.008000   ; qtot 65.569533
 1968         hc     66    bbb    H12   1968 0.09515400   1.008000   ; qtot 65.664687
 1969         c3     66    bbb     C7   1969 0.21842400  12.010000   ; qtot 65.883111
 1970         h1     66    bbb    H13   1970 0.04500300   1.008000   ; qtot 65.928114
 1971         h1     66    bbb    H14   1971 0.04500300   1.008000   ; qtot 65.973117
 1972         c3     66    bbb     C8   1972 -0.06455200  12.010000   ; qtot 65.908565
 1973         h1     66    bbb    H15   1973 0.13554100   1.008000   ; qtot 66.044106
 1974         h1     66    bbb    H16   1974 0.13554100   1.008000   ; qtot 66.179647
 1975         c3     66    bbb     C9   1975 -0.06455200  12.010000   ; qtot 66.115095
 1976         h1     66    bbb    H17   1976 0.13554100   1.008000   ; qtot 66.250636
 1977         h1     66    bbb    H18   1977 0.13554100   1.008000   ; qtot 66.386177
 1978         os     66    bbb     O1   1978 -0.62587700  16.000000   ; qtot 65.760300
 1979         hn     66    bbb    H19   1979 0.23982500   1.008000   ; qtot 66.000125
; residue   67 bbb rtp bbb q 1.0
 1980         n4     67    bbb     N1   1980 0.03726400  14.010000   ; qtot 66.037389
 1981         c3     67    bbb     C1   1981 -0.07020100  12.010000   ; qtot 65.967188
 1982         hx     67    bbb     H1   1982 0.12219000   1.008000   ; qtot 66.089378
 1983         hx     67    bbb     H2   1983 0.12219000   1.008000   ; qtot 66.211568
 1984         c3     67    bbb     C2   1984 -0.07020100  12.010000   ; qtot 66.141367
 1985         hx     67    bbb     H3   1985 0.12219000   1.008000   ; qtot 66.263557
 1986         hx     67    bbb     H4   1986 0.12219000   1.008000   ; qtot 66.385747
 1987         c3     67    bbb     C3   1987 -0.39007700  12.010000   ; qtot 65.995670
 1988         hx     67    bbb     H5   1988 0.14940300   1.008000   ; qtot 66.145073
 1989         hx     67    bbb     H6   1989 0.14940300   1.008000   ; qtot 66.294476
 1990         c3     67    bbb     C4   1990 0.18057300  12.010000   ; qtot 66.475049
 1991         hc     67    bbb     H7   1991 0.01788900   1.008000   ; qtot 66.492938
 1992         hc     67    bbb     H8   1992 0.01788900   1.008000   ; qtot 66.510827
 1993         c3     67    bbb     C5   1993 -0.11337700  12.010000   ; qtot 66.397450
 1994         hc     67    bbb     H9   1994 0.09515400   1.008000   ; qtot 66.492604
 1995         hc     67    bbb    H10   1995 0.09515400   1.008000   ; qtot 66.587758
 1996         c3     67    bbb     C6   1996 -0.11337700  12.010000   ; qtot 66.474381
 1997         hc     67    bbb    H11   1997 0.09515400   1.008000   ; qtot 66.569535
 1998         hc     67    bbb    H12   1998 0.09515400   1.008000   ; qtot 66.664689
 1999         c3     67    bbb     C7   1999 0.21842400  12.010000   ; qtot 66.883113
 2000         h1     67    bbb    H13   2000 0.04500300   1.008000   ; qtot 66.928116
 2001         h1     67    bbb    H14   2001 0.04500300   1.008000   ; qtot 66.973119
 2002         c3     67    bbb     C8   2002 -0.06455200  12.010000   ; qtot 66.908567
 2003         h1     67    bbb    H15   2003 0.13554100   1.008000   ; qtot 67.044108
 2004         h1     67    bbb    H16   2004 0.13554100   1.008000   ; qtot 67.179649
 2005         c3     67    bbb     C9   2005 -0.06455200  12.010000   ; qtot 67.115097
 2006         h1     67    bbb    H17   2006 0.13554100   1.008000   ; qtot 67.250638
 2007         h1     67    bbb    H18   2007 0.13554100   1.008000   ; qtot 67.386179
 2008         os     67    bbb     O1   2008 -0.62587700  16.000000   ; qtot 66.760302
 2009         hn     67    bbb    H19   2009 0.23982500   1.008000   ; qtot 67.000127
; residue   68 bbb rtp bbb q 1.0
 2010         n4     68    bbb     N1   2010 0.03726400  14.010000   ; qtot 67.037391
 2011         c3     68    bbb     C1   2011 -0.07020100  12.010000   ; qtot 66.967190
 2012         hx     68    bbb     H1   2012 0.12219000   1.008000   ; qtot 67.089380
 2013         hx     68    bbb     H2   2013 0.12219000   1.008000   ; qtot 67.211570
 2014         c3     68    bbb     C2   2014 -0.07020100  12.010000   ; qtot 67.141369
 2015         hx     68    bbb     H3   2015 0.12219000   1.008000   ; qtot 67.263559
 2016         hx     68    bbb     H4   2016 0.12219000   1.008000   ; qtot 67.385749
 2017         c3     68    bbb     C3   2017 -0.39007700  12.010000   ; qtot 66.995672
 2018         hx     68    bbb     H5   2018 0.14940300   1.008000   ; qtot 67.145075
 2019         hx     68    bbb     H6   2019 0.14940300   1.008000   ; qtot 67.294478
 2020         c3     68    bbb     C4   2020 0.18057300  12.010000   ; qtot 67.475051
 2021         hc     68    bbb     H7   2021 0.01788900   1.008000   ; qtot 67.492940
 2022         hc     68    bbb     H8   2022 0.01788900   1.008000   ; qtot 67.510829
 2023         c3     68    bbb     C5   2023 -0.11337700  12.010000   ; qtot 67.397452
 2024         hc     68    bbb     H9   2024 0.09515400   1.008000   ; qtot 67.492606
 2025         hc     68    bbb    H10   2025 0.09515400   1.008000   ; qtot 67.587760
 2026         c3     68    bbb     C6   2026 -0.11337700  12.010000   ; qtot 67.474383
 2027         hc     68    bbb    H11   2027 0.09515400   1.008000   ; qtot 67.569537
 2028         hc     68    bbb    H12   2028 0.09515400   1.008000   ; qtot 67.664691
 2029         c3     68    bbb     C7   2029 0.21842400  12.010000   ; qtot 67.883115
 2030         h1     68    bbb    H13   2030 0.04500300   1.008000   ; qtot 67.928118
 2031         h1     68    bbb    H14   2031 0.04500300   1.008000   ; qtot 67.973121
 2032         c3     68    bbb     C8   2032 -0.06455200  12.010000   ; qtot 67.908569
 2033         h1     68    bbb    H15   2033 0.13554100   1.008000   ; qtot 68.044110
 2034         h1     68    bbb    H16   2034 0.13554100   1.008000   ; qtot 68.179651
 2035         c3     68    bbb     C9   2035 -0.06455200  12.010000   ; qtot 68.115099
 2036         h1     68    bbb    H17   2036 0.13554100   1.008000   ; qtot 68.250640
 2037         h1     68    bbb    H18   2037 0.13554100   1.008000   ; qtot 68.386181
 2038         os     68    bbb     O1   2038 -0.62587700  16.000000   ; qtot 67.760304
 2039         hn     68    bbb    H19   2039 0.23982500   1.008000   ; qtot 68.000129
; residue   69 bbb rtp bbb q 1.0
 2040         n4     69    bbb     N1   2040 0.03726400  14.010000   ; qtot 68.037393
 2041         c3     69    bbb     C1   2041 -0.07020100  12.010000   ; qtot 67.967192
 2042         hx     69    bbb     H1   2042 0.12219000   1.008000   ; qtot 68.089382
 2043         hx     69    bbb     H2   2043 0.12219000   1.008000   ; qtot 68.211572
 2044         c3     69    bbb     C2   2044 -0.07020100  12.010000   ; qtot 68.141371
 2045         hx     69    bbb     H3   2045 0.12219000   1.008000   ; qtot 68.263561
 2046         hx     69    bbb     H4   2046 0.12219000   1.008000   ; qtot 68.385751
 2047         c3     69    bbb     C3   2047 -0.39007700  12.010000   ; qtot 67.995674
 2048         hx     69    bbb     H5   2048 0.14940300   1.008000   ; qtot 68.145077
 2049         hx     69    bbb     H6   2049 0.14940300   1.008000   ; qtot 68.294480
 2050         c3     69    bbb     C4   2050 0.18057300  12.010000   ; qtot 68.475053
 2051         hc     69    bbb     H7   2051 0.01788900   1.008000   ; qtot 68.492942
 2052         hc     69    bbb     H8   2052 0.01788900   1.008000   ; qtot 68.510831
 2053         c3     69    bbb     C5   2053 -0.11337700  12.010000   ; qtot 68.397454
 2054         hc     69    bbb     H9   2054 0.09515400   1.008000   ; qtot 68.492608
 2055         hc     69    bbb    H10   2055 0.09515400   1.008000   ; qtot 68.587762
 2056         c3     69    bbb     C6   2056 -0.11337700  12.010000   ; qtot 68.474385
 2057         hc     69    bbb    H11   2057 0.09515400   1.008000   ; qtot 68.569539
 2058         hc     69    bbb    H12   2058 0.09515400   1.008000   ; qtot 68.664693
 2059         c3     69    bbb     C7   2059 0.21842400  12.010000   ; qtot 68.883117
 2060         h1     69    bbb    H13   2060 0.04500300   1.008000   ; qtot 68.928120
 2061         h1     69    bbb    H14   2061 0.04500300   1.008000   ; qtot 68.973123
 2062         c3     69    bbb     C8   2062 -0.06455200  12.010000   ; qtot 68.908571
 2063         h1     69    bbb    H15   2063 0.13554100   1.008000   ; qtot 69.044112
 2064         h1     69    bbb    H16   2064 0.13554100   1.008000   ; qtot 69.179653
 2065         c3     69    bbb     C9   2065 -0.06455200  12.010000   ; qtot 69.115101
 2066         h1     69    bbb    H17   2066 0.13554100   1.008000   ; qtot 69.250642
 2067         h1     69    bbb    H18   2067 0.13554100   1.008000   ; qtot 69.386183
 2068         os     69    bbb     O1   2068 -0.62587700  16.000000   ; qtot 68.760306
 2069         hn     69    bbb    H19   2069 0.23982500   1.008000   ; qtot 69.000131
; residue   70 bbb rtp bbb q 1.0
 2070         n4     70    bbb     N1   2070 0.03726400  14.010000   ; qtot 69.037395
 2071         c3     70    bbb     C1   2071 -0.07020100  12.010000   ; qtot 68.967194
 2072         hx     70    bbb     H1   2072 0.12219000   1.008000   ; qtot 69.089384
 2073         hx     70    bbb     H2   2073 0.12219000   1.008000   ; qtot 69.211574
 2074         c3     70    bbb     C2   2074 -0.07020100  12.010000   ; qtot 69.141373
 2075         hx     70    bbb     H3   2075 0.12219000   1.008000   ; qtot 69.263563
 2076         hx     70    bbb     H4   2076 0.12219000   1.008000   ; qtot 69.385753
 2077         c3     70    bbb     C3   2077 -0.39007700  12.010000   ; qtot 68.995676
 2078         hx     70    bbb     H5   2078 0.14940300   1.008000   ; qtot 69.145079
 2079         hx     70    bbb     H6   2079 0.14940300   1.008000   ; qtot 69.294482
 2080         c3     70    bbb     C4   2080 0.18057300  12.010000   ; qtot 69.475055
 2081         hc     70    bbb     H7   2081 0.01788900   1.008000   ; qtot 69.492944
 2082         hc     70    bbb     H8   2082 0.01788900   1.008000   ; qtot 69.510833
 2083         c3     70    bbb     C5   2083 -0.11337700  12.010000   ; qtot 69.397456
 2084         hc     70    bbb     H9   2084 0.09515400   1.008000   ; qtot 69.492610
 2085         hc     70    bbb    H10   2085 0.09515400   1.008000   ; qtot 69.587764
 2086         c3     70    bbb     C6   2086 -0.11337700  12.010000   ; qtot 69.474387
 2087         hc     70    bbb    H11   2087 0.09515400   1.008000   ; qtot 69.569541
 2088         hc     70    bbb    H12   2088 0.09515400   1.008000   ; qtot 69.664695
 2089         c3     70    bbb     C7   2089 0.21842400  12.010000   ; qtot 69.883119
 2090         h1     70    bbb    H13   2090 0.04500300   1.008000   ; qtot 69.928122
 2091         h1     70    bbb    H14   2091 0.04500300   1.008000   ; qtot 69.973125
 2092         c3     70    bbb     C8   2092 -0.06455200  12.010000   ; qtot 69.908573
 2093         h1     70    bbb    H15   2093 0.13554100   1.008000   ; qtot 70.044114
 2094         h1     70    bbb    H16   2094 0.13554100   1.008000   ; qtot 70.179655
 2095         c3     70    bbb     C9   2095 -0.06455200  12.010000   ; qtot 70.115103
 2096         h1     70    bbb    H17   2096 0.13554100   1.008000   ; qtot 70.250644
 2097         h1     70    bbb    H18   2097 0.13554100   1.008000   ; qtot 70.386185
 2098         os     70    bbb     O1   2098 -0.62587700  16.000000   ; qtot 69.760308
 2099         hn     70    bbb    H19   2099 0.23982500   1.008000   ; qtot 70.000133
; residue   71 bbb rtp bbb q 1.0
 2100         n4     71    bbb     N1   2100 0.03726400  14.010000   ; qtot 70.037397
 2101         c3     71    bbb     C1   2101 -0.07020100  12.010000   ; qtot 69.967196
 2102         hx     71    bbb     H1   2102 0.12219000   1.008000   ; qtot 70.089386
 2103         hx     71    bbb     H2   2103 0.12219000   1.008000   ; qtot 70.211576
 2104         c3     71    bbb     C2   2104 -0.07020100  12.010000   ; qtot 70.141375
 2105         hx     71    bbb     H3   2105 0.12219000   1.008000   ; qtot 70.263565
 2106         hx     71    bbb     H4   2106 0.12219000   1.008000   ; qtot 70.385755
 2107         c3     71    bbb     C3   2107 -0.39007700  12.010000   ; qtot 69.995678
 2108         hx     71    bbb     H5   2108 0.14940300   1.008000   ; qtot 70.145081
 2109         hx     71    bbb     H6   2109 0.14940300   1.008000   ; qtot 70.294484
 2110         c3     71    bbb     C4   2110 0.18057300  12.010000   ; qtot 70.475057
 2111         hc     71    bbb     H7   2111 0.01788900   1.008000   ; qtot 70.492946
 2112         hc     71    bbb     H8   2112 0.01788900   1.008000   ; qtot 70.510835
 2113         c3     71    bbb     C5   2113 -0.11337700  12.010000   ; qtot 70.397458
 2114         hc     71    bbb     H9   2114 0.09515400   1.008000   ; qtot 70.492612
 2115         hc     71    bbb    H10   2115 0.09515400   1.008000   ; qtot 70.587766
 2116         c3     71    bbb     C6   2116 -0.11337700  12.010000   ; qtot 70.474389
 2117         hc     71    bbb    H11   2117 0.09515400   1.008000   ; qtot 70.569543
 2118         hc     71    bbb    H12   2118 0.09515400   1.008000   ; qtot 70.664697
 2119         c3     71    bbb     C7   2119 0.21842400  12.010000   ; qtot 70.883121
 2120         h1     71    bbb    H13   2120 0.04500300   1.008000   ; qtot 70.928124
 2121         h1     71    bbb    H14   2121 0.04500300   1.008000   ; qtot 70.973127
 2122         c3     71    bbb     C8   2122 -0.06455200  12.010000   ; qtot 70.908575
 2123         h1     71    bbb    H15   2123 0.13554100   1.008000   ; qtot 71.044116
 2124         h1     71    bbb    H16   2124 0.13554100   1.008000   ; qtot 71.179657
 2125         c3     71    bbb     C9   2125 -0.06455200  12.010000   ; qtot 71.115105
 2126         h1     71    bbb    H17   2126 0.13554100   1.008000   ; qtot 71.250646
 2127         h1     71    bbb    H18   2127 0.13554100   1.008000   ; qtot 71.386187
 2128         os     71    bbb     O1   2128 -0.62587700  16.000000   ; qtot 70.760310
 2129         hn     71    bbb    H19   2129 0.23982500   1.008000   ; qtot 71.000135
; residue   72 bbb rtp bbb q 1.0
 2130         n4     72    bbb     N1   2130 0.03726400  14.010000   ; qtot 71.037399
 2131         c3     72    bbb     C1   2131 -0.07020100  12.010000   ; qtot 70.967198
 2132         hx     72    bbb     H1   2132 0.12219000   1.008000   ; qtot 71.089388
 2133         hx     72    bbb     H2   2133 0.12219000   1.008000   ; qtot 71.211578
 2134         c3     72    bbb     C2   2134 -0.07020100  12.010000   ; qtot 71.141377
 2135         hx     72    bbb     H3   2135 0.12219000   1.008000   ; qtot 71.263567
 2136         hx     72    bbb     H4   2136 0.12219000   1.008000   ; qtot 71.385757
 2137         c3     72    bbb     C3   2137 -0.39007700  12.010000   ; qtot 70.995680
 2138         hx     72    bbb     H5   2138 0.14940300   1.008000   ; qtot 71.145083
 2139         hx     72    bbb     H6   2139 0.14940300   1.008000   ; qtot 71.294486
 2140         c3     72    bbb     C4   2140 0.18057300  12.010000   ; qtot 71.475059
 2141         hc     72    bbb     H7   2141 0.01788900   1.008000   ; qtot 71.492948
 2142         hc     72    bbb     H8   2142 0.01788900   1.008000   ; qtot 71.510837
 2143         c3     72    bbb     C5   2143 -0.11337700  12.010000   ; qtot 71.397460
 2144         hc     72    bbb     H9   2144 0.09515400   1.008000   ; qtot 71.492614
 2145         hc     72    bbb    H10   2145 0.09515400   1.008000   ; qtot 71.587768
 2146         c3     72    bbb     C6   2146 -0.11337700  12.010000   ; qtot 71.474391
 2147         hc     72    bbb    H11   2147 0.09515400   1.008000   ; qtot 71.569545
 2148         hc     72    bbb    H12   2148 0.09515400   1.008000   ; qtot 71.664699
 2149         c3     72    bbb     C7   2149 0.21842400  12.010000   ; qtot 71.883123
 2150         h1     72    bbb    H13   2150 0.04500300   1.008000   ; qtot 71.928126
 2151         h1     72    bbb    H14   2151 0.04500300   1.008000   ; qtot 71.973129
 2152         c3     72    bbb     C8   2152 -0.06455200  12.010000   ; qtot 71.908577
 2153         h1     72    bbb    H15   2153 0.13554100   1.008000   ; qtot 72.044118
 2154         h1     72    bbb    H16   2154 0.13554100   1.008000   ; qtot 72.179659
 2155         c3     72    bbb     C9   2155 -0.06455200  12.010000   ; qtot 72.115107
 2156         h1     72    bbb    H17   2156 0.13554100   1.008000   ; qtot 72.250648
 2157         h1     72    bbb    H18   2157 0.13554100   1.008000   ; qtot 72.386189
 2158         os     72    bbb     O1   2158 -0.62587700  16.000000   ; qtot 71.760312
 2159         hn     72    bbb    H19   2159 0.23982500   1.008000   ; qtot 72.000137
; residue   73 bbb rtp bbb q 1.0
 2160         n4     73    bbb     N1   2160 0.03726400  14.010000   ; qtot 72.037401
 2161         c3     73    bbb     C1   2161 -0.07020100  12.010000   ; qtot 71.967200
 2162         hx     73    bbb     H1   2162 0.12219000   1.008000   ; qtot 72.089390
 2163         hx     73    bbb     H2   2163 0.12219000   1.008000   ; qtot 72.211580
 2164         c3     73    bbb     C2   2164 -0.07020100  12.010000   ; qtot 72.141379
 2165         hx     73    bbb     H3   2165 0.12219000   1.008000   ; qtot 72.263569
 2166         hx     73    bbb     H4   2166 0.12219000   1.008000   ; qtot 72.385759
 2167         c3     73    bbb     C3   2167 -0.39007700  12.010000   ; qtot 71.995682
 2168         hx     73    bbb     H5   2168 0.14940300   1.008000   ; qtot 72.145085
 2169         hx     73    bbb     H6   2169 0.14940300   1.008000   ; qtot 72.294488
 2170         c3     73    bbb     C4   2170 0.18057300  12.010000   ; qtot 72.475061
 2171         hc     73    bbb     H7   2171 0.01788900   1.008000   ; qtot 72.492950
 2172         hc     73    bbb     H8   2172 0.01788900   1.008000   ; qtot 72.510839
 2173         c3     73    bbb     C5   2173 -0.11337700  12.010000   ; qtot 72.397462
 2174         hc     73    bbb     H9   2174 0.09515400   1.008000   ; qtot 72.492616
 2175         hc     73    bbb    H10   2175 0.09515400   1.008000   ; qtot 72.587770
 2176         c3     73    bbb     C6   2176 -0.11337700  12.010000   ; qtot 72.474393
 2177         hc     73    bbb    H11   2177 0.09515400   1.008000   ; qtot 72.569547
 2178         hc     73    bbb    H12   2178 0.09515400   1.008000   ; qtot 72.664701
 2179         c3     73    bbb     C7   2179 0.21842400  12.010000   ; qtot 72.883125
 2180         h1     73    bbb    H13   2180 0.04500300   1.008000   ; qtot 72.928128
 2181         h1     73    bbb    H14   2181 0.04500300   1.008000   ; qtot 72.973131
 2182         c3     73    bbb     C8   2182 -0.06455200  12.010000   ; qtot 72.908579
 2183         h1     73    bbb    H15   2183 0.13554100   1.008000   ; qtot 73.044120
 2184         h1     73    bbb    H16   2184 0.13554100   1.008000   ; qtot 73.179661
 2185         c3     73    bbb     C9   2185 -0.06455200  12.010000   ; qtot 73.115109
 2186         h1     73    bbb    H17   2186 0.13554100   1.008000   ; qtot 73.250650
 2187         h1     73    bbb    H18   2187 0.13554100   1.008000   ; qtot 73.386191
 2188         os     73    bbb     O1   2188 -0.62587700  16.000000   ; qtot 72.760314
 2189         hn     73    bbb    H19   2189 0.23982500   1.008000   ; qtot 73.000139
; residue   74 bbb rtp bbb q 1.0
 2190         n4     74    bbb     N1   2190 0.03726400  14.010000   ; qtot 73.037403
 2191         c3     74    bbb     C1   2191 -0.07020100  12.010000   ; qtot 72.967202
 2192         hx     74    bbb     H1   2192 0.12219000   1.008000   ; qtot 73.089392
 2193         hx     74    bbb     H2   2193 0.12219000   1.008000   ; qtot 73.211582
 2194         c3     74    bbb     C2   2194 -0.07020100  12.010000   ; qtot 73.141381
 2195         hx     74    bbb     H3   2195 0.12219000   1.008000   ; qtot 73.263571
 2196         hx     74    bbb     H4   2196 0.12219000   1.008000   ; qtot 73.385761
 2197         c3     74    bbb     C3   2197 -0.39007700  12.010000   ; qtot 72.995684
 2198         hx     74    bbb     H5   2198 0.14940300   1.008000   ; qtot 73.145087
 2199         hx     74    bbb     H6   2199 0.14940300   1.008000   ; qtot 73.294490
 2200         c3     74    bbb     C4   2200 0.18057300  12.010000   ; qtot 73.475063
 2201         hc     74    bbb     H7   2201 0.01788900   1.008000   ; qtot 73.492952
 2202         hc     74    bbb     H8   2202 0.01788900   1.008000   ; qtot 73.510841
 2203         c3     74    bbb     C5   2203 -0.11337700  12.010000   ; qtot 73.397464
 2204         hc     74    bbb     H9   2204 0.09515400   1.008000   ; qtot 73.492618
 2205         hc     74    bbb    H10   2205 0.09515400   1.008000   ; qtot 73.587772
 2206         c3     74    bbb     C6   2206 -0.11337700  12.010000   ; qtot 73.474395
 2207         hc     74    bbb    H11   2207 0.09515400   1.008000   ; qtot 73.569549
 2208         hc     74    bbb    H12   2208 0.09515400   1.008000   ; qtot 73.664703
 2209         c3     74    bbb     C7   2209 0.21842400  12.010000   ; qtot 73.883127
 2210         h1     74    bbb    H13   2210 0.04500300   1.008000   ; qtot 73.928130
 2211         h1     74    bbb    H14   2211 0.04500300   1.008000   ; qtot 73.973133
 2212         c3     74    bbb     C8   2212 -0.06455200  12.010000   ; qtot 73.908581
 2213         h1     74    bbb    H15   2213 0.13554100   1.008000   ; qtot 74.044122
 2214         h1     74    bbb    H16   2214 0.13554100   1.008000   ; qtot 74.179663
 2215         c3     74    bbb     C9   2215 -0.06455200  12.010000   ; qtot 74.115111
 2216         h1     74    bbb    H17   2216 0.13554100   1.008000   ; qtot 74.250652
 2217         h1     74    bbb    H18   2217 0.13554100   1.008000   ; qtot 74.386193
 2218         os     74    bbb     O1   2218 -0.62587700  16.000000   ; qtot 73.760316
 2219         hn     74    bbb    H19   2219 0.23982500   1.008000   ; qtot 74.000141
; residue   75 bbb rtp bbb q 1.0
 2220         n4     75    bbb     N1   2220 0.03726400  14.010000   ; qtot 74.037405
 2221         c3     75    bbb     C1   2221 -0.07020100  12.010000   ; qtot 73.967204
 2222         hx     75    bbb     H1   2222 0.12219000   1.008000   ; qtot 74.089394
 2223         hx     75    bbb     H2   2223 0.12219000   1.008000   ; qtot 74.211584
 2224         c3     75    bbb     C2   2224 -0.07020100  12.010000   ; qtot 74.141383
 2225         hx     75    bbb     H3   2225 0.12219000   1.008000   ; qtot 74.263573
 2226         hx     75    bbb     H4   2226 0.12219000   1.008000   ; qtot 74.385763
 2227         c3     75    bbb     C3   2227 -0.39007700  12.010000   ; qtot 73.995686
 2228         hx     75    bbb     H5   2228 0.14940300   1.008000   ; qtot 74.145089
 2229         hx     75    bbb     H6   2229 0.14940300   1.008000   ; qtot 74.294492
 2230         c3     75    bbb     C4   2230 0.18057300  12.010000   ; qtot 74.475065
 2231         hc     75    bbb     H7   2231 0.01788900   1.008000   ; qtot 74.492954
 2232         hc     75    bbb     H8   2232 0.01788900   1.008000   ; qtot 74.510843
 2233         c3     75    bbb     C5   2233 -0.11337700  12.010000   ; qtot 74.397466
 2234         hc     75    bbb     H9   2234 0.09515400   1.008000   ; qtot 74.492620
 2235         hc     75    bbb    H10   2235 0.09515400   1.008000   ; qtot 74.587774
 2236         c3     75    bbb     C6   2236 -0.11337700  12.010000   ; qtot 74.474397
 2237         hc     75    bbb    H11   2237 0.09515400   1.008000   ; qtot 74.569551
 2238         hc     75    bbb    H12   2238 0.09515400   1.008000   ; qtot 74.664705
 2239         c3     75    bbb     C7   2239 0.21842400  12.010000   ; qtot 74.883129
 2240         h1     75    bbb    H13   2240 0.04500300   1.008000   ; qtot 74.928132
 2241         h1     75    bbb    H14   2241 0.04500300   1.008000   ; qtot 74.973135
 2242         c3     75    bbb     C8   2242 -0.06455200  12.010000   ; qtot 74.908583
 2243         h1     75    bbb    H15   2243 0.13554100   1.008000   ; qtot 75.044124
 2244         h1     75    bbb    H16   2244 0.13554100   1.008000   ; qtot 75.179665
 2245         c3     75    bbb     C9   2245 -0.06455200  12.010000   ; qtot 75.115113
 2246         h1     75    bbb    H17   2246 0.13554100   1.008000   ; qtot 75.250654
 2247         h1     75    bbb    H18   2247 0.13554100   1.008000   ; qtot 75.386195
 2248         os     75    bbb     O1   2248 -0.62587700  16.000000   ; qtot 74.760318
 2249         hn     75    bbb    H19   2249 0.23982500   1.008000   ; qtot 75.000143
; residue   76 bbb rtp bbb q 1.0
 2250         n4     76    bbb     N1   2250 0.03726400  14.010000   ; qtot 75.037407
 2251         c3     76    bbb     C1   2251 -0.07020100  12.010000   ; qtot 74.967206
 2252         hx     76    bbb     H1   2252 0.12219000   1.008000   ; qtot 75.089396
 2253         hx     76    bbb     H2   2253 0.12219000   1.008000   ; qtot 75.211586
 2254         c3     76    bbb     C2   2254 -0.07020100  12.010000   ; qtot 75.141385
 2255         hx     76    bbb     H3   2255 0.12219000   1.008000   ; qtot 75.263575
 2256         hx     76    bbb     H4   2256 0.12219000   1.008000   ; qtot 75.385765
 2257         c3     76    bbb     C3   2257 -0.39007700  12.010000   ; qtot 74.995688
 2258         hx     76    bbb     H5   2258 0.14940300   1.008000   ; qtot 75.145091
 2259         hx     76    bbb     H6   2259 0.14940300   1.008000   ; qtot 75.294494
 2260         c3     76    bbb     C4   2260 0.18057300  12.010000   ; qtot 75.475067
 2261         hc     76    bbb     H7   2261 0.01788900   1.008000   ; qtot 75.492956
 2262         hc     76    bbb     H8   2262 0.01788900   1.008000   ; qtot 75.510845
 2263         c3     76    bbb     C5   2263 -0.11337700  12.010000   ; qtot 75.397468
 2264         hc     76    bbb     H9   2264 0.09515400   1.008000   ; qtot 75.492622
 2265         hc     76    bbb    H10   2265 0.09515400   1.008000   ; qtot 75.587776
 2266         c3     76    bbb     C6   2266 -0.11337700  12.010000   ; qtot 75.474399
 2267         hc     76    bbb    H11   2267 0.09515400   1.008000   ; qtot 75.569553
 2268         hc     76    bbb    H12   2268 0.09515400   1.008000   ; qtot 75.664707
 2269         c3     76    bbb     C7   2269 0.21842400  12.010000   ; qtot 75.883131
 2270         h1     76    bbb    H13   2270 0.04500300   1.008000   ; qtot 75.928134
 2271         h1     76    bbb    H14   2271 0.04500300   1.008000   ; qtot 75.973137
 2272         c3     76    bbb     C8   2272 -0.06455200  12.010000   ; qtot 75.908585
 2273         h1     76    bbb    H15   2273 0.13554100   1.008000   ; qtot 76.044126
 2274         h1     76    bbb    H16   2274 0.13554100   1.008000   ; qtot 76.179667
 2275         c3     76    bbb     C9   2275 -0.06455200  12.010000   ; qtot 76.115115
 2276         h1     76    bbb    H17   2276 0.13554100   1.008000   ; qtot 76.250656
 2277         h1     76    bbb    H18   2277 0.13554100   1.008000   ; qtot 76.386197
 2278         os     76    bbb     O1   2278 -0.62587700  16.000000   ; qtot 75.760320
 2279         hn     76    bbb    H19   2279 0.23982500   1.008000   ; qtot 76.000145
; residue   77 bbb rtp bbb q 1.0
 2280         n4     77    bbb     N1   2280 0.03726400  14.010000   ; qtot 76.037409
 2281         c3     77    bbb     C1   2281 -0.07020100  12.010000   ; qtot 75.967208
 2282         hx     77    bbb     H1   2282 0.12219000   1.008000   ; qtot 76.089398
 2283         hx     77    bbb     H2   2283 0.12219000   1.008000   ; qtot 76.211588
 2284         c3     77    bbb     C2   2284 -0.07020100  12.010000   ; qtot 76.141387
 2285         hx     77    bbb     H3   2285 0.12219000   1.008000   ; qtot 76.263577
 2286         hx     77    bbb     H4   2286 0.12219000   1.008000   ; qtot 76.385767
 2287         c3     77    bbb     C3   2287 -0.39007700  12.010000   ; qtot 75.995690
 2288         hx     77    bbb     H5   2288 0.14940300   1.008000   ; qtot 76.145093
 2289         hx     77    bbb     H6   2289 0.14940300   1.008000   ; qtot 76.294496
 2290         c3     77    bbb     C4   2290 0.18057300  12.010000   ; qtot 76.475069
 2291         hc     77    bbb     H7   2291 0.01788900   1.008000   ; qtot 76.492958
 2292         hc     77    bbb     H8   2292 0.01788900   1.008000   ; qtot 76.510847
 2293         c3     77    bbb     C5   2293 -0.11337700  12.010000   ; qtot 76.397470
 2294         hc     77    bbb     H9   2294 0.09515400   1.008000   ; qtot 76.492624
 2295         hc     77    bbb    H10   2295 0.09515400   1.008000   ; qtot 76.587778
 2296         c3     77    bbb     C6   2296 -0.11337700  12.010000   ; qtot 76.474401
 2297         hc     77    bbb    H11   2297 0.09515400   1.008000   ; qtot 76.569555
 2298         hc     77    bbb    H12   2298 0.09515400   1.008000   ; qtot 76.664709
 2299         c3     77    bbb     C7   2299 0.21842400  12.010000   ; qtot 76.883133
 2300         h1     77    bbb    H13   2300 0.04500300   1.008000   ; qtot 76.928136
 2301         h1     77    bbb    H14   2301 0.04500300   1.008000   ; qtot 76.973139
 2302         c3     77    bbb     C8   2302 -0.06455200  12.010000   ; qtot 76.908587
 2303         h1     77    bbb    H15   2303 0.13554100   1.008000   ; qtot 77.044128
 2304         h1     77    bbb    H16   2304 0.13554100   1.008000   ; qtot 77.179669
 2305         c3     77    bbb     C9   2305 -0.06455200  12.010000   ; qtot 77.115117
 2306         h1     77    bbb    H17   2306 0.13554100   1.008000   ; qtot 77.250658
 2307         h1     77    bbb    H18   2307 0.13554100   1.008000   ; qtot 77.386199
 2308         os     77    bbb     O1   2308 -0.62587700  16.000000   ; qtot 76.760322
 2309         hn     77    bbb    H19   2309 0.23982500   1.008000   ; qtot 77.000147
; residue   78 bbb rtp bbb q 1.0
 2310         n4     78    bbb     N1   2310 0.03726400  14.010000   ; qtot 77.037411
 2311         c3     78    bbb     C1   2311 -0.07020100  12.010000   ; qtot 76.967210
 2312         hx     78    bbb     H1   2312 0.12219000   1.008000   ; qtot 77.089400
 2313         hx     78    bbb     H2   2313 0.12219000   1.008000   ; qtot 77.211590
 2314         c3     78    bbb     C2   2314 -0.07020100  12.010000   ; qtot 77.141389
 2315         hx     78    bbb     H3   2315 0.12219000   1.008000   ; qtot 77.263579
 2316         hx     78    bbb     H4   2316 0.12219000   1.008000   ; qtot 77.385769
 2317         c3     78    bbb     C3   2317 -0.39007700  12.010000   ; qtot 76.995692
 2318         hx     78    bbb     H5   2318 0.14940300   1.008000   ; qtot 77.145095
 2319         hx     78    bbb     H6   2319 0.14940300   1.008000   ; qtot 77.294498
 2320         c3     78    bbb     C4   2320 0.18057300  12.010000   ; qtot 77.475071
 2321         hc     78    bbb     H7   2321 0.01788900   1.008000   ; qtot 77.492960
 2322         hc     78    bbb     H8   2322 0.01788900   1.008000   ; qtot 77.510849
 2323         c3     78    bbb     C5   2323 -0.11337700  12.010000   ; qtot 77.397472
 2324         hc     78    bbb     H9   2324 0.09515400   1.008000   ; qtot 77.492626
 2325         hc     78    bbb    H10   2325 0.09515400   1.008000   ; qtot 77.587780
 2326         c3     78    bbb     C6   2326 -0.11337700  12.010000   ; qtot 77.474403
 2327         hc     78    bbb    H11   2327 0.09515400   1.008000   ; qtot 77.569557
 2328         hc     78    bbb    H12   2328 0.09515400   1.008000   ; qtot 77.664711
 2329         c3     78    bbb     C7   2329 0.21842400  12.010000   ; qtot 77.883135
 2330         h1     78    bbb    H13   2330 0.04500300   1.008000   ; qtot 77.928138
 2331         h1     78    bbb    H14   2331 0.04500300   1.008000   ; qtot 77.973141
 2332         c3     78    bbb     C8   2332 -0.06455200  12.010000   ; qtot 77.908589
 2333         h1     78    bbb    H15   2333 0.13554100   1.008000   ; qtot 78.044130
 2334         h1     78    bbb    H16   2334 0.13554100   1.008000   ; qtot 78.179671
 2335         c3     78    bbb     C9   2335 -0.06455200  12.010000   ; qtot 78.115119
 2336         h1     78    bbb    H17   2336 0.13554100   1.008000   ; qtot 78.250660
 2337         h1     78    bbb    H18   2337 0.13554100   1.008000   ; qtot 78.386201
 2338         os     78    bbb     O1   2338 -0.62587700  16.000000   ; qtot 77.760324
 2339         hn     78    bbb    H19   2339 0.23982500   1.008000   ; qtot 78.000149
; residue   79 bbb rtp bbb q 1.0
 2340         n4     79    bbb     N1   2340 0.03726400  14.010000   ; qtot 78.037413
 2341         c3     79    bbb     C1   2341 -0.07020100  12.010000   ; qtot 77.967212
 2342         hx     79    bbb     H1   2342 0.12219000   1.008000   ; qtot 78.089402
 2343         hx     79    bbb     H2   2343 0.12219000   1.008000   ; qtot 78.211592
 2344         c3     79    bbb     C2   2344 -0.07020100  12.010000   ; qtot 78.141391
 2345         hx     79    bbb     H3   2345 0.12219000   1.008000   ; qtot 78.263581
 2346         hx     79    bbb     H4   2346 0.12219000   1.008000   ; qtot 78.385771
 2347         c3     79    bbb     C3   2347 -0.39007700  12.010000   ; qtot 77.995694
 2348         hx     79    bbb     H5   2348 0.14940300   1.008000   ; qtot 78.145097
 2349         hx     79    bbb     H6   2349 0.14940300   1.008000   ; qtot 78.294500
 2350         c3     79    bbb     C4   2350 0.18057300  12.010000   ; qtot 78.475073
 2351         hc     79    bbb     H7   2351 0.01788900   1.008000   ; qtot 78.492962
 2352         hc     79    bbb     H8   2352 0.01788900   1.008000   ; qtot 78.510851
 2353         c3     79    bbb     C5   2353 -0.11337700  12.010000   ; qtot 78.397474
 2354         hc     79    bbb     H9   2354 0.09515400   1.008000   ; qtot 78.492628
 2355         hc     79    bbb    H10   2355 0.09515400   1.008000   ; qtot 78.587782
 2356         c3     79    bbb     C6   2356 -0.11337700  12.010000   ; qtot 78.474405
 2357         hc     79    bbb    H11   2357 0.09515400   1.008000   ; qtot 78.569559
 2358         hc     79    bbb    H12   2358 0.09515400   1.008000   ; qtot 78.664713
 2359         c3     79    bbb     C7   2359 0.21842400  12.010000   ; qtot 78.883137
 2360         h1     79    bbb    H13   2360 0.04500300   1.008000   ; qtot 78.928140
 2361         h1     79    bbb    H14   2361 0.04500300   1.008000   ; qtot 78.973143
 2362         c3     79    bbb     C8   2362 -0.06455200  12.010000   ; qtot 78.908591
 2363         h1     79    bbb    H15   2363 0.13554100   1.008000   ; qtot 79.044132
 2364         h1     79    bbb    H16   2364 0.13554100   1.008000   ; qtot 79.179673
 2365         c3     79    bbb     C9   2365 -0.06455200  12.010000   ; qtot 79.115121
 2366         h1     79    bbb    H17   2366 0.13554100   1.008000   ; qtot 79.250662
 2367         h1     79    bbb    H18   2367 0.13554100   1.008000   ; qtot 79.386203
 2368         os     79    bbb     O1   2368 -0.62587700  16.000000   ; qtot 78.760326
 2369         hn     79    bbb    H19   2369 0.23982500   1.008000   ; qtot 79.000151
; residue   80 bbb rtp bbb q 1.0
 2370         n4     80    bbb     N1   2370 0.03726400  14.010000   ; qtot 79.037415
 2371         c3     80    bbb     C1   2371 -0.07020100  12.010000   ; qtot 78.967214
 2372         hx     80    bbb     H1   2372 0.12219000   1.008000   ; qtot 79.089404
 2373         hx     80    bbb     H2   2373 0.12219000   1.008000   ; qtot 79.211594
 2374         c3     80    bbb     C2   2374 -0.07020100  12.010000   ; qtot 79.141393
 2375         hx     80    bbb     H3   2375 0.12219000   1.008000   ; qtot 79.263583
 2376         hx     80    bbb     H4   2376 0.12219000   1.008000   ; qtot 79.385773
 2377         c3     80    bbb     C3   2377 -0.39007700  12.010000   ; qtot 78.995696
 2378         hx     80    bbb     H5   2378 0.14940300   1.008000   ; qtot 79.145099
 2379         hx     80    bbb     H6   2379 0.14940300   1.008000   ; qtot 79.294502
 2380         c3     80    bbb     C4   2380 0.18057300  12.010000   ; qtot 79.475075
 2381         hc     80    bbb     H7   2381 0.01788900   1.008000   ; qtot 79.492964
 2382         hc     80    bbb     H8   2382 0.01788900   1.008000   ; qtot 79.510853
 2383         c3     80    bbb     C5   2383 -0.11337700  12.010000   ; qtot 79.397476
 2384         hc     80    bbb     H9   2384 0.09515400   1.008000   ; qtot 79.492630
 2385         hc     80    bbb    H10   2385 0.09515400   1.008000   ; qtot 79.587784
 2386         c3     80    bbb     C6   2386 -0.11337700  12.010000   ; qtot 79.474407
 2387         hc     80    bbb    H11   2387 0.09515400   1.008000   ; qtot 79.569561
 2388         hc     80    bbb    H12   2388 0.09515400   1.008000   ; qtot 79.664715
 2389         c3     80    bbb     C7   2389 0.21842400  12.010000   ; qtot 79.883139
 2390         h1     80    bbb    H13   2390 0.04500300   1.008000   ; qtot 79.928142
 2391         h1     80    bbb    H14   2391 0.04500300   1.008000   ; qtot 79.973145
 2392         c3     80    bbb     C8   2392 -0.06455200  12.010000   ; qtot 79.908593
 2393         h1     80    bbb    H15   2393 0.13554100   1.008000   ; qtot 80.044134
 2394         h1     80    bbb    H16   2394 0.13554100   1.008000   ; qtot 80.179675
 2395         c3     80    bbb     C9   2395 -0.06455200  12.010000   ; qtot 80.115123
 2396         h1     80    bbb    H17   2396 0.13554100   1.008000   ; qtot 80.250664
 2397         h1     80    bbb    H18   2397 0.13554100   1.008000   ; qtot 80.386205
 2398         os     80    bbb     O1   2398 -0.62587700  16.000000   ; qtot 79.760328
 2399         hn     80    bbb    H19   2399 0.23982500   1.008000   ; qtot 80.000153
; residue   81 bbb rtp bbb q 1.0
 2400         n4     81    bbb     N1   2400 0.03726400  14.010000   ; qtot 80.037417
 2401         c3     81    bbb     C1   2401 -0.07020100  12.010000   ; qtot 79.967216
 2402         hx     81    bbb     H1   2402 0.12219000   1.008000   ; qtot 80.089406
 2403         hx     81    bbb     H2   2403 0.12219000   1.008000   ; qtot 80.211596
 2404         c3     81    bbb     C2   2404 -0.07020100  12.010000   ; qtot 80.141395
 2405         hx     81    bbb     H3   2405 0.12219000   1.008000   ; qtot 80.263585
 2406         hx     81    bbb     H4   2406 0.12219000   1.008000   ; qtot 80.385775
 2407         c3     81    bbb     C3   2407 -0.39007700  12.010000   ; qtot 79.995698
 2408         hx     81    bbb     H5   2408 0.14940300   1.008000   ; qtot 80.145101
 2409         hx     81    bbb     H6   2409 0.14940300   1.008000   ; qtot 80.294504
 2410         c3     81    bbb     C4   2410 0.18057300  12.010000   ; qtot 80.475077
 2411         hc     81    bbb     H7   2411 0.01788900   1.008000   ; qtot 80.492966
 2412         hc     81    bbb     H8   2412 0.01788900   1.008000   ; qtot 80.510855
 2413         c3     81    bbb     C5   2413 -0.11337700  12.010000   ; qtot 80.397478
 2414         hc     81    bbb     H9   2414 0.09515400   1.008000   ; qtot 80.492632
 2415         hc     81    bbb    H10   2415 0.09515400   1.008000   ; qtot 80.587786
 2416         c3     81    bbb     C6   2416 -0.11337700  12.010000   ; qtot 80.474409
 2417         hc     81    bbb    H11   2417 0.09515400   1.008000   ; qtot 80.569563
 2418         hc     81    bbb    H12   2418 0.09515400   1.008000   ; qtot 80.664717
 2419         c3     81    bbb     C7   2419 0.21842400  12.010000   ; qtot 80.883141
 2420         h1     81    bbb    H13   2420 0.04500300   1.008000   ; qtot 80.928144
 2421         h1     81    bbb    H14   2421 0.04500300   1.008000   ; qtot 80.973147
 2422         c3     81    bbb     C8   2422 -0.06455200  12.010000   ; qtot 80.908595
 2423         h1     81    bbb    H15   2423 0.13554100   1.008000   ; qtot 81.044136
 2424         h1     81    bbb    H16   2424 0.13554100   1.008000   ; qtot 81.179677
 2425         c3     81    bbb     C9   2425 -0.06455200  12.010000   ; qtot 81.115125
 2426         h1     81    bbb    H17   2426 0.13554100   1.008000   ; qtot 81.250666
 2427         h1     81    bbb    H18   2427 0.13554100   1.008000   ; qtot 81.386207
 2428         os     81    bbb     O1   2428 -0.62587700  16.000000   ; qtot 80.760330
 2429         hn     81    bbb    H19   2429 0.23982500   1.008000   ; qtot 81.000155
; residue   82 bbb rtp bbb q 1.0
 2430         n4     82    bbb     N1   2430 0.03726400  14.010000   ; qtot 81.037419
 2431         c3     82    bbb     C1   2431 -0.07020100  12.010000   ; qtot 80.967218
 2432         hx     82    bbb     H1   2432 0.12219000   1.008000   ; qtot 81.089408
 2433         hx     82    bbb     H2   2433 0.12219000   1.008000   ; qtot 81.211598
 2434         c3     82    bbb     C2   2434 -0.07020100  12.010000   ; qtot 81.141397
 2435         hx     82    bbb     H3   2435 0.12219000   1.008000   ; qtot 81.263587
 2436         hx     82    bbb     H4   2436 0.12219000   1.008000   ; qtot 81.385777
 2437         c3     82    bbb     C3   2437 -0.39007700  12.010000   ; qtot 80.995700
 2438         hx     82    bbb     H5   2438 0.14940300   1.008000   ; qtot 81.145103
 2439         hx     82    bbb     H6   2439 0.14940300   1.008000   ; qtot 81.294506
 2440         c3     82    bbb     C4   2440 0.18057300  12.010000   ; qtot 81.475079
 2441         hc     82    bbb     H7   2441 0.01788900   1.008000   ; qtot 81.492968
 2442         hc     82    bbb     H8   2442 0.01788900   1.008000   ; qtot 81.510857
 2443         c3     82    bbb     C5   2443 -0.11337700  12.010000   ; qtot 81.397480
 2444         hc     82    bbb     H9   2444 0.09515400   1.008000   ; qtot 81.492634
 2445         hc     82    bbb    H10   2445 0.09515400   1.008000   ; qtot 81.587788
 2446         c3     82    bbb     C6   2446 -0.11337700  12.010000   ; qtot 81.474411
 2447         hc     82    bbb    H11   2447 0.09515400   1.008000   ; qtot 81.569565
 2448         hc     82    bbb    H12   2448 0.09515400   1.008000   ; qtot 81.664719
 2449         c3     82    bbb     C7   2449 0.21842400  12.010000   ; qtot 81.883143
 2450         h1     82    bbb    H13   2450 0.04500300   1.008000   ; qtot 81.928146
 2451         h1     82    bbb    H14   2451 0.04500300   1.008000   ; qtot 81.973149
 2452         c3     82    bbb     C8   2452 -0.06455200  12.010000   ; qtot 81.908597
 2453         h1     82    bbb    H15   2453 0.13554100   1.008000   ; qtot 82.044138
 2454         h1     82    bbb    H16   2454 0.13554100   1.008000   ; qtot 82.179679
 2455         c3     82    bbb     C9   2455 -0.06455200  12.010000   ; qtot 82.115127
 2456         h1     82    bbb    H17   2456 0.13554100   1.008000   ; qtot 82.250668
 2457         h1     82    bbb    H18   2457 0.13554100   1.008000   ; qtot 82.386209
 2458         os     82    bbb     O1   2458 -0.62587700  16.000000   ; qtot 81.760332
 2459         hn     82    bbb    H19   2459 0.23982500   1.008000   ; qtot 82.000157
; residue   83 bbb rtp bbb q 1.0
 2460         n4     83    bbb     N1   2460 0.03726400  14.010000   ; qtot 82.037421
 2461         c3     83    bbb     C1   2461 -0.07020100  12.010000   ; qtot 81.967220
 2462         hx     83    bbb     H1   2462 0.12219000   1.008000   ; qtot 82.089410
 2463         hx     83    bbb     H2   2463 0.12219000   1.008000   ; qtot 82.211600
 2464         c3     83    bbb     C2   2464 -0.07020100  12.010000   ; qtot 82.141399
 2465         hx     83    bbb     H3   2465 0.12219000   1.008000   ; qtot 82.263589
 2466         hx     83    bbb     H4   2466 0.12219000   1.008000   ; qtot 82.385779
 2467         c3     83    bbb     C3   2467 -0.39007700  12.010000   ; qtot 81.995702
 2468         hx     83    bbb     H5   2468 0.14940300   1.008000   ; qtot 82.145105
 2469         hx     83    bbb     H6   2469 0.14940300   1.008000   ; qtot 82.294508
 2470         c3     83    bbb     C4   2470 0.18057300  12.010000   ; qtot 82.475081
 2471         hc     83    bbb     H7   2471 0.01788900   1.008000   ; qtot 82.492970
 2472         hc     83    bbb     H8   2472 0.01788900   1.008000   ; qtot 82.510859
 2473         c3     83    bbb     C5   2473 -0.11337700  12.010000   ; qtot 82.397482
 2474         hc     83    bbb     H9   2474 0.09515400   1.008000   ; qtot 82.492636
 2475         hc     83    bbb    H10   2475 0.09515400   1.008000   ; qtot 82.587790
 2476         c3     83    bbb     C6   2476 -0.11337700  12.010000   ; qtot 82.474413
 2477         hc     83    bbb    H11   2477 0.09515400   1.008000   ; qtot 82.569567
 2478         hc     83    bbb    H12   2478 0.09515400   1.008000   ; qtot 82.664721
 2479         c3     83    bbb     C7   2479 0.21842400  12.010000   ; qtot 82.883145
 2480         h1     83    bbb    H13   2480 0.04500300   1.008000   ; qtot 82.928148
 2481         h1     83    bbb    H14   2481 0.04500300   1.008000   ; qtot 82.973151
 2482         c3     83    bbb     C8   2482 -0.06455200  12.010000   ; qtot 82.908599
 2483         h1     83    bbb    H15   2483 0.13554100   1.008000   ; qtot 83.044140
 2484         h1     83    bbb    H16   2484 0.13554100   1.008000   ; qtot 83.179681
 2485         c3     83    bbb     C9   2485 -0.06455200  12.010000   ; qtot 83.115129
 2486         h1     83    bbb    H17   2486 0.13554100   1.008000   ; qtot 83.250670
 2487         h1     83    bbb    H18   2487 0.13554100   1.008000   ; qtot 83.386211
 2488         os     83    bbb     O1   2488 -0.62587700  16.000000   ; qtot 82.760334
 2489         hn     83    bbb    H19   2489 0.23982500   1.008000   ; qtot 83.000159
; residue   84 bbb rtp bbb q 1.0
 2490         n4     84    bbb     N1   2490 0.03726400  14.010000   ; qtot 83.037423
 2491         c3     84    bbb     C1   2491 -0.07020100  12.010000   ; qtot 82.967222
 2492         hx     84    bbb     H1   2492 0.12219000   1.008000   ; qtot 83.089412
 2493         hx     84    bbb     H2   2493 0.12219000   1.008000   ; qtot 83.211602
 2494         c3     84    bbb     C2   2494 -0.07020100  12.010000   ; qtot 83.141401
 2495         hx     84    bbb     H3   2495 0.12219000   1.008000   ; qtot 83.263591
 2496         hx     84    bbb     H4   2496 0.12219000   1.008000   ; qtot 83.385781
 2497         c3     84    bbb     C3   2497 -0.39007700  12.010000   ; qtot 82.995704
 2498         hx     84    bbb     H5   2498 0.14940300   1.008000   ; qtot 83.145107
 2499         hx     84    bbb     H6   2499 0.14940300   1.008000   ; qtot 83.294510
 2500         c3     84    bbb     C4   2500 0.18057300  12.010000   ; qtot 83.475083
 2501         hc     84    bbb     H7   2501 0.01788900   1.008000   ; qtot 83.492972
 2502         hc     84    bbb     H8   2502 0.01788900   1.008000   ; qtot 83.510861
 2503         c3     84    bbb     C5   2503 -0.11337700  12.010000   ; qtot 83.397484
 2504         hc     84    bbb     H9   2504 0.09515400   1.008000   ; qtot 83.492638
 2505         hc     84    bbb    H10   2505 0.09515400   1.008000   ; qtot 83.587792
 2506         c3     84    bbb     C6   2506 -0.11337700  12.010000   ; qtot 83.474415
 2507         hc     84    bbb    H11   2507 0.09515400   1.008000   ; qtot 83.569569
 2508         hc     84    bbb    H12   2508 0.09515400   1.008000   ; qtot 83.664723
 2509         c3     84    bbb     C7   2509 0.21842400  12.010000   ; qtot 83.883147
 2510         h1     84    bbb    H13   2510 0.04500300   1.008000   ; qtot 83.928150
 2511         h1     84    bbb    H14   2511 0.04500300   1.008000   ; qtot 83.973153
 2512         c3     84    bbb     C8   2512 -0.06455200  12.010000   ; qtot 83.908601
 2513         h1     84    bbb    H15   2513 0.13554100   1.008000   ; qtot 84.044142
 2514         h1     84    bbb    H16   2514 0.13554100   1.008000   ; qtot 84.179683
 2515         c3     84    bbb     C9   2515 -0.06455200  12.010000   ; qtot 84.115131
 2516         h1     84    bbb    H17   2516 0.13554100   1.008000   ; qtot 84.250672
 2517         h1     84    bbb    H18   2517 0.13554100   1.008000   ; qtot 84.386213
 2518         os     84    bbb     O1   2518 -0.62587700  16.000000   ; qtot 83.760336
 2519         hn     84    bbb    H19   2519 0.23982500   1.008000   ; qtot 84.000161
; residue   85 bbb rtp bbb q 1.0
 2520         n4     85    bbb     N1   2520 0.03726400  14.010000   ; qtot 84.037425
 2521         c3     85    bbb     C1   2521 -0.07020100  12.010000   ; qtot 83.967224
 2522         hx     85    bbb     H1   2522 0.12219000   1.008000   ; qtot 84.089414
 2523         hx     85    bbb     H2   2523 0.12219000   1.008000   ; qtot 84.211604
 2524         c3     85    bbb     C2   2524 -0.07020100  12.010000   ; qtot 84.141403
 2525         hx     85    bbb     H3   2525 0.12219000   1.008000   ; qtot 84.263593
 2526         hx     85    bbb     H4   2526 0.12219000   1.008000   ; qtot 84.385783
 2527         c3     85    bbb     C3   2527 -0.39007700  12.010000   ; qtot 83.995706
 2528         hx     85    bbb     H5   2528 0.14940300   1.008000   ; qtot 84.145109
 2529         hx     85    bbb     H6   2529 0.14940300   1.008000   ; qtot 84.294512
 2530         c3     85    bbb     C4   2530 0.18057300  12.010000   ; qtot 84.475085
 2531         hc     85    bbb     H7   2531 0.01788900   1.008000   ; qtot 84.492974
 2532         hc     85    bbb     H8   2532 0.01788900   1.008000   ; qtot 84.510863
 2533         c3     85    bbb     C5   2533 -0.11337700  12.010000   ; qtot 84.397486
 2534         hc     85    bbb     H9   2534 0.09515400   1.008000   ; qtot 84.492640
 2535         hc     85    bbb    H10   2535 0.09515400   1.008000   ; qtot 84.587794
 2536         c3     85    bbb     C6   2536 -0.11337700  12.010000   ; qtot 84.474417
 2537         hc     85    bbb    H11   2537 0.09515400   1.008000   ; qtot 84.569571
 2538         hc     85    bbb    H12   2538 0.09515400   1.008000   ; qtot 84.664725
 2539         c3     85    bbb     C7   2539 0.21842400  12.010000   ; qtot 84.883149
 2540         h1     85    bbb    H13   2540 0.04500300   1.008000   ; qtot 84.928152
 2541         h1     85    bbb    H14   2541 0.04500300   1.008000   ; qtot 84.973155
 2542         c3     85    bbb     C8   2542 -0.06455200  12.010000   ; qtot 84.908603
 2543         h1     85    bbb    H15   2543 0.13554100   1.008000   ; qtot 85.044144
 2544         h1     85    bbb    H16   2544 0.13554100   1.008000   ; qtot 85.179685
 2545         c3     85    bbb     C9   2545 -0.06455200  12.010000   ; qtot 85.115133
 2546         h1     85    bbb    H17   2546 0.13554100   1.008000   ; qtot 85.250674
 2547         h1     85    bbb    H18   2547 0.13554100   1.008000   ; qtot 85.386215
 2548         os     85    bbb     O1   2548 -0.62587700  16.000000   ; qtot 84.760338
 2549         hn     85    bbb    H19   2549 0.23982500   1.008000   ; qtot 85.000163
; residue   86 bbb rtp bbb q 1.0
 2550         n4     86    bbb     N1   2550 0.03726400  14.010000   ; qtot 85.037427
 2551         c3     86    bbb     C1   2551 -0.07020100  12.010000   ; qtot 84.967226
 2552         hx     86    bbb     H1   2552 0.12219000   1.008000   ; qtot 85.089416
 2553         hx     86    bbb     H2   2553 0.12219000   1.008000   ; qtot 85.211606
 2554         c3     86    bbb     C2   2554 -0.07020100  12.010000   ; qtot 85.141405
 2555         hx     86    bbb     H3   2555 0.12219000   1.008000   ; qtot 85.263595
 2556         hx     86    bbb     H4   2556 0.12219000   1.008000   ; qtot 85.385785
 2557         c3     86    bbb     C3   2557 -0.39007700  12.010000   ; qtot 84.995708
 2558         hx     86    bbb     H5   2558 0.14940300   1.008000   ; qtot 85.145111
 2559         hx     86    bbb     H6   2559 0.14940300   1.008000   ; qtot 85.294514
 2560         c3     86    bbb     C4   2560 0.18057300  12.010000   ; qtot 85.475087
 2561         hc     86    bbb     H7   2561 0.01788900   1.008000   ; qtot 85.492976
 2562         hc     86    bbb     H8   2562 0.01788900   1.008000   ; qtot 85.510865
 2563         c3     86    bbb     C5   2563 -0.11337700  12.010000   ; qtot 85.397488
 2564         hc     86    bbb     H9   2564 0.09515400   1.008000   ; qtot 85.492642
 2565         hc     86    bbb    H10   2565 0.09515400   1.008000   ; qtot 85.587796
 2566         c3     86    bbb     C6   2566 -0.11337700  12.010000   ; qtot 85.474419
 2567         hc     86    bbb    H11   2567 0.09515400   1.008000   ; qtot 85.569573
 2568         hc     86    bbb    H12   2568 0.09515400   1.008000   ; qtot 85.664727
 2569         c3     86    bbb     C7   2569 0.21842400  12.010000   ; qtot 85.883151
 2570         h1     86    bbb    H13   2570 0.04500300   1.008000   ; qtot 85.928154
 2571         h1     86    bbb    H14   2571 0.04500300   1.008000   ; qtot 85.973157
 2572         c3     86    bbb     C8   2572 -0.06455200  12.010000   ; qtot 85.908605
 2573         h1     86    bbb    H15   2573 0.13554100   1.008000   ; qtot 86.044146
 2574         h1     86    bbb    H16   2574 0.13554100   1.008000   ; qtot 86.179687
 2575         c3     86    bbb     C9   2575 -0.06455200  12.010000   ; qtot 86.115135
 2576         h1     86    bbb    H17   2576 0.13554100   1.008000   ; qtot 86.250676
 2577         h1     86    bbb    H18   2577 0.13554100   1.008000   ; qtot 86.386217
 2578         os     86    bbb     O1   2578 -0.62587700  16.000000   ; qtot 85.760340
 2579         hn     86    bbb    H19   2579 0.23982500   1.008000   ; qtot 86.000165
; residue   87 bbb rtp bbb q 1.0
 2580         n4     87    bbb     N1   2580 0.03726400  14.010000   ; qtot 86.037429
 2581         c3     87    bbb     C1   2581 -0.07020100  12.010000   ; qtot 85.967228
 2582         hx     87    bbb     H1   2582 0.12219000   1.008000   ; qtot 86.089418
 2583         hx     87    bbb     H2   2583 0.12219000   1.008000   ; qtot 86.211608
 2584         c3     87    bbb     C2   2584 -0.07020100  12.010000   ; qtot 86.141407
 2585         hx     87    bbb     H3   2585 0.12219000   1.008000   ; qtot 86.263597
 2586         hx     87    bbb     H4   2586 0.12219000   1.008000   ; qtot 86.385787
 2587         c3     87    bbb     C3   2587 -0.39007700  12.010000   ; qtot 85.995710
 2588         hx     87    bbb     H5   2588 0.14940300   1.008000   ; qtot 86.145113
 2589         hx     87    bbb     H6   2589 0.14940300   1.008000   ; qtot 86.294516
 2590         c3     87    bbb     C4   2590 0.18057300  12.010000   ; qtot 86.475089
 2591         hc     87    bbb     H7   2591 0.01788900   1.008000   ; qtot 86.492978
 2592         hc     87    bbb     H8   2592 0.01788900   1.008000   ; qtot 86.510867
 2593         c3     87    bbb     C5   2593 -0.11337700  12.010000   ; qtot 86.397490
 2594         hc     87    bbb     H9   2594 0.09515400   1.008000   ; qtot 86.492644
 2595         hc     87    bbb    H10   2595 0.09515400   1.008000   ; qtot 86.587798
 2596         c3     87    bbb     C6   2596 -0.11337700  12.010000   ; qtot 86.474421
 2597         hc     87    bbb    H11   2597 0.09515400   1.008000   ; qtot 86.569575
 2598         hc     87    bbb    H12   2598 0.09515400   1.008000   ; qtot 86.664729
 2599         c3     87    bbb     C7   2599 0.21842400  12.010000   ; qtot 86.883153
 2600         h1     87    bbb    H13   2600 0.04500300   1.008000   ; qtot 86.928156
 2601         h1     87    bbb    H14   2601 0.04500300   1.008000   ; qtot 86.973159
 2602         c3     87    bbb     C8   2602 -0.06455200  12.010000   ; qtot 86.908607
 2603         h1     87    bbb    H15   2603 0.13554100   1.008000   ; qtot 87.044148
 2604         h1     87    bbb    H16   2604 0.13554100   1.008000   ; qtot 87.179689
 2605         c3     87    bbb     C9   2605 -0.06455200  12.010000   ; qtot 87.115137
 2606         h1     87    bbb    H17   2606 0.13554100   1.008000   ; qtot 87.250678
 2607         h1     87    bbb    H18   2607 0.13554100   1.008000   ; qtot 87.386219
 2608         os     87    bbb     O1   2608 -0.62587700  16.000000   ; qtot 86.760342
 2609         hn     87    bbb    H19   2609 0.23982500   1.008000   ; qtot 87.000167
; residue   88 bbb rtp bbb q 1.0
 2610         n4     88    bbb     N1   2610 0.03726400  14.010000   ; qtot 87.037431
 2611         c3     88    bbb     C1   2611 -0.07020100  12.010000   ; qtot 86.967230
 2612         hx     88    bbb     H1   2612 0.12219000   1.008000   ; qtot 87.089420
 2613         hx     88    bbb     H2   2613 0.12219000   1.008000   ; qtot 87.211610
 2614         c3     88    bbb     C2   2614 -0.07020100  12.010000   ; qtot 87.141409
 2615         hx     88    bbb     H3   2615 0.12219000   1.008000   ; qtot 87.263599
 2616         hx     88    bbb     H4   2616 0.12219000   1.008000   ; qtot 87.385789
 2617         c3     88    bbb     C3   2617 -0.39007700  12.010000   ; qtot 86.995712
 2618         hx     88    bbb     H5   2618 0.14940300   1.008000   ; qtot 87.145115
 2619         hx     88    bbb     H6   2619 0.14940300   1.008000   ; qtot 87.294518
 2620         c3     88    bbb     C4   2620 0.18057300  12.010000   ; qtot 87.475091
 2621         hc     88    bbb     H7   2621 0.01788900   1.008000   ; qtot 87.492980
 2622         hc     88    bbb     H8   2622 0.01788900   1.008000   ; qtot 87.510869
 2623         c3     88    bbb     C5   2623 -0.11337700  12.010000   ; qtot 87.397492
 2624         hc     88    bbb     H9   2624 0.09515400   1.008000   ; qtot 87.492646
 2625         hc     88    bbb    H10   2625 0.09515400   1.008000   ; qtot 87.587800
 2626         c3     88    bbb     C6   2626 -0.11337700  12.010000   ; qtot 87.474423
 2627         hc     88    bbb    H11   2627 0.09515400   1.008000   ; qtot 87.569577
 2628         hc     88    bbb    H12   2628 0.09515400   1.008000   ; qtot 87.664731
 2629         c3     88    bbb     C7   2629 0.21842400  12.010000   ; qtot 87.883155
 2630         h1     88    bbb    H13   2630 0.04500300   1.008000   ; qtot 87.928158
 2631         h1     88    bbb    H14   2631 0.04500300   1.008000   ; qtot 87.973161
 2632         c3     88    bbb     C8   2632 -0.06455200  12.010000   ; qtot 87.908609
 2633         h1     88    bbb    H15   2633 0.13554100   1.008000   ; qtot 88.044150
 2634         h1     88    bbb    H16   2634 0.13554100   1.008000   ; qtot 88.179691
 2635         c3     88    bbb     C9   2635 -0.06455200  12.010000   ; qtot 88.115139
 2636         h1     88    bbb    H17   2636 0.13554100   1.008000   ; qtot 88.250680
 2637         h1     88    bbb    H18   2637 0.13554100   1.008000   ; qtot 88.386221
 2638         os     88    bbb     O1   2638 -0.62587700  16.000000   ; qtot 87.760344
 2639         hn     88    bbb    H19   2639 0.23982500   1.008000   ; qtot 88.000169
; residue   89 bbb rtp bbb q 1.0
 2640         n4     89    bbb     N1   2640 0.03726400  14.010000   ; qtot 88.037433
 2641         c3     89    bbb     C1   2641 -0.07020100  12.010000   ; qtot 87.967232
 2642         hx     89    bbb     H1   2642 0.12219000   1.008000   ; qtot 88.089422
 2643         hx     89    bbb     H2   2643 0.12219000   1.008000   ; qtot 88.211612
 2644         c3     89    bbb     C2   2644 -0.07020100  12.010000   ; qtot 88.141411
 2645         hx     89    bbb     H3   2645 0.12219000   1.008000   ; qtot 88.263601
 2646         hx     89    bbb     H4   2646 0.12219000   1.008000   ; qtot 88.385791
 2647         c3     89    bbb     C3   2647 -0.39007700  12.010000   ; qtot 87.995714
 2648         hx     89    bbb     H5   2648 0.14940300   1.008000   ; qtot 88.145117
 2649         hx     89    bbb     H6   2649 0.14940300   1.008000   ; qtot 88.294520
 2650         c3     89    bbb     C4   2650 0.18057300  12.010000   ; qtot 88.475093
 2651         hc     89    bbb     H7   2651 0.01788900   1.008000   ; qtot 88.492982
 2652         hc     89    bbb     H8   2652 0.01788900   1.008000   ; qtot 88.510871
 2653         c3     89    bbb     C5   2653 -0.11337700  12.010000   ; qtot 88.397494
 2654         hc     89    bbb     H9   2654 0.09515400   1.008000   ; qtot 88.492648
 2655         hc     89    bbb    H10   2655 0.09515400   1.008000   ; qtot 88.587802
 2656         c3     89    bbb     C6   2656 -0.11337700  12.010000   ; qtot 88.474425
 2657         hc     89    bbb    H11   2657 0.09515400   1.008000   ; qtot 88.569579
 2658         hc     89    bbb    H12   2658 0.09515400   1.008000   ; qtot 88.664733
 2659         c3     89    bbb     C7   2659 0.21842400  12.010000   ; qtot 88.883157
 2660         h1     89    bbb    H13   2660 0.04500300   1.008000   ; qtot 88.928160
 2661         h1     89    bbb    H14   2661 0.04500300   1.008000   ; qtot 88.973163
 2662         c3     89    bbb     C8   2662 -0.06455200  12.010000   ; qtot 88.908611
 2663         h1     89    bbb    H15   2663 0.13554100   1.008000   ; qtot 89.044152
 2664         h1     89    bbb    H16   2664 0.13554100   1.008000   ; qtot 89.179693
 2665         c3     89    bbb     C9   2665 -0.06455200  12.010000   ; qtot 89.115141
 2666         h1     89    bbb    H17   2666 0.13554100   1.008000   ; qtot 89.250682
 2667         h1     89    bbb    H18   2667 0.13554100   1.008000   ; qtot 89.386223
 2668         os     89    bbb     O1   2668 -0.62587700  16.000000   ; qtot 88.760346
 2669         hn     89    bbb    H19   2669 0.23982500   1.008000   ; qtot 89.000171
; residue   90 bbb rtp bbb q 1.0
 2670         n4     90    bbb     N1   2670 0.03726400  14.010000   ; qtot 89.037435
 2671         c3     90    bbb     C1   2671 -0.07020100  12.010000   ; qtot 88.967234
 2672         hx     90    bbb     H1   2672 0.12219000   1.008000   ; qtot 89.089424
 2673         hx     90    bbb     H2   2673 0.12219000   1.008000   ; qtot 89.211614
 2674         c3     90    bbb     C2   2674 -0.07020100  12.010000   ; qtot 89.141413
 2675         hx     90    bbb     H3   2675 0.12219000   1.008000   ; qtot 89.263603
 2676         hx     90    bbb     H4   2676 0.12219000   1.008000   ; qtot 89.385793
 2677         c3     90    bbb     C3   2677 -0.39007700  12.010000   ; qtot 88.995716
 2678         hx     90    bbb     H5   2678 0.14940300   1.008000   ; qtot 89.145119
 2679         hx     90    bbb     H6   2679 0.14940300   1.008000   ; qtot 89.294522
 2680         c3     90    bbb     C4   2680 0.18057300  12.010000   ; qtot 89.475095
 2681         hc     90    bbb     H7   2681 0.01788900   1.008000   ; qtot 89.492984
 2682         hc     90    bbb     H8   2682 0.01788900   1.008000   ; qtot 89.510873
 2683         c3     90    bbb     C5   2683 -0.11337700  12.010000   ; qtot 89.397496
 2684         hc     90    bbb     H9   2684 0.09515400   1.008000   ; qtot 89.492650
 2685         hc     90    bbb    H10   2685 0.09515400   1.008000   ; qtot 89.587804
 2686         c3     90    bbb     C6   2686 -0.11337700  12.010000   ; qtot 89.474427
 2687         hc     90    bbb    H11   2687 0.09515400   1.008000   ; qtot 89.569581
 2688         hc     90    bbb    H12   2688 0.09515400   1.008000   ; qtot 89.664735
 2689         c3     90    bbb     C7   2689 0.21842400  12.010000   ; qtot 89.883159
 2690         h1     90    bbb    H13   2690 0.04500300   1.008000   ; qtot 89.928162
 2691         h1     90    bbb    H14   2691 0.04500300   1.008000   ; qtot 89.973165
 2692         c3     90    bbb     C8   2692 -0.06455200  12.010000   ; qtot 89.908613
 2693         h1     90    bbb    H15   2693 0.13554100   1.008000   ; qtot 90.044154
 2694         h1     90    bbb    H16   2694 0.13554100   1.008000   ; qtot 90.179695
 2695         c3     90    bbb     C9   2695 -0.06455200  12.010000   ; qtot 90.115143
 2696         h1     90    bbb    H17   2696 0.13554100   1.008000   ; qtot 90.250684
 2697         h1     90    bbb    H18   2697 0.13554100   1.008000   ; qtot 90.386225
 2698         os     90    bbb     O1   2698 -0.62587700  16.000000   ; qtot 89.760348
 2699         hn     90    bbb    H19   2699 0.23982500   1.008000   ; qtot 90.000173
; residue   91 bbb rtp bbb q 1.0
 2700         n4     91    bbb     N1   2700 0.03726400  14.010000   ; qtot 90.037437
 2701         c3     91    bbb     C1   2701 -0.07020100  12.010000   ; qtot 89.967236
 2702         hx     91    bbb     H1   2702 0.12219000   1.008000   ; qtot 90.089426
 2703         hx     91    bbb     H2   2703 0.12219000   1.008000   ; qtot 90.211616
 2704         c3     91    bbb     C2   2704 -0.07020100  12.010000   ; qtot 90.141415
 2705         hx     91    bbb     H3   2705 0.12219000   1.008000   ; qtot 90.263605
 2706         hx     91    bbb     H4   2706 0.12219000   1.008000   ; qtot 90.385795
 2707         c3     91    bbb     C3   2707 -0.39007700  12.010000   ; qtot 89.995718
 2708         hx     91    bbb     H5   2708 0.14940300   1.008000   ; qtot 90.145121
 2709         hx     91    bbb     H6   2709 0.14940300   1.008000   ; qtot 90.294524
 2710         c3     91    bbb     C4   2710 0.18057300  12.010000   ; qtot 90.475097
 2711         hc     91    bbb     H7   2711 0.01788900   1.008000   ; qtot 90.492986
 2712         hc     91    bbb     H8   2712 0.01788900   1.008000   ; qtot 90.510875
 2713         c3     91    bbb     C5   2713 -0.11337700  12.010000   ; qtot 90.397498
 2714         hc     91    bbb     H9   2714 0.09515400   1.008000   ; qtot 90.492652
 2715         hc     91    bbb    H10   2715 0.09515400   1.008000   ; qtot 90.587806
 2716         c3     91    bbb     C6   2716 -0.11337700  12.010000   ; qtot 90.474429
 2717         hc     91    bbb    H11   2717 0.09515400   1.008000   ; qtot 90.569583
 2718         hc     91    bbb    H12   2718 0.09515400   1.008000   ; qtot 90.664737
 2719         c3     91    bbb     C7   2719 0.21842400  12.010000   ; qtot 90.883161
 2720         h1     91    bbb    H13   2720 0.04500300   1.008000   ; qtot 90.928164
 2721         h1     91    bbb    H14   2721 0.04500300   1.008000   ; qtot 90.973167
 2722         c3     91    bbb     C8   2722 -0.06455200  12.010000   ; qtot 90.908615
 2723         h1     91    bbb    H15   2723 0.13554100   1.008000   ; qtot 91.044156
 2724         h1     91    bbb    H16   2724 0.13554100   1.008000   ; qtot 91.179697
 2725         c3     91    bbb     C9   2725 -0.06455200  12.010000   ; qtot 91.115145
 2726         h1     91    bbb    H17   2726 0.13554100   1.008000   ; qtot 91.250686
 2727         h1     91    bbb    H18   2727 0.13554100   1.008000   ; qtot 91.386227
 2728         os     91    bbb     O1   2728 -0.62587700  16.000000   ; qtot 90.760350
 2729         hn     91    bbb    H19   2729 0.23982500   1.008000   ; qtot 91.000175
; residue   92 bbb rtp bbb q 1.0
 2730         n4     92    bbb     N1   2730 0.03726400  14.010000   ; qtot 91.037439
 2731         c3     92    bbb     C1   2731 -0.07020100  12.010000   ; qtot 90.967238
 2732         hx     92    bbb     H1   2732 0.12219000   1.008000   ; qtot 91.089428
 2733         hx     92    bbb     H2   2733 0.12219000   1.008000   ; qtot 91.211618
 2734         c3     92    bbb     C2   2734 -0.07020100  12.010000   ; qtot 91.141417
 2735         hx     92    bbb     H3   2735 0.12219000   1.008000   ; qtot 91.263607
 2736         hx     92    bbb     H4   2736 0.12219000   1.008000   ; qtot 91.385797
 2737         c3     92    bbb     C3   2737 -0.39007700  12.010000   ; qtot 90.995720
 2738         hx     92    bbb     H5   2738 0.14940300   1.008000   ; qtot 91.145123
 2739         hx     92    bbb     H6   2739 0.14940300   1.008000   ; qtot 91.294526
 2740         c3     92    bbb     C4   2740 0.18057300  12.010000   ; qtot 91.475099
 2741         hc     92    bbb     H7   2741 0.01788900   1.008000   ; qtot 91.492988
 2742         hc     92    bbb     H8   2742 0.01788900   1.008000   ; qtot 91.510877
 2743         c3     92    bbb     C5   2743 -0.11337700  12.010000   ; qtot 91.397500
 2744         hc     92    bbb     H9   2744 0.09515400   1.008000   ; qtot 91.492654
 2745         hc     92    bbb    H10   2745 0.09515400   1.008000   ; qtot 91.587808
 2746         c3     92    bbb     C6   2746 -0.11337700  12.010000   ; qtot 91.474431
 2747         hc     92    bbb    H11   2747 0.09515400   1.008000   ; qtot 91.569585
 2748         hc     92    bbb    H12   2748 0.09515400   1.008000   ; qtot 91.664739
 2749         c3     92    bbb     C7   2749 0.21842400  12.010000   ; qtot 91.883163
 2750         h1     92    bbb    H13   2750 0.04500300   1.008000   ; qtot 91.928166
 2751         h1     92    bbb    H14   2751 0.04500300   1.008000   ; qtot 91.973169
 2752         c3     92    bbb     C8   2752 -0.06455200  12.010000   ; qtot 91.908617
 2753         h1     92    bbb    H15   2753 0.13554100   1.008000   ; qtot 92.044158
 2754         h1     92    bbb    H16   2754 0.13554100   1.008000   ; qtot 92.179699
 2755         c3     92    bbb     C9   2755 -0.06455200  12.010000   ; qtot 92.115147
 2756         h1     92    bbb    H17   2756 0.13554100   1.008000   ; qtot 92.250688
 2757         h1     92    bbb    H18   2757 0.13554100   1.008000   ; qtot 92.386229
 2758         os     92    bbb     O1   2758 -0.62587700  16.000000   ; qtot 91.760352
 2759         hn     92    bbb    H19   2759 0.23982500   1.008000   ; qtot 92.000177
; residue   93 bbb rtp bbb q 1.0
 2760         n4     93    bbb     N1   2760 0.03726400  14.010000   ; qtot 92.037441
 2761         c3     93    bbb     C1   2761 -0.07020100  12.010000   ; qtot 91.967240
 2762         hx     93    bbb     H1   2762 0.12219000   1.008000   ; qtot 92.089430
 2763         hx     93    bbb     H2   2763 0.12219000   1.008000   ; qtot 92.211620
 2764         c3     93    bbb     C2   2764 -0.07020100  12.010000   ; qtot 92.141419
 2765         hx     93    bbb     H3   2765 0.12219000   1.008000   ; qtot 92.263609
 2766         hx     93    bbb     H4   2766 0.12219000   1.008000   ; qtot 92.385799
 2767         c3     93    bbb     C3   2767 -0.39007700  12.010000   ; qtot 91.995722
 2768         hx     93    bbb     H5   2768 0.14940300   1.008000   ; qtot 92.145125
 2769         hx     93    bbb     H6   2769 0.14940300   1.008000   ; qtot 92.294528
 2770         c3     93    bbb     C4   2770 0.18057300  12.010000   ; qtot 92.475101
 2771         hc     93    bbb     H7   2771 0.01788900   1.008000   ; qtot 92.492990
 2772         hc     93    bbb     H8   2772 0.01788900   1.008000   ; qtot 92.510879
 2773         c3     93    bbb     C5   2773 -0.11337700  12.010000   ; qtot 92.397502
 2774         hc     93    bbb     H9   2774 0.09515400   1.008000   ; qtot 92.492656
 2775         hc     93    bbb    H10   2775 0.09515400   1.008000   ; qtot 92.587810
 2776         c3     93    bbb     C6   2776 -0.11337700  12.010000   ; qtot 92.474433
 2777         hc     93    bbb    H11   2777 0.09515400   1.008000   ; qtot 92.569587
 2778         hc     93    bbb    H12   2778 0.09515400   1.008000   ; qtot 92.664741
 2779         c3     93    bbb     C7   2779 0.21842400  12.010000   ; qtot 92.883165
 2780         h1     93    bbb    H13   2780 0.04500300   1.008000   ; qtot 92.928168
 2781         h1     93    bbb    H14   2781 0.04500300   1.008000   ; qtot 92.973171
 2782         c3     93    bbb     C8   2782 -0.06455200  12.010000   ; qtot 92.908619
 2783         h1     93    bbb    H15   2783 0.13554100   1.008000   ; qtot 93.044160
 2784         h1     93    bbb    H16   2784 0.13554100   1.008000   ; qtot 93.179701
 2785         c3     93    bbb     C9   2785 -0.06455200  12.010000   ; qtot 93.115149
 2786         h1     93    bbb    H17   2786 0.13554100   1.008000   ; qtot 93.250690
 2787         h1     93    bbb    H18   2787 0.13554100   1.008000   ; qtot 93.386231
 2788         os     93    bbb     O1   2788 -0.62587700  16.000000   ; qtot 92.760354
 2789         hn     93    bbb    H19   2789 0.23982500   1.008000   ; qtot 93.000179
; residue   94 bbb rtp bbb q 1.0
 2790         n4     94    bbb     N1   2790 0.03726400  14.010000   ; qtot 93.037443
 2791         c3     94    bbb     C1   2791 -0.07020100  12.010000   ; qtot 92.967242
 2792         hx     94    bbb     H1   2792 0.12219000   1.008000   ; qtot 93.089432
 2793         hx     94    bbb     H2   2793 0.12219000   1.008000   ; qtot 93.211622
 2794         c3     94    bbb     C2   2794 -0.07020100  12.010000   ; qtot 93.141421
 2795         hx     94    bbb     H3   2795 0.12219000   1.008000   ; qtot 93.263611
 2796         hx     94    bbb     H4   2796 0.12219000   1.008000   ; qtot 93.385801
 2797         c3     94    bbb     C3   2797 -0.39007700  12.010000   ; qtot 92.995724
 2798         hx     94    bbb     H5   2798 0.14940300   1.008000   ; qtot 93.145127
 2799         hx     94    bbb     H6   2799 0.14940300   1.008000   ; qtot 93.294530
 2800         c3     94    bbb     C4   2800 0.18057300  12.010000   ; qtot 93.475103
 2801         hc     94    bbb     H7   2801 0.01788900   1.008000   ; qtot 93.492992
 2802         hc     94    bbb     H8   2802 0.01788900   1.008000   ; qtot 93.510881
 2803         c3     94    bbb     C5   2803 -0.11337700  12.010000   ; qtot 93.397504
 2804         hc     94    bbb     H9   2804 0.09515400   1.008000   ; qtot 93.492658
 2805         hc     94    bbb    H10   2805 0.09515400   1.008000   ; qtot 93.587812
 2806         c3     94    bbb     C6   2806 -0.11337700  12.010000   ; qtot 93.474435
 2807         hc     94    bbb    H11   2807 0.09515400   1.008000   ; qtot 93.569589
 2808         hc     94    bbb    H12   2808 0.09515400   1.008000   ; qtot 93.664743
 2809         c3     94    bbb     C7   2809 0.21842400  12.010000   ; qtot 93.883167
 2810         h1     94    bbb    H13   2810 0.04500300   1.008000   ; qtot 93.928170
 2811         h1     94    bbb    H14   2811 0.04500300   1.008000   ; qtot 93.973173
 2812         c3     94    bbb     C8   2812 -0.06455200  12.010000   ; qtot 93.908621
 2813         h1     94    bbb    H15   2813 0.13554100   1.008000   ; qtot 94.044162
 2814         h1     94    bbb    H16   2814 0.13554100   1.008000   ; qtot 94.179703
 2815         c3     94    bbb     C9   2815 -0.06455200  12.010000   ; qtot 94.115151
 2816         h1     94    bbb    H17   2816 0.13554100   1.008000   ; qtot 94.250692
 2817         h1     94    bbb    H18   2817 0.13554100   1.008000   ; qtot 94.386233
 2818         os     94    bbb     O1   2818 -0.62587700  16.000000   ; qtot 93.760356
 2819         hn     94    bbb    H19   2819 0.23982500   1.008000   ; qtot 94.000181
; residue   95 ccc rtp ccc q 0.0
 2820         c3     95    ccc     C1   2820 -0.33178800  12.010000   ; qtot 93.668393
 2821         c3     95    ccc     C2   2821 0.30606500  12.010000   ; qtot 93.974458
 2822         h1     95    ccc     H1   2822 0.11662300   1.008000   ; qtot 94.091081
 2823         h1     95    ccc     H2   2823 0.11526800   1.008000   ; qtot 94.206349
 2824         c3     95    ccc     C3   2824 0.15592700  12.010000   ; qtot 94.362276
 2825         c3     95    ccc     C4   2825 0.28383300  12.010000   ; qtot 94.646109
 2826         c3     95    ccc     C5   2826 0.32403300  12.010000   ; qtot 94.970142
 2827         h1     95    ccc     H3   2827 0.13386900   1.008000   ; qtot 95.104011
 2828         h1     95    ccc     H4   2828 0.10146700   1.008000   ; qtot 95.205478
 2829         h2     95    ccc     H5   2829 0.10960400   1.008000   ; qtot 95.315082
 2830         os     95    ccc     O1   2830 -0.28650000  16.000000   ; qtot 95.028582
 2831         oh     95    ccc     O2   2831 -0.86012500  16.000000   ; qtot 94.168457
 2832         oh     95    ccc     O3   2832 -0.83772800  16.000000   ; qtot 93.330729
 2833         oh     95    ccc     O4   2833 -0.77449700  16.000000   ; qtot 92.556232
 2834         c3     95    ccc     C6   2834 0.37576500  12.010000   ; qtot 92.931997
 2835         ho     95    ccc     H6   2835 0.53656000   1.008000   ; qtot 93.468557
 2836         ho     95    ccc     H7   2836 0.49492100   1.008000   ; qtot 93.963478
 2837         ho     95    ccc     H8   2837 0.51297200   1.008000   ; qtot 94.476450
 2838         h1     95    ccc     H9   2838 0.05653400   1.008000   ; qtot 94.532984
 2839         h1     95    ccc    H10   2839 0.05653400   1.008000   ; qtot 94.589518
 2840         oh     95    ccc     O5   2840 -0.84113600  16.000000   ; qtot 93.748382
 2841         ho     95    ccc    H11   2841 0.51201600   1.008000   ; qtot 94.260398
 2842         os     95    ccc     O6   2842 -0.26013600  16.000000   ; qtot 94.000262
; residue   96 ccc rtp ccc q 0.0
 2843         c3     96    ccc     C1   2843 -0.33178800  12.010000   ; qtot 93.668474
 2844         c3     96    ccc     C2   2844 0.30606500  12.010000   ; qtot 93.974539
 2845         h1     96    ccc     H1   2845 0.11662300   1.008000   ; qtot 94.091162
 2846         h1     96    ccc     H2   2846 0.11526800   1.008000   ; qtot 94.206430
 2847         c3     96    ccc     C3   2847 0.15592700  12.010000   ; qtot 94.362357
 2848         c3     96    ccc     C4   2848 0.28383300  12.010000   ; qtot 94.646190
 2849         c3     96    ccc     C5   2849 0.32403300  12.010000   ; qtot 94.970223
 2850         h1     96    ccc     H3   2850 0.13386900   1.008000   ; qtot 95.104092
 2851         h1     96    ccc     H4   2851 0.10146700   1.008000   ; qtot 95.205559
 2852         h2     96    ccc     H5   2852 0.10960400   1.008000   ; qtot 95.315163
 2853         os     96    ccc     O1   2853 -0.28650000  16.000000   ; qtot 95.028663
 2854         oh     96    ccc     O2   2854 -0.86012500  16.000000   ; qtot 94.168538
 2855         oh     96    ccc     O3   2855 -0.83772800  16.000000   ; qtot 93.330810
 2856         oh     96    ccc     O4   2856 -0.77449700  16.000000   ; qtot 92.556313
 2857         c3     96    ccc     C6   2857 0.37576500  12.010000   ; qtot 92.932078
 2858         ho     96    ccc     H6   2858 0.53656000   1.008000   ; qtot 93.468638
 2859         ho     96    ccc     H7   2859 0.49492100   1.008000   ; qtot 93.963559
 2860         ho     96    ccc     H8   2860 0.51297200   1.008000   ; qtot 94.476531
 2861         h1     96    ccc     H9   2861 0.05653400   1.008000   ; qtot 94.533065
 2862         h1     96    ccc    H10   2862 0.05653400   1.008000   ; qtot 94.589599
 2863         oh     96    ccc     O5   2863 -0.84113600  16.000000   ; qtot 93.748463
 2864         ho     96    ccc    H11   2864 0.51201600   1.008000   ; qtot 94.260479
 2865         os     96    ccc     O6   2865 -0.26013600  16.000000   ; qtot 94.000343
; residue   97 ccc rtp ccc q 0.0
 2866         c3     97    ccc     C1   2866 -0.33178800  12.010000   ; qtot 93.668555
 2867         c3     97    ccc     C2   2867 0.30606500  12.010000   ; qtot 93.974620
 2868         h1     97    ccc     H1   2868 0.11662300   1.008000   ; qtot 94.091243
 2869         h1     97    ccc     H2   2869 0.11526800   1.008000   ; qtot 94.206511
 2870         c3     97    ccc     C3   2870 0.15592700  12.010000   ; qtot 94.362438
 2871         c3     97    ccc     C4   2871 0.28383300  12.010000   ; qtot 94.646271
 2872         c3     97    ccc     C5   2872 0.32403300  12.010000   ; qtot 94.970304
 2873         h1     97    ccc     H3   2873 0.13386900   1.008000   ; qtot 95.104173
 2874         h1     97    ccc     H4   2874 0.10146700   1.008000   ; qtot 95.205640
 2875         h2     97    ccc     H5   2875 0.10960400   1.008000   ; qtot 95.315244
 2876         os     97    ccc     O1   2876 -0.28650000  16.000000   ; qtot 95.028744
 2877         oh     97    ccc     O2   2877 -0.86012500  16.000000   ; qtot 94.168619
 2878         oh     97    ccc     O3   2878 -0.83772800  16.000000   ; qtot 93.330891
 2879         oh     97    ccc     O4   2879 -0.77449700  16.000000   ; qtot 92.556394
 2880         c3     97    ccc     C6   2880 0.37576500  12.010000   ; qtot 92.932159
 2881         ho     97    ccc     H6   2881 0.53656000   1.008000   ; qtot 93.468719
 2882         ho     97    ccc     H7   2882 0.49492100   1.008000   ; qtot 93.963640
 2883         ho     97    ccc     H8   2883 0.51297200   1.008000   ; qtot 94.476612
 2884         h1     97    ccc     H9   2884 0.05653400   1.008000   ; qtot 94.533146
 2885         h1     97    ccc    H10   2885 0.05653400   1.008000   ; qtot 94.589680
 2886         oh     97    ccc     O5   2886 -0.84113600  16.000000   ; qtot 93.748544
 2887         ho     97    ccc    H11   2887 0.51201600   1.008000   ; qtot 94.260560
 2888         os     97    ccc     O6   2888 -0.26013600  16.000000   ; qtot 94.000424
; residue   98 ccc rtp ccc q 0.0
 2889         c3     98    ccc     C1   2889 -0.33178800  12.010000   ; qtot 93.668636
 2890         c3     98    ccc     C2   2890 0.30606500  12.010000   ; qtot 93.974701
 2891         h1     98    ccc     H1   2891 0.11662300   1.008000   ; qtot 94.091324
 2892         h1     98    ccc     H2   2892 0.11526800   1.008000   ; qtot 94.206592
 2893         c3     98    ccc     C3   2893 0.15592700  12.010000   ; qtot 94.362519
 2894         c3     98    ccc     C4   2894 0.28383300  12.010000   ; qtot 94.646352
 2895         c3     98    ccc     C5   2895 0.32403300  12.010000   ; qtot 94.970385
 2896         h1     98    ccc     H3   2896 0.13386900   1.008000   ; qtot 95.104254
 2897         h1     98    ccc     H4   2897 0.10146700   1.008000   ; qtot 95.205721
 2898         h2     98    ccc     H5   2898 0.10960400   1.008000   ; qtot 95.315325
 2899         os     98    ccc     O1   2899 -0.28650000  16.000000   ; qtot 95.028825
 2900         oh     98    ccc     O2   2900 -0.86012500  16.000000   ; qtot 94.168700
 2901         oh     98    ccc     O3   2901 -0.83772800  16.000000   ; qtot 93.330972
 2902         oh     98    ccc     O4   2902 -0.77449700  16.000000   ; qtot 92.556475
 2903         c3     98    ccc     C6   2903 0.37576500  12.010000   ; qtot 92.932240
 2904         ho     98    ccc     H6   2904 0.53656000   1.008000   ; qtot 93.468800
 2905         ho     98    ccc     H7   2905 0.49492100   1.008000   ; qtot 93.963721
 2906         ho     98    ccc     H8   2906 0.51297200   1.008000   ; qtot 94.476693
 2907         h1     98    ccc     H9   2907 0.05653400   1.008000   ; qtot 94.533227
 2908         h1     98    ccc    H10   2908 0.05653400   1.008000   ; qtot 94.589761
 2909         oh     98    ccc     O5   2909 -0.84113600  16.000000   ; qtot 93.748625
 2910         ho     98    ccc    H11   2910 0.51201600   1.008000   ; qtot 94.260641
 2911         os     98    ccc     O6   2911 -0.26013600  16.000000   ; qtot 94.000505
; residue   99 ccc rtp ccc q 0.0
 2912         c3     99    ccc     C1   2912 -0.33178800  12.010000   ; qtot 93.668717
 2913         c3     99    ccc     C2   2913 0.30606500  12.010000   ; qtot 93.974782
 2914         h1     99    ccc     H1   2914 0.11662300   1.008000   ; qtot 94.091405
 2915         h1     99    ccc     H2   2915 0.11526800   1.008000   ; qtot 94.206673
 2916         c3     99    ccc     C3   2916 0.15592700  12.010000   ; qtot 94.362600
 2917         c3     99    ccc     C4   2917 0.28383300  12.010000   ; qtot 94.646433
 2918         c3     99    ccc     C5   2918 0.32403300  12.010000   ; qtot 94.970466
 2919         h1     99    ccc     H3   2919 0.13386900   1.008000   ; qtot 95.104335
 2920         h1     99    ccc     H4   2920 0.10146700   1.008000   ; qtot 95.205802
 2921         h2     99    ccc     H5   2921 0.10960400   1.008000   ; qtot 95.315406
 2922         os     99    ccc     O1   2922 -0.28650000  16.000000   ; qtot 95.028906
 2923         oh     99    ccc     O2   2923 -0.86012500  16.000000   ; qtot 94.168781
 2924         oh     99    ccc     O3   2924 -0.83772800  16.000000   ; qtot 93.331053
 2925         oh     99    ccc     O4   2925 -0.77449700  16.000000   ; qtot 92.556556
 2926         c3     99    ccc     C6   2926 0.37576500  12.010000   ; qtot 92.932321
 2927         ho     99    ccc     H6   2927 0.53656000   1.008000   ; qtot 93.468881
 2928         ho     99    ccc     H7   2928 0.49492100   1.008000   ; qtot 93.963802
 2929         ho     99    ccc     H8   2929 0.51297200   1.008000   ; qtot 94.476774
 2930         h1     99    ccc     H9   2930 0.05653400   1.008000   ; qtot 94.533308
 2931         h1     99    ccc    H10   2931 0.05653400   1.008000   ; qtot 94.589842
 2932         oh     99    ccc     O5   2932 -0.84113600  16.000000   ; qtot 93.748706
 2933         ho     99    ccc    H11   2933 0.51201600   1.008000   ; qtot 94.260722
 2934         os     99    ccc     O6   2934 -0.26013600  16.000000   ; qtot 94.000586
; residue  100 ccc rtp ccc q 0.0
 2935         c3    100    ccc     C1   2935 -0.33178800  12.010000   ; qtot 93.668798
 2936         c3    100    ccc     C2   2936 0.30606500  12.010000   ; qtot 93.974863
 2937         h1    100    ccc     H1   2937 0.11662300   1.008000   ; qtot 94.091486
 2938         h1    100    ccc     H2   2938 0.11526800   1.008000   ; qtot 94.206754
 2939         c3    100    ccc     C3   2939 0.15592700  12.010000   ; qtot 94.362681
 2940         c3    100    ccc     C4   2940 0.28383300  12.010000   ; qtot 94.646514
 2941         c3    100    ccc     C5   2941 0.32403300  12.010000   ; qtot 94.970547
 2942         h1    100    ccc     H3   2942 0.13386900   1.008000   ; qtot 95.104416
 2943         h1    100    ccc     H4   2943 0.10146700   1.008000   ; qtot 95.205883
 2944         h2    100    ccc     H5   2944 0.10960400   1.008000   ; qtot 95.315487
 2945         os    100    ccc     O1   2945 -0.28650000  16.000000   ; qtot 95.028987
 2946         oh    100    ccc     O2   2946 -0.86012500  16.000000   ; qtot 94.168862
 2947         oh    100    ccc     O3   2947 -0.83772800  16.000000   ; qtot 93.331134
 2948         oh    100    ccc     O4   2948 -0.77449700  16.000000   ; qtot 92.556637
 2949         c3    100    ccc     C6   2949 0.37576500  12.010000   ; qtot 92.932402
 2950         ho    100    ccc     H6   2950 0.53656000   1.008000   ; qtot 93.468962
 2951         ho    100    ccc     H7   2951 0.49492100   1.008000   ; qtot 93.963883
 2952         ho    100    ccc     H8   2952 0.51297200   1.008000   ; qtot 94.476855
 2953         h1    100    ccc     H9   2953 0.05653400   1.008000   ; qtot 94.533389
 2954         h1    100    ccc    H10   2954 0.05653400   1.008000   ; qtot 94.589923
 2955         oh    100    ccc     O5   2955 -0.84113600  16.000000   ; qtot 93.748787
 2956         ho    100    ccc    H11   2956 0.51201600   1.008000   ; qtot 94.260803
 2957         os    100    ccc     O6   2957 -0.26013600  16.000000   ; qtot 94.000667
; residue  101 ccc rtp ccc q 0.0
 2958         c3    101    ccc     C1   2958 -0.33178800  12.010000   ; qtot 93.668879
 2959         c3    101    ccc     C2   2959 0.30606500  12.010000   ; qtot 93.974944
 2960         h1    101    ccc     H1   2960 0.11662300   1.008000   ; qtot 94.091567
 2961         h1    101    ccc     H2   2961 0.11526800   1.008000   ; qtot 94.206835
 2962         c3    101    ccc     C3   2962 0.15592700  12.010000   ; qtot 94.362762
 2963         c3    101    ccc     C4   2963 0.28383300  12.010000   ; qtot 94.646595
 2964         c3    101    ccc     C5   2964 0.32403300  12.010000   ; qtot 94.970628
 2965         h1    101    ccc     H3   2965 0.13386900   1.008000   ; qtot 95.104497
 2966         h1    101    ccc     H4   2966 0.10146700   1.008000   ; qtot 95.205964
 2967         h2    101    ccc     H5   2967 0.10960400   1.008000   ; qtot 95.315568
 2968         os    101    ccc     O1   2968 -0.28650000  16.000000   ; qtot 95.029068
 2969         oh    101    ccc     O2   2969 -0.86012500  16.000000   ; qtot 94.168943
 2970         oh    101    ccc     O3   2970 -0.83772800  16.000000   ; qtot 93.331215
 2971         oh    101    ccc     O4   2971 -0.77449700  16.000000   ; qtot 92.556718
 2972         c3    101    ccc     C6   2972 0.37576500  12.010000   ; qtot 92.932483
 2973         ho    101    ccc     H6   2973 0.53656000   1.008000   ; qtot 93.469043
 2974         ho    101    ccc     H7   2974 0.49492100   1.008000   ; qtot 93.963964
 2975         ho    101    ccc     H8   2975 0.51297200   1.008000   ; qtot 94.476936
 2976         h1    101    ccc     H9   2976 0.05653400   1.008000   ; qtot 94.533470
 2977         h1    101    ccc    H10   2977 0.05653400   1.008000   ; qtot 94.590004
 2978         oh    101    ccc     O5   2978 -0.84113600  16.000000   ; qtot 93.748868
 2979         ho    101    ccc    H11   2979 0.51201600   1.008000   ; qtot 94.260884
 2980         os    101    ccc     O6   2980 -0.26013600  16.000000   ; qtot 94.000748
; residue  102 ccc rtp ccc q 0.0
 2981         c3    102    ccc     C1   2981 -0.33178800  12.010000   ; qtot 93.668960
 2982         c3    102    ccc     C2   2982 0.30606500  12.010000   ; qtot 93.975025
 2983         h1    102    ccc     H1   2983 0.11662300   1.008000   ; qtot 94.091648
 2984         h1    102    ccc     H2   2984 0.11526800   1.008000   ; qtot 94.206916
 2985         c3    102    ccc     C3   2985 0.15592700  12.010000   ; qtot 94.362843
 2986         c3    102    ccc     C4   2986 0.28383300  12.010000   ; qtot 94.646676
 2987         c3    102    ccc     C5   2987 0.32403300  12.010000   ; qtot 94.970709
 2988         h1    102    ccc     H3   2988 0.13386900   1.008000   ; qtot 95.104578
 2989         h1    102    ccc     H4   2989 0.10146700   1.008000   ; qtot 95.206045
 2990         h2    102    ccc     H5   2990 0.10960400   1.008000   ; qtot 95.315649
 2991         os    102    ccc     O1   2991 -0.28650000  16.000000   ; qtot 95.029149
 2992         oh    102    ccc     O2   2992 -0.86012500  16.000000   ; qtot 94.169024
 2993         oh    102    ccc     O3   2993 -0.83772800  16.000000   ; qtot 93.331296
 2994         oh    102    ccc     O4   2994 -0.77449700  16.000000   ; qtot 92.556799
 2995         c3    102    ccc     C6   2995 0.37576500  12.010000   ; qtot 92.932564
 2996         ho    102    ccc     H6   2996 0.53656000   1.008000   ; qtot 93.469124
 2997         ho    102    ccc     H7   2997 0.49492100   1.008000   ; qtot 93.964045
 2998         ho    102    ccc     H8   2998 0.51297200   1.008000   ; qtot 94.477017
 2999         h1    102    ccc     H9   2999 0.05653400   1.008000   ; qtot 94.533551
 3000         h1    102    ccc    H10   3000 0.05653400   1.008000   ; qtot 94.590085
 3001         oh    102    ccc     O5   3001 -0.84113600  16.000000   ; qtot 93.748949
 3002         ho    102    ccc    H11   3002 0.51201600   1.008000   ; qtot 94.260965
 3003         os    102    ccc     O6   3003 -0.26013600  16.000000   ; qtot 94.000829
; residue  103 ccc rtp ccc q 0.0
 3004         c3    103    ccc     C1   3004 -0.33178800  12.010000   ; qtot 93.669041
 3005         c3    103    ccc     C2   3005 0.30606500  12.010000   ; qtot 93.975106
 3006         h1    103    ccc     H1   3006 0.11662300   1.008000   ; qtot 94.091729
 3007         h1    103    ccc     H2   3007 0.11526800   1.008000   ; qtot 94.206997
 3008         c3    103    ccc     C3   3008 0.15592700  12.010000   ; qtot 94.362924
 3009         c3    103    ccc     C4   3009 0.28383300  12.010000   ; qtot 94.646757
 3010         c3    103    ccc     C5   3010 0.32403300  12.010000   ; qtot 94.970790
 3011         h1    103    ccc     H3   3011 0.13386900   1.008000   ; qtot 95.104659
 3012         h1    103    ccc     H4   3012 0.10146700   1.008000   ; qtot 95.206126
 3013         h2    103    ccc     H5   3013 0.10960400   1.008000   ; qtot 95.315730
 3014         os    103    ccc     O1   3014 -0.28650000  16.000000   ; qtot 95.029230
 3015         oh    103    ccc     O2   3015 -0.86012500  16.000000   ; qtot 94.169105
 3016         oh    103    ccc     O3   3016 -0.83772800  16.000000   ; qtot 93.331377
 3017         oh    103    ccc     O4   3017 -0.77449700  16.000000   ; qtot 92.556880
 3018         c3    103    ccc     C6   3018 0.37576500  12.010000   ; qtot 92.932645
 3019         ho    103    ccc     H6   3019 0.53656000   1.008000   ; qtot 93.469205
 3020         ho    103    ccc     H7   3020 0.49492100   1.008000   ; qtot 93.964126
 3021         ho    103    ccc     H8   3021 0.51297200   1.008000   ; qtot 94.477098
 3022         h1    103    ccc     H9   3022 0.05653400   1.008000   ; qtot 94.533632
 3023         h1    103    ccc    H10   3023 0.05653400   1.008000   ; qtot 94.590166
 3024         oh    103    ccc     O5   3024 -0.84113600  16.000000   ; qtot 93.749030
 3025         ho    103    ccc    H11   3025 0.51201600   1.008000   ; qtot 94.261046
 3026         os    103    ccc     O6   3026 -0.26013600  16.000000   ; qtot 94.000910
; residue  104 ccc rtp ccc q 0.0
 3027         c3    104    ccc     C1   3027 -0.33178800  12.010000   ; qtot 93.669122
 3028         c3    104    ccc     C2   3028 0.30606500  12.010000   ; qtot 93.975187
 3029         h1    104    ccc     H1   3029 0.11662300   1.008000   ; qtot 94.091810
 3030         h1    104    ccc     H2   3030 0.11526800   1.008000   ; qtot 94.207078
 3031         c3    104    ccc     C3   3031 0.15592700  12.010000   ; qtot 94.363005
 3032         c3    104    ccc     C4   3032 0.28383300  12.010000   ; qtot 94.646838
 3033         c3    104    ccc     C5   3033 0.32403300  12.010000   ; qtot 94.970871
 3034         h1    104    ccc     H3   3034 0.13386900   1.008000   ; qtot 95.104740
 3035         h1    104    ccc     H4   3035 0.10146700   1.008000   ; qtot 95.206207
 3036         h2    104    ccc     H5   3036 0.10960400   1.008000   ; qtot 95.315811
 3037         os    104    ccc     O1   3037 -0.28650000  16.000000   ; qtot 95.029311
 3038         oh    104    ccc     O2   3038 -0.86012500  16.000000   ; qtot 94.169186
 3039         oh    104    ccc     O3   3039 -0.83772800  16.000000   ; qtot 93.331458
 3040         oh    104    ccc     O4   3040 -0.77449700  16.000000   ; qtot 92.556961
 3041         c3    104    ccc     C6   3041 0.37576500  12.010000   ; qtot 92.932726
 3042         ho    104    ccc     H6   3042 0.53656000   1.008000   ; qtot 93.469286
 3043         ho    104    ccc     H7   3043 0.49492100   1.008000   ; qtot 93.964207
 3044         ho    104    ccc     H8   3044 0.51297200   1.008000   ; qtot 94.477179
 3045         h1    104    ccc     H9   3045 0.05653400   1.008000   ; qtot 94.533713
 3046         h1    104    ccc    H10   3046 0.05653400   1.008000   ; qtot 94.590247
 3047         oh    104    ccc     O5   3047 -0.84113600  16.000000   ; qtot 93.749111
 3048         ho    104    ccc    H11   3048 0.51201600   1.008000   ; qtot 94.261127
 3049         os    104    ccc     O6   3049 -0.26013600  16.000000   ; qtot 94.000991
; residue  105 ccc rtp ccc q 0.0
 3050         c3    105    ccc     C1   3050 -0.33178800  12.010000   ; qtot 93.669203
 3051         c3    105    ccc     C2   3051 0.30606500  12.010000   ; qtot 93.975268
 3052         h1    105    ccc     H1   3052 0.11662300   1.008000   ; qtot 94.091891
 3053         h1    105    ccc     H2   3053 0.11526800   1.008000   ; qtot 94.207159
 3054         c3    105    ccc     C3   3054 0.15592700  12.010000   ; qtot 94.363086
 3055         c3    105    ccc     C4   3055 0.28383300  12.010000   ; qtot 94.646919
 3056         c3    105    ccc     C5   3056 0.32403300  12.010000   ; qtot 94.970952
 3057         h1    105    ccc     H3   3057 0.13386900   1.008000   ; qtot 95.104821
 3058         h1    105    ccc     H4   3058 0.10146700   1.008000   ; qtot 95.206288
 3059         h2    105    ccc     H5   3059 0.10960400   1.008000   ; qtot 95.315892
 3060         os    105    ccc     O1   3060 -0.28650000  16.000000   ; qtot 95.029392
 3061         oh    105    ccc     O2   3061 -0.86012500  16.000000   ; qtot 94.169267
 3062         oh    105    ccc     O3   3062 -0.83772800  16.000000   ; qtot 93.331539
 3063         oh    105    ccc     O4   3063 -0.77449700  16.000000   ; qtot 92.557042
 3064         c3    105    ccc     C6   3064 0.37576500  12.010000   ; qtot 92.932807
 3065         ho    105    ccc     H6   3065 0.53656000   1.008000   ; qtot 93.469367
 3066         ho    105    ccc     H7   3066 0.49492100   1.008000   ; qtot 93.964288
 3067         ho    105    ccc     H8   3067 0.51297200   1.008000   ; qtot 94.477260
 3068         h1    105    ccc     H9   3068 0.05653400   1.008000   ; qtot 94.533794
 3069         h1    105    ccc    H10   3069 0.05653400   1.008000   ; qtot 94.590328
 3070         oh    105    ccc     O5   3070 -0.84113600  16.000000   ; qtot 93.749192
 3071         ho    105    ccc    H11   3071 0.51201600   1.008000   ; qtot 94.261208
 3072         os    105    ccc     O6   3072 -0.26013600  16.000000   ; qtot 94.001072
; residue  106 ccc rtp ccc q 0.0
 3073         c3    106    ccc     C1   3073 -0.33178800  12.010000   ; qtot 93.669284
 3074         c3    106    ccc     C2   3074 0.30606500  12.010000   ; qtot 93.975349
 3075         h1    106    ccc     H1   3075 0.11662300   1.008000   ; qtot 94.091972
 3076         h1    106    ccc     H2   3076 0.11526800   1.008000   ; qtot 94.207240
 3077         c3    106    ccc     C3   3077 0.15592700  12.010000   ; qtot 94.363167
 3078         c3    106    ccc     C4   3078 0.28383300  12.010000   ; qtot 94.647000
 3079         c3    106    ccc     C5   3079 0.32403300  12.010000   ; qtot 94.971033
 3080         h1    106    ccc     H3   3080 0.13386900   1.008000   ; qtot 95.104902
 3081         h1    106    ccc     H4   3081 0.10146700   1.008000   ; qtot 95.206369
 3082         h2    106    ccc     H5   3082 0.10960400   1.008000   ; qtot 95.315973
 3083         os    106    ccc     O1   3083 -0.28650000  16.000000   ; qtot 95.029473
 3084         oh    106    ccc     O2   3084 -0.86012500  16.000000   ; qtot 94.169348
 3085         oh    106    ccc     O3   3085 -0.83772800  16.000000   ; qtot 93.331620
 3086         oh    106    ccc     O4   3086 -0.77449700  16.000000   ; qtot 92.557123
 3087         c3    106    ccc     C6   3087 0.37576500  12.010000   ; qtot 92.932888
 3088         ho    106    ccc     H6   3088 0.53656000   1.008000   ; qtot 93.469448
 3089         ho    106    ccc     H7   3089 0.49492100   1.008000   ; qtot 93.964369
 3090         ho    106    ccc     H8   3090 0.51297200   1.008000   ; qtot 94.477341
 3091         h1    106    ccc     H9   3091 0.05653400   1.008000   ; qtot 94.533875
 3092         h1    106    ccc    H10   3092 0.05653400   1.008000   ; qtot 94.590409
 3093         oh    106    ccc     O5   3093 -0.84113600  16.000000   ; qtot 93.749273
 3094         ho    106    ccc    H11   3094 0.51201600   1.008000   ; qtot 94.261289
 3095         os    106    ccc     O6   3095 -0.26013600  16.000000   ; qtot 94.001153
; residue  107 ccc rtp ccc q 0.0
 3096         c3    107    ccc     C1   3096 -0.33178800  12.010000   ; qtot 93.669365
 3097         c3    107    ccc     C2   3097 0.30606500  12.010000   ; qtot 93.975430
 3098         h1    107    ccc     H1   3098 0.11662300   1.008000   ; qtot 94.092053
 3099         h1    107    ccc     H2   3099 0.11526800   1.008000   ; qtot 94.207321
 3100         c3    107    ccc     C3   3100 0.15592700  12.010000   ; qtot 94.363248
 3101         c3    107    ccc     C4   3101 0.28383300  12.010000   ; qtot 94.647081
 3102         c3    107    ccc     C5   3102 0.32403300  12.010000   ; qtot 94.971114
 3103         h1    107    ccc     H3   3103 0.13386900   1.008000   ; qtot 95.104983
 3104         h1    107    ccc     H4   3104 0.10146700   1.008000   ; qtot 95.206450
 3105         h2    107    ccc     H5   3105 0.10960400   1.008000   ; qtot 95.316054
 3106         os    107    ccc     O1   3106 -0.28650000  16.000000   ; qtot 95.029554
 3107         oh    107    ccc     O2   3107 -0.86012500  16.000000   ; qtot 94.169429
 3108         oh    107    ccc     O3   3108 -0.83772800  16.000000   ; qtot 93.331701
 3109         oh    107    ccc     O4   3109 -0.77449700  16.000000   ; qtot 92.557204
 3110         c3    107    ccc     C6   3110 0.37576500  12.010000   ; qtot 92.932969
 3111         ho    107    ccc     H6   3111 0.53656000   1.008000   ; qtot 93.469529
 3112         ho    107    ccc     H7   3112 0.49492100   1.008000   ; qtot 93.964450
 3113         ho    107    ccc     H8   3113 0.51297200   1.008000   ; qtot 94.477422
 3114         h1    107    ccc     H9   3114 0.05653400   1.008000   ; qtot 94.533956
 3115         h1    107    ccc    H10   3115 0.05653400   1.008000   ; qtot 94.590490
 3116         oh    107    ccc     O5   3116 -0.84113600  16.000000   ; qtot 93.749354
 3117         ho    107    ccc    H11   3117 0.51201600   1.008000   ; qtot 94.261370
 3118         os    107    ccc     O6   3118 -0.26013600  16.000000   ; qtot 94.001234
; residue  108 ccc rtp ccc q 0.0
 3119         c3    108    ccc     C1   3119 -0.33178800  12.010000   ; qtot 93.669446
 3120         c3    108    ccc     C2   3120 0.30606500  12.010000   ; qtot 93.975511
 3121         h1    108    ccc     H1   3121 0.11662300   1.008000   ; qtot 94.092134
 3122         h1    108    ccc     H2   3122 0.11526800   1.008000   ; qtot 94.207402
 3123         c3    108    ccc     C3   3123 0.15592700  12.010000   ; qtot 94.363329
 3124         c3    108    ccc     C4   3124 0.28383300  12.010000   ; qtot 94.647162
 3125         c3    108    ccc     C5   3125 0.32403300  12.010000   ; qtot 94.971195
 3126         h1    108    ccc     H3   3126 0.13386900   1.008000   ; qtot 95.105064
 3127         h1    108    ccc     H4   3127 0.10146700   1.008000   ; qtot 95.206531
 3128         h2    108    ccc     H5   3128 0.10960400   1.008000   ; qtot 95.316135
 3129         os    108    ccc     O1   3129 -0.28650000  16.000000   ; qtot 95.029635
 3130         oh    108    ccc     O2   3130 -0.86012500  16.000000   ; qtot 94.169510
 3131         oh    108    ccc     O3   3131 -0.83772800  16.000000   ; qtot 93.331782
 3132         oh    108    ccc     O4   3132 -0.77449700  16.000000   ; qtot 92.557285
 3133         c3    108    ccc     C6   3133 0.37576500  12.010000   ; qtot 92.933050
 3134         ho    108    ccc     H6   3134 0.53656000   1.008000   ; qtot 93.469610
 3135         ho    108    ccc     H7   3135 0.49492100   1.008000   ; qtot 93.964531
 3136         ho    108    ccc     H8   3136 0.51297200   1.008000   ; qtot 94.477503
 3137         h1    108    ccc     H9   3137 0.05653400   1.008000   ; qtot 94.534037
 3138         h1    108    ccc    H10   3138 0.05653400   1.008000   ; qtot 94.590571
 3139         oh    108    ccc     O5   3139 -0.84113600  16.000000   ; qtot 93.749435
 3140         ho    108    ccc    H11   3140 0.51201600   1.008000   ; qtot 94.261451
 3141         os    108    ccc     O6   3141 -0.26013600  16.000000   ; qtot 94.001315
; residue  109 ccc rtp ccc q 0.0
 3142         c3    109    ccc     C1   3142 -0.33178800  12.010000   ; qtot 93.669527
 3143         c3    109    ccc     C2   3143 0.30606500  12.010000   ; qtot 93.975592
 3144         h1    109    ccc     H1   3144 0.11662300   1.008000   ; qtot 94.092215
 3145         h1    109    ccc     H2   3145 0.11526800   1.008000   ; qtot 94.207483
 3146         c3    109    ccc     C3   3146 0.15592700  12.010000   ; qtot 94.363410
 3147         c3    109    ccc     C4   3147 0.28383300  12.010000   ; qtot 94.647243
 3148         c3    109    ccc     C5   3148 0.32403300  12.010000   ; qtot 94.971276
 3149         h1    109    ccc     H3   3149 0.13386900   1.008000   ; qtot 95.105145
 3150         h1    109    ccc     H4   3150 0.10146700   1.008000   ; qtot 95.206612
 3151         h2    109    ccc     H5   3151 0.10960400   1.008000   ; qtot 95.316216
 3152         os    109    ccc     O1   3152 -0.28650000  16.000000   ; qtot 95.029716
 3153         oh    109    ccc     O2   3153 -0.86012500  16.000000   ; qtot 94.169591
 3154         oh    109    ccc     O3   3154 -0.83772800  16.000000   ; qtot 93.331863
 3155         oh    109    ccc     O4   3155 -0.77449700  16.000000   ; qtot 92.557366
 3156         c3    109    ccc     C6   3156 0.37576500  12.010000   ; qtot 92.933131
 3157         ho    109    ccc     H6   3157 0.53656000   1.008000   ; qtot 93.469691
 3158         ho    109    ccc     H7   3158 0.49492100   1.008000   ; qtot 93.964612
 3159         ho    109    ccc     H8   3159 0.51297200   1.008000   ; qtot 94.477584
 3160         h1    109    ccc     H9   3160 0.05653400   1.008000   ; qtot 94.534118
 3161         h1    109    ccc    H10   3161 0.05653400   1.008000   ; qtot 94.590652
 3162         oh    109    ccc     O5   3162 -0.84113600  16.000000   ; qtot 93.749516
 3163         ho    109    ccc    H11   3163 0.51201600   1.008000   ; qtot 94.261532
 3164         os    109    ccc     O6   3164 -0.26013600  16.000000   ; qtot 94.001396
; residue  110 ccc rtp ccc q 0.0
 3165         c3    110    ccc     C1   3165 -0.33178800  12.010000   ; qtot 93.669608
 3166         c3    110    ccc     C2   3166 0.30606500  12.010000   ; qtot 93.975673
 3167         h1    110    ccc     H1   3167 0.11662300   1.008000   ; qtot 94.092296
 3168         h1    110    ccc     H2   3168 0.11526800   1.008000   ; qtot 94.207564
 3169         c3    110    ccc     C3   3169 0.15592700  12.010000   ; qtot 94.363491
 3170         c3    110    ccc     C4   3170 0.28383300  12.010000   ; qtot 94.647324
 3171         c3    110    ccc     C5   3171 0.32403300  12.010000   ; qtot 94.971357
 3172         h1    110    ccc     H3   3172 0.13386900   1.008000   ; qtot 95.105226
 3173         h1    110    ccc     H4   3173 0.10146700   1.008000   ; qtot 95.206693
 3174         h2    110    ccc     H5   3174 0.10960400   1.008000   ; qtot 95.316297
 3175         os    110    ccc     O1   3175 -0.28650000  16.000000   ; qtot 95.029797
 3176         oh    110    ccc     O2   3176 -0.86012500  16.000000   ; qtot 94.169672
 3177         oh    110    ccc     O3   3177 -0.83772800  16.000000   ; qtot 93.331944
 3178         oh    110    ccc     O4   3178 -0.77449700  16.000000   ; qtot 92.557447
 3179         c3    110    ccc     C6   3179 0.37576500  12.010000   ; qtot 92.933212
 3180         ho    110    ccc     H6   3180 0.53656000   1.008000   ; qtot 93.469772
 3181         ho    110    ccc     H7   3181 0.49492100   1.008000   ; qtot 93.964693
 3182         ho    110    ccc     H8   3182 0.51297200   1.008000   ; qtot 94.477665
 3183         h1    110    ccc     H9   3183 0.05653400   1.008000   ; qtot 94.534199
 3184         h1    110    ccc    H10   3184 0.05653400   1.008000   ; qtot 94.590733
 3185         oh    110    ccc     O5   3185 -0.84113600  16.000000   ; qtot 93.749597
 3186         ho    110    ccc    H11   3186 0.51201600   1.008000   ; qtot 94.261613
 3187         os    110    ccc     O6   3187 -0.26013600  16.000000   ; qtot 94.001477
; residue  111 ccc rtp ccc q 0.0
 3188         c3    111    ccc     C1   3188 -0.33178800  12.010000   ; qtot 93.669689
 3189         c3    111    ccc     C2   3189 0.30606500  12.010000   ; qtot 93.975754
 3190         h1    111    ccc     H1   3190 0.11662300   1.008000   ; qtot 94.092377
 3191         h1    111    ccc     H2   3191 0.11526800   1.008000   ; qtot 94.207645
 3192         c3    111    ccc     C3   3192 0.15592700  12.010000   ; qtot 94.363572
 3193         c3    111    ccc     C4   3193 0.28383300  12.010000   ; qtot 94.647405
 3194         c3    111    ccc     C5   3194 0.32403300  12.010000   ; qtot 94.971438
 3195         h1    111    ccc     H3   3195 0.13386900   1.008000   ; qtot 95.105307
 3196         h1    111    ccc     H4   3196 0.10146700   1.008000   ; qtot 95.206774
 3197         h2    111    ccc     H5   3197 0.10960400   1.008000   ; qtot 95.316378
 3198         os    111    ccc     O1   3198 -0.28650000  16.000000   ; qtot 95.029878
 3199         oh    111    ccc     O2   3199 -0.86012500  16.000000   ; qtot 94.169753
 3200         oh    111    ccc     O3   3200 -0.83772800  16.000000   ; qtot 93.332025
 3201         oh    111    ccc     O4   3201 -0.77449700  16.000000   ; qtot 92.557528
 3202         c3    111    ccc     C6   3202 0.37576500  12.010000   ; qtot 92.933293
 3203         ho    111    ccc     H6   3203 0.53656000   1.008000   ; qtot 93.469853
 3204         ho    111    ccc     H7   3204 0.49492100   1.008000   ; qtot 93.964774
 3205         ho    111    ccc     H8   3205 0.51297200   1.008000   ; qtot 94.477746
 3206         h1    111    ccc     H9   3206 0.05653400   1.008000   ; qtot 94.534280
 3207         h1    111    ccc    H10   3207 0.05653400   1.008000   ; qtot 94.590814
 3208         oh    111    ccc     O5   3208 -0.84113600  16.000000   ; qtot 93.749678
 3209         ho    111    ccc    H11   3209 0.51201600   1.008000   ; qtot 94.261694
 3210         os    111    ccc     O6   3210 -0.26013600  16.000000   ; qtot 94.001558
; residue  112 ccc rtp ccc q 0.0
 3211         c3    112    ccc     C1   3211 -0.33178800  12.010000   ; qtot 93.669770
 3212         c3    112    ccc     C2   3212 0.30606500  12.010000   ; qtot 93.975835
 3213         h1    112    ccc     H1   3213 0.11662300   1.008000   ; qtot 94.092458
 3214         h1    112    ccc     H2   3214 0.11526800   1.008000   ; qtot 94.207726
 3215         c3    112    ccc     C3   3215 0.15592700  12.010000   ; qtot 94.363653
 3216         c3    112    ccc     C4   3216 0.28383300  12.010000   ; qtot 94.647486
 3217         c3    112    ccc     C5   3217 0.32403300  12.010000   ; qtot 94.971519
 3218         h1    112    ccc     H3   3218 0.13386900   1.008000   ; qtot 95.105388
 3219         h1    112    ccc     H4   3219 0.10146700   1.008000   ; qtot 95.206855
 3220         h2    112    ccc     H5   3220 0.10960400   1.008000   ; qtot 95.316459
 3221         os    112    ccc     O1   3221 -0.28650000  16.000000   ; qtot 95.029959
 3222         oh    112    ccc     O2   3222 -0.86012500  16.000000   ; qtot 94.169834
 3223         oh    112    ccc     O3   3223 -0.83772800  16.000000   ; qtot 93.332106
 3224         oh    112    ccc     O4   3224 -0.77449700  16.000000   ; qtot 92.557609
 3225         c3    112    ccc     C6   3225 0.37576500  12.010000   ; qtot 92.933374
 3226         ho    112    ccc     H6   3226 0.53656000   1.008000   ; qtot 93.469934
 3227         ho    112    ccc     H7   3227 0.49492100   1.008000   ; qtot 93.964855
 3228         ho    112    ccc     H8   3228 0.51297200   1.008000   ; qtot 94.477827
 3229         h1    112    ccc     H9   3229 0.05653400   1.008000   ; qtot 94.534361
 3230         h1    112    ccc    H10   3230 0.05653400   1.008000   ; qtot 94.590895
 3231         oh    112    ccc     O5   3231 -0.84113600  16.000000   ; qtot 93.749759
 3232         ho    112    ccc    H11   3232 0.51201600   1.008000   ; qtot 94.261775
 3233         os    112    ccc     O6   3233 -0.26013600  16.000000   ; qtot 94.001639
; residue  113 ccc rtp ccc q 0.0
 3234         c3    113    ccc     C1   3234 -0.33178800  12.010000   ; qtot 93.669851
 3235         c3    113    ccc     C2   3235 0.30606500  12.010000   ; qtot 93.975916
 3236         h1    113    ccc     H1   3236 0.11662300   1.008000   ; qtot 94.092539
 3237         h1    113    ccc     H2   3237 0.11526800   1.008000   ; qtot 94.207807
 3238         c3    113    ccc     C3   3238 0.15592700  12.010000   ; qtot 94.363734
 3239         c3    113    ccc     C4   3239 0.28383300  12.010000   ; qtot 94.647567
 3240         c3    113    ccc     C5   3240 0.32403300  12.010000   ; qtot 94.971600
 3241         h1    113    ccc     H3   3241 0.13386900   1.008000   ; qtot 95.105469
 3242         h1    113    ccc     H4   3242 0.10146700   1.008000   ; qtot 95.206936
 3243         h2    113    ccc     H5   3243 0.10960400   1.008000   ; qtot 95.316540
 3244         os    113    ccc     O1   3244 -0.28650000  16.000000   ; qtot 95.030040
 3245         oh    113    ccc     O2   3245 -0.86012500  16.000000   ; qtot 94.169915
 3246         oh    113    ccc     O3   3246 -0.83772800  16.000000   ; qtot 93.332187
 3247         oh    113    ccc     O4   3247 -0.77449700  16.000000   ; qtot 92.557690
 3248         c3    113    ccc     C6   3248 0.37576500  12.010000   ; qtot 92.933455
 3249         ho    113    ccc     H6   3249 0.53656000   1.008000   ; qtot 93.470015
 3250         ho    113    ccc     H7   3250 0.49492100   1.008000   ; qtot 93.964936
 3251         ho    113    ccc     H8   3251 0.51297200   1.008000   ; qtot 94.477908
 3252         h1    113    ccc     H9   3252 0.05653400   1.008000   ; qtot 94.534442
 3253         h1    113    ccc    H10   3253 0.05653400   1.008000   ; qtot 94.590976
 3254         oh    113    ccc     O5   3254 -0.84113600  16.000000   ; qtot 93.749840
 3255         ho    113    ccc    H11   3255 0.51201600   1.008000   ; qtot 94.261856
 3256         os    113    ccc     O6   3256 -0.26013600  16.000000   ; qtot 94.001720
; residue  114 ccc rtp ccc q 0.0
 3257         c3    114    ccc     C1   3257 -0.33178800  12.010000   ; qtot 93.669932
 3258         c3    114    ccc     C2   3258 0.30606500  12.010000   ; qtot 93.975997
 3259         h1    114    ccc     H1   3259 0.11662300   1.008000   ; qtot 94.092620
 3260         h1    114    ccc     H2   3260 0.11526800   1.008000   ; qtot 94.207888
 3261         c3    114    ccc     C3   3261 0.15592700  12.010000   ; qtot 94.363815
 3262         c3    114    ccc     C4   3262 0.28383300  12.010000   ; qtot 94.647648
 3263         c3    114    ccc     C5   3263 0.32403300  12.010000   ; qtot 94.971681
 3264         h1    114    ccc     H3   3264 0.13386900   1.008000   ; qtot 95.105550
 3265         h1    114    ccc     H4   3265 0.10146700   1.008000   ; qtot 95.207017
 3266         h2    114    ccc     H5   3266 0.10960400   1.008000   ; qtot 95.316621
 3267         os    114    ccc     O1   3267 -0.28650000  16.000000   ; qtot 95.030121
 3268         oh    114    ccc     O2   3268 -0.86012500  16.000000   ; qtot 94.169996
 3269         oh    114    ccc     O3   3269 -0.83772800  16.000000   ; qtot 93.332268
 3270         oh    114    ccc     O4   3270 -0.77449700  16.000000   ; qtot 92.557771
 3271         c3    114    ccc     C6   3271 0.37576500  12.010000   ; qtot 92.933536
 3272         ho    114    ccc     H6   3272 0.53656000   1.008000   ; qtot 93.470096
 3273         ho    114    ccc     H7   3273 0.49492100   1.008000   ; qtot 93.965017
 3274         ho    114    ccc     H8   3274 0.51297200   1.008000   ; qtot 94.477989
 3275         h1    114    ccc     H9   3275 0.05653400   1.008000   ; qtot 94.534523
 3276         h1    114    ccc    H10   3276 0.05653400   1.008000   ; qtot 94.591057
 3277         oh    114    ccc     O5   3277 -0.84113600  16.000000   ; qtot 93.749921
 3278         ho    114    ccc    H11   3278 0.51201600   1.008000   ; qtot 94.261937
 3279         os    114    ccc     O6   3279 -0.26013600  16.000000   ; qtot 94.001801
; residue  115 ccc rtp ccc q 0.0
 3280         c3    115    ccc     C1   3280 -0.33178800  12.010000   ; qtot 93.670013
 3281         c3    115    ccc     C2   3281 0.30606500  12.010000   ; qtot 93.976078
 3282         h1    115    ccc     H1   3282 0.11662300   1.008000   ; qtot 94.092701
 3283         h1    115    ccc     H2   3283 0.11526800   1.008000   ; qtot 94.207969
 3284         c3    115    ccc     C3   3284 0.15592700  12.010000   ; qtot 94.363896
 3285         c3    115    ccc     C4   3285 0.28383300  12.010000   ; qtot 94.647729
 3286         c3    115    ccc     C5   3286 0.32403300  12.010000   ; qtot 94.971762
 3287         h1    115    ccc     H3   3287 0.13386900   1.008000   ; qtot 95.105631
 3288         h1    115    ccc     H4   3288 0.10146700   1.008000   ; qtot 95.207098
 3289         h2    115    ccc     H5   3289 0.10960400   1.008000   ; qtot 95.316702
 3290         os    115    ccc     O1   3290 -0.28650000  16.000000   ; qtot 95.030202
 3291         oh    115    ccc     O2   3291 -0.86012500  16.000000   ; qtot 94.170077
 3292         oh    115    ccc     O3   3292 -0.83772800  16.000000   ; qtot 93.332349
 3293         oh    115    ccc     O4   3293 -0.77449700  16.000000   ; qtot 92.557852
 3294         c3    115    ccc     C6   3294 0.37576500  12.010000   ; qtot 92.933617
 3295         ho    115    ccc     H6   3295 0.53656000   1.008000   ; qtot 93.470177
 3296         ho    115    ccc     H7   3296 0.49492100   1.008000   ; qtot 93.965098
 3297         ho    115    ccc     H8   3297 0.51297200   1.008000   ; qtot 94.478070
 3298         h1    115    ccc     H9   3298 0.05653400   1.008000   ; qtot 94.534604
 3299         h1    115    ccc    H10   3299 0.05653400   1.008000   ; qtot 94.591138
 3300         oh    115    ccc     O5   3300 -0.84113600  16.000000   ; qtot 93.750002
 3301         ho    115    ccc    H11   3301 0.51201600   1.008000   ; qtot 94.262018
 3302         os    115    ccc     O6   3302 -0.26013600  16.000000   ; qtot 94.001882
; residue  116 ccc rtp ccc q 0.0
 3303         c3    116    ccc     C1   3303 -0.33178800  12.010000   ; qtot 93.670094
 3304         c3    116    ccc     C2   3304 0.30606500  12.010000   ; qtot 93.976159
 3305         h1    116    ccc     H1   3305 0.11662300   1.008000   ; qtot 94.092782
 3306         h1    116    ccc     H2   3306 0.11526800   1.008000   ; qtot 94.208050
 3307         c3    116    ccc     C3   3307 0.15592700  12.010000   ; qtot 94.363977
 3308         c3    116    ccc     C4   3308 0.28383300  12.010000   ; qtot 94.647810
 3309         c3    116    ccc     C5   3309 0.32403300  12.010000   ; qtot 94.971843
 3310         h1    116    ccc     H3   3310 0.13386900   1.008000   ; qtot 95.105712
 3311         h1    116    ccc     H4   3311 0.10146700   1.008000   ; qtot 95.207179
 3312         h2    116    ccc     H5   3312 0.10960400   1.008000   ; qtot 95.316783
 3313         os    116    ccc     O1   3313 -0.28650000  16.000000   ; qtot 95.030283
 3314         oh    116    ccc     O2   3314 -0.86012500  16.000000   ; qtot 94.170158
 3315         oh    116    ccc     O3   3315 -0.83772800  16.000000   ; qtot 93.332430
 3316         oh    116    ccc     O4   3316 -0.77449700  16.000000   ; qtot 92.557933
 3317         c3    116    ccc     C6   3317 0.37576500  12.010000   ; qtot 92.933698
 3318         ho    116    ccc     H6   3318 0.53656000   1.008000   ; qtot 93.470258
 3319         ho    116    ccc     H7   3319 0.49492100   1.008000   ; qtot 93.965179
 3320         ho    116    ccc     H8   3320 0.51297200   1.008000   ; qtot 94.478151
 3321         h1    116    ccc     H9   3321 0.05653400   1.008000   ; qtot 94.534685
 3322         h1    116    ccc    H10   3322 0.05653400   1.008000   ; qtot 94.591219
 3323         oh    116    ccc     O5   3323 -0.84113600  16.000000   ; qtot 93.750083
 3324         ho    116    ccc    H11   3324 0.51201600   1.008000   ; qtot 94.262099
 3325         os    116    ccc     O6   3325 -0.26013600  16.000000   ; qtot 94.001963
; residue  117 ccc rtp ccc q 0.0
 3326         c3    117    ccc     C1   3326 -0.33178800  12.010000   ; qtot 93.670175
 3327         c3    117    ccc     C2   3327 0.30606500  12.010000   ; qtot 93.976240
 3328         h1    117    ccc     H1   3328 0.11662300   1.008000   ; qtot 94.092863
 3329         h1    117    ccc     H2   3329 0.11526800   1.008000   ; qtot 94.208131
 3330         c3    117    ccc     C3   3330 0.15592700  12.010000   ; qtot 94.364058
 3331         c3    117    ccc     C4   3331 0.28383300  12.010000   ; qtot 94.647891
 3332         c3    117    ccc     C5   3332 0.32403300  12.010000   ; qtot 94.971924
 3333         h1    117    ccc     H3   3333 0.13386900   1.008000   ; qtot 95.105793
 3334         h1    117    ccc     H4   3334 0.10146700   1.008000   ; qtot 95.207260
 3335         h2    117    ccc     H5   3335 0.10960400   1.008000   ; qtot 95.316864
 3336         os    117    ccc     O1   3336 -0.28650000  16.000000   ; qtot 95.030364
 3337         oh    117    ccc     O2   3337 -0.86012500  16.000000   ; qtot 94.170239
 3338         oh    117    ccc     O3   3338 -0.83772800  16.000000   ; qtot 93.332511
 3339         oh    117    ccc     O4   3339 -0.77449700  16.000000   ; qtot 92.558014
 3340         c3    117    ccc     C6   3340 0.37576500  12.010000   ; qtot 92.933779
 3341         ho    117    ccc     H6   3341 0.53656000   1.008000   ; qtot 93.470339
 3342         ho    117    ccc     H7   3342 0.49492100   1.008000   ; qtot 93.965260
 3343         ho    117    ccc     H8   3343 0.51297200   1.008000   ; qtot 94.478232
 3344         h1    117    ccc     H9   3344 0.05653400   1.008000   ; qtot 94.534766
 3345         h1    117    ccc    H10   3345 0.05653400   1.008000   ; qtot 94.591300
 3346         oh    117    ccc     O5   3346 -0.84113600  16.000000   ; qtot 93.750164
 3347         ho    117    ccc    H11   3347 0.51201600   1.008000   ; qtot 94.262180
 3348         os    117    ccc     O6   3348 -0.26013600  16.000000   ; qtot 94.002044
; residue  118 ccc rtp ccc q 0.0
 3349         c3    118    ccc     C1   3349 -0.33178800  12.010000   ; qtot 93.670256
 3350         c3    118    ccc     C2   3350 0.30606500  12.010000   ; qtot 93.976321
 3351         h1    118    ccc     H1   3351 0.11662300   1.008000   ; qtot 94.092944
 3352         h1    118    ccc     H2   3352 0.11526800   1.008000   ; qtot 94.208212
 3353         c3    118    ccc     C3   3353 0.15592700  12.010000   ; qtot 94.364139
 3354         c3    118    ccc     C4   3354 0.28383300  12.010000   ; qtot 94.647972
 3355         c3    118    ccc     C5   3355 0.32403300  12.010000   ; qtot 94.972005
 3356         h1    118    ccc     H3   3356 0.13386900   1.008000   ; qtot 95.105874
 3357         h1    118    ccc     H4   3357 0.10146700   1.008000   ; qtot 95.207341
 3358         h2    118    ccc     H5   3358 0.10960400   1.008000   ; qtot 95.316945
 3359         os    118    ccc     O1   3359 -0.28650000  16.000000   ; qtot 95.030445
 3360         oh    118    ccc     O2   3360 -0.86012500  16.000000   ; qtot 94.170320
 3361         oh    118    ccc     O3   3361 -0.83772800  16.000000   ; qtot 93.332592
 3362         oh    118    ccc     O4   3362 -0.77449700  16.000000   ; qtot 92.558095
 3363         c3    118    ccc     C6   3363 0.37576500  12.010000   ; qtot 92.933860
 3364         ho    118    ccc     H6   3364 0.53656000   1.008000   ; qtot 93.470420
 3365         ho    118    ccc     H7   3365 0.49492100   1.008000   ; qtot 93.965341
 3366         ho    118    ccc     H8   3366 0.51297200   1.008000   ; qtot 94.478313
 3367         h1    118    ccc     H9   3367 0.05653400   1.008000   ; qtot 94.534847
 3368         h1    118    ccc    H10   3368 0.05653400   1.008000   ; qtot 94.591381
 3369         oh    118    ccc     O5   3369 -0.84113600  16.000000   ; qtot 93.750245
 3370         ho    118    ccc    H11   3370 0.51201600   1.008000   ; qtot 94.262261
 3371         os    118    ccc     O6   3371 -0.26013600  16.000000   ; qtot 94.002125
; residue  119 ccc rtp ccc q 0.0
 3372         c3    119    ccc     C1   3372 -0.33178800  12.010000   ; qtot 93.670337
 3373         c3    119    ccc     C2   3373 0.30606500  12.010000   ; qtot 93.976402
 3374         h1    119    ccc     H1   3374 0.11662300   1.008000   ; qtot 94.093025
 3375         h1    119    ccc     H2   3375 0.11526800   1.008000   ; qtot 94.208293
 3376         c3    119    ccc     C3   3376 0.15592700  12.010000   ; qtot 94.364220
 3377         c3    119    ccc     C4   3377 0.28383300  12.010000   ; qtot 94.648053
 3378         c3    119    ccc     C5   3378 0.32403300  12.010000   ; qtot 94.972086
 3379         h1    119    ccc     H3   3379 0.13386900   1.008000   ; qtot 95.105955
 3380         h1    119    ccc     H4   3380 0.10146700   1.008000   ; qtot 95.207422
 3381         h2    119    ccc     H5   3381 0.10960400   1.008000   ; qtot 95.317026
 3382         os    119    ccc     O1   3382 -0.28650000  16.000000   ; qtot 95.030526
 3383         oh    119    ccc     O2   3383 -0.86012500  16.000000   ; qtot 94.170401
 3384         oh    119    ccc     O3   3384 -0.83772800  16.000000   ; qtot 93.332673
 3385         oh    119    ccc     O4   3385 -0.77449700  16.000000   ; qtot 92.558176
 3386         c3    119    ccc     C6   3386 0.37576500  12.010000   ; qtot 92.933941
 3387         ho    119    ccc     H6   3387 0.53656000   1.008000   ; qtot 93.470501
 3388         ho    119    ccc     H7   3388 0.49492100   1.008000   ; qtot 93.965422
 3389         ho    119    ccc     H8   3389 0.51297200   1.008000   ; qtot 94.478394
 3390         h1    119    ccc     H9   3390 0.05653400   1.008000   ; qtot 94.534928
 3391         h1    119    ccc    H10   3391 0.05653400   1.008000   ; qtot 94.591462
 3392         oh    119    ccc     O5   3392 -0.84113600  16.000000   ; qtot 93.750326
 3393         ho    119    ccc    H11   3393 0.51201600   1.008000   ; qtot 94.262342
 3394         os    119    ccc     O6   3394 -0.26013600  16.000000   ; qtot 94.002206
; residue  120 ccc rtp ccc q 0.0
 3395         c3    120    ccc     C1   3395 -0.33178800  12.010000   ; qtot 93.670418
 3396         c3    120    ccc     C2   3396 0.30606500  12.010000   ; qtot 93.976483
 3397         h1    120    ccc     H1   3397 0.11662300   1.008000   ; qtot 94.093106
 3398         h1    120    ccc     H2   3398 0.11526800   1.008000   ; qtot 94.208374
 3399         c3    120    ccc     C3   3399 0.15592700  12.010000   ; qtot 94.364301
 3400         c3    120    ccc     C4   3400 0.28383300  12.010000   ; qtot 94.648134
 3401         c3    120    ccc     C5   3401 0.32403300  12.010000   ; qtot 94.972167
 3402         h1    120    ccc     H3   3402 0.13386900   1.008000   ; qtot 95.106036
 3403         h1    120    ccc     H4   3403 0.10146700   1.008000   ; qtot 95.207503
 3404         h2    120    ccc     H5   3404 0.10960400   1.008000   ; qtot 95.317107
 3405         os    120    ccc     O1   3405 -0.28650000  16.000000   ; qtot 95.030607
 3406         oh    120    ccc     O2   3406 -0.86012500  16.000000   ; qtot 94.170482
 3407         oh    120    ccc     O3   3407 -0.83772800  16.000000   ; qtot 93.332754
 3408         oh    120    ccc     O4   3408 -0.77449700  16.000000   ; qtot 92.558257
 3409         c3    120    ccc     C6   3409 0.37576500  12.010000   ; qtot 92.934022
 3410         ho    120    ccc     H6   3410 0.53656000   1.008000   ; qtot 93.470582
 3411         ho    120    ccc     H7   3411 0.49492100   1.008000   ; qtot 93.965503
 3412         ho    120    ccc     H8   3412 0.51297200   1.008000   ; qtot 94.478475
 3413         h1    120    ccc     H9   3413 0.05653400   1.008000   ; qtot 94.535009
 3414         h1    120    ccc    H10   3414 0.05653400   1.008000   ; qtot 94.591543
 3415         oh    120    ccc     O5   3415 -0.84113600  16.000000   ; qtot 93.750407
 3416         ho    120    ccc    H11   3416 0.51201600   1.008000   ; qtot 94.262423
 3417         os    120    ccc     O6   3417 -0.26013600  16.000000   ; qtot 94.002287
; residue  121 ccc rtp ccc q 0.0
 3418         c3    121    ccc     C1   3418 -0.33178800  12.010000   ; qtot 93.670499
 3419         c3    121    ccc     C2   3419 0.30606500  12.010000   ; qtot 93.976564
 3420         h1    121    ccc     H1   3420 0.11662300   1.008000   ; qtot 94.093187
 3421         h1    121    ccc     H2   3421 0.11526800   1.008000   ; qtot 94.208455
 3422         c3    121    ccc     C3   3422 0.15592700  12.010000   ; qtot 94.364382
 3423         c3    121    ccc     C4   3423 0.28383300  12.010000   ; qtot 94.648215
 3424         c3    121    ccc     C5   3424 0.32403300  12.010000   ; qtot 94.972248
 3425         h1    121    ccc     H3   3425 0.13386900   1.008000   ; qtot 95.106117
 3426         h1    121    ccc     H4   3426 0.10146700   1.008000   ; qtot 95.207584
 3427         h2    121    ccc     H5   3427 0.10960400   1.008000   ; qtot 95.317188
 3428         os    121    ccc     O1   3428 -0.28650000  16.000000   ; qtot 95.030688
 3429         oh    121    ccc     O2   3429 -0.86012500  16.000000   ; qtot 94.170563
 3430         oh    121    ccc     O3   3430 -0.83772800  16.000000   ; qtot 93.332835
 3431         oh    121    ccc     O4   3431 -0.77449700  16.000000   ; qtot 92.558338
 3432         c3    121    ccc     C6   3432 0.37576500  12.010000   ; qtot 92.934103
 3433         ho    121    ccc     H6   3433 0.53656000   1.008000   ; qtot 93.470663
 3434         ho    121    ccc     H7   3434 0.49492100   1.008000   ; qtot 93.965584
 3435         ho    121    ccc     H8   3435 0.51297200   1.008000   ; qtot 94.478556
 3436         h1    121    ccc     H9   3436 0.05653400   1.008000   ; qtot 94.535090
 3437         h1    121    ccc    H10   3437 0.05653400   1.008000   ; qtot 94.591624
 3438         oh    121    ccc     O5   3438 -0.84113600  16.000000   ; qtot 93.750488
 3439         ho    121    ccc    H11   3439 0.51201600   1.008000   ; qtot 94.262504
 3440         os    121    ccc     O6   3440 -0.26013600  16.000000   ; qtot 94.002368
; residue  122 ccc rtp ccc q 0.0
 3441         c3    122    ccc     C1   3441 -0.33178800  12.010000   ; qtot 93.670580
 3442         c3    122    ccc     C2   3442 0.30606500  12.010000   ; qtot 93.976645
 3443         h1    122    ccc     H1   3443 0.11662300   1.008000   ; qtot 94.093268
 3444         h1    122    ccc     H2   3444 0.11526800   1.008000   ; qtot 94.208536
 3445         c3    122    ccc     C3   3445 0.15592700  12.010000   ; qtot 94.364463
 3446         c3    122    ccc     C4   3446 0.28383300  12.010000   ; qtot 94.648296
 3447         c3    122    ccc     C5   3447 0.32403300  12.010000   ; qtot 94.972329
 3448         h1    122    ccc     H3   3448 0.13386900   1.008000   ; qtot 95.106198
 3449         h1    122    ccc     H4   3449 0.10146700   1.008000   ; qtot 95.207665
 3450         h2    122    ccc     H5   3450 0.10960400   1.008000   ; qtot 95.317269
 3451         os    122    ccc     O1   3451 -0.28650000  16.000000   ; qtot 95.030769
 3452         oh    122    ccc     O2   3452 -0.86012500  16.000000   ; qtot 94.170644
 3453         oh    122    ccc     O3   3453 -0.83772800  16.000000   ; qtot 93.332916
 3454         oh    122    ccc     O4   3454 -0.77449700  16.000000   ; qtot 92.558419
 3455         c3    122    ccc     C6   3455 0.37576500  12.010000   ; qtot 92.934184
 3456         ho    122    ccc     H6   3456 0.53656000   1.008000   ; qtot 93.470744
 3457         ho    122    ccc     H7   3457 0.49492100   1.008000   ; qtot 93.965665
 3458         ho    122    ccc     H8   3458 0.51297200   1.008000   ; qtot 94.478637
 3459         h1    122    ccc     H9   3459 0.05653400   1.008000   ; qtot 94.535171
 3460         h1    122    ccc    H10   3460 0.05653400   1.008000   ; qtot 94.591705
 3461         oh    122    ccc     O5   3461 -0.84113600  16.000000   ; qtot 93.750569
 3462         ho    122    ccc    H11   3462 0.51201600   1.008000   ; qtot 94.262585
 3463         os    122    ccc     O6   3463 -0.26013600  16.000000   ; qtot 94.002449
; residue  123 ccc rtp ccc q 0.0
 3464         c3    123    ccc     C1   3464 -0.33178800  12.010000   ; qtot 93.670661
 3465         c3    123    ccc     C2   3465 0.30606500  12.010000   ; qtot 93.976726
 3466         h1    123    ccc     H1   3466 0.11662300   1.008000   ; qtot 94.093349
 3467         h1    123    ccc     H2   3467 0.11526800   1.008000   ; qtot 94.208617
 3468         c3    123    ccc     C3   3468 0.15592700  12.010000   ; qtot 94.364544
 3469         c3    123    ccc     C4   3469 0.28383300  12.010000   ; qtot 94.648377
 3470         c3    123    ccc     C5   3470 0.32403300  12.010000   ; qtot 94.972410
 3471         h1    123    ccc     H3   3471 0.13386900   1.008000   ; qtot 95.106279
 3472         h1    123    ccc     H4   3472 0.10146700   1.008000   ; qtot 95.207746
 3473         h2    123    ccc     H5   3473 0.10960400   1.008000   ; qtot 95.317350
 3474         os    123    ccc     O1   3474 -0.28650000  16.000000   ; qtot 95.030850
 3475         oh    123    ccc     O2   3475 -0.86012500  16.000000   ; qtot 94.170725
 3476         oh    123    ccc     O3   3476 -0.83772800  16.000000   ; qtot 93.332997
 3477         oh    123    ccc     O4   3477 -0.77449700  16.000000   ; qtot 92.558500
 3478         c3    123    ccc     C6   3478 0.37576500  12.010000   ; qtot 92.934265
 3479         ho    123    ccc     H6   3479 0.53656000   1.008000   ; qtot 93.470825
 3480         ho    123    ccc     H7   3480 0.49492100   1.008000   ; qtot 93.965746
 3481         ho    123    ccc     H8   3481 0.51297200   1.008000   ; qtot 94.478718
 3482         h1    123    ccc     H9   3482 0.05653400   1.008000   ; qtot 94.535252
 3483         h1    123    ccc    H10   3483 0.05653400   1.008000   ; qtot 94.591786
 3484         oh    123    ccc     O5   3484 -0.84113600  16.000000   ; qtot 93.750650
 3485         ho    123    ccc    H11   3485 0.51201600   1.008000   ; qtot 94.262666
 3486         os    123    ccc     O6   3486 -0.26013600  16.000000   ; qtot 94.002530
; residue  124 ccc rtp ccc q 0.0
 3487         c3    124    ccc     C1   3487 -0.33178800  12.010000   ; qtot 93.670742
 3488         c3    124    ccc     C2   3488 0.30606500  12.010000   ; qtot 93.976807
 3489         h1    124    ccc     H1   3489 0.11662300   1.008000   ; qtot 94.093430
 3490         h1    124    ccc     H2   3490 0.11526800   1.008000   ; qtot 94.208698
 3491         c3    124    ccc     C3   3491 0.15592700  12.010000   ; qtot 94.364625
 3492         c3    124    ccc     C4   3492 0.28383300  12.010000   ; qtot 94.648458
 3493         c3    124    ccc     C5   3493 0.32403300  12.010000   ; qtot 94.972491
 3494         h1    124    ccc     H3   3494 0.13386900   1.008000   ; qtot 95.106360
 3495         h1    124    ccc     H4   3495 0.10146700   1.008000   ; qtot 95.207827
 3496         h2    124    ccc     H5   3496 0.10960400   1.008000   ; qtot 95.317431
 3497         os    124    ccc     O1   3497 -0.28650000  16.000000   ; qtot 95.030931
 3498         oh    124    ccc     O2   3498 -0.86012500  16.000000   ; qtot 94.170806
 3499         oh    124    ccc     O3   3499 -0.83772800  16.000000   ; qtot 93.333078
 3500         oh    124    ccc     O4   3500 -0.77449700  16.000000   ; qtot 92.558581
 3501         c3    124    ccc     C6   3501 0.37576500  12.010000   ; qtot 92.934346
 3502         ho    124    ccc     H6   3502 0.53656000   1.008000   ; qtot 93.470906
 3503         ho    124    ccc     H7   3503 0.49492100   1.008000   ; qtot 93.965827
 3504         ho    124    ccc     H8   3504 0.51297200   1.008000   ; qtot 94.478799
 3505         h1    124    ccc     H9   3505 0.05653400   1.008000   ; qtot 94.535333
 3506         h1    124    ccc    H10   3506 0.05653400   1.008000   ; qtot 94.591867
 3507         oh    124    ccc     O5   3507 -0.84113600  16.000000   ; qtot 93.750731
 3508         ho    124    ccc    H11   3508 0.51201600   1.008000   ; qtot 94.262747
 3509         os    124    ccc     O6   3509 -0.26013600  16.000000   ; qtot 94.002611
; residue  125 ccc rtp ccc q 0.0
 3510         c3    125    ccc     C1   3510 -0.33178800  12.010000   ; qtot 93.670823
 3511         c3    125    ccc     C2   3511 0.30606500  12.010000   ; qtot 93.976888
 3512         h1    125    ccc     H1   3512 0.11662300   1.008000   ; qtot 94.093511
 3513         h1    125    ccc     H2   3513 0.11526800   1.008000   ; qtot 94.208779
 3514         c3    125    ccc     C3   3514 0.15592700  12.010000   ; qtot 94.364706
 3515         c3    125    ccc     C4   3515 0.28383300  12.010000   ; qtot 94.648539
 3516         c3    125    ccc     C5   3516 0.32403300  12.010000   ; qtot 94.972572
 3517         h1    125    ccc     H3   3517 0.13386900   1.008000   ; qtot 95.106441
 3518         h1    125    ccc     H4   3518 0.10146700   1.008000   ; qtot 95.207908
 3519         h2    125    ccc     H5   3519 0.10960400   1.008000   ; qtot 95.317512
 3520         os    125    ccc     O1   3520 -0.28650000  16.000000   ; qtot 95.031012
 3521         oh    125    ccc     O2   3521 -0.86012500  16.000000   ; qtot 94.170887
 3522         oh    125    ccc     O3   3522 -0.83772800  16.000000   ; qtot 93.333159
 3523         oh    125    ccc     O4   3523 -0.77449700  16.000000   ; qtot 92.558662
 3524         c3    125    ccc     C6   3524 0.37576500  12.010000   ; qtot 92.934427
 3525         ho    125    ccc     H6   3525 0.53656000   1.008000   ; qtot 93.470987
 3526         ho    125    ccc     H7   3526 0.49492100   1.008000   ; qtot 93.965908
 3527         ho    125    ccc     H8   3527 0.51297200   1.008000   ; qtot 94.478880
 3528         h1    125    ccc     H9   3528 0.05653400   1.008000   ; qtot 94.535414
 3529         h1    125    ccc    H10   3529 0.05653400   1.008000   ; qtot 94.591948
 3530         oh    125    ccc     O5   3530 -0.84113600  16.000000   ; qtot 93.750812
 3531         ho    125    ccc    H11   3531 0.51201600   1.008000   ; qtot 94.262828
 3532         os    125    ccc     O6   3532 -0.26013600  16.000000   ; qtot 94.002692
; residue  126 ccc rtp ccc q 0.0
 3533         c3    126    ccc     C1   3533 -0.33178800  12.010000   ; qtot 93.670904
 3534         c3    126    ccc     C2   3534 0.30606500  12.010000   ; qtot 93.976969
 3535         h1    126    ccc     H1   3535 0.11662300   1.008000   ; qtot 94.093592
 3536         h1    126    ccc     H2   3536 0.11526800   1.008000   ; qtot 94.208860
 3537         c3    126    ccc     C3   3537 0.15592700  12.010000   ; qtot 94.364787
 3538         c3    126    ccc     C4   3538 0.28383300  12.010000   ; qtot 94.648620
 3539         c3    126    ccc     C5   3539 0.32403300  12.010000   ; qtot 94.972653
 3540         h1    126    ccc     H3   3540 0.13386900   1.008000   ; qtot 95.106522
 3541         h1    126    ccc     H4   3541 0.10146700   1.008000   ; qtot 95.207989
 3542         h2    126    ccc     H5   3542 0.10960400   1.008000   ; qtot 95.317593
 3543         os    126    ccc     O1   3543 -0.28650000  16.000000   ; qtot 95.031093
 3544         oh    126    ccc     O2   3544 -0.86012500  16.000000   ; qtot 94.170968
 3545         oh    126    ccc     O3   3545 -0.83772800  16.000000   ; qtot 93.333240
 3546         oh    126    ccc     O4   3546 -0.77449700  16.000000   ; qtot 92.558743
 3547         c3    126    ccc     C6   3547 0.37576500  12.010000   ; qtot 92.934508
 3548         ho    126    ccc     H6   3548 0.53656000   1.008000   ; qtot 93.471068
 3549         ho    126    ccc     H7   3549 0.49492100   1.008000   ; qtot 93.965989
 3550         ho    126    ccc     H8   3550 0.51297200   1.008000   ; qtot 94.478961
 3551         h1    126    ccc     H9   3551 0.05653400   1.008000   ; qtot 94.535495
 3552         h1    126    ccc    H10   3552 0.05653400   1.008000   ; qtot 94.592029
 3553         oh    126    ccc     O5   3553 -0.84113600  16.000000   ; qtot 93.750893
 3554         ho    126    ccc    H11   3554 0.51201600   1.008000   ; qtot 94.262909
 3555         os    126    ccc     O6   3555 -0.26013600  16.000000   ; qtot 94.002773
; residue  127 ccc rtp ccc q 0.0
 3556         c3    127    ccc     C1   3556 -0.33178800  12.010000   ; qtot 93.670985
 3557         c3    127    ccc     C2   3557 0.30606500  12.010000   ; qtot 93.977050
 3558         h1    127    ccc     H1   3558 0.11662300   1.008000   ; qtot 94.093673
 3559         h1    127    ccc     H2   3559 0.11526800   1.008000   ; qtot 94.208941
 3560         c3    127    ccc     C3   3560 0.15592700  12.010000   ; qtot 94.364868
 3561         c3    127    ccc     C4   3561 0.28383300  12.010000   ; qtot 94.648701
 3562         c3    127    ccc     C5   3562 0.32403300  12.010000   ; qtot 94.972734
 3563         h1    127    ccc     H3   3563 0.13386900   1.008000   ; qtot 95.106603
 3564         h1    127    ccc     H4   3564 0.10146700   1.008000   ; qtot 95.208070
 3565         h2    127    ccc     H5   3565 0.10960400   1.008000   ; qtot 95.317674
 3566         os    127    ccc     O1   3566 -0.28650000  16.000000   ; qtot 95.031174
 3567         oh    127    ccc     O2   3567 -0.86012500  16.000000   ; qtot 94.171049
 3568         oh    127    ccc     O3   3568 -0.83772800  16.000000   ; qtot 93.333321
 3569         oh    127    ccc     O4   3569 -0.77449700  16.000000   ; qtot 92.558824
 3570         c3    127    ccc     C6   3570 0.37576500  12.010000   ; qtot 92.934589
 3571         ho    127    ccc     H6   3571 0.53656000   1.008000   ; qtot 93.471149
 3572         ho    127    ccc     H7   3572 0.49492100   1.008000   ; qtot 93.966070
 3573         ho    127    ccc     H8   3573 0.51297200   1.008000   ; qtot 94.479042
 3574         h1    127    ccc     H9   3574 0.05653400   1.008000   ; qtot 94.535576
 3575         h1    127    ccc    H10   3575 0.05653400   1.008000   ; qtot 94.592110
 3576         oh    127    ccc     O5   3576 -0.84113600  16.000000   ; qtot 93.750974
 3577         ho    127    ccc    H11   3577 0.51201600   1.008000   ; qtot 94.262990
 3578         os    127    ccc     O6   3578 -0.26013600  16.000000   ; qtot 94.002854
; residue  128 ccc rtp ccc q 0.0
 3579         c3    128    ccc     C1   3579 -0.33178800  12.010000   ; qtot 93.671066
 3580         c3    128    ccc     C2   3580 0.30606500  12.010000   ; qtot 93.977131
 3581         h1    128    ccc     H1   3581 0.11662300   1.008000   ; qtot 94.093754
 3582         h1    128    ccc     H2   3582 0.11526800   1.008000   ; qtot 94.209022
 3583         c3    128    ccc     C3   3583 0.15592700  12.010000   ; qtot 94.364949
 3584         c3    128    ccc     C4   3584 0.28383300  12.010000   ; qtot 94.648782
 3585         c3    128    ccc     C5   3585 0.32403300  12.010000   ; qtot 94.972815
 3586         h1    128    ccc     H3   3586 0.13386900   1.008000   ; qtot 95.106684
 3587         h1    128    ccc     H4   3587 0.10146700   1.008000   ; qtot 95.208151
 3588         h2    128    ccc     H5   3588 0.10960400   1.008000   ; qtot 95.317755
 3589         os    128    ccc     O1   3589 -0.28650000  16.000000   ; qtot 95.031255
 3590         oh    128    ccc     O2   3590 -0.86012500  16.000000   ; qtot 94.171130
 3591         oh    128    ccc     O3   3591 -0.83772800  16.000000   ; qtot 93.333402
 3592         oh    128    ccc     O4   3592 -0.77449700  16.000000   ; qtot 92.558905
 3593         c3    128    ccc     C6   3593 0.37576500  12.010000   ; qtot 92.934670
 3594         ho    128    ccc     H6   3594 0.53656000   1.008000   ; qtot 93.471230
 3595         ho    128    ccc     H7   3595 0.49492100   1.008000   ; qtot 93.966151
 3596         ho    128    ccc     H8   3596 0.51297200   1.008000   ; qtot 94.479123
 3597         h1    128    ccc     H9   3597 0.05653400   1.008000   ; qtot 94.535657
 3598         h1    128    ccc    H10   3598 0.05653400   1.008000   ; qtot 94.592191
 3599         oh    128    ccc     O5   3599 -0.84113600  16.000000   ; qtot 93.751055
 3600         ho    128    ccc    H11   3600 0.51201600   1.008000   ; qtot 94.263071
 3601         os    128    ccc     O6   3601 -0.26013600  16.000000   ; qtot 94.002935
; residue  129 ccc rtp ccc q 0.0
 3602         c3    129    ccc     C1   3602 -0.33178800  12.010000   ; qtot 93.671147
 3603         c3    129    ccc     C2   3603 0.30606500  12.010000   ; qtot 93.977212
 3604         h1    129    ccc     H1   3604 0.11662300   1.008000   ; qtot 94.093835
 3605         h1    129    ccc     H2   3605 0.11526800   1.008000   ; qtot 94.209103
 3606         c3    129    ccc     C3   3606 0.15592700  12.010000   ; qtot 94.365030
 3607         c3    129    ccc     C4   3607 0.28383300  12.010000   ; qtot 94.648863
 3608         c3    129    ccc     C5   3608 0.32403300  12.010000   ; qtot 94.972896
 3609         h1    129    ccc     H3   3609 0.13386900   1.008000   ; qtot 95.106765
 3610         h1    129    ccc     H4   3610 0.10146700   1.008000   ; qtot 95.208232
 3611         h2    129    ccc     H5   3611 0.10960400   1.008000   ; qtot 95.317836
 3612         os    129    ccc     O1   3612 -0.28650000  16.000000   ; qtot 95.031336
 3613         oh    129    ccc     O2   3613 -0.86012500  16.000000   ; qtot 94.171211
 3614         oh    129    ccc     O3   3614 -0.83772800  16.000000   ; qtot 93.333483
 3615         oh    129    ccc     O4   3615 -0.77449700  16.000000   ; qtot 92.558986
 3616         c3    129    ccc     C6   3616 0.37576500  12.010000   ; qtot 92.934751
 3617         ho    129    ccc     H6   3617 0.53656000   1.008000   ; qtot 93.471311
 3618         ho    129    ccc     H7   3618 0.49492100   1.008000   ; qtot 93.966232
 3619         ho    129    ccc     H8   3619 0.51297200   1.008000   ; qtot 94.479204
 3620         h1    129    ccc     H9   3620 0.05653400   1.008000   ; qtot 94.535738
 3621         h1    129    ccc    H10   3621 0.05653400   1.008000   ; qtot 94.592272
 3622         oh    129    ccc     O5   3622 -0.84113600  16.000000   ; qtot 93.751136
 3623         ho    129    ccc    H11   3623 0.51201600   1.008000   ; qtot 94.263152
 3624         os    129    ccc     O6   3624 -0.26013600  16.000000   ; qtot 94.003016
; residue  130 ccc rtp ccc q 0.0
 3625         c3    130    ccc     C1   3625 -0.33178800  12.010000   ; qtot 93.671228
 3626         c3    130    ccc     C2   3626 0.30606500  12.010000   ; qtot 93.977293
 3627         h1    130    ccc     H1   3627 0.11662300   1.008000   ; qtot 94.093916
 3628         h1    130    ccc     H2   3628 0.11526800   1.008000   ; qtot 94.209184
 3629         c3    130    ccc     C3   3629 0.15592700  12.010000   ; qtot 94.365111
 3630         c3    130    ccc     C4   3630 0.28383300  12.010000   ; qtot 94.648944
 3631         c3    130    ccc     C5   3631 0.32403300  12.010000   ; qtot 94.972977
 3632         h1    130    ccc     H3   3632 0.13386900   1.008000   ; qtot 95.106846
 3633         h1    130    ccc     H4   3633 0.10146700   1.008000   ; qtot 95.208313
 3634         h2    130    ccc     H5   3634 0.10960400   1.008000   ; qtot 95.317917
 3635         os    130    ccc     O1   3635 -0.28650000  16.000000   ; qtot 95.031417
 3636         oh    130    ccc     O2   3636 -0.86012500  16.000000   ; qtot 94.171292
 3637         oh    130    ccc     O3   3637 -0.83772800  16.000000   ; qtot 93.333564
 3638         oh    130    ccc     O4   3638 -0.77449700  16.000000   ; qtot 92.559067
 3639         c3    130    ccc     C6   3639 0.37576500  12.010000   ; qtot 92.934832
 3640         ho    130    ccc     H6   3640 0.53656000   1.008000   ; qtot 93.471392
 3641         ho    130    ccc     H7   3641 0.49492100   1.008000   ; qtot 93.966313
 3642         ho    130    ccc     H8   3642 0.51297200   1.008000   ; qtot 94.479285
 3643         h1    130    ccc     H9   3643 0.05653400   1.008000   ; qtot 94.535819
 3644         h1    130    ccc    H10   3644 0.05653400   1.008000   ; qtot 94.592353
 3645         oh    130    ccc     O5   3645 -0.84113600  16.000000   ; qtot 93.751217
 3646         ho    130    ccc    H11   3646 0.51201600   1.008000   ; qtot 94.263233
 3647         os    130    ccc     O6   3647 -0.26013600  16.000000   ; qtot 94.003097
; residue  131 ccc rtp ccc q 0.0
 3648         c3    131    ccc     C1   3648 -0.33178800  12.010000   ; qtot 93.671309
 3649         c3    131    ccc     C2   3649 0.30606500  12.010000   ; qtot 93.977374
 3650         h1    131    ccc     H1   3650 0.11662300   1.008000   ; qtot 94.093997
 3651         h1    131    ccc     H2   3651 0.11526800   1.008000   ; qtot 94.209265
 3652         c3    131    ccc     C3   3652 0.15592700  12.010000   ; qtot 94.365192
 3653         c3    131    ccc     C4   3653 0.28383300  12.010000   ; qtot 94.649025
 3654         c3    131    ccc     C5   3654 0.32403300  12.010000   ; qtot 94.973058
 3655         h1    131    ccc     H3   3655 0.13386900   1.008000   ; qtot 95.106927
 3656         h1    131    ccc     H4   3656 0.10146700   1.008000   ; qtot 95.208394
 3657         h2    131    ccc     H5   3657 0.10960400   1.008000   ; qtot 95.317998
 3658         os    131    ccc     O1   3658 -0.28650000  16.000000   ; qtot 95.031498
 3659         oh    131    ccc     O2   3659 -0.86012500  16.000000   ; qtot 94.171373
 3660         oh    131    ccc     O3   3660 -0.83772800  16.000000   ; qtot 93.333645
 3661         oh    131    ccc     O4   3661 -0.77449700  16.000000   ; qtot 92.559148
 3662         c3    131    ccc     C6   3662 0.37576500  12.010000   ; qtot 92.934913
 3663         ho    131    ccc     H6   3663 0.53656000   1.008000   ; qtot 93.471473
 3664         ho    131    ccc     H7   3664 0.49492100   1.008000   ; qtot 93.966394
 3665         ho    131    ccc     H8   3665 0.51297200   1.008000   ; qtot 94.479366
 3666         h1    131    ccc     H9   3666 0.05653400   1.008000   ; qtot 94.535900
 3667         h1    131    ccc    H10   3667 0.05653400   1.008000   ; qtot 94.592434
 3668         oh    131    ccc     O5   3668 -0.84113600  16.000000   ; qtot 93.751298
 3669         ho    131    ccc    H11   3669 0.51201600   1.008000   ; qtot 94.263314
 3670         os    131    ccc     O6   3670 -0.26013600  16.000000   ; qtot 94.003178
; residue  132 ccc rtp ccc q 0.0
 3671         c3    132    ccc     C1   3671 -0.33178800  12.010000   ; qtot 93.671390
 3672         c3    132    ccc     C2   3672 0.30606500  12.010000   ; qtot 93.977455
 3673         h1    132    ccc     H1   3673 0.11662300   1.008000   ; qtot 94.094078
 3674         h1    132    ccc     H2   3674 0.11526800   1.008000   ; qtot 94.209346
 3675         c3    132    ccc     C3   3675 0.15592700  12.010000   ; qtot 94.365273
 3676         c3    132    ccc     C4   3676 0.28383300  12.010000   ; qtot 94.649106
 3677         c3    132    ccc     C5   3677 0.32403300  12.010000   ; qtot 94.973139
 3678         h1    132    ccc     H3   3678 0.13386900   1.008000   ; qtot 95.107008
 3679         h1    132    ccc     H4   3679 0.10146700   1.008000   ; qtot 95.208475
 3680         h2    132    ccc     H5   3680 0.10960400   1.008000   ; qtot 95.318079
 3681         os    132    ccc     O1   3681 -0.28650000  16.000000   ; qtot 95.031579
 3682         oh    132    ccc     O2   3682 -0.86012500  16.000000   ; qtot 94.171454
 3683         oh    132    ccc     O3   3683 -0.83772800  16.000000   ; qtot 93.333726
 3684         oh    132    ccc     O4   3684 -0.77449700  16.000000   ; qtot 92.559229
 3685         c3    132    ccc     C6   3685 0.37576500  12.010000   ; qtot 92.934994
 3686         ho    132    ccc     H6   3686 0.53656000   1.008000   ; qtot 93.471554
 3687         ho    132    ccc     H7   3687 0.49492100   1.008000   ; qtot 93.966475
 3688         ho    132    ccc     H8   3688 0.51297200   1.008000   ; qtot 94.479447
 3689         h1    132    ccc     H9   3689 0.05653400   1.008000   ; qtot 94.535981
 3690         h1    132    ccc    H10   3690 0.05653400   1.008000   ; qtot 94.592515
 3691         oh    132    ccc     O5   3691 -0.84113600  16.000000   ; qtot 93.751379
 3692         ho    132    ccc    H11   3692 0.51201600   1.008000   ; qtot 94.263395
 3693         os    132    ccc     O6   3693 -0.26013600  16.000000   ; qtot 94.003259
; residue  133 ccc rtp ccc q 0.0
 3694         c3    133    ccc     C1   3694 -0.33178800  12.010000   ; qtot 93.671471
 3695         c3    133    ccc     C2   3695 0.30606500  12.010000   ; qtot 93.977536
 3696         h1    133    ccc     H1   3696 0.11662300   1.008000   ; qtot 94.094159
 3697         h1    133    ccc     H2   3697 0.11526800   1.008000   ; qtot 94.209427
 3698         c3    133    ccc     C3   3698 0.15592700  12.010000   ; qtot 94.365354
 3699         c3    133    ccc     C4   3699 0.28383300  12.010000   ; qtot 94.649187
 3700         c3    133    ccc     C5   3700 0.32403300  12.010000   ; qtot 94.973220
 3701         h1    133    ccc     H3   3701 0.13386900   1.008000   ; qtot 95.107089
 3702         h1    133    ccc     H4   3702 0.10146700   1.008000   ; qtot 95.208556
 3703         h2    133    ccc     H5   3703 0.10960400   1.008000   ; qtot 95.318160
 3704         os    133    ccc     O1   3704 -0.28650000  16.000000   ; qtot 95.031660
 3705         oh    133    ccc     O2   3705 -0.86012500  16.000000   ; qtot 94.171535
 3706         oh    133    ccc     O3   3706 -0.83772800  16.000000   ; qtot 93.333807
 3707         oh    133    ccc     O4   3707 -0.77449700  16.000000   ; qtot 92.559310
 3708         c3    133    ccc     C6   3708 0.37576500  12.010000   ; qtot 92.935075
 3709         ho    133    ccc     H6   3709 0.53656000   1.008000   ; qtot 93.471635
 3710         ho    133    ccc     H7   3710 0.49492100   1.008000   ; qtot 93.966556
 3711         ho    133    ccc     H8   3711 0.51297200   1.008000   ; qtot 94.479528
 3712         h1    133    ccc     H9   3712 0.05653400   1.008000   ; qtot 94.536062
 3713         h1    133    ccc    H10   3713 0.05653400   1.008000   ; qtot 94.592596
 3714         oh    133    ccc     O5   3714 -0.84113600  16.000000   ; qtot 93.751460
 3715         ho    133    ccc    H11   3715 0.51201600   1.008000   ; qtot 94.263476
 3716         os    133    ccc     O6   3716 -0.26013600  16.000000   ; qtot 94.003340
; residue  134 ccc rtp ccc q 0.0
 3717         c3    134    ccc     C1   3717 -0.33178800  12.010000   ; qtot 93.671552
 3718         c3    134    ccc     C2   3718 0.30606500  12.010000   ; qtot 93.977617
 3719         h1    134    ccc     H1   3719 0.11662300   1.008000   ; qtot 94.094240
 3720         h1    134    ccc     H2   3720 0.11526800   1.008000   ; qtot 94.209508
 3721         c3    134    ccc     C3   3721 0.15592700  12.010000   ; qtot 94.365435
 3722         c3    134    ccc     C4   3722 0.28383300  12.010000   ; qtot 94.649268
 3723         c3    134    ccc     C5   3723 0.32403300  12.010000   ; qtot 94.973301
 3724         h1    134    ccc     H3   3724 0.13386900   1.008000   ; qtot 95.107170
 3725         h1    134    ccc     H4   3725 0.10146700   1.008000   ; qtot 95.208637
 3726         h2    134    ccc     H5   3726 0.10960400   1.008000   ; qtot 95.318241
 3727         os    134    ccc     O1   3727 -0.28650000  16.000000   ; qtot 95.031741
 3728         oh    134    ccc     O2   3728 -0.86012500  16.000000   ; qtot 94.171616
 3729         oh    134    ccc     O3   3729 -0.83772800  16.000000   ; qtot 93.333888
 3730         oh    134    ccc     O4   3730 -0.77449700  16.000000   ; qtot 92.559391
 3731         c3    134    ccc     C6   3731 0.37576500  12.010000   ; qtot 92.935156
 3732         ho    134    ccc     H6   3732 0.53656000   1.008000   ; qtot 93.471716
 3733         ho    134    ccc     H7   3733 0.49492100   1.008000   ; qtot 93.966637
 3734         ho    134    ccc     H8   3734 0.51297200   1.008000   ; qtot 94.479609
 3735         h1    134    ccc     H9   3735 0.05653400   1.008000   ; qtot 94.536143
 3736         h1    134    ccc    H10   3736 0.05653400   1.008000   ; qtot 94.592677
 3737         oh    134    ccc     O5   3737 -0.84113600  16.000000   ; qtot 93.751541
 3738         ho    134    ccc    H11   3738 0.51201600   1.008000   ; qtot 94.263557
 3739         os    134    ccc     O6   3739 -0.26013600  16.000000   ; qtot 94.003421
; residue  135 ccc rtp ccc q 0.0
 3740         c3    135    ccc     C1   3740 -0.33178800  12.010000   ; qtot 93.671633
 3741         c3    135    ccc     C2   3741 0.30606500  12.010000   ; qtot 93.977698
 3742         h1    135    ccc     H1   3742 0.11662300   1.008000   ; qtot 94.094321
 3743         h1    135    ccc     H2   3743 0.11526800   1.008000   ; qtot 94.209589
 3744         c3    135    ccc     C3   3744 0.15592700  12.010000   ; qtot 94.365516
 3745         c3    135    ccc     C4   3745 0.28383300  12.010000   ; qtot 94.649349
 3746         c3    135    ccc     C5   3746 0.32403300  12.010000   ; qtot 94.973382
 3747         h1    135    ccc     H3   3747 0.13386900   1.008000   ; qtot 95.107251
 3748         h1    135    ccc     H4   3748 0.10146700   1.008000   ; qtot 95.208718
 3749         h2    135    ccc     H5   3749 0.10960400   1.008000   ; qtot 95.318322
 3750         os    135    ccc     O1   3750 -0.28650000  16.000000   ; qtot 95.031822
 3751         oh    135    ccc     O2   3751 -0.86012500  16.000000   ; qtot 94.171697
 3752         oh    135    ccc     O3   3752 -0.83772800  16.000000   ; qtot 93.333969
 3753         oh    135    ccc     O4   3753 -0.77449700  16.000000   ; qtot 92.559472
 3754         c3    135    ccc     C6   3754 0.37576500  12.010000   ; qtot 92.935237
 3755         ho    135    ccc     H6   3755 0.53656000   1.008000   ; qtot 93.471797
 3756         ho    135    ccc     H7   3756 0.49492100   1.008000   ; qtot 93.966718
 3757         ho    135    ccc     H8   3757 0.51297200   1.008000   ; qtot 94.479690
 3758         h1    135    ccc     H9   3758 0.05653400   1.008000   ; qtot 94.536224
 3759         h1    135    ccc    H10   3759 0.05653400   1.008000   ; qtot 94.592758
 3760         oh    135    ccc     O5   3760 -0.84113600  16.000000   ; qtot 93.751622
 3761         ho    135    ccc    H11   3761 0.51201600   1.008000   ; qtot 94.263638
 3762         os    135    ccc     O6   3762 -0.26013600  16.000000   ; qtot 94.003502
; residue  136 ccc rtp ccc q 0.0
 3763         c3    136    ccc     C1   3763 -0.33178800  12.010000   ; qtot 93.671714
 3764         c3    136    ccc     C2   3764 0.30606500  12.010000   ; qtot 93.977779
 3765         h1    136    ccc     H1   3765 0.11662300   1.008000   ; qtot 94.094402
 3766         h1    136    ccc     H2   3766 0.11526800   1.008000   ; qtot 94.209670
 3767         c3    136    ccc     C3   3767 0.15592700  12.010000   ; qtot 94.365597
 3768         c3    136    ccc     C4   3768 0.28383300  12.010000   ; qtot 94.649430
 3769         c3    136    ccc     C5   3769 0.32403300  12.010000   ; qtot 94.973463
 3770         h1    136    ccc     H3   3770 0.13386900   1.008000   ; qtot 95.107332
 3771         h1    136    ccc     H4   3771 0.10146700   1.008000   ; qtot 95.208799
 3772         h2    136    ccc     H5   3772 0.10960400   1.008000   ; qtot 95.318403
 3773         os    136    ccc     O1   3773 -0.28650000  16.000000   ; qtot 95.031903
 3774         oh    136    ccc     O2   3774 -0.86012500  16.000000   ; qtot 94.171778
 3775         oh    136    ccc     O3   3775 -0.83772800  16.000000   ; qtot 93.334050
 3776         oh    136    ccc     O4   3776 -0.77449700  16.000000   ; qtot 92.559553
 3777         c3    136    ccc     C6   3777 0.37576500  12.010000   ; qtot 92.935318
 3778         ho    136    ccc     H6   3778 0.53656000   1.008000   ; qtot 93.471878
 3779         ho    136    ccc     H7   3779 0.49492100   1.008000   ; qtot 93.966799
 3780         ho    136    ccc     H8   3780 0.51297200   1.008000   ; qtot 94.479771
 3781         h1    136    ccc     H9   3781 0.05653400   1.008000   ; qtot 94.536305
 3782         h1    136    ccc    H10   3782 0.05653400   1.008000   ; qtot 94.592839
 3783         oh    136    ccc     O5   3783 -0.84113600  16.000000   ; qtot 93.751703
 3784         ho    136    ccc    H11   3784 0.51201600   1.008000   ; qtot 94.263719
 3785         os    136    ccc     O6   3785 -0.26013600  16.000000   ; qtot 94.003583
; residue  137 ccc rtp ccc q 0.0
 3786         c3    137    ccc     C1   3786 -0.33178800  12.010000   ; qtot 93.671795
 3787         c3    137    ccc     C2   3787 0.30606500  12.010000   ; qtot 93.977860
 3788         h1    137    ccc     H1   3788 0.11662300   1.008000   ; qtot 94.094483
 3789         h1    137    ccc     H2   3789 0.11526800   1.008000   ; qtot 94.209751
 3790         c3    137    ccc     C3   3790 0.15592700  12.010000   ; qtot 94.365678
 3791         c3    137    ccc     C4   3791 0.28383300  12.010000   ; qtot 94.649511
 3792         c3    137    ccc     C5   3792 0.32403300  12.010000   ; qtot 94.973544
 3793         h1    137    ccc     H3   3793 0.13386900   1.008000   ; qtot 95.107413
 3794         h1    137    ccc     H4   3794 0.10146700   1.008000   ; qtot 95.208880
 3795         h2    137    ccc     H5   3795 0.10960400   1.008000   ; qtot 95.318484
 3796         os    137    ccc     O1   3796 -0.28650000  16.000000   ; qtot 95.031984
 3797         oh    137    ccc     O2   3797 -0.86012500  16.000000   ; qtot 94.171859
 3798         oh    137    ccc     O3   3798 -0.83772800  16.000000   ; qtot 93.334131
 3799         oh    137    ccc     O4   3799 -0.77449700  16.000000   ; qtot 92.559634
 3800         c3    137    ccc     C6   3800 0.37576500  12.010000   ; qtot 92.935399
 3801         ho    137    ccc     H6   3801 0.53656000   1.008000   ; qtot 93.471959
 3802         ho    137    ccc     H7   3802 0.49492100   1.008000   ; qtot 93.966880
 3803         ho    137    ccc     H8   3803 0.51297200   1.008000   ; qtot 94.479852
 3804         h1    137    ccc     H9   3804 0.05653400   1.008000   ; qtot 94.536386
 3805         h1    137    ccc    H10   3805 0.05653400   1.008000   ; qtot 94.592920
 3806         oh    137    ccc     O5   3806 -0.84113600  16.000000   ; qtot 93.751784
 3807         ho    137    ccc    H11   3807 0.51201600   1.008000   ; qtot 94.263800
 3808         os    137    ccc     O6   3808 -0.26013600  16.000000   ; qtot 94.003664
; residue  138 ccc rtp ccc q 0.0
 3809         c3    138    ccc     C1   3809 -0.33178800  12.010000   ; qtot 93.671876
 3810         c3    138    ccc     C2   3810 0.30606500  12.010000   ; qtot 93.977941
 3811         h1    138    ccc     H1   3811 0.11662300   1.008000   ; qtot 94.094564
 3812         h1    138    ccc     H2   3812 0.11526800   1.008000   ; qtot 94.209832
 3813         c3    138    ccc     C3   3813 0.15592700  12.010000   ; qtot 94.365759
 3814         c3    138    ccc     C4   3814 0.28383300  12.010000   ; qtot 94.649592
 3815         c3    138    ccc     C5   3815 0.32403300  12.010000   ; qtot 94.973625
 3816         h1    138    ccc     H3   3816 0.13386900   1.008000   ; qtot 95.107494
 3817         h1    138    ccc     H4   3817 0.10146700   1.008000   ; qtot 95.208961
 3818         h2    138    ccc     H5   3818 0.10960400   1.008000   ; qtot 95.318565
 3819         os    138    ccc     O1   3819 -0.28650000  16.000000   ; qtot 95.032065
 3820         oh    138    ccc     O2   3820 -0.86012500  16.000000   ; qtot 94.171940
 3821         oh    138    ccc     O3   3821 -0.83772800  16.000000   ; qtot 93.334212
 3822         oh    138    ccc     O4   3822 -0.77449700  16.000000   ; qtot 92.559715
 3823         c3    138    ccc     C6   3823 0.37576500  12.010000   ; qtot 92.935480
 3824         ho    138    ccc     H6   3824 0.53656000   1.008000   ; qtot 93.472040
 3825         ho    138    ccc     H7   3825 0.49492100   1.008000   ; qtot 93.966961
 3826         ho    138    ccc     H8   3826 0.51297200   1.008000   ; qtot 94.479933
 3827         h1    138    ccc     H9   3827 0.05653400   1.008000   ; qtot 94.536467
 3828         h1    138    ccc    H10   3828 0.05653400   1.008000   ; qtot 94.593001
 3829         oh    138    ccc     O5   3829 -0.84113600  16.000000   ; qtot 93.751865
 3830         ho    138    ccc    H11   3830 0.51201600   1.008000   ; qtot 94.263881
 3831         os    138    ccc     O6   3831 -0.26013600  16.000000   ; qtot 94.003745
; residue  139 ccc rtp ccc q 0.0
 3832         c3    139    ccc     C1   3832 -0.33178800  12.010000   ; qtot 93.671957
 3833         c3    139    ccc     C2   3833 0.30606500  12.010000   ; qtot 93.978022
 3834         h1    139    ccc     H1   3834 0.11662300   1.008000   ; qtot 94.094645
 3835         h1    139    ccc     H2   3835 0.11526800   1.008000   ; qtot 94.209913
 3836         c3    139    ccc     C3   3836 0.15592700  12.010000   ; qtot 94.365840
 3837         c3    139    ccc     C4   3837 0.28383300  12.010000   ; qtot 94.649673
 3838         c3    139    ccc     C5   3838 0.32403300  12.010000   ; qtot 94.973706
 3839         h1    139    ccc     H3   3839 0.13386900   1.008000   ; qtot 95.107575
 3840         h1    139    ccc     H4   3840 0.10146700   1.008000   ; qtot 95.209042
 3841         h2    139    ccc     H5   3841 0.10960400   1.008000   ; qtot 95.318646
 3842         os    139    ccc     O1   3842 -0.28650000  16.000000   ; qtot 95.032146
 3843         oh    139    ccc     O2   3843 -0.86012500  16.000000   ; qtot 94.172021
 3844         oh    139    ccc     O3   3844 -0.83772800  16.000000   ; qtot 93.334293
 3845         oh    139    ccc     O4   3845 -0.77449700  16.000000   ; qtot 92.559796
 3846         c3    139    ccc     C6   3846 0.37576500  12.010000   ; qtot 92.935561
 3847         ho    139    ccc     H6   3847 0.53656000   1.008000   ; qtot 93.472121
 3848         ho    139    ccc     H7   3848 0.49492100   1.008000   ; qtot 93.967042
 3849         ho    139    ccc     H8   3849 0.51297200   1.008000   ; qtot 94.480014
 3850         h1    139    ccc     H9   3850 0.05653400   1.008000   ; qtot 94.536548
 3851         h1    139    ccc    H10   3851 0.05653400   1.008000   ; qtot 94.593082
 3852         oh    139    ccc     O5   3852 -0.84113600  16.000000   ; qtot 93.751946
 3853         ho    139    ccc    H11   3853 0.51201600   1.008000   ; qtot 94.263962
 3854         os    139    ccc     O6   3854 -0.26013600  16.000000   ; qtot 94.003826
; residue  140 ccc rtp ccc q 0.0
 3855         c3    140    ccc     C1   3855 -0.33178800  12.010000   ; qtot 93.672038
 3856         c3    140    ccc     C2   3856 0.30606500  12.010000   ; qtot 93.978103
 3857         h1    140    ccc     H1   3857 0.11662300   1.008000   ; qtot 94.094726
 3858         h1    140    ccc     H2   3858 0.11526800   1.008000   ; qtot 94.209994
 3859         c3    140    ccc     C3   3859 0.15592700  12.010000   ; qtot 94.365921
 3860         c3    140    ccc     C4   3860 0.28383300  12.010000   ; qtot 94.649754
 3861         c3    140    ccc     C5   3861 0.32403300  12.010000   ; qtot 94.973787
 3862         h1    140    ccc     H3   3862 0.13386900   1.008000   ; qtot 95.107656
 3863         h1    140    ccc     H4   3863 0.10146700   1.008000   ; qtot 95.209123
 3864         h2    140    ccc     H5   3864 0.10960400   1.008000   ; qtot 95.318727
 3865         os    140    ccc     O1   3865 -0.28650000  16.000000   ; qtot 95.032227
 3866         oh    140    ccc     O2   3866 -0.86012500  16.000000   ; qtot 94.172102
 3867         oh    140    ccc     O3   3867 -0.83772800  16.000000   ; qtot 93.334374
 3868         oh    140    ccc     O4   3868 -0.77449700  16.000000   ; qtot 92.559877
 3869         c3    140    ccc     C6   3869 0.37576500  12.010000   ; qtot 92.935642
 3870         ho    140    ccc     H6   3870 0.53656000   1.008000   ; qtot 93.472202
 3871         ho    140    ccc     H7   3871 0.49492100   1.008000   ; qtot 93.967123
 3872         ho    140    ccc     H8   3872 0.51297200   1.008000   ; qtot 94.480095
 3873         h1    140    ccc     H9   3873 0.05653400   1.008000   ; qtot 94.536629
 3874         h1    140    ccc    H10   3874 0.05653400   1.008000   ; qtot 94.593163
 3875         oh    140    ccc     O5   3875 -0.84113600  16.000000   ; qtot 93.752027
 3876         ho    140    ccc    H11   3876 0.51201600   1.008000   ; qtot 94.264043
 3877         os    140    ccc     O6   3877 -0.26013600  16.000000   ; qtot 94.003907
; residue  141 ccc rtp ccc q 0.0
 3878         c3    141    ccc     C1   3878 -0.33178800  12.010000   ; qtot 93.672119
 3879         c3    141    ccc     C2   3879 0.30606500  12.010000   ; qtot 93.978184
 3880         h1    141    ccc     H1   3880 0.11662300   1.008000   ; qtot 94.094807
 3881         h1    141    ccc     H2   3881 0.11526800   1.008000   ; qtot 94.210075
 3882         c3    141    ccc     C3   3882 0.15592700  12.010000   ; qtot 94.366002
 3883         c3    141    ccc     C4   3883 0.28383300  12.010000   ; qtot 94.649835
 3884         c3    141    ccc     C5   3884 0.32403300  12.010000   ; qtot 94.973868
 3885         h1    141    ccc     H3   3885 0.13386900   1.008000   ; qtot 95.107737
 3886         h1    141    ccc     H4   3886 0.10146700   1.008000   ; qtot 95.209204
 3887         h2    141    ccc     H5   3887 0.10960400   1.008000   ; qtot 95.318808
 3888         os    141    ccc     O1   3888 -0.28650000  16.000000   ; qtot 95.032308
 3889         oh    141    ccc     O2   3889 -0.86012500  16.000000   ; qtot 94.172183
 3890         oh    141    ccc     O3   3890 -0.83772800  16.000000   ; qtot 93.334455
 3891         oh    141    ccc     O4   3891 -0.77449700  16.000000   ; qtot 92.559958
 3892         c3    141    ccc     C6   3892 0.37576500  12.010000   ; qtot 92.935723
 3893         ho    141    ccc     H6   3893 0.53656000   1.008000   ; qtot 93.472283
 3894         ho    141    ccc     H7   3894 0.49492100   1.008000   ; qtot 93.967204
 3895         ho    141    ccc     H8   3895 0.51297200   1.008000   ; qtot 94.480176
 3896         h1    141    ccc     H9   3896 0.05653400   1.008000   ; qtot 94.536710
 3897         h1    141    ccc    H10   3897 0.05653400   1.008000   ; qtot 94.593244
 3898         oh    141    ccc     O5   3898 -0.84113600  16.000000   ; qtot 93.752108
 3899         ho    141    ccc    H11   3899 0.51201600   1.008000   ; qtot 94.264124
 3900         os    141    ccc     O6   3900 -0.26013600  16.000000   ; qtot 94.003988
; residue  142 ccc rtp ccc q 0.0
 3901         c3    142    ccc     C1   3901 -0.33178800  12.010000   ; qtot 93.672200
 3902         c3    142    ccc     C2   3902 0.30606500  12.010000   ; qtot 93.978265
 3903         h1    142    ccc     H1   3903 0.11662300   1.008000   ; qtot 94.094888
 3904         h1    142    ccc     H2   3904 0.11526800   1.008000   ; qtot 94.210156
 3905         c3    142    ccc     C3   3905 0.15592700  12.010000   ; qtot 94.366083
 3906         c3    142    ccc     C4   3906 0.28383300  12.010000   ; qtot 94.649916
 3907         c3    142    ccc     C5   3907 0.32403300  12.010000   ; qtot 94.973949
 3908         h1    142    ccc     H3   3908 0.13386900   1.008000   ; qtot 95.107818
 3909         h1    142    ccc     H4   3909 0.10146700   1.008000   ; qtot 95.209285
 3910         h2    142    ccc     H5   3910 0.10960400   1.008000   ; qtot 95.318889
 3911         os    142    ccc     O1   3911 -0.28650000  16.000000   ; qtot 95.032389
 3912         oh    142    ccc     O2   3912 -0.86012500  16.000000   ; qtot 94.172264
 3913         oh    142    ccc     O3   3913 -0.83772800  16.000000   ; qtot 93.334536
 3914         oh    142    ccc     O4   3914 -0.77449700  16.000000   ; qtot 92.560039
 3915         c3    142    ccc     C6   3915 0.37576500  12.010000   ; qtot 92.935804
 3916         ho    142    ccc     H6   3916 0.53656000   1.008000   ; qtot 93.472364
 3917         ho    142    ccc     H7   3917 0.49492100   1.008000   ; qtot 93.967285
 3918         ho    142    ccc     H8   3918 0.51297200   1.008000   ; qtot 94.480257
 3919         h1    142    ccc     H9   3919 0.05653400   1.008000   ; qtot 94.536791
 3920         h1    142    ccc    H10   3920 0.05653400   1.008000   ; qtot 94.593325
 3921         oh    142    ccc     O5   3921 -0.84113600  16.000000   ; qtot 93.752189
 3922         ho    142    ccc    H11   3922 0.51201600   1.008000   ; qtot 94.264205
 3923         os    142    ccc     O6   3923 -0.26013600  16.000000   ; qtot 94.004069
; residue  143 ccc rtp ccc q 0.0
 3924         c3    143    ccc     C1   3924 -0.33178800  12.010000   ; qtot 93.672281
 3925         c3    143    ccc     C2   3925 0.30606500  12.010000   ; qtot 93.978346
 3926         h1    143    ccc     H1   3926 0.11662300   1.008000   ; qtot 94.094969
 3927         h1    143    ccc     H2   3927 0.11526800   1.008000   ; qtot 94.210237
 3928         c3    143    ccc     C3   3928 0.15592700  12.010000   ; qtot 94.366164
 3929         c3    143    ccc     C4   3929 0.28383300  12.010000   ; qtot 94.649997
 3930         c3    143    ccc     C5   3930 0.32403300  12.010000   ; qtot 94.974030
 3931         h1    143    ccc     H3   3931 0.13386900   1.008000   ; qtot 95.107899
 3932         h1    143    ccc     H4   3932 0.10146700   1.008000   ; qtot 95.209366
 3933         h2    143    ccc     H5   3933 0.10960400   1.008000   ; qtot 95.318970
 3934         os    143    ccc     O1   3934 -0.28650000  16.000000   ; qtot 95.032470
 3935         oh    143    ccc     O2   3935 -0.86012500  16.000000   ; qtot 94.172345
 3936         oh    143    ccc     O3   3936 -0.83772800  16.000000   ; qtot 93.334617
 3937         oh    143    ccc     O4   3937 -0.77449700  16.000000   ; qtot 92.560120
 3938         c3    143    ccc     C6   3938 0.37576500  12.010000   ; qtot 92.935885
 3939         ho    143    ccc     H6   3939 0.53656000   1.008000   ; qtot 93.472445
 3940         ho    143    ccc     H7   3940 0.49492100   1.008000   ; qtot 93.967366
 3941         ho    143    ccc     H8   3941 0.51297200   1.008000   ; qtot 94.480338
 3942         h1    143    ccc     H9   3942 0.05653400   1.008000   ; qtot 94.536872
 3943         h1    143    ccc    H10   3943 0.05653400   1.008000   ; qtot 94.593406
 3944         oh    143    ccc     O5   3944 -0.84113600  16.000000   ; qtot 93.752270
 3945         ho    143    ccc    H11   3945 0.51201600   1.008000   ; qtot 94.264286
 3946         os    143    ccc     O6   3946 -0.26013600  16.000000   ; qtot 94.004150
; residue  144 ccc rtp ccc q 0.0
 3947         c3    144    ccc     C1   3947 -0.33178800  12.010000   ; qtot 93.672362
 3948         c3    144    ccc     C2   3948 0.30606500  12.010000   ; qtot 93.978427
 3949         h1    144    ccc     H1   3949 0.11662300   1.008000   ; qtot 94.095050
 3950         h1    144    ccc     H2   3950 0.11526800   1.008000   ; qtot 94.210318
 3951         c3    144    ccc     C3   3951 0.15592700  12.010000   ; qtot 94.366245
 3952         c3    144    ccc     C4   3952 0.28383300  12.010000   ; qtot 94.650078
 3953         c3    144    ccc     C5   3953 0.32403300  12.010000   ; qtot 94.974111
 3954         h1    144    ccc     H3   3954 0.13386900   1.008000   ; qtot 95.107980
 3955         h1    144    ccc     H4   3955 0.10146700   1.008000   ; qtot 95.209447
 3956         h2    144    ccc     H5   3956 0.10960400   1.008000   ; qtot 95.319051
 3957         os    144    ccc     O1   3957 -0.28650000  16.000000   ; qtot 95.032551
 3958         oh    144    ccc     O2   3958 -0.86012500  16.000000   ; qtot 94.172426
 3959         oh    144    ccc     O3   3959 -0.83772800  16.000000   ; qtot 93.334698
 3960         oh    144    ccc     O4   3960 -0.77449700  16.000000   ; qtot 92.560201
 3961         c3    144    ccc     C6   3961 0.37576500  12.010000   ; qtot 92.935966
 3962         ho    144    ccc     H6   3962 0.53656000   1.008000   ; qtot 93.472526
 3963         ho    144    ccc     H7   3963 0.49492100   1.008000   ; qtot 93.967447
 3964         ho    144    ccc     H8   3964 0.51297200   1.008000   ; qtot 94.480419
 3965         h1    144    ccc     H9   3965 0.05653400   1.008000   ; qtot 94.536953
 3966         h1    144    ccc    H10   3966 0.05653400   1.008000   ; qtot 94.593487
 3967         oh    144    ccc     O5   3967 -0.84113600  16.000000   ; qtot 93.752351
 3968         ho    144    ccc    H11   3968 0.51201600   1.008000   ; qtot 94.264367
 3969         os    144    ccc     O6   3969 -0.26013600  16.000000   ; qtot 94.004231
; residue  145 ccc rtp ccc q 0.0
 3970         c3    145    ccc     C1   3970 -0.33178800  12.010000   ; qtot 93.672443
 3971         c3    145    ccc     C2   3971 0.30606500  12.010000   ; qtot 93.978508
 3972         h1    145    ccc     H1   3972 0.11662300   1.008000   ; qtot 94.095131
 3973         h1    145    ccc     H2   3973 0.11526800   1.008000   ; qtot 94.210399
 3974         c3    145    ccc     C3   3974 0.15592700  12.010000   ; qtot 94.366326
 3975         c3    145    ccc     C4   3975 0.28383300  12.010000   ; qtot 94.650159
 3976         c3    145    ccc     C5   3976 0.32403300  12.010000   ; qtot 94.974192
 3977         h1    145    ccc     H3   3977 0.13386900   1.008000   ; qtot 95.108061
 3978         h1    145    ccc     H4   3978 0.10146700   1.008000   ; qtot 95.209528
 3979         h2    145    ccc     H5   3979 0.10960400   1.008000   ; qtot 95.319132
 3980         os    145    ccc     O1   3980 -0.28650000  16.000000   ; qtot 95.032632
 3981         oh    145    ccc     O2   3981 -0.86012500  16.000000   ; qtot 94.172507
 3982         oh    145    ccc     O3   3982 -0.83772800  16.000000   ; qtot 93.334779
 3983         oh    145    ccc     O4   3983 -0.77449700  16.000000   ; qtot 92.560282
 3984         c3    145    ccc     C6   3984 0.37576500  12.010000   ; qtot 92.936047
 3985         ho    145    ccc     H6   3985 0.53656000   1.008000   ; qtot 93.472607
 3986         ho    145    ccc     H7   3986 0.49492100   1.008000   ; qtot 93.967528
 3987         ho    145    ccc     H8   3987 0.51297200   1.008000   ; qtot 94.480500
 3988         h1    145    ccc     H9   3988 0.05653400   1.008000   ; qtot 94.537034
 3989         h1    145    ccc    H10   3989 0.05653400   1.008000   ; qtot 94.593568
 3990         oh    145    ccc     O5   3990 -0.84113600  16.000000   ; qtot 93.752432
 3991         ho    145    ccc    H11   3991 0.51201600   1.008000   ; qtot 94.264448
 3992         os    145    ccc     O6   3992 -0.26013600  16.000000   ; qtot 94.004312
; residue  146 ccc rtp ccc q 0.0
 3993         c3    146    ccc     C1   3993 -0.33178800  12.010000   ; qtot 93.672524
 3994         c3    146    ccc     C2   3994 0.30606500  12.010000   ; qtot 93.978589
 3995         h1    146    ccc     H1   3995 0.11662300   1.008000   ; qtot 94.095212
 3996         h1    146    ccc     H2   3996 0.11526800   1.008000   ; qtot 94.210480
 3997         c3    146    ccc     C3   3997 0.15592700  12.010000   ; qtot 94.366407
 3998         c3    146    ccc     C4   3998 0.28383300  12.010000   ; qtot 94.650240
 3999         c3    146    ccc     C5   3999 0.32403300  12.010000   ; qtot 94.974273
 4000         h1    146    ccc     H3   4000 0.13386900   1.008000   ; qtot 95.108142
 4001         h1    146    ccc     H4   4001 0.10146700   1.008000   ; qtot 95.209609
 4002         h2    146    ccc     H5   4002 0.10960400   1.008000   ; qtot 95.319213
 4003         os    146    ccc     O1   4003 -0.28650000  16.000000   ; qtot 95.032713
 4004         oh    146    ccc     O2   4004 -0.86012500  16.000000   ; qtot 94.172588
 4005         oh    146    ccc     O3   4005 -0.83772800  16.000000   ; qtot 93.334860
 4006         oh    146    ccc     O4   4006 -0.77449700  16.000000   ; qtot 92.560363
 4007         c3    146    ccc     C6   4007 0.37576500  12.010000   ; qtot 92.936128
 4008         ho    146    ccc     H6   4008 0.53656000   1.008000   ; qtot 93.472688
 4009         ho    146    ccc     H7   4009 0.49492100   1.008000   ; qtot 93.967609
 4010         ho    146    ccc     H8   4010 0.51297200   1.008000   ; qtot 94.480581
 4011         h1    146    ccc     H9   4011 0.05653400   1.008000   ; qtot 94.537115
 4012         h1    146    ccc    H10   4012 0.05653400   1.008000   ; qtot 94.593649
 4013         oh    146    ccc     O5   4013 -0.84113600  16.000000   ; qtot 93.752513
 4014         ho    146    ccc    H11   4014 0.51201600   1.008000   ; qtot 94.264529
 4015         os    146    ccc     O6   4015 -0.26013600  16.000000   ; qtot 94.004393
; residue  147 ccc rtp ccc q 0.0
 4016         c3    147    ccc     C1   4016 -0.33178800  12.010000   ; qtot 93.672605
 4017         c3    147    ccc     C2   4017 0.30606500  12.010000   ; qtot 93.978670
 4018         h1    147    ccc     H1   4018 0.11662300   1.008000   ; qtot 94.095293
 4019         h1    147    ccc     H2   4019 0.11526800   1.008000   ; qtot 94.210561
 4020         c3    147    ccc     C3   4020 0.15592700  12.010000   ; qtot 94.366488
 4021         c3    147    ccc     C4   4021 0.28383300  12.010000   ; qtot 94.650321
 4022         c3    147    ccc     C5   4022 0.32403300  12.010000   ; qtot 94.974354
 4023         h1    147    ccc     H3   4023 0.13386900   1.008000   ; qtot 95.108223
 4024         h1    147    ccc     H4   4024 0.10146700   1.008000   ; qtot 95.209690
 4025         h2    147    ccc     H5   4025 0.10960400   1.008000   ; qtot 95.319294
 4026         os    147    ccc     O1   4026 -0.28650000  16.000000   ; qtot 95.032794
 4027         oh    147    ccc     O2   4027 -0.86012500  16.000000   ; qtot 94.172669
 4028         oh    147    ccc     O3   4028 -0.83772800  16.000000   ; qtot 93.334941
 4029         oh    147    ccc     O4   4029 -0.77449700  16.000000   ; qtot 92.560444
 4030         c3    147    ccc     C6   4030 0.37576500  12.010000   ; qtot 92.936209
 4031         ho    147    ccc     H6   4031 0.53656000   1.008000   ; qtot 93.472769
 4032         ho    147    ccc     H7   4032 0.49492100   1.008000   ; qtot 93.967690
 4033         ho    147    ccc     H8   4033 0.51297200   1.008000   ; qtot 94.480662
 4034         h1    147    ccc     H9   4034 0.05653400   1.008000   ; qtot 94.537196
 4035         h1    147    ccc    H10   4035 0.05653400   1.008000   ; qtot 94.593730
 4036         oh    147    ccc     O5   4036 -0.84113600  16.000000   ; qtot 93.752594
 4037         ho    147    ccc    H11   4037 0.51201600   1.008000   ; qtot 94.264610
 4038         os    147    ccc     O6   4038 -0.26013600  16.000000   ; qtot 94.004474
; residue  148 ccc rtp ccc q 0.0
 4039         c3    148    ccc     C1   4039 -0.33178800  12.010000   ; qtot 93.672686
 4040         c3    148    ccc     C2   4040 0.30606500  12.010000   ; qtot 93.978751
 4041         h1    148    ccc     H1   4041 0.11662300   1.008000   ; qtot 94.095374
 4042         h1    148    ccc     H2   4042 0.11526800   1.008000   ; qtot 94.210642
 4043         c3    148    ccc     C3   4043 0.15592700  12.010000   ; qtot 94.366569
 4044         c3    148    ccc     C4   4044 0.28383300  12.010000   ; qtot 94.650402
 4045         c3    148    ccc     C5   4045 0.32403300  12.010000   ; qtot 94.974435
 4046         h1    148    ccc     H3   4046 0.13386900   1.008000   ; qtot 95.108304
 4047         h1    148    ccc     H4   4047 0.10146700   1.008000   ; qtot 95.209771
 4048         h2    148    ccc     H5   4048 0.10960400   1.008000   ; qtot 95.319375
 4049         os    148    ccc     O1   4049 -0.28650000  16.000000   ; qtot 95.032875
 4050         oh    148    ccc     O2   4050 -0.86012500  16.000000   ; qtot 94.172750
 4051         oh    148    ccc     O3   4051 -0.83772800  16.000000   ; qtot 93.335022
 4052         oh    148    ccc     O4   4052 -0.77449700  16.000000   ; qtot 92.560525
 4053         c3    148    ccc     C6   4053 0.37576500  12.010000   ; qtot 92.936290
 4054         ho    148    ccc     H6   4054 0.53656000   1.008000   ; qtot 93.472850
 4055         ho    148    ccc     H7   4055 0.49492100   1.008000   ; qtot 93.967771
 4056         ho    148    ccc     H8   4056 0.51297200   1.008000   ; qtot 94.480743
 4057         h1    148    ccc     H9   4057 0.05653400   1.008000   ; qtot 94.537277
 4058         h1    148    ccc    H10   4058 0.05653400   1.008000   ; qtot 94.593811
 4059         oh    148    ccc     O5   4059 -0.84113600  16.000000   ; qtot 93.752675
 4060         ho    148    ccc    H11   4060 0.51201600   1.008000   ; qtot 94.264691
 4061         os    148    ccc     O6   4061 -0.26013600  16.000000   ; qtot 94.004555
; residue  149 ccc rtp ccc q 0.0
 4062         c3    149    ccc     C1   4062 -0.33178800  12.010000   ; qtot 93.672767
 4063         c3    149    ccc     C2   4063 0.30606500  12.010000   ; qtot 93.978832
 4064         h1    149    ccc     H1   4064 0.11662300   1.008000   ; qtot 94.095455
 4065         h1    149    ccc     H2   4065 0.11526800   1.008000   ; qtot 94.210723
 4066         c3    149    ccc     C3   4066 0.15592700  12.010000   ; qtot 94.366650
 4067         c3    149    ccc     C4   4067 0.28383300  12.010000   ; qtot 94.650483
 4068         c3    149    ccc     C5   4068 0.32403300  12.010000   ; qtot 94.974516
 4069         h1    149    ccc     H3   4069 0.13386900   1.008000   ; qtot 95.108385
 4070         h1    149    ccc     H4   4070 0.10146700   1.008000   ; qtot 95.209852
 4071         h2    149    ccc     H5   4071 0.10960400   1.008000   ; qtot 95.319456
 4072         os    149    ccc     O1   4072 -0.28650000  16.000000   ; qtot 95.032956
 4073         oh    149    ccc     O2   4073 -0.86012500  16.000000   ; qtot 94.172831
 4074         oh    149    ccc     O3   4074 -0.83772800  16.000000   ; qtot 93.335103
 4075         oh    149    ccc     O4   4075 -0.77449700  16.000000   ; qtot 92.560606
 4076         c3    149    ccc     C6   4076 0.37576500  12.010000   ; qtot 92.936371
 4077         ho    149    ccc     H6   4077 0.53656000   1.008000   ; qtot 93.472931
 4078         ho    149    ccc     H7   4078 0.49492100   1.008000   ; qtot 93.967852
 4079         ho    149    ccc     H8   4079 0.51297200   1.008000   ; qtot 94.480824
 4080         h1    149    ccc     H9   4080 0.05653400   1.008000   ; qtot 94.537358
 4081         h1    149    ccc    H10   4081 0.05653400   1.008000   ; qtot 94.593892
 4082         oh    149    ccc     O5   4082 -0.84113600  16.000000   ; qtot 93.752756
 4083         ho    149    ccc    H11   4083 0.51201600   1.008000   ; qtot 94.264772
 4084         os    149    ccc     O6   4084 -0.26013600  16.000000   ; qtot 94.004636
; residue  150 ccc rtp ccc q 0.0
 4085         c3    150    ccc     C1   4085 -0.33178800  12.010000   ; qtot 93.672848
 4086         c3    150    ccc     C2   4086 0.30606500  12.010000   ; qtot 93.978913
 4087         h1    150    ccc     H1   4087 0.11662300   1.008000   ; qtot 94.095536
 4088         h1    150    ccc     H2   4088 0.11526800   1.008000   ; qtot 94.210804
 4089         c3    150    ccc     C3   4089 0.15592700  12.010000   ; qtot 94.366731
 4090         c3    150    ccc     C4   4090 0.28383300  12.010000   ; qtot 94.650564
 4091         c3    150    ccc     C5   4091 0.32403300  12.010000   ; qtot 94.974597
 4092         h1    150    ccc     H3   4092 0.13386900   1.008000   ; qtot 95.108466
 4093         h1    150    ccc     H4   4093 0.10146700   1.008000   ; qtot 95.209933
 4094         h2    150    ccc     H5   4094 0.10960400   1.008000   ; qtot 95.319537
 4095         os    150    ccc     O1   4095 -0.28650000  16.000000   ; qtot 95.033037
 4096         oh    150    ccc     O2   4096 -0.86012500  16.000000   ; qtot 94.172912
 4097         oh    150    ccc     O3   4097 -0.83772800  16.000000   ; qtot 93.335184
 4098         oh    150    ccc     O4   4098 -0.77449700  16.000000   ; qtot 92.560687
 4099         c3    150    ccc     C6   4099 0.37576500  12.010000   ; qtot 92.936452
 4100         ho    150    ccc     H6   4100 0.53656000   1.008000   ; qtot 93.473012
 4101         ho    150    ccc     H7   4101 0.49492100   1.008000   ; qtot 93.967933
 4102         ho    150    ccc     H8   4102 0.51297200   1.008000   ; qtot 94.480905
 4103         h1    150    ccc     H9   4103 0.05653400   1.008000   ; qtot 94.537439
 4104         h1    150    ccc    H10   4104 0.05653400   1.008000   ; qtot 94.593973
 4105         oh    150    ccc     O5   4105 -0.84113600  16.000000   ; qtot 93.752837
 4106         ho    150    ccc    H11   4106 0.51201600   1.008000   ; qtot 94.264853
 4107         os    150    ccc     O6   4107 -0.26013600  16.000000   ; qtot 94.004717
; residue  151 ccc rtp ccc q 0.0
 4108         c3    151    ccc     C1   4108 -0.33178800  12.010000   ; qtot 93.672929
 4109         c3    151    ccc     C2   4109 0.30606500  12.010000   ; qtot 93.978994
 4110         h1    151    ccc     H1   4110 0.11662300   1.008000   ; qtot 94.095617
 4111         h1    151    ccc     H2   4111 0.11526800   1.008000   ; qtot 94.210885
 4112         c3    151    ccc     C3   4112 0.15592700  12.010000   ; qtot 94.366812
 4113         c3    151    ccc     C4   4113 0.28383300  12.010000   ; qtot 94.650645
 4114         c3    151    ccc     C5   4114 0.32403300  12.010000   ; qtot 94.974678
 4115         h1    151    ccc     H3   4115 0.13386900   1.008000   ; qtot 95.108547
 4116         h1    151    ccc     H4   4116 0.10146700   1.008000   ; qtot 95.210014
 4117         h2    151    ccc     H5   4117 0.10960400   1.008000   ; qtot 95.319618
 4118         os    151    ccc     O1   4118 -0.28650000  16.000000   ; qtot 95.033118
 4119         oh    151    ccc     O2   4119 -0.86012500  16.000000   ; qtot 94.172993
 4120         oh    151    ccc     O3   4120 -0.83772800  16.000000   ; qtot 93.335265
 4121         oh    151    ccc     O4   4121 -0.77449700  16.000000   ; qtot 92.560768
 4122         c3    151    ccc     C6   4122 0.37576500  12.010000   ; qtot 92.936533
 4123         ho    151    ccc     H6   4123 0.53656000   1.008000   ; qtot 93.473093
 4124         ho    151    ccc     H7   4124 0.49492100   1.008000   ; qtot 93.968014
 4125         ho    151    ccc     H8   4125 0.51297200   1.008000   ; qtot 94.480986
 4126         h1    151    ccc     H9   4126 0.05653400   1.008000   ; qtot 94.537520
 4127         h1    151    ccc    H10   4127 0.05653400   1.008000   ; qtot 94.594054
 4128         oh    151    ccc     O5   4128 -0.84113600  16.000000   ; qtot 93.752918
 4129         ho    151    ccc    H11   4129 0.51201600   1.008000   ; qtot 94.264934
 4130         os    151    ccc     O6   4130 -0.26013600  16.000000   ; qtot 94.004798
; residue  152 ccc rtp ccc q 0.0
 4131         c3    152    ccc     C1   4131 -0.33178800  12.010000   ; qtot 93.673010
 4132         c3    152    ccc     C2   4132 0.30606500  12.010000   ; qtot 93.979075
 4133         h1    152    ccc     H1   4133 0.11662300   1.008000   ; qtot 94.095698
 4134         h1    152    ccc     H2   4134 0.11526800   1.008000   ; qtot 94.210966
 4135         c3    152    ccc     C3   4135 0.15592700  12.010000   ; qtot 94.366893
 4136         c3    152    ccc     C4   4136 0.28383300  12.010000   ; qtot 94.650726
 4137         c3    152    ccc     C5   4137 0.32403300  12.010000   ; qtot 94.974759
 4138         h1    152    ccc     H3   4138 0.13386900   1.008000   ; qtot 95.108628
 4139         h1    152    ccc     H4   4139 0.10146700   1.008000   ; qtot 95.210095
 4140         h2    152    ccc     H5   4140 0.10960400   1.008000   ; qtot 95.319699
 4141         os    152    ccc     O1   4141 -0.28650000  16.000000   ; qtot 95.033199
 4142         oh    152    ccc     O2   4142 -0.86012500  16.000000   ; qtot 94.173074
 4143         oh    152    ccc     O3   4143 -0.83772800  16.000000   ; qtot 93.335346
 4144         oh    152    ccc     O4   4144 -0.77449700  16.000000   ; qtot 92.560849
 4145         c3    152    ccc     C6   4145 0.37576500  12.010000   ; qtot 92.936614
 4146         ho    152    ccc     H6   4146 0.53656000   1.008000   ; qtot 93.473174
 4147         ho    152    ccc     H7   4147 0.49492100   1.008000   ; qtot 93.968095
 4148         ho    152    ccc     H8   4148 0.51297200   1.008000   ; qtot 94.481067
 4149         h1    152    ccc     H9   4149 0.05653400   1.008000   ; qtot 94.537601
 4150         h1    152    ccc    H10   4150 0.05653400   1.008000   ; qtot 94.594135
 4151         oh    152    ccc     O5   4151 -0.84113600  16.000000   ; qtot 93.752999
 4152         ho    152    ccc    H11   4152 0.51201600   1.008000   ; qtot 94.265015
 4153         os    152    ccc     O6   4153 -0.26013600  16.000000   ; qtot 94.004879
; residue  153 ccc rtp ccc q 0.0
 4154         c3    153    ccc     C1   4154 -0.33178800  12.010000   ; qtot 93.673091
 4155         c3    153    ccc     C2   4155 0.30606500  12.010000   ; qtot 93.979156
 4156         h1    153    ccc     H1   4156 0.11662300   1.008000   ; qtot 94.095779
 4157         h1    153    ccc     H2   4157 0.11526800   1.008000   ; qtot 94.211047
 4158         c3    153    ccc     C3   4158 0.15592700  12.010000   ; qtot 94.366974
 4159         c3    153    ccc     C4   4159 0.28383300  12.010000   ; qtot 94.650807
 4160         c3    153    ccc     C5   4160 0.32403300  12.010000   ; qtot 94.974840
 4161         h1    153    ccc     H3   4161 0.13386900   1.008000   ; qtot 95.108709
 4162         h1    153    ccc     H4   4162 0.10146700   1.008000   ; qtot 95.210176
 4163         h2    153    ccc     H5   4163 0.10960400   1.008000   ; qtot 95.319780
 4164         os    153    ccc     O1   4164 -0.28650000  16.000000   ; qtot 95.033280
 4165         oh    153    ccc     O2   4165 -0.86012500  16.000000   ; qtot 94.173155
 4166         oh    153    ccc     O3   4166 -0.83772800  16.000000   ; qtot 93.335427
 4167         oh    153    ccc     O4   4167 -0.77449700  16.000000   ; qtot 92.560930
 4168         c3    153    ccc     C6   4168 0.37576500  12.010000   ; qtot 92.936695
 4169         ho    153    ccc     H6   4169 0.53656000   1.008000   ; qtot 93.473255
 4170         ho    153    ccc     H7   4170 0.49492100   1.008000   ; qtot 93.968176
 4171         ho    153    ccc     H8   4171 0.51297200   1.008000   ; qtot 94.481148
 4172         h1    153    ccc     H9   4172 0.05653400   1.008000   ; qtot 94.537682
 4173         h1    153    ccc    H10   4173 0.05653400   1.008000   ; qtot 94.594216
 4174         oh    153    ccc     O5   4174 -0.84113600  16.000000   ; qtot 93.753080
 4175         ho    153    ccc    H11   4175 0.51201600   1.008000   ; qtot 94.265096
 4176         os    153    ccc     O6   4176 -0.26013600  16.000000   ; qtot 94.004960
; residue  154 ccc rtp ccc q 0.0
 4177         c3    154    ccc     C1   4177 -0.33178800  12.010000   ; qtot 93.673172
 4178         c3    154    ccc     C2   4178 0.30606500  12.010000   ; qtot 93.979237
 4179         h1    154    ccc     H1   4179 0.11662300   1.008000   ; qtot 94.095860
 4180         h1    154    ccc     H2   4180 0.11526800   1.008000   ; qtot 94.211128
 4181         c3    154    ccc     C3   4181 0.15592700  12.010000   ; qtot 94.367055
 4182         c3    154    ccc     C4   4182 0.28383300  12.010000   ; qtot 94.650888
 4183         c3    154    ccc     C5   4183 0.32403300  12.010000   ; qtot 94.974921
 4184         h1    154    ccc     H3   4184 0.13386900   1.008000   ; qtot 95.108790
 4185         h1    154    ccc     H4   4185 0.10146700   1.008000   ; qtot 95.210257
 4186         h2    154    ccc     H5   4186 0.10960400   1.008000   ; qtot 95.319861
 4187         os    154    ccc     O1   4187 -0.28650000  16.000000   ; qtot 95.033361
 4188         oh    154    ccc     O2   4188 -0.86012500  16.000000   ; qtot 94.173236
 4189         oh    154    ccc     O3   4189 -0.83772800  16.000000   ; qtot 93.335508
 4190         oh    154    ccc     O4   4190 -0.77449700  16.000000   ; qtot 92.561011
 4191         c3    154    ccc     C6   4191 0.37576500  12.010000   ; qtot 92.936776
 4192         ho    154    ccc     H6   4192 0.53656000   1.008000   ; qtot 93.473336
 4193         ho    154    ccc     H7   4193 0.49492100   1.008000   ; qtot 93.968257
 4194         ho    154    ccc     H8   4194 0.51297200   1.008000   ; qtot 94.481229
 4195         h1    154    ccc     H9   4195 0.05653400   1.008000   ; qtot 94.537763
 4196         h1    154    ccc    H10   4196 0.05653400   1.008000   ; qtot 94.594297
 4197         oh    154    ccc     O5   4197 -0.84113600  16.000000   ; qtot 93.753161
 4198         ho    154    ccc    H11   4198 0.51201600   1.008000   ; qtot 94.265177
 4199         os    154    ccc     O6   4199 -0.26013600  16.000000   ; qtot 94.005041
; residue  155 ccc rtp ccc q 0.0
 4200         c3    155    ccc     C1   4200 -0.33178800  12.010000   ; qtot 93.673253
 4201         c3    155    ccc     C2   4201 0.30606500  12.010000   ; qtot 93.979318
 4202         h1    155    ccc     H1   4202 0.11662300   1.008000   ; qtot 94.095941
 4203         h1    155    ccc     H2   4203 0.11526800   1.008000   ; qtot 94.211209
 4204         c3    155    ccc     C3   4204 0.15592700  12.010000   ; qtot 94.367136
 4205         c3    155    ccc     C4   4205 0.28383300  12.010000   ; qtot 94.650969
 4206         c3    155    ccc     C5   4206 0.32403300  12.010000   ; qtot 94.975002
 4207         h1    155    ccc     H3   4207 0.13386900   1.008000   ; qtot 95.108871
 4208         h1    155    ccc     H4   4208 0.10146700   1.008000   ; qtot 95.210338
 4209         h2    155    ccc     H5   4209 0.10960400   1.008000   ; qtot 95.319942
 4210         os    155    ccc     O1   4210 -0.28650000  16.000000   ; qtot 95.033442
 4211         oh    155    ccc     O2   4211 -0.86012500  16.000000   ; qtot 94.173317
 4212         oh    155    ccc     O3   4212 -0.83772800  16.000000   ; qtot 93.335589
 4213         oh    155    ccc     O4   4213 -0.77449700  16.000000   ; qtot 92.561092
 4214         c3    155    ccc     C6   4214 0.37576500  12.010000   ; qtot 92.936857
 4215         ho    155    ccc     H6   4215 0.53656000   1.008000   ; qtot 93.473417
 4216         ho    155    ccc     H7   4216 0.49492100   1.008000   ; qtot 93.968338
 4217         ho    155    ccc     H8   4217 0.51297200   1.008000   ; qtot 94.481310
 4218         h1    155    ccc     H9   4218 0.05653400   1.008000   ; qtot 94.537844
 4219         h1    155    ccc    H10   4219 0.05653400   1.008000   ; qtot 94.594378
 4220         oh    155    ccc     O5   4220 -0.84113600  16.000000   ; qtot 93.753242
 4221         ho    155    ccc    H11   4221 0.51201600   1.008000   ; qtot 94.265258
 4222         os    155    ccc     O6   4222 -0.26013600  16.000000   ; qtot 94.005122
; residue  156 ccc rtp ccc q 0.0
 4223         c3    156    ccc     C1   4223 -0.33178800  12.010000   ; qtot 93.673334
 4224         c3    156    ccc     C2   4224 0.30606500  12.010000   ; qtot 93.979399
 4225         h1    156    ccc     H1   4225 0.11662300   1.008000   ; qtot 94.096022
 4226         h1    156    ccc     H2   4226 0.11526800   1.008000   ; qtot 94.211290
 4227         c3    156    ccc     C3   4227 0.15592700  12.010000   ; qtot 94.367217
 4228         c3    156    ccc     C4   4228 0.28383300  12.010000   ; qtot 94.651050
 4229         c3    156    ccc     C5   4229 0.32403300  12.010000   ; qtot 94.975083
 4230         h1    156    ccc     H3   4230 0.13386900   1.008000   ; qtot 95.108952
 4231         h1    156    ccc     H4   4231 0.10146700   1.008000   ; qtot 95.210419
 4232         h2    156    ccc     H5   4232 0.10960400   1.008000   ; qtot 95.320023
 4233         os    156    ccc     O1   4233 -0.28650000  16.000000   ; qtot 95.033523
 4234         oh    156    ccc     O2   4234 -0.86012500  16.000000   ; qtot 94.173398
 4235         oh    156    ccc     O3   4235 -0.83772800  16.000000   ; qtot 93.335670
 4236         oh    156    ccc     O4   4236 -0.77449700  16.000000   ; qtot 92.561173
 4237         c3    156    ccc     C6   4237 0.37576500  12.010000   ; qtot 92.936938
 4238         ho    156    ccc     H6   4238 0.53656000   1.008000   ; qtot 93.473498
 4239         ho    156    ccc     H7   4239 0.49492100   1.008000   ; qtot 93.968419
 4240         ho    156    ccc     H8   4240 0.51297200   1.008000   ; qtot 94.481391
 4241         h1    156    ccc     H9   4241 0.05653400   1.008000   ; qtot 94.537925
 4242         h1    156    ccc    H10   4242 0.05653400   1.008000   ; qtot 94.594459
 4243         oh    156    ccc     O5   4243 -0.84113600  16.000000   ; qtot 93.753323
 4244         ho    156    ccc    H11   4244 0.51201600   1.008000   ; qtot 94.265339
 4245         os    156    ccc     O6   4245 -0.26013600  16.000000   ; qtot 94.005203
; residue  157 ccc rtp ccc q 0.0
 4246         c3    157    ccc     C1   4246 -0.33178800  12.010000   ; qtot 93.673415
 4247         c3    157    ccc     C2   4247 0.30606500  12.010000   ; qtot 93.979480
 4248         h1    157    ccc     H1   4248 0.11662300   1.008000   ; qtot 94.096103
 4249         h1    157    ccc     H2   4249 0.11526800   1.008000   ; qtot 94.211371
 4250         c3    157    ccc     C3   4250 0.15592700  12.010000   ; qtot 94.367298
 4251         c3    157    ccc     C4   4251 0.28383300  12.010000   ; qtot 94.651131
 4252         c3    157    ccc     C5   4252 0.32403300  12.010000   ; qtot 94.975164
 4253         h1    157    ccc     H3   4253 0.13386900   1.008000   ; qtot 95.109033
 4254         h1    157    ccc     H4   4254 0.10146700   1.008000   ; qtot 95.210500
 4255         h2    157    ccc     H5   4255 0.10960400   1.008000   ; qtot 95.320104
 4256         os    157    ccc     O1   4256 -0.28650000  16.000000   ; qtot 95.033604
 4257         oh    157    ccc     O2   4257 -0.86012500  16.000000   ; qtot 94.173479
 4258         oh    157    ccc     O3   4258 -0.83772800  16.000000   ; qtot 93.335751
 4259         oh    157    ccc     O4   4259 -0.77449700  16.000000   ; qtot 92.561254
 4260         c3    157    ccc     C6   4260 0.37576500  12.010000   ; qtot 92.937019
 4261         ho    157    ccc     H6   4261 0.53656000   1.008000   ; qtot 93.473579
 4262         ho    157    ccc     H7   4262 0.49492100   1.008000   ; qtot 93.968500
 4263         ho    157    ccc     H8   4263 0.51297200   1.008000   ; qtot 94.481472
 4264         h1    157    ccc     H9   4264 0.05653400   1.008000   ; qtot 94.538006
 4265         h1    157    ccc    H10   4265 0.05653400   1.008000   ; qtot 94.594540
 4266         oh    157    ccc     O5   4266 -0.84113600  16.000000   ; qtot 93.753404
 4267         ho    157    ccc    H11   4267 0.51201600   1.008000   ; qtot 94.265420
 4268         os    157    ccc     O6   4268 -0.26013600  16.000000   ; qtot 94.005284
; residue  158 ccc rtp ccc q 0.0
 4269         c3    158    ccc     C1   4269 -0.33178800  12.010000   ; qtot 93.673496
 4270         c3    158    ccc     C2   4270 0.30606500  12.010000   ; qtot 93.979561
 4271         h1    158    ccc     H1   4271 0.11662300   1.008000   ; qtot 94.096184
 4272         h1    158    ccc     H2   4272 0.11526800   1.008000   ; qtot 94.211452
 4273         c3    158    ccc     C3   4273 0.15592700  12.010000   ; qtot 94.367379
 4274         c3    158    ccc     C4   4274 0.28383300  12.010000   ; qtot 94.651212
 4275         c3    158    ccc     C5   4275 0.32403300  12.010000   ; qtot 94.975245
 4276         h1    158    ccc     H3   4276 0.13386900   1.008000   ; qtot 95.109114
 4277         h1    158    ccc     H4   4277 0.10146700   1.008000   ; qtot 95.210581
 4278         h2    158    ccc     H5   4278 0.10960400   1.008000   ; qtot 95.320185
 4279         os    158    ccc     O1   4279 -0.28650000  16.000000   ; qtot 95.033685
 4280         oh    158    ccc     O2   4280 -0.86012500  16.000000   ; qtot 94.173560
 4281         oh    158    ccc     O3   4281 -0.83772800  16.000000   ; qtot 93.335832
 4282         oh    158    ccc     O4   4282 -0.77449700  16.000000   ; qtot 92.561335
 4283         c3    158    ccc     C6   4283 0.37576500  12.010000   ; qtot 92.937100
 4284         ho    158    ccc     H6   4284 0.53656000   1.008000   ; qtot 93.473660
 4285         ho    158    ccc     H7   4285 0.49492100   1.008000   ; qtot 93.968581
 4286         ho    158    ccc     H8   4286 0.51297200   1.008000   ; qtot 94.481553
 4287         h1    158    ccc     H9   4287 0.05653400   1.008000   ; qtot 94.538087
 4288         h1    158    ccc    H10   4288 0.05653400   1.008000   ; qtot 94.594621
 4289         oh    158    ccc     O5   4289 -0.84113600  16.000000   ; qtot 93.753485
 4290         ho    158    ccc    H11   4290 0.51201600   1.008000   ; qtot 94.265501
 4291         os    158    ccc     O6   4291 -0.26013600  16.000000   ; qtot 94.005365
; residue  159 ccc rtp ccc q 0.0
 4292         c3    159    ccc     C1   4292 -0.33178800  12.010000   ; qtot 93.673577
 4293         c3    159    ccc     C2   4293 0.30606500  12.010000   ; qtot 93.979642
 4294         h1    159    ccc     H1   4294 0.11662300   1.008000   ; qtot 94.096265
 4295         h1    159    ccc     H2   4295 0.11526800   1.008000   ; qtot 94.211533
 4296         c3    159    ccc     C3   4296 0.15592700  12.010000   ; qtot 94.367460
 4297         c3    159    ccc     C4   4297 0.28383300  12.010000   ; qtot 94.651293
 4298         c3    159    ccc     C5   4298 0.32403300  12.010000   ; qtot 94.975326
 4299         h1    159    ccc     H3   4299 0.13386900   1.008000   ; qtot 95.109195
 4300         h1    159    ccc     H4   4300 0.10146700   1.008000   ; qtot 95.210662
 4301         h2    159    ccc     H5   4301 0.10960400   1.008000   ; qtot 95.320266
 4302         os    159    ccc     O1   4302 -0.28650000  16.000000   ; qtot 95.033766
 4303         oh    159    ccc     O2   4303 -0.86012500  16.000000   ; qtot 94.173641
 4304         oh    159    ccc     O3   4304 -0.83772800  16.000000   ; qtot 93.335913
 4305         oh    159    ccc     O4   4305 -0.77449700  16.000000   ; qtot 92.561416
 4306         c3    159    ccc     C6   4306 0.37576500  12.010000   ; qtot 92.937181
 4307         ho    159    ccc     H6   4307 0.53656000   1.008000   ; qtot 93.473741
 4308         ho    159    ccc     H7   4308 0.49492100   1.008000   ; qtot 93.968662
 4309         ho    159    ccc     H8   4309 0.51297200   1.008000   ; qtot 94.481634
 4310         h1    159    ccc     H9   4310 0.05653400   1.008000   ; qtot 94.538168
 4311         h1    159    ccc    H10   4311 0.05653400   1.008000   ; qtot 94.594702
 4312         oh    159    ccc     O5   4312 -0.84113600  16.000000   ; qtot 93.753566
 4313         ho    159    ccc    H11   4313 0.51201600   1.008000   ; qtot 94.265582
 4314         os    159    ccc     O6   4314 -0.26013600  16.000000   ; qtot 94.005446
; residue  160 ccc rtp ccc q 0.0
 4315         c3    160    ccc     C1   4315 -0.33178800  12.010000   ; qtot 93.673658
 4316         c3    160    ccc     C2   4316 0.30606500  12.010000   ; qtot 93.979723
 4317         h1    160    ccc     H1   4317 0.11662300   1.008000   ; qtot 94.096346
 4318         h1    160    ccc     H2   4318 0.11526800   1.008000   ; qtot 94.211614
 4319         c3    160    ccc     C3   4319 0.15592700  12.010000   ; qtot 94.367541
 4320         c3    160    ccc     C4   4320 0.28383300  12.010000   ; qtot 94.651374
 4321         c3    160    ccc     C5   4321 0.32403300  12.010000   ; qtot 94.975407
 4322         h1    160    ccc     H3   4322 0.13386900   1.008000   ; qtot 95.109276
 4323         h1    160    ccc     H4   4323 0.10146700   1.008000   ; qtot 95.210743
 4324         h2    160    ccc     H5   4324 0.10960400   1.008000   ; qtot 95.320347
 4325         os    160    ccc     O1   4325 -0.28650000  16.000000   ; qtot 95.033847
 4326         oh    160    ccc     O2   4326 -0.86012500  16.000000   ; qtot 94.173722
 4327         oh    160    ccc     O3   4327 -0.83772800  16.000000   ; qtot 93.335994
 4328         oh    160    ccc     O4   4328 -0.77449700  16.000000   ; qtot 92.561497
 4329         c3    160    ccc     C6   4329 0.37576500  12.010000   ; qtot 92.937262
 4330         ho    160    ccc     H6   4330 0.53656000   1.008000   ; qtot 93.473822
 4331         ho    160    ccc     H7   4331 0.49492100   1.008000   ; qtot 93.968743
 4332         ho    160    ccc     H8   4332 0.51297200   1.008000   ; qtot 94.481715
 4333         h1    160    ccc     H9   4333 0.05653400   1.008000   ; qtot 94.538249
 4334         h1    160    ccc    H10   4334 0.05653400   1.008000   ; qtot 94.594783
 4335         oh    160    ccc     O5   4335 -0.84113600  16.000000   ; qtot 93.753647
 4336         ho    160    ccc    H11   4336 0.51201600   1.008000   ; qtot 94.265663
 4337         os    160    ccc     O6   4337 -0.26013600  16.000000   ; qtot 94.005527
; residue  161 ccc rtp ccc q 0.0
 4338         c3    161    ccc     C1   4338 -0.33178800  12.010000   ; qtot 93.673739
 4339         c3    161    ccc     C2   4339 0.30606500  12.010000   ; qtot 93.979804
 4340         h1    161    ccc     H1   4340 0.11662300   1.008000   ; qtot 94.096427
 4341         h1    161    ccc     H2   4341 0.11526800   1.008000   ; qtot 94.211695
 4342         c3    161    ccc     C3   4342 0.15592700  12.010000   ; qtot 94.367622
 4343         c3    161    ccc     C4   4343 0.28383300  12.010000   ; qtot 94.651455
 4344         c3    161    ccc     C5   4344 0.32403300  12.010000   ; qtot 94.975488
 4345         h1    161    ccc     H3   4345 0.13386900   1.008000   ; qtot 95.109357
 4346         h1    161    ccc     H4   4346 0.10146700   1.008000   ; qtot 95.210824
 4347         h2    161    ccc     H5   4347 0.10960400   1.008000   ; qtot 95.320428
 4348         os    161    ccc     O1   4348 -0.28650000  16.000000   ; qtot 95.033928
 4349         oh    161    ccc     O2   4349 -0.86012500  16.000000   ; qtot 94.173803
 4350         oh    161    ccc     O3   4350 -0.83772800  16.000000   ; qtot 93.336075
 4351         oh    161    ccc     O4   4351 -0.77449700  16.000000   ; qtot 92.561578
 4352         c3    161    ccc     C6   4352 0.37576500  12.010000   ; qtot 92.937343
 4353         ho    161    ccc     H6   4353 0.53656000   1.008000   ; qtot 93.473903
 4354         ho    161    ccc     H7   4354 0.49492100   1.008000   ; qtot 93.968824
 4355         ho    161    ccc     H8   4355 0.51297200   1.008000   ; qtot 94.481796
 4356         h1    161    ccc     H9   4356 0.05653400   1.008000   ; qtot 94.538330
 4357         h1    161    ccc    H10   4357 0.05653400   1.008000   ; qtot 94.594864
 4358         oh    161    ccc     O5   4358 -0.84113600  16.000000   ; qtot 93.753728
 4359         ho    161    ccc    H11   4359 0.51201600   1.008000   ; qtot 94.265744
 4360         os    161    ccc     O6   4360 -0.26013600  16.000000   ; qtot 94.005608
; residue  162 ccc rtp ccc q 0.0
 4361         c3    162    ccc     C1   4361 -0.33178800  12.010000   ; qtot 93.673820
 4362         c3    162    ccc     C2   4362 0.30606500  12.010000   ; qtot 93.979885
 4363         h1    162    ccc     H1   4363 0.11662300   1.008000   ; qtot 94.096508
 4364         h1    162    ccc     H2   4364 0.11526800   1.008000   ; qtot 94.211776
 4365         c3    162    ccc     C3   4365 0.15592700  12.010000   ; qtot 94.367703
 4366         c3    162    ccc     C4   4366 0.28383300  12.010000   ; qtot 94.651536
 4367         c3    162    ccc     C5   4367 0.32403300  12.010000   ; qtot 94.975569
 4368         h1    162    ccc     H3   4368 0.13386900   1.008000   ; qtot 95.109438
 4369         h1    162    ccc     H4   4369 0.10146700   1.008000   ; qtot 95.210905
 4370         h2    162    ccc     H5   4370 0.10960400   1.008000   ; qtot 95.320509
 4371         os    162    ccc     O1   4371 -0.28650000  16.000000   ; qtot 95.034009
 4372         oh    162    ccc     O2   4372 -0.86012500  16.000000   ; qtot 94.173884
 4373         oh    162    ccc     O3   4373 -0.83772800  16.000000   ; qtot 93.336156
 4374         oh    162    ccc     O4   4374 -0.77449700  16.000000   ; qtot 92.561659
 4375         c3    162    ccc     C6   4375 0.37576500  12.010000   ; qtot 92.937424
 4376         ho    162    ccc     H6   4376 0.53656000   1.008000   ; qtot 93.473984
 4377         ho    162    ccc     H7   4377 0.49492100   1.008000   ; qtot 93.968905
 4378         ho    162    ccc     H8   4378 0.51297200   1.008000   ; qtot 94.481877
 4379         h1    162    ccc     H9   4379 0.05653400   1.008000   ; qtot 94.538411
 4380         h1    162    ccc    H10   4380 0.05653400   1.008000   ; qtot 94.594945
 4381         oh    162    ccc     O5   4381 -0.84113600  16.000000   ; qtot 93.753809
 4382         ho    162    ccc    H11   4382 0.51201600   1.008000   ; qtot 94.265825
 4383         os    162    ccc     O6   4383 -0.26013600  16.000000   ; qtot 94.005689
; residue  163 ccc rtp ccc q 0.0
 4384         c3    163    ccc     C1   4384 -0.33178800  12.010000   ; qtot 93.673901
 4385         c3    163    ccc     C2   4385 0.30606500  12.010000   ; qtot 93.979966
 4386         h1    163    ccc     H1   4386 0.11662300   1.008000   ; qtot 94.096589
 4387         h1    163    ccc     H2   4387 0.11526800   1.008000   ; qtot 94.211857
 4388         c3    163    ccc     C3   4388 0.15592700  12.010000   ; qtot 94.367784
 4389         c3    163    ccc     C4   4389 0.28383300  12.010000   ; qtot 94.651617
 4390         c3    163    ccc     C5   4390 0.32403300  12.010000   ; qtot 94.975650
 4391         h1    163    ccc     H3   4391 0.13386900   1.008000   ; qtot 95.109519
 4392         h1    163    ccc     H4   4392 0.10146700   1.008000   ; qtot 95.210986
 4393         h2    163    ccc     H5   4393 0.10960400   1.008000   ; qtot 95.320590
 4394         os    163    ccc     O1   4394 -0.28650000  16.000000   ; qtot 95.034090
 4395         oh    163    ccc     O2   4395 -0.86012500  16.000000   ; qtot 94.173965
 4396         oh    163    ccc     O3   4396 -0.83772800  16.000000   ; qtot 93.336237
 4397         oh    163    ccc     O4   4397 -0.77449700  16.000000   ; qtot 92.561740
 4398         c3    163    ccc     C6   4398 0.37576500  12.010000   ; qtot 92.937505
 4399         ho    163    ccc     H6   4399 0.53656000   1.008000   ; qtot 93.474065
 4400         ho    163    ccc     H7   4400 0.49492100   1.008000   ; qtot 93.968986
 4401         ho    163    ccc     H8   4401 0.51297200   1.008000   ; qtot 94.481958
 4402         h1    163    ccc     H9   4402 0.05653400   1.008000   ; qtot 94.538492
 4403         h1    163    ccc    H10   4403 0.05653400   1.008000   ; qtot 94.595026
 4404         oh    163    ccc     O5   4404 -0.84113600  16.000000   ; qtot 93.753890
 4405         ho    163    ccc    H11   4405 0.51201600   1.008000   ; qtot 94.265906
 4406         os    163    ccc     O6   4406 -0.26013600  16.000000   ; qtot 94.005770
; residue  164 ccc rtp ccc q 0.0
 4407         c3    164    ccc     C1   4407 -0.33178800  12.010000   ; qtot 93.673982
 4408         c3    164    ccc     C2   4408 0.30606500  12.010000   ; qtot 93.980047
 4409         h1    164    ccc     H1   4409 0.11662300   1.008000   ; qtot 94.096670
 4410         h1    164    ccc     H2   4410 0.11526800   1.008000   ; qtot 94.211938
 4411         c3    164    ccc     C3   4411 0.15592700  12.010000   ; qtot 94.367865
 4412         c3    164    ccc     C4   4412 0.28383300  12.010000   ; qtot 94.651698
 4413         c3    164    ccc     C5   4413 0.32403300  12.010000   ; qtot 94.975731
 4414         h1    164    ccc     H3   4414 0.13386900   1.008000   ; qtot 95.109600
 4415         h1    164    ccc     H4   4415 0.10146700   1.008000   ; qtot 95.211067
 4416         h2    164    ccc     H5   4416 0.10960400   1.008000   ; qtot 95.320671
 4417         os    164    ccc     O1   4417 -0.28650000  16.000000   ; qtot 95.034171
 4418         oh    164    ccc     O2   4418 -0.86012500  16.000000   ; qtot 94.174046
 4419         oh    164    ccc     O3   4419 -0.83772800  16.000000   ; qtot 93.336318
 4420         oh    164    ccc     O4   4420 -0.77449700  16.000000   ; qtot 92.561821
 4421         c3    164    ccc     C6   4421 0.37576500  12.010000   ; qtot 92.937586
 4422         ho    164    ccc     H6   4422 0.53656000   1.008000   ; qtot 93.474146
 4423         ho    164    ccc     H7   4423 0.49492100   1.008000   ; qtot 93.969067
 4424         ho    164    ccc     H8   4424 0.51297200   1.008000   ; qtot 94.482039
 4425         h1    164    ccc     H9   4425 0.05653400   1.008000   ; qtot 94.538573
 4426         h1    164    ccc    H10   4426 0.05653400   1.008000   ; qtot 94.595107
 4427         oh    164    ccc     O5   4427 -0.84113600  16.000000   ; qtot 93.753971
 4428         ho    164    ccc    H11   4428 0.51201600   1.008000   ; qtot 94.265987
 4429         os    164    ccc     O6   4429 -0.26013600  16.000000   ; qtot 94.005851
; residue  165 ccc rtp ccc q 0.0
 4430         c3    165    ccc     C1   4430 -0.33178800  12.010000   ; qtot 93.674063
 4431         c3    165    ccc     C2   4431 0.30606500  12.010000   ; qtot 93.980128
 4432         h1    165    ccc     H1   4432 0.11662300   1.008000   ; qtot 94.096751
 4433         h1    165    ccc     H2   4433 0.11526800   1.008000   ; qtot 94.212019
 4434         c3    165    ccc     C3   4434 0.15592700  12.010000   ; qtot 94.367946
 4435         c3    165    ccc     C4   4435 0.28383300  12.010000   ; qtot 94.651779
 4436         c3    165    ccc     C5   4436 0.32403300  12.010000   ; qtot 94.975812
 4437         h1    165    ccc     H3   4437 0.13386900   1.008000   ; qtot 95.109681
 4438         h1    165    ccc     H4   4438 0.10146700   1.008000   ; qtot 95.211148
 4439         h2    165    ccc     H5   4439 0.10960400   1.008000   ; qtot 95.320752
 4440         os    165    ccc     O1   4440 -0.28650000  16.000000   ; qtot 95.034252
 4441         oh    165    ccc     O2   4441 -0.86012500  16.000000   ; qtot 94.174127
 4442         oh    165    ccc     O3   4442 -0.83772800  16.000000   ; qtot 93.336399
 4443         oh    165    ccc     O4   4443 -0.77449700  16.000000   ; qtot 92.561902
 4444         c3    165    ccc     C6   4444 0.37576500  12.010000   ; qtot 92.937667
 4445         ho    165    ccc     H6   4445 0.53656000   1.008000   ; qtot 93.474227
 4446         ho    165    ccc     H7   4446 0.49492100   1.008000   ; qtot 93.969148
 4447         ho    165    ccc     H8   4447 0.51297200   1.008000   ; qtot 94.482120
 4448         h1    165    ccc     H9   4448 0.05653400   1.008000   ; qtot 94.538654
 4449         h1    165    ccc    H10   4449 0.05653400   1.008000   ; qtot 94.595188
 4450         oh    165    ccc     O5   4450 -0.84113600  16.000000   ; qtot 93.754052
 4451         ho    165    ccc    H11   4451 0.51201600   1.008000   ; qtot 94.266068
 4452         os    165    ccc     O6   4452 -0.26013600  16.000000   ; qtot 94.005932
; residue  166 ccc rtp ccc q 0.0
 4453         c3    166    ccc     C1   4453 -0.33178800  12.010000   ; qtot 93.674144
 4454         c3    166    ccc     C2   4454 0.30606500  12.010000   ; qtot 93.980209
 4455         h1    166    ccc     H1   4455 0.11662300   1.008000   ; qtot 94.096832
 4456         h1    166    ccc     H2   4456 0.11526800   1.008000   ; qtot 94.212100
 4457         c3    166    ccc     C3   4457 0.15592700  12.010000   ; qtot 94.368027
 4458         c3    166    ccc     C4   4458 0.28383300  12.010000   ; qtot 94.651860
 4459         c3    166    ccc     C5   4459 0.32403300  12.010000   ; qtot 94.975893
 4460         h1    166    ccc     H3   4460 0.13386900   1.008000   ; qtot 95.109762
 4461         h1    166    ccc     H4   4461 0.10146700   1.008000   ; qtot 95.211229
 4462         h2    166    ccc     H5   4462 0.10960400   1.008000   ; qtot 95.320833
 4463         os    166    ccc     O1   4463 -0.28650000  16.000000   ; qtot 95.034333
 4464         oh    166    ccc     O2   4464 -0.86012500  16.000000   ; qtot 94.174208
 4465         oh    166    ccc     O3   4465 -0.83772800  16.000000   ; qtot 93.336480
 4466         oh    166    ccc     O4   4466 -0.77449700  16.000000   ; qtot 92.561983
 4467         c3    166    ccc     C6   4467 0.37576500  12.010000   ; qtot 92.937748
 4468         ho    166    ccc     H6   4468 0.53656000   1.008000   ; qtot 93.474308
 4469         ho    166    ccc     H7   4469 0.49492100   1.008000   ; qtot 93.969229
 4470         ho    166    ccc     H8   4470 0.51297200   1.008000   ; qtot 94.482201
 4471         h1    166    ccc     H9   4471 0.05653400   1.008000   ; qtot 94.538735
 4472         h1    166    ccc    H10   4472 0.05653400   1.008000   ; qtot 94.595269
 4473         oh    166    ccc     O5   4473 -0.84113600  16.000000   ; qtot 93.754133
 4474         ho    166    ccc    H11   4474 0.51201600   1.008000   ; qtot 94.266149
 4475         os    166    ccc     O6   4475 -0.26013600  16.000000   ; qtot 94.006013
; residue  167 ccc rtp ccc q 0.0
 4476         c3    167    ccc     C1   4476 -0.33178800  12.010000   ; qtot 93.674225
 4477         c3    167    ccc     C2   4477 0.30606500  12.010000   ; qtot 93.980290
 4478         h1    167    ccc     H1   4478 0.11662300   1.008000   ; qtot 94.096913
 4479         h1    167    ccc     H2   4479 0.11526800   1.008000   ; qtot 94.212181
 4480         c3    167    ccc     C3   4480 0.15592700  12.010000   ; qtot 94.368108
 4481         c3    167    ccc     C4   4481 0.28383300  12.010000   ; qtot 94.651941
 4482         c3    167    ccc     C5   4482 0.32403300  12.010000   ; qtot 94.975974
 4483         h1    167    ccc     H3   4483 0.13386900   1.008000   ; qtot 95.109843
 4484         h1    167    ccc     H4   4484 0.10146700   1.008000   ; qtot 95.211310
 4485         h2    167    ccc     H5   4485 0.10960400   1.008000   ; qtot 95.320914
 4486         os    167    ccc     O1   4486 -0.28650000  16.000000   ; qtot 95.034414
 4487         oh    167    ccc     O2   4487 -0.86012500  16.000000   ; qtot 94.174289
 4488         oh    167    ccc     O3   4488 -0.83772800  16.000000   ; qtot 93.336561
 4489         oh    167    ccc     O4   4489 -0.77449700  16.000000   ; qtot 92.562064
 4490         c3    167    ccc     C6   4490 0.37576500  12.010000   ; qtot 92.937829
 4491         ho    167    ccc     H6   4491 0.53656000   1.008000   ; qtot 93.474389
 4492         ho    167    ccc     H7   4492 0.49492100   1.008000   ; qtot 93.969310
 4493         ho    167    ccc     H8   4493 0.51297200   1.008000   ; qtot 94.482282
 4494         h1    167    ccc     H9   4494 0.05653400   1.008000   ; qtot 94.538816
 4495         h1    167    ccc    H10   4495 0.05653400   1.008000   ; qtot 94.595350
 4496         oh    167    ccc     O5   4496 -0.84113600  16.000000   ; qtot 93.754214
 4497         ho    167    ccc    H11   4497 0.51201600   1.008000   ; qtot 94.266230
 4498         os    167    ccc     O6   4498 -0.26013600  16.000000   ; qtot 94.006094
; residue  168 ccc rtp ccc q 0.0
 4499         c3    168    ccc     C1   4499 -0.33178800  12.010000   ; qtot 93.674306
 4500         c3    168    ccc     C2   4500 0.30606500  12.010000   ; qtot 93.980371
 4501         h1    168    ccc     H1   4501 0.11662300   1.008000   ; qtot 94.096994
 4502         h1    168    ccc     H2   4502 0.11526800   1.008000   ; qtot 94.212262
 4503         c3    168    ccc     C3   4503 0.15592700  12.010000   ; qtot 94.368189
 4504         c3    168    ccc     C4   4504 0.28383300  12.010000   ; qtot 94.652022
 4505         c3    168    ccc     C5   4505 0.32403300  12.010000   ; qtot 94.976055
 4506         h1    168    ccc     H3   4506 0.13386900   1.008000   ; qtot 95.109924
 4507         h1    168    ccc     H4   4507 0.10146700   1.008000   ; qtot 95.211391
 4508         h2    168    ccc     H5   4508 0.10960400   1.008000   ; qtot 95.320995
 4509         os    168    ccc     O1   4509 -0.28650000  16.000000   ; qtot 95.034495
 4510         oh    168    ccc     O2   4510 -0.86012500  16.000000   ; qtot 94.174370
 4511         oh    168    ccc     O3   4511 -0.83772800  16.000000   ; qtot 93.336642
 4512         oh    168    ccc     O4   4512 -0.77449700  16.000000   ; qtot 92.562145
 4513         c3    168    ccc     C6   4513 0.37576500  12.010000   ; qtot 92.937910
 4514         ho    168    ccc     H6   4514 0.53656000   1.008000   ; qtot 93.474470
 4515         ho    168    ccc     H7   4515 0.49492100   1.008000   ; qtot 93.969391
 4516         ho    168    ccc     H8   4516 0.51297200   1.008000   ; qtot 94.482363
 4517         h1    168    ccc     H9   4517 0.05653400   1.008000   ; qtot 94.538897
 4518         h1    168    ccc    H10   4518 0.05653400   1.008000   ; qtot 94.595431
 4519         oh    168    ccc     O5   4519 -0.84113600  16.000000   ; qtot 93.754295
 4520         ho    168    ccc    H11   4520 0.51201600   1.008000   ; qtot 94.266311
 4521         os    168    ccc     O6   4521 -0.26013600  16.000000   ; qtot 94.006175
; residue  169 ccc rtp ccc q 0.0
 4522         c3    169    ccc     C1   4522 -0.33178800  12.010000   ; qtot 93.674387
 4523         c3    169    ccc     C2   4523 0.30606500  12.010000   ; qtot 93.980452
 4524         h1    169    ccc     H1   4524 0.11662300   1.008000   ; qtot 94.097075
 4525         h1    169    ccc     H2   4525 0.11526800   1.008000   ; qtot 94.212343
 4526         c3    169    ccc     C3   4526 0.15592700  12.010000   ; qtot 94.368270
 4527         c3    169    ccc     C4   4527 0.28383300  12.010000   ; qtot 94.652103
 4528         c3    169    ccc     C5   4528 0.32403300  12.010000   ; qtot 94.976136
 4529         h1    169    ccc     H3   4529 0.13386900   1.008000   ; qtot 95.110005
 4530         h1    169    ccc     H4   4530 0.10146700   1.008000   ; qtot 95.211472
 4531         h2    169    ccc     H5   4531 0.10960400   1.008000   ; qtot 95.321076
 4532         os    169    ccc     O1   4532 -0.28650000  16.000000   ; qtot 95.034576
 4533         oh    169    ccc     O2   4533 -0.86012500  16.000000   ; qtot 94.174451
 4534         oh    169    ccc     O3   4534 -0.83772800  16.000000   ; qtot 93.336723
 4535         oh    169    ccc     O4   4535 -0.77449700  16.000000   ; qtot 92.562226
 4536         c3    169    ccc     C6   4536 0.37576500  12.010000   ; qtot 92.937991
 4537         ho    169    ccc     H6   4537 0.53656000   1.008000   ; qtot 93.474551
 4538         ho    169    ccc     H7   4538 0.49492100   1.008000   ; qtot 93.969472
 4539         ho    169    ccc     H8   4539 0.51297200   1.008000   ; qtot 94.482444
 4540         h1    169    ccc     H9   4540 0.05653400   1.008000   ; qtot 94.538978
 4541         h1    169    ccc    H10   4541 0.05653400   1.008000   ; qtot 94.595512
 4542         oh    169    ccc     O5   4542 -0.84113600  16.000000   ; qtot 93.754376
 4543         ho    169    ccc    H11   4543 0.51201600   1.008000   ; qtot 94.266392
 4544         os    169    ccc     O6   4544 -0.26013600  16.000000   ; qtot 94.006256
; residue  170 ccc rtp ccc q 0.0
 4545         c3    170    ccc     C1   4545 -0.33178800  12.010000   ; qtot 93.674468
 4546         c3    170    ccc     C2   4546 0.30606500  12.010000   ; qtot 93.980533
 4547         h1    170    ccc     H1   4547 0.11662300   1.008000   ; qtot 94.097156
 4548         h1    170    ccc     H2   4548 0.11526800   1.008000   ; qtot 94.212424
 4549         c3    170    ccc     C3   4549 0.15592700  12.010000   ; qtot 94.368351
 4550         c3    170    ccc     C4   4550 0.28383300  12.010000   ; qtot 94.652184
 4551         c3    170    ccc     C5   4551 0.32403300  12.010000   ; qtot 94.976217
 4552         h1    170    ccc     H3   4552 0.13386900   1.008000   ; qtot 95.110086
 4553         h1    170    ccc     H4   4553 0.10146700   1.008000   ; qtot 95.211553
 4554         h2    170    ccc     H5   4554 0.10960400   1.008000   ; qtot 95.321157
 4555         os    170    ccc     O1   4555 -0.28650000  16.000000   ; qtot 95.034657
 4556         oh    170    ccc     O2   4556 -0.86012500  16.000000   ; qtot 94.174532
 4557         oh    170    ccc     O3   4557 -0.83772800  16.000000   ; qtot 93.336804
 4558         oh    170    ccc     O4   4558 -0.77449700  16.000000   ; qtot 92.562307
 4559         c3    170    ccc     C6   4559 0.37576500  12.010000   ; qtot 92.938072
 4560         ho    170    ccc     H6   4560 0.53656000   1.008000   ; qtot 93.474632
 4561         ho    170    ccc     H7   4561 0.49492100   1.008000   ; qtot 93.969553
 4562         ho    170    ccc     H8   4562 0.51297200   1.008000   ; qtot 94.482525
 4563         h1    170    ccc     H9   4563 0.05653400   1.008000   ; qtot 94.539059
 4564         h1    170    ccc    H10   4564 0.05653400   1.008000   ; qtot 94.595593
 4565         oh    170    ccc     O5   4565 -0.84113600  16.000000   ; qtot 93.754457
 4566         ho    170    ccc    H11   4566 0.51201600   1.008000   ; qtot 94.266473
 4567         os    170    ccc     O6   4567 -0.26013600  16.000000   ; qtot 94.006337
; residue  171 ccc rtp ccc q 0.0
 4568         c3    171    ccc     C1   4568 -0.33178800  12.010000   ; qtot 93.674549
 4569         c3    171    ccc     C2   4569 0.30606500  12.010000   ; qtot 93.980614
 4570         h1    171    ccc     H1   4570 0.11662300   1.008000   ; qtot 94.097237
 4571         h1    171    ccc     H2   4571 0.11526800   1.008000   ; qtot 94.212505
 4572         c3    171    ccc     C3   4572 0.15592700  12.010000   ; qtot 94.368432
 4573         c3    171    ccc     C4   4573 0.28383300  12.010000   ; qtot 94.652265
 4574         c3    171    ccc     C5   4574 0.32403300  12.010000   ; qtot 94.976298
 4575         h1    171    ccc     H3   4575 0.13386900   1.008000   ; qtot 95.110167
 4576         h1    171    ccc     H4   4576 0.10146700   1.008000   ; qtot 95.211634
 4577         h2    171    ccc     H5   4577 0.10960400   1.008000   ; qtot 95.321238
 4578         os    171    ccc     O1   4578 -0.28650000  16.000000   ; qtot 95.034738
 4579         oh    171    ccc     O2   4579 -0.86012500  16.000000   ; qtot 94.174613
 4580         oh    171    ccc     O3   4580 -0.83772800  16.000000   ; qtot 93.336885
 4581         oh    171    ccc     O4   4581 -0.77449700  16.000000   ; qtot 92.562388
 4582         c3    171    ccc     C6   4582 0.37576500  12.010000   ; qtot 92.938153
 4583         ho    171    ccc     H6   4583 0.53656000   1.008000   ; qtot 93.474713
 4584         ho    171    ccc     H7   4584 0.49492100   1.008000   ; qtot 93.969634
 4585         ho    171    ccc     H8   4585 0.51297200   1.008000   ; qtot 94.482606
 4586         h1    171    ccc     H9   4586 0.05653400   1.008000   ; qtot 94.539140
 4587         h1    171    ccc    H10   4587 0.05653400   1.008000   ; qtot 94.595674
 4588         oh    171    ccc     O5   4588 -0.84113600  16.000000   ; qtot 93.754538
 4589         ho    171    ccc    H11   4589 0.51201600   1.008000   ; qtot 94.266554
 4590         os    171    ccc     O6   4590 -0.26013600  16.000000   ; qtot 94.006418
; residue  172 ccc rtp ccc q 0.0
 4591         c3    172    ccc     C1   4591 -0.33178800  12.010000   ; qtot 93.674630
 4592         c3    172    ccc     C2   4592 0.30606500  12.010000   ; qtot 93.980695
 4593         h1    172    ccc     H1   4593 0.11662300   1.008000   ; qtot 94.097318
 4594         h1    172    ccc     H2   4594 0.11526800   1.008000   ; qtot 94.212586
 4595         c3    172    ccc     C3   4595 0.15592700  12.010000   ; qtot 94.368513
 4596         c3    172    ccc     C4   4596 0.28383300  12.010000   ; qtot 94.652346
 4597         c3    172    ccc     C5   4597 0.32403300  12.010000   ; qtot 94.976379
 4598         h1    172    ccc     H3   4598 0.13386900   1.008000   ; qtot 95.110248
 4599         h1    172    ccc     H4   4599 0.10146700   1.008000   ; qtot 95.211715
 4600         h2    172    ccc     H5   4600 0.10960400   1.008000   ; qtot 95.321319
 4601         os    172    ccc     O1   4601 -0.28650000  16.000000   ; qtot 95.034819
 4602         oh    172    ccc     O2   4602 -0.86012500  16.000000   ; qtot 94.174694
 4603         oh    172    ccc     O3   4603 -0.83772800  16.000000   ; qtot 93.336966
 4604         oh    172    ccc     O4   4604 -0.77449700  16.000000   ; qtot 92.562469
 4605         c3    172    ccc     C6   4605 0.37576500  12.010000   ; qtot 92.938234
 4606         ho    172    ccc     H6   4606 0.53656000   1.008000   ; qtot 93.474794
 4607         ho    172    ccc     H7   4607 0.49492100   1.008000   ; qtot 93.969715
 4608         ho    172    ccc     H8   4608 0.51297200   1.008000   ; qtot 94.482687
 4609         h1    172    ccc     H9   4609 0.05653400   1.008000   ; qtot 94.539221
 4610         h1    172    ccc    H10   4610 0.05653400   1.008000   ; qtot 94.595755
 4611         oh    172    ccc     O5   4611 -0.84113600  16.000000   ; qtot 93.754619
 4612         ho    172    ccc    H11   4612 0.51201600   1.008000   ; qtot 94.266635
 4613         os    172    ccc     O6   4613 -0.26013600  16.000000   ; qtot 94.006499
; residue  173 ccc rtp ccc q 0.0
 4614         c3    173    ccc     C1   4614 -0.33178800  12.010000   ; qtot 93.674711
 4615         c3    173    ccc     C2   4615 0.30606500  12.010000   ; qtot 93.980776
 4616         h1    173    ccc     H1   4616 0.11662300   1.008000   ; qtot 94.097399
 4617         h1    173    ccc     H2   4617 0.11526800   1.008000   ; qtot 94.212667
 4618         c3    173    ccc     C3   4618 0.15592700  12.010000   ; qtot 94.368594
 4619         c3    173    ccc     C4   4619 0.28383300  12.010000   ; qtot 94.652427
 4620         c3    173    ccc     C5   4620 0.32403300  12.010000   ; qtot 94.976460
 4621         h1    173    ccc     H3   4621 0.13386900   1.008000   ; qtot 95.110329
 4622         h1    173    ccc     H4   4622 0.10146700   1.008000   ; qtot 95.211796
 4623         h2    173    ccc     H5   4623 0.10960400   1.008000   ; qtot 95.321400
 4624         os    173    ccc     O1   4624 -0.28650000  16.000000   ; qtot 95.034900
 4625         oh    173    ccc     O2   4625 -0.86012500  16.000000   ; qtot 94.174775
 4626         oh    173    ccc     O3   4626 -0.83772800  16.000000   ; qtot 93.337047
 4627         oh    173    ccc     O4   4627 -0.77449700  16.000000   ; qtot 92.562550
 4628         c3    173    ccc     C6   4628 0.37576500  12.010000   ; qtot 92.938315
 4629         ho    173    ccc     H6   4629 0.53656000   1.008000   ; qtot 93.474875
 4630         ho    173    ccc     H7   4630 0.49492100   1.008000   ; qtot 93.969796
 4631         ho    173    ccc     H8   4631 0.51297200   1.008000   ; qtot 94.482768
 4632         h1    173    ccc     H9   4632 0.05653400   1.008000   ; qtot 94.539302
 4633         h1    173    ccc    H10   4633 0.05653400   1.008000   ; qtot 94.595836
 4634         oh    173    ccc     O5   4634 -0.84113600  16.000000   ; qtot 93.754700
 4635         ho    173    ccc    H11   4635 0.51201600   1.008000   ; qtot 94.266716
 4636         os    173    ccc     O6   4636 -0.26013600  16.000000   ; qtot 94.006580
; residue  174 ccc rtp ccc q 0.0
 4637         c3    174    ccc     C1   4637 -0.33178800  12.010000   ; qtot 93.674792
 4638         c3    174    ccc     C2   4638 0.30606500  12.010000   ; qtot 93.980857
 4639         h1    174    ccc     H1   4639 0.11662300   1.008000   ; qtot 94.097480
 4640         h1    174    ccc     H2   4640 0.11526800   1.008000   ; qtot 94.212748
 4641         c3    174    ccc     C3   4641 0.15592700  12.010000   ; qtot 94.368675
 4642         c3    174    ccc     C4   4642 0.28383300  12.010000   ; qtot 94.652508
 4643         c3    174    ccc     C5   4643 0.32403300  12.010000   ; qtot 94.976541
 4644         h1    174    ccc     H3   4644 0.13386900   1.008000   ; qtot 95.110410
 4645         h1    174    ccc     H4   4645 0.10146700   1.008000   ; qtot 95.211877
 4646         h2    174    ccc     H5   4646 0.10960400   1.008000   ; qtot 95.321481
 4647         os    174    ccc     O1   4647 -0.28650000  16.000000   ; qtot 95.034981
 4648         oh    174    ccc     O2   4648 -0.86012500  16.000000   ; qtot 94.174856
 4649         oh    174    ccc     O3   4649 -0.83772800  16.000000   ; qtot 93.337128
 4650         oh    174    ccc     O4   4650 -0.77449700  16.000000   ; qtot 92.562631
 4651         c3    174    ccc     C6   4651 0.37576500  12.010000   ; qtot 92.938396
 4652         ho    174    ccc     H6   4652 0.53656000   1.008000   ; qtot 93.474956
 4653         ho    174    ccc     H7   4653 0.49492100   1.008000   ; qtot 93.969877
 4654         ho    174    ccc     H8   4654 0.51297200   1.008000   ; qtot 94.482849
 4655         h1    174    ccc     H9   4655 0.05653400   1.008000   ; qtot 94.539383
 4656         h1    174    ccc    H10   4656 0.05653400   1.008000   ; qtot 94.595917
 4657         oh    174    ccc     O5   4657 -0.84113600  16.000000   ; qtot 93.754781
 4658         ho    174    ccc    H11   4658 0.51201600   1.008000   ; qtot 94.266797
 4659         os    174    ccc     O6   4659 -0.26013600  16.000000   ; qtot 94.006661
; residue  175 ccc rtp ccc q 0.0
 4660         c3    175    ccc     C1   4660 -0.33178800  12.010000   ; qtot 93.674873
 4661         c3    175    ccc     C2   4661 0.30606500  12.010000   ; qtot 93.980938
 4662         h1    175    ccc     H1   4662 0.11662300   1.008000   ; qtot 94.097561
 4663         h1    175    ccc     H2   4663 0.11526800   1.008000   ; qtot 94.212829
 4664         c3    175    ccc     C3   4664 0.15592700  12.010000   ; qtot 94.368756
 4665         c3    175    ccc     C4   4665 0.28383300  12.010000   ; qtot 94.652589
 4666         c3    175    ccc     C5   4666 0.32403300  12.010000   ; qtot 94.976622
 4667         h1    175    ccc     H3   4667 0.13386900   1.008000   ; qtot 95.110491
 4668         h1    175    ccc     H4   4668 0.10146700   1.008000   ; qtot 95.211958
 4669         h2    175    ccc     H5   4669 0.10960400   1.008000   ; qtot 95.321562
 4670         os    175    ccc     O1   4670 -0.28650000  16.000000   ; qtot 95.035062
 4671         oh    175    ccc     O2   4671 -0.86012500  16.000000   ; qtot 94.174937
 4672         oh    175    ccc     O3   4672 -0.83772800  16.000000   ; qtot 93.337209
 4673         oh    175    ccc     O4   4673 -0.77449700  16.000000   ; qtot 92.562712
 4674         c3    175    ccc     C6   4674 0.37576500  12.010000   ; qtot 92.938477
 4675         ho    175    ccc     H6   4675 0.53656000   1.008000   ; qtot 93.475037
 4676         ho    175    ccc     H7   4676 0.49492100   1.008000   ; qtot 93.969958
 4677         ho    175    ccc     H8   4677 0.51297200   1.008000   ; qtot 94.482930
 4678         h1    175    ccc     H9   4678 0.05653400   1.008000   ; qtot 94.539464
 4679         h1    175    ccc    H10   4679 0.05653400   1.008000   ; qtot 94.595998
 4680         oh    175    ccc     O5   4680 -0.84113600  16.000000   ; qtot 93.754862
 4681         ho    175    ccc    H11   4681 0.51201600   1.008000   ; qtot 94.266878
 4682         os    175    ccc     O6   4682 -0.26013600  16.000000   ; qtot 94.006742
; residue  176 ccc rtp ccc q 0.0
 4683         c3    176    ccc     C1   4683 -0.33178800  12.010000   ; qtot 93.674954
 4684         c3    176    ccc     C2   4684 0.30606500  12.010000   ; qtot 93.981019
 4685         h1    176    ccc     H1   4685 0.11662300   1.008000   ; qtot 94.097642
 4686         h1    176    ccc     H2   4686 0.11526800   1.008000   ; qtot 94.212910
 4687         c3    176    ccc     C3   4687 0.15592700  12.010000   ; qtot 94.368837
 4688         c3    176    ccc     C4   4688 0.28383300  12.010000   ; qtot 94.652670
 4689         c3    176    ccc     C5   4689 0.32403300  12.010000   ; qtot 94.976703
 4690         h1    176    ccc     H3   4690 0.13386900   1.008000   ; qtot 95.110572
 4691         h1    176    ccc     H4   4691 0.10146700   1.008000   ; qtot 95.212039
 4692         h2    176    ccc     H5   4692 0.10960400   1.008000   ; qtot 95.321643
 4693         os    176    ccc     O1   4693 -0.28650000  16.000000   ; qtot 95.035143
 4694         oh    176    ccc     O2   4694 -0.86012500  16.000000   ; qtot 94.175018
 4695         oh    176    ccc     O3   4695 -0.83772800  16.000000   ; qtot 93.337290
 4696         oh    176    ccc     O4   4696 -0.77449700  16.000000   ; qtot 92.562793
 4697         c3    176    ccc     C6   4697 0.37576500  12.010000   ; qtot 92.938558
 4698         ho    176    ccc     H6   4698 0.53656000   1.008000   ; qtot 93.475118
 4699         ho    176    ccc     H7   4699 0.49492100   1.008000   ; qtot 93.970039
 4700         ho    176    ccc     H8   4700 0.51297200   1.008000   ; qtot 94.483011
 4701         h1    176    ccc     H9   4701 0.05653400   1.008000   ; qtot 94.539545
 4702         h1    176    ccc    H10   4702 0.05653400   1.008000   ; qtot 94.596079
 4703         oh    176    ccc     O5   4703 -0.84113600  16.000000   ; qtot 93.754943
 4704         ho    176    ccc    H11   4704 0.51201600   1.008000   ; qtot 94.266959
 4705         os    176    ccc     O6   4705 -0.26013600  16.000000   ; qtot 94.006823
; residue  177 ccc rtp ccc q 0.0
 4706         c3    177    ccc     C1   4706 -0.33178800  12.010000   ; qtot 93.675035
 4707         c3    177    ccc     C2   4707 0.30606500  12.010000   ; qtot 93.981100
 4708         h1    177    ccc     H1   4708 0.11662300   1.008000   ; qtot 94.097723
 4709         h1    177    ccc     H2   4709 0.11526800   1.008000   ; qtot 94.212991
 4710         c3    177    ccc     C3   4710 0.15592700  12.010000   ; qtot 94.368918
 4711         c3    177    ccc     C4   4711 0.28383300  12.010000   ; qtot 94.652751
 4712         c3    177    ccc     C5   4712 0.32403300  12.010000   ; qtot 94.976784
 4713         h1    177    ccc     H3   4713 0.13386900   1.008000   ; qtot 95.110653
 4714         h1    177    ccc     H4   4714 0.10146700   1.008000   ; qtot 95.212120
 4715         h2    177    ccc     H5   4715 0.10960400   1.008000   ; qtot 95.321724
 4716         os    177    ccc     O1   4716 -0.28650000  16.000000   ; qtot 95.035224
 4717         oh    177    ccc     O2   4717 -0.86012500  16.000000   ; qtot 94.175099
 4718         oh    177    ccc     O3   4718 -0.83772800  16.000000   ; qtot 93.337371
 4719         oh    177    ccc     O4   4719 -0.77449700  16.000000   ; qtot 92.562874
 4720         c3    177    ccc     C6   4720 0.37576500  12.010000   ; qtot 92.938639
 4721         ho    177    ccc     H6   4721 0.53656000   1.008000   ; qtot 93.475199
 4722         ho    177    ccc     H7   4722 0.49492100   1.008000   ; qtot 93.970120
 4723         ho    177    ccc     H8   4723 0.51297200   1.008000   ; qtot 94.483092
 4724         h1    177    ccc     H9   4724 0.05653400   1.008000   ; qtot 94.539626
 4725         h1    177    ccc    H10   4725 0.05653400   1.008000   ; qtot 94.596160
 4726         oh    177    ccc     O5   4726 -0.84113600  16.000000   ; qtot 93.755024
 4727         ho    177    ccc    H11   4727 0.51201600   1.008000   ; qtot 94.267040
 4728         os    177    ccc     O6   4728 -0.26013600  16.000000   ; qtot 94.006904
; residue  178 ccc rtp ccc q 0.0
 4729         c3    178    ccc     C1   4729 -0.33178800  12.010000   ; qtot 93.675116
 4730         c3    178    ccc     C2   4730 0.30606500  12.010000   ; qtot 93.981181
 4731         h1    178    ccc     H1   4731 0.11662300   1.008000   ; qtot 94.097804
 4732         h1    178    ccc     H2   4732 0.11526800   1.008000   ; qtot 94.213072
 4733         c3    178    ccc     C3   4733 0.15592700  12.010000   ; qtot 94.368999
 4734         c3    178    ccc     C4   4734 0.28383300  12.010000   ; qtot 94.652832
 4735         c3    178    ccc     C5   4735 0.32403300  12.010000   ; qtot 94.976865
 4736         h1    178    ccc     H3   4736 0.13386900   1.008000   ; qtot 95.110734
 4737         h1    178    ccc     H4   4737 0.10146700   1.008000   ; qtot 95.212201
 4738         h2    178    ccc     H5   4738 0.10960400   1.008000   ; qtot 95.321805
 4739         os    178    ccc     O1   4739 -0.28650000  16.000000   ; qtot 95.035305
 4740         oh    178    ccc     O2   4740 -0.86012500  16.000000   ; qtot 94.175180
 4741         oh    178    ccc     O3   4741 -0.83772800  16.000000   ; qtot 93.337452
 4742         oh    178    ccc     O4   4742 -0.77449700  16.000000   ; qtot 92.562955
 4743         c3    178    ccc     C6   4743 0.37576500  12.010000   ; qtot 92.938720
 4744         ho    178    ccc     H6   4744 0.53656000   1.008000   ; qtot 93.475280
 4745         ho    178    ccc     H7   4745 0.49492100   1.008000   ; qtot 93.970201
 4746         ho    178    ccc     H8   4746 0.51297200   1.008000   ; qtot 94.483173
 4747         h1    178    ccc     H9   4747 0.05653400   1.008000   ; qtot 94.539707
 4748         h1    178    ccc    H10   4748 0.05653400   1.008000   ; qtot 94.596241
 4749         oh    178    ccc     O5   4749 -0.84113600  16.000000   ; qtot 93.755105
 4750         ho    178    ccc    H11   4750 0.51201600   1.008000   ; qtot 94.267121
 4751         os    178    ccc     O6   4751 -0.26013600  16.000000   ; qtot 94.006985
; residue  179 ccc rtp ccc q 0.0
 4752         c3    179    ccc     C1   4752 -0.33178800  12.010000   ; qtot 93.675197
 4753         c3    179    ccc     C2   4753 0.30606500  12.010000   ; qtot 93.981262
 4754         h1    179    ccc     H1   4754 0.11662300   1.008000   ; qtot 94.097885
 4755         h1    179    ccc     H2   4755 0.11526800   1.008000   ; qtot 94.213153
 4756         c3    179    ccc     C3   4756 0.15592700  12.010000   ; qtot 94.369080
 4757         c3    179    ccc     C4   4757 0.28383300  12.010000   ; qtot 94.652913
 4758         c3    179    ccc     C5   4758 0.32403300  12.010000   ; qtot 94.976946
 4759         h1    179    ccc     H3   4759 0.13386900   1.008000   ; qtot 95.110815
 4760         h1    179    ccc     H4   4760 0.10146700   1.008000   ; qtot 95.212282
 4761         h2    179    ccc     H5   4761 0.10960400   1.008000   ; qtot 95.321886
 4762         os    179    ccc     O1   4762 -0.28650000  16.000000   ; qtot 95.035386
 4763         oh    179    ccc     O2   4763 -0.86012500  16.000000   ; qtot 94.175261
 4764         oh    179    ccc     O3   4764 -0.83772800  16.000000   ; qtot 93.337533
 4765         oh    179    ccc     O4   4765 -0.77449700  16.000000   ; qtot 92.563036
 4766         c3    179    ccc     C6   4766 0.37576500  12.010000   ; qtot 92.938801
 4767         ho    179    ccc     H6   4767 0.53656000   1.008000   ; qtot 93.475361
 4768         ho    179    ccc     H7   4768 0.49492100   1.008000   ; qtot 93.970282
 4769         ho    179    ccc     H8   4769 0.51297200   1.008000   ; qtot 94.483254
 4770         h1    179    ccc     H9   4770 0.05653400   1.008000   ; qtot 94.539788
 4771         h1    179    ccc    H10   4771 0.05653400   1.008000   ; qtot 94.596322
 4772         oh    179    ccc     O5   4772 -0.84113600  16.000000   ; qtot 93.755186
 4773         ho    179    ccc    H11   4773 0.51201600   1.008000   ; qtot 94.267202
 4774         os    179    ccc     O6   4774 -0.26013600  16.000000   ; qtot 94.007066
; residue  180 ccc rtp ccc q 0.0
 4775         c3    180    ccc     C1   4775 -0.33178800  12.010000   ; qtot 93.675278
 4776         c3    180    ccc     C2   4776 0.30606500  12.010000   ; qtot 93.981343
 4777         h1    180    ccc     H1   4777 0.11662300   1.008000   ; qtot 94.097966
 4778         h1    180    ccc     H2   4778 0.11526800   1.008000   ; qtot 94.213234
 4779         c3    180    ccc     C3   4779 0.15592700  12.010000   ; qtot 94.369161
 4780         c3    180    ccc     C4   4780 0.28383300  12.010000   ; qtot 94.652994
 4781         c3    180    ccc     C5   4781 0.32403300  12.010000   ; qtot 94.977027
 4782         h1    180    ccc     H3   4782 0.13386900   1.008000   ; qtot 95.110896
 4783         h1    180    ccc     H4   4783 0.10146700   1.008000   ; qtot 95.212363
 4784         h2    180    ccc     H5   4784 0.10960400   1.008000   ; qtot 95.321967
 4785         os    180    ccc     O1   4785 -0.28650000  16.000000   ; qtot 95.035467
 4786         oh    180    ccc     O2   4786 -0.86012500  16.000000   ; qtot 94.175342
 4787         oh    180    ccc     O3   4787 -0.83772800  16.000000   ; qtot 93.337614
 4788         oh    180    ccc     O4   4788 -0.77449700  16.000000   ; qtot 92.563117
 4789         c3    180    ccc     C6   4789 0.37576500  12.010000   ; qtot 92.938882
 4790         ho    180    ccc     H6   4790 0.53656000   1.008000   ; qtot 93.475442
 4791         ho    180    ccc     H7   4791 0.49492100   1.008000   ; qtot 93.970363
 4792         ho    180    ccc     H8   4792 0.51297200   1.008000   ; qtot 94.483335
 4793         h1    180    ccc     H9   4793 0.05653400   1.008000   ; qtot 94.539869
 4794         h1    180    ccc    H10   4794 0.05653400   1.008000   ; qtot 94.596403
 4795         oh    180    ccc     O5   4795 -0.84113600  16.000000   ; qtot 93.755267
 4796         ho    180    ccc    H11   4796 0.51201600   1.008000   ; qtot 94.267283
 4797         os    180    ccc     O6   4797 -0.26013600  16.000000   ; qtot 94.007147
; residue  181 ccc rtp ccc q 0.0
 4798         c3    181    ccc     C1   4798 -0.33178800  12.010000   ; qtot 93.675359
 4799         c3    181    ccc     C2   4799 0.30606500  12.010000   ; qtot 93.981424
 4800         h1    181    ccc     H1   4800 0.11662300   1.008000   ; qtot 94.098047
 4801         h1    181    ccc     H2   4801 0.11526800   1.008000   ; qtot 94.213315
 4802         c3    181    ccc     C3   4802 0.15592700  12.010000   ; qtot 94.369242
 4803         c3    181    ccc     C4   4803 0.28383300  12.010000   ; qtot 94.653075
 4804         c3    181    ccc     C5   4804 0.32403300  12.010000   ; qtot 94.977108
 4805         h1    181    ccc     H3   4805 0.13386900   1.008000   ; qtot 95.110977
 4806         h1    181    ccc     H4   4806 0.10146700   1.008000   ; qtot 95.212444
 4807         h2    181    ccc     H5   4807 0.10960400   1.008000   ; qtot 95.322048
 4808         os    181    ccc     O1   4808 -0.28650000  16.000000   ; qtot 95.035548
 4809         oh    181    ccc     O2   4809 -0.86012500  16.000000   ; qtot 94.175423
 4810         oh    181    ccc     O3   4810 -0.83772800  16.000000   ; qtot 93.337695
 4811         oh    181    ccc     O4   4811 -0.77449700  16.000000   ; qtot 92.563198
 4812         c3    181    ccc     C6   4812 0.37576500  12.010000   ; qtot 92.938963
 4813         ho    181    ccc     H6   4813 0.53656000   1.008000   ; qtot 93.475523
 4814         ho    181    ccc     H7   4814 0.49492100   1.008000   ; qtot 93.970444
 4815         ho    181    ccc     H8   4815 0.51297200   1.008000   ; qtot 94.483416
 4816         h1    181    ccc     H9   4816 0.05653400   1.008000   ; qtot 94.539950
 4817         h1    181    ccc    H10   4817 0.05653400   1.008000   ; qtot 94.596484
 4818         oh    181    ccc     O5   4818 -0.84113600  16.000000   ; qtot 93.755348
 4819         ho    181    ccc    H11   4819 0.51201600   1.008000   ; qtot 94.267364
 4820         os    181    ccc     O6   4820 -0.26013600  16.000000   ; qtot 94.007228
; residue  182 ccc rtp ccc q 0.0
 4821         c3    182    ccc     C1   4821 -0.33178800  12.010000   ; qtot 93.675440
 4822         c3    182    ccc     C2   4822 0.30606500  12.010000   ; qtot 93.981505
 4823         h1    182    ccc     H1   4823 0.11662300   1.008000   ; qtot 94.098128
 4824         h1    182    ccc     H2   4824 0.11526800   1.008000   ; qtot 94.213396
 4825         c3    182    ccc     C3   4825 0.15592700  12.010000   ; qtot 94.369323
 4826         c3    182    ccc     C4   4826 0.28383300  12.010000   ; qtot 94.653156
 4827         c3    182    ccc     C5   4827 0.32403300  12.010000   ; qtot 94.977189
 4828         h1    182    ccc     H3   4828 0.13386900   1.008000   ; qtot 95.111058
 4829         h1    182    ccc     H4   4829 0.10146700   1.008000   ; qtot 95.212525
 4830         h2    182    ccc     H5   4830 0.10960400   1.008000   ; qtot 95.322129
 4831         os    182    ccc     O1   4831 -0.28650000  16.000000   ; qtot 95.035629
 4832         oh    182    ccc     O2   4832 -0.86012500  16.000000   ; qtot 94.175504
 4833         oh    182    ccc     O3   4833 -0.83772800  16.000000   ; qtot 93.337776
 4834         oh    182    ccc     O4   4834 -0.77449700  16.000000   ; qtot 92.563279
 4835         c3    182    ccc     C6   4835 0.37576500  12.010000   ; qtot 92.939044
 4836         ho    182    ccc     H6   4836 0.53656000   1.008000   ; qtot 93.475604
 4837         ho    182    ccc     H7   4837 0.49492100   1.008000   ; qtot 93.970525
 4838         ho    182    ccc     H8   4838 0.51297200   1.008000   ; qtot 94.483497
 4839         h1    182    ccc     H9   4839 0.05653400   1.008000   ; qtot 94.540031
 4840         h1    182    ccc    H10   4840 0.05653400   1.008000   ; qtot 94.596565
 4841         oh    182    ccc     O5   4841 -0.84113600  16.000000   ; qtot 93.755429
 4842         ho    182    ccc    H11   4842 0.51201600   1.008000   ; qtot 94.267445
 4843         os    182    ccc     O6   4843 -0.26013600  16.000000   ; qtot 94.007309
; residue  183 ccc rtp ccc q 0.0
 4844         c3    183    ccc     C1   4844 -0.33178800  12.010000   ; qtot 93.675521
 4845         c3    183    ccc     C2   4845 0.30606500  12.010000   ; qtot 93.981586
 4846         h1    183    ccc     H1   4846 0.11662300   1.008000   ; qtot 94.098209
 4847         h1    183    ccc     H2   4847 0.11526800   1.008000   ; qtot 94.213477
 4848         c3    183    ccc     C3   4848 0.15592700  12.010000   ; qtot 94.369404
 4849         c3    183    ccc     C4   4849 0.28383300  12.010000   ; qtot 94.653237
 4850         c3    183    ccc     C5   4850 0.32403300  12.010000   ; qtot 94.977270
 4851         h1    183    ccc     H3   4851 0.13386900   1.008000   ; qtot 95.111139
 4852         h1    183    ccc     H4   4852 0.10146700   1.008000   ; qtot 95.212606
 4853         h2    183    ccc     H5   4853 0.10960400   1.008000   ; qtot 95.322210
 4854         os    183    ccc     O1   4854 -0.28650000  16.000000   ; qtot 95.035710
 4855         oh    183    ccc     O2   4855 -0.86012500  16.000000   ; qtot 94.175585
 4856         oh    183    ccc     O3   4856 -0.83772800  16.000000   ; qtot 93.337857
 4857         oh    183    ccc     O4   4857 -0.77449700  16.000000   ; qtot 92.563360
 4858         c3    183    ccc     C6   4858 0.37576500  12.010000   ; qtot 92.939125
 4859         ho    183    ccc     H6   4859 0.53656000   1.008000   ; qtot 93.475685
 4860         ho    183    ccc     H7   4860 0.49492100   1.008000   ; qtot 93.970606
 4861         ho    183    ccc     H8   4861 0.51297200   1.008000   ; qtot 94.483578
 4862         h1    183    ccc     H9   4862 0.05653400   1.008000   ; qtot 94.540112
 4863         h1    183    ccc    H10   4863 0.05653400   1.008000   ; qtot 94.596646
 4864         oh    183    ccc     O5   4864 -0.84113600  16.000000   ; qtot 93.755510
 4865         ho    183    ccc    H11   4865 0.51201600   1.008000   ; qtot 94.267526
 4866         os    183    ccc     O6   4866 -0.26013600  16.000000   ; qtot 94.007390
; residue  184 ccc rtp ccc q 0.0
 4867         c3    184    ccc     C1   4867 -0.33178800  12.010000   ; qtot 93.675602
 4868         c3    184    ccc     C2   4868 0.30606500  12.010000   ; qtot 93.981667
 4869         h1    184    ccc     H1   4869 0.11662300   1.008000   ; qtot 94.098290
 4870         h1    184    ccc     H2   4870 0.11526800   1.008000   ; qtot 94.213558
 4871         c3    184    ccc     C3   4871 0.15592700  12.010000   ; qtot 94.369485
 4872         c3    184    ccc     C4   4872 0.28383300  12.010000   ; qtot 94.653318
 4873         c3    184    ccc     C5   4873 0.32403300  12.010000   ; qtot 94.977351
 4874         h1    184    ccc     H3   4874 0.13386900   1.008000   ; qtot 95.111220
 4875         h1    184    ccc     H4   4875 0.10146700   1.008000   ; qtot 95.212687
 4876         h2    184    ccc     H5   4876 0.10960400   1.008000   ; qtot 95.322291
 4877         os    184    ccc     O1   4877 -0.28650000  16.000000   ; qtot 95.035791
 4878         oh    184    ccc     O2   4878 -0.86012500  16.000000   ; qtot 94.175666
 4879         oh    184    ccc     O3   4879 -0.83772800  16.000000   ; qtot 93.337938
 4880         oh    184    ccc     O4   4880 -0.77449700  16.000000   ; qtot 92.563441
 4881         c3    184    ccc     C6   4881 0.37576500  12.010000   ; qtot 92.939206
 4882         ho    184    ccc     H6   4882 0.53656000   1.008000   ; qtot 93.475766
 4883         ho    184    ccc     H7   4883 0.49492100   1.008000   ; qtot 93.970687
 4884         ho    184    ccc     H8   4884 0.51297200   1.008000   ; qtot 94.483659
 4885         h1    184    ccc     H9   4885 0.05653400   1.008000   ; qtot 94.540193
 4886         h1    184    ccc    H10   4886 0.05653400   1.008000   ; qtot 94.596727
 4887         oh    184    ccc     O5   4887 -0.84113600  16.000000   ; qtot 93.755591
 4888         ho    184    ccc    H11   4888 0.51201600   1.008000   ; qtot 94.267607
 4889         os    184    ccc     O6   4889 -0.26013600  16.000000   ; qtot 94.007471
; residue  185 ccc rtp ccc q 0.0
 4890         c3    185    ccc     C1   4890 -0.33178800  12.010000   ; qtot 93.675683
 4891         c3    185    ccc     C2   4891 0.30606500  12.010000   ; qtot 93.981748
 4892         h1    185    ccc     H1   4892 0.11662300   1.008000   ; qtot 94.098371
 4893         h1    185    ccc     H2   4893 0.11526800   1.008000   ; qtot 94.213639
 4894         c3    185    ccc     C3   4894 0.15592700  12.010000   ; qtot 94.369566
 4895         c3    185    ccc     C4   4895 0.28383300  12.010000   ; qtot 94.653399
 4896         c3    185    ccc     C5   4896 0.32403300  12.010000   ; qtot 94.977432
 4897         h1    185    ccc     H3   4897 0.13386900   1.008000   ; qtot 95.111301
 4898         h1    185    ccc     H4   4898 0.10146700   1.008000   ; qtot 95.212768
 4899         h2    185    ccc     H5   4899 0.10960400   1.008000   ; qtot 95.322372
 4900         os    185    ccc     O1   4900 -0.28650000  16.000000   ; qtot 95.035872
 4901         oh    185    ccc     O2   4901 -0.86012500  16.000000   ; qtot 94.175747
 4902         oh    185    ccc     O3   4902 -0.83772800  16.000000   ; qtot 93.338019
 4903         oh    185    ccc     O4   4903 -0.77449700  16.000000   ; qtot 92.563522
 4904         c3    185    ccc     C6   4904 0.37576500  12.010000   ; qtot 92.939287
 4905         ho    185    ccc     H6   4905 0.53656000   1.008000   ; qtot 93.475847
 4906         ho    185    ccc     H7   4906 0.49492100   1.008000   ; qtot 93.970768
 4907         ho    185    ccc     H8   4907 0.51297200   1.008000   ; qtot 94.483740
 4908         h1    185    ccc     H9   4908 0.05653400   1.008000   ; qtot 94.540274
 4909         h1    185    ccc    H10   4909 0.05653400   1.008000   ; qtot 94.596808
 4910         oh    185    ccc     O5   4910 -0.84113600  16.000000   ; qtot 93.755672
 4911         ho    185    ccc    H11   4911 0.51201600   1.008000   ; qtot 94.267688
 4912         os    185    ccc     O6   4912 -0.26013600  16.000000   ; qtot 94.007552
; residue  186 ccc rtp ccc q 0.0
 4913         c3    186    ccc     C1   4913 -0.33178800  12.010000   ; qtot 93.675764
 4914         c3    186    ccc     C2   4914 0.30606500  12.010000   ; qtot 93.981829
 4915         h1    186    ccc     H1   4915 0.11662300   1.008000   ; qtot 94.098452
 4916         h1    186    ccc     H2   4916 0.11526800   1.008000   ; qtot 94.213720
 4917         c3    186    ccc     C3   4917 0.15592700  12.010000   ; qtot 94.369647
 4918         c3    186    ccc     C4   4918 0.28383300  12.010000   ; qtot 94.653480
 4919         c3    186    ccc     C5   4919 0.32403300  12.010000   ; qtot 94.977513
 4920         h1    186    ccc     H3   4920 0.13386900   1.008000   ; qtot 95.111382
 4921         h1    186    ccc     H4   4921 0.10146700   1.008000   ; qtot 95.212849
 4922         h2    186    ccc     H5   4922 0.10960400   1.008000   ; qtot 95.322453
 4923         os    186    ccc     O1   4923 -0.28650000  16.000000   ; qtot 95.035953
 4924         oh    186    ccc     O2   4924 -0.86012500  16.000000   ; qtot 94.175828
 4925         oh    186    ccc     O3   4925 -0.83772800  16.000000   ; qtot 93.338100
 4926         oh    186    ccc     O4   4926 -0.77449700  16.000000   ; qtot 92.563603
 4927         c3    186    ccc     C6   4927 0.37576500  12.010000   ; qtot 92.939368
 4928         ho    186    ccc     H6   4928 0.53656000   1.008000   ; qtot 93.475928
 4929         ho    186    ccc     H7   4929 0.49492100   1.008000   ; qtot 93.970849
 4930         ho    186    ccc     H8   4930 0.51297200   1.008000   ; qtot 94.483821
 4931         h1    186    ccc     H9   4931 0.05653400   1.008000   ; qtot 94.540355
 4932         h1    186    ccc    H10   4932 0.05653400   1.008000   ; qtot 94.596889
 4933         oh    186    ccc     O5   4933 -0.84113600  16.000000   ; qtot 93.755753
 4934         ho    186    ccc    H11   4934 0.51201600   1.008000   ; qtot 94.267769
 4935         os    186    ccc     O6   4935 -0.26013600  16.000000   ; qtot 94.007633
; residue  187 ccc rtp ccc q 0.0
 4936         c3    187    ccc     C1   4936 -0.33178800  12.010000   ; qtot 93.675845
 4937         c3    187    ccc     C2   4937 0.30606500  12.010000   ; qtot 93.981910
 4938         h1    187    ccc     H1   4938 0.11662300   1.008000   ; qtot 94.098533
 4939         h1    187    ccc     H2   4939 0.11526800   1.008000   ; qtot 94.213801
 4940         c3    187    ccc     C3   4940 0.15592700  12.010000   ; qtot 94.369728
 4941         c3    187    ccc     C4   4941 0.28383300  12.010000   ; qtot 94.653561
 4942         c3    187    ccc     C5   4942 0.32403300  12.010000   ; qtot 94.977594
 4943         h1    187    ccc     H3   4943 0.13386900   1.008000   ; qtot 95.111463
 4944         h1    187    ccc     H4   4944 0.10146700   1.008000   ; qtot 95.212930
 4945         h2    187    ccc     H5   4945 0.10960400   1.008000   ; qtot 95.322534
 4946         os    187    ccc     O1   4946 -0.28650000  16.000000   ; qtot 95.036034
 4947         oh    187    ccc     O2   4947 -0.86012500  16.000000   ; qtot 94.175909
 4948         oh    187    ccc     O3   4948 -0.83772800  16.000000   ; qtot 93.338181
 4949         oh    187    ccc     O4   4949 -0.77449700  16.000000   ; qtot 92.563684
 4950         c3    187    ccc     C6   4950 0.37576500  12.010000   ; qtot 92.939449
 4951         ho    187    ccc     H6   4951 0.53656000   1.008000   ; qtot 93.476009
 4952         ho    187    ccc     H7   4952 0.49492100   1.008000   ; qtot 93.970930
 4953         ho    187    ccc     H8   4953 0.51297200   1.008000   ; qtot 94.483902
 4954         h1    187    ccc     H9   4954 0.05653400   1.008000   ; qtot 94.540436
 4955         h1    187    ccc    H10   4955 0.05653400   1.008000   ; qtot 94.596970
 4956         oh    187    ccc     O5   4956 -0.84113600  16.000000   ; qtot 93.755834
 4957         ho    187    ccc    H11   4957 0.51201600   1.008000   ; qtot 94.267850
 4958         os    187    ccc     O6   4958 -0.26013600  16.000000   ; qtot 94.007714
; residue  188 ccc rtp ccc q 0.0
 4959         c3    188    ccc     C1   4959 -0.33178800  12.010000   ; qtot 93.675926
 4960         c3    188    ccc     C2   4960 0.30606500  12.010000   ; qtot 93.981991
 4961         h1    188    ccc     H1   4961 0.11662300   1.008000   ; qtot 94.098614
 4962         h1    188    ccc     H2   4962 0.11526800   1.008000   ; qtot 94.213882
 4963         c3    188    ccc     C3   4963 0.15592700  12.010000   ; qtot 94.369809
 4964         c3    188    ccc     C4   4964 0.28383300  12.010000   ; qtot 94.653642
 4965         c3    188    ccc     C5   4965 0.32403300  12.010000   ; qtot 94.977675
 4966         h1    188    ccc     H3   4966 0.13386900   1.008000   ; qtot 95.111544
 4967         h1    188    ccc     H4   4967 0.10146700   1.008000   ; qtot 95.213011
 4968         h2    188    ccc     H5   4968 0.10960400   1.008000   ; qtot 95.322615
 4969         os    188    ccc     O1   4969 -0.28650000  16.000000   ; qtot 95.036115
 4970         oh    188    ccc     O2   4970 -0.86012500  16.000000   ; qtot 94.175990
 4971         oh    188    ccc     O3   4971 -0.83772800  16.000000   ; qtot 93.338262
 4972         oh    188    ccc     O4   4972 -0.77449700  16.000000   ; qtot 92.563765
 4973         c3    188    ccc     C6   4973 0.37576500  12.010000   ; qtot 92.939530
 4974         ho    188    ccc     H6   4974 0.53656000   1.008000   ; qtot 93.476090
 4975         ho    188    ccc     H7   4975 0.49492100   1.008000   ; qtot 93.971011
 4976         ho    188    ccc     H8   4976 0.51297200   1.008000   ; qtot 94.483983
 4977         h1    188    ccc     H9   4977 0.05653400   1.008000   ; qtot 94.540517
 4978         h1    188    ccc    H10   4978 0.05653400   1.008000   ; qtot 94.597051
 4979         oh    188    ccc     O5   4979 -0.84113600  16.000000   ; qtot 93.755915
 4980         ho    188    ccc    H11   4980 0.51201600   1.008000   ; qtot 94.267931
 4981         os    188    ccc     O6   4981 -0.26013600  16.000000   ; qtot 94.007795
; residue  189 ccc rtp ccc q 0.0
 4982         c3    189    ccc     C1   4982 -0.33178800  12.010000   ; qtot 93.676007
 4983         c3    189    ccc     C2   4983 0.30606500  12.010000   ; qtot 93.982072
 4984         h1    189    ccc     H1   4984 0.11662300   1.008000   ; qtot 94.098695
 4985         h1    189    ccc     H2   4985 0.11526800   1.008000   ; qtot 94.213963
 4986         c3    189    ccc     C3   4986 0.15592700  12.010000   ; qtot 94.369890
 4987         c3    189    ccc     C4   4987 0.28383300  12.010000   ; qtot 94.653723
 4988         c3    189    ccc     C5   4988 0.32403300  12.010000   ; qtot 94.977756
 4989         h1    189    ccc     H3   4989 0.13386900   1.008000   ; qtot 95.111625
 4990         h1    189    ccc     H4   4990 0.10146700   1.008000   ; qtot 95.213092
 4991         h2    189    ccc     H5   4991 0.10960400   1.008000   ; qtot 95.322696
 4992         os    189    ccc     O1   4992 -0.28650000  16.000000   ; qtot 95.036196
 4993         oh    189    ccc     O2   4993 -0.86012500  16.000000   ; qtot 94.176071
 4994         oh    189    ccc     O3   4994 -0.83772800  16.000000   ; qtot 93.338343
 4995         oh    189    ccc     O4   4995 -0.77449700  16.000000   ; qtot 92.563846
 4996         c3    189    ccc     C6   4996 0.37576500  12.010000   ; qtot 92.939611
 4997         ho    189    ccc     H6   4997 0.53656000   1.008000   ; qtot 93.476171
 4998         ho    189    ccc     H7   4998 0.49492100   1.008000   ; qtot 93.971092
 4999         ho    189    ccc     H8   4999 0.51297200   1.008000   ; qtot 94.484064
 5000         h1    189    ccc     H9   5000 0.05653400   1.008000   ; qtot 94.540598
 5001         h1    189    ccc    H10   5001 0.05653400   1.008000   ; qtot 94.597132
 5002         oh    189    ccc     O5   5002 -0.84113600  16.000000   ; qtot 93.755996
 5003         ho    189    ccc    H11   5003 0.51201600   1.008000   ; qtot 94.268012
 5004         os    189    ccc     O6   5004 -0.26013600  16.000000   ; qtot 94.007876
; residue  190 ccc rtp ccc q 0.0
 5005         c3    190    ccc     C1   5005 -0.33178800  12.010000   ; qtot 93.676088
 5006         c3    190    ccc     C2   5006 0.30606500  12.010000   ; qtot 93.982153
 5007         h1    190    ccc     H1   5007 0.11662300   1.008000   ; qtot 94.098776
 5008         h1    190    ccc     H2   5008 0.11526800   1.008000   ; qtot 94.214044
 5009         c3    190    ccc     C3   5009 0.15592700  12.010000   ; qtot 94.369971
 5010         c3    190    ccc     C4   5010 0.28383300  12.010000   ; qtot 94.653804
 5011         c3    190    ccc     C5   5011 0.32403300  12.010000   ; qtot 94.977837
 5012         h1    190    ccc     H3   5012 0.13386900   1.008000   ; qtot 95.111706
 5013         h1    190    ccc     H4   5013 0.10146700   1.008000   ; qtot 95.213173
 5014         h2    190    ccc     H5   5014 0.10960400   1.008000   ; qtot 95.322777
 5015         os    190    ccc     O1   5015 -0.28650000  16.000000   ; qtot 95.036277
 5016         oh    190    ccc     O2   5016 -0.86012500  16.000000   ; qtot 94.176152
 5017         oh    190    ccc     O3   5017 -0.83772800  16.000000   ; qtot 93.338424
 5018         oh    190    ccc     O4   5018 -0.77449700  16.000000   ; qtot 92.563927
 5019         c3    190    ccc     C6   5019 0.37576500  12.010000   ; qtot 92.939692
 5020         ho    190    ccc     H6   5020 0.53656000   1.008000   ; qtot 93.476252
 5021         ho    190    ccc     H7   5021 0.49492100   1.008000   ; qtot 93.971173
 5022         ho    190    ccc     H8   5022 0.51297200   1.008000   ; qtot 94.484145
 5023         h1    190    ccc     H9   5023 0.05653400   1.008000   ; qtot 94.540679
 5024         h1    190    ccc    H10   5024 0.05653400   1.008000   ; qtot 94.597213
 5025         oh    190    ccc     O5   5025 -0.84113600  16.000000   ; qtot 93.756077
 5026         ho    190    ccc    H11   5026 0.51201600   1.008000   ; qtot 94.268093
 5027         os    190    ccc     O6   5027 -0.26013600  16.000000   ; qtot 94.007957

[ bonds ]
;    ai     aj funct         c0         c1         c2         c3
      1      2     1   0.15110 237065.440000
      1      5     1   0.15110 237065.440000
      1      8     1   0.15110 237065.440000
      2     14     1   0.15375 251793.120000
      5     17     1   0.15375 251793.120000
      8     11     1   0.15375 251793.120000
     11     23     1   0.15375 251793.120000
     14     26     1   0.15375 251793.120000
     17     20     1   0.15375 251793.120000
     20     58     1   0.14316 258236.480000
     23     88     1   0.14316 258236.480000
     26    118     1   0.14316 258236.480000
     30     31     1   0.15110 237065.440000
     30     34     1   0.15110 237065.440000
     30     37     1   0.15110 237065.440000
     31     43     1   0.15375 251793.120000
     34     46     1   0.15375 251793.120000
     37     40     1   0.15375 251793.120000
     40     49     1   0.15375 251793.120000
     43     55     1   0.15375 251793.120000
     46     52     1   0.15375 251793.120000
     49     58     1   0.14316 258236.480000
     52    148     1   0.14316 258236.480000
     55    178     1   0.14316 258236.480000
     60     61     1   0.15110 237065.440000
     60     64     1   0.15110 237065.440000
     60     67     1   0.15110 237065.440000
     61     73     1   0.15375 251793.120000
     64     76     1   0.15375 251793.120000
     67     70     1   0.15375 251793.120000
     70     79     1   0.15375 251793.120000
     73     85     1   0.15375 251793.120000
     76     82     1   0.15375 251793.120000
     79     88     1   0.14316 258236.480000
     82    208     1   0.14316 258236.480000
     85    238     1   0.14316 258236.480000
     90     91     1   0.15110 237065.440000
     90     94     1   0.15110 237065.440000
     90     97     1   0.15110 237065.440000
     91    103     1   0.15375 251793.120000
     94    106     1   0.15375 251793.120000
     97    100     1   0.15375 251793.120000
    100    109     1   0.15375 251793.120000
    103    115     1   0.15375 251793.120000
    106    112     1   0.15375 251793.120000
    109    118     1   0.14316 258236.480000
    112    268     1   0.14316 258236.480000
    115    298     1   0.14316 258236.480000
    120    121     1   0.15110 237065.440000
    120    124     1   0.15110 237065.440000
    120    127     1   0.15110 237065.440000
    121    133     1   0.15375 251793.120000
    124    136     1   0.15375 251793.120000
    127    130     1   0.15375 251793.120000
    130    139     1   0.15375 251793.120000
    133    145     1   0.15375 251793.120000
    136    142     1   0.15375 251793.120000
    139    148     1   0.14316 258236.480000
    142    328     1   0.14316 258236.480000
    145    358     1   0.14316 258236.480000
    150    151     1   0.15110 237065.440000
    150    154     1   0.15110 237065.440000
    150    157     1   0.15110 237065.440000
    151    163     1   0.15375 251793.120000
    154    166     1   0.15375 251793.120000
    157    160     1   0.15375 251793.120000
    160    169     1   0.15375 251793.120000
    163    175     1   0.15375 251793.120000
    166    172     1   0.15375 251793.120000
    169    178     1   0.14316 258236.480000
    172    388     1   0.14316 258236.480000
    175    418     1   0.14316 258236.480000
    180    181     1   0.15110 237065.440000
    180    184     1   0.15110 237065.440000
    180    187     1   0.15110 237065.440000
    181    193     1   0.15375 251793.120000
    184    196     1   0.15375 251793.120000
    187    190     1   0.15375 251793.120000
    190    199     1   0.15375 251793.120000
    193    205     1   0.15375 251793.120000
    196    202     1   0.15375 251793.120000
    199    208     1   0.14316 258236.480000
    202    448     1   0.14316 258236.480000
    205    478     1   0.14316 258236.480000
    210    211     1   0.15110 237065.440000
    210    214     1   0.15110 237065.440000
    210    217     1   0.15110 237065.440000
    211    223     1   0.15375 251793.120000
    214    226     1   0.15375 251793.120000
    217    220     1   0.15375 251793.120000
    220    229     1   0.15375 251793.120000
    223    235     1   0.15375 251793.120000
    226    232     1   0.15375 251793.120000
    229    238     1   0.14316 258236.480000
    232    508     1   0.14316 258236.480000
    235    538     1   0.14316 258236.480000
    240    241     1   0.15110 237065.440000
    240    244     1   0.15110 237065.440000
    240    247     1   0.15110 237065.440000
    241    253     1   0.15375 251793.120000
    244    256     1   0.15375 251793.120000
    247    250     1   0.15375 251793.120000
    250    259     1   0.15375 251793.120000
    253    265     1   0.15375 251793.120000
    256    262     1   0.15375 251793.120000
    259    268     1   0.14316 258236.480000
    262    568     1   0.14316 258236.480000
    265    598     1   0.14316 258236.480000
    270    271     1   0.15110 237065.440000
    270    274     1   0.15110 237065.440000
    270    277     1   0.15110 237065.440000
    271    283     1   0.15375 251793.120000
    274    286     1   0.15375 251793.120000
    277    280     1   0.15375 251793.120000
    280    289     1   0.15375 251793.120000
    283    295     1   0.15375 251793.120000
    286    292     1   0.15375 251793.120000
    289    298     1   0.14316 258236.480000
    292    628     1   0.14316 258236.480000
    295    658     1   0.14316 258236.480000
    300    301     1   0.15110 237065.440000
    300    304     1   0.15110 237065.440000
    300    307     1   0.15110 237065.440000
    301    313     1   0.15375 251793.120000
    304    316     1   0.15375 251793.120000
    307    310     1   0.15375 251793.120000
    310    319     1   0.15375 251793.120000
    313    325     1   0.15375 251793.120000
    316    322     1   0.15375 251793.120000
    319    328     1   0.14316 258236.480000
    322    688     1   0.14316 258236.480000
    325    718     1   0.14316 258236.480000
    330    331     1   0.15110 237065.440000
    330    334     1   0.15110 237065.440000
    330    337     1   0.15110 237065.440000
    331    343     1   0.15375 251793.120000
    334    346     1   0.15375 251793.120000
    337    340     1   0.15375 251793.120000
    340    349     1   0.15375 251793.120000
    343    355     1   0.15375 251793.120000
    346    352     1   0.15375 251793.120000
    349    358     1   0.14316 258236.480000
    352    748     1   0.14316 258236.480000
    355    778     1   0.14316 258236.480000
    360    361     1   0.15110 237065.440000
    360    364     1   0.15110 237065.440000
    360    367     1   0.15110 237065.440000
    361    373     1   0.15375 251793.120000
    364    376     1   0.15375 251793.120000
    367    370     1   0.15375 251793.120000
    370    379     1   0.15375 251793.120000
    373    385     1   0.15375 251793.120000
    376    382     1   0.15375 251793.120000
    379    388     1   0.14316 258236.480000
    382    808     1   0.14316 258236.480000
    385    838     1   0.14316 258236.480000
    390    391     1   0.15110 237065.440000
    390    394     1   0.15110 237065.440000
    390    397     1   0.15110 237065.440000
    391    403     1   0.15375 251793.120000
    394    406     1   0.15375 251793.120000
    397    400     1   0.15375 251793.120000
    400    409     1   0.15375 251793.120000
    403    415     1   0.15375 251793.120000
    406    412     1   0.15375 251793.120000
    409    418     1   0.14316 258236.480000
    412    868     1   0.14316 258236.480000
    415    898     1   0.14316 258236.480000
    420    421     1   0.15110 237065.440000
    420    424     1   0.15110 237065.440000
    420    427     1   0.15110 237065.440000
    421    433     1   0.15375 251793.120000
    424    436     1   0.15375 251793.120000
    427    430     1   0.15375 251793.120000
    430    439     1   0.15375 251793.120000
    433    445     1   0.15375 251793.120000
    436    442     1   0.15375 251793.120000
    439    448     1   0.14316 258236.480000
    442    928     1   0.14316 258236.480000
    445    958     1   0.14316 258236.480000
    450    451     1   0.15110 237065.440000
    450    454     1   0.15110 237065.440000
    450    457     1   0.15110 237065.440000
    451    463     1   0.15375 251793.120000
    454    466     1   0.15375 251793.120000
    457    460     1   0.15375 251793.120000
    460    469     1   0.15375 251793.120000
    463    475     1   0.15375 251793.120000
    466    472     1   0.15375 251793.120000
    469    478     1   0.14316 258236.480000
    472    988     1   0.14316 258236.480000
    475   1018     1   0.14316 258236.480000
    480    481     1   0.15110 237065.440000
    480    484     1   0.15110 237065.440000
    480    487     1   0.15110 237065.440000
    481    493     1   0.15375 251793.120000
    484    496     1   0.15375 251793.120000
    487    490     1   0.15375 251793.120000
    490    499     1   0.15375 251793.120000
    493    505     1   0.15375 251793.120000
    496    502     1   0.15375 251793.120000
    499    508     1   0.14316 258236.480000
    502   1048     1   0.14316 258236.480000
    505   1078     1   0.14316 258236.480000
    510    511     1   0.15110 237065.440000
    510    514     1   0.15110 237065.440000
    510    517     1   0.15110 237065.440000
    511    523     1   0.15375 251793.120000
    514    526     1   0.15375 251793.120000
    517    520     1   0.15375 251793.120000
    520    529     1   0.15375 251793.120000
    523    535     1   0.15375 251793.120000
    526    532     1   0.15375 251793.120000
    529    538     1   0.14316 258236.480000
    532   1108     1   0.14316 258236.480000
    535   1138     1   0.14316 258236.480000
    540    541     1   0.15110 237065.440000
    540    544     1   0.15110 237065.440000
    540    547     1   0.15110 237065.440000
    541    553     1   0.15375 251793.120000
    544    556     1   0.15375 251793.120000
    547    550     1   0.15375 251793.120000
    550    559     1   0.15375 251793.120000
    553    565     1   0.15375 251793.120000
    556    562     1   0.15375 251793.120000
    559    568     1   0.14316 258236.480000
    562   1168     1   0.14316 258236.480000
    565   1198     1   0.14316 258236.480000
    570    571     1   0.15110 237065.440000
    570    574     1   0.15110 237065.440000
    570    577     1   0.15110 237065.440000
    571    583     1   0.15375 251793.120000
    574    586     1   0.15375 251793.120000
    577    580     1   0.15375 251793.120000
    580    589     1   0.15375 251793.120000
    583    595     1   0.15375 251793.120000
    586    592     1   0.15375 251793.120000
    589    598     1   0.14316 258236.480000
    592   1228     1   0.14316 258236.480000
    595   1258     1   0.14316 258236.480000
    600    601     1   0.15110 237065.440000
    600    604     1   0.15110 237065.440000
    600    607     1   0.15110 237065.440000
    601    613     1   0.15375 251793.120000
    604    616     1   0.15375 251793.120000
    607    610     1   0.15375 251793.120000
    610    619     1   0.15375 251793.120000
    613    625     1   0.15375 251793.120000
    616    622     1   0.15375 251793.120000
    619    628     1   0.14316 258236.480000
    622   1288     1   0.14316 258236.480000
    625   1318     1   0.14316 258236.480000
    630    631     1   0.15110 237065.440000
    630    634     1   0.15110 237065.440000
    630    637     1   0.15110 237065.440000
    631    643     1   0.15375 251793.120000
    634    646     1   0.15375 251793.120000
    637    640     1   0.15375 251793.120000
    640    649     1   0.15375 251793.120000
    643    655     1   0.15375 251793.120000
    646    652     1   0.15375 251793.120000
    649    658     1   0.14316 258236.480000
    652   1348     1   0.14316 258236.480000
    655   1378     1   0.14316 258236.480000
    660    661     1   0.15110 237065.440000
    660    664     1   0.15110 237065.440000
    660    667     1   0.15110 237065.440000
    661    673     1   0.15375 251793.120000
    664    676     1   0.15375 251793.120000
    667    670     1   0.15375 251793.120000
    670    679     1   0.15375 251793.120000
    673    685     1   0.15375 251793.120000
    676    682     1   0.15375 251793.120000
    679    688     1   0.14316 258236.480000
    682   1408     1   0.14316 258236.480000
    685   1438     1   0.14316 258236.480000
    690    691     1   0.15110 237065.440000
    690    694     1   0.15110 237065.440000
    690    697     1   0.15110 237065.440000
    691    703     1   0.15375 251793.120000
    694    706     1   0.15375 251793.120000
    697    700     1   0.15375 251793.120000
    700    709     1   0.15375 251793.120000
    703    715     1   0.15375 251793.120000
    706    712     1   0.15375 251793.120000
    709    718     1   0.14316 258236.480000
    712   1468     1   0.14316 258236.480000
    715   1498     1   0.14316 258236.480000
    720    721     1   0.15110 237065.440000
    720    724     1   0.15110 237065.440000
    720    727     1   0.15110 237065.440000
    721    733     1   0.15375 251793.120000
    724    736     1   0.15375 251793.120000
    727    730     1   0.15375 251793.120000
    730    739     1   0.15375 251793.120000
    733    745     1   0.15375 251793.120000
    736    742     1   0.15375 251793.120000
    739    748     1   0.14316 258236.480000
    742   1528     1   0.14316 258236.480000
    745   1558     1   0.14316 258236.480000
    750    751     1   0.15110 237065.440000
    750    754     1   0.15110 237065.440000
    750    757     1   0.15110 237065.440000
    751    763     1   0.15375 251793.120000
    754    766     1   0.15375 251793.120000
    757    760     1   0.15375 251793.120000
    760    769     1   0.15375 251793.120000
    763    775     1   0.15375 251793.120000
    766    772     1   0.15375 251793.120000
    769    778     1   0.14316 258236.480000
    772   1588     1   0.14316 258236.480000
    775   1618     1   0.14316 258236.480000
    780    781     1   0.15110 237065.440000
    780    784     1   0.15110 237065.440000
    780    787     1   0.15110 237065.440000
    781    793     1   0.15375 251793.120000
    784    796     1   0.15375 251793.120000
    787    790     1   0.15375 251793.120000
    790    799     1   0.15375 251793.120000
    793    805     1   0.15375 251793.120000
    796    802     1   0.15375 251793.120000
    799    808     1   0.14316 258236.480000
    802   1648     1   0.14316 258236.480000
    805   1678     1   0.14316 258236.480000
    810    811     1   0.15110 237065.440000
    810    814     1   0.15110 237065.440000
    810    817     1   0.15110 237065.440000
    811    823     1   0.15375 251793.120000
    814    826     1   0.15375 251793.120000
    817    820     1   0.15375 251793.120000
    820    829     1   0.15375 251793.120000
    823    835     1   0.15375 251793.120000
    826    832     1   0.15375 251793.120000
    829    838     1   0.14316 258236.480000
    832   1708     1   0.14316 258236.480000
    835   1738     1   0.14316 258236.480000
    840    841     1   0.15110 237065.440000
    840    844     1   0.15110 237065.440000
    840    847     1   0.15110 237065.440000
    841    853     1   0.15375 251793.120000
    844    856     1   0.15375 251793.120000
    847    850     1   0.15375 251793.120000
    850    859     1   0.15375 251793.120000
    853    865     1   0.15375 251793.120000
    856    862     1   0.15375 251793.120000
    859    868     1   0.14316 258236.480000
    862   1768     1   0.14316 258236.480000
    865   1798     1   0.14316 258236.480000
    870    871     1   0.15110 237065.440000
    870    874     1   0.15110 237065.440000
    870    877     1   0.15110 237065.440000
    871    883     1   0.15375 251793.120000
    874    886     1   0.15375 251793.120000
    877    880     1   0.15375 251793.120000
    880    889     1   0.15375 251793.120000
    883    895     1   0.15375 251793.120000
    886    892     1   0.15375 251793.120000
    889    898     1   0.14316 258236.480000
    892   1828     1   0.14316 258236.480000
    895   1858     1   0.14316 258236.480000
    900    901     1   0.15110 237065.440000
    900    904     1   0.15110 237065.440000
    900    907     1   0.15110 237065.440000
    901    913     1   0.15375 251793.120000
    904    916     1   0.15375 251793.120000
    907    910     1   0.15375 251793.120000
    910    919     1   0.15375 251793.120000
    913    925     1   0.15375 251793.120000
    916    922     1   0.15375 251793.120000
    919    928     1   0.14316 258236.480000
    922   1888     1   0.14316 258236.480000
    925   1918     1   0.14316 258236.480000
    930    931     1   0.15110 237065.440000
    930    934     1   0.15110 237065.440000
    930    937     1   0.15110 237065.440000
    931    943     1   0.15375 251793.120000
    934    946     1   0.15375 251793.120000
    937    940     1   0.15375 251793.120000
    940    949     1   0.15375 251793.120000
    943    955     1   0.15375 251793.120000
    946    952     1   0.15375 251793.120000
    949    958     1   0.14316 258236.480000
    952   1948     1   0.14316 258236.480000
    955   1978     1   0.14316 258236.480000
    960    961     1   0.15110 237065.440000
    960    964     1   0.15110 237065.440000
    960    967     1   0.15110 237065.440000
    961    973     1   0.15375 251793.120000
    964    976     1   0.15375 251793.120000
    967    970     1   0.15375 251793.120000
    970    979     1   0.15375 251793.120000
    973    985     1   0.15375 251793.120000
    976    982     1   0.15375 251793.120000
    979    988     1   0.14316 258236.480000
    982   2008     1   0.14316 258236.480000
    985   2038     1   0.14316 258236.480000
    990    991     1   0.15110 237065.440000
    990    994     1   0.15110 237065.440000
    990    997     1   0.15110 237065.440000
    991   1003     1   0.15375 251793.120000
    994   1006     1   0.15375 251793.120000
    997   1000     1   0.15375 251793.120000
   1000   1009     1   0.15375 251793.120000
   1003   1015     1   0.15375 251793.120000
   1006   1012     1   0.15375 251793.120000
   1009   1018     1   0.14316 258236.480000
   1012   2068     1   0.14316 258236.480000
   1015   2098     1   0.14316 258236.480000
   1020   1021     1   0.15110 237065.440000
   1020   1024     1   0.15110 237065.440000
   1020   1027     1   0.15110 237065.440000
   1021   1033     1   0.15375 251793.120000
   1024   1036     1   0.15375 251793.120000
   1027   1030     1   0.15375 251793.120000
   1030   1039     1   0.15375 251793.120000
   1033   1045     1   0.15375 251793.120000
   1036   1042     1   0.15375 251793.120000
   1039   1048     1   0.14316 258236.480000
   1042   2128     1   0.14316 258236.480000
   1045   2158     1   0.14316 258236.480000
   1050   1051     1   0.15110 237065.440000
   1050   1054     1   0.15110 237065.440000
   1050   1057     1   0.15110 237065.440000
   1051   1063     1   0.15375 251793.120000
   1054   1066     1   0.15375 251793.120000
   1057   1060     1   0.15375 251793.120000
   1060   1069     1   0.15375 251793.120000
   1063   1075     1   0.15375 251793.120000
   1066   1072     1   0.15375 251793.120000
   1069   1078     1   0.14316 258236.480000
   1072   2188     1   0.14316 258236.480000
   1075   2218     1   0.14316 258236.480000
   1080   1081     1   0.15110 237065.440000
   1080   1084     1   0.15110 237065.440000
   1080   1087     1   0.15110 237065.440000
   1081   1093     1   0.15375 251793.120000
   1084   1096     1   0.15375 251793.120000
   1087   1090     1   0.15375 251793.120000
   1090   1099     1   0.15375 251793.120000
   1093   1105     1   0.15375 251793.120000
   1096   1102     1   0.15375 251793.120000
   1099   1108     1   0.14316 258236.480000
   1102   2248     1   0.14316 258236.480000
   1105   2278     1   0.14316 258236.480000
   1110   1111     1   0.15110 237065.440000
   1110   1114     1   0.15110 237065.440000
   1110   1117     1   0.15110 237065.440000
   1111   1123     1   0.15375 251793.120000
   1114   1126     1   0.15375 251793.120000
   1117   1120     1   0.15375 251793.120000
   1120   1129     1   0.15375 251793.120000
   1123   1135     1   0.15375 251793.120000
   1126   1132     1   0.15375 251793.120000
   1129   1138     1   0.14316 258236.480000
   1132   2308     1   0.14316 258236.480000
   1135   2338     1   0.14316 258236.480000
   1140   1141     1   0.15110 237065.440000
   1140   1144     1   0.15110 237065.440000
   1140   1147     1   0.15110 237065.440000
   1141   1153     1   0.15375 251793.120000
   1144   1156     1   0.15375 251793.120000
   1147   1150     1   0.15375 251793.120000
   1150   1159     1   0.15375 251793.120000
   1153   1165     1   0.15375 251793.120000
   1156   1162     1   0.15375 251793.120000
   1159   1168     1   0.14316 258236.480000
   1162   2368     1   0.14316 258236.480000
   1165   2398     1   0.14316 258236.480000
   1170   1171     1   0.15110 237065.440000
   1170   1174     1   0.15110 237065.440000
   1170   1177     1   0.15110 237065.440000
   1171   1183     1   0.15375 251793.120000
   1174   1186     1   0.15375 251793.120000
   1177   1180     1   0.15375 251793.120000
   1180   1189     1   0.15375 251793.120000
   1183   1195     1   0.15375 251793.120000
   1186   1192     1   0.15375 251793.120000
   1189   1198     1   0.14316 258236.480000
   1192   2428     1   0.14316 258236.480000
   1195   2458     1   0.14316 258236.480000
   1200   1201     1   0.15110 237065.440000
   1200   1204     1   0.15110 237065.440000
   1200   1207     1   0.15110 237065.440000
   1201   1213     1   0.15375 251793.120000
   1204   1216     1   0.15375 251793.120000
   1207   1210     1   0.15375 251793.120000
   1210   1219     1   0.15375 251793.120000
   1213   1225     1   0.15375 251793.120000
   1216   1222     1   0.15375 251793.120000
   1219   1228     1   0.14316 258236.480000
   1222   2488     1   0.14316 258236.480000
   1225   2518     1   0.14316 258236.480000
   1230   1231     1   0.15110 237065.440000
   1230   1234     1   0.15110 237065.440000
   1230   1237     1   0.15110 237065.440000
   1231   1243     1   0.15375 251793.120000
   1234   1246     1   0.15375 251793.120000
   1237   1240     1   0.15375 251793.120000
   1240   1249     1   0.15375 251793.120000
   1243   1255     1   0.15375 251793.120000
   1246   1252     1   0.15375 251793.120000
   1249   1258     1   0.14316 258236.480000
   1252   2548     1   0.14316 258236.480000
   1255   2578     1   0.14316 258236.480000
   1260   1261     1   0.15110 237065.440000
   1260   1264     1   0.15110 237065.440000
   1260   1267     1   0.15110 237065.440000
   1261   1273     1   0.15375 251793.120000
   1264   1276     1   0.15375 251793.120000
   1267   1270     1   0.15375 251793.120000
   1270   1279     1   0.15375 251793.120000
   1273   1285     1   0.15375 251793.120000
   1276   1282     1   0.15375 251793.120000
   1279   1288     1   0.14316 258236.480000
   1282   2608     1   0.14316 258236.480000
   1285   2638     1   0.14316 258236.480000
   1290   1291     1   0.15110 237065.440000
   1290   1294     1   0.15110 237065.440000
   1290   1297     1   0.15110 237065.440000
   1291   1303     1   0.15375 251793.120000
   1294   1306     1   0.15375 251793.120000
   1297   1300     1   0.15375 251793.120000
   1300   1309     1   0.15375 251793.120000
   1303   1315     1   0.15375 251793.120000
   1306   1312     1   0.15375 251793.120000
   1309   1318     1   0.14316 258236.480000
   1312   2668     1   0.14316 258236.480000
   1315   2698     1   0.14316 258236.480000
   1320   1321     1   0.15110 237065.440000
   1320   1324     1   0.15110 237065.440000
   1320   1327     1   0.15110 237065.440000
   1321   1333     1   0.15375 251793.120000
   1324   1336     1   0.15375 251793.120000
   1327   1330     1   0.15375 251793.120000
   1330   1339     1   0.15375 251793.120000
   1333   1345     1   0.15375 251793.120000
   1336   1342     1   0.15375 251793.120000
   1339   1348     1   0.14316 258236.480000
   1342   2728     1   0.14316 258236.480000
   1345   2758     1   0.14316 258236.480000
   1350   1351     1   0.15110 237065.440000
   1350   1354     1   0.15110 237065.440000
   1350   1357     1   0.15110 237065.440000
   1351   1363     1   0.15375 251793.120000
   1354   1366     1   0.15375 251793.120000
   1357   1360     1   0.15375 251793.120000
   1360   1369     1   0.15375 251793.120000
   1363   1375     1   0.15375 251793.120000
   1366   1372     1   0.15375 251793.120000
   1369   1378     1   0.14316 258236.480000
   1372   2788     1   0.14316 258236.480000
   1375   2818     1   0.14316 258236.480000
   1380   1381     1   0.15110 237065.440000
   1380   1384     1   0.15110 237065.440000
   1380   1387     1   0.15110 237065.440000
   1381   1393     1   0.15375 251793.120000
   1384   1396     1   0.15375 251793.120000
   1387   1390     1   0.15375 251793.120000
   1390   1399     1   0.15375 251793.120000
   1393   1405     1   0.15375 251793.120000
   1396   1402     1   0.15375 251793.120000
   1399   1408     1   0.14316 258236.480000
   1402   2830     1   0.14316 258236.480000
   1405   2853     1   0.14316 258236.480000
   1410   1411     1   0.15110 237065.440000
   1410   1414     1   0.15110 237065.440000
   1410   1417     1   0.15110 237065.440000
   1411   1423     1   0.15375 251793.120000
   1414   1426     1   0.15375 251793.120000
   1417   1420     1   0.15375 251793.120000
   1420   1429     1   0.15375 251793.120000
   1423   1435     1   0.15375 251793.120000
   1426   1432     1   0.15375 251793.120000
   1429   1438     1   0.14316 258236.480000
   1432   2876     1   0.14316 258236.480000
   1435   2899     1   0.14316 258236.480000
   1440   1441     1   0.15110 237065.440000
   1440   1444     1   0.15110 237065.440000
   1440   1447     1   0.15110 237065.440000
   1441   1453     1   0.15375 251793.120000
   1444   1456     1   0.15375 251793.120000
   1447   1450     1   0.15375 251793.120000
   1450   1459     1   0.15375 251793.120000
   1453   1465     1   0.15375 251793.120000
   1456   1462     1   0.15375 251793.120000
   1459   1468     1   0.14316 258236.480000
   1462   2922     1   0.14316 258236.480000
   1465   2945     1   0.14316 258236.480000
   1470   1471     1   0.15110 237065.440000
   1470   1474     1   0.15110 237065.440000
   1470   1477     1   0.15110 237065.440000
   1471   1483     1   0.15375 251793.120000
   1474   1486     1   0.15375 251793.120000
   1477   1480     1   0.15375 251793.120000
   1480   1489     1   0.15375 251793.120000
   1483   1495     1   0.15375 251793.120000
   1486   1492     1   0.15375 251793.120000
   1489   1498     1   0.14316 258236.480000
   1492   2968     1   0.14316 258236.480000
   1495   2991     1   0.14316 258236.480000
   1500   1501     1   0.15110 237065.440000
   1500   1504     1   0.15110 237065.440000
   1500   1507     1   0.15110 237065.440000
   1501   1513     1   0.15375 251793.120000
   1504   1516     1   0.15375 251793.120000
   1507   1510     1   0.15375 251793.120000
   1510   1519     1   0.15375 251793.120000
   1513   1525     1   0.15375 251793.120000
   1516   1522     1   0.15375 251793.120000
   1519   1528     1   0.14316 258236.480000
   1522   3014     1   0.14316 258236.480000
   1525   3037     1   0.14316 258236.480000
   1530   1531     1   0.15110 237065.440000
   1530   1534     1   0.15110 237065.440000
   1530   1537     1   0.15110 237065.440000
   1531   1543     1   0.15375 251793.120000
   1534   1546     1   0.15375 251793.120000
   1537   1540     1   0.15375 251793.120000
   1540   1549     1   0.15375 251793.120000
   1543   1555     1   0.15375 251793.120000
   1546   1552     1   0.15375 251793.120000
   1549   1558     1   0.14316 258236.480000
   1552   3060     1   0.14316 258236.480000
   1555   3083     1   0.14316 258236.480000
   1560   1561     1   0.15110 237065.440000
   1560   1564     1   0.15110 237065.440000
   1560   1567     1   0.15110 237065.440000
   1561   1573     1   0.15375 251793.120000
   1564   1576     1   0.15375 251793.120000
   1567   1570     1   0.15375 251793.120000
   1570   1579     1   0.15375 251793.120000
   1573   1585     1   0.15375 251793.120000
   1576   1582     1   0.15375 251793.120000
   1579   1588     1   0.14316 258236.480000
   1582   3106     1   0.14316 258236.480000
   1585   3129     1   0.14316 258236.480000
   1590   1591     1   0.15110 237065.440000
   1590   1594     1   0.15110 237065.440000
   1590   1597     1   0.15110 237065.440000
   1591   1603     1   0.15375 251793.120000
   1594   1606     1   0.15375 251793.120000
   1597   1600     1   0.15375 251793.120000
   1600   1609     1   0.15375 251793.120000
   1603   1615     1   0.15375 251793.120000
   1606   1612     1   0.15375 251793.120000
   1609   1618     1   0.14316 258236.480000
   1612   3152     1   0.14316 258236.480000
   1615   3175     1   0.14316 258236.480000
   1620   1621     1   0.15110 237065.440000
   1620   1624     1   0.15110 237065.440000
   1620   1627     1   0.15110 237065.440000
   1621   1633     1   0.15375 251793.120000
   1624   1636     1   0.15375 251793.120000
   1627   1630     1   0.15375 251793.120000
   1630   1639     1   0.15375 251793.120000
   1633   1645     1   0.15375 251793.120000
   1636   1642     1   0.15375 251793.120000
   1639   1648     1   0.14316 258236.480000
   1642   3198     1   0.14316 258236.480000
   1645   3221     1   0.14316 258236.480000
   1650   1651     1   0.15110 237065.440000
   1650   1654     1   0.15110 237065.440000
   1650   1657     1   0.15110 237065.440000
   1651   1663     1   0.15375 251793.120000
   1654   1666     1   0.15375 251793.120000
   1657   1660     1   0.15375 251793.120000
   1660   1669     1   0.15375 251793.120000
   1663   1675     1   0.15375 251793.120000
   1666   1672     1   0.15375 251793.120000
   1669   1678     1   0.14316 258236.480000
   1672   3244     1   0.14316 258236.480000
   1675   3267     1   0.14316 258236.480000
   1680   1681     1   0.15110 237065.440000
   1680   1684     1   0.15110 237065.440000
   1680   1687     1   0.15110 237065.440000
   1681   1693     1   0.15375 251793.120000
   1684   1696     1   0.15375 251793.120000
   1687   1690     1   0.15375 251793.120000
   1690   1699     1   0.15375 251793.120000
   1693   1705     1   0.15375 251793.120000
   1696   1702     1   0.15375 251793.120000
   1699   1708     1   0.14316 258236.480000
   1702   3290     1   0.14316 258236.480000
   1705   3313     1   0.14316 258236.480000
   1710   1711     1   0.15110 237065.440000
   1710   1714     1   0.15110 237065.440000
   1710   1717     1   0.15110 237065.440000
   1711   1723     1   0.15375 251793.120000
   1714   1726     1   0.15375 251793.120000
   1717   1720     1   0.15375 251793.120000
   1720   1729     1   0.15375 251793.120000
   1723   1735     1   0.15375 251793.120000
   1726   1732     1   0.15375 251793.120000
   1729   1738     1   0.14316 258236.480000
   1732   3336     1   0.14316 258236.480000
   1735   3359     1   0.14316 258236.480000
   1740   1741     1   0.15110 237065.440000
   1740   1744     1   0.15110 237065.440000
   1740   1747     1   0.15110 237065.440000
   1741   1753     1   0.15375 251793.120000
   1744   1756     1   0.15375 251793.120000
   1747   1750     1   0.15375 251793.120000
   1750   1759     1   0.15375 251793.120000
   1753   1765     1   0.15375 251793.120000
   1756   1762     1   0.15375 251793.120000
   1759   1768     1   0.14316 258236.480000
   1762   3382     1   0.14316 258236.480000
   1765   3405     1   0.14316 258236.480000
   1770   1771     1   0.15110 237065.440000
   1770   1774     1   0.15110 237065.440000
   1770   1777     1   0.15110 237065.440000
   1771   1783     1   0.15375 251793.120000
   1774   1786     1   0.15375 251793.120000
   1777   1780     1   0.15375 251793.120000
   1780   1789     1   0.15375 251793.120000
   1783   1795     1   0.15375 251793.120000
   1786   1792     1   0.15375 251793.120000
   1789   1798     1   0.14316 258236.480000
   1792   3428     1   0.14316 258236.480000
   1795   3451     1   0.14316 258236.480000
   1800   1801     1   0.15110 237065.440000
   1800   1804     1   0.15110 237065.440000
   1800   1807     1   0.15110 237065.440000
   1801   1813     1   0.15375 251793.120000
   1804   1816     1   0.15375 251793.120000
   1807   1810     1   0.15375 251793.120000
   1810   1819     1   0.15375 251793.120000
   1813   1825     1   0.15375 251793.120000
   1816   1822     1   0.15375 251793.120000
   1819   1828     1   0.14316 258236.480000
   1822   3474     1   0.14316 258236.480000
   1825   3497     1   0.14316 258236.480000
   1830   1831     1   0.15110 237065.440000
   1830   1834     1   0.15110 237065.440000
   1830   1837     1   0.15110 237065.440000
   1831   1843     1   0.15375 251793.120000
   1834   1846     1   0.15375 251793.120000
   1837   1840     1   0.15375 251793.120000
   1840   1849     1   0.15375 251793.120000
   1843   1855     1   0.15375 251793.120000
   1846   1852     1   0.15375 251793.120000
   1849   1858     1   0.14316 258236.480000
   1852   3520     1   0.14316 258236.480000
   1855   3543     1   0.14316 258236.480000
   1860   1861     1   0.15110 237065.440000
   1860   1864     1   0.15110 237065.440000
   1860   1867     1   0.15110 237065.440000
   1861   1873     1   0.15375 251793.120000
   1864   1876     1   0.15375 251793.120000
   1867   1870     1   0.15375 251793.120000
   1870   1879     1   0.15375 251793.120000
   1873   1885     1   0.15375 251793.120000
   1876   1882     1   0.15375 251793.120000
   1879   1888     1   0.14316 258236.480000
   1882   3566     1   0.14316 258236.480000
   1885   3589     1   0.14316 258236.480000
   1890   1891     1   0.15110 237065.440000
   1890   1894     1   0.15110 237065.440000
   1890   1897     1   0.15110 237065.440000
   1891   1903     1   0.15375 251793.120000
   1894   1906     1   0.15375 251793.120000
   1897   1900     1   0.15375 251793.120000
   1900   1909     1   0.15375 251793.120000
   1903   1915     1   0.15375 251793.120000
   1906   1912     1   0.15375 251793.120000
   1909   1918     1   0.14316 258236.480000
   1912   3612     1   0.14316 258236.480000
   1915   3635     1   0.14316 258236.480000
   1920   1921     1   0.15110 237065.440000
   1920   1924     1   0.15110 237065.440000
   1920   1927     1   0.15110 237065.440000
   1921   1933     1   0.15375 251793.120000
   1924   1936     1   0.15375 251793.120000
   1927   1930     1   0.15375 251793.120000
   1930   1939     1   0.15375 251793.120000
   1933   1945     1   0.15375 251793.120000
   1936   1942     1   0.15375 251793.120000
   1939   1948     1   0.14316 258236.480000
   1942   3658     1   0.14316 258236.480000
   1945   3681     1   0.14316 258236.480000
   1950   1951     1   0.15110 237065.440000
   1950   1954     1   0.15110 237065.440000
   1950   1957     1   0.15110 237065.440000
   1951   1963     1   0.15375 251793.120000
   1954   1966     1   0.15375 251793.120000
   1957   1960     1   0.15375 251793.120000
   1960   1969     1   0.15375 251793.120000
   1963   1975     1   0.15375 251793.120000
   1966   1972     1   0.15375 251793.120000
   1969   1978     1   0.14316 258236.480000
   1972   3704     1   0.14316 258236.480000
   1975   3727     1   0.14316 258236.480000
   1980   1981     1   0.15110 237065.440000
   1980   1984     1   0.15110 237065.440000
   1980   1987     1   0.15110 237065.440000
   1981   1993     1   0.15375 251793.120000
   1984   1996     1   0.15375 251793.120000
   1987   1990     1   0.15375 251793.120000
   1990   1999     1   0.15375 251793.120000
   1993   2005     1   0.15375 251793.120000
   1996   2002     1   0.15375 251793.120000
   1999   2008     1   0.14316 258236.480000
   2002   3750     1   0.14316 258236.480000
   2005   3773     1   0.14316 258236.480000
   2010   2011     1   0.15110 237065.440000
   2010   2014     1   0.15110 237065.440000
   2010   2017     1   0.15110 237065.440000
   2011   2023     1   0.15375 251793.120000
   2014   2026     1   0.15375 251793.120000
   2017   2020     1   0.15375 251793.120000
   2020   2029     1   0.15375 251793.120000
   2023   2035     1   0.15375 251793.120000
   2026   2032     1   0.15375 251793.120000
   2029   2038     1   0.14316 258236.480000
   2032   3796     1   0.14316 258236.480000
   2035   3819     1   0.14316 258236.480000
   2040   2041     1   0.15110 237065.440000
   2040   2044     1   0.15110 237065.440000
   2040   2047     1   0.15110 237065.440000
   2041   2053     1   0.15375 251793.120000
   2044   2056     1   0.15375 251793.120000
   2047   2050     1   0.15375 251793.120000
   2050   2059     1   0.15375 251793.120000
   2053   2065     1   0.15375 251793.120000
   2056   2062     1   0.15375 251793.120000
   2059   2068     1   0.14316 258236.480000
   2062   3842     1   0.14316 258236.480000
   2065   3865     1   0.14316 258236.480000
   2070   2071     1   0.15110 237065.440000
   2070   2074     1   0.15110 237065.440000
   2070   2077     1   0.15110 237065.440000
   2071   2083     1   0.15375 251793.120000
   2074   2086     1   0.15375 251793.120000
   2077   2080     1   0.15375 251793.120000
   2080   2089     1   0.15375 251793.120000
   2083   2095     1   0.15375 251793.120000
   2086   2092     1   0.15375 251793.120000
   2089   2098     1   0.14316 258236.480000
   2092   3888     1   0.14316 258236.480000
   2095   3911     1   0.14316 258236.480000
   2100   2101     1   0.15110 237065.440000
   2100   2104     1   0.15110 237065.440000
   2100   2107     1   0.15110 237065.440000
   2101   2113     1   0.15375 251793.120000
   2104   2116     1   0.15375 251793.120000
   2107   2110     1   0.15375 251793.120000
   2110   2119     1   0.15375 251793.120000
   2113   2125     1   0.15375 251793.120000
   2116   2122     1   0.15375 251793.120000
   2119   2128     1   0.14316 258236.480000
   2122   3934     1   0.14316 258236.480000
   2125   3957     1   0.14316 258236.480000
   2130   2131     1   0.15110 237065.440000
   2130   2134     1   0.15110 237065.440000
   2130   2137     1   0.15110 237065.440000
   2131   2143     1   0.15375 251793.120000
   2134   2146     1   0.15375 251793.120000
   2137   2140     1   0.15375 251793.120000
   2140   2149     1   0.15375 251793.120000
   2143   2155     1   0.15375 251793.120000
   2146   2152     1   0.15375 251793.120000
   2149   2158     1   0.14316 258236.480000
   2152   3980     1   0.14316 258236.480000
   2155   4003     1   0.14316 258236.480000
   2160   2161     1   0.15110 237065.440000
   2160   2164     1   0.15110 237065.440000
   2160   2167     1   0.15110 237065.440000
   2161   2173     1   0.15375 251793.120000
   2164   2176     1   0.15375 251793.120000
   2167   2170     1   0.15375 251793.120000
   2170   2179     1   0.15375 251793.120000
   2173   2185     1   0.15375 251793.120000
   2176   2182     1   0.15375 251793.120000
   2179   2188     1   0.14316 258236.480000
   2182   4026     1   0.14316 258236.480000
   2185   4049     1   0.14316 258236.480000
   2190   2191     1   0.15110 237065.440000
   2190   2194     1   0.15110 237065.440000
   2190   2197     1   0.15110 237065.440000
   2191   2203     1   0.15375 251793.120000
   2194   2206     1   0.15375 251793.120000
   2197   2200     1   0.15375 251793.120000
   2200   2209     1   0.15375 251793.120000
   2203   2215     1   0.15375 251793.120000
   2206   2212     1   0.15375 251793.120000
   2209   2218     1   0.14316 258236.480000
   2212   4072     1   0.14316 258236.480000
   2215   4095     1   0.14316 258236.480000
   2220   2221     1   0.15110 237065.440000
   2220   2224     1   0.15110 237065.440000
   2220   2227     1   0.15110 237065.440000
   2221   2233     1   0.15375 251793.120000
   2224   2236     1   0.15375 251793.120000
   2227   2230     1   0.15375 251793.120000
   2230   2239     1   0.15375 251793.120000
   2233   2245     1   0.15375 251793.120000
   2236   2242     1   0.15375 251793.120000
   2239   2248     1   0.14316 258236.480000
   2242   4118     1   0.14316 258236.480000
   2245   4141     1   0.14316 258236.480000
   2250   2251     1   0.15110 237065.440000
   2250   2254     1   0.15110 237065.440000
   2250   2257     1   0.15110 237065.440000
   2251   2263     1   0.15375 251793.120000
   2254   2266     1   0.15375 251793.120000
   2257   2260     1   0.15375 251793.120000
   2260   2269     1   0.15375 251793.120000
   2263   2275     1   0.15375 251793.120000
   2266   2272     1   0.15375 251793.120000
   2269   2278     1   0.14316 258236.480000
   2272   4164     1   0.14316 258236.480000
   2275   4187     1   0.14316 258236.480000
   2280   2281     1   0.15110 237065.440000
   2280   2284     1   0.15110 237065.440000
   2280   2287     1   0.15110 237065.440000
   2281   2293     1   0.15375 251793.120000
   2284   2296     1   0.15375 251793.120000
   2287   2290     1   0.15375 251793.120000
   2290   2299     1   0.15375 251793.120000
   2293   2305     1   0.15375 251793.120000
   2296   2302     1   0.15375 251793.120000
   2299   2308     1   0.14316 258236.480000
   2302   4210     1   0.14316 258236.480000
   2305   4233     1   0.14316 258236.480000
   2310   2311     1   0.15110 237065.440000
   2310   2314     1   0.15110 237065.440000
   2310   2317     1   0.15110 237065.440000
   2311   2323     1   0.15375 251793.120000
   2314   2326     1   0.15375 251793.120000
   2317   2320     1   0.15375 251793.120000
   2320   2329     1   0.15375 251793.120000
   2323   2335     1   0.15375 251793.120000
   2326   2332     1   0.15375 251793.120000
   2329   2338     1   0.14316 258236.480000
   2332   4256     1   0.14316 258236.480000
   2335   4279     1   0.14316 258236.480000
   2340   2341     1   0.15110 237065.440000
   2340   2344     1   0.15110 237065.440000
   2340   2347     1   0.15110 237065.440000
   2341   2353     1   0.15375 251793.120000
   2344   2356     1   0.15375 251793.120000
   2347   2350     1   0.15375 251793.120000
   2350   2359     1   0.15375 251793.120000
   2353   2365     1   0.15375 251793.120000
   2356   2362     1   0.15375 251793.120000
   2359   2368     1   0.14316 258236.480000
   2362   4302     1   0.14316 258236.480000
   2365   4325     1   0.14316 258236.480000
   2370   2371     1   0.15110 237065.440000
   2370   2374     1   0.15110 237065.440000
   2370   2377     1   0.15110 237065.440000
   2371   2383     1   0.15375 251793.120000
   2374   2386     1   0.15375 251793.120000
   2377   2380     1   0.15375 251793.120000
   2380   2389     1   0.15375 251793.120000
   2383   2395     1   0.15375 251793.120000
   2386   2392     1   0.15375 251793.120000
   2389   2398     1   0.14316 258236.480000
   2392   4348     1   0.14316 258236.480000
   2395   4371     1   0.14316 258236.480000
   2400   2401     1   0.15110 237065.440000
   2400   2404     1   0.15110 237065.440000
   2400   2407     1   0.15110 237065.440000
   2401   2413     1   0.15375 251793.120000
   2404   2416     1   0.15375 251793.120000
   2407   2410     1   0.15375 251793.120000
   2410   2419     1   0.15375 251793.120000
   2413   2425     1   0.15375 251793.120000
   2416   2422     1   0.15375 251793.120000
   2419   2428     1   0.14316 258236.480000
   2422   4394     1   0.14316 258236.480000
   2425   4417     1   0.14316 258236.480000
   2430   2431     1   0.15110 237065.440000
   2430   2434     1   0.15110 237065.440000
   2430   2437     1   0.15110 237065.440000
   2431   2443     1   0.15375 251793.120000
   2434   2446     1   0.15375 251793.120000
   2437   2440     1   0.15375 251793.120000
   2440   2449     1   0.15375 251793.120000
   2443   2455     1   0.15375 251793.120000
   2446   2452     1   0.15375 251793.120000
   2449   2458     1   0.14316 258236.480000
   2452   4440     1   0.14316 258236.480000
   2455   4463     1   0.14316 258236.480000
   2460   2461     1   0.15110 237065.440000
   2460   2464     1   0.15110 237065.440000
   2460   2467     1   0.15110 237065.440000
   2461   2473     1   0.15375 251793.120000
   2464   2476     1   0.15375 251793.120000
   2467   2470     1   0.15375 251793.120000
   2470   2479     1   0.15375 251793.120000
   2473   2485     1   0.15375 251793.120000
   2476   2482     1   0.15375 251793.120000
   2479   2488     1   0.14316 258236.480000
   2482   4486     1   0.14316 258236.480000
   2485   4509     1   0.14316 258236.480000
   2490   2491     1   0.15110 237065.440000
   2490   2494     1   0.15110 237065.440000
   2490   2497     1   0.15110 237065.440000
   2491   2503     1   0.15375 251793.120000
   2494   2506     1   0.15375 251793.120000
   2497   2500     1   0.15375 251793.120000
   2500   2509     1   0.15375 251793.120000
   2503   2515     1   0.15375 251793.120000
   2506   2512     1   0.15375 251793.120000
   2509   2518     1   0.14316 258236.480000
   2512   4532     1   0.14316 258236.480000
   2515   4555     1   0.14316 258236.480000
   2520   2521     1   0.15110 237065.440000
   2520   2524     1   0.15110 237065.440000
   2520   2527     1   0.15110 237065.440000
   2521   2533     1   0.15375 251793.120000
   2524   2536     1   0.15375 251793.120000
   2527   2530     1   0.15375 251793.120000
   2530   2539     1   0.15375 251793.120000
   2533   2545     1   0.15375 251793.120000
   2536   2542     1   0.15375 251793.120000
   2539   2548     1   0.14316 258236.480000
   2542   4578     1   0.14316 258236.480000
   2545   4601     1   0.14316 258236.480000
   2550   2551     1   0.15110 237065.440000
   2550   2554     1   0.15110 237065.440000
   2550   2557     1   0.15110 237065.440000
   2551   2563     1   0.15375 251793.120000
   2554   2566     1   0.15375 251793.120000
   2557   2560     1   0.15375 251793.120000
   2560   2569     1   0.15375 251793.120000
   2563   2575     1   0.15375 251793.120000
   2566   2572     1   0.15375 251793.120000
   2569   2578     1   0.14316 258236.480000
   2572   4624     1   0.14316 258236.480000
   2575   4647     1   0.14316 258236.480000
   2580   2581     1   0.15110 237065.440000
   2580   2584     1   0.15110 237065.440000
   2580   2587     1   0.15110 237065.440000
   2581   2593     1   0.15375 251793.120000
   2584   2596     1   0.15375 251793.120000
   2587   2590     1   0.15375 251793.120000
   2590   2599     1   0.15375 251793.120000
   2593   2605     1   0.15375 251793.120000
   2596   2602     1   0.15375 251793.120000
   2599   2608     1   0.14316 258236.480000
   2602   4670     1   0.14316 258236.480000
   2605   4693     1   0.14316 258236.480000
   2610   2611     1   0.15110 237065.440000
   2610   2614     1   0.15110 237065.440000
   2610   2617     1   0.15110 237065.440000
   2611   2623     1   0.15375 251793.120000
   2614   2626     1   0.15375 251793.120000
   2617   2620     1   0.15375 251793.120000
   2620   2629     1   0.15375 251793.120000
   2623   2635     1   0.15375 251793.120000
   2626   2632     1   0.15375 251793.120000
   2629   2638     1   0.14316 258236.480000
   2632   4716     1   0.14316 258236.480000
   2635   4739     1   0.14316 258236.480000
   2640   2641     1   0.15110 237065.440000
   2640   2644     1   0.15110 237065.440000
   2640   2647     1   0.15110 237065.440000
   2641   2653     1   0.15375 251793.120000
   2644   2656     1   0.15375 251793.120000
   2647   2650     1   0.15375 251793.120000
   2650   2659     1   0.15375 251793.120000
   2653   2665     1   0.15375 251793.120000
   2656   2662     1   0.15375 251793.120000
   2659   2668     1   0.14316 258236.480000
   2662   4762     1   0.14316 258236.480000
   2665   4785     1   0.14316 258236.480000
   2670   2671     1   0.15110 237065.440000
   2670   2674     1   0.15110 237065.440000
   2670   2677     1   0.15110 237065.440000
   2671   2683     1   0.15375 251793.120000
   2674   2686     1   0.15375 251793.120000
   2677   2680     1   0.15375 251793.120000
   2680   2689     1   0.15375 251793.120000
   2683   2695     1   0.15375 251793.120000
   2686   2692     1   0.15375 251793.120000
   2689   2698     1   0.14316 258236.480000
   2692   4808     1   0.14316 258236.480000
   2695   4831     1   0.14316 258236.480000
   2700   2701     1   0.15110 237065.440000
   2700   2704     1   0.15110 237065.440000
   2700   2707     1   0.15110 237065.440000
   2701   2713     1   0.15375 251793.120000
   2704   2716     1   0.15375 251793.120000
   2707   2710     1   0.15375 251793.120000
   2710   2719     1   0.15375 251793.120000
   2713   2725     1   0.15375 251793.120000
   2716   2722     1   0.15375 251793.120000
   2719   2728     1   0.14316 258236.480000
   2722   4854     1   0.14316 258236.480000
   2725   4877     1   0.14316 258236.480000
   2730   2731     1   0.15110 237065.440000
   2730   2734     1   0.15110 237065.440000
   2730   2737     1   0.15110 237065.440000
   2731   2743     1   0.15375 251793.120000
   2734   2746     1   0.15375 251793.120000
   2737   2740     1   0.15375 251793.120000
   2740   2749     1   0.15375 251793.120000
   2743   2755     1   0.15375 251793.120000
   2746   2752     1   0.15375 251793.120000
   2749   2758     1   0.14316 258236.480000
   2752   4900     1   0.14316 258236.480000
   2755   4923     1   0.14316 258236.480000
   2760   2761     1   0.15110 237065.440000
   2760   2764     1   0.15110 237065.440000
   2760   2767     1   0.15110 237065.440000
   2761   2773     1   0.15375 251793.120000
   2764   2776     1   0.15375 251793.120000
   2767   2770     1   0.15375 251793.120000
   2770   2779     1   0.15375 251793.120000
   2773   2785     1   0.15375 251793.120000
   2776   2782     1   0.15375 251793.120000
   2779   2788     1   0.14316 258236.480000
   2782   4946     1   0.14316 258236.480000
   2785   4969     1   0.14316 258236.480000
   2790   2791     1   0.15110 237065.440000
   2790   2794     1   0.15110 237065.440000
   2790   2797     1   0.15110 237065.440000
   2791   2803     1   0.15375 251793.120000
   2794   2806     1   0.15375 251793.120000
   2797   2800     1   0.15375 251793.120000
   2800   2809     1   0.15375 251793.120000
   2803   2815     1   0.15375 251793.120000
   2806   2812     1   0.15375 251793.120000
   2809   2818     1   0.14316 258236.480000
   2812   4992     1   0.14316 258236.480000
   2815   5015     1   0.14316 258236.480000
   2820   2821     1   0.15375 251793.120000
   2820   2834     1   0.15375 251793.120000
   2820   2842     1   0.14316 258236.480000
   2821   2824     1   0.15375 251793.120000
   2821   2833     1   0.14233 265014.560000
   2824   2825     1   0.15375 251793.120000
   2824   2832     1   0.14233 265014.560000
   2825   2826     1   0.15375 251793.120000
   2825   2831     1   0.14233 265014.560000
   2826   2830     1   0.14316 258236.480000
   2826   2842     1   0.14316 258236.480000
   2834   2840     1   0.14233 265014.560000
   2843   2844     1   0.15375 251793.120000
   2843   2857     1   0.15375 251793.120000
   2843   2865     1   0.14316 258236.480000
   2844   2847     1   0.15375 251793.120000
   2844   2856     1   0.14233 265014.560000
   2847   2848     1   0.15375 251793.120000
   2847   2855     1   0.14233 265014.560000
   2848   2849     1   0.15375 251793.120000
   2848   2854     1   0.14233 265014.560000
   2849   2853     1   0.14316 258236.480000
   2849   2865     1   0.14316 258236.480000
   2857   2863     1   0.14233 265014.560000
   2866   2867     1   0.15375 251793.120000
   2866   2880     1   0.15375 251793.120000
   2866   2888     1   0.14316 258236.480000
   2867   2870     1   0.15375 251793.120000
   2867   2879     1   0.14233 265014.560000
   2870   2871     1   0.15375 251793.120000
   2870   2878     1   0.14233 265014.560000
   2871   2872     1   0.15375 251793.120000
   2871   2877     1   0.14233 265014.560000
   2872   2876     1   0.14316 258236.480000
   2872   2888     1   0.14316 258236.480000
   2880   2886     1   0.14233 265014.560000
   2889   2890     1   0.15375 251793.120000
   2889   2903     1   0.15375 251793.120000
   2889   2911     1   0.14316 258236.480000
   2890   2893     1   0.15375 251793.120000
   2890   2902     1   0.14233 265014.560000
   2893   2894     1   0.15375 251793.120000
   2893   2901     1   0.14233 265014.560000
   2894   2895     1   0.15375 251793.120000
   2894   2900     1   0.14233 265014.560000
   2895   2899     1   0.14316 258236.480000
   2895   2911     1   0.14316 258236.480000
   2903   2909     1   0.14233 265014.560000
   2912   2913     1   0.15375 251793.120000
   2912   2926     1   0.15375 251793.120000
   2912   2934     1   0.14316 258236.480000
   2913   2916     1   0.15375 251793.120000
   2913   2925     1   0.14233 265014.560000
   2916   2917     1   0.15375 251793.120000
   2916   2924     1   0.14233 265014.560000
   2917   2918     1   0.15375 251793.120000
   2917   2923     1   0.14233 265014.560000
   2918   2922     1   0.14316 258236.480000
   2918   2934     1   0.14316 258236.480000
   2926   2932     1   0.14233 265014.560000
   2935   2936     1   0.15375 251793.120000
   2935   2949     1   0.15375 251793.120000
   2935   2957     1   0.14316 258236.480000
   2936   2939     1   0.15375 251793.120000
   2936   2948     1   0.14233 265014.560000
   2939   2940     1   0.15375 251793.120000
   2939   2947     1   0.14233 265014.560000
   2940   2941     1   0.15375 251793.120000
   2940   2946     1   0.14233 265014.560000
   2941   2945     1   0.14316 258236.480000
   2941   2957     1   0.14316 258236.480000
   2949   2955     1   0.14233 265014.560000
   2958   2959     1   0.15375 251793.120000
   2958   2972     1   0.15375 251793.120000
   2958   2980     1   0.14316 258236.480000
   2959   2962     1   0.15375 251793.120000
   2959   2971     1   0.14233 265014.560000
   2962   2963     1   0.15375 251793.120000
   2962   2970     1   0.14233 265014.560000
   2963   2964     1   0.15375 251793.120000
   2963   2969     1   0.14233 265014.560000
   2964   2968     1   0.14316 258236.480000
   2964   2980     1   0.14316 258236.480000
   2972   2978     1   0.14233 265014.560000
   2981   2982     1   0.15375 251793.120000
   2981   2995     1   0.15375 251793.120000
   2981   3003     1   0.14316 258236.480000
   2982   2985     1   0.15375 251793.120000
   2982   2994     1   0.14233 265014.560000
   2985   2986     1   0.15375 251793.120000
   2985   2993     1   0.14233 265014.560000
   2986   2987     1   0.15375 251793.120000
   2986   2992     1   0.14233 265014.560000
   2987   2991     1   0.14316 258236.480000
   2987   3003     1   0.14316 258236.480000
   2995   3001     1   0.14233 265014.560000
   3004   3005     1   0.15375 251793.120000
   3004   3018     1   0.15375 251793.120000
   3004   3026     1   0.14316 258236.480000
   3005   3008     1   0.15375 251793.120000
   3005   3017     1   0.14233 265014.560000
   3008   3009     1   0.15375 251793.120000
   3008   3016     1   0.14233 265014.560000
   3009   3010     1   0.15375 251793.120000
   3009   3015     1   0.14233 265014.560000
   3010   3014     1   0.14316 258236.480000
   3010   3026     1   0.14316 258236.480000
   3018   3024     1   0.14233 265014.560000
   3027   3028     1   0.15375 251793.120000
   3027   3041     1   0.15375 251793.120000
   3027   3049     1   0.14316 258236.480000
   3028   3031     1   0.15375 251793.120000
   3028   3040     1   0.14233 265014.560000
   3031   3032     1   0.15375 251793.120000
   3031   3039     1   0.14233 265014.560000
   3032   3033     1   0.15375 251793.120000
   3032   3038     1   0.14233 265014.560000
   3033   3037     1   0.14316 258236.480000
   3033   3049     1   0.14316 258236.480000
   3041   3047     1   0.14233 265014.560000
   3050   3051     1   0.15375 251793.120000
   3050   3064     1   0.15375 251793.120000
   3050   3072     1   0.14316 258236.480000
   3051   3054     1   0.15375 251793.120000
   3051   3063     1   0.14233 265014.560000
   3054   3055     1   0.15375 251793.120000
   3054   3062     1   0.14233 265014.560000
   3055   3056     1   0.15375 251793.120000
   3055   3061     1   0.14233 265014.560000
   3056   3060     1   0.14316 258236.480000
   3056   3072     1   0.14316 258236.480000
   3064   3070     1   0.14233 265014.560000
   3073   3074     1   0.15375 251793.120000
   3073   3087     1   0.15375 251793.120000
   3073   3095     1   0.14316 258236.480000
   3074   3077     1   0.15375 251793.120000
   3074   3086     1   0.14233 265014.560000
   3077   3078     1   0.15375 251793.120000
   3077   3085     1   0.14233 265014.560000
   3078   3079     1   0.15375 251793.120000
   3078   3084     1   0.14233 265014.560000
   3079   3083     1   0.14316 258236.480000
   3079   3095     1   0.14316 258236.480000
   3087   3093     1   0.14233 265014.560000
   3096   3097     1   0.15375 251793.120000
   3096   3110     1   0.15375 251793.120000
   3096   3118     1   0.14316 258236.480000
   3097   3100     1   0.15375 251793.120000
   3097   3109     1   0.14233 265014.560000
   3100   3101     1   0.15375 251793.120000
   3100   3108     1   0.14233 265014.560000
   3101   3102     1   0.15375 251793.120000
   3101   3107     1   0.14233 265014.560000
   3102   3106     1   0.14316 258236.480000
   3102   3118     1   0.14316 258236.480000
   3110   3116     1   0.14233 265014.560000
   3119   3120     1   0.15375 251793.120000
   3119   3133     1   0.15375 251793.120000
   3119   3141     1   0.14316 258236.480000
   3120   3123     1   0.15375 251793.120000
   3120   3132     1   0.14233 265014.560000
   3123   3124     1   0.15375 251793.120000
   3123   3131     1   0.14233 265014.560000
   3124   3125     1   0.15375 251793.120000
   3124   3130     1   0.14233 265014.560000
   3125   3129     1   0.14316 258236.480000
   3125   3141     1   0.14316 258236.480000
   3133   3139     1   0.14233 265014.560000
   3142   3143     1   0.15375 251793.120000
   3142   3156     1   0.15375 251793.120000
   3142   3164     1   0.14316 258236.480000
   3143   3146     1   0.15375 251793.120000
   3143   3155     1   0.14233 265014.560000
   3146   3147     1   0.15375 251793.120000
   3146   3154     1   0.14233 265014.560000
   3147   3148     1   0.15375 251793.120000
   3147   3153     1   0.14233 265014.560000
   3148   3152     1   0.14316 258236.480000
   3148   3164     1   0.14316 258236.480000
   3156   3162     1   0.14233 265014.560000
   3165   3166     1   0.15375 251793.120000
   3165   3179     1   0.15375 251793.120000
   3165   3187     1   0.14316 258236.480000
   3166   3169     1   0.15375 251793.120000
   3166   3178     1   0.14233 265014.560000
   3169   3170     1   0.15375 251793.120000
   3169   3177     1   0.14233 265014.560000
   3170   3171     1   0.15375 251793.120000
   3170   3176     1   0.14233 265014.560000
   3171   3175     1   0.14316 258236.480000
   3171   3187     1   0.14316 258236.480000
   3179   3185     1   0.14233 265014.560000
   3188   3189     1   0.15375 251793.120000
   3188   3202     1   0.15375 251793.120000
   3188   3210     1   0.14316 258236.480000
   3189   3192     1   0.15375 251793.120000
   3189   3201     1   0.14233 265014.560000
   3192   3193     1   0.15375 251793.120000
   3192   3200     1   0.14233 265014.560000
   3193   3194     1   0.15375 251793.120000
   3193   3199     1   0.14233 265014.560000
   3194   3198     1   0.14316 258236.480000
   3194   3210     1   0.14316 258236.480000
   3202   3208     1   0.14233 265014.560000
   3211   3212     1   0.15375 251793.120000
   3211   3225     1   0.15375 251793.120000
   3211   3233     1   0.14316 258236.480000
   3212   3215     1   0.15375 251793.120000
   3212   3224     1   0.14233 265014.560000
   3215   3216     1   0.15375 251793.120000
   3215   3223     1   0.14233 265014.560000
   3216   3217     1   0.15375 251793.120000
   3216   3222     1   0.14233 265014.560000
   3217   3221     1   0.14316 258236.480000
   3217   3233     1   0.14316 258236.480000
   3225   3231     1   0.14233 265014.560000
   3234   3235     1   0.15375 251793.120000
   3234   3248     1   0.15375 251793.120000
   3234   3256     1   0.14316 258236.480000
   3235   3238     1   0.15375 251793.120000
   3235   3247     1   0.14233 265014.560000
   3238   3239     1   0.15375 251793.120000
   3238   3246     1   0.14233 265014.560000
   3239   3240     1   0.15375 251793.120000
   3239   3245     1   0.14233 265014.560000
   3240   3244     1   0.14316 258236.480000
   3240   3256     1   0.14316 258236.480000
   3248   3254     1   0.14233 265014.560000
   3257   3258     1   0.15375 251793.120000
   3257   3271     1   0.15375 251793.120000
   3257   3279     1   0.14316 258236.480000
   3258   3261     1   0.15375 251793.120000
   3258   3270     1   0.14233 265014.560000
   3261   3262     1   0.15375 251793.120000
   3261   3269     1   0.14233 265014.560000
   3262   3263     1   0.15375 251793.120000
   3262   3268     1   0.14233 265014.560000
   3263   3267     1   0.14316 258236.480000
   3263   3279     1   0.14316 258236.480000
   3271   3277     1   0.14233 265014.560000
   3280   3281     1   0.15375 251793.120000
   3280   3294     1   0.15375 251793.120000
   3280   3302     1   0.14316 258236.480000
   3281   3284     1   0.15375 251793.120000
   3281   3293     1   0.14233 265014.560000
   3284   3285     1   0.15375 251793.120000
   3284   3292     1   0.14233 265014.560000
   3285   3286     1   0.15375 251793.120000
   3285   3291     1   0.14233 265014.560000
   3286   3290     1   0.14316 258236.480000
   3286   3302     1   0.14316 258236.480000
   3294   3300     1   0.14233 265014.560000
   3303   3304     1   0.15375 251793.120000
   3303   3317     1   0.15375 251793.120000
   3303   3325     1   0.14316 258236.480000
   3304   3307     1   0.15375 251793.120000
   3304   3316     1   0.14233 265014.560000
   3307   3308     1   0.15375 251793.120000
   3307   3315     1   0.14233 265014.560000
   3308   3309     1   0.15375 251793.120000
   3308   3314     1   0.14233 265014.560000
   3309   3313     1   0.14316 258236.480000
   3309   3325     1   0.14316 258236.480000
   3317   3323     1   0.14233 265014.560000
   3326   3327     1   0.15375 251793.120000
   3326   3340     1   0.15375 251793.120000
   3326   3348     1   0.14316 258236.480000
   3327   3330     1   0.15375 251793.120000
   3327   3339     1   0.14233 265014.560000
   3330   3331     1   0.15375 251793.120000
   3330   3338     1   0.14233 265014.560000
   3331   3332     1   0.15375 251793.120000
   3331   3337     1   0.14233 265014.560000
   3332   3336     1   0.14316 258236.480000
   3332   3348     1   0.14316 258236.480000
   3340   3346     1   0.14233 265014.560000
   3349   3350     1   0.15375 251793.120000
   3349   3363     1   0.15375 251793.120000
   3349   3371     1   0.14316 258236.480000
   3350   3353     1   0.15375 251793.120000
   3350   3362     1   0.14233 265014.560000
   3353   3354     1   0.15375 251793.120000
   3353   3361     1   0.14233 265014.560000
   3354   3355     1   0.15375 251793.120000
   3354   3360     1   0.14233 265014.560000
   3355   3359     1   0.14316 258236.480000
   3355   3371     1   0.14316 258236.480000
   3363   3369     1   0.14233 265014.560000
   3372   3373     1   0.15375 251793.120000
   3372   3386     1   0.15375 251793.120000
   3372   3394     1   0.14316 258236.480000
   3373   3376     1   0.15375 251793.120000
   3373   3385     1   0.14233 265014.560000
   3376   3377     1   0.15375 251793.120000
   3376   3384     1   0.14233 265014.560000
   3377   3378     1   0.15375 251793.120000
   3377   3383     1   0.14233 265014.560000
   3378   3382     1   0.14316 258236.480000
   3378   3394     1   0.14316 258236.480000
   3386   3392     1   0.14233 265014.560000
   3395   3396     1   0.15375 251793.120000
   3395   3409     1   0.15375 251793.120000
   3395   3417     1   0.14316 258236.480000
   3396   3399     1   0.15375 251793.120000
   3396   3408     1   0.14233 265014.560000
   3399   3400     1   0.15375 251793.120000
   3399   3407     1   0.14233 265014.560000
   3400   3401     1   0.15375 251793.120000
   3400   3406     1   0.14233 265014.560000
   3401   3405     1   0.14316 258236.480000
   3401   3417     1   0.14316 258236.480000
   3409   3415     1   0.14233 265014.560000
   3418   3419     1   0.15375 251793.120000
   3418   3432     1   0.15375 251793.120000
   3418   3440     1   0.14316 258236.480000
   3419   3422     1   0.15375 251793.120000
   3419   3431     1   0.14233 265014.560000
   3422   3423     1   0.15375 251793.120000
   3422   3430     1   0.14233 265014.560000
   3423   3424     1   0.15375 251793.120000
   3423   3429     1   0.14233 265014.560000
   3424   3428     1   0.14316 258236.480000
   3424   3440     1   0.14316 258236.480000
   3432   3438     1   0.14233 265014.560000
   3441   3442     1   0.15375 251793.120000
   3441   3455     1   0.15375 251793.120000
   3441   3463     1   0.14316 258236.480000
   3442   3445     1   0.15375 251793.120000
   3442   3454     1   0.14233 265014.560000
   3445   3446     1   0.15375 251793.120000
   3445   3453     1   0.14233 265014.560000
   3446   3447     1   0.15375 251793.120000
   3446   3452     1   0.14233 265014.560000
   3447   3451     1   0.14316 258236.480000
   3447   3463     1   0.14316 258236.480000
   3455   3461     1   0.14233 265014.560000
   3464   3465     1   0.15375 251793.120000
   3464   3478     1   0.15375 251793.120000
   3464   3486     1   0.14316 258236.480000
   3465   3468     1   0.15375 251793.120000
   3465   3477     1   0.14233 265014.560000
   3468   3469     1   0.15375 251793.120000
   3468   3476     1   0.14233 265014.560000
   3469   3470     1   0.15375 251793.120000
   3469   3475     1   0.14233 265014.560000
   3470   3474     1   0.14316 258236.480000
   3470   3486     1   0.14316 258236.480000
   3478   3484     1   0.14233 265014.560000
   3487   3488     1   0.15375 251793.120000
   3487   3501     1   0.15375 251793.120000
   3487   3509     1   0.14316 258236.480000
   3488   3491     1   0.15375 251793.120000
   3488   3500     1   0.14233 265014.560000
   3491   3492     1   0.15375 251793.120000
   3491   3499     1   0.14233 265014.560000
   3492   3493     1   0.15375 251793.120000
   3492   3498     1   0.14233 265014.560000
   3493   3497     1   0.14316 258236.480000
   3493   3509     1   0.14316 258236.480000
   3501   3507     1   0.14233 265014.560000
   3510   3511     1   0.15375 251793.120000
   3510   3524     1   0.15375 251793.120000
   3510   3532     1   0.14316 258236.480000
   3511   3514     1   0.15375 251793.120000
   3511   3523     1   0.14233 265014.560000
   3514   3515     1   0.15375 251793.120000
   3514   3522     1   0.14233 265014.560000
   3515   3516     1   0.15375 251793.120000
   3515   3521     1   0.14233 265014.560000
   3516   3520     1   0.14316 258236.480000
   3516   3532     1   0.14316 258236.480000
   3524   3530     1   0.14233 265014.560000
   3533   3534     1   0.15375 251793.120000
   3533   3547     1   0.15375 251793.120000
   3533   3555     1   0.14316 258236.480000
   3534   3537     1   0.15375 251793.120000
   3534   3546     1   0.14233 265014.560000
   3537   3538     1   0.15375 251793.120000
   3537   3545     1   0.14233 265014.560000
   3538   3539     1   0.15375 251793.120000
   3538   3544     1   0.14233 265014.560000
   3539   3543     1   0.14316 258236.480000
   3539   3555     1   0.14316 258236.480000
   3547   3553     1   0.14233 265014.560000
   3556   3557     1   0.15375 251793.120000
   3556   3570     1   0.15375 251793.120000
   3556   3578     1   0.14316 258236.480000
   3557   3560     1   0.15375 251793.120000
   3557   3569     1   0.14233 265014.560000
   3560   3561     1   0.15375 251793.120000
   3560   3568     1   0.14233 265014.560000
   3561   3562     1   0.15375 251793.120000
   3561   3567     1   0.14233 265014.560000
   3562   3566     1   0.14316 258236.480000
   3562   3578     1   0.14316 258236.480000
   3570   3576     1   0.14233 265014.560000
   3579   3580     1   0.15375 251793.120000
   3579   3593     1   0.15375 251793.120000
   3579   3601     1   0.14316 258236.480000
   3580   3583     1   0.15375 251793.120000
   3580   3592     1   0.14233 265014.560000
   3583   3584     1   0.15375 251793.120000
   3583   3591     1   0.14233 265014.560000
   3584   3585     1   0.15375 251793.120000
   3584   3590     1   0.14233 265014.560000
   3585   3589     1   0.14316 258236.480000
   3585   3601     1   0.14316 258236.480000
   3593   3599     1   0.14233 265014.560000
   3602   3603     1   0.15375 251793.120000
   3602   3616     1   0.15375 251793.120000
   3602   3624     1   0.14316 258236.480000
   3603   3606     1   0.15375 251793.120000
   3603   3615     1   0.14233 265014.560000
   3606   3607     1   0.15375 251793.120000
   3606   3614     1   0.14233 265014.560000
   3607   3608     1   0.15375 251793.120000
   3607   3613     1   0.14233 265014.560000
   3608   3612     1   0.14316 258236.480000
   3608   3624     1   0.14316 258236.480000
   3616   3622     1   0.14233 265014.560000
   3625   3626     1   0.15375 251793.120000
   3625   3639     1   0.15375 251793.120000
   3625   3647     1   0.14316 258236.480000
   3626   3629     1   0.15375 251793.120000
   3626   3638     1   0.14233 265014.560000
   3629   3630     1   0.15375 251793.120000
   3629   3637     1   0.14233 265014.560000
   3630   3631     1   0.15375 251793.120000
   3630   3636     1   0.14233 265014.560000
   3631   3635     1   0.14316 258236.480000
   3631   3647     1   0.14316 258236.480000
   3639   3645     1   0.14233 265014.560000
   3648   3649     1   0.15375 251793.120000
   3648   3662     1   0.15375 251793.120000
   3648   3670     1   0.14316 258236.480000
   3649   3652     1   0.15375 251793.120000
   3649   3661     1   0.14233 265014.560000
   3652   3653     1   0.15375 251793.120000
   3652   3660     1   0.14233 265014.560000
   3653   3654     1   0.15375 251793.120000
   3653   3659     1   0.14233 265014.560000
   3654   3658     1   0.14316 258236.480000
   3654   3670     1   0.14316 258236.480000
   3662   3668     1   0.14233 265014.560000
   3671   3672     1   0.15375 251793.120000
   3671   3685     1   0.15375 251793.120000
   3671   3693     1   0.14316 258236.480000
   3672   3675     1   0.15375 251793.120000
   3672   3684     1   0.14233 265014.560000
   3675   3676     1   0.15375 251793.120000
   3675   3683     1   0.14233 265014.560000
   3676   3677     1   0.15375 251793.120000
   3676   3682     1   0.14233 265014.560000
   3677   3681     1   0.14316 258236.480000
   3677   3693     1   0.14316 258236.480000
   3685   3691     1   0.14233 265014.560000
   3694   3695     1   0.15375 251793.120000
   3694   3708     1   0.15375 251793.120000
   3694   3716     1   0.14316 258236.480000
   3695   3698     1   0.15375 251793.120000
   3695   3707     1   0.14233 265014.560000
   3698   3699     1   0.15375 251793.120000
   3698   3706     1   0.14233 265014.560000
   3699   3700     1   0.15375 251793.120000
   3699   3705     1   0.14233 265014.560000
   3700   3704     1   0.14316 258236.480000
   3700   3716     1   0.14316 258236.480000
   3708   3714     1   0.14233 265014.560000
   3717   3718     1   0.15375 251793.120000
   3717   3731     1   0.15375 251793.120000
   3717   3739     1   0.14316 258236.480000
   3718   3721     1   0.15375 251793.120000
   3718   3730     1   0.14233 265014.560000
   3721   3722     1   0.15375 251793.120000
   3721   3729     1   0.14233 265014.560000
   3722   3723     1   0.15375 251793.120000
   3722   3728     1   0.14233 265014.560000
   3723   3727     1   0.14316 258236.480000
   3723   3739     1   0.14316 258236.480000
   3731   3737     1   0.14233 265014.560000
   3740   3741     1   0.15375 251793.120000
   3740   3754     1   0.15375 251793.120000
   3740   3762     1   0.14316 258236.480000
   3741   3744     1   0.15375 251793.120000
   3741   3753     1   0.14233 265014.560000
   3744   3745     1   0.15375 251793.120000
   3744   3752     1   0.14233 265014.560000
   3745   3746     1   0.15375 251793.120000
   3745   3751     1   0.14233 265014.560000
   3746   3750     1   0.14316 258236.480000
   3746   3762     1   0.14316 258236.480000
   3754   3760     1   0.14233 265014.560000
   3763   3764     1   0.15375 251793.120000
   3763   3777     1   0.15375 251793.120000
   3763   3785     1   0.14316 258236.480000
   3764   3767     1   0.15375 251793.120000
   3764   3776     1   0.14233 265014.560000
   3767   3768     1   0.15375 251793.120000
   3767   3775     1   0.14233 265014.560000
   3768   3769     1   0.15375 251793.120000
   3768   3774     1   0.14233 265014.560000
   3769   3773     1   0.14316 258236.480000
   3769   3785     1   0.14316 258236.480000
   3777   3783     1   0.14233 265014.560000
   3786   3787     1   0.15375 251793.120000
   3786   3800     1   0.15375 251793.120000
   3786   3808     1   0.14316 258236.480000
   3787   3790     1   0.15375 251793.120000
   3787   3799     1   0.14233 265014.560000
   3790   3791     1   0.15375 251793.120000
   3790   3798     1   0.14233 265014.560000
   3791   3792     1   0.15375 251793.120000
   3791   3797     1   0.14233 265014.560000
   3792   3796     1   0.14316 258236.480000
   3792   3808     1   0.14316 258236.480000
   3800   3806     1   0.14233 265014.560000
   3809   3810     1   0.15375 251793.120000
   3809   3823     1   0.15375 251793.120000
   3809   3831     1   0.14316 258236.480000
   3810   3813     1   0.15375 251793.120000
   3810   3822     1   0.14233 265014.560000
   3813   3814     1   0.15375 251793.120000
   3813   3821     1   0.14233 265014.560000
   3814   3815     1   0.15375 251793.120000
   3814   3820     1   0.14233 265014.560000
   3815   3819     1   0.14316 258236.480000
   3815   3831     1   0.14316 258236.480000
   3823   3829     1   0.14233 265014.560000
   3832   3833     1   0.15375 251793.120000
   3832   3846     1   0.15375 251793.120000
   3832   3854     1   0.14316 258236.480000
   3833   3836     1   0.15375 251793.120000
   3833   3845     1   0.14233 265014.560000
   3836   3837     1   0.15375 251793.120000
   3836   3844     1   0.14233 265014.560000
   3837   3838     1   0.15375 251793.120000
   3837   3843     1   0.14233 265014.560000
   3838   3842     1   0.14316 258236.480000
   3838   3854     1   0.14316 258236.480000
   3846   3852     1   0.14233 265014.560000
   3855   3856     1   0.15375 251793.120000
   3855   3869     1   0.15375 251793.120000
   3855   3877     1   0.14316 258236.480000
   3856   3859     1   0.15375 251793.120000
   3856   3868     1   0.14233 265014.560000
   3859   3860     1   0.15375 251793.120000
   3859   3867     1   0.14233 265014.560000
   3860   3861     1   0.15375 251793.120000
   3860   3866     1   0.14233 265014.560000
   3861   3865     1   0.14316 258236.480000
   3861   3877     1   0.14316 258236.480000
   3869   3875     1   0.14233 265014.560000
   3878   3879     1   0.15375 251793.120000
   3878   3892     1   0.15375 251793.120000
   3878   3900     1   0.14316 258236.480000
   3879   3882     1   0.15375 251793.120000
   3879   3891     1   0.14233 265014.560000
   3882   3883     1   0.15375 251793.120000
   3882   3890     1   0.14233 265014.560000
   3883   3884     1   0.15375 251793.120000
   3883   3889     1   0.14233 265014.560000
   3884   3888     1   0.14316 258236.480000
   3884   3900     1   0.14316 258236.480000
   3892   3898     1   0.14233 265014.560000
   3901   3902     1   0.15375 251793.120000
   3901   3915     1   0.15375 251793.120000
   3901   3923     1   0.14316 258236.480000
   3902   3905     1   0.15375 251793.120000
   3902   3914     1   0.14233 265014.560000
   3905   3906     1   0.15375 251793.120000
   3905   3913     1   0.14233 265014.560000
   3906   3907     1   0.15375 251793.120000
   3906   3912     1   0.14233 265014.560000
   3907   3911     1   0.14316 258236.480000
   3907   3923     1   0.14316 258236.480000
   3915   3921     1   0.14233 265014.560000
   3924   3925     1   0.15375 251793.120000
   3924   3938     1   0.15375 251793.120000
   3924   3946     1   0.14316 258236.480000
   3925   3928     1   0.15375 251793.120000
   3925   3937     1   0.14233 265014.560000
   3928   3929     1   0.15375 251793.120000
   3928   3936     1   0.14233 265014.560000
   3929   3930     1   0.15375 251793.120000
   3929   3935     1   0.14233 265014.560000
   3930   3934     1   0.14316 258236.480000
   3930   3946     1   0.14316 258236.480000
   3938   3944     1   0.14233 265014.560000
   3947   3948     1   0.15375 251793.120000
   3947   3961     1   0.15375 251793.120000
   3947   3969     1   0.14316 258236.480000
   3948   3951     1   0.15375 251793.120000
   3948   3960     1   0.14233 265014.560000
   3951   3952     1   0.15375 251793.120000
   3951   3959     1   0.14233 265014.560000
   3952   3953     1   0.15375 251793.120000
   3952   3958     1   0.14233 265014.560000
   3953   3957     1   0.14316 258236.480000
   3953   3969     1   0.14316 258236.480000
   3961   3967     1   0.14233 265014.560000
   3970   3971     1   0.15375 251793.120000
   3970   3984     1   0.15375 251793.120000
   3970   3992     1   0.14316 258236.480000
   3971   3974     1   0.15375 251793.120000
   3971   3983     1   0.14233 265014.560000
   3974   3975     1   0.15375 251793.120000
   3974   3982     1   0.14233 265014.560000
   3975   3976     1   0.15375 251793.120000
   3975   3981     1   0.14233 265014.560000
   3976   3980     1   0.14316 258236.480000
   3976   3992     1   0.14316 258236.480000
   3984   3990     1   0.14233 265014.560000
   3993   3994     1   0.15375 251793.120000
   3993   4007     1   0.15375 251793.120000
   3993   4015     1   0.14316 258236.480000
   3994   3997     1   0.15375 251793.120000
   3994   4006     1   0.14233 265014.560000
   3997   3998     1   0.15375 251793.120000
   3997   4005     1   0.14233 265014.560000
   3998   3999     1   0.15375 251793.120000
   3998   4004     1   0.14233 265014.560000
   3999   4003     1   0.14316 258236.480000
   3999   4015     1   0.14316 258236.480000
   4007   4013     1   0.14233 265014.560000
   4016   4017     1   0.15375 251793.120000
   4016   4030     1   0.15375 251793.120000
   4016   4038     1   0.14316 258236.480000
   4017   4020     1   0.15375 251793.120000
   4017   4029     1   0.14233 265014.560000
   4020   4021     1   0.15375 251793.120000
   4020   4028     1   0.14233 265014.560000
   4021   4022     1   0.15375 251793.120000
   4021   4027     1   0.14233 265014.560000
   4022   4026     1   0.14316 258236.480000
   4022   4038     1   0.14316 258236.480000
   4030   4036     1   0.14233 265014.560000
   4039   4040     1   0.15375 251793.120000
   4039   4053     1   0.15375 251793.120000
   4039   4061     1   0.14316 258236.480000
   4040   4043     1   0.15375 251793.120000
   4040   4052     1   0.14233 265014.560000
   4043   4044     1   0.15375 251793.120000
   4043   4051     1   0.14233 265014.560000
   4044   4045     1   0.15375 251793.120000
   4044   4050     1   0.14233 265014.560000
   4045   4049     1   0.14316 258236.480000
   4045   4061     1   0.14316 258236.480000
   4053   4059     1   0.14233 265014.560000
   4062   4063     1   0.15375 251793.120000
   4062   4076     1   0.15375 251793.120000
   4062   4084     1   0.14316 258236.480000
   4063   4066     1   0.15375 251793.120000
   4063   4075     1   0.14233 265014.560000
   4066   4067     1   0.15375 251793.120000
   4066   4074     1   0.14233 265014.560000
   4067   4068     1   0.15375 251793.120000
   4067   4073     1   0.14233 265014.560000
   4068   4072     1   0.14316 258236.480000
   4068   4084     1   0.14316 258236.480000
   4076   4082     1   0.14233 265014.560000
   4085   4086     1   0.15375 251793.120000
   4085   4099     1   0.15375 251793.120000
   4085   4107     1   0.14316 258236.480000
   4086   4089     1   0.15375 251793.120000
   4086   4098     1   0.14233 265014.560000
   4089   4090     1   0.15375 251793.120000
   4089   4097     1   0.14233 265014.560000
   4090   4091     1   0.15375 251793.120000
   4090   4096     1   0.14233 265014.560000
   4091   4095     1   0.14316 258236.480000
   4091   4107     1   0.14316 258236.480000
   4099   4105     1   0.14233 265014.560000
   4108   4109     1   0.15375 251793.120000
   4108   4122     1   0.15375 251793.120000
   4108   4130     1   0.14316 258236.480000
   4109   4112     1   0.15375 251793.120000
   4109   4121     1   0.14233 265014.560000
   4112   4113     1   0.15375 251793.120000
   4112   4120     1   0.14233 265014.560000
   4113   4114     1   0.15375 251793.120000
   4113   4119     1   0.14233 265014.560000
   4114   4118     1   0.14316 258236.480000
   4114   4130     1   0.14316 258236.480000
   4122   4128     1   0.14233 265014.560000
   4131   4132     1   0.15375 251793.120000
   4131   4145     1   0.15375 251793.120000
   4131   4153     1   0.14316 258236.480000
   4132   4135     1   0.15375 251793.120000
   4132   4144     1   0.14233 265014.560000
   4135   4136     1   0.15375 251793.120000
   4135   4143     1   0.14233 265014.560000
   4136   4137     1   0.15375 251793.120000
   4136   4142     1   0.14233 265014.560000
   4137   4141     1   0.14316 258236.480000
   4137   4153     1   0.14316 258236.480000
   4145   4151     1   0.14233 265014.560000
   4154   4155     1   0.15375 251793.120000
   4154   4168     1   0.15375 251793.120000
   4154   4176     1   0.14316 258236.480000
   4155   4158     1   0.15375 251793.120000
   4155   4167     1   0.14233 265014.560000
   4158   4159     1   0.15375 251793.120000
   4158   4166     1   0.14233 265014.560000
   4159   4160     1   0.15375 251793.120000
   4159   4165     1   0.14233 265014.560000
   4160   4164     1   0.14316 258236.480000
   4160   4176     1   0.14316 258236.480000
   4168   4174     1   0.14233 265014.560000
   4177   4178     1   0.15375 251793.120000
   4177   4191     1   0.15375 251793.120000
   4177   4199     1   0.14316 258236.480000
   4178   4181     1   0.15375 251793.120000
   4178   4190     1   0.14233 265014.560000
   4181   4182     1   0.15375 251793.120000
   4181   4189     1   0.14233 265014.560000
   4182   4183     1   0.15375 251793.120000
   4182   4188     1   0.14233 265014.560000
   4183   4187     1   0.14316 258236.480000
   4183   4199     1   0.14316 258236.480000
   4191   4197     1   0.14233 265014.560000
   4200   4201     1   0.15375 251793.120000
   4200   4214     1   0.15375 251793.120000
   4200   4222     1   0.14316 258236.480000
   4201   4204     1   0.15375 251793.120000
   4201   4213     1   0.14233 265014.560000
   4204   4205     1   0.15375 251793.120000
   4204   4212     1   0.14233 265014.560000
   4205   4206     1   0.15375 251793.120000
   4205   4211     1   0.14233 265014.560000
   4206   4210     1   0.14316 258236.480000
   4206   4222     1   0.14316 258236.480000
   4214   4220     1   0.14233 265014.560000
   4223   4224     1   0.15375 251793.120000
   4223   4237     1   0.15375 251793.120000
   4223   4245     1   0.14316 258236.480000
   4224   4227     1   0.15375 251793.120000
   4224   4236     1   0.14233 265014.560000
   4227   4228     1   0.15375 251793.120000
   4227   4235     1   0.14233 265014.560000
   4228   4229     1   0.15375 251793.120000
   4228   4234     1   0.14233 265014.560000
   4229   4233     1   0.14316 258236.480000
   4229   4245     1   0.14316 258236.480000
   4237   4243     1   0.14233 265014.560000
   4246   4247     1   0.15375 251793.120000
   4246   4260     1   0.15375 251793.120000
   4246   4268     1   0.14316 258236.480000
   4247   4250     1   0.15375 251793.120000
   4247   4259     1   0.14233 265014.560000
   4250   4251     1   0.15375 251793.120000
   4250   4258     1   0.14233 265014.560000
   4251   4252     1   0.15375 251793.120000
   4251   4257     1   0.14233 265014.560000
   4252   4256     1   0.14316 258236.480000
   4252   4268     1   0.14316 258236.480000
   4260   4266     1   0.14233 265014.560000
   4269   4270     1   0.15375 251793.120000
   4269   4283     1   0.15375 251793.120000
   4269   4291     1   0.14316 258236.480000
   4270   4273     1   0.15375 251793.120000
   4270   4282     1   0.14233 265014.560000
   4273   4274     1   0.15375 251793.120000
   4273   4281     1   0.14233 265014.560000
   4274   4275     1   0.15375 251793.120000
   4274   4280     1   0.14233 265014.560000
   4275   4279     1   0.14316 258236.480000
   4275   4291     1   0.14316 258236.480000
   4283   4289     1   0.14233 265014.560000
   4292   4293     1   0.15375 251793.120000
   4292   4306     1   0.15375 251793.120000
   4292   4314     1   0.14316 258236.480000
   4293   4296     1   0.15375 251793.120000
   4293   4305     1   0.14233 265014.560000
   4296   4297     1   0.15375 251793.120000
   4296   4304     1   0.14233 265014.560000
   4297   4298     1   0.15375 251793.120000
   4297   4303     1   0.14233 265014.560000
   4298   4302     1   0.14316 258236.480000
   4298   4314     1   0.14316 258236.480000
   4306   4312     1   0.14233 265014.560000
   4315   4316     1   0.15375 251793.120000
   4315   4329     1   0.15375 251793.120000
   4315   4337     1   0.14316 258236.480000
   4316   4319     1   0.15375 251793.120000
   4316   4328     1   0.14233 265014.560000
   4319   4320     1   0.15375 251793.120000
   4319   4327     1   0.14233 265014.560000
   4320   4321     1   0.15375 251793.120000
   4320   4326     1   0.14233 265014.560000
   4321   4325     1   0.14316 258236.480000
   4321   4337     1   0.14316 258236.480000
   4329   4335     1   0.14233 265014.560000
   4338   4339     1   0.15375 251793.120000
   4338   4352     1   0.15375 251793.120000
   4338   4360     1   0.14316 258236.480000
   4339   4342     1   0.15375 251793.120000
   4339   4351     1   0.14233 265014.560000
   4342   4343     1   0.15375 251793.120000
   4342   4350     1   0.14233 265014.560000
   4343   4344     1   0.15375 251793.120000
   4343   4349     1   0.14233 265014.560000
   4344   4348     1   0.14316 258236.480000
   4344   4360     1   0.14316 258236.480000
   4352   4358     1   0.14233 265014.560000
   4361   4362     1   0.15375 251793.120000
   4361   4375     1   0.15375 251793.120000
   4361   4383     1   0.14316 258236.480000
   4362   4365     1   0.15375 251793.120000
   4362   4374     1   0.14233 265014.560000
   4365   4366     1   0.15375 251793.120000
   4365   4373     1   0.14233 265014.560000
   4366   4367     1   0.15375 251793.120000
   4366   4372     1   0.14233 265014.560000
   4367   4371     1   0.14316 258236.480000
   4367   4383     1   0.14316 258236.480000
   4375   4381     1   0.14233 265014.560000
   4384   4385     1   0.15375 251793.120000
   4384   4398     1   0.15375 251793.120000
   4384   4406     1   0.14316 258236.480000
   4385   4388     1   0.15375 251793.120000
   4385   4397     1   0.14233 265014.560000
   4388   4389     1   0.15375 251793.120000
   4388   4396     1   0.14233 265014.560000
   4389   4390     1   0.15375 251793.120000
   4389   4395     1   0.14233 265014.560000
   4390   4394     1   0.14316 258236.480000
   4390   4406     1   0.14316 258236.480000
   4398   4404     1   0.14233 265014.560000
   4407   4408     1   0.15375 251793.120000
   4407   4421     1   0.15375 251793.120000
   4407   4429     1   0.14316 258236.480000
   4408   4411     1   0.15375 251793.120000
   4408   4420     1   0.14233 265014.560000
   4411   4412     1   0.15375 251793.120000
   4411   4419     1   0.14233 265014.560000
   4412   4413     1   0.15375 251793.120000
   4412   4418     1   0.14233 265014.560000
   4413   4417     1   0.14316 258236.480000
   4413   4429     1   0.14316 258236.480000
   4421   4427     1   0.14233 265014.560000
   4430   4431     1   0.15375 251793.120000
   4430   4444     1   0.15375 251793.120000
   4430   4452     1   0.14316 258236.480000
   4431   4434     1   0.15375 251793.120000
   4431   4443     1   0.14233 265014.560000
   4434   4435     1   0.15375 251793.120000
   4434   4442     1   0.14233 265014.560000
   4435   4436     1   0.15375 251793.120000
   4435   4441     1   0.14233 265014.560000
   4436   4440     1   0.14316 258236.480000
   4436   4452     1   0.14316 258236.480000
   4444   4450     1   0.14233 265014.560000
   4453   4454     1   0.15375 251793.120000
   4453   4467     1   0.15375 251793.120000
   4453   4475     1   0.14316 258236.480000
   4454   4457     1   0.15375 251793.120000
   4454   4466     1   0.14233 265014.560000
   4457   4458     1   0.15375 251793.120000
   4457   4465     1   0.14233 265014.560000
   4458   4459     1   0.15375 251793.120000
   4458   4464     1   0.14233 265014.560000
   4459   4463     1   0.14316 258236.480000
   4459   4475     1   0.14316 258236.480000
   4467   4473     1   0.14233 265014.560000
   4476   4477     1   0.15375 251793.120000
   4476   4490     1   0.15375 251793.120000
   4476   4498     1   0.14316 258236.480000
   4477   4480     1   0.15375 251793.120000
   4477   4489     1   0.14233 265014.560000
   4480   4481     1   0.15375 251793.120000
   4480   4488     1   0.14233 265014.560000
   4481   4482     1   0.15375 251793.120000
   4481   4487     1   0.14233 265014.560000
   4482   4486     1   0.14316 258236.480000
   4482   4498     1   0.14316 258236.480000
   4490   4496     1   0.14233 265014.560000
   4499   4500     1   0.15375 251793.120000
   4499   4513     1   0.15375 251793.120000
   4499   4521     1   0.14316 258236.480000
   4500   4503     1   0.15375 251793.120000
   4500   4512     1   0.14233 265014.560000
   4503   4504     1   0.15375 251793.120000
   4503   4511     1   0.14233 265014.560000
   4504   4505     1   0.15375 251793.120000
   4504   4510     1   0.14233 265014.560000
   4505   4509     1   0.14316 258236.480000
   4505   4521     1   0.14316 258236.480000
   4513   4519     1   0.14233 265014.560000
   4522   4523     1   0.15375 251793.120000
   4522   4536     1   0.15375 251793.120000
   4522   4544     1   0.14316 258236.480000
   4523   4526     1   0.15375 251793.120000
   4523   4535     1   0.14233 265014.560000
   4526   4527     1   0.15375 251793.120000
   4526   4534     1   0.14233 265014.560000
   4527   4528     1   0.15375 251793.120000
   4527   4533     1   0.14233 265014.560000
   4528   4532     1   0.14316 258236.480000
   4528   4544     1   0.14316 258236.480000
   4536   4542     1   0.14233 265014.560000
   4545   4546     1   0.15375 251793.120000
   4545   4559     1   0.15375 251793.120000
   4545   4567     1   0.14316 258236.480000
   4546   4549     1   0.15375 251793.120000
   4546   4558     1   0.14233 265014.560000
   4549   4550     1   0.15375 251793.120000
   4549   4557     1   0.14233 265014.560000
   4550   4551     1   0.15375 251793.120000
   4550   4556     1   0.14233 265014.560000
   4551   4555     1   0.14316 258236.480000
   4551   4567     1   0.14316 258236.480000
   4559   4565     1   0.14233 265014.560000
   4568   4569     1   0.15375 251793.120000
   4568   4582     1   0.15375 251793.120000
   4568   4590     1   0.14316 258236.480000
   4569   4572     1   0.15375 251793.120000
   4569   4581     1   0.14233 265014.560000
   4572   4573     1   0.15375 251793.120000
   4572   4580     1   0.14233 265014.560000
   4573   4574     1   0.15375 251793.120000
   4573   4579     1   0.14233 265014.560000
   4574   4578     1   0.14316 258236.480000
   4574   4590     1   0.14316 258236.480000
   4582   4588     1   0.14233 265014.560000
   4591   4592     1   0.15375 251793.120000
   4591   4605     1   0.15375 251793.120000
   4591   4613     1   0.14316 258236.480000
   4592   4595     1   0.15375 251793.120000
   4592   4604     1   0.14233 265014.560000
   4595   4596     1   0.15375 251793.120000
   4595   4603     1   0.14233 265014.560000
   4596   4597     1   0.15375 251793.120000
   4596   4602     1   0.14233 265014.560000
   4597   4601     1   0.14316 258236.480000
   4597   4613     1   0.14316 258236.480000
   4605   4611     1   0.14233 265014.560000
   4614   4615     1   0.15375 251793.120000
   4614   4628     1   0.15375 251793.120000
   4614   4636     1   0.14316 258236.480000
   4615   4618     1   0.15375 251793.120000
   4615   4627     1   0.14233 265014.560000
   4618   4619     1   0.15375 251793.120000
   4618   4626     1   0.14233 265014.560000
   4619   4620     1   0.15375 251793.120000
   4619   4625     1   0.14233 265014.560000
   4620   4624     1   0.14316 258236.480000
   4620   4636     1   0.14316 258236.480000
   4628   4634     1   0.14233 265014.560000
   4637   4638     1   0.15375 251793.120000
   4637   4651     1   0.15375 251793.120000
   4637   4659     1   0.14316 258236.480000
   4638   4641     1   0.15375 251793.120000
   4638   4650     1   0.14233 265014.560000
   4641   4642     1   0.15375 251793.120000
   4641   4649     1   0.14233 265014.560000
   4642   4643     1   0.15375 251793.120000
   4642   4648     1   0.14233 265014.560000
   4643   4647     1   0.14316 258236.480000
   4643   4659     1   0.14316 258236.480000
   4651   4657     1   0.14233 265014.560000
   4660   4661     1   0.15375 251793.120000
   4660   4674     1   0.15375 251793.120000
   4660   4682     1   0.14316 258236.480000
   4661   4664     1   0.15375 251793.120000
   4661   4673     1   0.14233 265014.560000
   4664   4665     1   0.15375 251793.120000
   4664   4672     1   0.14233 265014.560000
   4665   4666     1   0.15375 251793.120000
   4665   4671     1   0.14233 265014.560000
   4666   4670     1   0.14316 258236.480000
   4666   4682     1   0.14316 258236.480000
   4674   4680     1   0.14233 265014.560000
   4683   4684     1   0.15375 251793.120000
   4683   4697     1   0.15375 251793.120000
   4683   4705     1   0.14316 258236.480000
   4684   4687     1   0.15375 251793.120000
   4684   4696     1   0.14233 265014.560000
   4687   4688     1   0.15375 251793.120000
   4687   4695     1   0.14233 265014.560000
   4688   4689     1   0.15375 251793.120000
   4688   4694     1   0.14233 265014.560000
   4689   4693     1   0.14316 258236.480000
   4689   4705     1   0.14316 258236.480000
   4697   4703     1   0.14233 265014.560000
   4706   4707     1   0.15375 251793.120000
   4706   4720     1   0.15375 251793.120000
   4706   4728     1   0.14316 258236.480000
   4707   4710     1   0.15375 251793.120000
   4707   4719     1   0.14233 265014.560000
   4710   4711     1   0.15375 251793.120000
   4710   4718     1   0.14233 265014.560000
   4711   4712     1   0.15375 251793.120000
   4711   4717     1   0.14233 265014.560000
   4712   4716     1   0.14316 258236.480000
   4712   4728     1   0.14316 258236.480000
   4720   4726     1   0.14233 265014.560000
   4729   4730     1   0.15375 251793.120000
   4729   4743     1   0.15375 251793.120000
   4729   4751     1   0.14316 258236.480000
   4730   4733     1   0.15375 251793.120000
   4730   4742     1   0.14233 265014.560000
   4733   4734     1   0.15375 251793.120000
   4733   4741     1   0.14233 265014.560000
   4734   4735     1   0.15375 251793.120000
   4734   4740     1   0.14233 265014.560000
   4735   4739     1   0.14316 258236.480000
   4735   4751     1   0.14316 258236.480000
   4743   4749     1   0.14233 265014.560000
   4752   4753     1   0.15375 251793.120000
   4752   4766     1   0.15375 251793.120000
   4752   4774     1   0.14316 258236.480000
   4753   4756     1   0.15375 251793.120000
   4753   4765     1   0.14233 265014.560000
   4756   4757     1   0.15375 251793.120000
   4756   4764     1   0.14233 265014.560000
   4757   4758     1   0.15375 251793.120000
   4757   4763     1   0.14233 265014.560000
   4758   4762     1   0.14316 258236.480000
   4758   4774     1   0.14316 258236.480000
   4766   4772     1   0.14233 265014.560000
   4775   4776     1   0.15375 251793.120000
   4775   4789     1   0.15375 251793.120000
   4775   4797     1   0.14316 258236.480000
   4776   4779     1   0.15375 251793.120000
   4776   4788     1   0.14233 265014.560000
   4779   4780     1   0.15375 251793.120000
   4779   4787     1   0.14233 265014.560000
   4780   4781     1   0.15375 251793.120000
   4780   4786     1   0.14233 265014.560000
   4781   4785     1   0.14316 258236.480000
   4781   4797     1   0.14316 258236.480000
   4789   4795     1   0.14233 265014.560000
   4798   4799     1   0.15375 251793.120000
   4798   4812     1   0.15375 251793.120000
   4798   4820     1   0.14316 258236.480000
   4799   4802     1   0.15375 251793.120000
   4799   4811     1   0.14233 265014.560000
   4802   4803     1   0.15375 251793.120000
   4802   4810     1   0.14233 265014.560000
   4803   4804     1   0.15375 251793.120000
   4803   4809     1   0.14233 265014.560000
   4804   4808     1   0.14316 258236.480000
   4804   4820     1   0.14316 258236.480000
   4812   4818     1   0.14233 265014.560000
   4821   4822     1   0.15375 251793.120000
   4821   4835     1   0.15375 251793.120000
   4821   4843     1   0.14316 258236.480000
   4822   4825     1   0.15375 251793.120000
   4822   4834     1   0.14233 265014.560000
   4825   4826     1   0.15375 251793.120000
   4825   4833     1   0.14233 265014.560000
   4826   4827     1   0.15375 251793.120000
   4826   4832     1   0.14233 265014.560000
   4827   4831     1   0.14316 258236.480000
   4827   4843     1   0.14316 258236.480000
   4835   4841     1   0.14233 265014.560000
   4844   4845     1   0.15375 251793.120000
   4844   4858     1   0.15375 251793.120000
   4844   4866     1   0.14316 258236.480000
   4845   4848     1   0.15375 251793.120000
   4845   4857     1   0.14233 265014.560000
   4848   4849     1   0.15375 251793.120000
   4848   4856     1   0.14233 265014.560000
   4849   4850     1   0.15375 251793.120000
   4849   4855     1   0.14233 265014.560000
   4850   4854     1   0.14316 258236.480000
   4850   4866     1   0.14316 258236.480000
   4858   4864     1   0.14233 265014.560000
   4867   4868     1   0.15375 251793.120000
   4867   4881     1   0.15375 251793.120000
   4867   4889     1   0.14316 258236.480000
   4868   4871     1   0.15375 251793.120000
   4868   4880     1   0.14233 265014.560000
   4871   4872     1   0.15375 251793.120000
   4871   4879     1   0.14233 265014.560000
   4872   4873     1   0.15375 251793.120000
   4872   4878     1   0.14233 265014.560000
   4873   4877     1   0.14316 258236.480000
   4873   4889     1   0.14316 258236.480000
   4881   4887     1   0.14233 265014.560000
   4890   4891     1   0.15375 251793.120000
   4890   4904     1   0.15375 251793.120000
   4890   4912     1   0.14316 258236.480000
   4891   4894     1   0.15375 251793.120000
   4891   4903     1   0.14233 265014.560000
   4894   4895     1   0.15375 251793.120000
   4894   4902     1   0.14233 265014.560000
   4895   4896     1   0.15375 251793.120000
   4895   4901     1   0.14233 265014.560000
   4896   4900     1   0.14316 258236.480000
   4896   4912     1   0.14316 258236.480000
   4904   4910     1   0.14233 265014.560000
   4913   4914     1   0.15375 251793.120000
   4913   4927     1   0.15375 251793.120000
   4913   4935     1   0.14316 258236.480000
   4914   4917     1   0.15375 251793.120000
   4914   4926     1   0.14233 265014.560000
   4917   4918     1   0.15375 251793.120000
   4917   4925     1   0.14233 265014.560000
   4918   4919     1   0.15375 251793.120000
   4918   4924     1   0.14233 265014.560000
   4919   4923     1   0.14316 258236.480000
   4919   4935     1   0.14316 258236.480000
   4927   4933     1   0.14233 265014.560000
   4936   4937     1   0.15375 251793.120000
   4936   4950     1   0.15375 251793.120000
   4936   4958     1   0.14316 258236.480000
   4937   4940     1   0.15375 251793.120000
   4937   4949     1   0.14233 265014.560000
   4940   4941     1   0.15375 251793.120000
   4940   4948     1   0.14233 265014.560000
   4941   4942     1   0.15375 251793.120000
   4941   4947     1   0.14233 265014.560000
   4942   4946     1   0.14316 258236.480000
   4942   4958     1   0.14316 258236.480000
   4950   4956     1   0.14233 265014.560000
   4959   4960     1   0.15375 251793.120000
   4959   4973     1   0.15375 251793.120000
   4959   4981     1   0.14316 258236.480000
   4960   4963     1   0.15375 251793.120000
   4960   4972     1   0.14233 265014.560000
   4963   4964     1   0.15375 251793.120000
   4963   4971     1   0.14233 265014.560000
   4964   4965     1   0.15375 251793.120000
   4964   4970     1   0.14233 265014.560000
   4965   4969     1   0.14316 258236.480000
   4965   4981     1   0.14316 258236.480000
   4973   4979     1   0.14233 265014.560000
   4982   4983     1   0.15375 251793.120000
   4982   4996     1   0.15375 251793.120000
   4982   5004     1   0.14316 258236.480000
   4983   4986     1   0.15375 251793.120000
   4983   4995     1   0.14233 265014.560000
   4986   4987     1   0.15375 251793.120000
   4986   4994     1   0.14233 265014.560000
   4987   4988     1   0.15375 251793.120000
   4987   4993     1   0.14233 265014.560000
   4988   4992     1   0.14316 258236.480000
   4988   5004     1   0.14316 258236.480000
   4996   5002     1   0.14233 265014.560000
   5005   5006     1   0.15375 251793.120000
   5005   5019     1   0.15375 251793.120000
   5005   5027     1   0.14316 258236.480000
   5006   5009     1   0.15375 251793.120000
   5006   5018     1   0.14233 265014.560000
   5009   5010     1   0.15375 251793.120000
   5009   5017     1   0.14233 265014.560000
   5010   5011     1   0.15375 251793.120000
   5010   5016     1   0.14233 265014.560000
   5011   5015     1   0.14316 258236.480000
   5011   5027     1   0.14316 258236.480000
   5019   5025     1   0.14233 265014.560000
      1     29     1   0.10304 312293.760000
      2      3     1   0.10910 283424.160000
      2      4     1   0.10910 283424.160000
      5      6     1   0.10910 283424.160000
      5      7     1   0.10910 283424.160000
      8      9     1   0.10910 283424.160000
      8     10     1   0.10910 283424.160000
     11     12     1   0.10969 276646.080000
     11     13     1   0.10969 276646.080000
     14     15     1   0.10969 276646.080000
     14     16     1   0.10969 276646.080000
     17     18     1   0.10969 276646.080000
     17     19     1   0.10969 276646.080000
     20     21     1   0.10969 276646.080000
     20     22     1   0.10969 276646.080000
     23     24     1   0.10969 276646.080000
     23     25     1   0.10969 276646.080000
     26     27     1   0.10969 276646.080000
     26     28     1   0.10969 276646.080000
     30     59     1   0.10304 312293.760000
     31     32     1   0.10910 283424.160000
     31     33     1   0.10910 283424.160000
     34     35     1   0.10910 283424.160000
     34     36     1   0.10910 283424.160000
     37     38     1   0.10910 283424.160000
     37     39     1   0.10910 283424.160000
     40     41     1   0.10969 276646.080000
     40     42     1   0.10969 276646.080000
     43     44     1   0.10969 276646.080000
     43     45     1   0.10969 276646.080000
     46     47     1   0.10969 276646.080000
     46     48     1   0.10969 276646.080000
     49     50     1   0.10969 276646.080000
     49     51     1   0.10969 276646.080000
     52     53     1   0.10969 276646.080000
     52     54     1   0.10969 276646.080000
     55     56     1   0.10969 276646.080000
     55     57     1   0.10969 276646.080000
     60     89     1   0.10304 312293.760000
     61     62     1   0.10910 283424.160000
     61     63     1   0.10910 283424.160000
     64     65     1   0.10910 283424.160000
     64     66     1   0.10910 283424.160000
     67     68     1   0.10910 283424.160000
     67     69     1   0.10910 283424.160000
     70     71     1   0.10969 276646.080000
     70     72     1   0.10969 276646.080000
     73     74     1   0.10969 276646.080000
     73     75     1   0.10969 276646.080000
     76     77     1   0.10969 276646.080000
     76     78     1   0.10969 276646.080000
     79     80     1   0.10969 276646.080000
     79     81     1   0.10969 276646.080000
     82     83     1   0.10969 276646.080000
     82     84     1   0.10969 276646.080000
     85     86     1   0.10969 276646.080000
     85     87     1   0.10969 276646.080000
     90    119     1   0.10304 312293.760000
     91     92     1   0.10910 283424.160000
     91     93     1   0.10910 283424.160000
     94     95     1   0.10910 283424.160000
     94     96     1   0.10910 283424.160000
     97     98     1   0.10910 283424.160000
     97     99     1   0.10910 283424.160000
    100    101     1   0.10969 276646.080000
    100    102     1   0.10969 276646.080000
    103    104     1   0.10969 276646.080000
    103    105     1   0.10969 276646.080000
    106    107     1   0.10969 276646.080000
    106    108     1   0.10969 276646.080000
    109    110     1   0.10969 276646.080000
    109    111     1   0.10969 276646.080000
    112    113     1   0.10969 276646.080000
    112    114     1   0.10969 276646.080000
    115    116     1   0.10969 276646.080000
    115    117     1   0.10969 276646.080000
    120    149     1   0.10304 312293.760000
    121    122     1   0.10910 283424.160000
    121    123     1   0.10910 283424.160000
    124    125     1   0.10910 283424.160000
    124    126     1   0.10910 283424.160000
    127    128     1   0.10910 283424.160000
    127    129     1   0.10910 283424.160000
    130    131     1   0.10969 276646.080000
    130    132     1   0.10969 276646.080000
    133    134     1   0.10969 276646.080000
    133    135     1   0.10969 276646.080000
    136    137     1   0.10969 276646.080000
    136    138     1   0.10969 276646.080000
    139    140     1   0.10969 276646.080000
    139    141     1   0.10969 276646.080000
    142    143     1   0.10969 276646.080000
    142    144     1   0.10969 276646.080000
    145    146     1   0.10969 276646.080000
    145    147     1   0.10969 276646.080000
    150    179     1   0.10304 312293.760000
    151    152     1   0.10910 283424.160000
    151    153     1   0.10910 283424.160000
    154    155     1   0.10910 283424.160000
    154    156     1   0.10910 283424.160000
    157    158     1   0.10910 283424.160000
    157    159     1   0.10910 283424.160000
    160    161     1   0.10969 276646.080000
    160    162     1   0.10969 276646.080000
    163    164     1   0.10969 276646.080000
    163    165     1   0.10969 276646.080000
    166    167     1   0.10969 276646.080000
    166    168     1   0.10969 276646.080000
    169    170     1   0.10969 276646.080000
    169    171     1   0.10969 276646.080000
    172    173     1   0.10969 276646.080000
    172    174     1   0.10969 276646.080000
    175    176     1   0.10969 276646.080000
    175    177     1   0.10969 276646.080000
    180    209     1   0.10304 312293.760000
    181    182     1   0.10910 283424.160000
    181    183     1   0.10910 283424.160000
    184    185     1   0.10910 283424.160000
    184    186     1   0.10910 283424.160000
    187    188     1   0.10910 283424.160000
    187    189     1   0.10910 283424.160000
    190    191     1   0.10969 276646.080000
    190    192     1   0.10969 276646.080000
    193    194     1   0.10969 276646.080000
    193    195     1   0.10969 276646.080000
    196    197     1   0.10969 276646.080000
    196    198     1   0.10969 276646.080000
    199    200     1   0.10969 276646.080000
    199    201     1   0.10969 276646.080000
    202    203     1   0.10969 276646.080000
    202    204     1   0.10969 276646.080000
    205    206     1   0.10969 276646.080000
    205    207     1   0.10969 276646.080000
    210    239     1   0.10304 312293.760000
    211    212     1   0.10910 283424.160000
    211    213     1   0.10910 283424.160000
    214    215     1   0.10910 283424.160000
    214    216     1   0.10910 283424.160000
    217    218     1   0.10910 283424.160000
    217    219     1   0.10910 283424.160000
    220    221     1   0.10969 276646.080000
    220    222     1   0.10969 276646.080000
    223    224     1   0.10969 276646.080000
    223    225     1   0.10969 276646.080000
    226    227     1   0.10969 276646.080000
    226    228     1   0.10969 276646.080000
    229    230     1   0.10969 276646.080000
    229    231     1   0.10969 276646.080000
    232    233     1   0.10969 276646.080000
    232    234     1   0.10969 276646.080000
    235    236     1   0.10969 276646.080000
    235    237     1   0.10969 276646.080000
    240    269     1   0.10304 312293.760000
    241    242     1   0.10910 283424.160000
    241    243     1   0.10910 283424.160000
    244    245     1   0.10910 283424.160000
    244    246     1   0.10910 283424.160000
    247    248     1   0.10910 283424.160000
    247    249     1   0.10910 283424.160000
    250    251     1   0.10969 276646.080000
    250    252     1   0.10969 276646.080000
    253    254     1   0.10969 276646.080000
    253    255     1   0.10969 276646.080000
    256    257     1   0.10969 276646.080000
    256    258     1   0.10969 276646.080000
    259    260     1   0.10969 276646.080000
    259    261     1   0.10969 276646.080000
    262    263     1   0.10969 276646.080000
    262    264     1   0.10969 276646.080000
    265    266     1   0.10969 276646.080000
    265    267     1   0.10969 276646.080000
    270    299     1   0.10304 312293.760000
    271    272     1   0.10910 283424.160000
    271    273     1   0.10910 283424.160000
    274    275     1   0.10910 283424.160000
    274    276     1   0.10910 283424.160000
    277    278     1   0.10910 283424.160000
    277    279     1   0.10910 283424.160000
    280    281     1   0.10969 276646.080000
    280    282     1   0.10969 276646.080000
    283    284     1   0.10969 276646.080000
    283    285     1   0.10969 276646.080000
    286    287     1   0.10969 276646.080000
    286    288     1   0.10969 276646.080000
    289    290     1   0.10969 276646.080000
    289    291     1   0.10969 276646.080000
    292    293     1   0.10969 276646.080000
    292    294     1   0.10969 276646.080000
    295    296     1   0.10969 276646.080000
    295    297     1   0.10969 276646.080000
    300    329     1   0.10304 312293.760000
    301    302     1   0.10910 283424.160000
    301    303     1   0.10910 283424.160000
    304    305     1   0.10910 283424.160000
    304    306     1   0.10910 283424.160000
    307    308     1   0.10910 283424.160000
    307    309     1   0.10910 283424.160000
    310    311     1   0.10969 276646.080000
    310    312     1   0.10969 276646.080000
    313    314     1   0.10969 276646.080000
    313    315     1   0.10969 276646.080000
    316    317     1   0.10969 276646.080000
    316    318     1   0.10969 276646.080000
    319    320     1   0.10969 276646.080000
    319    321     1   0.10969 276646.080000
    322    323     1   0.10969 276646.080000
    322    324     1   0.10969 276646.080000
    325    326     1   0.10969 276646.080000
    325    327     1   0.10969 276646.080000
    330    359     1   0.10304 312293.760000
    331    332     1   0.10910 283424.160000
    331    333     1   0.10910 283424.160000
    334    335     1   0.10910 283424.160000
    334    336     1   0.10910 283424.160000
    337    338     1   0.10910 283424.160000
    337    339     1   0.10910 283424.160000
    340    341     1   0.10969 276646.080000
    340    342     1   0.10969 276646.080000
    343    344     1   0.10969 276646.080000
    343    345     1   0.10969 276646.080000
    346    347     1   0.10969 276646.080000
    346    348     1   0.10969 276646.080000
    349    350     1   0.10969 276646.080000
    349    351     1   0.10969 276646.080000
    352    353     1   0.10969 276646.080000
    352    354     1   0.10969 276646.080000
    355    356     1   0.10969 276646.080000
    355    357     1   0.10969 276646.080000
    360    389     1   0.10304 312293.760000
    361    362     1   0.10910 283424.160000
    361    363     1   0.10910 283424.160000
    364    365     1   0.10910 283424.160000
    364    366     1   0.10910 283424.160000
    367    368     1   0.10910 283424.160000
    367    369     1   0.10910 283424.160000
    370    371     1   0.10969 276646.080000
    370    372     1   0.10969 276646.080000
    373    374     1   0.10969 276646.080000
    373    375     1   0.10969 276646.080000
    376    377     1   0.10969 276646.080000
    376    378     1   0.10969 276646.080000
    379    380     1   0.10969 276646.080000
    379    381     1   0.10969 276646.080000
    382    383     1   0.10969 276646.080000
    382    384     1   0.10969 276646.080000
    385    386     1   0.10969 276646.080000
    385    387     1   0.10969 276646.080000
    390    419     1   0.10304 312293.760000
    391    392     1   0.10910 283424.160000
    391    393     1   0.10910 283424.160000
    394    395     1   0.10910 283424.160000
    394    396     1   0.10910 283424.160000
    397    398     1   0.10910 283424.160000
    397    399     1   0.10910 283424.160000
    400    401     1   0.10969 276646.080000
    400    402     1   0.10969 276646.080000
    403    404     1   0.10969 276646.080000
    403    405     1   0.10969 276646.080000
    406    407     1   0.10969 276646.080000
    406    408     1   0.10969 276646.080000
    409    410     1   0.10969 276646.080000
    409    411     1   0.10969 276646.080000
    412    413     1   0.10969 276646.080000
    412    414     1   0.10969 276646.080000
    415    416     1   0.10969 276646.080000
    415    417     1   0.10969 276646.080000
    420    449     1   0.10304 312293.760000
    421    422     1   0.10910 283424.160000
    421    423     1   0.10910 283424.160000
    424    425     1   0.10910 283424.160000
    424    426     1   0.10910 283424.160000
    427    428     1   0.10910 283424.160000
    427    429     1   0.10910 283424.160000
    430    431     1   0.10969 276646.080000
    430    432     1   0.10969 276646.080000
    433    434     1   0.10969 276646.080000
    433    435     1   0.10969 276646.080000
    436    437     1   0.10969 276646.080000
    436    438     1   0.10969 276646.080000
    439    440     1   0.10969 276646.080000
    439    441     1   0.10969 276646.080000
    442    443     1   0.10969 276646.080000
    442    444     1   0.10969 276646.080000
    445    446     1   0.10969 276646.080000
    445    447     1   0.10969 276646.080000
    450    479     1   0.10304 312293.760000
    451    452     1   0.10910 283424.160000
    451    453     1   0.10910 283424.160000
    454    455     1   0.10910 283424.160000
    454    456     1   0.10910 283424.160000
    457    458     1   0.10910 283424.160000
    457    459     1   0.10910 283424.160000
    460    461     1   0.10969 276646.080000
    460    462     1   0.10969 276646.080000
    463    464     1   0.10969 276646.080000
    463    465     1   0.10969 276646.080000
    466    467     1   0.10969 276646.080000
    466    468     1   0.10969 276646.080000
    469    470     1   0.10969 276646.080000
    469    471     1   0.10969 276646.080000
    472    473     1   0.10969 276646.080000
    472    474     1   0.10969 276646.080000
    475    476     1   0.10969 276646.080000
    475    477     1   0.10969 276646.080000
    480    509     1   0.10304 312293.760000
    481    482     1   0.10910 283424.160000
    481    483     1   0.10910 283424.160000
    484    485     1   0.10910 283424.160000
    484    486     1   0.10910 283424.160000
    487    488     1   0.10910 283424.160000
    487    489     1   0.10910 283424.160000
    490    491     1   0.10969 276646.080000
    490    492     1   0.10969 276646.080000
    493    494     1   0.10969 276646.080000
    493    495     1   0.10969 276646.080000
    496    497     1   0.10969 276646.080000
    496    498     1   0.10969 276646.080000
    499    500     1   0.10969 276646.080000
    499    501     1   0.10969 276646.080000
    502    503     1   0.10969 276646.080000
    502    504     1   0.10969 276646.080000
    505    506     1   0.10969 276646.080000
    505    507     1   0.10969 276646.080000
    510    539     1   0.10304 312293.760000
    511    512     1   0.10910 283424.160000
    511    513     1   0.10910 283424.160000
    514    515     1   0.10910 283424.160000
    514    516     1   0.10910 283424.160000
    517    518     1   0.10910 283424.160000
    517    519     1   0.10910 283424.160000
    520    521     1   0.10969 276646.080000
    520    522     1   0.10969 276646.080000
    523    524     1   0.10969 276646.080000
    523    525     1   0.10969 276646.080000
    526    527     1   0.10969 276646.080000
    526    528     1   0.10969 276646.080000
    529    530     1   0.10969 276646.080000
    529    531     1   0.10969 276646.080000
    532    533     1   0.10969 276646.080000
    532    534     1   0.10969 276646.080000
    535    536     1   0.10969 276646.080000
    535    537     1   0.10969 276646.080000
    540    569     1   0.10304 312293.760000
    541    542     1   0.10910 283424.160000
    541    543     1   0.10910 283424.160000
    544    545     1   0.10910 283424.160000
    544    546     1   0.10910 283424.160000
    547    548     1   0.10910 283424.160000
    547    549     1   0.10910 283424.160000
    550    551     1   0.10969 276646.080000
    550    552     1   0.10969 276646.080000
    553    554     1   0.10969 276646.080000
    553    555     1   0.10969 276646.080000
    556    557     1   0.10969 276646.080000
    556    558     1   0.10969 276646.080000
    559    560     1   0.10969 276646.080000
    559    561     1   0.10969 276646.080000
    562    563     1   0.10969 276646.080000
    562    564     1   0.10969 276646.080000
    565    566     1   0.10969 276646.080000
    565    567     1   0.10969 276646.080000
    570    599     1   0.10304 312293.760000
    571    572     1   0.10910 283424.160000
    571    573     1   0.10910 283424.160000
    574    575     1   0.10910 283424.160000
    574    576     1   0.10910 283424.160000
    577    578     1   0.10910 283424.160000
    577    579     1   0.10910 283424.160000
    580    581     1   0.10969 276646.080000
    580    582     1   0.10969 276646.080000
    583    584     1   0.10969 276646.080000
    583    585     1   0.10969 276646.080000
    586    587     1   0.10969 276646.080000
    586    588     1   0.10969 276646.080000
    589    590     1   0.10969 276646.080000
    589    591     1   0.10969 276646.080000
    592    593     1   0.10969 276646.080000
    592    594     1   0.10969 276646.080000
    595    596     1   0.10969 276646.080000
    595    597     1   0.10969 276646.080000
    600    629     1   0.10304 312293.760000
    601    602     1   0.10910 283424.160000
    601    603     1   0.10910 283424.160000
    604    605     1   0.10910 283424.160000
    604    606     1   0.10910 283424.160000
    607    608     1   0.10910 283424.160000
    607    609     1   0.10910 283424.160000
    610    611     1   0.10969 276646.080000
    610    612     1   0.10969 276646.080000
    613    614     1   0.10969 276646.080000
    613    615     1   0.10969 276646.080000
    616    617     1   0.10969 276646.080000
    616    618     1   0.10969 276646.080000
    619    620     1   0.10969 276646.080000
    619    621     1   0.10969 276646.080000
    622    623     1   0.10969 276646.080000
    622    624     1   0.10969 276646.080000
    625    626     1   0.10969 276646.080000
    625    627     1   0.10969 276646.080000
    630    659     1   0.10304 312293.760000
    631    632     1   0.10910 283424.160000
    631    633     1   0.10910 283424.160000
    634    635     1   0.10910 283424.160000
    634    636     1   0.10910 283424.160000
    637    638     1   0.10910 283424.160000
    637    639     1   0.10910 283424.160000
    640    641     1   0.10969 276646.080000
    640    642     1   0.10969 276646.080000
    643    644     1   0.10969 276646.080000
    643    645     1   0.10969 276646.080000
    646    647     1   0.10969 276646.080000
    646    648     1   0.10969 276646.080000
    649    650     1   0.10969 276646.080000
    649    651     1   0.10969 276646.080000
    652    653     1   0.10969 276646.080000
    652    654     1   0.10969 276646.080000
    655    656     1   0.10969 276646.080000
    655    657     1   0.10969 276646.080000
    660    689     1   0.10304 312293.760000
    661    662     1   0.10910 283424.160000
    661    663     1   0.10910 283424.160000
    664    665     1   0.10910 283424.160000
    664    666     1   0.10910 283424.160000
    667    668     1   0.10910 283424.160000
    667    669     1   0.10910 283424.160000
    670    671     1   0.10969 276646.080000
    670    672     1   0.10969 276646.080000
    673    674     1   0.10969 276646.080000
    673    675     1   0.10969 276646.080000
    676    677     1   0.10969 276646.080000
    676    678     1   0.10969 276646.080000
    679    680     1   0.10969 276646.080000
    679    681     1   0.10969 276646.080000
    682    683     1   0.10969 276646.080000
    682    684     1   0.10969 276646.080000
    685    686     1   0.10969 276646.080000
    685    687     1   0.10969 276646.080000
    690    719     1   0.10304 312293.760000
    691    692     1   0.10910 283424.160000
    691    693     1   0.10910 283424.160000
    694    695     1   0.10910 283424.160000
    694    696     1   0.10910 283424.160000
    697    698     1   0.10910 283424.160000
    697    699     1   0.10910 283424.160000
    700    701     1   0.10969 276646.080000
    700    702     1   0.10969 276646.080000
    703    704     1   0.10969 276646.080000
    703    705     1   0.10969 276646.080000
    706    707     1   0.10969 276646.080000
    706    708     1   0.10969 276646.080000
    709    710     1   0.10969 276646.080000
    709    711     1   0.10969 276646.080000
    712    713     1   0.10969 276646.080000
    712    714     1   0.10969 276646.080000
    715    716     1   0.10969 276646.080000
    715    717     1   0.10969 276646.080000
    720    749     1   0.10304 312293.760000
    721    722     1   0.10910 283424.160000
    721    723     1   0.10910 283424.160000
    724    725     1   0.10910 283424.160000
    724    726     1   0.10910 283424.160000
    727    728     1   0.10910 283424.160000
    727    729     1   0.10910 283424.160000
    730    731     1   0.10969 276646.080000
    730    732     1   0.10969 276646.080000
    733    734     1   0.10969 276646.080000
    733    735     1   0.10969 276646.080000
    736    737     1   0.10969 276646.080000
    736    738     1   0.10969 276646.080000
    739    740     1   0.10969 276646.080000
    739    741     1   0.10969 276646.080000
    742    743     1   0.10969 276646.080000
    742    744     1   0.10969 276646.080000
    745    746     1   0.10969 276646.080000
    745    747     1   0.10969 276646.080000
    750    779     1   0.10304 312293.760000
    751    752     1   0.10910 283424.160000
    751    753     1   0.10910 283424.160000
    754    755     1   0.10910 283424.160000
    754    756     1   0.10910 283424.160000
    757    758     1   0.10910 283424.160000
    757    759     1   0.10910 283424.160000
    760    761     1   0.10969 276646.080000
    760    762     1   0.10969 276646.080000
    763    764     1   0.10969 276646.080000
    763    765     1   0.10969 276646.080000
    766    767     1   0.10969 276646.080000
    766    768     1   0.10969 276646.080000
    769    770     1   0.10969 276646.080000
    769    771     1   0.10969 276646.080000
    772    773     1   0.10969 276646.080000
    772    774     1   0.10969 276646.080000
    775    776     1   0.10969 276646.080000
    775    777     1   0.10969 276646.080000
    780    809     1   0.10304 312293.760000
    781    782     1   0.10910 283424.160000
    781    783     1   0.10910 283424.160000
    784    785     1   0.10910 283424.160000
    784    786     1   0.10910 283424.160000
    787    788     1   0.10910 283424.160000
    787    789     1   0.10910 283424.160000
    790    791     1   0.10969 276646.080000
    790    792     1   0.10969 276646.080000
    793    794     1   0.10969 276646.080000
    793    795     1   0.10969 276646.080000
    796    797     1   0.10969 276646.080000
    796    798     1   0.10969 276646.080000
    799    800     1   0.10969 276646.080000
    799    801     1   0.10969 276646.080000
    802    803     1   0.10969 276646.080000
    802    804     1   0.10969 276646.080000
    805    806     1   0.10969 276646.080000
    805    807     1   0.10969 276646.080000
    810    839     1   0.10304 312293.760000
    811    812     1   0.10910 283424.160000
    811    813     1   0.10910 283424.160000
    814    815     1   0.10910 283424.160000
    814    816     1   0.10910 283424.160000
    817    818     1   0.10910 283424.160000
    817    819     1   0.10910 283424.160000
    820    821     1   0.10969 276646.080000
    820    822     1   0.10969 276646.080000
    823    824     1   0.10969 276646.080000
    823    825     1   0.10969 276646.080000
    826    827     1   0.10969 276646.080000
    826    828     1   0.10969 276646.080000
    829    830     1   0.10969 276646.080000
    829    831     1   0.10969 276646.080000
    832    833     1   0.10969 276646.080000
    832    834     1   0.10969 276646.080000
    835    836     1   0.10969 276646.080000
    835    837     1   0.10969 276646.080000
    840    869     1   0.10304 312293.760000
    841    842     1   0.10910 283424.160000
    841    843     1   0.10910 283424.160000
    844    845     1   0.10910 283424.160000
    844    846     1   0.10910 283424.160000
    847    848     1   0.10910 283424.160000
    847    849     1   0.10910 283424.160000
    850    851     1   0.10969 276646.080000
    850    852     1   0.10969 276646.080000
    853    854     1   0.10969 276646.080000
    853    855     1   0.10969 276646.080000
    856    857     1   0.10969 276646.080000
    856    858     1   0.10969 276646.080000
    859    860     1   0.10969 276646.080000
    859    861     1   0.10969 276646.080000
    862    863     1   0.10969 276646.080000
    862    864     1   0.10969 276646.080000
    865    866     1   0.10969 276646.080000
    865    867     1   0.10969 276646.080000
    870    899     1   0.10304 312293.760000
    871    872     1   0.10910 283424.160000
    871    873     1   0.10910 283424.160000
    874    875     1   0.10910 283424.160000
    874    876     1   0.10910 283424.160000
    877    878     1   0.10910 283424.160000
    877    879     1   0.10910 283424.160000
    880    881     1   0.10969 276646.080000
    880    882     1   0.10969 276646.080000
    883    884     1   0.10969 276646.080000
    883    885     1   0.10969 276646.080000
    886    887     1   0.10969 276646.080000
    886    888     1   0.10969 276646.080000
    889    890     1   0.10969 276646.080000
    889    891     1   0.10969 276646.080000
    892    893     1   0.10969 276646.080000
    892    894     1   0.10969 276646.080000
    895    896     1   0.10969 276646.080000
    895    897     1   0.10969 276646.080000
    900    929     1   0.10304 312293.760000
    901    902     1   0.10910 283424.160000
    901    903     1   0.10910 283424.160000
    904    905     1   0.10910 283424.160000
    904    906     1   0.10910 283424.160000
    907    908     1   0.10910 283424.160000
    907    909     1   0.10910 283424.160000
    910    911     1   0.10969 276646.080000
    910    912     1   0.10969 276646.080000
    913    914     1   0.10969 276646.080000
    913    915     1   0.10969 276646.080000
    916    917     1   0.10969 276646.080000
    916    918     1   0.10969 276646.080000
    919    920     1   0.10969 276646.080000
    919    921     1   0.10969 276646.080000
    922    923     1   0.10969 276646.080000
    922    924     1   0.10969 276646.080000
    925    926     1   0.10969 276646.080000
    925    927     1   0.10969 276646.080000
    930    959     1   0.10304 312293.760000
    931    932     1   0.10910 283424.160000
    931    933     1   0.10910 283424.160000
    934    935     1   0.10910 283424.160000
    934    936     1   0.10910 283424.160000
    937    938     1   0.10910 283424.160000
    937    939     1   0.10910 283424.160000
    940    941     1   0.10969 276646.080000
    940    942     1   0.10969 276646.080000
    943    944     1   0.10969 276646.080000
    943    945     1   0.10969 276646.080000
    946    947     1   0.10969 276646.080000
    946    948     1   0.10969 276646.080000
    949    950     1   0.10969 276646.080000
    949    951     1   0.10969 276646.080000
    952    953     1   0.10969 276646.080000
    952    954     1   0.10969 276646.080000
    955    956     1   0.10969 276646.080000
    955    957     1   0.10969 276646.080000
    960    989     1   0.10304 312293.760000
    961    962     1   0.10910 283424.160000
    961    963     1   0.10910 283424.160000
    964    965     1   0.10910 283424.160000
    964    966     1   0.10910 283424.160000
    967    968     1   0.10910 283424.160000
    967    969     1   0.10910 283424.160000
    970    971     1   0.10969 276646.080000
    970    972     1   0.10969 276646.080000
    973    974     1   0.10969 276646.080000
    973    975     1   0.10969 276646.080000
    976    977     1   0.10969 276646.080000
    976    978     1   0.10969 276646.080000
    979    980     1   0.10969 276646.080000
    979    981     1   0.10969 276646.080000
    982    983     1   0.10969 276646.080000
    982    984     1   0.10969 276646.080000
    985    986     1   0.10969 276646.080000
    985    987     1   0.10969 276646.080000
    990   1019     1   0.10304 312293.760000
    991    992     1   0.10910 283424.160000
    991    993     1   0.10910 283424.160000
    994    995     1   0.10910 283424.160000
    994    996     1   0.10910 283424.160000
    997    998     1   0.10910 283424.160000
    997    999     1   0.10910 283424.160000
   1000   1001     1   0.10969 276646.080000
   1000   1002     1   0.10969 276646.080000
   1003   1004     1   0.10969 276646.080000
   1003   1005     1   0.10969 276646.080000
   1006   1007     1   0.10969 276646.080000
   1006   1008     1   0.10969 276646.080000
   1009   1010     1   0.10969 276646.080000
   1009   1011     1   0.10969 276646.080000
   1012   1013     1   0.10969 276646.080000
   1012   1014     1   0.10969 276646.080000
   1015   1016     1   0.10969 276646.080000
   1015   1017     1   0.10969 276646.080000
   1020   1049     1   0.10304 312293.760000
   1021   1022     1   0.10910 283424.160000
   1021   1023     1   0.10910 283424.160000
   1024   1025     1   0.10910 283424.160000
   1024   1026     1   0.10910 283424.160000
   1027   1028     1   0.10910 283424.160000
   1027   1029     1   0.10910 283424.160000
   1030   1031     1   0.10969 276646.080000
   1030   1032     1   0.10969 276646.080000
   1033   1034     1   0.10969 276646.080000
   1033   1035     1   0.10969 276646.080000
   1036   1037     1   0.10969 276646.080000
   1036   1038     1   0.10969 276646.080000
   1039   1040     1   0.10969 276646.080000
   1039   1041     1   0.10969 276646.080000
   1042   1043     1   0.10969 276646.080000
   1042   1044     1   0.10969 276646.080000
   1045   1046     1   0.10969 276646.080000
   1045   1047     1   0.10969 276646.080000
   1050   1079     1   0.10304 312293.760000
   1051   1052     1   0.10910 283424.160000
   1051   1053     1   0.10910 283424.160000
   1054   1055     1   0.10910 283424.160000
   1054   1056     1   0.10910 283424.160000
   1057   1058     1   0.10910 283424.160000
   1057   1059     1   0.10910 283424.160000
   1060   1061     1   0.10969 276646.080000
   1060   1062     1   0.10969 276646.080000
   1063   1064     1   0.10969 276646.080000
   1063   1065     1   0.10969 276646.080000
   1066   1067     1   0.10969 276646.080000
   1066   1068     1   0.10969 276646.080000
   1069   1070     1   0.10969 276646.080000
   1069   1071     1   0.10969 276646.080000
   1072   1073     1   0.10969 276646.080000
   1072   1074     1   0.10969 276646.080000
   1075   1076     1   0.10969 276646.080000
   1075   1077     1   0.10969 276646.080000
   1080   1109     1   0.10304 312293.760000
   1081   1082     1   0.10910 283424.160000
   1081   1083     1   0.10910 283424.160000
   1084   1085     1   0.10910 283424.160000
   1084   1086     1   0.10910 283424.160000
   1087   1088     1   0.10910 283424.160000
   1087   1089     1   0.10910 283424.160000
   1090   1091     1   0.10969 276646.080000
   1090   1092     1   0.10969 276646.080000
   1093   1094     1   0.10969 276646.080000
   1093   1095     1   0.10969 276646.080000
   1096   1097     1   0.10969 276646.080000
   1096   1098     1   0.10969 276646.080000
   1099   1100     1   0.10969 276646.080000
   1099   1101     1   0.10969 276646.080000
   1102   1103     1   0.10969 276646.080000
   1102   1104     1   0.10969 276646.080000
   1105   1106     1   0.10969 276646.080000
   1105   1107     1   0.10969 276646.080000
   1110   1139     1   0.10304 312293.760000
   1111   1112     1   0.10910 283424.160000
   1111   1113     1   0.10910 283424.160000
   1114   1115     1   0.10910 283424.160000
   1114   1116     1   0.10910 283424.160000
   1117   1118     1   0.10910 283424.160000
   1117   1119     1   0.10910 283424.160000
   1120   1121     1   0.10969 276646.080000
   1120   1122     1   0.10969 276646.080000
   1123   1124     1   0.10969 276646.080000
   1123   1125     1   0.10969 276646.080000
   1126   1127     1   0.10969 276646.080000
   1126   1128     1   0.10969 276646.080000
   1129   1130     1   0.10969 276646.080000
   1129   1131     1   0.10969 276646.080000
   1132   1133     1   0.10969 276646.080000
   1132   1134     1   0.10969 276646.080000
   1135   1136     1   0.10969 276646.080000
   1135   1137     1   0.10969 276646.080000
   1140   1169     1   0.10304 312293.760000
   1141   1142     1   0.10910 283424.160000
   1141   1143     1   0.10910 283424.160000
   1144   1145     1   0.10910 283424.160000
   1144   1146     1   0.10910 283424.160000
   1147   1148     1   0.10910 283424.160000
   1147   1149     1   0.10910 283424.160000
   1150   1151     1   0.10969 276646.080000
   1150   1152     1   0.10969 276646.080000
   1153   1154     1   0.10969 276646.080000
   1153   1155     1   0.10969 276646.080000
   1156   1157     1   0.10969 276646.080000
   1156   1158     1   0.10969 276646.080000
   1159   1160     1   0.10969 276646.080000
   1159   1161     1   0.10969 276646.080000
   1162   1163     1   0.10969 276646.080000
   1162   1164     1   0.10969 276646.080000
   1165   1166     1   0.10969 276646.080000
   1165   1167     1   0.10969 276646.080000
   1170   1199     1   0.10304 312293.760000
   1171   1172     1   0.10910 283424.160000
   1171   1173     1   0.10910 283424.160000
   1174   1175     1   0.10910 283424.160000
   1174   1176     1   0.10910 283424.160000
   1177   1178     1   0.10910 283424.160000
   1177   1179     1   0.10910 283424.160000
   1180   1181     1   0.10969 276646.080000
   1180   1182     1   0.10969 276646.080000
   1183   1184     1   0.10969 276646.080000
   1183   1185     1   0.10969 276646.080000
   1186   1187     1   0.10969 276646.080000
   1186   1188     1   0.10969 276646.080000
   1189   1190     1   0.10969 276646.080000
   1189   1191     1   0.10969 276646.080000
   1192   1193     1   0.10969 276646.080000
   1192   1194     1   0.10969 276646.080000
   1195   1196     1   0.10969 276646.080000
   1195   1197     1   0.10969 276646.080000
   1200   1229     1   0.10304 312293.760000
   1201   1202     1   0.10910 283424.160000
   1201   1203     1   0.10910 283424.160000
   1204   1205     1   0.10910 283424.160000
   1204   1206     1   0.10910 283424.160000
   1207   1208     1   0.10910 283424.160000
   1207   1209     1   0.10910 283424.160000
   1210   1211     1   0.10969 276646.080000
   1210   1212     1   0.10969 276646.080000
   1213   1214     1   0.10969 276646.080000
   1213   1215     1   0.10969 276646.080000
   1216   1217     1   0.10969 276646.080000
   1216   1218     1   0.10969 276646.080000
   1219   1220     1   0.10969 276646.080000
   1219   1221     1   0.10969 276646.080000
   1222   1223     1   0.10969 276646.080000
   1222   1224     1   0.10969 276646.080000
   1225   1226     1   0.10969 276646.080000
   1225   1227     1   0.10969 276646.080000
   1230   1259     1   0.10304 312293.760000
   1231   1232     1   0.10910 283424.160000
   1231   1233     1   0.10910 283424.160000
   1234   1235     1   0.10910 283424.160000
   1234   1236     1   0.10910 283424.160000
   1237   1238     1   0.10910 283424.160000
   1237   1239     1   0.10910 283424.160000
   1240   1241     1   0.10969 276646.080000
   1240   1242     1   0.10969 276646.080000
   1243   1244     1   0.10969 276646.080000
   1243   1245     1   0.10969 276646.080000
   1246   1247     1   0.10969 276646.080000
   1246   1248     1   0.10969 276646.080000
   1249   1250     1   0.10969 276646.080000
   1249   1251     1   0.10969 276646.080000
   1252   1253     1   0.10969 276646.080000
   1252   1254     1   0.10969 276646.080000
   1255   1256     1   0.10969 276646.080000
   1255   1257     1   0.10969 276646.080000
   1260   1289     1   0.10304 312293.760000
   1261   1262     1   0.10910 283424.160000
   1261   1263     1   0.10910 283424.160000
   1264   1265     1   0.10910 283424.160000
   1264   1266     1   0.10910 283424.160000
   1267   1268     1   0.10910 283424.160000
   1267   1269     1   0.10910 283424.160000
   1270   1271     1   0.10969 276646.080000
   1270   1272     1   0.10969 276646.080000
   1273   1274     1   0.10969 276646.080000
   1273   1275     1   0.10969 276646.080000
   1276   1277     1   0.10969 276646.080000
   1276   1278     1   0.10969 276646.080000
   1279   1280     1   0.10969 276646.080000
   1279   1281     1   0.10969 276646.080000
   1282   1283     1   0.10969 276646.080000
   1282   1284     1   0.10969 276646.080000
   1285   1286     1   0.10969 276646.080000
   1285   1287     1   0.10969 276646.080000
   1290   1319     1   0.10304 312293.760000
   1291   1292     1   0.10910 283424.160000
   1291   1293     1   0.10910 283424.160000
   1294   1295     1   0.10910 283424.160000
   1294   1296     1   0.10910 283424.160000
   1297   1298     1   0.10910 283424.160000
   1297   1299     1   0.10910 283424.160000
   1300   1301     1   0.10969 276646.080000
   1300   1302     1   0.10969 276646.080000
   1303   1304     1   0.10969 276646.080000
   1303   1305     1   0.10969 276646.080000
   1306   1307     1   0.10969 276646.080000
   1306   1308     1   0.10969 276646.080000
   1309   1310     1   0.10969 276646.080000
   1309   1311     1   0.10969 276646.080000
   1312   1313     1   0.10969 276646.080000
   1312   1314     1   0.10969 276646.080000
   1315   1316     1   0.10969 276646.080000
   1315   1317     1   0.10969 276646.080000
   1320   1349     1   0.10304 312293.760000
   1321   1322     1   0.10910 283424.160000
   1321   1323     1   0.10910 283424.160000
   1324   1325     1   0.10910 283424.160000
   1324   1326     1   0.10910 283424.160000
   1327   1328     1   0.10910 283424.160000
   1327   1329     1   0.10910 283424.160000
   1330   1331     1   0.10969 276646.080000
   1330   1332     1   0.10969 276646.080000
   1333   1334     1   0.10969 276646.080000
   1333   1335     1   0.10969 276646.080000
   1336   1337     1   0.10969 276646.080000
   1336   1338     1   0.10969 276646.080000
   1339   1340     1   0.10969 276646.080000
   1339   1341     1   0.10969 276646.080000
   1342   1343     1   0.10969 276646.080000
   1342   1344     1   0.10969 276646.080000
   1345   1346     1   0.10969 276646.080000
   1345   1347     1   0.10969 276646.080000
   1350   1379     1   0.10304 312293.760000
   1351   1352     1   0.10910 283424.160000
   1351   1353     1   0.10910 283424.160000
   1354   1355     1   0.10910 283424.160000
   1354   1356     1   0.10910 283424.160000
   1357   1358     1   0.10910 283424.160000
   1357   1359     1   0.10910 283424.160000
   1360   1361     1   0.10969 276646.080000
   1360   1362     1   0.10969 276646.080000
   1363   1364     1   0.10969 276646.080000
   1363   1365     1   0.10969 276646.080000
   1366   1367     1   0.10969 276646.080000
   1366   1368     1   0.10969 276646.080000
   1369   1370     1   0.10969 276646.080000
   1369   1371     1   0.10969 276646.080000
   1372   1373     1   0.10969 276646.080000
   1372   1374     1   0.10969 276646.080000
   1375   1376     1   0.10969 276646.080000
   1375   1377     1   0.10969 276646.080000
   1380   1409     1   0.10304 312293.760000
   1381   1382     1   0.10910 283424.160000
   1381   1383     1   0.10910 283424.160000
   1384   1385     1   0.10910 283424.160000
   1384   1386     1   0.10910 283424.160000
   1387   1388     1   0.10910 283424.160000
   1387   1389     1   0.10910 283424.160000
   1390   1391     1   0.10969 276646.080000
   1390   1392     1   0.10969 276646.080000
   1393   1394     1   0.10969 276646.080000
   1393   1395     1   0.10969 276646.080000
   1396   1397     1   0.10969 276646.080000
   1396   1398     1   0.10969 276646.080000
   1399   1400     1   0.10969 276646.080000
   1399   1401     1   0.10969 276646.080000
   1402   1403     1   0.10969 276646.080000
   1402   1404     1   0.10969 276646.080000
   1405   1406     1   0.10969 276646.080000
   1405   1407     1   0.10969 276646.080000
   1410   1439     1   0.10304 312293.760000
   1411   1412     1   0.10910 283424.160000
   1411   1413     1   0.10910 283424.160000
   1414   1415     1   0.10910 283424.160000
   1414   1416     1   0.10910 283424.160000
   1417   1418     1   0.10910 283424.160000
   1417   1419     1   0.10910 283424.160000
   1420   1421     1   0.10969 276646.080000
   1420   1422     1   0.10969 276646.080000
   1423   1424     1   0.10969 276646.080000
   1423   1425     1   0.10969 276646.080000
   1426   1427     1   0.10969 276646.080000
   1426   1428     1   0.10969 276646.080000
   1429   1430     1   0.10969 276646.080000
   1429   1431     1   0.10969 276646.080000
   1432   1433     1   0.10969 276646.080000
   1432   1434     1   0.10969 276646.080000
   1435   1436     1   0.10969 276646.080000
   1435   1437     1   0.10969 276646.080000
   1440   1469     1   0.10304 312293.760000
   1441   1442     1   0.10910 283424.160000
   1441   1443     1   0.10910 283424.160000
   1444   1445     1   0.10910 283424.160000
   1444   1446     1   0.10910 283424.160000
   1447   1448     1   0.10910 283424.160000
   1447   1449     1   0.10910 283424.160000
   1450   1451     1   0.10969 276646.080000
   1450   1452     1   0.10969 276646.080000
   1453   1454     1   0.10969 276646.080000
   1453   1455     1   0.10969 276646.080000
   1456   1457     1   0.10969 276646.080000
   1456   1458     1   0.10969 276646.080000
   1459   1460     1   0.10969 276646.080000
   1459   1461     1   0.10969 276646.080000
   1462   1463     1   0.10969 276646.080000
   1462   1464     1   0.10969 276646.080000
   1465   1466     1   0.10969 276646.080000
   1465   1467     1   0.10969 276646.080000
   1470   1499     1   0.10304 312293.760000
   1471   1472     1   0.10910 283424.160000
   1471   1473     1   0.10910 283424.160000
   1474   1475     1   0.10910 283424.160000
   1474   1476     1   0.10910 283424.160000
   1477   1478     1   0.10910 283424.160000
   1477   1479     1   0.10910 283424.160000
   1480   1481     1   0.10969 276646.080000
   1480   1482     1   0.10969 276646.080000
   1483   1484     1   0.10969 276646.080000
   1483   1485     1   0.10969 276646.080000
   1486   1487     1   0.10969 276646.080000
   1486   1488     1   0.10969 276646.080000
   1489   1490     1   0.10969 276646.080000
   1489   1491     1   0.10969 276646.080000
   1492   1493     1   0.10969 276646.080000
   1492   1494     1   0.10969 276646.080000
   1495   1496     1   0.10969 276646.080000
   1495   1497     1   0.10969 276646.080000
   1500   1529     1   0.10304 312293.760000
   1501   1502     1   0.10910 283424.160000
   1501   1503     1   0.10910 283424.160000
   1504   1505     1   0.10910 283424.160000
   1504   1506     1   0.10910 283424.160000
   1507   1508     1   0.10910 283424.160000
   1507   1509     1   0.10910 283424.160000
   1510   1511     1   0.10969 276646.080000
   1510   1512     1   0.10969 276646.080000
   1513   1514     1   0.10969 276646.080000
   1513   1515     1   0.10969 276646.080000
   1516   1517     1   0.10969 276646.080000
   1516   1518     1   0.10969 276646.080000
   1519   1520     1   0.10969 276646.080000
   1519   1521     1   0.10969 276646.080000
   1522   1523     1   0.10969 276646.080000
   1522   1524     1   0.10969 276646.080000
   1525   1526     1   0.10969 276646.080000
   1525   1527     1   0.10969 276646.080000
   1530   1559     1   0.10304 312293.760000
   1531   1532     1   0.10910 283424.160000
   1531   1533     1   0.10910 283424.160000
   1534   1535     1   0.10910 283424.160000
   1534   1536     1   0.10910 283424.160000
   1537   1538     1   0.10910 283424.160000
   1537   1539     1   0.10910 283424.160000
   1540   1541     1   0.10969 276646.080000
   1540   1542     1   0.10969 276646.080000
   1543   1544     1   0.10969 276646.080000
   1543   1545     1   0.10969 276646.080000
   1546   1547     1   0.10969 276646.080000
   1546   1548     1   0.10969 276646.080000
   1549   1550     1   0.10969 276646.080000
   1549   1551     1   0.10969 276646.080000
   1552   1553     1   0.10969 276646.080000
   1552   1554     1   0.10969 276646.080000
   1555   1556     1   0.10969 276646.080000
   1555   1557     1   0.10969 276646.080000
   1560   1589     1   0.10304 312293.760000
   1561   1562     1   0.10910 283424.160000
   1561   1563     1   0.10910 283424.160000
   1564   1565     1   0.10910 283424.160000
   1564   1566     1   0.10910 283424.160000
   1567   1568     1   0.10910 283424.160000
   1567   1569     1   0.10910 283424.160000
   1570   1571     1   0.10969 276646.080000
   1570   1572     1   0.10969 276646.080000
   1573   1574     1   0.10969 276646.080000
   1573   1575     1   0.10969 276646.080000
   1576   1577     1   0.10969 276646.080000
   1576   1578     1   0.10969 276646.080000
   1579   1580     1   0.10969 276646.080000
   1579   1581     1   0.10969 276646.080000
   1582   1583     1   0.10969 276646.080000
   1582   1584     1   0.10969 276646.080000
   1585   1586     1   0.10969 276646.080000
   1585   1587     1   0.10969 276646.080000
   1590   1619     1   0.10304 312293.760000
   1591   1592     1   0.10910 283424.160000
   1591   1593     1   0.10910 283424.160000
   1594   1595     1   0.10910 283424.160000
   1594   1596     1   0.10910 283424.160000
   1597   1598     1   0.10910 283424.160000
   1597   1599     1   0.10910 283424.160000
   1600   1601     1   0.10969 276646.080000
   1600   1602     1   0.10969 276646.080000
   1603   1604     1   0.10969 276646.080000
   1603   1605     1   0.10969 276646.080000
   1606   1607     1   0.10969 276646.080000
   1606   1608     1   0.10969 276646.080000
   1609   1610     1   0.10969 276646.080000
   1609   1611     1   0.10969 276646.080000
   1612   1613     1   0.10969 276646.080000
   1612   1614     1   0.10969 276646.080000
   1615   1616     1   0.10969 276646.080000
   1615   1617     1   0.10969 276646.080000
   1620   1649     1   0.10304 312293.760000
   1621   1622     1   0.10910 283424.160000
   1621   1623     1   0.10910 283424.160000
   1624   1625     1   0.10910 283424.160000
   1624   1626     1   0.10910 283424.160000
   1627   1628     1   0.10910 283424.160000
   1627   1629     1   0.10910 283424.160000
   1630   1631     1   0.10969 276646.080000
   1630   1632     1   0.10969 276646.080000
   1633   1634     1   0.10969 276646.080000
   1633   1635     1   0.10969 276646.080000
   1636   1637     1   0.10969 276646.080000
   1636   1638     1   0.10969 276646.080000
   1639   1640     1   0.10969 276646.080000
   1639   1641     1   0.10969 276646.080000
   1642   1643     1   0.10969 276646.080000
   1642   1644     1   0.10969 276646.080000
   1645   1646     1   0.10969 276646.080000
   1645   1647     1   0.10969 276646.080000
   1650   1679     1   0.10304 312293.760000
   1651   1652     1   0.10910 283424.160000
   1651   1653     1   0.10910 283424.160000
   1654   1655     1   0.10910 283424.160000
   1654   1656     1   0.10910 283424.160000
   1657   1658     1   0.10910 283424.160000
   1657   1659     1   0.10910 283424.160000
   1660   1661     1   0.10969 276646.080000
   1660   1662     1   0.10969 276646.080000
   1663   1664     1   0.10969 276646.080000
   1663   1665     1   0.10969 276646.080000
   1666   1667     1   0.10969 276646.080000
   1666   1668     1   0.10969 276646.080000
   1669   1670     1   0.10969 276646.080000
   1669   1671     1   0.10969 276646.080000
   1672   1673     1   0.10969 276646.080000
   1672   1674     1   0.10969 276646.080000
   1675   1676     1   0.10969 276646.080000
   1675   1677     1   0.10969 276646.080000
   1680   1709     1   0.10304 312293.760000
   1681   1682     1   0.10910 283424.160000
   1681   1683     1   0.10910 283424.160000
   1684   1685     1   0.10910 283424.160000
   1684   1686     1   0.10910 283424.160000
   1687   1688     1   0.10910 283424.160000
   1687   1689     1   0.10910 283424.160000
   1690   1691     1   0.10969 276646.080000
   1690   1692     1   0.10969 276646.080000
   1693   1694     1   0.10969 276646.080000
   1693   1695     1   0.10969 276646.080000
   1696   1697     1   0.10969 276646.080000
   1696   1698     1   0.10969 276646.080000
   1699   1700     1   0.10969 276646.080000
   1699   1701     1   0.10969 276646.080000
   1702   1703     1   0.10969 276646.080000
   1702   1704     1   0.10969 276646.080000
   1705   1706     1   0.10969 276646.080000
   1705   1707     1   0.10969 276646.080000
   1710   1739     1   0.10304 312293.760000
   1711   1712     1   0.10910 283424.160000
   1711   1713     1   0.10910 283424.160000
   1714   1715     1   0.10910 283424.160000
   1714   1716     1   0.10910 283424.160000
   1717   1718     1   0.10910 283424.160000
   1717   1719     1   0.10910 283424.160000
   1720   1721     1   0.10969 276646.080000
   1720   1722     1   0.10969 276646.080000
   1723   1724     1   0.10969 276646.080000
   1723   1725     1   0.10969 276646.080000
   1726   1727     1   0.10969 276646.080000
   1726   1728     1   0.10969 276646.080000
   1729   1730     1   0.10969 276646.080000
   1729   1731     1   0.10969 276646.080000
   1732   1733     1   0.10969 276646.080000
   1732   1734     1   0.10969 276646.080000
   1735   1736     1   0.10969 276646.080000
   1735   1737     1   0.10969 276646.080000
   1740   1769     1   0.10304 312293.760000
   1741   1742     1   0.10910 283424.160000
   1741   1743     1   0.10910 283424.160000
   1744   1745     1   0.10910 283424.160000
   1744   1746     1   0.10910 283424.160000
   1747   1748     1   0.10910 283424.160000
   1747   1749     1   0.10910 283424.160000
   1750   1751     1   0.10969 276646.080000
   1750   1752     1   0.10969 276646.080000
   1753   1754     1   0.10969 276646.080000
   1753   1755     1   0.10969 276646.080000
   1756   1757     1   0.10969 276646.080000
   1756   1758     1   0.10969 276646.080000
   1759   1760     1   0.10969 276646.080000
   1759   1761     1   0.10969 276646.080000
   1762   1763     1   0.10969 276646.080000
   1762   1764     1   0.10969 276646.080000
   1765   1766     1   0.10969 276646.080000
   1765   1767     1   0.10969 276646.080000
   1770   1799     1   0.10304 312293.760000
   1771   1772     1   0.10910 283424.160000
   1771   1773     1   0.10910 283424.160000
   1774   1775     1   0.10910 283424.160000
   1774   1776     1   0.10910 283424.160000
   1777   1778     1   0.10910 283424.160000
   1777   1779     1   0.10910 283424.160000
   1780   1781     1   0.10969 276646.080000
   1780   1782     1   0.10969 276646.080000
   1783   1784     1   0.10969 276646.080000
   1783   1785     1   0.10969 276646.080000
   1786   1787     1   0.10969 276646.080000
   1786   1788     1   0.10969 276646.080000
   1789   1790     1   0.10969 276646.080000
   1789   1791     1   0.10969 276646.080000
   1792   1793     1   0.10969 276646.080000
   1792   1794     1   0.10969 276646.080000
   1795   1796     1   0.10969 276646.080000
   1795   1797     1   0.10969 276646.080000
   1800   1829     1   0.10304 312293.760000
   1801   1802     1   0.10910 283424.160000
   1801   1803     1   0.10910 283424.160000
   1804   1805     1   0.10910 283424.160000
   1804   1806     1   0.10910 283424.160000
   1807   1808     1   0.10910 283424.160000
   1807   1809     1   0.10910 283424.160000
   1810   1811     1   0.10969 276646.080000
   1810   1812     1   0.10969 276646.080000
   1813   1814     1   0.10969 276646.080000
   1813   1815     1   0.10969 276646.080000
   1816   1817     1   0.10969 276646.080000
   1816   1818     1   0.10969 276646.080000
   1819   1820     1   0.10969 276646.080000
   1819   1821     1   0.10969 276646.080000
   1822   1823     1   0.10969 276646.080000
   1822   1824     1   0.10969 276646.080000
   1825   1826     1   0.10969 276646.080000
   1825   1827     1   0.10969 276646.080000
   1830   1859     1   0.10304 312293.760000
   1831   1832     1   0.10910 283424.160000
   1831   1833     1   0.10910 283424.160000
   1834   1835     1   0.10910 283424.160000
   1834   1836     1   0.10910 283424.160000
   1837   1838     1   0.10910 283424.160000
   1837   1839     1   0.10910 283424.160000
   1840   1841     1   0.10969 276646.080000
   1840   1842     1   0.10969 276646.080000
   1843   1844     1   0.10969 276646.080000
   1843   1845     1   0.10969 276646.080000
   1846   1847     1   0.10969 276646.080000
   1846   1848     1   0.10969 276646.080000
   1849   1850     1   0.10969 276646.080000
   1849   1851     1   0.10969 276646.080000
   1852   1853     1   0.10969 276646.080000
   1852   1854     1   0.10969 276646.080000
   1855   1856     1   0.10969 276646.080000
   1855   1857     1   0.10969 276646.080000
   1860   1889     1   0.10304 312293.760000
   1861   1862     1   0.10910 283424.160000
   1861   1863     1   0.10910 283424.160000
   1864   1865     1   0.10910 283424.160000
   1864   1866     1   0.10910 283424.160000
   1867   1868     1   0.10910 283424.160000
   1867   1869     1   0.10910 283424.160000
   1870   1871     1   0.10969 276646.080000
   1870   1872     1   0.10969 276646.080000
   1873   1874     1   0.10969 276646.080000
   1873   1875     1   0.10969 276646.080000
   1876   1877     1   0.10969 276646.080000
   1876   1878     1   0.10969 276646.080000
   1879   1880     1   0.10969 276646.080000
   1879   1881     1   0.10969 276646.080000
   1882   1883     1   0.10969 276646.080000
   1882   1884     1   0.10969 276646.080000
   1885   1886     1   0.10969 276646.080000
   1885   1887     1   0.10969 276646.080000
   1890   1919     1   0.10304 312293.760000
   1891   1892     1   0.10910 283424.160000
   1891   1893     1   0.10910 283424.160000
   1894   1895     1   0.10910 283424.160000
   1894   1896     1   0.10910 283424.160000
   1897   1898     1   0.10910 283424.160000
   1897   1899     1   0.10910 283424.160000
   1900   1901     1   0.10969 276646.080000
   1900   1902     1   0.10969 276646.080000
   1903   1904     1   0.10969 276646.080000
   1903   1905     1   0.10969 276646.080000
   1906   1907     1   0.10969 276646.080000
   1906   1908     1   0.10969 276646.080000
   1909   1910     1   0.10969 276646.080000
   1909   1911     1   0.10969 276646.080000
   1912   1913     1   0.10969 276646.080000
   1912   1914     1   0.10969 276646.080000
   1915   1916     1   0.10969 276646.080000
   1915   1917     1   0.10969 276646.080000
   1920   1949     1   0.10304 312293.760000
   1921   1922     1   0.10910 283424.160000
   1921   1923     1   0.10910 283424.160000
   1924   1925     1   0.10910 283424.160000
   1924   1926     1   0.10910 283424.160000
   1927   1928     1   0.10910 283424.160000
   1927   1929     1   0.10910 283424.160000
   1930   1931     1   0.10969 276646.080000
   1930   1932     1   0.10969 276646.080000
   1933   1934     1   0.10969 276646.080000
   1933   1935     1   0.10969 276646.080000
   1936   1937     1   0.10969 276646.080000
   1936   1938     1   0.10969 276646.080000
   1939   1940     1   0.10969 276646.080000
   1939   1941     1   0.10969 276646.080000
   1942   1943     1   0.10969 276646.080000
   1942   1944     1   0.10969 276646.080000
   1945   1946     1   0.10969 276646.080000
   1945   1947     1   0.10969 276646.080000
   1950   1979     1   0.10304 312293.760000
   1951   1952     1   0.10910 283424.160000
   1951   1953     1   0.10910 283424.160000
   1954   1955     1   0.10910 283424.160000
   1954   1956     1   0.10910 283424.160000
   1957   1958     1   0.10910 283424.160000
   1957   1959     1   0.10910 283424.160000
   1960   1961     1   0.10969 276646.080000
   1960   1962     1   0.10969 276646.080000
   1963   1964     1   0.10969 276646.080000
   1963   1965     1   0.10969 276646.080000
   1966   1967     1   0.10969 276646.080000
   1966   1968     1   0.10969 276646.080000
   1969   1970     1   0.10969 276646.080000
   1969   1971     1   0.10969 276646.080000
   1972   1973     1   0.10969 276646.080000
   1972   1974     1   0.10969 276646.080000
   1975   1976     1   0.10969 276646.080000
   1975   1977     1   0.10969 276646.080000
   1980   2009     1   0.10304 312293.760000
   1981   1982     1   0.10910 283424.160000
   1981   1983     1   0.10910 283424.160000
   1984   1985     1   0.10910 283424.160000
   1984   1986     1   0.10910 283424.160000
   1987   1988     1   0.10910 283424.160000
   1987   1989     1   0.10910 283424.160000
   1990   1991     1   0.10969 276646.080000
   1990   1992     1   0.10969 276646.080000
   1993   1994     1   0.10969 276646.080000
   1993   1995     1   0.10969 276646.080000
   1996   1997     1   0.10969 276646.080000
   1996   1998     1   0.10969 276646.080000
   1999   2000     1   0.10969 276646.080000
   1999   2001     1   0.10969 276646.080000
   2002   2003     1   0.10969 276646.080000
   2002   2004     1   0.10969 276646.080000
   2005   2006     1   0.10969 276646.080000
   2005   2007     1   0.10969 276646.080000
   2010   2039     1   0.10304 312293.760000
   2011   2012     1   0.10910 283424.160000
   2011   2013     1   0.10910 283424.160000
   2014   2015     1   0.10910 283424.160000
   2014   2016     1   0.10910 283424.160000
   2017   2018     1   0.10910 283424.160000
   2017   2019     1   0.10910 283424.160000
   2020   2021     1   0.10969 276646.080000
   2020   2022     1   0.10969 276646.080000
   2023   2024     1   0.10969 276646.080000
   2023   2025     1   0.10969 276646.080000
   2026   2027     1   0.10969 276646.080000
   2026   2028     1   0.10969 276646.080000
   2029   2030     1   0.10969 276646.080000
   2029   2031     1   0.10969 276646.080000
   2032   2033     1   0.10969 276646.080000
   2032   2034     1   0.10969 276646.080000
   2035   2036     1   0.10969 276646.080000
   2035   2037     1   0.10969 276646.080000
   2040   2069     1   0.10304 312293.760000
   2041   2042     1   0.10910 283424.160000
   2041   2043     1   0.10910 283424.160000
   2044   2045     1   0.10910 283424.160000
   2044   2046     1   0.10910 283424.160000
   2047   2048     1   0.10910 283424.160000
   2047   2049     1   0.10910 283424.160000
   2050   2051     1   0.10969 276646.080000
   2050   2052     1   0.10969 276646.080000
   2053   2054     1   0.10969 276646.080000
   2053   2055     1   0.10969 276646.080000
   2056   2057     1   0.10969 276646.080000
   2056   2058     1   0.10969 276646.080000
   2059   2060     1   0.10969 276646.080000
   2059   2061     1   0.10969 276646.080000
   2062   2063     1   0.10969 276646.080000
   2062   2064     1   0.10969 276646.080000
   2065   2066     1   0.10969 276646.080000
   2065   2067     1   0.10969 276646.080000
   2070   2099     1   0.10304 312293.760000
   2071   2072     1   0.10910 283424.160000
   2071   2073     1   0.10910 283424.160000
   2074   2075     1   0.10910 283424.160000
   2074   2076     1   0.10910 283424.160000
   2077   2078     1   0.10910 283424.160000
   2077   2079     1   0.10910 283424.160000
   2080   2081     1   0.10969 276646.080000
   2080   2082     1   0.10969 276646.080000
   2083   2084     1   0.10969 276646.080000
   2083   2085     1   0.10969 276646.080000
   2086   2087     1   0.10969 276646.080000
   2086   2088     1   0.10969 276646.080000
   2089   2090     1   0.10969 276646.080000
   2089   2091     1   0.10969 276646.080000
   2092   2093     1   0.10969 276646.080000
   2092   2094     1   0.10969 276646.080000
   2095   2096     1   0.10969 276646.080000
   2095   2097     1   0.10969 276646.080000
   2100   2129     1   0.10304 312293.760000
   2101   2102     1   0.10910 283424.160000
   2101   2103     1   0.10910 283424.160000
   2104   2105     1   0.10910 283424.160000
   2104   2106     1   0.10910 283424.160000
   2107   2108     1   0.10910 283424.160000
   2107   2109     1   0.10910 283424.160000
   2110   2111     1   0.10969 276646.080000
   2110   2112     1   0.10969 276646.080000
   2113   2114     1   0.10969 276646.080000
   2113   2115     1   0.10969 276646.080000
   2116   2117     1   0.10969 276646.080000
   2116   2118     1   0.10969 276646.080000
   2119   2120     1   0.10969 276646.080000
   2119   2121     1   0.10969 276646.080000
   2122   2123     1   0.10969 276646.080000
   2122   2124     1   0.10969 276646.080000
   2125   2126     1   0.10969 276646.080000
   2125   2127     1   0.10969 276646.080000
   2130   2159     1   0.10304 312293.760000
   2131   2132     1   0.10910 283424.160000
   2131   2133     1   0.10910 283424.160000
   2134   2135     1   0.10910 283424.160000
   2134   2136     1   0.10910 283424.160000
   2137   2138     1   0.10910 283424.160000
   2137   2139     1   0.10910 283424.160000
   2140   2141     1   0.10969 276646.080000
   2140   2142     1   0.10969 276646.080000
   2143   2144     1   0.10969 276646.080000
   2143   2145     1   0.10969 276646.080000
   2146   2147     1   0.10969 276646.080000
   2146   2148     1   0.10969 276646.080000
   2149   2150     1   0.10969 276646.080000
   2149   2151     1   0.10969 276646.080000
   2152   2153     1   0.10969 276646.080000
   2152   2154     1   0.10969 276646.080000
   2155   2156     1   0.10969 276646.080000
   2155   2157     1   0.10969 276646.080000
   2160   2189     1   0.10304 312293.760000
   2161   2162     1   0.10910 283424.160000
   2161   2163     1   0.10910 283424.160000
   2164   2165     1   0.10910 283424.160000
   2164   2166     1   0.10910 283424.160000
   2167   2168     1   0.10910 283424.160000
   2167   2169     1   0.10910 283424.160000
   2170   2171     1   0.10969 276646.080000
   2170   2172     1   0.10969 276646.080000
   2173   2174     1   0.10969 276646.080000
   2173   2175     1   0.10969 276646.080000
   2176   2177     1   0.10969 276646.080000
   2176   2178     1   0.10969 276646.080000
   2179   2180     1   0.10969 276646.080000
   2179   2181     1   0.10969 276646.080000
   2182   2183     1   0.10969 276646.080000
   2182   2184     1   0.10969 276646.080000
   2185   2186     1   0.10969 276646.080000
   2185   2187     1   0.10969 276646.080000
   2190   2219     1   0.10304 312293.760000
   2191   2192     1   0.10910 283424.160000
   2191   2193     1   0.10910 283424.160000
   2194   2195     1   0.10910 283424.160000
   2194   2196     1   0.10910 283424.160000
   2197   2198     1   0.10910 283424.160000
   2197   2199     1   0.10910 283424.160000
   2200   2201     1   0.10969 276646.080000
   2200   2202     1   0.10969 276646.080000
   2203   2204     1   0.10969 276646.080000
   2203   2205     1   0.10969 276646.080000
   2206   2207     1   0.10969 276646.080000
   2206   2208     1   0.10969 276646.080000
   2209   2210     1   0.10969 276646.080000
   2209   2211     1   0.10969 276646.080000
   2212   2213     1   0.10969 276646.080000
   2212   2214     1   0.10969 276646.080000
   2215   2216     1   0.10969 276646.080000
   2215   2217     1   0.10969 276646.080000
   2220   2249     1   0.10304 312293.760000
   2221   2222     1   0.10910 283424.160000
   2221   2223     1   0.10910 283424.160000
   2224   2225     1   0.10910 283424.160000
   2224   2226     1   0.10910 283424.160000
   2227   2228     1   0.10910 283424.160000
   2227   2229     1   0.10910 283424.160000
   2230   2231     1   0.10969 276646.080000
   2230   2232     1   0.10969 276646.080000
   2233   2234     1   0.10969 276646.080000
   2233   2235     1   0.10969 276646.080000
   2236   2237     1   0.10969 276646.080000
   2236   2238     1   0.10969 276646.080000
   2239   2240     1   0.10969 276646.080000
   2239   2241     1   0.10969 276646.080000
   2242   2243     1   0.10969 276646.080000
   2242   2244     1   0.10969 276646.080000
   2245   2246     1   0.10969 276646.080000
   2245   2247     1   0.10969 276646.080000
   2250   2279     1   0.10304 312293.760000
   2251   2252     1   0.10910 283424.160000
   2251   2253     1   0.10910 283424.160000
   2254   2255     1   0.10910 283424.160000
   2254   2256     1   0.10910 283424.160000
   2257   2258     1   0.10910 283424.160000
   2257   2259     1   0.10910 283424.160000
   2260   2261     1   0.10969 276646.080000
   2260   2262     1   0.10969 276646.080000
   2263   2264     1   0.10969 276646.080000
   2263   2265     1   0.10969 276646.080000
   2266   2267     1   0.10969 276646.080000
   2266   2268     1   0.10969 276646.080000
   2269   2270     1   0.10969 276646.080000
   2269   2271     1   0.10969 276646.080000
   2272   2273     1   0.10969 276646.080000
   2272   2274     1   0.10969 276646.080000
   2275   2276     1   0.10969 276646.080000
   2275   2277     1   0.10969 276646.080000
   2280   2309     1   0.10304 312293.760000
   2281   2282     1   0.10910 283424.160000
   2281   2283     1   0.10910 283424.160000
   2284   2285     1   0.10910 283424.160000
   2284   2286     1   0.10910 283424.160000
   2287   2288     1   0.10910 283424.160000
   2287   2289     1   0.10910 283424.160000
   2290   2291     1   0.10969 276646.080000
   2290   2292     1   0.10969 276646.080000
   2293   2294     1   0.10969 276646.080000
   2293   2295     1   0.10969 276646.080000
   2296   2297     1   0.10969 276646.080000
   2296   2298     1   0.10969 276646.080000
   2299   2300     1   0.10969 276646.080000
   2299   2301     1   0.10969 276646.080000
   2302   2303     1   0.10969 276646.080000
   2302   2304     1   0.10969 276646.080000
   2305   2306     1   0.10969 276646.080000
   2305   2307     1   0.10969 276646.080000
   2310   2339     1   0.10304 312293.760000
   2311   2312     1   0.10910 283424.160000
   2311   2313     1   0.10910 283424.160000
   2314   2315     1   0.10910 283424.160000
   2314   2316     1   0.10910 283424.160000
   2317   2318     1   0.10910 283424.160000
   2317   2319     1   0.10910 283424.160000
   2320   2321     1   0.10969 276646.080000
   2320   2322     1   0.10969 276646.080000
   2323   2324     1   0.10969 276646.080000
   2323   2325     1   0.10969 276646.080000
   2326   2327     1   0.10969 276646.080000
   2326   2328     1   0.10969 276646.080000
   2329   2330     1   0.10969 276646.080000
   2329   2331     1   0.10969 276646.080000
   2332   2333     1   0.10969 276646.080000
   2332   2334     1   0.10969 276646.080000
   2335   2336     1   0.10969 276646.080000
   2335   2337     1   0.10969 276646.080000
   2340   2369     1   0.10304 312293.760000
   2341   2342     1   0.10910 283424.160000
   2341   2343     1   0.10910 283424.160000
   2344   2345     1   0.10910 283424.160000
   2344   2346     1   0.10910 283424.160000
   2347   2348     1   0.10910 283424.160000
   2347   2349     1   0.10910 283424.160000
   2350   2351     1   0.10969 276646.080000
   2350   2352     1   0.10969 276646.080000
   2353   2354     1   0.10969 276646.080000
   2353   2355     1   0.10969 276646.080000
   2356   2357     1   0.10969 276646.080000
   2356   2358     1   0.10969 276646.080000
   2359   2360     1   0.10969 276646.080000
   2359   2361     1   0.10969 276646.080000
   2362   2363     1   0.10969 276646.080000
   2362   2364     1   0.10969 276646.080000
   2365   2366     1   0.10969 276646.080000
   2365   2367     1   0.10969 276646.080000
   2370   2399     1   0.10304 312293.760000
   2371   2372     1   0.10910 283424.160000
   2371   2373     1   0.10910 283424.160000
   2374   2375     1   0.10910 283424.160000
   2374   2376     1   0.10910 283424.160000
   2377   2378     1   0.10910 283424.160000
   2377   2379     1   0.10910 283424.160000
   2380   2381     1   0.10969 276646.080000
   2380   2382     1   0.10969 276646.080000
   2383   2384     1   0.10969 276646.080000
   2383   2385     1   0.10969 276646.080000
   2386   2387     1   0.10969 276646.080000
   2386   2388     1   0.10969 276646.080000
   2389   2390     1   0.10969 276646.080000
   2389   2391     1   0.10969 276646.080000
   2392   2393     1   0.10969 276646.080000
   2392   2394     1   0.10969 276646.080000
   2395   2396     1   0.10969 276646.080000
   2395   2397     1   0.10969 276646.080000
   2400   2429     1   0.10304 312293.760000
   2401   2402     1   0.10910 283424.160000
   2401   2403     1   0.10910 283424.160000
   2404   2405     1   0.10910 283424.160000
   2404   2406     1   0.10910 283424.160000
   2407   2408     1   0.10910 283424.160000
   2407   2409     1   0.10910 283424.160000
   2410   2411     1   0.10969 276646.080000
   2410   2412     1   0.10969 276646.080000
   2413   2414     1   0.10969 276646.080000
   2413   2415     1   0.10969 276646.080000
   2416   2417     1   0.10969 276646.080000
   2416   2418     1   0.10969 276646.080000
   2419   2420     1   0.10969 276646.080000
   2419   2421     1   0.10969 276646.080000
   2422   2423     1   0.10969 276646.080000
   2422   2424     1   0.10969 276646.080000
   2425   2426     1   0.10969 276646.080000
   2425   2427     1   0.10969 276646.080000
   2430   2459     1   0.10304 312293.760000
   2431   2432     1   0.10910 283424.160000
   2431   2433     1   0.10910 283424.160000
   2434   2435     1   0.10910 283424.160000
   2434   2436     1   0.10910 283424.160000
   2437   2438     1   0.10910 283424.160000
   2437   2439     1   0.10910 283424.160000
   2440   2441     1   0.10969 276646.080000
   2440   2442     1   0.10969 276646.080000
   2443   2444     1   0.10969 276646.080000
   2443   2445     1   0.10969 276646.080000
   2446   2447     1   0.10969 276646.080000
   2446   2448     1   0.10969 276646.080000
   2449   2450     1   0.10969 276646.080000
   2449   2451     1   0.10969 276646.080000
   2452   2453     1   0.10969 276646.080000
   2452   2454     1   0.10969 276646.080000
   2455   2456     1   0.10969 276646.080000
   2455   2457     1   0.10969 276646.080000
   2460   2489     1   0.10304 312293.760000
   2461   2462     1   0.10910 283424.160000
   2461   2463     1   0.10910 283424.160000
   2464   2465     1   0.10910 283424.160000
   2464   2466     1   0.10910 283424.160000
   2467   2468     1   0.10910 283424.160000
   2467   2469     1   0.10910 283424.160000
   2470   2471     1   0.10969 276646.080000
   2470   2472     1   0.10969 276646.080000
   2473   2474     1   0.10969 276646.080000
   2473   2475     1   0.10969 276646.080000
   2476   2477     1   0.10969 276646.080000
   2476   2478     1   0.10969 276646.080000
   2479   2480     1   0.10969 276646.080000
   2479   2481     1   0.10969 276646.080000
   2482   2483     1   0.10969 276646.080000
   2482   2484     1   0.10969 276646.080000
   2485   2486     1   0.10969 276646.080000
   2485   2487     1   0.10969 276646.080000
   2490   2519     1   0.10304 312293.760000
   2491   2492     1   0.10910 283424.160000
   2491   2493     1   0.10910 283424.160000
   2494   2495     1   0.10910 283424.160000
   2494   2496     1   0.10910 283424.160000
   2497   2498     1   0.10910 283424.160000
   2497   2499     1   0.10910 283424.160000
   2500   2501     1   0.10969 276646.080000
   2500   2502     1   0.10969 276646.080000
   2503   2504     1   0.10969 276646.080000
   2503   2505     1   0.10969 276646.080000
   2506   2507     1   0.10969 276646.080000
   2506   2508     1   0.10969 276646.080000
   2509   2510     1   0.10969 276646.080000
   2509   2511     1   0.10969 276646.080000
   2512   2513     1   0.10969 276646.080000
   2512   2514     1   0.10969 276646.080000
   2515   2516     1   0.10969 276646.080000
   2515   2517     1   0.10969 276646.080000
   2520   2549     1   0.10304 312293.760000
   2521   2522     1   0.10910 283424.160000
   2521   2523     1   0.10910 283424.160000
   2524   2525     1   0.10910 283424.160000
   2524   2526     1   0.10910 283424.160000
   2527   2528     1   0.10910 283424.160000
   2527   2529     1   0.10910 283424.160000
   2530   2531     1   0.10969 276646.080000
   2530   2532     1   0.10969 276646.080000
   2533   2534     1   0.10969 276646.080000
   2533   2535     1   0.10969 276646.080000
   2536   2537     1   0.10969 276646.080000
   2536   2538     1   0.10969 276646.080000
   2539   2540     1   0.10969 276646.080000
   2539   2541     1   0.10969 276646.080000
   2542   2543     1   0.10969 276646.080000
   2542   2544     1   0.10969 276646.080000
   2545   2546     1   0.10969 276646.080000
   2545   2547     1   0.10969 276646.080000
   2550   2579     1   0.10304 312293.760000
   2551   2552     1   0.10910 283424.160000
   2551   2553     1   0.10910 283424.160000
   2554   2555     1   0.10910 283424.160000
   2554   2556     1   0.10910 283424.160000
   2557   2558     1   0.10910 283424.160000
   2557   2559     1   0.10910 283424.160000
   2560   2561     1   0.10969 276646.080000
   2560   2562     1   0.10969 276646.080000
   2563   2564     1   0.10969 276646.080000
   2563   2565     1   0.10969 276646.080000
   2566   2567     1   0.10969 276646.080000
   2566   2568     1   0.10969 276646.080000
   2569   2570     1   0.10969 276646.080000
   2569   2571     1   0.10969 276646.080000
   2572   2573     1   0.10969 276646.080000
   2572   2574     1   0.10969 276646.080000
   2575   2576     1   0.10969 276646.080000
   2575   2577     1   0.10969 276646.080000
   2580   2609     1   0.10304 312293.760000
   2581   2582     1   0.10910 283424.160000
   2581   2583     1   0.10910 283424.160000
   2584   2585     1   0.10910 283424.160000
   2584   2586     1   0.10910 283424.160000
   2587   2588     1   0.10910 283424.160000
   2587   2589     1   0.10910 283424.160000
   2590   2591     1   0.10969 276646.080000
   2590   2592     1   0.10969 276646.080000
   2593   2594     1   0.10969 276646.080000
   2593   2595     1   0.10969 276646.080000
   2596   2597     1   0.10969 276646.080000
   2596   2598     1   0.10969 276646.080000
   2599   2600     1   0.10969 276646.080000
   2599   2601     1   0.10969 276646.080000
   2602   2603     1   0.10969 276646.080000
   2602   2604     1   0.10969 276646.080000
   2605   2606     1   0.10969 276646.080000
   2605   2607     1   0.10969 276646.080000
   2610   2639     1   0.10304 312293.760000
   2611   2612     1   0.10910 283424.160000
   2611   2613     1   0.10910 283424.160000
   2614   2615     1   0.10910 283424.160000
   2614   2616     1   0.10910 283424.160000
   2617   2618     1   0.10910 283424.160000
   2617   2619     1   0.10910 283424.160000
   2620   2621     1   0.10969 276646.080000
   2620   2622     1   0.10969 276646.080000
   2623   2624     1   0.10969 276646.080000
   2623   2625     1   0.10969 276646.080000
   2626   2627     1   0.10969 276646.080000
   2626   2628     1   0.10969 276646.080000
   2629   2630     1   0.10969 276646.080000
   2629   2631     1   0.10969 276646.080000
   2632   2633     1   0.10969 276646.080000
   2632   2634     1   0.10969 276646.080000
   2635   2636     1   0.10969 276646.080000
   2635   2637     1   0.10969 276646.080000
   2640   2669     1   0.10304 312293.760000
   2641   2642     1   0.10910 283424.160000
   2641   2643     1   0.10910 283424.160000
   2644   2645     1   0.10910 283424.160000
   2644   2646     1   0.10910 283424.160000
   2647   2648     1   0.10910 283424.160000
   2647   2649     1   0.10910 283424.160000
   2650   2651     1   0.10969 276646.080000
   2650   2652     1   0.10969 276646.080000
   2653   2654     1   0.10969 276646.080000
   2653   2655     1   0.10969 276646.080000
   2656   2657     1   0.10969 276646.080000
   2656   2658     1   0.10969 276646.080000
   2659   2660     1   0.10969 276646.080000
   2659   2661     1   0.10969 276646.080000
   2662   2663     1   0.10969 276646.080000
   2662   2664     1   0.10969 276646.080000
   2665   2666     1   0.10969 276646.080000
   2665   2667     1   0.10969 276646.080000
   2670   2699     1   0.10304 312293.760000
   2671   2672     1   0.10910 283424.160000
   2671   2673     1   0.10910 283424.160000
   2674   2675     1   0.10910 283424.160000
   2674   2676     1   0.10910 283424.160000
   2677   2678     1   0.10910 283424.160000
   2677   2679     1   0.10910 283424.160000
   2680   2681     1   0.10969 276646.080000
   2680   2682     1   0.10969 276646.080000
   2683   2684     1   0.10969 276646.080000
   2683   2685     1   0.10969 276646.080000
   2686   2687     1   0.10969 276646.080000
   2686   2688     1   0.10969 276646.080000
   2689   2690     1   0.10969 276646.080000
   2689   2691     1   0.10969 276646.080000
   2692   2693     1   0.10969 276646.080000
   2692   2694     1   0.10969 276646.080000
   2695   2696     1   0.10969 276646.080000
   2695   2697     1   0.10969 276646.080000
   2700   2729     1   0.10304 312293.760000
   2701   2702     1   0.10910 283424.160000
   2701   2703     1   0.10910 283424.160000
   2704   2705     1   0.10910 283424.160000
   2704   2706     1   0.10910 283424.160000
   2707   2708     1   0.10910 283424.160000
   2707   2709     1   0.10910 283424.160000
   2710   2711     1   0.10969 276646.080000
   2710   2712     1   0.10969 276646.080000
   2713   2714     1   0.10969 276646.080000
   2713   2715     1   0.10969 276646.080000
   2716   2717     1   0.10969 276646.080000
   2716   2718     1   0.10969 276646.080000
   2719   2720     1   0.10969 276646.080000
   2719   2721     1   0.10969 276646.080000
   2722   2723     1   0.10969 276646.080000
   2722   2724     1   0.10969 276646.080000
   2725   2726     1   0.10969 276646.080000
   2725   2727     1   0.10969 276646.080000
   2730   2759     1   0.10304 312293.760000
   2731   2732     1   0.10910 283424.160000
   2731   2733     1   0.10910 283424.160000
   2734   2735     1   0.10910 283424.160000
   2734   2736     1   0.10910 283424.160000
   2737   2738     1   0.10910 283424.160000
   2737   2739     1   0.10910 283424.160000
   2740   2741     1   0.10969 276646.080000
   2740   2742     1   0.10969 276646.080000
   2743   2744     1   0.10969 276646.080000
   2743   2745     1   0.10969 276646.080000
   2746   2747     1   0.10969 276646.080000
   2746   2748     1   0.10969 276646.080000
   2749   2750     1   0.10969 276646.080000
   2749   2751     1   0.10969 276646.080000
   2752   2753     1   0.10969 276646.080000
   2752   2754     1   0.10969 276646.080000
   2755   2756     1   0.10969 276646.080000
   2755   2757     1   0.10969 276646.080000
   2760   2789     1   0.10304 312293.760000
   2761   2762     1   0.10910 283424.160000
   2761   2763     1   0.10910 283424.160000
   2764   2765     1   0.10910 283424.160000
   2764   2766     1   0.10910 283424.160000
   2767   2768     1   0.10910 283424.160000
   2767   2769     1   0.10910 283424.160000
   2770   2771     1   0.10969 276646.080000
   2770   2772     1   0.10969 276646.080000
   2773   2774     1   0.10969 276646.080000
   2773   2775     1   0.10969 276646.080000
   2776   2777     1   0.10969 276646.080000
   2776   2778     1   0.10969 276646.080000
   2779   2780     1   0.10969 276646.080000
   2779   2781     1   0.10969 276646.080000
   2782   2783     1   0.10969 276646.080000
   2782   2784     1   0.10969 276646.080000
   2785   2786     1   0.10969 276646.080000
   2785   2787     1   0.10969 276646.080000
   2790   2819     1   0.10304 312293.760000
   2791   2792     1   0.10910 283424.160000
   2791   2793     1   0.10910 283424.160000
   2794   2795     1   0.10910 283424.160000
   2794   2796     1   0.10910 283424.160000
   2797   2798     1   0.10910 283424.160000
   2797   2799     1   0.10910 283424.160000
   2800   2801     1   0.10969 276646.080000
   2800   2802     1   0.10969 276646.080000
   2803   2804     1   0.10969 276646.080000
   2803   2805     1   0.10969 276646.080000
   2806   2807     1   0.10969 276646.080000
   2806   2808     1   0.10969 276646.080000
   2809   2810     1   0.10969 276646.080000
   2809   2811     1   0.10969 276646.080000
   2812   2813     1   0.10969 276646.080000
   2812   2814     1   0.10969 276646.080000
   2815   2816     1   0.10969 276646.080000
   2815   2817     1   0.10969 276646.080000
   2820   2822     1   0.10969 276646.080000
   2821   2823     1   0.10969 276646.080000
   2824   2828     1   0.10969 276646.080000
   2825   2827     1   0.10969 276646.080000
   2826   2829     1   0.10961 277566.560000
   2831   2837     1   0.09730 310787.520000
   2832   2835     1   0.09730 310787.520000
   2833   2836     1   0.09730 310787.520000
   2834   2838     1   0.10969 276646.080000
   2834   2839     1   0.10969 276646.080000
   2840   2841     1   0.09730 310787.520000
   2843   2845     1   0.10969 276646.080000
   2844   2846     1   0.10969 276646.080000
   2847   2851     1   0.10969 276646.080000
   2848   2850     1   0.10969 276646.080000
   2849   2852     1   0.10961 277566.560000
   2854   2860     1   0.09730 310787.520000
   2855   2858     1   0.09730 310787.520000
   2856   2859     1   0.09730 310787.520000
   2857   2861     1   0.10969 276646.080000
   2857   2862     1   0.10969 276646.080000
   2863   2864     1   0.09730 310787.520000
   2866   2868     1   0.10969 276646.080000
   2867   2869     1   0.10969 276646.080000
   2870   2874     1   0.10969 276646.080000
   2871   2873     1   0.10969 276646.080000
   2872   2875     1   0.10961 277566.560000
   2877   2883     1   0.09730 310787.520000
   2878   2881     1   0.09730 310787.520000
   2879   2882     1   0.09730 310787.520000
   2880   2884     1   0.10969 276646.080000
   2880   2885     1   0.10969 276646.080000
   2886   2887     1   0.09730 310787.520000
   2889   2891     1   0.10969 276646.080000
   2890   2892     1   0.10969 276646.080000
   2893   2897     1   0.10969 276646.080000
   2894   2896     1   0.10969 276646.080000
   2895   2898     1   0.10961 277566.560000
   2900   2906     1   0.09730 310787.520000
   2901   2904     1   0.09730 310787.520000
   2902   2905     1   0.09730 310787.520000
   2903   2907     1   0.10969 276646.080000
   2903   2908     1   0.10969 276646.080000
   2909   2910     1   0.09730 310787.520000
   2912   2914     1   0.10969 276646.080000
   2913   2915     1   0.10969 276646.080000
   2916   2920     1   0.10969 276646.080000
   2917   2919     1   0.10969 276646.080000
   2918   2921     1   0.10961 277566.560000
   2923   2929     1   0.09730 310787.520000
   2924   2927     1   0.09730 310787.520000
   2925   2928     1   0.09730 310787.520000
   2926   2930     1   0.10969 276646.080000
   2926   2931     1   0.10969 276646.080000
   2932   2933     1   0.09730 310787.520000
   2935   2937     1   0.10969 276646.080000
   2936   2938     1   0.10969 276646.080000
   2939   2943     1   0.10969 276646.080000
   2940   2942     1   0.10969 276646.080000
   2941   2944     1   0.10961 277566.560000
   2946   2952     1   0.09730 310787.520000
   2947   2950     1   0.09730 310787.520000
   2948   2951     1   0.09730 310787.520000
   2949   2953     1   0.10969 276646.080000
   2949   2954     1   0.10969 276646.080000
   2955   2956     1   0.09730 310787.520000
   2958   2960     1   0.10969 276646.080000
   2959   2961     1   0.10969 276646.080000
   2962   2966     1   0.10969 276646.080000
   2963   2965     1   0.10969 276646.080000
   2964   2967     1   0.10961 277566.560000
   2969   2975     1   0.09730 310787.520000
   2970   2973     1   0.09730 310787.520000
   2971   2974     1   0.09730 310787.520000
   2972   2976     1   0.10969 276646.080000
   2972   2977     1   0.10969 276646.080000
   2978   2979     1   0.09730 310787.520000
   2981   2983     1   0.10969 276646.080000
   2982   2984     1   0.10969 276646.080000
   2985   2989     1   0.10969 276646.080000
   2986   2988     1   0.10969 276646.080000
   2987   2990     1   0.10961 277566.560000
   2992   2998     1   0.09730 310787.520000
   2993   2996     1   0.09730 310787.520000
   2994   2997     1   0.09730 310787.520000
   2995   2999     1   0.10969 276646.080000
   2995   3000     1   0.10969 276646.080000
   3001   3002     1   0.09730 310787.520000
   3004   3006     1   0.10969 276646.080000
   3005   3007     1   0.10969 276646.080000
   3008   3012     1   0.10969 276646.080000
   3009   3011     1   0.10969 276646.080000
   3010   3013     1   0.10961 277566.560000
   3015   3021     1   0.09730 310787.520000
   3016   3019     1   0.09730 310787.520000
   3017   3020     1   0.09730 310787.520000
   3018   3022     1   0.10969 276646.080000
   3018   3023     1   0.10969 276646.080000
   3024   3025     1   0.09730 310787.520000
   3027   3029     1   0.10969 276646.080000
   3028   3030     1   0.10969 276646.080000
   3031   3035     1   0.10969 276646.080000
   3032   3034     1   0.10969 276646.080000
   3033   3036     1   0.10961 277566.560000
   3038   3044     1   0.09730 310787.520000
   3039   3042     1   0.09730 310787.520000
   3040   3043     1   0.09730 310787.520000
   3041   3045     1   0.10969 276646.080000
   3041   3046     1   0.10969 276646.080000
   3047   3048     1   0.09730 310787.520000
   3050   3052     1   0.10969 276646.080000
   3051   3053     1   0.10969 276646.080000
   3054   3058     1   0.10969 276646.080000
   3055   3057     1   0.10969 276646.080000
   3056   3059     1   0.10961 277566.560000
   3061   3067     1   0.09730 310787.520000
   3062   3065     1   0.09730 310787.520000
   3063   3066     1   0.09730 310787.520000
   3064   3068     1   0.10969 276646.080000
   3064   3069     1   0.10969 276646.080000
   3070   3071     1   0.09730 310787.520000
   3073   3075     1   0.10969 276646.080000
   3074   3076     1   0.10969 276646.080000
   3077   3081     1   0.10969 276646.080000
   3078   3080     1   0.10969 276646.080000
   3079   3082     1   0.10961 277566.560000
   3084   3090     1   0.09730 310787.520000
   3085   3088     1   0.09730 310787.520000
   3086   3089     1   0.09730 310787.520000
   3087   3091     1   0.10969 276646.080000
   3087   3092     1   0.10969 276646.080000
   3093   3094     1   0.09730 310787.520000
   3096   3098     1   0.10969 276646.080000
   3097   3099     1   0.10969 276646.080000
   3100   3104     1   0.10969 276646.080000
   3101   3103     1   0.10969 276646.080000
   3102   3105     1   0.10961 277566.560000
   3107   3113     1   0.09730 310787.520000
   3108   3111     1   0.09730 310787.520000
   3109   3112     1   0.09730 310787.520000
   3110   3114     1   0.10969 276646.080000
   3110   3115     1   0.10969 276646.080000
   3116   3117     1   0.09730 310787.520000
   3119   3121     1   0.10969 276646.080000
   3120   3122     1   0.10969 276646.080000
   3123   3127     1   0.10969 276646.080000
   3124   3126     1   0.10969 276646.080000
   3125   3128     1   0.10961 277566.560000
   3130   3136     1   0.09730 310787.520000
   3131   3134     1   0.09730 310787.520000
   3132   3135     1   0.09730 310787.520000
   3133   3137     1   0.10969 276646.080000
   3133   3138     1   0.10969 276646.080000
   3139   3140     1   0.09730 310787.520000
   3142   3144     1   0.10969 276646.080000
   3143   3145     1   0.10969 276646.080000
   3146   3150     1   0.10969 276646.080000
   3147   3149     1   0.10969 276646.080000
   3148   3151     1   0.10961 277566.560000
   3153   3159     1   0.09730 310787.520000
   3154   3157     1   0.09730 310787.520000
   3155   3158     1   0.09730 310787.520000
   3156   3160     1   0.10969 276646.080000
   3156   3161     1   0.10969 276646.080000
   3162   3163     1   0.09730 310787.520000
   3165   3167     1   0.10969 276646.080000
   3166   3168     1   0.10969 276646.080000
   3169   3173     1   0.10969 276646.080000
   3170   3172     1   0.10969 276646.080000
   3171   3174     1   0.10961 277566.560000
   3176   3182     1   0.09730 310787.520000
   3177   3180     1   0.09730 310787.520000
   3178   3181     1   0.09730 310787.520000
   3179   3183     1   0.10969 276646.080000
   3179   3184     1   0.10969 276646.080000
   3185   3186     1   0.09730 310787.520000
   3188   3190     1   0.10969 276646.080000
   3189   3191     1   0.10969 276646.080000
   3192   3196     1   0.10969 276646.080000
   3193   3195     1   0.10969 276646.080000
   3194   3197     1   0.10961 277566.560000
   3199   3205     1   0.09730 310787.520000
   3200   3203     1   0.09730 310787.520000
   3201   3204     1   0.09730 310787.520000
   3202   3206     1   0.10969 276646.080000
   3202   3207     1   0.10969 276646.080000
   3208   3209     1   0.09730 310787.520000
   3211   3213     1   0.10969 276646.080000
   3212   3214     1   0.10969 276646.080000
   3215   3219     1   0.10969 276646.080000
   3216   3218     1   0.10969 276646.080000
   3217   3220     1   0.10961 277566.560000
   3222   3228     1   0.09730 310787.520000
   3223   3226     1   0.09730 310787.520000
   3224   3227     1   0.09730 310787.520000
   3225   3229     1   0.10969 276646.080000
   3225   3230     1   0.10969 276646.080000
   3231   3232     1   0.09730 310787.520000
   3234   3236     1   0.10969 276646.080000
   3235   3237     1   0.10969 276646.080000
   3238   3242     1   0.10969 276646.080000
   3239   3241     1   0.10969 276646.080000
   3240   3243     1   0.10961 277566.560000
   3245   3251     1   0.09730 310787.520000
   3246   3249     1   0.09730 310787.520000
   3247   3250     1   0.09730 310787.520000
   3248   3252     1   0.10969 276646.080000
   3248   3253     1   0.10969 276646.080000
   3254   3255     1   0.09730 310787.520000
   3257   3259     1   0.10969 276646.080000
   3258   3260     1   0.10969 276646.080000
   3261   3265     1   0.10969 276646.080000
   3262   3264     1   0.10969 276646.080000
   3263   3266     1   0.10961 277566.560000
   3268   3274     1   0.09730 310787.520000
   3269   3272     1   0.09730 310787.520000
   3270   3273     1   0.09730 310787.520000
   3271   3275     1   0.10969 276646.080000
   3271   3276     1   0.10969 276646.080000
   3277   3278     1   0.09730 310787.520000
   3280   3282     1   0.10969 276646.080000
   3281   3283     1   0.10969 276646.080000
   3284   3288     1   0.10969 276646.080000
   3285   3287     1   0.10969 276646.080000
   3286   3289     1   0.10961 277566.560000
   3291   3297     1   0.09730 310787.520000
   3292   3295     1   0.09730 310787.520000
   3293   3296     1   0.09730 310787.520000
   3294   3298     1   0.10969 276646.080000
   3294   3299     1   0.10969 276646.080000
   3300   3301     1   0.09730 310787.520000
   3303   3305     1   0.10969 276646.080000
   3304   3306     1   0.10969 276646.080000
   3307   3311     1   0.10969 276646.080000
   3308   3310     1   0.10969 276646.080000
   3309   3312     1   0.10961 277566.560000
   3314   3320     1   0.09730 310787.520000
   3315   3318     1   0.09730 310787.520000
   3316   3319     1   0.09730 310787.520000
   3317   3321     1   0.10969 276646.080000
   3317   3322     1   0.10969 276646.080000
   3323   3324     1   0.09730 310787.520000
   3326   3328     1   0.10969 276646.080000
   3327   3329     1   0.10969 276646.080000
   3330   3334     1   0.10969 276646.080000
   3331   3333     1   0.10969 276646.080000
   3332   3335     1   0.10961 277566.560000
   3337   3343     1   0.09730 310787.520000
   3338   3341     1   0.09730 310787.520000
   3339   3342     1   0.09730 310787.520000
   3340   3344     1   0.10969 276646.080000
   3340   3345     1   0.10969 276646.080000
   3346   3347     1   0.09730 310787.520000
   3349   3351     1   0.10969 276646.080000
   3350   3352     1   0.10969 276646.080000
   3353   3357     1   0.10969 276646.080000
   3354   3356     1   0.10969 276646.080000
   3355   3358     1   0.10961 277566.560000
   3360   3366     1   0.09730 310787.520000
   3361   3364     1   0.09730 310787.520000
   3362   3365     1   0.09730 310787.520000
   3363   3367     1   0.10969 276646.080000
   3363   3368     1   0.10969 276646.080000
   3369   3370     1   0.09730 310787.520000
   3372   3374     1   0.10969 276646.080000
   3373   3375     1   0.10969 276646.080000
   3376   3380     1   0.10969 276646.080000
   3377   3379     1   0.10969 276646.080000
   3378   3381     1   0.10961 277566.560000
   3383   3389     1   0.09730 310787.520000
   3384   3387     1   0.09730 310787.520000
   3385   3388     1   0.09730 310787.520000
   3386   3390     1   0.10969 276646.080000
   3386   3391     1   0.10969 276646.080000
   3392   3393     1   0.09730 310787.520000
   3395   3397     1   0.10969 276646.080000
   3396   3398     1   0.10969 276646.080000
   3399   3403     1   0.10969 276646.080000
   3400   3402     1   0.10969 276646.080000
   3401   3404     1   0.10961 277566.560000
   3406   3412     1   0.09730 310787.520000
   3407   3410     1   0.09730 310787.520000
   3408   3411     1   0.09730 310787.520000
   3409   3413     1   0.10969 276646.080000
   3409   3414     1   0.10969 276646.080000
   3415   3416     1   0.09730 310787.520000
   3418   3420     1   0.10969 276646.080000
   3419   3421     1   0.10969 276646.080000
   3422   3426     1   0.10969 276646.080000
   3423   3425     1   0.10969 276646.080000
   3424   3427     1   0.10961 277566.560000
   3429   3435     1   0.09730 310787.520000
   3430   3433     1   0.09730 310787.520000
   3431   3434     1   0.09730 310787.520000
   3432   3436     1   0.10969 276646.080000
   3432   3437     1   0.10969 276646.080000
   3438   3439     1   0.09730 310787.520000
   3441   3443     1   0.10969 276646.080000
   3442   3444     1   0.10969 276646.080000
   3445   3449     1   0.10969 276646.080000
   3446   3448     1   0.10969 276646.080000
   3447   3450     1   0.10961 277566.560000
   3452   3458     1   0.09730 310787.520000
   3453   3456     1   0.09730 310787.520000
   3454   3457     1   0.09730 310787.520000
   3455   3459     1   0.10969 276646.080000
   3455   3460     1   0.10969 276646.080000
   3461   3462     1   0.09730 310787.520000
   3464   3466     1   0.10969 276646.080000
   3465   3467     1   0.10969 276646.080000
   3468   3472     1   0.10969 276646.080000
   3469   3471     1   0.10969 276646.080000
   3470   3473     1   0.10961 277566.560000
   3475   3481     1   0.09730 310787.520000
   3476   3479     1   0.09730 310787.520000
   3477   3480     1   0.09730 310787.520000
   3478   3482     1   0.10969 276646.080000
   3478   3483     1   0.10969 276646.080000
   3484   3485     1   0.09730 310787.520000
   3487   3489     1   0.10969 276646.080000
   3488   3490     1   0.10969 276646.080000
   3491   3495     1   0.10969 276646.080000
   3492   3494     1   0.10969 276646.080000
   3493   3496     1   0.10961 277566.560000
   3498   3504     1   0.09730 310787.520000
   3499   3502     1   0.09730 310787.520000
   3500   3503     1   0.09730 310787.520000
   3501   3505     1   0.10969 276646.080000
   3501   3506     1   0.10969 276646.080000
   3507   3508     1   0.09730 310787.520000
   3510   3512     1   0.10969 276646.080000
   3511   3513     1   0.10969 276646.080000
   3514   3518     1   0.10969 276646.080000
   3515   3517     1   0.10969 276646.080000
   3516   3519     1   0.10961 277566.560000
   3521   3527     1   0.09730 310787.520000
   3522   3525     1   0.09730 310787.520000
   3523   3526     1   0.09730 310787.520000
   3524   3528     1   0.10969 276646.080000
   3524   3529     1   0.10969 276646.080000
   3530   3531     1   0.09730 310787.520000
   3533   3535     1   0.10969 276646.080000
   3534   3536     1   0.10969 276646.080000
   3537   3541     1   0.10969 276646.080000
   3538   3540     1   0.10969 276646.080000
   3539   3542     1   0.10961 277566.560000
   3544   3550     1   0.09730 310787.520000
   3545   3548     1   0.09730 310787.520000
   3546   3549     1   0.09730 310787.520000
   3547   3551     1   0.10969 276646.080000
   3547   3552     1   0.10969 276646.080000
   3553   3554     1   0.09730 310787.520000
   3556   3558     1   0.10969 276646.080000
   3557   3559     1   0.10969 276646.080000
   3560   3564     1   0.10969 276646.080000
   3561   3563     1   0.10969 276646.080000
   3562   3565     1   0.10961 277566.560000
   3567   3573     1   0.09730 310787.520000
   3568   3571     1   0.09730 310787.520000
   3569   3572     1   0.09730 310787.520000
   3570   3574     1   0.10969 276646.080000
   3570   3575     1   0.10969 276646.080000
   3576   3577     1   0.09730 310787.520000
   3579   3581     1   0.10969 276646.080000
   3580   3582     1   0.10969 276646.080000
   3583   3587     1   0.10969 276646.080000
   3584   3586     1   0.10969 276646.080000
   3585   3588     1   0.10961 277566.560000
   3590   3596     1   0.09730 310787.520000
   3591   3594     1   0.09730 310787.520000
   3592   3595     1   0.09730 310787.520000
   3593   3597     1   0.10969 276646.080000
   3593   3598     1   0.10969 276646.080000
   3599   3600     1   0.09730 310787.520000
   3602   3604     1   0.10969 276646.080000
   3603   3605     1   0.10969 276646.080000
   3606   3610     1   0.10969 276646.080000
   3607   3609     1   0.10969 276646.080000
   3608   3611     1   0.10961 277566.560000
   3613   3619     1   0.09730 310787.520000
   3614   3617     1   0.09730 310787.520000
   3615   3618     1   0.09730 310787.520000
   3616   3620     1   0.10969 276646.080000
   3616   3621     1   0.10969 276646.080000
   3622   3623     1   0.09730 310787.520000
   3625   3627     1   0.10969 276646.080000
   3626   3628     1   0.10969 276646.080000
   3629   3633     1   0.10969 276646.080000
   3630   3632     1   0.10969 276646.080000
   3631   3634     1   0.10961 277566.560000
   3636   3642     1   0.09730 310787.520000
   3637   3640     1   0.09730 310787.520000
   3638   3641     1   0.09730 310787.520000
   3639   3643     1   0.10969 276646.080000
   3639   3644     1   0.10969 276646.080000
   3645   3646     1   0.09730 310787.520000
   3648   3650     1   0.10969 276646.080000
   3649   3651     1   0.10969 276646.080000
   3652   3656     1   0.10969 276646.080000
   3653   3655     1   0.10969 276646.080000
   3654   3657     1   0.10961 277566.560000
   3659   3665     1   0.09730 310787.520000
   3660   3663     1   0.09730 310787.520000
   3661   3664     1   0.09730 310787.520000
   3662   3666     1   0.10969 276646.080000
   3662   3667     1   0.10969 276646.080000
   3668   3669     1   0.09730 310787.520000
   3671   3673     1   0.10969 276646.080000
   3672   3674     1   0.10969 276646.080000
   3675   3679     1   0.10969 276646.080000
   3676   3678     1   0.10969 276646.080000
   3677   3680     1   0.10961 277566.560000
   3682   3688     1   0.09730 310787.520000
   3683   3686     1   0.09730 310787.520000
   3684   3687     1   0.09730 310787.520000
   3685   3689     1   0.10969 276646.080000
   3685   3690     1   0.10969 276646.080000
   3691   3692     1   0.09730 310787.520000
   3694   3696     1   0.10969 276646.080000
   3695   3697     1   0.10969 276646.080000
   3698   3702     1   0.10969 276646.080000
   3699   3701     1   0.10969 276646.080000
   3700   3703     1   0.10961 277566.560000
   3705   3711     1   0.09730 310787.520000
   3706   3709     1   0.09730 310787.520000
   3707   3710     1   0.09730 310787.520000
   3708   3712     1   0.10969 276646.080000
   3708   3713     1   0.10969 276646.080000
   3714   3715     1   0.09730 310787.520000
   3717   3719     1   0.10969 276646.080000
   3718   3720     1   0.10969 276646.080000
   3721   3725     1   0.10969 276646.080000
   3722   3724     1   0.10969 276646.080000
   3723   3726     1   0.10961 277566.560000
   3728   3734     1   0.09730 310787.520000
   3729   3732     1   0.09730 310787.520000
   3730   3733     1   0.09730 310787.520000
   3731   3735     1   0.10969 276646.080000
   3731   3736     1   0.10969 276646.080000
   3737   3738     1   0.09730 310787.520000
   3740   3742     1   0.10969 276646.080000
   3741   3743     1   0.10969 276646.080000
   3744   3748     1   0.10969 276646.080000
   3745   3747     1   0.10969 276646.080000
   3746   3749     1   0.10961 277566.560000
   3751   3757     1   0.09730 310787.520000
   3752   3755     1   0.09730 310787.520000
   3753   3756     1   0.09730 310787.520000
   3754   3758     1   0.10969 276646.080000
   3754   3759     1   0.10969 276646.080000
   3760   3761     1   0.09730 310787.520000
   3763   3765     1   0.10969 276646.080000
   3764   3766     1   0.10969 276646.080000
   3767   3771     1   0.10969 276646.080000
   3768   3770     1   0.10969 276646.080000
   3769   3772     1   0.10961 277566.560000
   3774   3780     1   0.09730 310787.520000
   3775   3778     1   0.09730 310787.520000
   3776   3779     1   0.09730 310787.520000
   3777   3781     1   0.10969 276646.080000
   3777   3782     1   0.10969 276646.080000
   3783   3784     1   0.09730 310787.520000
   3786   3788     1   0.10969 276646.080000
   3787   3789     1   0.10969 276646.080000
   3790   3794     1   0.10969 276646.080000
   3791   3793     1   0.10969 276646.080000
   3792   3795     1   0.10961 277566.560000
   3797   3803     1   0.09730 310787.520000
   3798   3801     1   0.09730 310787.520000
   3799   3802     1   0.09730 310787.520000
   3800   3804     1   0.10969 276646.080000
   3800   3805     1   0.10969 276646.080000
   3806   3807     1   0.09730 310787.520000
   3809   3811     1   0.10969 276646.080000
   3810   3812     1   0.10969 276646.080000
   3813   3817     1   0.10969 276646.080000
   3814   3816     1   0.10969 276646.080000
   3815   3818     1   0.10961 277566.560000
   3820   3826     1   0.09730 310787.520000
   3821   3824     1   0.09730 310787.520000
   3822   3825     1   0.09730 310787.520000
   3823   3827     1   0.10969 276646.080000
   3823   3828     1   0.10969 276646.080000
   3829   3830     1   0.09730 310787.520000
   3832   3834     1   0.10969 276646.080000
   3833   3835     1   0.10969 276646.080000
   3836   3840     1   0.10969 276646.080000
   3837   3839     1   0.10969 276646.080000
   3838   3841     1   0.10961 277566.560000
   3843   3849     1   0.09730 310787.520000
   3844   3847     1   0.09730 310787.520000
   3845   3848     1   0.09730 310787.520000
   3846   3850     1   0.10969 276646.080000
   3846   3851     1   0.10969 276646.080000
   3852   3853     1   0.09730 310787.520000
   3855   3857     1   0.10969 276646.080000
   3856   3858     1   0.10969 276646.080000
   3859   3863     1   0.10969 276646.080000
   3860   3862     1   0.10969 276646.080000
   3861   3864     1   0.10961 277566.560000
   3866   3872     1   0.09730 310787.520000
   3867   3870     1   0.09730 310787.520000
   3868   3871     1   0.09730 310787.520000
   3869   3873     1   0.10969 276646.080000
   3869   3874     1   0.10969 276646.080000
   3875   3876     1   0.09730 310787.520000
   3878   3880     1   0.10969 276646.080000
   3879   3881     1   0.10969 276646.080000
   3882   3886     1   0.10969 276646.080000
   3883   3885     1   0.10969 276646.080000
   3884   3887     1   0.10961 277566.560000
   3889   3895     1   0.09730 310787.520000
   3890   3893     1   0.09730 310787.520000
   3891   3894     1   0.09730 310787.520000
   3892   3896     1   0.10969 276646.080000
   3892   3897     1   0.10969 276646.080000
   3898   3899     1   0.09730 310787.520000
   3901   3903     1   0.10969 276646.080000
   3902   3904     1   0.10969 276646.080000
   3905   3909     1   0.10969 276646.080000
   3906   3908     1   0.10969 276646.080000
   3907   3910     1   0.10961 277566.560000
   3912   3918     1   0.09730 310787.520000
   3913   3916     1   0.09730 310787.520000
   3914   3917     1   0.09730 310787.520000
   3915   3919     1   0.10969 276646.080000
   3915   3920     1   0.10969 276646.080000
   3921   3922     1   0.09730 310787.520000
   3924   3926     1   0.10969 276646.080000
   3925   3927     1   0.10969 276646.080000
   3928   3932     1   0.10969 276646.080000
   3929   3931     1   0.10969 276646.080000
   3930   3933     1   0.10961 277566.560000
   3935   3941     1   0.09730 310787.520000
   3936   3939     1   0.09730 310787.520000
   3937   3940     1   0.09730 310787.520000
   3938   3942     1   0.10969 276646.080000
   3938   3943     1   0.10969 276646.080000
   3944   3945     1   0.09730 310787.520000
   3947   3949     1   0.10969 276646.080000
   3948   3950     1   0.10969 276646.080000
   3951   3955     1   0.10969 276646.080000
   3952   3954     1   0.10969 276646.080000
   3953   3956     1   0.10961 277566.560000
   3958   3964     1   0.09730 310787.520000
   3959   3962     1   0.09730 310787.520000
   3960   3963     1   0.09730 310787.520000
   3961   3965     1   0.10969 276646.080000
   3961   3966     1   0.10969 276646.080000
   3967   3968     1   0.09730 310787.520000
   3970   3972     1   0.10969 276646.080000
   3971   3973     1   0.10969 276646.080000
   3974   3978     1   0.10969 276646.080000
   3975   3977     1   0.10969 276646.080000
   3976   3979     1   0.10961 277566.560000
   3981   3987     1   0.09730 310787.520000
   3982   3985     1   0.09730 310787.520000
   3983   3986     1   0.09730 310787.520000
   3984   3988     1   0.10969 276646.080000
   3984   3989     1   0.10969 276646.080000
   3990   3991     1   0.09730 310787.520000
   3993   3995     1   0.10969 276646.080000
   3994   3996     1   0.10969 276646.080000
   3997   4001     1   0.10969 276646.080000
   3998   4000     1   0.10969 276646.080000
   3999   4002     1   0.10961 277566.560000
   4004   4010     1   0.09730 310787.520000
   4005   4008     1   0.09730 310787.520000
   4006   4009     1   0.09730 310787.520000
   4007   4011     1   0.10969 276646.080000
   4007   4012     1   0.10969 276646.080000
   4013   4014     1   0.09730 310787.520000
   4016   4018     1   0.10969 276646.080000
   4017   4019     1   0.10969 276646.080000
   4020   4024     1   0.10969 276646.080000
   4021   4023     1   0.10969 276646.080000
   4022   4025     1   0.10961 277566.560000
   4027   4033     1   0.09730 310787.520000
   4028   4031     1   0.09730 310787.520000
   4029   4032     1   0.09730 310787.520000
   4030   4034     1   0.10969 276646.080000
   4030   4035     1   0.10969 276646.080000
   4036   4037     1   0.09730 310787.520000
   4039   4041     1   0.10969 276646.080000
   4040   4042     1   0.10969 276646.080000
   4043   4047     1   0.10969 276646.080000
   4044   4046     1   0.10969 276646.080000
   4045   4048     1   0.10961 277566.560000
   4050   4056     1   0.09730 310787.520000
   4051   4054     1   0.09730 310787.520000
   4052   4055     1   0.09730 310787.520000
   4053   4057     1   0.10969 276646.080000
   4053   4058     1   0.10969 276646.080000
   4059   4060     1   0.09730 310787.520000
   4062   4064     1   0.10969 276646.080000
   4063   4065     1   0.10969 276646.080000
   4066   4070     1   0.10969 276646.080000
   4067   4069     1   0.10969 276646.080000
   4068   4071     1   0.10961 277566.560000
   4073   4079     1   0.09730 310787.520000
   4074   4077     1   0.09730 310787.520000
   4075   4078     1   0.09730 310787.520000
   4076   4080     1   0.10969 276646.080000
   4076   4081     1   0.10969 276646.080000
   4082   4083     1   0.09730 310787.520000
   4085   4087     1   0.10969 276646.080000
   4086   4088     1   0.10969 276646.080000
   4089   4093     1   0.10969 276646.080000
   4090   4092     1   0.10969 276646.080000
   4091   4094     1   0.10961 277566.560000
   4096   4102     1   0.09730 310787.520000
   4097   4100     1   0.09730 310787.520000
   4098   4101     1   0.09730 310787.520000
   4099   4103     1   0.10969 276646.080000
   4099   4104     1   0.10969 276646.080000
   4105   4106     1   0.09730 310787.520000
   4108   4110     1   0.10969 276646.080000
   4109   4111     1   0.10969 276646.080000
   4112   4116     1   0.10969 276646.080000
   4113   4115     1   0.10969 276646.080000
   4114   4117     1   0.10961 277566.560000
   4119   4125     1   0.09730 310787.520000
   4120   4123     1   0.09730 310787.520000
   4121   4124     1   0.09730 310787.520000
   4122   4126     1   0.10969 276646.080000
   4122   4127     1   0.10969 276646.080000
   4128   4129     1   0.09730 310787.520000
   4131   4133     1   0.10969 276646.080000
   4132   4134     1   0.10969 276646.080000
   4135   4139     1   0.10969 276646.080000
   4136   4138     1   0.10969 276646.080000
   4137   4140     1   0.10961 277566.560000
   4142   4148     1   0.09730 310787.520000
   4143   4146     1   0.09730 310787.520000
   4144   4147     1   0.09730 310787.520000
   4145   4149     1   0.10969 276646.080000
   4145   4150     1   0.10969 276646.080000
   4151   4152     1   0.09730 310787.520000
   4154   4156     1   0.10969 276646.080000
   4155   4157     1   0.10969 276646.080000
   4158   4162     1   0.10969 276646.080000
   4159   4161     1   0.10969 276646.080000
   4160   4163     1   0.10961 277566.560000
   4165   4171     1   0.09730 310787.520000
   4166   4169     1   0.09730 310787.520000
   4167   4170     1   0.09730 310787.520000
   4168   4172     1   0.10969 276646.080000
   4168   4173     1   0.10969 276646.080000
   4174   4175     1   0.09730 310787.520000
   4177   4179     1   0.10969 276646.080000
   4178   4180     1   0.10969 276646.080000
   4181   4185     1   0.10969 276646.080000
   4182   4184     1   0.10969 276646.080000
   4183   4186     1   0.10961 277566.560000
   4188   4194     1   0.09730 310787.520000
   4189   4192     1   0.09730 310787.520000
   4190   4193     1   0.09730 310787.520000
   4191   4195     1   0.10969 276646.080000
   4191   4196     1   0.10969 276646.080000
   4197   4198     1   0.09730 310787.520000
   4200   4202     1   0.10969 276646.080000
   4201   4203     1   0.10969 276646.080000
   4204   4208     1   0.10969 276646.080000
   4205   4207     1   0.10969 276646.080000
   4206   4209     1   0.10961 277566.560000
   4211   4217     1   0.09730 310787.520000
   4212   4215     1   0.09730 310787.520000
   4213   4216     1   0.09730 310787.520000
   4214   4218     1   0.10969 276646.080000
   4214   4219     1   0.10969 276646.080000
   4220   4221     1   0.09730 310787.520000
   4223   4225     1   0.10969 276646.080000
   4224   4226     1   0.10969 276646.080000
   4227   4231     1   0.10969 276646.080000
   4228   4230     1   0.10969 276646.080000
   4229   4232     1   0.10961 277566.560000
   4234   4240     1   0.09730 310787.520000
   4235   4238     1   0.09730 310787.520000
   4236   4239     1   0.09730 310787.520000
   4237   4241     1   0.10969 276646.080000
   4237   4242     1   0.10969 276646.080000
   4243   4244     1   0.09730 310787.520000
   4246   4248     1   0.10969 276646.080000
   4247   4249     1   0.10969 276646.080000
   4250   4254     1   0.10969 276646.080000
   4251   4253     1   0.10969 276646.080000
   4252   4255     1   0.10961 277566.560000
   4257   4263     1   0.09730 310787.520000
   4258   4261     1   0.09730 310787.520000
   4259   4262     1   0.09730 310787.520000
   4260   4264     1   0.10969 276646.080000
   4260   4265     1   0.10969 276646.080000
   4266   4267     1   0.09730 310787.520000
   4269   4271     1   0.10969 276646.080000
   4270   4272     1   0.10969 276646.080000
   4273   4277     1   0.10969 276646.080000
   4274   4276     1   0.10969 276646.080000
   4275   4278     1   0.10961 277566.560000
   4280   4286     1   0.09730 310787.520000
   4281   4284     1   0.09730 310787.520000
   4282   4285     1   0.09730 310787.520000
   4283   4287     1   0.10969 276646.080000
   4283   4288     1   0.10969 276646.080000
   4289   4290     1   0.09730 310787.520000
   4292   4294     1   0.10969 276646.080000
   4293   4295     1   0.10969 276646.080000
   4296   4300     1   0.10969 276646.080000
   4297   4299     1   0.10969 276646.080000
   4298   4301     1   0.10961 277566.560000
   4303   4309     1   0.09730 310787.520000
   4304   4307     1   0.09730 310787.520000
   4305   4308     1   0.09730 310787.520000
   4306   4310     1   0.10969 276646.080000
   4306   4311     1   0.10969 276646.080000
   4312   4313     1   0.09730 310787.520000
   4315   4317     1   0.10969 276646.080000
   4316   4318     1   0.10969 276646.080000
   4319   4323     1   0.10969 276646.080000
   4320   4322     1   0.10969 276646.080000
   4321   4324     1   0.10961 277566.560000
   4326   4332     1   0.09730 310787.520000
   4327   4330     1   0.09730 310787.520000
   4328   4331     1   0.09730 310787.520000
   4329   4333     1   0.10969 276646.080000
   4329   4334     1   0.10969 276646.080000
   4335   4336     1   0.09730 310787.520000
   4338   4340     1   0.10969 276646.080000
   4339   4341     1   0.10969 276646.080000
   4342   4346     1   0.10969 276646.080000
   4343   4345     1   0.10969 276646.080000
   4344   4347     1   0.10961 277566.560000
   4349   4355     1   0.09730 310787.520000
   4350   4353     1   0.09730 310787.520000
   4351   4354     1   0.09730 310787.520000
   4352   4356     1   0.10969 276646.080000
   4352   4357     1   0.10969 276646.080000
   4358   4359     1   0.09730 310787.520000
   4361   4363     1   0.10969 276646.080000
   4362   4364     1   0.10969 276646.080000
   4365   4369     1   0.10969 276646.080000
   4366   4368     1   0.10969 276646.080000
   4367   4370     1   0.10961 277566.560000
   4372   4378     1   0.09730 310787.520000
   4373   4376     1   0.09730 310787.520000
   4374   4377     1   0.09730 310787.520000
   4375   4379     1   0.10969 276646.080000
   4375   4380     1   0.10969 276646.080000
   4381   4382     1   0.09730 310787.520000
   4384   4386     1   0.10969 276646.080000
   4385   4387     1   0.10969 276646.080000
   4388   4392     1   0.10969 276646.080000
   4389   4391     1   0.10969 276646.080000
   4390   4393     1   0.10961 277566.560000
   4395   4401     1   0.09730 310787.520000
   4396   4399     1   0.09730 310787.520000
   4397   4400     1   0.09730 310787.520000
   4398   4402     1   0.10969 276646.080000
   4398   4403     1   0.10969 276646.080000
   4404   4405     1   0.09730 310787.520000
   4407   4409     1   0.10969 276646.080000
   4408   4410     1   0.10969 276646.080000
   4411   4415     1   0.10969 276646.080000
   4412   4414     1   0.10969 276646.080000
   4413   4416     1   0.10961 277566.560000
   4418   4424     1   0.09730 310787.520000
   4419   4422     1   0.09730 310787.520000
   4420   4423     1   0.09730 310787.520000
   4421   4425     1   0.10969 276646.080000
   4421   4426     1   0.10969 276646.080000
   4427   4428     1   0.09730 310787.520000
   4430   4432     1   0.10969 276646.080000
   4431   4433     1   0.10969 276646.080000
   4434   4438     1   0.10969 276646.080000
   4435   4437     1   0.10969 276646.080000
   4436   4439     1   0.10961 277566.560000
   4441   4447     1   0.09730 310787.520000
   4442   4445     1   0.09730 310787.520000
   4443   4446     1   0.09730 310787.520000
   4444   4448     1   0.10969 276646.080000
   4444   4449     1   0.10969 276646.080000
   4450   4451     1   0.09730 310787.520000
   4453   4455     1   0.10969 276646.080000
   4454   4456     1   0.10969 276646.080000
   4457   4461     1   0.10969 276646.080000
   4458   4460     1   0.10969 276646.080000
   4459   4462     1   0.10961 277566.560000
   4464   4470     1   0.09730 310787.520000
   4465   4468     1   0.09730 310787.520000
   4466   4469     1   0.09730 310787.520000
   4467   4471     1   0.10969 276646.080000
   4467   4472     1   0.10969 276646.080000
   4473   4474     1   0.09730 310787.520000
   4476   4478     1   0.10969 276646.080000
   4477   4479     1   0.10969 276646.080000
   4480   4484     1   0.10969 276646.080000
   4481   4483     1   0.10969 276646.080000
   4482   4485     1   0.10961 277566.560000
   4487   4493     1   0.09730 310787.520000
   4488   4491     1   0.09730 310787.520000
   4489   4492     1   0.09730 310787.520000
   4490   4494     1   0.10969 276646.080000
   4490   4495     1   0.10969 276646.080000
   4496   4497     1   0.09730 310787.520000
   4499   4501     1   0.10969 276646.080000
   4500   4502     1   0.10969 276646.080000
   4503   4507     1   0.10969 276646.080000
   4504   4506     1   0.10969 276646.080000
   4505   4508     1   0.10961 277566.560000
   4510   4516     1   0.09730 310787.520000
   4511   4514     1   0.09730 310787.520000
   4512   4515     1   0.09730 310787.520000
   4513   4517     1   0.10969 276646.080000
   4513   4518     1   0.10969 276646.080000
   4519   4520     1   0.09730 310787.520000
   4522   4524     1   0.10969 276646.080000
   4523   4525     1   0.10969 276646.080000
   4526   4530     1   0.10969 276646.080000
   4527   4529     1   0.10969 276646.080000
   4528   4531     1   0.10961 277566.560000
   4533   4539     1   0.09730 310787.520000
   4534   4537     1   0.09730 310787.520000
   4535   4538     1   0.09730 310787.520000
   4536   4540     1   0.10969 276646.080000
   4536   4541     1   0.10969 276646.080000
   4542   4543     1   0.09730 310787.520000
   4545   4547     1   0.10969 276646.080000
   4546   4548     1   0.10969 276646.080000
   4549   4553     1   0.10969 276646.080000
   4550   4552     1   0.10969 276646.080000
   4551   4554     1   0.10961 277566.560000
   4556   4562     1   0.09730 310787.520000
   4557   4560     1   0.09730 310787.520000
   4558   4561     1   0.09730 310787.520000
   4559   4563     1   0.10969 276646.080000
   4559   4564     1   0.10969 276646.080000
   4565   4566     1   0.09730 310787.520000
   4568   4570     1   0.10969 276646.080000
   4569   4571     1   0.10969 276646.080000
   4572   4576     1   0.10969 276646.080000
   4573   4575     1   0.10969 276646.080000
   4574   4577     1   0.10961 277566.560000
   4579   4585     1   0.09730 310787.520000
   4580   4583     1   0.09730 310787.520000
   4581   4584     1   0.09730 310787.520000
   4582   4586     1   0.10969 276646.080000
   4582   4587     1   0.10969 276646.080000
   4588   4589     1   0.09730 310787.520000
   4591   4593     1   0.10969 276646.080000
   4592   4594     1   0.10969 276646.080000
   4595   4599     1   0.10969 276646.080000
   4596   4598     1   0.10969 276646.080000
   4597   4600     1   0.10961 277566.560000
   4602   4608     1   0.09730 310787.520000
   4603   4606     1   0.09730 310787.520000
   4604   4607     1   0.09730 310787.520000
   4605   4609     1   0.10969 276646.080000
   4605   4610     1   0.10969 276646.080000
   4611   4612     1   0.09730 310787.520000
   4614   4616     1   0.10969 276646.080000
   4615   4617     1   0.10969 276646.080000
   4618   4622     1   0.10969 276646.080000
   4619   4621     1   0.10969 276646.080000
   4620   4623     1   0.10961 277566.560000
   4625   4631     1   0.09730 310787.520000
   4626   4629     1   0.09730 310787.520000
   4627   4630     1   0.09730 310787.520000
   4628   4632     1   0.10969 276646.080000
   4628   4633     1   0.10969 276646.080000
   4634   4635     1   0.09730 310787.520000
   4637   4639     1   0.10969 276646.080000
   4638   4640     1   0.10969 276646.080000
   4641   4645     1   0.10969 276646.080000
   4642   4644     1   0.10969 276646.080000
   4643   4646     1   0.10961 277566.560000
   4648   4654     1   0.09730 310787.520000
   4649   4652     1   0.09730 310787.520000
   4650   4653     1   0.09730 310787.520000
   4651   4655     1   0.10969 276646.080000
   4651   4656     1   0.10969 276646.080000
   4657   4658     1   0.09730 310787.520000
   4660   4662     1   0.10969 276646.080000
   4661   4663     1   0.10969 276646.080000
   4664   4668     1   0.10969 276646.080000
   4665   4667     1   0.10969 276646.080000
   4666   4669     1   0.10961 277566.560000
   4671   4677     1   0.09730 310787.520000
   4672   4675     1   0.09730 310787.520000
   4673   4676     1   0.09730 310787.520000
   4674   4678     1   0.10969 276646.080000
   4674   4679     1   0.10969 276646.080000
   4680   4681     1   0.09730 310787.520000
   4683   4685     1   0.10969 276646.080000
   4684   4686     1   0.10969 276646.080000
   4687   4691     1   0.10969 276646.080000
   4688   4690     1   0.10969 276646.080000
   4689   4692     1   0.10961 277566.560000
   4694   4700     1   0.09730 310787.520000
   4695   4698     1   0.09730 310787.520000
   4696   4699     1   0.09730 310787.520000
   4697   4701     1   0.10969 276646.080000
   4697   4702     1   0.10969 276646.080000
   4703   4704     1   0.09730 310787.520000
   4706   4708     1   0.10969 276646.080000
   4707   4709     1   0.10969 276646.080000
   4710   4714     1   0.10969 276646.080000
   4711   4713     1   0.10969 276646.080000
   4712   4715     1   0.10961 277566.560000
   4717   4723     1   0.09730 310787.520000
   4718   4721     1   0.09730 310787.520000
   4719   4722     1   0.09730 310787.520000
   4720   4724     1   0.10969 276646.080000
   4720   4725     1   0.10969 276646.080000
   4726   4727     1   0.09730 310787.520000
   4729   4731     1   0.10969 276646.080000
   4730   4732     1   0.10969 276646.080000
   4733   4737     1   0.10969 276646.080000
   4734   4736     1   0.10969 276646.080000
   4735   4738     1   0.10961 277566.560000
   4740   4746     1   0.09730 310787.520000
   4741   4744     1   0.09730 310787.520000
   4742   4745     1   0.09730 310787.520000
   4743   4747     1   0.10969 276646.080000
   4743   4748     1   0.10969 276646.080000
   4749   4750     1   0.09730 310787.520000
   4752   4754     1   0.10969 276646.080000
   4753   4755     1   0.10969 276646.080000
   4756   4760     1   0.10969 276646.080000
   4757   4759     1   0.10969 276646.080000
   4758   4761     1   0.10961 277566.560000
   4763   4769     1   0.09730 310787.520000
   4764   4767     1   0.09730 310787.520000
   4765   4768     1   0.09730 310787.520000
   4766   4770     1   0.10969 276646.080000
   4766   4771     1   0.10969 276646.080000
   4772   4773     1   0.09730 310787.520000
   4775   4777     1   0.10969 276646.080000
   4776   4778     1   0.10969 276646.080000
   4779   4783     1   0.10969 276646.080000
   4780   4782     1   0.10969 276646.080000
   4781   4784     1   0.10961 277566.560000
   4786   4792     1   0.09730 310787.520000
   4787   4790     1   0.09730 310787.520000
   4788   4791     1   0.09730 310787.520000
   4789   4793     1   0.10969 276646.080000
   4789   4794     1   0.10969 276646.080000
   4795   4796     1   0.09730 310787.520000
   4798   4800     1   0.10969 276646.080000
   4799   4801     1   0.10969 276646.080000
   4802   4806     1   0.10969 276646.080000
   4803   4805     1   0.10969 276646.080000
   4804   4807     1   0.10961 277566.560000
   4809   4815     1   0.09730 310787.520000
   4810   4813     1   0.09730 310787.520000
   4811   4814     1   0.09730 310787.520000
   4812   4816     1   0.10969 276646.080000
   4812   4817     1   0.10969 276646.080000
   4818   4819     1   0.09730 310787.520000
   4821   4823     1   0.10969 276646.080000
   4822   4824     1   0.10969 276646.080000
   4825   4829     1   0.10969 276646.080000
   4826   4828     1   0.10969 276646.080000
   4827   4830     1   0.10961 277566.560000
   4832   4838     1   0.09730 310787.520000
   4833   4836     1   0.09730 310787.520000
   4834   4837     1   0.09730 310787.520000
   4835   4839     1   0.10969 276646.080000
   4835   4840     1   0.10969 276646.080000
   4841   4842     1   0.09730 310787.520000
   4844   4846     1   0.10969 276646.080000
   4845   4847     1   0.10969 276646.080000
   4848   4852     1   0.10969 276646.080000
   4849   4851     1   0.10969 276646.080000
   4850   4853     1   0.10961 277566.560000
   4855   4861     1   0.09730 310787.520000
   4856   4859     1   0.09730 310787.520000
   4857   4860     1   0.09730 310787.520000
   4858   4862     1   0.10969 276646.080000
   4858   4863     1   0.10969 276646.080000
   4864   4865     1   0.09730 310787.520000
   4867   4869     1   0.10969 276646.080000
   4868   4870     1   0.10969 276646.080000
   4871   4875     1   0.10969 276646.080000
   4872   4874     1   0.10969 276646.080000
   4873   4876     1   0.10961 277566.560000
   4878   4884     1   0.09730 310787.520000
   4879   4882     1   0.09730 310787.520000
   4880   4883     1   0.09730 310787.520000
   4881   4885     1   0.10969 276646.080000
   4881   4886     1   0.10969 276646.080000
   4887   4888     1   0.09730 310787.520000
   4890   4892     1   0.10969 276646.080000
   4891   4893     1   0.10969 276646.080000
   4894   4898     1   0.10969 276646.080000
   4895   4897     1   0.10969 276646.080000
   4896   4899     1   0.10961 277566.560000
   4901   4907     1   0.09730 310787.520000
   4902   4905     1   0.09730 310787.520000
   4903   4906     1   0.09730 310787.520000
   4904   4908     1   0.10969 276646.080000
   4904   4909     1   0.10969 276646.080000
   4910   4911     1   0.09730 310787.520000
   4913   4915     1   0.10969 276646.080000
   4914   4916     1   0.10969 276646.080000
   4917   4921     1   0.10969 276646.080000
   4918   4920     1   0.10969 276646.080000
   4919   4922     1   0.10961 277566.560000
   4924   4930     1   0.09730 310787.520000
   4925   4928     1   0.09730 310787.520000
   4926   4929     1   0.09730 310787.520000
   4927   4931     1   0.10969 276646.080000
   4927   4932     1   0.10969 276646.080000
   4933   4934     1   0.09730 310787.520000
   4936   4938     1   0.10969 276646.080000
   4937   4939     1   0.10969 276646.080000
   4940   4944     1   0.10969 276646.080000
   4941   4943     1   0.10969 276646.080000
   4942   4945     1   0.10961 277566.560000
   4947   4953     1   0.09730 310787.520000
   4948   4951     1   0.09730 310787.520000
   4949   4952     1   0.09730 310787.520000
   4950   4954     1   0.10969 276646.080000
   4950   4955     1   0.10969 276646.080000
   4956   4957     1   0.09730 310787.520000
   4959   4961     1   0.10969 276646.080000
   4960   4962     1   0.10969 276646.080000
   4963   4967     1   0.10969 276646.080000
   4964   4966     1   0.10969 276646.080000
   4965   4968     1   0.10961 277566.560000
   4970   4976     1   0.09730 310787.520000
   4971   4974     1   0.09730 310787.520000
   4972   4975     1   0.09730 310787.520000
   4973   4977     1   0.10969 276646.080000
   4973   4978     1   0.10969 276646.080000
   4979   4980     1   0.09730 310787.520000
   4982   4984     1   0.10969 276646.080000
   4983   4985     1   0.10969 276646.080000
   4986   4990     1   0.10969 276646.080000
   4987   4989     1   0.10969 276646.080000
   4988   4991     1   0.10961 277566.560000
   4993   4999     1   0.09730 310787.520000
   4994   4997     1   0.09730 310787.520000
   4995   4998     1   0.09730 310787.520000
   4996   5000     1   0.10969 276646.080000
   4996   5001     1   0.10969 276646.080000
   5002   5003     1   0.09730 310787.520000
   5005   5007     1   0.10969 276646.080000
   5006   5008     1   0.10969 276646.080000
   5009   5013     1   0.10969 276646.080000
   5010   5012     1   0.10969 276646.080000
   5011   5014     1   0.10961 277566.560000
   5016   5022     1   0.09730 310787.520000
   5017   5020     1   0.09730 310787.520000
   5018   5021     1   0.09730 310787.520000
   5019   5023     1   0.10969 276646.080000
   5019   5024     1   0.10969 276646.080000
   5025   5026     1   0.09730 310787.520000

[ pairs ]
;    ai     aj funct         c0         c1         c2         c3
      1     26     1
      1     20     1
      1     23     1
      2     17     1
      2     11     1
      2    118     1
      5     14     1
      5     11     1
      5     58     1
      8     14     1
      8     17     1
      8     88     1
     11     79     1
     14    109     1
     17     49     1
     20     40     1
     23     70     1
     26    100     1
     30     55     1
     30     52     1
     30     49     1
     31     46     1
     31     40     1
     31    178     1
     34     43     1
     34     40     1
     34    148     1
     37     43     1
     37     46     1
     37     58     1
     43    169     1
     46    139     1
     52    130     1
     55    160     1
     60     85     1
     60     82     1
     60     79     1
     61     76     1
     61     70     1
     61    238     1
     64     73     1
     64     70     1
     64    208     1
     67     73     1
     67     76     1
     67     88     1
     73    229     1
     76    199     1
     82    190     1
     85    220     1
     90    115     1
     90    112     1
     90    109     1
     91    106     1
     91    100     1
     91    298     1
     94    103     1
     94    100     1
     94    268     1
     97    103     1
     97    106     1
     97    118     1
    103    289     1
    106    259     1
    112    250     1
    115    280     1
    120    145     1
    120    142     1
    120    139     1
    121    136     1
    121    130     1
    121    358     1
    124    133     1
    124    130     1
    124    328     1
    127    133     1
    127    136     1
    127    148     1
    133    349     1
    136    319     1
    142    310     1
    145    340     1
    150    175     1
    150    172     1
    150    169     1
    151    166     1
    151    160     1
    151    418     1
    154    163     1
    154    160     1
    154    388     1
    157    163     1
    157    166     1
    157    178     1
    163    409     1
    166    379     1
    172    370     1
    175    400     1
    180    205     1
    180    202     1
    180    199     1
    181    196     1
    181    190     1
    181    478     1
    184    193     1
    184    190     1
    184    448     1
    187    193     1
    187    196     1
    187    208     1
    193    469     1
    196    439     1
    202    430     1
    205    460     1
    210    235     1
    210    232     1
    210    229     1
    211    226     1
    211    220     1
    211    538     1
    214    223     1
    214    220     1
    214    508     1
    217    223     1
    217    226     1
    217    238     1
    223    529     1
    226    499     1
    232    490     1
    235    520     1
    240    265     1
    240    262     1
    240    259     1
    241    256     1
    241    250     1
    241    598     1
    244    253     1
    244    250     1
    244    568     1
    247    253     1
    247    256     1
    247    268     1
    253    589     1
    256    559     1
    262    550     1
    265    580     1
    270    295     1
    270    292     1
    270    289     1
    271    286     1
    271    280     1
    271    658     1
    274    283     1
    274    280     1
    274    628     1
    277    283     1
    277    286     1
    277    298     1
    283    649     1
    286    619     1
    292    610     1
    295    640     1
    300    325     1
    300    322     1
    300    319     1
    301    316     1
    301    310     1
    301    718     1
    304    313     1
    304    310     1
    304    688     1
    307    313     1
    307    316     1
    307    328     1
    313    709     1
    316    679     1
    322    670     1
    325    700     1
    330    355     1
    330    352     1
    330    349     1
    331    346     1
    331    340     1
    331    778     1
    334    343     1
    334    340     1
    334    748     1
    337    343     1
    337    346     1
    337    358     1
    343    769     1
    346    739     1
    352    730     1
    355    760     1
    360    385     1
    360    382     1
    360    379     1
    361    376     1
    361    370     1
    361    838     1
    364    373     1
    364    370     1
    364    808     1
    367    373     1
    367    376     1
    367    388     1
    373    829     1
    376    799     1
    382    790     1
    385    820     1
    390    415     1
    390    412     1
    390    409     1
    391    406     1
    391    400     1
    391    898     1
    394    403     1
    394    400     1
    394    868     1
    397    403     1
    397    406     1
    397    418     1
    403    889     1
    406    859     1
    412    850     1
    415    880     1
    420    445     1
    420    442     1
    420    439     1
    421    436     1
    421    430     1
    421    958     1
    424    433     1
    424    430     1
    424    928     1
    427    433     1
    427    436     1
    427    448     1
    433    949     1
    436    919     1
    442    910     1
    445    940     1
    450    475     1
    450    472     1
    450    469     1
    451    466     1
    451    460     1
    451   1018     1
    454    463     1
    454    460     1
    454    988     1
    457    463     1
    457    466     1
    457    478     1
    463   1009     1
    466    979     1
    472    970     1
    475   1000     1
    480    505     1
    480    502     1
    480    499     1
    481    496     1
    481    490     1
    481   1078     1
    484    493     1
    484    490     1
    484   1048     1
    487    493     1
    487    496     1
    487    508     1
    493   1069     1
    496   1039     1
    502   1030     1
    505   1060     1
    510    535     1
    510    532     1
    510    529     1
    511    526     1
    511    520     1
    511   1138     1
    514    523     1
    514    520     1
    514   1108     1
    517    523     1
    517    526     1
    517    538     1
    523   1129     1
    526   1099     1
    532   1090     1
    535   1120     1
    540    565     1
    540    562     1
    540    559     1
    541    556     1
    541    550     1
    541   1198     1
    544    553     1
    544    550     1
    544   1168     1
    547    553     1
    547    556     1
    547    568     1
    553   1189     1
    556   1159     1
    562   1150     1
    565   1180     1
    570    595     1
    570    592     1
    570    589     1
    571    586     1
    571    580     1
    571   1258     1
    574    583     1
    574    580     1
    574   1228     1
    577    583     1
    577    586     1
    577    598     1
    583   1249     1
    586   1219     1
    592   1210     1
    595   1240     1
    600    625     1
    600    622     1
    600    619     1
    601    616     1
    601    610     1
    601   1318     1
    604    613     1
    604    610     1
    604   1288     1
    607    613     1
    607    616     1
    607    628     1
    613   1309     1
    616   1279     1
    622   1270     1
    625   1300     1
    630    655     1
    630    652     1
    630    649     1
    631    646     1
    631    640     1
    631   1378     1
    634    643     1
    634    640     1
    634   1348     1
    637    643     1
    637    646     1
    637    658     1
    643   1369     1
    646   1339     1
    652   1330     1
    655   1360     1
    660    685     1
    660    682     1
    660    679     1
    661    676     1
    661    670     1
    661   1438     1
    664    673     1
    664    670     1
    664   1408     1
    667    673     1
    667    676     1
    667    688     1
    673   1429     1
    676   1399     1
    682   1390     1
    685   1420     1
    690    715     1
    690    712     1
    690    709     1
    691    706     1
    691    700     1
    691   1498     1
    694    703     1
    694    700     1
    694   1468     1
    697    703     1
    697    706     1
    697    718     1
    703   1489     1
    706   1459     1
    712   1450     1
    715   1480     1
    720    745     1
    720    742     1
    720    739     1
    721    736     1
    721    730     1
    721   1558     1
    724    733     1
    724    730     1
    724   1528     1
    727    733     1
    727    736     1
    727    748     1
    733   1549     1
    736   1519     1
    742   1510     1
    745   1540     1
    750    775     1
    750    772     1
    750    769     1
    751    766     1
    751    760     1
    751   1618     1
    754    763     1
    754    760     1
    754   1588     1
    757    763     1
    757    766     1
    757    778     1
    763   1609     1
    766   1579     1
    772   1570     1
    775   1600     1
    780    805     1
    780    802     1
    780    799     1
    781    796     1
    781    790     1
    781   1678     1
    784    793     1
    784    790     1
    784   1648     1
    787    793     1
    787    796     1
    787    808     1
    793   1669     1
    796   1639     1
    802   1630     1
    805   1660     1
    810    835     1
    810    832     1
    810    829     1
    811    826     1
    811    820     1
    811   1738     1
    814    823     1
    814    820     1
    814   1708     1
    817    823     1
    817    826     1
    817    838     1
    823   1729     1
    826   1699     1
    832   1690     1
    835   1720     1
    840    865     1
    840    862     1
    840    859     1
    841    856     1
    841    850     1
    841   1798     1
    844    853     1
    844    850     1
    844   1768     1
    847    853     1
    847    856     1
    847    868     1
    853   1789     1
    856   1759     1
    862   1750     1
    865   1780     1
    870    895     1
    870    892     1
    870    889     1
    871    886     1
    871    880     1
    871   1858     1
    874    883     1
    874    880     1
    874   1828     1
    877    883     1
    877    886     1
    877    898     1
    883   1849     1
    886   1819     1
    892   1810     1
    895   1840     1
    900    925     1
    900    922     1
    900    919     1
    901    916     1
    901    910     1
    901   1918     1
    904    913     1
    904    910     1
    904   1888     1
    907    913     1
    907    916     1
    907    928     1
    913   1909     1
    916   1879     1
    922   1870     1
    925   1900     1
    930    955     1
    930    952     1
    930    949     1
    931    946     1
    931    940     1
    931   1978     1
    934    943     1
    934    940     1
    934   1948     1
    937    943     1
    937    946     1
    937    958     1
    943   1969     1
    946   1939     1
    952   1930     1
    955   1960     1
    960    985     1
    960    982     1
    960    979     1
    961    976     1
    961    970     1
    961   2038     1
    964    973     1
    964    970     1
    964   2008     1
    967    973     1
    967    976     1
    967    988     1
    973   2029     1
    976   1999     1
    982   1990     1
    985   2020     1
    990   1015     1
    990   1012     1
    990   1009     1
    991   1006     1
    991   1000     1
    991   2098     1
    994   1003     1
    994   1000     1
    994   2068     1
    997   1003     1
    997   1006     1
    997   1018     1
   1003   2089     1
   1006   2059     1
   1012   2050     1
   1015   2080     1
   1020   1045     1
   1020   1042     1
   1020   1039     1
   1021   1036     1
   1021   1030     1
   1021   2158     1
   1024   1033     1
   1024   1030     1
   1024   2128     1
   1027   1033     1
   1027   1036     1
   1027   1048     1
   1033   2149     1
   1036   2119     1
   1042   2110     1
   1045   2140     1
   1050   1075     1
   1050   1072     1
   1050   1069     1
   1051   1066     1
   1051   1060     1
   1051   2218     1
   1054   1063     1
   1054   1060     1
   1054   2188     1
   1057   1063     1
   1057   1066     1
   1057   1078     1
   1063   2209     1
   1066   2179     1
   1072   2170     1
   1075   2200     1
   1080   1105     1
   1080   1102     1
   1080   1099     1
   1081   1096     1
   1081   1090     1
   1081   2278     1
   1084   1093     1
   1084   1090     1
   1084   2248     1
   1087   1093     1
   1087   1096     1
   1087   1108     1
   1093   2269     1
   1096   2239     1
   1102   2230     1
   1105   2260     1
   1110   1135     1
   1110   1132     1
   1110   1129     1
   1111   1126     1
   1111   1120     1
   1111   2338     1
   1114   1123     1
   1114   1120     1
   1114   2308     1
   1117   1123     1
   1117   1126     1
   1117   1138     1
   1123   2329     1
   1126   2299     1
   1132   2290     1
   1135   2320     1
   1140   1165     1
   1140   1162     1
   1140   1159     1
   1141   1156     1
   1141   1150     1
   1141   2398     1
   1144   1153     1
   1144   1150     1
   1144   2368     1
   1147   1153     1
   1147   1156     1
   1147   1168     1
   1153   2389     1
   1156   2359     1
   1162   2350     1
   1165   2380     1
   1170   1195     1
   1170   1192     1
   1170   1189     1
   1171   1186     1
   1171   1180     1
   1171   2458     1
   1174   1183     1
   1174   1180     1
   1174   2428     1
   1177   1183     1
   1177   1186     1
   1177   1198     1
   1183   2449     1
   1186   2419     1
   1192   2410     1
   1195   2440     1
   1200   1225     1
   1200   1222     1
   1200   1219     1
   1201   1216     1
   1201   1210     1
   1201   2518     1
   1204   1213     1
   1204   1210     1
   1204   2488     1
   1207   1213     1
   1207   1216     1
   1207   1228     1
   1213   2509     1
   1216   2479     1
   1222   2470     1
   1225   2500     1
   1230   1255     1
   1230   1252     1
   1230   1249     1
   1231   1246     1
   1231   1240     1
   1231   2578     1
   1234   1243     1
   1234   1240     1
   1234   2548     1
   1237   1243     1
   1237   1246     1
   1237   1258     1
   1243   2569     1
   1246   2539     1
   1252   2530     1
   1255   2560     1
   1260   1285     1
   1260   1282     1
   1260   1279     1
   1261   1276     1
   1261   1270     1
   1261   2638     1
   1264   1273     1
   1264   1270     1
   1264   2608     1
   1267   1273     1
   1267   1276     1
   1267   1288     1
   1273   2629     1
   1276   2599     1
   1282   2590     1
   1285   2620     1
   1290   1315     1
   1290   1312     1
   1290   1309     1
   1291   1306     1
   1291   1300     1
   1291   2698     1
   1294   1303     1
   1294   1300     1
   1294   2668     1
   1297   1303     1
   1297   1306     1
   1297   1318     1
   1303   2689     1
   1306   2659     1
   1312   2650     1
   1315   2680     1
   1320   1345     1
   1320   1342     1
   1320   1339     1
   1321   1336     1
   1321   1330     1
   1321   2758     1
   1324   1333     1
   1324   1330     1
   1324   2728     1
   1327   1333     1
   1327   1336     1
   1327   1348     1
   1333   2749     1
   1336   2719     1
   1342   2710     1
   1345   2740     1
   1350   1375     1
   1350   1372     1
   1350   1369     1
   1351   1366     1
   1351   1360     1
   1351   2818     1
   1354   1363     1
   1354   1360     1
   1354   2788     1
   1357   1363     1
   1357   1366     1
   1357   1378     1
   1363   2809     1
   1366   2779     1
   1372   2770     1
   1375   2800     1
   1380   1405     1
   1380   1402     1
   1380   1399     1
   1381   1396     1
   1381   1390     1
   1381   2853     1
   1384   1393     1
   1384   1390     1
   1384   2830     1
   1387   1393     1
   1387   1396     1
   1387   1408     1
   1393   2849     1
   1396   2826     1
   1402   2825     1
   1402   2842     1
   1405   2865     1
   1405   2848     1
   1410   1435     1
   1410   1432     1
   1410   1429     1
   1411   1426     1
   1411   1420     1
   1411   2899     1
   1414   1423     1
   1414   1420     1
   1414   2876     1
   1417   1423     1
   1417   1426     1
   1417   1438     1
   1423   2895     1
   1426   2872     1
   1432   2871     1
   1432   2888     1
   1435   2911     1
   1435   2894     1
   1440   1465     1
   1440   1462     1
   1440   1459     1
   1441   1456     1
   1441   1450     1
   1441   2945     1
   1444   1453     1
   1444   1450     1
   1444   2922     1
   1447   1453     1
   1447   1456     1
   1447   1468     1
   1453   2941     1
   1456   2918     1
   1462   2917     1
   1462   2934     1
   1465   2957     1
   1465   2940     1
   1470   1495     1
   1470   1492     1
   1470   1489     1
   1471   1486     1
   1471   1480     1
   1471   2991     1
   1474   1483     1
   1474   1480     1
   1474   2968     1
   1477   1483     1
   1477   1486     1
   1477   1498     1
   1483   2987     1
   1486   2964     1
   1492   2963     1
   1492   2980     1
   1495   3003     1
   1495   2986     1
   1500   1525     1
   1500   1522     1
   1500   1519     1
   1501   1516     1
   1501   1510     1
   1501   3037     1
   1504   1513     1
   1504   1510     1
   1504   3014     1
   1507   1513     1
   1507   1516     1
   1507   1528     1
   1513   3033     1
   1516   3010     1
   1522   3009     1
   1522   3026     1
   1525   3049     1
   1525   3032     1
   1530   1555     1
   1530   1552     1
   1530   1549     1
   1531   1546     1
   1531   1540     1
   1531   3083     1
   1534   1543     1
   1534   1540     1
   1534   3060     1
   1537   1543     1
   1537   1546     1
   1537   1558     1
   1543   3079     1
   1546   3056     1
   1552   3055     1
   1552   3072     1
   1555   3095     1
   1555   3078     1
   1560   1585     1
   1560   1582     1
   1560   1579     1
   1561   1576     1
   1561   1570     1
   1561   3129     1
   1564   1573     1
   1564   1570     1
   1564   3106     1
   1567   1573     1
   1567   1576     1
   1567   1588     1
   1573   3125     1
   1576   3102     1
   1582   3101     1
   1582   3118     1
   1585   3141     1
   1585   3124     1
   1590   1615     1
   1590   1612     1
   1590   1609     1
   1591   1606     1
   1591   1600     1
   1591   3175     1
   1594   1603     1
   1594   1600     1
   1594   3152     1
   1597   1603     1
   1597   1606     1
   1597   1618     1
   1603   3171     1
   1606   3148     1
   1612   3147     1
   1612   3164     1
   1615   3187     1
   1615   3170     1
   1620   1645     1
   1620   1642     1
   1620   1639     1
   1621   1636     1
   1621   1630     1
   1621   3221     1
   1624   1633     1
   1624   1630     1
   1624   3198     1
   1627   1633     1
   1627   1636     1
   1627   1648     1
   1633   3217     1
   1636   3194     1
   1642   3193     1
   1642   3210     1
   1645   3233     1
   1645   3216     1
   1650   1675     1
   1650   1672     1
   1650   1669     1
   1651   1666     1
   1651   1660     1
   1651   3267     1
   1654   1663     1
   1654   1660     1
   1654   3244     1
   1657   1663     1
   1657   1666     1
   1657   1678     1
   1663   3263     1
   1666   3240     1
   1672   3239     1
   1672   3256     1
   1675   3279     1
   1675   3262     1
   1680   1705     1
   1680   1702     1
   1680   1699     1
   1681   1696     1
   1681   1690     1
   1681   3313     1
   1684   1693     1
   1684   1690     1
   1684   3290     1
   1687   1693     1
   1687   1696     1
   1687   1708     1
   1693   3309     1
   1696   3286     1
   1702   3285     1
   1702   3302     1
   1705   3325     1
   1705   3308     1
   1710   1735     1
   1710   1732     1
   1710   1729     1
   1711   1726     1
   1711   1720     1
   1711   3359     1
   1714   1723     1
   1714   1720     1
   1714   3336     1
   1717   1723     1
   1717   1726     1
   1717   1738     1
   1723   3355     1
   1726   3332     1
   1732   3331     1
   1732   3348     1
   1735   3371     1
   1735   3354     1
   1740   1765     1
   1740   1762     1
   1740   1759     1
   1741   1756     1
   1741   1750     1
   1741   3405     1
   1744   1753     1
   1744   1750     1
   1744   3382     1
   1747   1753     1
   1747   1756     1
   1747   1768     1
   1753   3401     1
   1756   3378     1
   1762   3377     1
   1762   3394     1
   1765   3417     1
   1765   3400     1
   1770   1795     1
   1770   1792     1
   1770   1789     1
   1771   1786     1
   1771   1780     1
   1771   3451     1
   1774   1783     1
   1774   1780     1
   1774   3428     1
   1777   1783     1
   1777   1786     1
   1777   1798     1
   1783   3447     1
   1786   3424     1
   1792   3423     1
   1792   3440     1
   1795   3463     1
   1795   3446     1
   1800   1825     1
   1800   1822     1
   1800   1819     1
   1801   1816     1
   1801   1810     1
   1801   3497     1
   1804   1813     1
   1804   1810     1
   1804   3474     1
   1807   1813     1
   1807   1816     1
   1807   1828     1
   1813   3493     1
   1816   3470     1
   1822   3469     1
   1822   3486     1
   1825   3509     1
   1825   3492     1
   1830   1855     1
   1830   1852     1
   1830   1849     1
   1831   1846     1
   1831   1840     1
   1831   3543     1
   1834   1843     1
   1834   1840     1
   1834   3520     1
   1837   1843     1
   1837   1846     1
   1837   1858     1
   1843   3539     1
   1846   3516     1
   1852   3515     1
   1852   3532     1
   1855   3555     1
   1855   3538     1
   1860   1885     1
   1860   1882     1
   1860   1879     1
   1861   1876     1
   1861   1870     1
   1861   3589     1
   1864   1873     1
   1864   1870     1
   1864   3566     1
   1867   1873     1
   1867   1876     1
   1867   1888     1
   1873   3585     1
   1876   3562     1
   1882   3561     1
   1882   3578     1
   1885   3601     1
   1885   3584     1
   1890   1915     1
   1890   1912     1
   1890   1909     1
   1891   1906     1
   1891   1900     1
   1891   3635     1
   1894   1903     1
   1894   1900     1
   1894   3612     1
   1897   1903     1
   1897   1906     1
   1897   1918     1
   1903   3631     1
   1906   3608     1
   1912   3607     1
   1912   3624     1
   1915   3647     1
   1915   3630     1
   1920   1945     1
   1920   1942     1
   1920   1939     1
   1921   1936     1
   1921   1930     1
   1921   3681     1
   1924   1933     1
   1924   1930     1
   1924   3658     1
   1927   1933     1
   1927   1936     1
   1927   1948     1
   1933   3677     1
   1936   3654     1
   1942   3653     1
   1942   3670     1
   1945   3693     1
   1945   3676     1
   1950   1975     1
   1950   1972     1
   1950   1969     1
   1951   1966     1
   1951   1960     1
   1951   3727     1
   1954   1963     1
   1954   1960     1
   1954   3704     1
   1957   1963     1
   1957   1966     1
   1957   1978     1
   1963   3723     1
   1966   3700     1
   1972   3699     1
   1972   3716     1
   1975   3739     1
   1975   3722     1
   1980   2005     1
   1980   2002     1
   1980   1999     1
   1981   1996     1
   1981   1990     1
   1981   3773     1
   1984   1993     1
   1984   1990     1
   1984   3750     1
   1987   1993     1
   1987   1996     1
   1987   2008     1
   1993   3769     1
   1996   3746     1
   2002   3745     1
   2002   3762     1
   2005   3785     1
   2005   3768     1
   2010   2035     1
   2010   2032     1
   2010   2029     1
   2011   2026     1
   2011   2020     1
   2011   3819     1
   2014   2023     1
   2014   2020     1
   2014   3796     1
   2017   2023     1
   2017   2026     1
   2017   2038     1
   2023   3815     1
   2026   3792     1
   2032   3791     1
   2032   3808     1
   2035   3831     1
   2035   3814     1
   2040   2065     1
   2040   2062     1
   2040   2059     1
   2041   2056     1
   2041   2050     1
   2041   3865     1
   2044   2053     1
   2044   2050     1
   2044   3842     1
   2047   2053     1
   2047   2056     1
   2047   2068     1
   2053   3861     1
   2056   3838     1
   2062   3837     1
   2062   3854     1
   2065   3877     1
   2065   3860     1
   2070   2095     1
   2070   2092     1
   2070   2089     1
   2071   2086     1
   2071   2080     1
   2071   3911     1
   2074   2083     1
   2074   2080     1
   2074   3888     1
   2077   2083     1
   2077   2086     1
   2077   2098     1
   2083   3907     1
   2086   3884     1
   2092   3883     1
   2092   3900     1
   2095   3923     1
   2095   3906     1
   2100   2125     1
   2100   2122     1
   2100   2119     1
   2101   2116     1
   2101   2110     1
   2101   3957     1
   2104   2113     1
   2104   2110     1
   2104   3934     1
   2107   2113     1
   2107   2116     1
   2107   2128     1
   2113   3953     1
   2116   3930     1
   2122   3929     1
   2122   3946     1
   2125   3969     1
   2125   3952     1
   2130   2155     1
   2130   2152     1
   2130   2149     1
   2131   2146     1
   2131   2140     1
   2131   4003     1
   2134   2143     1
   2134   2140     1
   2134   3980     1
   2137   2143     1
   2137   2146     1
   2137   2158     1
   2143   3999     1
   2146   3976     1
   2152   3975     1
   2152   3992     1
   2155   4015     1
   2155   3998     1
   2160   2185     1
   2160   2182     1
   2160   2179     1
   2161   2176     1
   2161   2170     1
   2161   4049     1
   2164   2173     1
   2164   2170     1
   2164   4026     1
   2167   2173     1
   2167   2176     1
   2167   2188     1
   2173   4045     1
   2176   4022     1
   2182   4021     1
   2182   4038     1
   2185   4061     1
   2185   4044     1
   2190   2215     1
   2190   2212     1
   2190   2209     1
   2191   2206     1
   2191   2200     1
   2191   4095     1
   2194   2203     1
   2194   2200     1
   2194   4072     1
   2197   2203     1
   2197   2206     1
   2197   2218     1
   2203   4091     1
   2206   4068     1
   2212   4067     1
   2212   4084     1
   2215   4107     1
   2215   4090     1
   2220   2245     1
   2220   2242     1
   2220   2239     1
   2221   2236     1
   2221   2230     1
   2221   4141     1
   2224   2233     1
   2224   2230     1
   2224   4118     1
   2227   2233     1
   2227   2236     1
   2227   2248     1
   2233   4137     1
   2236   4114     1
   2242   4113     1
   2242   4130     1
   2245   4153     1
   2245   4136     1
   2250   2275     1
   2250   2272     1
   2250   2269     1
   2251   2266     1
   2251   2260     1
   2251   4187     1
   2254   2263     1
   2254   2260     1
   2254   4164     1
   2257   2263     1
   2257   2266     1
   2257   2278     1
   2263   4183     1
   2266   4160     1
   2272   4159     1
   2272   4176     1
   2275   4199     1
   2275   4182     1
   2280   2305     1
   2280   2302     1
   2280   2299     1
   2281   2296     1
   2281   2290     1
   2281   4233     1
   2284   2293     1
   2284   2290     1
   2284   4210     1
   2287   2293     1
   2287   2296     1
   2287   2308     1
   2293   4229     1
   2296   4206     1
   2302   4205     1
   2302   4222     1
   2305   4245     1
   2305   4228     1
   2310   2335     1
   2310   2332     1
   2310   2329     1
   2311   2326     1
   2311   2320     1
   2311   4279     1
   2314   2323     1
   2314   2320     1
   2314   4256     1
   2317   2323     1
   2317   2326     1
   2317   2338     1
   2323   4275     1
   2326   4252     1
   2332   4251     1
   2332   4268     1
   2335   4291     1
   2335   4274     1
   2340   2365     1
   2340   2362     1
   2340   2359     1
   2341   2356     1
   2341   2350     1
   2341   4325     1
   2344   2353     1
   2344   2350     1
   2344   4302     1
   2347   2353     1
   2347   2356     1
   2347   2368     1
   2353   4321     1
   2356   4298     1
   2362   4297     1
   2362   4314     1
   2365   4337     1
   2365   4320     1
   2370   2395     1
   2370   2392     1
   2370   2389     1
   2371   2386     1
   2371   2380     1
   2371   4371     1
   2374   2383     1
   2374   2380     1
   2374   4348     1
   2377   2383     1
   2377   2386     1
   2377   2398     1
   2383   4367     1
   2386   4344     1
   2392   4343     1
   2392   4360     1
   2395   4383     1
   2395   4366     1
   2400   2425     1
   2400   2422     1
   2400   2419     1
   2401   2416     1
   2401   2410     1
   2401   4417     1
   2404   2413     1
   2404   2410     1
   2404   4394     1
   2407   2413     1
   2407   2416     1
   2407   2428     1
   2413   4413     1
   2416   4390     1
   2422   4389     1
   2422   4406     1
   2425   4429     1
   2425   4412     1
   2430   2455     1
   2430   2452     1
   2430   2449     1
   2431   2446     1
   2431   2440     1
   2431   4463     1
   2434   2443     1
   2434   2440     1
   2434   4440     1
   2437   2443     1
   2437   2446     1
   2437   2458     1
   2443   4459     1
   2446   4436     1
   2452   4435     1
   2452   4452     1
   2455   4475     1
   2455   4458     1
   2460   2485     1
   2460   2482     1
   2460   2479     1
   2461   2476     1
   2461   2470     1
   2461   4509     1
   2464   2473     1
   2464   2470     1
   2464   4486     1
   2467   2473     1
   2467   2476     1
   2467   2488     1
   2473   4505     1
   2476   4482     1
   2482   4481     1
   2482   4498     1
   2485   4521     1
   2485   4504     1
   2490   2515     1
   2490   2512     1
   2490   2509     1
   2491   2506     1
   2491   2500     1
   2491   4555     1
   2494   2503     1
   2494   2500     1
   2494   4532     1
   2497   2503     1
   2497   2506     1
   2497   2518     1
   2503   4551     1
   2506   4528     1
   2512   4527     1
   2512   4544     1
   2515   4567     1
   2515   4550     1
   2520   2545     1
   2520   2542     1
   2520   2539     1
   2521   2536     1
   2521   2530     1
   2521   4601     1
   2524   2533     1
   2524   2530     1
   2524   4578     1
   2527   2533     1
   2527   2536     1
   2527   2548     1
   2533   4597     1
   2536   4574     1
   2542   4573     1
   2542   4590     1
   2545   4613     1
   2545   4596     1
   2550   2575     1
   2550   2572     1
   2550   2569     1
   2551   2566     1
   2551   2560     1
   2551   4647     1
   2554   2563     1
   2554   2560     1
   2554   4624     1
   2557   2563     1
   2557   2566     1
   2557   2578     1
   2563   4643     1
   2566   4620     1
   2572   4619     1
   2572   4636     1
   2575   4659     1
   2575   4642     1
   2580   2605     1
   2580   2602     1
   2580   2599     1
   2581   2596     1
   2581   2590     1
   2581   4693     1
   2584   2593     1
   2584   2590     1
   2584   4670     1
   2587   2593     1
   2587   2596     1
   2587   2608     1
   2593   4689     1
   2596   4666     1
   2602   4665     1
   2602   4682     1
   2605   4705     1
   2605   4688     1
   2610   2635     1
   2610   2632     1
   2610   2629     1
   2611   2626     1
   2611   2620     1
   2611   4739     1
   2614   2623     1
   2614   2620     1
   2614   4716     1
   2617   2623     1
   2617   2626     1
   2617   2638     1
   2623   4735     1
   2626   4712     1
   2632   4711     1
   2632   4728     1
   2635   4751     1
   2635   4734     1
   2640   2665     1
   2640   2662     1
   2640   2659     1
   2641   2656     1
   2641   2650     1
   2641   4785     1
   2644   2653     1
   2644   2650     1
   2644   4762     1
   2647   2653     1
   2647   2656     1
   2647   2668     1
   2653   4781     1
   2656   4758     1
   2662   4757     1
   2662   4774     1
   2665   4797     1
   2665   4780     1
   2670   2695     1
   2670   2692     1
   2670   2689     1
   2671   2686     1
   2671   2680     1
   2671   4831     1
   2674   2683     1
   2674   2680     1
   2674   4808     1
   2677   2683     1
   2677   2686     1
   2677   2698     1
   2683   4827     1
   2686   4804     1
   2692   4803     1
   2692   4820     1
   2695   4843     1
   2695   4826     1
   2700   2725     1
   2700   2722     1
   2700   2719     1
   2701   2716     1
   2701   2710     1
   2701   4877     1
   2704   2713     1
   2704   2710     1
   2704   4854     1
   2707   2713     1
   2707   2716     1
   2707   2728     1
   2713   4873     1
   2716   4850     1
   2722   4849     1
   2722   4866     1
   2725   4889     1
   2725   4872     1
   2730   2755     1
   2730   2752     1
   2730   2749     1
   2731   2746     1
   2731   2740     1
   2731   4923     1
   2734   2743     1
   2734   2740     1
   2734   4900     1
   2737   2743     1
   2737   2746     1
   2737   2758     1
   2743   4919     1
   2746   4896     1
   2752   4895     1
   2752   4912     1
   2755   4935     1
   2755   4918     1
   2760   2785     1
   2760   2782     1
   2760   2779     1
   2761   2776     1
   2761   2770     1
   2761   4969     1
   2764   2773     1
   2764   2770     1
   2764   4946     1
   2767   2773     1
   2767   2776     1
   2767   2788     1
   2773   4965     1
   2776   4942     1
   2782   4941     1
   2782   4958     1
   2785   4981     1
   2785   4964     1
   2790   2815     1
   2790   2812     1
   2790   2809     1
   2791   2806     1
   2791   2800     1
   2791   5015     1
   2794   2803     1
   2794   2800     1
   2794   4992     1
   2797   2803     1
   2797   2806     1
   2797   2818     1
   2803   5011     1
   2806   4988     1
   2812   4987     1
   2812   5004     1
   2815   5027     1
   2815   5010     1
   2820   2825     1
   2820   2832     1
   2820   2830     1
   2821   2840     1
   2821   2826     1
   2821   2831     1
   2824   2834     1
   2824   2842     1
   2824   2830     1
   2825   2833     1
   2826   2832     1
   2826   2834     1
   2830   2831     1
   2831   2832     1
   2831   2842     1
   2832   2833     1
   2833   2834     1
   2833   2842     1
   2840   2842     1
   2843   2848     1
   2843   2855     1
   2843   2853     1
   2844   2849     1
   2844   2854     1
   2844   2863     1
   2847   2853     1
   2847   2865     1
   2847   2857     1
   2848   2856     1
   2849   2857     1
   2849   2855     1
   2853   2854     1
   2854   2865     1
   2854   2855     1
   2855   2856     1
   2856   2857     1
   2856   2865     1
   2863   2865     1
   2866   2871     1
   2866   2878     1
   2866   2876     1
   2867   2886     1
   2867   2872     1
   2867   2877     1
   2870   2880     1
   2870   2888     1
   2870   2876     1
   2871   2879     1
   2872   2878     1
   2872   2880     1
   2876   2877     1
   2877   2878     1
   2877   2888     1
   2878   2879     1
   2879   2880     1
   2879   2888     1
   2886   2888     1
   2889   2894     1
   2889   2901     1
   2889   2899     1
   2890   2895     1
   2890   2900     1
   2890   2909     1
   2893   2899     1
   2893   2911     1
   2893   2903     1
   2894   2902     1
   2895   2903     1
   2895   2901     1
   2899   2900     1
   2900   2911     1
   2900   2901     1
   2901   2902     1
   2902   2903     1
   2902   2911     1
   2909   2911     1
   2912   2917     1
   2912   2924     1
   2912   2922     1
   2913   2932     1
   2913   2918     1
   2913   2923     1
   2916   2926     1
   2916   2934     1
   2916   2922     1
   2917   2925     1
   2918   2924     1
   2918   2926     1
   2922   2923     1
   2923   2924     1
   2923   2934     1
   2924   2925     1
   2925   2926     1
   2925   2934     1
   2932   2934     1
   2935   2940     1
   2935   2947     1
   2935   2945     1
   2936   2941     1
   2936   2946     1
   2936   2955     1
   2939   2945     1
   2939   2957     1
   2939   2949     1
   2940   2948     1
   2941   2949     1
   2941   2947     1
   2945   2946     1
   2946   2957     1
   2946   2947     1
   2947   2948     1
   2948   2949     1
   2948   2957     1
   2955   2957     1
   2958   2963     1
   2958   2970     1
   2958   2968     1
   2959   2978     1
   2959   2964     1
   2959   2969     1
   2962   2972     1
   2962   2980     1
   2962   2968     1
   2963   2971     1
   2964   2970     1
   2964   2972     1
   2968   2969     1
   2969   2970     1
   2969   2980     1
   2970   2971     1
   2971   2972     1
   2971   2980     1
   2978   2980     1
   2981   2986     1
   2981   2993     1
   2981   2991     1
   2982   2987     1
   2982   2992     1
   2982   3001     1
   2985   2991     1
   2985   3003     1
   2985   2995     1
   2986   2994     1
   2987   2995     1
   2987   2993     1
   2991   2992     1
   2992   3003     1
   2992   2993     1
   2993   2994     1
   2994   2995     1
   2994   3003     1
   3001   3003     1
   3004   3009     1
   3004   3016     1
   3004   3014     1
   3005   3024     1
   3005   3010     1
   3005   3015     1
   3008   3018     1
   3008   3026     1
   3008   3014     1
   3009   3017     1
   3010   3016     1
   3010   3018     1
   3014   3015     1
   3015   3016     1
   3015   3026     1
   3016   3017     1
   3017   3018     1
   3017   3026     1
   3024   3026     1
   3027   3032     1
   3027   3039     1
   3027   3037     1
   3028   3033     1
   3028   3038     1
   3028   3047     1
   3031   3037     1
   3031   3049     1
   3031   3041     1
   3032   3040     1
   3033   3041     1
   3033   3039     1
   3037   3038     1
   3038   3049     1
   3038   3039     1
   3039   3040     1
   3040   3041     1
   3040   3049     1
   3047   3049     1
   3050   3055     1
   3050   3062     1
   3050   3060     1
   3051   3070     1
   3051   3056     1
   3051   3061     1
   3054   3064     1
   3054   3072     1
   3054   3060     1
   3055   3063     1
   3056   3062     1
   3056   3064     1
   3060   3061     1
   3061   3062     1
   3061   3072     1
   3062   3063     1
   3063   3064     1
   3063   3072     1
   3070   3072     1
   3073   3078     1
   3073   3085     1
   3073   3083     1
   3074   3079     1
   3074   3084     1
   3074   3093     1
   3077   3083     1
   3077   3095     1
   3077   3087     1
   3078   3086     1
   3079   3087     1
   3079   3085     1
   3083   3084     1
   3084   3095     1
   3084   3085     1
   3085   3086     1
   3086   3087     1
   3086   3095     1
   3093   3095     1
   3096   3101     1
   3096   3108     1
   3096   3106     1
   3097   3116     1
   3097   3102     1
   3097   3107     1
   3100   3110     1
   3100   3118     1
   3100   3106     1
   3101   3109     1
   3102   3108     1
   3102   3110     1
   3106   3107     1
   3107   3108     1
   3107   3118     1
   3108   3109     1
   3109   3110     1
   3109   3118     1
   3116   3118     1
   3119   3124     1
   3119   3131     1
   3119   3129     1
   3120   3125     1
   3120   3130     1
   3120   3139     1
   3123   3129     1
   3123   3141     1
   3123   3133     1
   3124   3132     1
   3125   3133     1
   3125   3131     1
   3129   3130     1
   3130   3141     1
   3130   3131     1
   3131   3132     1
   3132   3133     1
   3132   3141     1
   3139   3141     1
   3142   3147     1
   3142   3154     1
   3142   3152     1
   3143   3162     1
   3143   3148     1
   3143   3153     1
   3146   3156     1
   3146   3164     1
   3146   3152     1
   3147   3155     1
   3148   3154     1
   3148   3156     1
   3152   3153     1
   3153   3154     1
   3153   3164     1
   3154   3155     1
   3155   3156     1
   3155   3164     1
   3162   3164     1
   3165   3170     1
   3165   3177     1
   3165   3175     1
   3166   3171     1
   3166   3176     1
   3166   3185     1
   3169   3175     1
   3169   3187     1
   3169   3179     1
   3170   3178     1
   3171   3179     1
   3171   3177     1
   3175   3176     1
   3176   3187     1
   3176   3177     1
   3177   3178     1
   3178   3179     1
   3178   3187     1
   3185   3187     1
   3188   3193     1
   3188   3200     1
   3188   3198     1
   3189   3208     1
   3189   3194     1
   3189   3199     1
   3192   3202     1
   3192   3210     1
   3192   3198     1
   3193   3201     1
   3194   3200     1
   3194   3202     1
   3198   3199     1
   3199   3200     1
   3199   3210     1
   3200   3201     1
   3201   3202     1
   3201   3210     1
   3208   3210     1
   3211   3216     1
   3211   3223     1
   3211   3221     1
   3212   3217     1
   3212   3222     1
   3212   3231     1
   3215   3221     1
   3215   3233     1
   3215   3225     1
   3216   3224     1
   3217   3225     1
   3217   3223     1
   3221   3222     1
   3222   3233     1
   3222   3223     1
   3223   3224     1
   3224   3225     1
   3224   3233     1
   3231   3233     1
   3234   3239     1
   3234   3246     1
   3234   3244     1
   3235   3254     1
   3235   3240     1
   3235   3245     1
   3238   3248     1
   3238   3256     1
   3238   3244     1
   3239   3247     1
   3240   3246     1
   3240   3248     1
   3244   3245     1
   3245   3246     1
   3245   3256     1
   3246   3247     1
   3247   3248     1
   3247   3256     1
   3254   3256     1
   3257   3262     1
   3257   3269     1
   3257   3267     1
   3258   3263     1
   3258   3268     1
   3258   3277     1
   3261   3267     1
   3261   3279     1
   3261   3271     1
   3262   3270     1
   3263   3271     1
   3263   3269     1
   3267   3268     1
   3268   3279     1
   3268   3269     1
   3269   3270     1
   3270   3271     1
   3270   3279     1
   3277   3279     1
   3280   3285     1
   3280   3292     1
   3280   3290     1
   3281   3300     1
   3281   3286     1
   3281   3291     1
   3284   3294     1
   3284   3302     1
   3284   3290     1
   3285   3293     1
   3286   3292     1
   3286   3294     1
   3290   3291     1
   3291   3292     1
   3291   3302     1
   3292   3293     1
   3293   3294     1
   3293   3302     1
   3300   3302     1
   3303   3308     1
   3303   3315     1
   3303   3313     1
   3304   3309     1
   3304   3314     1
   3304   3323     1
   3307   3313     1
   3307   3325     1
   3307   3317     1
   3308   3316     1
   3309   3317     1
   3309   3315     1
   3313   3314     1
   3314   3325     1
   3314   3315     1
   3315   3316     1
   3316   3317     1
   3316   3325     1
   3323   3325     1
   3326   3331     1
   3326   3338     1
   3326   3336     1
   3327   3346     1
   3327   3332     1
   3327   3337     1
   3330   3340     1
   3330   3348     1
   3330   3336     1
   3331   3339     1
   3332   3338     1
   3332   3340     1
   3336   3337     1
   3337   3338     1
   3337   3348     1
   3338   3339     1
   3339   3340     1
   3339   3348     1
   3346   3348     1
   3349   3354     1
   3349   3361     1
   3349   3359     1
   3350   3355     1
   3350   3360     1
   3350   3369     1
   3353   3359     1
   3353   3371     1
   3353   3363     1
   3354   3362     1
   3355   3363     1
   3355   3361     1
   3359   3360     1
   3360   3371     1
   3360   3361     1
   3361   3362     1
   3362   3363     1
   3362   3371     1
   3369   3371     1
   3372   3377     1
   3372   3384     1
   3372   3382     1
   3373   3392     1
   3373   3378     1
   3373   3383     1
   3376   3386     1
   3376   3394     1
   3376   3382     1
   3377   3385     1
   3378   3384     1
   3378   3386     1
   3382   3383     1
   3383   3384     1
   3383   3394     1
   3384   3385     1
   3385   3386     1
   3385   3394     1
   3392   3394     1
   3395   3400     1
   3395   3407     1
   3395   3405     1
   3396   3401     1
   3396   3406     1
   3396   3415     1
   3399   3405     1
   3399   3417     1
   3399   3409     1
   3400   3408     1
   3401   3409     1
   3401   3407     1
   3405   3406     1
   3406   3417     1
   3406   3407     1
   3407   3408     1
   3408   3409     1
   3408   3417     1
   3415   3417     1
   3418   3423     1
   3418   3430     1
   3418   3428     1
   3419   3438     1
   3419   3424     1
   3419   3429     1
   3422   3432     1
   3422   3440     1
   3422   3428     1
   3423   3431     1
   3424   3430     1
   3424   3432     1
   3428   3429     1
   3429   3430     1
   3429   3440     1
   3430   3431     1
   3431   3432     1
   3431   3440     1
   3438   3440     1
   3441   3446     1
   3441   3453     1
   3441   3451     1
   3442   3447     1
   3442   3452     1
   3442   3461     1
   3445   3451     1
   3445   3463     1
   3445   3455     1
   3446   3454     1
   3447   3455     1
   3447   3453     1
   3451   3452     1
   3452   3463     1
   3452   3453     1
   3453   3454     1
   3454   3455     1
   3454   3463     1
   3461   3463     1
   3464   3469     1
   3464   3476     1
   3464   3474     1
   3465   3484     1
   3465   3470     1
   3465   3475     1
   3468   3478     1
   3468   3486     1
   3468   3474     1
   3469   3477     1
   3470   3476     1
   3470   3478     1
   3474   3475     1
   3475   3476     1
   3475   3486     1
   3476   3477     1
   3477   3478     1
   3477   3486     1
   3484   3486     1
   3487   3492     1
   3487   3499     1
   3487   3497     1
   3488   3493     1
   3488   3498     1
   3488   3507     1
   3491   3497     1
   3491   3509     1
   3491   3501     1
   3492   3500     1
   3493   3501     1
   3493   3499     1
   3497   3498     1
   3498   3509     1
   3498   3499     1
   3499   3500     1
   3500   3501     1
   3500   3509     1
   3507   3509     1
   3510   3515     1
   3510   3522     1
   3510   3520     1
   3511   3530     1
   3511   3516     1
   3511   3521     1
   3514   3524     1
   3514   3532     1
   3514   3520     1
   3515   3523     1
   3516   3522     1
   3516   3524     1
   3520   3521     1
   3521   3522     1
   3521   3532     1
   3522   3523     1
   3523   3524     1
   3523   3532     1
   3530   3532     1
   3533   3538     1
   3533   3545     1
   3533   3543     1
   3534   3539     1
   3534   3544     1
   3534   3553     1
   3537   3543     1
   3537   3555     1
   3537   3547     1
   3538   3546     1
   3539   3547     1
   3539   3545     1
   3543   3544     1
   3544   3555     1
   3544   3545     1
   3545   3546     1
   3546   3547     1
   3546   3555     1
   3553   3555     1
   3556   3561     1
   3556   3568     1
   3556   3566     1
   3557   3576     1
   3557   3562     1
   3557   3567     1
   3560   3570     1
   3560   3578     1
   3560   3566     1
   3561   3569     1
   3562   3568     1
   3562   3570     1
   3566   3567     1
   3567   3568     1
   3567   3578     1
   3568   3569     1
   3569   3570     1
   3569   3578     1
   3576   3578     1
   3579   3584     1
   3579   3591     1
   3579   3589     1
   3580   3585     1
   3580   3590     1
   3580   3599     1
   3583   3589     1
   3583   3601     1
   3583   3593     1
   3584   3592     1
   3585   3593     1
   3585   3591     1
   3589   3590     1
   3590   3601     1
   3590   3591     1
   3591   3592     1
   3592   3593     1
   3592   3601     1
   3599   3601     1
   3602   3607     1
   3602   3614     1
   3602   3612     1
   3603   3622     1
   3603   3608     1
   3603   3613     1
   3606   3616     1
   3606   3624     1
   3606   3612     1
   3607   3615     1
   3608   3614     1
   3608   3616     1
   3612   3613     1
   3613   3614     1
   3613   3624     1
   3614   3615     1
   3615   3616     1
   3615   3624     1
   3622   3624     1
   3625   3630     1
   3625   3637     1
   3625   3635     1
   3626   3631     1
   3626   3636     1
   3626   3645     1
   3629   3635     1
   3629   3647     1
   3629   3639     1
   3630   3638     1
   3631   3639     1
   3631   3637     1
   3635   3636     1
   3636   3647     1
   3636   3637     1
   3637   3638     1
   3638   3639     1
   3638   3647     1
   3645   3647     1
   3648   3653     1
   3648   3660     1
   3648   3658     1
   3649   3668     1
   3649   3654     1
   3649   3659     1
   3652   3662     1
   3652   3670     1
   3652   3658     1
   3653   3661     1
   3654   3660     1
   3654   3662     1
   3658   3659     1
   3659   3660     1
   3659   3670     1
   3660   3661     1
   3661   3662     1
   3661   3670     1
   3668   3670     1
   3671   3676     1
   3671   3683     1
   3671   3681     1
   3672   3677     1
   3672   3682     1
   3672   3691     1
   3675   3681     1
   3675   3693     1
   3675   3685     1
   3676   3684     1
   3677   3685     1
   3677   3683     1
   3681   3682     1
   3682   3693     1
   3682   3683     1
   3683   3684     1
   3684   3685     1
   3684   3693     1
   3691   3693     1
   3694   3699     1
   3694   3706     1
   3694   3704     1
   3695   3714     1
   3695   3700     1
   3695   3705     1
   3698   3708     1
   3698   3716     1
   3698   3704     1
   3699   3707     1
   3700   3706     1
   3700   3708     1
   3704   3705     1
   3705   3706     1
   3705   3716     1
   3706   3707     1
   3707   3708     1
   3707   3716     1
   3714   3716     1
   3717   3722     1
   3717   3729     1
   3717   3727     1
   3718   3723     1
   3718   3728     1
   3718   3737     1
   3721   3727     1
   3721   3739     1
   3721   3731     1
   3722   3730     1
   3723   3731     1
   3723   3729     1
   3727   3728     1
   3728   3739     1
   3728   3729     1
   3729   3730     1
   3730   3731     1
   3730   3739     1
   3737   3739     1
   3740   3745     1
   3740   3752     1
   3740   3750     1
   3741   3760     1
   3741   3746     1
   3741   3751     1
   3744   3754     1
   3744   3762     1
   3744   3750     1
   3745   3753     1
   3746   3752     1
   3746   3754     1
   3750   3751     1
   3751   3752     1
   3751   3762     1
   3752   3753     1
   3753   3754     1
   3753   3762     1
   3760   3762     1
   3763   3768     1
   3763   3775     1
   3763   3773     1
   3764   3769     1
   3764   3774     1
   3764   3783     1
   3767   3773     1
   3767   3785     1
   3767   3777     1
   3768   3776     1
   3769   3777     1
   3769   3775     1
   3773   3774     1
   3774   3785     1
   3774   3775     1
   3775   3776     1
   3776   3777     1
   3776   3785     1
   3783   3785     1
   3786   3791     1
   3786   3798     1
   3786   3796     1
   3787   3806     1
   3787   3792     1
   3787   3797     1
   3790   3800     1
   3790   3808     1
   3790   3796     1
   3791   3799     1
   3792   3798     1
   3792   3800     1
   3796   3797     1
   3797   3798     1
   3797   3808     1
   3798   3799     1
   3799   3800     1
   3799   3808     1
   3806   3808     1
   3809   3814     1
   3809   3821     1
   3809   3819     1
   3810   3815     1
   3810   3820     1
   3810   3829     1
   3813   3819     1
   3813   3831     1
   3813   3823     1
   3814   3822     1
   3815   3823     1
   3815   3821     1
   3819   3820     1
   3820   3831     1
   3820   3821     1
   3821   3822     1
   3822   3823     1
   3822   3831     1
   3829   3831     1
   3832   3837     1
   3832   3844     1
   3832   3842     1
   3833   3852     1
   3833   3838     1
   3833   3843     1
   3836   3846     1
   3836   3854     1
   3836   3842     1
   3837   3845     1
   3838   3844     1
   3838   3846     1
   3842   3843     1
   3843   3844     1
   3843   3854     1
   3844   3845     1
   3845   3846     1
   3845   3854     1
   3852   3854     1
   3855   3860     1
   3855   3867     1
   3855   3865     1
   3856   3861     1
   3856   3866     1
   3856   3875     1
   3859   3865     1
   3859   3877     1
   3859   3869     1
   3860   3868     1
   3861   3869     1
   3861   3867     1
   3865   3866     1
   3866   3877     1
   3866   3867     1
   3867   3868     1
   3868   3869     1
   3868   3877     1
   3875   3877     1
   3878   3883     1
   3878   3890     1
   3878   3888     1
   3879   3898     1
   3879   3884     1
   3879   3889     1
   3882   3892     1
   3882   3900     1
   3882   3888     1
   3883   3891     1
   3884   3890     1
   3884   3892     1
   3888   3889     1
   3889   3890     1
   3889   3900     1
   3890   3891     1
   3891   3892     1
   3891   3900     1
   3898   3900     1
   3901   3906     1
   3901   3913     1
   3901   3911     1
   3902   3907     1
   3902   3912     1
   3902   3921     1
   3905   3911     1
   3905   3923     1
   3905   3915     1
   3906   3914     1
   3907   3915     1
   3907   3913     1
   3911   3912     1
   3912   3923     1
   3912   3913     1
   3913   3914     1
   3914   3915     1
   3914   3923     1
   3921   3923     1
   3924   3929     1
   3924   3936     1
   3924   3934     1
   3925   3944     1
   3925   3930     1
   3925   3935     1
   3928   3938     1
   3928   3946     1
   3928   3934     1
   3929   3937     1
   3930   3936     1
   3930   3938     1
   3934   3935     1
   3935   3936     1
   3935   3946     1
   3936   3937     1
   3937   3938     1
   3937   3946     1
   3944   3946     1
   3947   3952     1
   3947   3959     1
   3947   3957     1
   3948   3953     1
   3948   3958     1
   3948   3967     1
   3951   3957     1
   3951   3969     1
   3951   3961     1
   3952   3960     1
   3953   3961     1
   3953   3959     1
   3957   3958     1
   3958   3969     1
   3958   3959     1
   3959   3960     1
   3960   3961     1
   3960   3969     1
   3967   3969     1
   3970   3975     1
   3970   3982     1
   3970   3980     1
   3971   3990     1
   3971   3976     1
   3971   3981     1
   3974   3984     1
   3974   3992     1
   3974   3980     1
   3975   3983     1
   3976   3982     1
   3976   3984     1
   3980   3981     1
   3981   3982     1
   3981   3992     1
   3982   3983     1
   3983   3984     1
   3983   3992     1
   3990   3992     1
   3993   3998     1
   3993   4005     1
   3993   4003     1
   3994   3999     1
   3994   4004     1
   3994   4013     1
   3997   4003     1
   3997   4015     1
   3997   4007     1
   3998   4006     1
   3999   4007     1
   3999   4005     1
   4003   4004     1
   4004   4015     1
   4004   4005     1
   4005   4006     1
   4006   4007     1
   4006   4015     1
   4013   4015     1
   4016   4021     1
   4016   4028     1
   4016   4026     1
   4017   4036     1
   4017   4022     1
   4017   4027     1
   4020   4030     1
   4020   4038     1
   4020   4026     1
   4021   4029     1
   4022   4028     1
   4022   4030     1
   4026   4027     1
   4027   4028     1
   4027   4038     1
   4028   4029     1
   4029   4030     1
   4029   4038     1
   4036   4038     1
   4039   4044     1
   4039   4051     1
   4039   4049     1
   4040   4045     1
   4040   4050     1
   4040   4059     1
   4043   4049     1
   4043   4061     1
   4043   4053     1
   4044   4052     1
   4045   4053     1
   4045   4051     1
   4049   4050     1
   4050   4061     1
   4050   4051     1
   4051   4052     1
   4052   4053     1
   4052   4061     1
   4059   4061     1
   4062   4067     1
   4062   4074     1
   4062   4072     1
   4063   4082     1
   4063   4068     1
   4063   4073     1
   4066   4076     1
   4066   4084     1
   4066   4072     1
   4067   4075     1
   4068   4074     1
   4068   4076     1
   4072   4073     1
   4073   4074     1
   4073   4084     1
   4074   4075     1
   4075   4076     1
   4075   4084     1
   4082   4084     1
   4085   4090     1
   4085   4097     1
   4085   4095     1
   4086   4091     1
   4086   4096     1
   4086   4105     1
   4089   4095     1
   4089   4107     1
   4089   4099     1
   4090   4098     1
   4091   4099     1
   4091   4097     1
   4095   4096     1
   4096   4107     1
   4096   4097     1
   4097   4098     1
   4098   4099     1
   4098   4107     1
   4105   4107     1
   4108   4113     1
   4108   4120     1
   4108   4118     1
   4109   4128     1
   4109   4114     1
   4109   4119     1
   4112   4122     1
   4112   4130     1
   4112   4118     1
   4113   4121     1
   4114   4120     1
   4114   4122     1
   4118   4119     1
   4119   4120     1
   4119   4130     1
   4120   4121     1
   4121   4122     1
   4121   4130     1
   4128   4130     1
   4131   4136     1
   4131   4143     1
   4131   4141     1
   4132   4137     1
   4132   4142     1
   4132   4151     1
   4135   4141     1
   4135   4153     1
   4135   4145     1
   4136   4144     1
   4137   4145     1
   4137   4143     1
   4141   4142     1
   4142   4153     1
   4142   4143     1
   4143   4144     1
   4144   4145     1
   4144   4153     1
   4151   4153     1
   4154   4159     1
   4154   4166     1
   4154   4164     1
   4155   4174     1
   4155   4160     1
   4155   4165     1
   4158   4168     1
   4158   4176     1
   4158   4164     1
   4159   4167     1
   4160   4166     1
   4160   4168     1
   4164   4165     1
   4165   4166     1
   4165   4176     1
   4166   4167     1
   4167   4168     1
   4167   4176     1
   4174   4176     1
   4177   4182     1
   4177   4189     1
   4177   4187     1
   4178   4183     1
   4178   4188     1
   4178   4197     1
   4181   4187     1
   4181   4199     1
   4181   4191     1
   4182   4190     1
   4183   4191     1
   4183   4189     1
   4187   4188     1
   4188   4199     1
   4188   4189     1
   4189   4190     1
   4190   4191     1
   4190   4199     1
   4197   4199     1
   4200   4205     1
   4200   4212     1
   4200   4210     1
   4201   4220     1
   4201   4206     1
   4201   4211     1
   4204   4214     1
   4204   4222     1
   4204   4210     1
   4205   4213     1
   4206   4212     1
   4206   4214     1
   4210   4211     1
   4211   4212     1
   4211   4222     1
   4212   4213     1
   4213   4214     1
   4213   4222     1
   4220   4222     1
   4223   4228     1
   4223   4235     1
   4223   4233     1
   4224   4229     1
   4224   4234     1
   4224   4243     1
   4227   4233     1
   4227   4245     1
   4227   4237     1
   4228   4236     1
   4229   4237     1
   4229   4235     1
   4233   4234     1
   4234   4245     1
   4234   4235     1
   4235   4236     1
   4236   4237     1
   4236   4245     1
   4243   4245     1
   4246   4251     1
   4246   4258     1
   4246   4256     1
   4247   4266     1
   4247   4252     1
   4247   4257     1
   4250   4260     1
   4250   4268     1
   4250   4256     1
   4251   4259     1
   4252   4258     1
   4252   4260     1
   4256   4257     1
   4257   4258     1
   4257   4268     1
   4258   4259     1
   4259   4260     1
   4259   4268     1
   4266   4268     1
   4269   4274     1
   4269   4281     1
   4269   4279     1
   4270   4275     1
   4270   4280     1
   4270   4289     1
   4273   4279     1
   4273   4291     1
   4273   4283     1
   4274   4282     1
   4275   4283     1
   4275   4281     1
   4279   4280     1
   4280   4291     1
   4280   4281     1
   4281   4282     1
   4282   4283     1
   4282   4291     1
   4289   4291     1
   4292   4297     1
   4292   4304     1
   4292   4302     1
   4293   4312     1
   4293   4298     1
   4293   4303     1
   4296   4306     1
   4296   4314     1
   4296   4302     1
   4297   4305     1
   4298   4304     1
   4298   4306     1
   4302   4303     1
   4303   4304     1
   4303   4314     1
   4304   4305     1
   4305   4306     1
   4305   4314     1
   4312   4314     1
   4315   4320     1
   4315   4327     1
   4315   4325     1
   4316   4321     1
   4316   4326     1
   4316   4335     1
   4319   4325     1
   4319   4337     1
   4319   4329     1
   4320   4328     1
   4321   4329     1
   4321   4327     1
   4325   4326     1
   4326   4337     1
   4326   4327     1
   4327   4328     1
   4328   4329     1
   4328   4337     1
   4335   4337     1
   4338   4343     1
   4338   4350     1
   4338   4348     1
   4339   4358     1
   4339   4344     1
   4339   4349     1
   4342   4352     1
   4342   4360     1
   4342   4348     1
   4343   4351     1
   4344   4350     1
   4344   4352     1
   4348   4349     1
   4349   4350     1
   4349   4360     1
   4350   4351     1
   4351   4352     1
   4351   4360     1
   4358   4360     1
   4361   4366     1
   4361   4373     1
   4361   4371     1
   4362   4367     1
   4362   4372     1
   4362   4381     1
   4365   4371     1
   4365   4383     1
   4365   4375     1
   4366   4374     1
   4367   4375     1
   4367   4373     1
   4371   4372     1
   4372   4383     1
   4372   4373     1
   4373   4374     1
   4374   4375     1
   4374   4383     1
   4381   4383     1
   4384   4389     1
   4384   4396     1
   4384   4394     1
   4385   4404     1
   4385   4390     1
   4385   4395     1
   4388   4398     1
   4388   4406     1
   4388   4394     1
   4389   4397     1
   4390   4396     1
   4390   4398     1
   4394   4395     1
   4395   4396     1
   4395   4406     1
   4396   4397     1
   4397   4398     1
   4397   4406     1
   4404   4406     1
   4407   4412     1
   4407   4419     1
   4407   4417     1
   4408   4413     1
   4408   4418     1
   4408   4427     1
   4411   4417     1
   4411   4429     1
   4411   4421     1
   4412   4420     1
   4413   4421     1
   4413   4419     1
   4417   4418     1
   4418   4429     1
   4418   4419     1
   4419   4420     1
   4420   4421     1
   4420   4429     1
   4427   4429     1
   4430   4435     1
   4430   4442     1
   4430   4440     1
   4431   4450     1
   4431   4436     1
   4431   4441     1
   4434   4444     1
   4434   4452     1
   4434   4440     1
   4435   4443     1
   4436   4442     1
   4436   4444     1
   4440   4441     1
   4441   4442     1
   4441   4452     1
   4442   4443     1
   4443   4444     1
   4443   4452     1
   4450   4452     1
   4453   4458     1
   4453   4465     1
   4453   4463     1
   4454   4459     1
   4454   4464     1
   4454   4473     1
   4457   4463     1
   4457   4475     1
   4457   4467     1
   4458   4466     1
   4459   4467     1
   4459   4465     1
   4463   4464     1
   4464   4475     1
   4464   4465     1
   4465   4466     1
   4466   4467     1
   4466   4475     1
   4473   4475     1
   4476   4481     1
   4476   4488     1
   4476   4486     1
   4477   4496     1
   4477   4482     1
   4477   4487     1
   4480   4490     1
   4480   4498     1
   4480   4486     1
   4481   4489     1
   4482   4488     1
   4482   4490     1
   4486   4487     1
   4487   4488     1
   4487   4498     1
   4488   4489     1
   4489   4490     1
   4489   4498     1
   4496   4498     1
   4499   4504     1
   4499   4511     1
   4499   4509     1
   4500   4505     1
   4500   4510     1
   4500   4519     1
   4503   4509     1
   4503   4521     1
   4503   4513     1
   4504   4512     1
   4505   4513     1
   4505   4511     1
   4509   4510     1
   4510   4521     1
   4510   4511     1
   4511   4512     1
   4512   4513     1
   4512   4521     1
   4519   4521     1
   4522   4527     1
   4522   4534     1
   4522   4532     1
   4523   4542     1
   4523   4528     1
   4523   4533     1
   4526   4536     1
   4526   4544     1
   4526   4532     1
   4527   4535     1
   4528   4534     1
   4528   4536     1
   4532   4533     1
   4533   4534     1
   4533   4544     1
   4534   4535     1
   4535   4536     1
   4535   4544     1
   4542   4544     1
   4545   4550     1
   4545   4557     1
   4545   4555     1
   4546   4551     1
   4546   4556     1
   4546   4565     1
   4549   4555     1
   4549   4567     1
   4549   4559     1
   4550   4558     1
   4551   4559     1
   4551   4557     1
   4555   4556     1
   4556   4567     1
   4556   4557     1
   4557   4558     1
   4558   4559     1
   4558   4567     1
   4565   4567     1
   4568   4573     1
   4568   4580     1
   4568   4578     1
   4569   4588     1
   4569   4574     1
   4569   4579     1
   4572   4582     1
   4572   4590     1
   4572   4578     1
   4573   4581     1
   4574   4580     1
   4574   4582     1
   4578   4579     1
   4579   4580     1
   4579   4590     1
   4580   4581     1
   4581   4582     1
   4581   4590     1
   4588   4590     1
   4591   4596     1
   4591   4603     1
   4591   4601     1
   4592   4597     1
   4592   4602     1
   4592   4611     1
   4595   4601     1
   4595   4613     1
   4595   4605     1
   4596   4604     1
   4597   4605     1
   4597   4603     1
   4601   4602     1
   4602   4613     1
   4602   4603     1
   4603   4604     1
   4604   4605     1
   4604   4613     1
   4611   4613     1
   4614   4619     1
   4614   4626     1
   4614   4624     1
   4615   4634     1
   4615   4620     1
   4615   4625     1
   4618   4628     1
   4618   4636     1
   4618   4624     1
   4619   4627     1
   4620   4626     1
   4620   4628     1
   4624   4625     1
   4625   4626     1
   4625   4636     1
   4626   4627     1
   4627   4628     1
   4627   4636     1
   4634   4636     1
   4637   4642     1
   4637   4649     1
   4637   4647     1
   4638   4643     1
   4638   4648     1
   4638   4657     1
   4641   4647     1
   4641   4659     1
   4641   4651     1
   4642   4650     1
   4643   4651     1
   4643   4649     1
   4647   4648     1
   4648   4659     1
   4648   4649     1
   4649   4650     1
   4650   4651     1
   4650   4659     1
   4657   4659     1
   4660   4665     1
   4660   4672     1
   4660   4670     1
   4661   4680     1
   4661   4666     1
   4661   4671     1
   4664   4674     1
   4664   4682     1
   4664   4670     1
   4665   4673     1
   4666   4672     1
   4666   4674     1
   4670   4671     1
   4671   4672     1
   4671   4682     1
   4672   4673     1
   4673   4674     1
   4673   4682     1
   4680   4682     1
   4683   4688     1
   4683   4695     1
   4683   4693     1
   4684   4689     1
   4684   4694     1
   4684   4703     1
   4687   4693     1
   4687   4705     1
   4687   4697     1
   4688   4696     1
   4689   4697     1
   4689   4695     1
   4693   4694     1
   4694   4705     1
   4694   4695     1
   4695   4696     1
   4696   4697     1
   4696   4705     1
   4703   4705     1
   4706   4711     1
   4706   4718     1
   4706   4716     1
   4707   4726     1
   4707   4712     1
   4707   4717     1
   4710   4720     1
   4710   4728     1
   4710   4716     1
   4711   4719     1
   4712   4718     1
   4712   4720     1
   4716   4717     1
   4717   4718     1
   4717   4728     1
   4718   4719     1
   4719   4720     1
   4719   4728     1
   4726   4728     1
   4729   4734     1
   4729   4741     1
   4729   4739     1
   4730   4735     1
   4730   4740     1
   4730   4749     1
   4733   4739     1
   4733   4751     1
   4733   4743     1
   4734   4742     1
   4735   4743     1
   4735   4741     1
   4739   4740     1
   4740   4751     1
   4740   4741     1
   4741   4742     1
   4742   4743     1
   4742   4751     1
   4749   4751     1
   4752   4757     1
   4752   4764     1
   4752   4762     1
   4753   4772     1
   4753   4758     1
   4753   4763     1
   4756   4766     1
   4756   4774     1
   4756   4762     1
   4757   4765     1
   4758   4764     1
   4758   4766     1
   4762   4763     1
   4763   4764     1
   4763   4774     1
   4764   4765     1
   4765   4766     1
   4765   4774     1
   4772   4774     1
   4775   4780     1
   4775   4787     1
   4775   4785     1
   4776   4781     1
   4776   4786     1
   4776   4795     1
   4779   4785     1
   4779   4797     1
   4779   4789     1
   4780   4788     1
   4781   4789     1
   4781   4787     1
   4785   4786     1
   4786   4797     1
   4786   4787     1
   4787   4788     1
   4788   4789     1
   4788   4797     1
   4795   4797     1
   4798   4803     1
   4798   4810     1
   4798   4808     1
   4799   4818     1
   4799   4804     1
   4799   4809     1
   4802   4812     1
   4802   4820     1
   4802   4808     1
   4803   4811     1
   4804   4810     1
   4804   4812     1
   4808   4809     1
   4809   4810     1
   4809   4820     1
   4810   4811     1
   4811   4812     1
   4811   4820     1
   4818   4820     1
   4821   4826     1
   4821   4833     1
   4821   4831     1
   4822   4827     1
   4822   4832     1
   4822   4841     1
   4825   4831     1
   4825   4843     1
   4825   4835     1
   4826   4834     1
   4827   4835     1
   4827   4833     1
   4831   4832     1
   4832   4843     1
   4832   4833     1
   4833   4834     1
   4834   4835     1
   4834   4843     1
   4841   4843     1
   4844   4849     1
   4844   4856     1
   4844   4854     1
   4845   4864     1
   4845   4850     1
   4845   4855     1
   4848   4858     1
   4848   4866     1
   4848   4854     1
   4849   4857     1
   4850   4856     1
   4850   4858     1
   4854   4855     1
   4855   4856     1
   4855   4866     1
   4856   4857     1
   4857   4858     1
   4857   4866     1
   4864   4866     1
   4867   4872     1
   4867   4879     1
   4867   4877     1
   4868   4873     1
   4868   4878     1
   4868   4887     1
   4871   4877     1
   4871   4889     1
   4871   4881     1
   4872   4880     1
   4873   4881     1
   4873   4879     1
   4877   4878     1
   4878   4889     1
   4878   4879     1
   4879   4880     1
   4880   4881     1
   4880   4889     1
   4887   4889     1
   4890   4895     1
   4890   4902     1
   4890   4900     1
   4891   4910     1
   4891   4896     1
   4891   4901     1
   4894   4904     1
   4894   4912     1
   4894   4900     1
   4895   4903     1
   4896   4902     1
   4896   4904     1
   4900   4901     1
   4901   4902     1
   4901   4912     1
   4902   4903     1
   4903   4904     1
   4903   4912     1
   4910   4912     1
   4913   4918     1
   4913   4925     1
   4913   4923     1
   4914   4919     1
   4914   4924     1
   4914   4933     1
   4917   4923     1
   4917   4935     1
   4917   4927     1
   4918   4926     1
   4919   4927     1
   4919   4925     1
   4923   4924     1
   4924   4935     1
   4924   4925     1
   4925   4926     1
   4926   4927     1
   4926   4935     1
   4933   4935     1
   4936   4941     1
   4936   4948     1
   4936   4946     1
   4937   4956     1
   4937   4942     1
   4937   4947     1
   4940   4950     1
   4940   4958     1
   4940   4946     1
   4941   4949     1
   4942   4948     1
   4942   4950     1
   4946   4947     1
   4947   4948     1
   4947   4958     1
   4948   4949     1
   4949   4950     1
   4949   4958     1
   4956   4958     1
   4959   4964     1
   4959   4971     1
   4959   4969     1
   4960   4965     1
   4960   4970     1
   4960   4979     1
   4963   4969     1
   4963   4981     1
   4963   4973     1
   4964   4972     1
   4965   4973     1
   4965   4971     1
   4969   4970     1
   4970   4981     1
   4970   4971     1
   4971   4972     1
   4972   4973     1
   4972   4981     1
   4979   4981     1
   4982   4987     1
   4982   4994     1
   4982   4992     1
   4983   5002     1
   4983   4988     1
   4983   4993     1
   4986   4996     1
   4986   5004     1
   4986   4992     1
   4987   4995     1
   4988   4994     1
   4988   4996     1
   4992   4993     1
   4993   4994     1
   4993   5004     1
   4994   4995     1
   4995   4996     1
   4995   5004     1
   5002   5004     1
   5005   5010     1
   5005   5017     1
   5005   5015     1
   5006   5011     1
   5006   5016     1
   5006   5025     1
   5009   5015     1
   5009   5027     1
   5009   5019     1
   5010   5018     1
   5011   5019     1
   5011   5017     1
   5015   5016     1
   5016   5027     1
   5016   5017     1
   5017   5018     1
   5018   5019     1
   5018   5027     1
   5025   5027     1
      1     15     1
      1     16     1
      1     18     1
      1     19     1
      1     12     1
      1     13     1
      2      6     1
      2      7     1
      2      9     1
      2     10     1
      2     27     1
      2     28     1
      5      3     1
      8      3     1
     29      3     1
      3     26     1
      3     15     1
      3     16     1
      5      4     1
      8      4     1
     29      4     1
      4     26     1
      4     15     1
      4     16     1
      5      9     1
      5     10     1
      5     21     1
      5     22     1
      8      6     1
     29      6     1
      6     20     1
      6     18     1
      6     19     1
      8      7     1
     29      7     1
      7     20     1
      7     18     1
      7     19     1
      8     24     1
      8     25     1
     29      9     1
      9     23     1
      9     12     1
      9     13     1
     29     10     1
     10     23     1
     10     12     1
     10     13     1
     29     11     1
     12     88     1
     12     24     1
     12     25     1
     13     88     1
     13     24     1
     13     25     1
     29     14     1
     15    118     1
     15     27     1
     15     28     1
     16    118     1
     16     27     1
     16     28     1
     29     17     1
     18     58     1
     18     21     1
     18     22     1
     19     58     1
     19     21     1
     19     22     1
     20     50     1
     20     51     1
     21     49     1
     22     49     1
     23     80     1
     23     81     1
     24     79     1
     25     79     1
     26    110     1
     26    111     1
     27    109     1
     28    109     1
     30     44     1
     30     45     1
     30     47     1
     30     48     1
     30     41     1
     30     42     1
     31     35     1
     31     36     1
     31     38     1
     31     39     1
     31     56     1
     31     57     1
     32     34     1
     32     37     1
     32     59     1
     32     55     1
     32     44     1
     32     45     1
     33     34     1
     33     37     1
     33     59     1
     33     55     1
     33     44     1
     33     45     1
     34     38     1
     34     39     1
     34     53     1
     34     54     1
     35     37     1
     35     59     1
     35     52     1
     35     47     1
     35     48     1
     36     37     1
     36     59     1
     36     52     1
     36     47     1
     36     48     1
     37     50     1
     37     51     1
     38     59     1
     38     49     1
     38     41     1
     38     42     1
     39     59     1
     39     49     1
     39     41     1
     39     42     1
     40     59     1
     41     58     1
     41     50     1
     41     51     1
     42     58     1
     42     50     1
     42     51     1
     43     59     1
     44    178     1
     44     56     1
     44     57     1
     45    178     1
     45     56     1
     45     57     1
     46     59     1
     47    148     1
     47     53     1
     47     54     1
     48    148     1
     48     53     1
     48     54     1
     52    140     1
     52    141     1
     53    139     1
     54    139     1
     55    170     1
     55    171     1
     56    169     1
     57    169     1
     60     74     1
     60     75     1
     60     77     1
     60     78     1
     60     71     1
     60     72     1
     61     65     1
     61     66     1
     61     68     1
     61     69     1
     61     86     1
     61     87     1
     62     64     1
     62     67     1
     62     89     1
     62     85     1
     62     74     1
     62     75     1
     63     64     1
     63     67     1
     63     89     1
     63     85     1
     63     74     1
     63     75     1
     64     68     1
     64     69     1
     64     83     1
     64     84     1
     65     67     1
     65     89     1
     65     82     1
     65     77     1
     65     78     1
     66     67     1
     66     89     1
     66     82     1
     66     77     1
     66     78     1
     67     80     1
     67     81     1
     68     89     1
     68     79     1
     68     71     1
     68     72     1
     69     89     1
     69     79     1
     69     71     1
     69     72     1
     70     89     1
     71     88     1
     71     80     1
     71     81     1
     72     88     1
     72     80     1
     72     81     1
     73     89     1
     74    238     1
     74     86     1
     74     87     1
     75    238     1
     75     86     1
     75     87     1
     76     89     1
     77    208     1
     77     83     1
     77     84     1
     78    208     1
     78     83     1
     78     84     1
     82    200     1
     82    201     1
     83    199     1
     84    199     1
     85    230     1
     85    231     1
     86    229     1
     87    229     1
     90    104     1
     90    105     1
     90    107     1
     90    108     1
     90    101     1
     90    102     1
     91     95     1
     91     96     1
     91     98     1
     91     99     1
     91    116     1
     91    117     1
     92     94     1
     92     97     1
     92    119     1
     92    115     1
     92    104     1
     92    105     1
     93     94     1
     93     97     1
     93    119     1
     93    115     1
     93    104     1
     93    105     1
     94     98     1
     94     99     1
     94    113     1
     94    114     1
     95     97     1
     95    119     1
     95    112     1
     95    107     1
     95    108     1
     96     97     1
     96    119     1
     96    112     1
     96    107     1
     96    108     1
     97    110     1
     97    111     1
     98    119     1
     98    109     1
     98    101     1
     98    102     1
     99    119     1
     99    109     1
     99    101     1
     99    102     1
    100    119     1
    101    118     1
    101    110     1
    101    111     1
    102    118     1
    102    110     1
    102    111     1
    103    119     1
    104    298     1
    104    116     1
    104    117     1
    105    298     1
    105    116     1
    105    117     1
    106    119     1
    107    268     1
    107    113     1
    107    114     1
    108    268     1
    108    113     1
    108    114     1
    112    260     1
    112    261     1
    113    259     1
    114    259     1
    115    290     1
    115    291     1
    116    289     1
    117    289     1
    120    134     1
    120    135     1
    120    137     1
    120    138     1
    120    131     1
    120    132     1
    121    125     1
    121    126     1
    121    128     1
    121    129     1
    121    146     1
    121    147     1
    122    124     1
    122    127     1
    122    149     1
    122    145     1
    122    134     1
    122    135     1
    123    124     1
    123    127     1
    123    149     1
    123    145     1
    123    134     1
    123    135     1
    124    128     1
    124    129     1
    124    143     1
    124    144     1
    125    127     1
    125    149     1
    125    142     1
    125    137     1
    125    138     1
    126    127     1
    126    149     1
    126    142     1
    126    137     1
    126    138     1
    127    140     1
    127    141     1
    128    149     1
    128    139     1
    128    131     1
    128    132     1
    129    149     1
    129    139     1
    129    131     1
    129    132     1
    130    149     1
    131    148     1
    131    140     1
    131    141     1
    132    148     1
    132    140     1
    132    141     1
    133    149     1
    134    358     1
    134    146     1
    134    147     1
    135    358     1
    135    146     1
    135    147     1
    136    149     1
    137    328     1
    137    143     1
    137    144     1
    138    328     1
    138    143     1
    138    144     1
    142    320     1
    142    321     1
    143    319     1
    144    319     1
    145    350     1
    145    351     1
    146    349     1
    147    349     1
    150    164     1
    150    165     1
    150    167     1
    150    168     1
    150    161     1
    150    162     1
    151    155     1
    151    156     1
    151    158     1
    151    159     1
    151    176     1
    151    177     1
    152    154     1
    152    157     1
    152    179     1
    152    175     1
    152    164     1
    152    165     1
    153    154     1
    153    157     1
    153    179     1
    153    175     1
    153    164     1
    153    165     1
    154    158     1
    154    159     1
    154    173     1
    154    174     1
    155    157     1
    155    179     1
    155    172     1
    155    167     1
    155    168     1
    156    157     1
    156    179     1
    156    172     1
    156    167     1
    156    168     1
    157    170     1
    157    171     1
    158    179     1
    158    169     1
    158    161     1
    158    162     1
    159    179     1
    159    169     1
    159    161     1
    159    162     1
    160    179     1
    161    178     1
    161    170     1
    161    171     1
    162    178     1
    162    170     1
    162    171     1
    163    179     1
    164    418     1
    164    176     1
    164    177     1
    165    418     1
    165    176     1
    165    177     1
    166    179     1
    167    388     1
    167    173     1
    167    174     1
    168    388     1
    168    173     1
    168    174     1
    172    380     1
    172    381     1
    173    379     1
    174    379     1
    175    410     1
    175    411     1
    176    409     1
    177    409     1
    180    194     1
    180    195     1
    180    197     1
    180    198     1
    180    191     1
    180    192     1
    181    185     1
    181    186     1
    181    188     1
    181    189     1
    181    206     1
    181    207     1
    182    184     1
    182    187     1
    182    209     1
    182    205     1
    182    194     1
    182    195     1
    183    184     1
    183    187     1
    183    209     1
    183    205     1
    183    194     1
    183    195     1
    184    188     1
    184    189     1
    184    203     1
    184    204     1
    185    187     1
    185    209     1
    185    202     1
    185    197     1
    185    198     1
    186    187     1
    186    209     1
    186    202     1
    186    197     1
    186    198     1
    187    200     1
    187    201     1
    188    209     1
    188    199     1
    188    191     1
    188    192     1
    189    209     1
    189    199     1
    189    191     1
    189    192     1
    190    209     1
    191    208     1
    191    200     1
    191    201     1
    192    208     1
    192    200     1
    192    201     1
    193    209     1
    194    478     1
    194    206     1
    194    207     1
    195    478     1
    195    206     1
    195    207     1
    196    209     1
    197    448     1
    197    203     1
    197    204     1
    198    448     1
    198    203     1
    198    204     1
    202    440     1
    202    441     1
    203    439     1
    204    439     1
    205    470     1
    205    471     1
    206    469     1
    207    469     1
    210    224     1
    210    225     1
    210    227     1
    210    228     1
    210    221     1
    210    222     1
    211    215     1
    211    216     1
    211    218     1
    211    219     1
    211    236     1
    211    237     1
    212    214     1
    212    217     1
    212    239     1
    212    235     1
    212    224     1
    212    225     1
    213    214     1
    213    217     1
    213    239     1
    213    235     1
    213    224     1
    213    225     1
    214    218     1
    214    219     1
    214    233     1
    214    234     1
    215    217     1
    215    239     1
    215    232     1
    215    227     1
    215    228     1
    216    217     1
    216    239     1
    216    232     1
    216    227     1
    216    228     1
    217    230     1
    217    231     1
    218    239     1
    218    229     1
    218    221     1
    218    222     1
    219    239     1
    219    229     1
    219    221     1
    219    222     1
    220    239     1
    221    238     1
    221    230     1
    221    231     1
    222    238     1
    222    230     1
    222    231     1
    223    239     1
    224    538     1
    224    236     1
    224    237     1
    225    538     1
    225    236     1
    225    237     1
    226    239     1
    227    508     1
    227    233     1
    227    234     1
    228    508     1
    228    233     1
    228    234     1
    232    500     1
    232    501     1
    233    499     1
    234    499     1
    235    530     1
    235    531     1
    236    529     1
    237    529     1
    240    254     1
    240    255     1
    240    257     1
    240    258     1
    240    251     1
    240    252     1
    241    245     1
    241    246     1
    241    248     1
    241    249     1
    241    266     1
    241    267     1
    242    244     1
    242    247     1
    242    269     1
    242    265     1
    242    254     1
    242    255     1
    243    244     1
    243    247     1
    243    269     1
    243    265     1
    243    254     1
    243    255     1
    244    248     1
    244    249     1
    244    263     1
    244    264     1
    245    247     1
    245    269     1
    245    262     1
    245    257     1
    245    258     1
    246    247     1
    246    269     1
    246    262     1
    246    257     1
    246    258     1
    247    260     1
    247    261     1
    248    269     1
    248    259     1
    248    251     1
    248    252     1
    249    269     1
    249    259     1
    249    251     1
    249    252     1
    250    269     1
    251    268     1
    251    260     1
    251    261     1
    252    268     1
    252    260     1
    252    261     1
    253    269     1
    254    598     1
    254    266     1
    254    267     1
    255    598     1
    255    266     1
    255    267     1
    256    269     1
    257    568     1
    257    263     1
    257    264     1
    258    568     1
    258    263     1
    258    264     1
    262    560     1
    262    561     1
    263    559     1
    264    559     1
    265    590     1
    265    591     1
    266    589     1
    267    589     1
    270    284     1
    270    285     1
    270    287     1
    270    288     1
    270    281     1
    270    282     1
    271    275     1
    271    276     1
    271    278     1
    271    279     1
    271    296     1
    271    297     1
    272    274     1
    272    277     1
    272    299     1
    272    295     1
    272    284     1
    272    285     1
    273    274     1
    273    277     1
    273    299     1
    273    295     1
    273    284     1
    273    285     1
    274    278     1
    274    279     1
    274    293     1
    274    294     1
    275    277     1
    275    299     1
    275    292     1
    275    287     1
    275    288     1
    276    277     1
    276    299     1
    276    292     1
    276    287     1
    276    288     1
    277    290     1
    277    291     1
    278    299     1
    278    289     1
    278    281     1
    278    282     1
    279    299     1
    279    289     1
    279    281     1
    279    282     1
    280    299     1
    281    298     1
    281    290     1
    281    291     1
    282    298     1
    282    290     1
    282    291     1
    283    299     1
    284    658     1
    284    296     1
    284    297     1
    285    658     1
    285    296     1
    285    297     1
    286    299     1
    287    628     1
    287    293     1
    287    294     1
    288    628     1
    288    293     1
    288    294     1
    292    620     1
    292    621     1
    293    619     1
    294    619     1
    295    650     1
    295    651     1
    296    649     1
    297    649     1
    300    314     1
    300    315     1
    300    317     1
    300    318     1
    300    311     1
    300    312     1
    301    305     1
    301    306     1
    301    308     1
    301    309     1
    301    326     1
    301    327     1
    302    304     1
    302    307     1
    302    329     1
    302    325     1
    302    314     1
    302    315     1
    303    304     1
    303    307     1
    303    329     1
    303    325     1
    303    314     1
    303    315     1
    304    308     1
    304    309     1
    304    323     1
    304    324     1
    305    307     1
    305    329     1
    305    322     1
    305    317     1
    305    318     1
    306    307     1
    306    329     1
    306    322     1
    306    317     1
    306    318     1
    307    320     1
    307    321     1
    308    329     1
    308    319     1
    308    311     1
    308    312     1
    309    329     1
    309    319     1
    309    311     1
    309    312     1
    310    329     1
    311    328     1
    311    320     1
    311    321     1
    312    328     1
    312    320     1
    312    321     1
    313    329     1
    314    718     1
    314    326     1
    314    327     1
    315    718     1
    315    326     1
    315    327     1
    316    329     1
    317    688     1
    317    323     1
    317    324     1
    318    688     1
    318    323     1
    318    324     1
    322    680     1
    322    681     1
    323    679     1
    324    679     1
    325    710     1
    325    711     1
    326    709     1
    327    709     1
    330    344     1
    330    345     1
    330    347     1
    330    348     1
    330    341     1
    330    342     1
    331    335     1
    331    336     1
    331    338     1
    331    339     1
    331    356     1
    331    357     1
    332    334     1
    332    337     1
    332    359     1
    332    355     1
    332    344     1
    332    345     1
    333    334     1
    333    337     1
    333    359     1
    333    355     1
    333    344     1
    333    345     1
    334    338     1
    334    339     1
    334    353     1
    334    354     1
    335    337     1
    335    359     1
    335    352     1
    335    347     1
    335    348     1
    336    337     1
    336    359     1
    336    352     1
    336    347     1
    336    348     1
    337    350     1
    337    351     1
    338    359     1
    338    349     1
    338    341     1
    338    342     1
    339    359     1
    339    349     1
    339    341     1
    339    342     1
    340    359     1
    341    358     1
    341    350     1
    341    351     1
    342    358     1
    342    350     1
    342    351     1
    343    359     1
    344    778     1
    344    356     1
    344    357     1
    345    778     1
    345    356     1
    345    357     1
    346    359     1
    347    748     1
    347    353     1
    347    354     1
    348    748     1
    348    353     1
    348    354     1
    352    740     1
    352    741     1
    353    739     1
    354    739     1
    355    770     1
    355    771     1
    356    769     1
    357    769     1
    360    374     1
    360    375     1
    360    377     1
    360    378     1
    360    371     1
    360    372     1
    361    365     1
    361    366     1
    361    368     1
    361    369     1
    361    386     1
    361    387     1
    362    364     1
    362    367     1
    362    389     1
    362    385     1
    362    374     1
    362    375     1
    363    364     1
    363    367     1
    363    389     1
    363    385     1
    363    374     1
    363    375     1
    364    368     1
    364    369     1
    364    383     1
    364    384     1
    365    367     1
    365    389     1
    365    382     1
    365    377     1
    365    378     1
    366    367     1
    366    389     1
    366    382     1
    366    377     1
    366    378     1
    367    380     1
    367    381     1
    368    389     1
    368    379     1
    368    371     1
    368    372     1
    369    389     1
    369    379     1
    369    371     1
    369    372     1
    370    389     1
    371    388     1
    371    380     1
    371    381     1
    372    388     1
    372    380     1
    372    381     1
    373    389     1
    374    838     1
    374    386     1
    374    387     1
    375    838     1
    375    386     1
    375    387     1
    376    389     1
    377    808     1
    377    383     1
    377    384     1
    378    808     1
    378    383     1
    378    384     1
    382    800     1
    382    801     1
    383    799     1
    384    799     1
    385    830     1
    385    831     1
    386    829     1
    387    829     1
    390    404     1
    390    405     1
    390    407     1
    390    408     1
    390    401     1
    390    402     1
    391    395     1
    391    396     1
    391    398     1
    391    399     1
    391    416     1
    391    417     1
    392    394     1
    392    397     1
    392    419     1
    392    415     1
    392    404     1
    392    405     1
    393    394     1
    393    397     1
    393    419     1
    393    415     1
    393    404     1
    393    405     1
    394    398     1
    394    399     1
    394    413     1
    394    414     1
    395    397     1
    395    419     1
    395    412     1
    395    407     1
    395    408     1
    396    397     1
    396    419     1
    396    412     1
    396    407     1
    396    408     1
    397    410     1
    397    411     1
    398    419     1
    398    409     1
    398    401     1
    398    402     1
    399    419     1
    399    409     1
    399    401     1
    399    402     1
    400    419     1
    401    418     1
    401    410     1
    401    411     1
    402    418     1
    402    410     1
    402    411     1
    403    419     1
    404    898     1
    404    416     1
    404    417     1
    405    898     1
    405    416     1
    405    417     1
    406    419     1
    407    868     1
    407    413     1
    407    414     1
    408    868     1
    408    413     1
    408    414     1
    412    860     1
    412    861     1
    413    859     1
    414    859     1
    415    890     1
    415    891     1
    416    889     1
    417    889     1
    420    434     1
    420    435     1
    420    437     1
    420    438     1
    420    431     1
    420    432     1
    421    425     1
    421    426     1
    421    428     1
    421    429     1
    421    446     1
    421    447     1
    422    424     1
    422    427     1
    422    449     1
    422    445     1
    422    434     1
    422    435     1
    423    424     1
    423    427     1
    423    449     1
    423    445     1
    423    434     1
    423    435     1
    424    428     1
    424    429     1
    424    443     1
    424    444     1
    425    427     1
    425    449     1
    425    442     1
    425    437     1
    425    438     1
    426    427     1
    426    449     1
    426    442     1
    426    437     1
    426    438     1
    427    440     1
    427    441     1
    428    449     1
    428    439     1
    428    431     1
    428    432     1
    429    449     1
    429    439     1
    429    431     1
    429    432     1
    430    449     1
    431    448     1
    431    440     1
    431    441     1
    432    448     1
    432    440     1
    432    441     1
    433    449     1
    434    958     1
    434    446     1
    434    447     1
    435    958     1
    435    446     1
    435    447     1
    436    449     1
    437    928     1
    437    443     1
    437    444     1
    438    928     1
    438    443     1
    438    444     1
    442    920     1
    442    921     1
    443    919     1
    444    919     1
    445    950     1
    445    951     1
    446    949     1
    447    949     1
    450    464     1
    450    465     1
    450    467     1
    450    468     1
    450    461     1
    450    462     1
    451    455     1
    451    456     1
    451    458     1
    451    459     1
    451    476     1
    451    477     1
    452    454     1
    452    457     1
    452    479     1
    452    475     1
    452    464     1
    452    465     1
    453    454     1
    453    457     1
    453    479     1
    453    475     1
    453    464     1
    453    465     1
    454    458     1
    454    459     1
    454    473     1
    454    474     1
    455    457     1
    455    479     1
    455    472     1
    455    467     1
    455    468     1
    456    457     1
    456    479     1
    456    472     1
    456    467     1
    456    468     1
    457    470     1
    457    471     1
    458    479     1
    458    469     1
    458    461     1
    458    462     1
    459    479     1
    459    469     1
    459    461     1
    459    462     1
    460    479     1
    461    478     1
    461    470     1
    461    471     1
    462    478     1
    462    470     1
    462    471     1
    463    479     1
    464   1018     1
    464    476     1
    464    477     1
    465   1018     1
    465    476     1
    465    477     1
    466    479     1
    467    988     1
    467    473     1
    467    474     1
    468    988     1
    468    473     1
    468    474     1
    472    980     1
    472    981     1
    473    979     1
    474    979     1
    475   1010     1
    475   1011     1
    476   1009     1
    477   1009     1
    480    494     1
    480    495     1
    480    497     1
    480    498     1
    480    491     1
    480    492     1
    481    485     1
    481    486     1
    481    488     1
    481    489     1
    481    506     1
    481    507     1
    482    484     1
    482    487     1
    482    509     1
    482    505     1
    482    494     1
    482    495     1
    483    484     1
    483    487     1
    483    509     1
    483    505     1
    483    494     1
    483    495     1
    484    488     1
    484    489     1
    484    503     1
    484    504     1
    485    487     1
    485    509     1
    485    502     1
    485    497     1
    485    498     1
    486    487     1
    486    509     1
    486    502     1
    486    497     1
    486    498     1
    487    500     1
    487    501     1
    488    509     1
    488    499     1
    488    491     1
    488    492     1
    489    509     1
    489    499     1
    489    491     1
    489    492     1
    490    509     1
    491    508     1
    491    500     1
    491    501     1
    492    508     1
    492    500     1
    492    501     1
    493    509     1
    494   1078     1
    494    506     1
    494    507     1
    495   1078     1
    495    506     1
    495    507     1
    496    509     1
    497   1048     1
    497    503     1
    497    504     1
    498   1048     1
    498    503     1
    498    504     1
    502   1040     1
    502   1041     1
    503   1039     1
    504   1039     1
    505   1070     1
    505   1071     1
    506   1069     1
    507   1069     1
    510    524     1
    510    525     1
    510    527     1
    510    528     1
    510    521     1
    510    522     1
    511    515     1
    511    516     1
    511    518     1
    511    519     1
    511    536     1
    511    537     1
    512    514     1
    512    517     1
    512    539     1
    512    535     1
    512    524     1
    512    525     1
    513    514     1
    513    517     1
    513    539     1
    513    535     1
    513    524     1
    513    525     1
    514    518     1
    514    519     1
    514    533     1
    514    534     1
    515    517     1
    515    539     1
    515    532     1
    515    527     1
    515    528     1
    516    517     1
    516    539     1
    516    532     1
    516    527     1
    516    528     1
    517    530     1
    517    531     1
    518    539     1
    518    529     1
    518    521     1
    518    522     1
    519    539     1
    519    529     1
    519    521     1
    519    522     1
    520    539     1
    521    538     1
    521    530     1
    521    531     1
    522    538     1
    522    530     1
    522    531     1
    523    539     1
    524   1138     1
    524    536     1
    524    537     1
    525   1138     1
    525    536     1
    525    537     1
    526    539     1
    527   1108     1
    527    533     1
    527    534     1
    528   1108     1
    528    533     1
    528    534     1
    532   1100     1
    532   1101     1
    533   1099     1
    534   1099     1
    535   1130     1
    535   1131     1
    536   1129     1
    537   1129     1
    540    554     1
    540    555     1
    540    557     1
    540    558     1
    540    551     1
    540    552     1
    541    545     1
    541    546     1
    541    548     1
    541    549     1
    541    566     1
    541    567     1
    542    544     1
    542    547     1
    542    569     1
    542    565     1
    542    554     1
    542    555     1
    543    544     1
    543    547     1
    543    569     1
    543    565     1
    543    554     1
    543    555     1
    544    548     1
    544    549     1
    544    563     1
    544    564     1
    545    547     1
    545    569     1
    545    562     1
    545    557     1
    545    558     1
    546    547     1
    546    569     1
    546    562     1
    546    557     1
    546    558     1
    547    560     1
    547    561     1
    548    569     1
    548    559     1
    548    551     1
    548    552     1
    549    569     1
    549    559     1
    549    551     1
    549    552     1
    550    569     1
    551    568     1
    551    560     1
    551    561     1
    552    568     1
    552    560     1
    552    561     1
    553    569     1
    554   1198     1
    554    566     1
    554    567     1
    555   1198     1
    555    566     1
    555    567     1
    556    569     1
    557   1168     1
    557    563     1
    557    564     1
    558   1168     1
    558    563     1
    558    564     1
    562   1160     1
    562   1161     1
    563   1159     1
    564   1159     1
    565   1190     1
    565   1191     1
    566   1189     1
    567   1189     1
    570    584     1
    570    585     1
    570    587     1
    570    588     1
    570    581     1
    570    582     1
    571    575     1
    571    576     1
    571    578     1
    571    579     1
    571    596     1
    571    597     1
    572    574     1
    572    577     1
    572    599     1
    572    595     1
    572    584     1
    572    585     1
    573    574     1
    573    577     1
    573    599     1
    573    595     1
    573    584     1
    573    585     1
    574    578     1
    574    579     1
    574    593     1
    574    594     1
    575    577     1
    575    599     1
    575    592     1
    575    587     1
    575    588     1
    576    577     1
    576    599     1
    576    592     1
    576    587     1
    576    588     1
    577    590     1
    577    591     1
    578    599     1
    578    589     1
    578    581     1
    578    582     1
    579    599     1
    579    589     1
    579    581     1
    579    582     1
    580    599     1
    581    598     1
    581    590     1
    581    591     1
    582    598     1
    582    590     1
    582    591     1
    583    599     1
    584   1258     1
    584    596     1
    584    597     1
    585   1258     1
    585    596     1
    585    597     1
    586    599     1
    587   1228     1
    587    593     1
    587    594     1
    588   1228     1
    588    593     1
    588    594     1
    592   1220     1
    592   1221     1
    593   1219     1
    594   1219     1
    595   1250     1
    595   1251     1
    596   1249     1
    597   1249     1
    600    614     1
    600    615     1
    600    617     1
    600    618     1
    600    611     1
    600    612     1
    601    605     1
    601    606     1
    601    608     1
    601    609     1
    601    626     1
    601    627     1
    602    604     1
    602    607     1
    602    629     1
    602    625     1
    602    614     1
    602    615     1
    603    604     1
    603    607     1
    603    629     1
    603    625     1
    603    614     1
    603    615     1
    604    608     1
    604    609     1
    604    623     1
    604    624     1
    605    607     1
    605    629     1
    605    622     1
    605    617     1
    605    618     1
    606    607     1
    606    629     1
    606    622     1
    606    617     1
    606    618     1
    607    620     1
    607    621     1
    608    629     1
    608    619     1
    608    611     1
    608    612     1
    609    629     1
    609    619     1
    609    611     1
    609    612     1
    610    629     1
    611    628     1
    611    620     1
    611    621     1
    612    628     1
    612    620     1
    612    621     1
    613    629     1
    614   1318     1
    614    626     1
    614    627     1
    615   1318     1
    615    626     1
    615    627     1
    616    629     1
    617   1288     1
    617    623     1
    617    624     1
    618   1288     1
    618    623     1
    618    624     1
    622   1280     1
    622   1281     1
    623   1279     1
    624   1279     1
    625   1310     1
    625   1311     1
    626   1309     1
    627   1309     1
    630    644     1
    630    645     1
    630    647     1
    630    648     1
    630    641     1
    630    642     1
    631    635     1
    631    636     1
    631    638     1
    631    639     1
    631    656     1
    631    657     1
    632    634     1
    632    637     1
    632    659     1
    632    655     1
    632    644     1
    632    645     1
    633    634     1
    633    637     1
    633    659     1
    633    655     1
    633    644     1
    633    645     1
    634    638     1
    634    639     1
    634    653     1
    634    654     1
    635    637     1
    635    659     1
    635    652     1
    635    647     1
    635    648     1
    636    637     1
    636    659     1
    636    652     1
    636    647     1
    636    648     1
    637    650     1
    637    651     1
    638    659     1
    638    649     1
    638    641     1
    638    642     1
    639    659     1
    639    649     1
    639    641     1
    639    642     1
    640    659     1
    641    658     1
    641    650     1
    641    651     1
    642    658     1
    642    650     1
    642    651     1
    643    659     1
    644   1378     1
    644    656     1
    644    657     1
    645   1378     1
    645    656     1
    645    657     1
    646    659     1
    647   1348     1
    647    653     1
    647    654     1
    648   1348     1
    648    653     1
    648    654     1
    652   1340     1
    652   1341     1
    653   1339     1
    654   1339     1
    655   1370     1
    655   1371     1
    656   1369     1
    657   1369     1
    660    674     1
    660    675     1
    660    677     1
    660    678     1
    660    671     1
    660    672     1
    661    665     1
    661    666     1
    661    668     1
    661    669     1
    661    686     1
    661    687     1
    662    664     1
    662    667     1
    662    689     1
    662    685     1
    662    674     1
    662    675     1
    663    664     1
    663    667     1
    663    689     1
    663    685     1
    663    674     1
    663    675     1
    664    668     1
    664    669     1
    664    683     1
    664    684     1
    665    667     1
    665    689     1
    665    682     1
    665    677     1
    665    678     1
    666    667     1
    666    689     1
    666    682     1
    666    677     1
    666    678     1
    667    680     1
    667    681     1
    668    689     1
    668    679     1
    668    671     1
    668    672     1
    669    689     1
    669    679     1
    669    671     1
    669    672     1
    670    689     1
    671    688     1
    671    680     1
    671    681     1
    672    688     1
    672    680     1
    672    681     1
    673    689     1
    674   1438     1
    674    686     1
    674    687     1
    675   1438     1
    675    686     1
    675    687     1
    676    689     1
    677   1408     1
    677    683     1
    677    684     1
    678   1408     1
    678    683     1
    678    684     1
    682   1400     1
    682   1401     1
    683   1399     1
    684   1399     1
    685   1430     1
    685   1431     1
    686   1429     1
    687   1429     1
    690    704     1
    690    705     1
    690    707     1
    690    708     1
    690    701     1
    690    702     1
    691    695     1
    691    696     1
    691    698     1
    691    699     1
    691    716     1
    691    717     1
    692    694     1
    692    697     1
    692    719     1
    692    715     1
    692    704     1
    692    705     1
    693    694     1
    693    697     1
    693    719     1
    693    715     1
    693    704     1
    693    705     1
    694    698     1
    694    699     1
    694    713     1
    694    714     1
    695    697     1
    695    719     1
    695    712     1
    695    707     1
    695    708     1
    696    697     1
    696    719     1
    696    712     1
    696    707     1
    696    708     1
    697    710     1
    697    711     1
    698    719     1
    698    709     1
    698    701     1
    698    702     1
    699    719     1
    699    709     1
    699    701     1
    699    702     1
    700    719     1
    701    718     1
    701    710     1
    701    711     1
    702    718     1
    702    710     1
    702    711     1
    703    719     1
    704   1498     1
    704    716     1
    704    717     1
    705   1498     1
    705    716     1
    705    717     1
    706    719     1
    707   1468     1
    707    713     1
    707    714     1
    708   1468     1
    708    713     1
    708    714     1
    712   1460     1
    712   1461     1
    713   1459     1
    714   1459     1
    715   1490     1
    715   1491     1
    716   1489     1
    717   1489     1
    720    734     1
    720    735     1
    720    737     1
    720    738     1
    720    731     1
    720    732     1
    721    725     1
    721    726     1
    721    728     1
    721    729     1
    721    746     1
    721    747     1
    722    724     1
    722    727     1
    722    749     1
    722    745     1
    722    734     1
    722    735     1
    723    724     1
    723    727     1
    723    749     1
    723    745     1
    723    734     1
    723    735     1
    724    728     1
    724    729     1
    724    743     1
    724    744     1
    725    727     1
    725    749     1
    725    742     1
    725    737     1
    725    738     1
    726    727     1
    726    749     1
    726    742     1
    726    737     1
    726    738     1
    727    740     1
    727    741     1
    728    749     1
    728    739     1
    728    731     1
    728    732     1
    729    749     1
    729    739     1
    729    731     1
    729    732     1
    730    749     1
    731    748     1
    731    740     1
    731    741     1
    732    748     1
    732    740     1
    732    741     1
    733    749     1
    734   1558     1
    734    746     1
    734    747     1
    735   1558     1
    735    746     1
    735    747     1
    736    749     1
    737   1528     1
    737    743     1
    737    744     1
    738   1528     1
    738    743     1
    738    744     1
    742   1520     1
    742   1521     1
    743   1519     1
    744   1519     1
    745   1550     1
    745   1551     1
    746   1549     1
    747   1549     1
    750    764     1
    750    765     1
    750    767     1
    750    768     1
    750    761     1
    750    762     1
    751    755     1
    751    756     1
    751    758     1
    751    759     1
    751    776     1
    751    777     1
    752    754     1
    752    757     1
    752    779     1
    752    775     1
    752    764     1
    752    765     1
    753    754     1
    753    757     1
    753    779     1
    753    775     1
    753    764     1
    753    765     1
    754    758     1
    754    759     1
    754    773     1
    754    774     1
    755    757     1
    755    779     1
    755    772     1
    755    767     1
    755    768     1
    756    757     1
    756    779     1
    756    772     1
    756    767     1
    756    768     1
    757    770     1
    757    771     1
    758    779     1
    758    769     1
    758    761     1
    758    762     1
    759    779     1
    759    769     1
    759    761     1
    759    762     1
    760    779     1
    761    778     1
    761    770     1
    761    771     1
    762    778     1
    762    770     1
    762    771     1
    763    779     1
    764   1618     1
    764    776     1
    764    777     1
    765   1618     1
    765    776     1
    765    777     1
    766    779     1
    767   1588     1
    767    773     1
    767    774     1
    768   1588     1
    768    773     1
    768    774     1
    772   1580     1
    772   1581     1
    773   1579     1
    774   1579     1
    775   1610     1
    775   1611     1
    776   1609     1
    777   1609     1
    780    794     1
    780    795     1
    780    797     1
    780    798     1
    780    791     1
    780    792     1
    781    785     1
    781    786     1
    781    788     1
    781    789     1
    781    806     1
    781    807     1
    782    784     1
    782    787     1
    782    809     1
    782    805     1
    782    794     1
    782    795     1
    783    784     1
    783    787     1
    783    809     1
    783    805     1
    783    794     1
    783    795     1
    784    788     1
    784    789     1
    784    803     1
    784    804     1
    785    787     1
    785    809     1
    785    802     1
    785    797     1
    785    798     1
    786    787     1
    786    809     1
    786    802     1
    786    797     1
    786    798     1
    787    800     1
    787    801     1
    788    809     1
    788    799     1
    788    791     1
    788    792     1
    789    809     1
    789    799     1
    789    791     1
    789    792     1
    790    809     1
    791    808     1
    791    800     1
    791    801     1
    792    808     1
    792    800     1
    792    801     1
    793    809     1
    794   1678     1
    794    806     1
    794    807     1
    795   1678     1
    795    806     1
    795    807     1
    796    809     1
    797   1648     1
    797    803     1
    797    804     1
    798   1648     1
    798    803     1
    798    804     1
    802   1640     1
    802   1641     1
    803   1639     1
    804   1639     1
    805   1670     1
    805   1671     1
    806   1669     1
    807   1669     1
    810    824     1
    810    825     1
    810    827     1
    810    828     1
    810    821     1
    810    822     1
    811    815     1
    811    816     1
    811    818     1
    811    819     1
    811    836     1
    811    837     1
    812    814     1
    812    817     1
    812    839     1
    812    835     1
    812    824     1
    812    825     1
    813    814     1
    813    817     1
    813    839     1
    813    835     1
    813    824     1
    813    825     1
    814    818     1
    814    819     1
    814    833     1
    814    834     1
    815    817     1
    815    839     1
    815    832     1
    815    827     1
    815    828     1
    816    817     1
    816    839     1
    816    832     1
    816    827     1
    816    828     1
    817    830     1
    817    831     1
    818    839     1
    818    829     1
    818    821     1
    818    822     1
    819    839     1
    819    829     1
    819    821     1
    819    822     1
    820    839     1
    821    838     1
    821    830     1
    821    831     1
    822    838     1
    822    830     1
    822    831     1
    823    839     1
    824   1738     1
    824    836     1
    824    837     1
    825   1738     1
    825    836     1
    825    837     1
    826    839     1
    827   1708     1
    827    833     1
    827    834     1
    828   1708     1
    828    833     1
    828    834     1
    832   1700     1
    832   1701     1
    833   1699     1
    834   1699     1
    835   1730     1
    835   1731     1
    836   1729     1
    837   1729     1
    840    854     1
    840    855     1
    840    857     1
    840    858     1
    840    851     1
    840    852     1
    841    845     1
    841    846     1
    841    848     1
    841    849     1
    841    866     1
    841    867     1
    842    844     1
    842    847     1
    842    869     1
    842    865     1
    842    854     1
    842    855     1
    843    844     1
    843    847     1
    843    869     1
    843    865     1
    843    854     1
    843    855     1
    844    848     1
    844    849     1
    844    863     1
    844    864     1
    845    847     1
    845    869     1
    845    862     1
    845    857     1
    845    858     1
    846    847     1
    846    869     1
    846    862     1
    846    857     1
    846    858     1
    847    860     1
    847    861     1
    848    869     1
    848    859     1
    848    851     1
    848    852     1
    849    869     1
    849    859     1
    849    851     1
    849    852     1
    850    869     1
    851    868     1
    851    860     1
    851    861     1
    852    868     1
    852    860     1
    852    861     1
    853    869     1
    854   1798     1
    854    866     1
    854    867     1
    855   1798     1
    855    866     1
    855    867     1
    856    869     1
    857   1768     1
    857    863     1
    857    864     1
    858   1768     1
    858    863     1
    858    864     1
    862   1760     1
    862   1761     1
    863   1759     1
    864   1759     1
    865   1790     1
    865   1791     1
    866   1789     1
    867   1789     1
    870    884     1
    870    885     1
    870    887     1
    870    888     1
    870    881     1
    870    882     1
    871    875     1
    871    876     1
    871    878     1
    871    879     1
    871    896     1
    871    897     1
    872    874     1
    872    877     1
    872    899     1
    872    895     1
    872    884     1
    872    885     1
    873    874     1
    873    877     1
    873    899     1
    873    895     1
    873    884     1
    873    885     1
    874    878     1
    874    879     1
    874    893     1
    874    894     1
    875    877     1
    875    899     1
    875    892     1
    875    887     1
    875    888     1
    876    877     1
    876    899     1
    876    892     1
    876    887     1
    876    888     1
    877    890     1
    877    891     1
    878    899     1
    878    889     1
    878    881     1
    878    882     1
    879    899     1
    879    889     1
    879    881     1
    879    882     1
    880    899     1
    881    898     1
    881    890     1
    881    891     1
    882    898     1
    882    890     1
    882    891     1
    883    899     1
    884   1858     1
    884    896     1
    884    897     1
    885   1858     1
    885    896     1
    885    897     1
    886    899     1
    887   1828     1
    887    893     1
    887    894     1
    888   1828     1
    888    893     1
    888    894     1
    892   1820     1
    892   1821     1
    893   1819     1
    894   1819     1
    895   1850     1
    895   1851     1
    896   1849     1
    897   1849     1
    900    914     1
    900    915     1
    900    917     1
    900    918     1
    900    911     1
    900    912     1
    901    905     1
    901    906     1
    901    908     1
    901    909     1
    901    926     1
    901    927     1
    902    904     1
    902    907     1
    902    929     1
    902    925     1
    902    914     1
    902    915     1
    903    904     1
    903    907     1
    903    929     1
    903    925     1
    903    914     1
    903    915     1
    904    908     1
    904    909     1
    904    923     1
    904    924     1
    905    907     1
    905    929     1
    905    922     1
    905    917     1
    905    918     1
    906    907     1
    906    929     1
    906    922     1
    906    917     1
    906    918     1
    907    920     1
    907    921     1
    908    929     1
    908    919     1
    908    911     1
    908    912     1
    909    929     1
    909    919     1
    909    911     1
    909    912     1
    910    929     1
    911    928     1
    911    920     1
    911    921     1
    912    928     1
    912    920     1
    912    921     1
    913    929     1
    914   1918     1
    914    926     1
    914    927     1
    915   1918     1
    915    926     1
    915    927     1
    916    929     1
    917   1888     1
    917    923     1
    917    924     1
    918   1888     1
    918    923     1
    918    924     1
    922   1880     1
    922   1881     1
    923   1879     1
    924   1879     1
    925   1910     1
    925   1911     1
    926   1909     1
    927   1909     1
    930    944     1
    930    945     1
    930    947     1
    930    948     1
    930    941     1
    930    942     1
    931    935     1
    931    936     1
    931    938     1
    931    939     1
    931    956     1
    931    957     1
    932    934     1
    932    937     1
    932    959     1
    932    955     1
    932    944     1
    932    945     1
    933    934     1
    933    937     1
    933    959     1
    933    955     1
    933    944     1
    933    945     1
    934    938     1
    934    939     1
    934    953     1
    934    954     1
    935    937     1
    935    959     1
    935    952     1
    935    947     1
    935    948     1
    936    937     1
    936    959     1
    936    952     1
    936    947     1
    936    948     1
    937    950     1
    937    951     1
    938    959     1
    938    949     1
    938    941     1
    938    942     1
    939    959     1
    939    949     1
    939    941     1
    939    942     1
    940    959     1
    941    958     1
    941    950     1
    941    951     1
    942    958     1
    942    950     1
    942    951     1
    943    959     1
    944   1978     1
    944    956     1
    944    957     1
    945   1978     1
    945    956     1
    945    957     1
    946    959     1
    947   1948     1
    947    953     1
    947    954     1
    948   1948     1
    948    953     1
    948    954     1
    952   1940     1
    952   1941     1
    953   1939     1
    954   1939     1
    955   1970     1
    955   1971     1
    956   1969     1
    957   1969     1
    960    974     1
    960    975     1
    960    977     1
    960    978     1
    960    971     1
    960    972     1
    961    965     1
    961    966     1
    961    968     1
    961    969     1
    961    986     1
    961    987     1
    962    964     1
    962    967     1
    962    989     1
    962    985     1
    962    974     1
    962    975     1
    963    964     1
    963    967     1
    963    989     1
    963    985     1
    963    974     1
    963    975     1
    964    968     1
    964    969     1
    964    983     1
    964    984     1
    965    967     1
    965    989     1
    965    982     1
    965    977     1
    965    978     1
    966    967     1
    966    989     1
    966    982     1
    966    977     1
    966    978     1
    967    980     1
    967    981     1
    968    989     1
    968    979     1
    968    971     1
    968    972     1
    969    989     1
    969    979     1
    969    971     1
    969    972     1
    970    989     1
    971    988     1
    971    980     1
    971    981     1
    972    988     1
    972    980     1
    972    981     1
    973    989     1
    974   2038     1
    974    986     1
    974    987     1
    975   2038     1
    975    986     1
    975    987     1
    976    989     1
    977   2008     1
    977    983     1
    977    984     1
    978   2008     1
    978    983     1
    978    984     1
    982   2000     1
    982   2001     1
    983   1999     1
    984   1999     1
    985   2030     1
    985   2031     1
    986   2029     1
    987   2029     1
    990   1004     1
    990   1005     1
    990   1007     1
    990   1008     1
    990   1001     1
    990   1002     1
    991    995     1
    991    996     1
    991    998     1
    991    999     1
    991   1016     1
    991   1017     1
    992    994     1
    992    997     1
    992   1019     1
    992   1015     1
    992   1004     1
    992   1005     1
    993    994     1
    993    997     1
    993   1019     1
    993   1015     1
    993   1004     1
    993   1005     1
    994    998     1
    994    999     1
    994   1013     1
    994   1014     1
    995    997     1
    995   1019     1
    995   1012     1
    995   1007     1
    995   1008     1
    996    997     1
    996   1019     1
    996   1012     1
    996   1007     1
    996   1008     1
    997   1010     1
    997   1011     1
    998   1019     1
    998   1009     1
    998   1001     1
    998   1002     1
    999   1019     1
    999   1009     1
    999   1001     1
    999   1002     1
   1000   1019     1
   1001   1018     1
   1001   1010     1
   1001   1011     1
   1002   1018     1
   1002   1010     1
   1002   1011     1
   1003   1019     1
   1004   2098     1
   1004   1016     1
   1004   1017     1
   1005   2098     1
   1005   1016     1
   1005   1017     1
   1006   1019     1
   1007   2068     1
   1007   1013     1
   1007   1014     1
   1008   2068     1
   1008   1013     1
   1008   1014     1
   1012   2060     1
   1012   2061     1
   1013   2059     1
   1014   2059     1
   1015   2090     1
   1015   2091     1
   1016   2089     1
   1017   2089     1
   1020   1034     1
   1020   1035     1
   1020   1037     1
   1020   1038     1
   1020   1031     1
   1020   1032     1
   1021   1025     1
   1021   1026     1
   1021   1028     1
   1021   1029     1
   1021   1046     1
   1021   1047     1
   1022   1024     1
   1022   1027     1
   1022   1049     1
   1022   1045     1
   1022   1034     1
   1022   1035     1
   1023   1024     1
   1023   1027     1
   1023   1049     1
   1023   1045     1
   1023   1034     1
   1023   1035     1
   1024   1028     1
   1024   1029     1
   1024   1043     1
   1024   1044     1
   1025   1027     1
   1025   1049     1
   1025   1042     1
   1025   1037     1
   1025   1038     1
   1026   1027     1
   1026   1049     1
   1026   1042     1
   1026   1037     1
   1026   1038     1
   1027   1040     1
   1027   1041     1
   1028   1049     1
   1028   1039     1
   1028   1031     1
   1028   1032     1
   1029   1049     1
   1029   1039     1
   1029   1031     1
   1029   1032     1
   1030   1049     1
   1031   1048     1
   1031   1040     1
   1031   1041     1
   1032   1048     1
   1032   1040     1
   1032   1041     1
   1033   1049     1
   1034   2158     1
   1034   1046     1
   1034   1047     1
   1035   2158     1
   1035   1046     1
   1035   1047     1
   1036   1049     1
   1037   2128     1
   1037   1043     1
   1037   1044     1
   1038   2128     1
   1038   1043     1
   1038   1044     1
   1042   2120     1
   1042   2121     1
   1043   2119     1
   1044   2119     1
   1045   2150     1
   1045   2151     1
   1046   2149     1
   1047   2149     1
   1050   1064     1
   1050   1065     1
   1050   1067     1
   1050   1068     1
   1050   1061     1
   1050   1062     1
   1051   1055     1
   1051   1056     1
   1051   1058     1
   1051   1059     1
   1051   1076     1
   1051   1077     1
   1052   1054     1
   1052   1057     1
   1052   1079     1
   1052   1075     1
   1052   1064     1
   1052   1065     1
   1053   1054     1
   1053   1057     1
   1053   1079     1
   1053   1075     1
   1053   1064     1
   1053   1065     1
   1054   1058     1
   1054   1059     1
   1054   1073     1
   1054   1074     1
   1055   1057     1
   1055   1079     1
   1055   1072     1
   1055   1067     1
   1055   1068     1
   1056   1057     1
   1056   1079     1
   1056   1072     1
   1056   1067     1
   1056   1068     1
   1057   1070     1
   1057   1071     1
   1058   1079     1
   1058   1069     1
   1058   1061     1
   1058   1062     1
   1059   1079     1
   1059   1069     1
   1059   1061     1
   1059   1062     1
   1060   1079     1
   1061   1078     1
   1061   1070     1
   1061   1071     1
   1062   1078     1
   1062   1070     1
   1062   1071     1
   1063   1079     1
   1064   2218     1
   1064   1076     1
   1064   1077     1
   1065   2218     1
   1065   1076     1
   1065   1077     1
   1066   1079     1
   1067   2188     1
   1067   1073     1
   1067   1074     1
   1068   2188     1
   1068   1073     1
   1068   1074     1
   1072   2180     1
   1072   2181     1
   1073   2179     1
   1074   2179     1
   1075   2210     1
   1075   2211     1
   1076   2209     1
   1077   2209     1
   1080   1094     1
   1080   1095     1
   1080   1097     1
   1080   1098     1
   1080   1091     1
   1080   1092     1
   1081   1085     1
   1081   1086     1
   1081   1088     1
   1081   1089     1
   1081   1106     1
   1081   1107     1
   1082   1084     1
   1082   1087     1
   1082   1109     1
   1082   1105     1
   1082   1094     1
   1082   1095     1
   1083   1084     1
   1083   1087     1
   1083   1109     1
   1083   1105     1
   1083   1094     1
   1083   1095     1
   1084   1088     1
   1084   1089     1
   1084   1103     1
   1084   1104     1
   1085   1087     1
   1085   1109     1
   1085   1102     1
   1085   1097     1
   1085   1098     1
   1086   1087     1
   1086   1109     1
   1086   1102     1
   1086   1097     1
   1086   1098     1
   1087   1100     1
   1087   1101     1
   1088   1109     1
   1088   1099     1
   1088   1091     1
   1088   1092     1
   1089   1109     1
   1089   1099     1
   1089   1091     1
   1089   1092     1
   1090   1109     1
   1091   1108     1
   1091   1100     1
   1091   1101     1
   1092   1108     1
   1092   1100     1
   1092   1101     1
   1093   1109     1
   1094   2278     1
   1094   1106     1
   1094   1107     1
   1095   2278     1
   1095   1106     1
   1095   1107     1
   1096   1109     1
   1097   2248     1
   1097   1103     1
   1097   1104     1
   1098   2248     1
   1098   1103     1
   1098   1104     1
   1102   2240     1
   1102   2241     1
   1103   2239     1
   1104   2239     1
   1105   2270     1
   1105   2271     1
   1106   2269     1
   1107   2269     1
   1110   1124     1
   1110   1125     1
   1110   1127     1
   1110   1128     1
   1110   1121     1
   1110   1122     1
   1111   1115     1
   1111   1116     1
   1111   1118     1
   1111   1119     1
   1111   1136     1
   1111   1137     1
   1112   1114     1
   1112   1117     1
   1112   1139     1
   1112   1135     1
   1112   1124     1
   1112   1125     1
   1113   1114     1
   1113   1117     1
   1113   1139     1
   1113   1135     1
   1113   1124     1
   1113   1125     1
   1114   1118     1
   1114   1119     1
   1114   1133     1
   1114   1134     1
   1115   1117     1
   1115   1139     1
   1115   1132     1
   1115   1127     1
   1115   1128     1
   1116   1117     1
   1116   1139     1
   1116   1132     1
   1116   1127     1
   1116   1128     1
   1117   1130     1
   1117   1131     1
   1118   1139     1
   1118   1129     1
   1118   1121     1
   1118   1122     1
   1119   1139     1
   1119   1129     1
   1119   1121     1
   1119   1122     1
   1120   1139     1
   1121   1138     1
   1121   1130     1
   1121   1131     1
   1122   1138     1
   1122   1130     1
   1122   1131     1
   1123   1139     1
   1124   2338     1
   1124   1136     1
   1124   1137     1
   1125   2338     1
   1125   1136     1
   1125   1137     1
   1126   1139     1
   1127   2308     1
   1127   1133     1
   1127   1134     1
   1128   2308     1
   1128   1133     1
   1128   1134     1
   1132   2300     1
   1132   2301     1
   1133   2299     1
   1134   2299     1
   1135   2330     1
   1135   2331     1
   1136   2329     1
   1137   2329     1
   1140   1154     1
   1140   1155     1
   1140   1157     1
   1140   1158     1
   1140   1151     1
   1140   1152     1
   1141   1145     1
   1141   1146     1
   1141   1148     1
   1141   1149     1
   1141   1166     1
   1141   1167     1
   1142   1144     1
   1142   1147     1
   1142   1169     1
   1142   1165     1
   1142   1154     1
   1142   1155     1
   1143   1144     1
   1143   1147     1
   1143   1169     1
   1143   1165     1
   1143   1154     1
   1143   1155     1
   1144   1148     1
   1144   1149     1
   1144   1163     1
   1144   1164     1
   1145   1147     1
   1145   1169     1
   1145   1162     1
   1145   1157     1
   1145   1158     1
   1146   1147     1
   1146   1169     1
   1146   1162     1
   1146   1157     1
   1146   1158     1
   1147   1160     1
   1147   1161     1
   1148   1169     1
   1148   1159     1
   1148   1151     1
   1148   1152     1
   1149   1169     1
   1149   1159     1
   1149   1151     1
   1149   1152     1
   1150   1169     1
   1151   1168     1
   1151   1160     1
   1151   1161     1
   1152   1168     1
   1152   1160     1
   1152   1161     1
   1153   1169     1
   1154   2398     1
   1154   1166     1
   1154   1167     1
   1155   2398     1
   1155   1166     1
   1155   1167     1
   1156   1169     1
   1157   2368     1
   1157   1163     1
   1157   1164     1
   1158   2368     1
   1158   1163     1
   1158   1164     1
   1162   2360     1
   1162   2361     1
   1163   2359     1
   1164   2359     1
   1165   2390     1
   1165   2391     1
   1166   2389     1
   1167   2389     1
   1170   1184     1
   1170   1185     1
   1170   1187     1
   1170   1188     1
   1170   1181     1
   1170   1182     1
   1171   1175     1
   1171   1176     1
   1171   1178     1
   1171   1179     1
   1171   1196     1
   1171   1197     1
   1172   1174     1
   1172   1177     1
   1172   1199     1
   1172   1195     1
   1172   1184     1
   1172   1185     1
   1173   1174     1
   1173   1177     1
   1173   1199     1
   1173   1195     1
   1173   1184     1
   1173   1185     1
   1174   1178     1
   1174   1179     1
   1174   1193     1
   1174   1194     1
   1175   1177     1
   1175   1199     1
   1175   1192     1
   1175   1187     1
   1175   1188     1
   1176   1177     1
   1176   1199     1
   1176   1192     1
   1176   1187     1
   1176   1188     1
   1177   1190     1
   1177   1191     1
   1178   1199     1
   1178   1189     1
   1178   1181     1
   1178   1182     1
   1179   1199     1
   1179   1189     1
   1179   1181     1
   1179   1182     1
   1180   1199     1
   1181   1198     1
   1181   1190     1
   1181   1191     1
   1182   1198     1
   1182   1190     1
   1182   1191     1
   1183   1199     1
   1184   2458     1
   1184   1196     1
   1184   1197     1
   1185   2458     1
   1185   1196     1
   1185   1197     1
   1186   1199     1
   1187   2428     1
   1187   1193     1
   1187   1194     1
   1188   2428     1
   1188   1193     1
   1188   1194     1
   1192   2420     1
   1192   2421     1
   1193   2419     1
   1194   2419     1
   1195   2450     1
   1195   2451     1
   1196   2449     1
   1197   2449     1
   1200   1214     1
   1200   1215     1
   1200   1217     1
   1200   1218     1
   1200   1211     1
   1200   1212     1
   1201   1205     1
   1201   1206     1
   1201   1208     1
   1201   1209     1
   1201   1226     1
   1201   1227     1
   1202   1204     1
   1202   1207     1
   1202   1229     1
   1202   1225     1
   1202   1214     1
   1202   1215     1
   1203   1204     1
   1203   1207     1
   1203   1229     1
   1203   1225     1
   1203   1214     1
   1203   1215     1
   1204   1208     1
   1204   1209     1
   1204   1223     1
   1204   1224     1
   1205   1207     1
   1205   1229     1
   1205   1222     1
   1205   1217     1
   1205   1218     1
   1206   1207     1
   1206   1229     1
   1206   1222     1
   1206   1217     1
   1206   1218     1
   1207   1220     1
   1207   1221     1
   1208   1229     1
   1208   1219     1
   1208   1211     1
   1208   1212     1
   1209   1229     1
   1209   1219     1
   1209   1211     1
   1209   1212     1
   1210   1229     1
   1211   1228     1
   1211   1220     1
   1211   1221     1
   1212   1228     1
   1212   1220     1
   1212   1221     1
   1213   1229     1
   1214   2518     1
   1214   1226     1
   1214   1227     1
   1215   2518     1
   1215   1226     1
   1215   1227     1
   1216   1229     1
   1217   2488     1
   1217   1223     1
   1217   1224     1
   1218   2488     1
   1218   1223     1
   1218   1224     1
   1222   2480     1
   1222   2481     1
   1223   2479     1
   1224   2479     1
   1225   2510     1
   1225   2511     1
   1226   2509     1
   1227   2509     1
   1230   1244     1
   1230   1245     1
   1230   1247     1
   1230   1248     1
   1230   1241     1
   1230   1242     1
   1231   1235     1
   1231   1236     1
   1231   1238     1
   1231   1239     1
   1231   1256     1
   1231   1257     1
   1232   1234     1
   1232   1237     1
   1232   1259     1
   1232   1255     1
   1232   1244     1
   1232   1245     1
   1233   1234     1
   1233   1237     1
   1233   1259     1
   1233   1255     1
   1233   1244     1
   1233   1245     1
   1234   1238     1
   1234   1239     1
   1234   1253     1
   1234   1254     1
   1235   1237     1
   1235   1259     1
   1235   1252     1
   1235   1247     1
   1235   1248     1
   1236   1237     1
   1236   1259     1
   1236   1252     1
   1236   1247     1
   1236   1248     1
   1237   1250     1
   1237   1251     1
   1238   1259     1
   1238   1249     1
   1238   1241     1
   1238   1242     1
   1239   1259     1
   1239   1249     1
   1239   1241     1
   1239   1242     1
   1240   1259     1
   1241   1258     1
   1241   1250     1
   1241   1251     1
   1242   1258     1
   1242   1250     1
   1242   1251     1
   1243   1259     1
   1244   2578     1
   1244   1256     1
   1244   1257     1
   1245   2578     1
   1245   1256     1
   1245   1257     1
   1246   1259     1
   1247   2548     1
   1247   1253     1
   1247   1254     1
   1248   2548     1
   1248   1253     1
   1248   1254     1
   1252   2540     1
   1252   2541     1
   1253   2539     1
   1254   2539     1
   1255   2570     1
   1255   2571     1
   1256   2569     1
   1257   2569     1
   1260   1274     1
   1260   1275     1
   1260   1277     1
   1260   1278     1
   1260   1271     1
   1260   1272     1
   1261   1265     1
   1261   1266     1
   1261   1268     1
   1261   1269     1
   1261   1286     1
   1261   1287     1
   1262   1264     1
   1262   1267     1
   1262   1289     1
   1262   1285     1
   1262   1274     1
   1262   1275     1
   1263   1264     1
   1263   1267     1
   1263   1289     1
   1263   1285     1
   1263   1274     1
   1263   1275     1
   1264   1268     1
   1264   1269     1
   1264   1283     1
   1264   1284     1
   1265   1267     1
   1265   1289     1
   1265   1282     1
   1265   1277     1
   1265   1278     1
   1266   1267     1
   1266   1289     1
   1266   1282     1
   1266   1277     1
   1266   1278     1
   1267   1280     1
   1267   1281     1
   1268   1289     1
   1268   1279     1
   1268   1271     1
   1268   1272     1
   1269   1289     1
   1269   1279     1
   1269   1271     1
   1269   1272     1
   1270   1289     1
   1271   1288     1
   1271   1280     1
   1271   1281     1
   1272   1288     1
   1272   1280     1
   1272   1281     1
   1273   1289     1
   1274   2638     1
   1274   1286     1
   1274   1287     1
   1275   2638     1
   1275   1286     1
   1275   1287     1
   1276   1289     1
   1277   2608     1
   1277   1283     1
   1277   1284     1
   1278   2608     1
   1278   1283     1
   1278   1284     1
   1282   2600     1
   1282   2601     1
   1283   2599     1
   1284   2599     1
   1285   2630     1
   1285   2631     1
   1286   2629     1
   1287   2629     1
   1290   1304     1
   1290   1305     1
   1290   1307     1
   1290   1308     1
   1290   1301     1
   1290   1302     1
   1291   1295     1
   1291   1296     1
   1291   1298     1
   1291   1299     1
   1291   1316     1
   1291   1317     1
   1292   1294     1
   1292   1297     1
   1292   1319     1
   1292   1315     1
   1292   1304     1
   1292   1305     1
   1293   1294     1
   1293   1297     1
   1293   1319     1
   1293   1315     1
   1293   1304     1
   1293   1305     1
   1294   1298     1
   1294   1299     1
   1294   1313     1
   1294   1314     1
   1295   1297     1
   1295   1319     1
   1295   1312     1
   1295   1307     1
   1295   1308     1
   1296   1297     1
   1296   1319     1
   1296   1312     1
   1296   1307     1
   1296   1308     1
   1297   1310     1
   1297   1311     1
   1298   1319     1
   1298   1309     1
   1298   1301     1
   1298   1302     1
   1299   1319     1
   1299   1309     1
   1299   1301     1
   1299   1302     1
   1300   1319     1
   1301   1318     1
   1301   1310     1
   1301   1311     1
   1302   1318     1
   1302   1310     1
   1302   1311     1
   1303   1319     1
   1304   2698     1
   1304   1316     1
   1304   1317     1
   1305   2698     1
   1305   1316     1
   1305   1317     1
   1306   1319     1
   1307   2668     1
   1307   1313     1
   1307   1314     1
   1308   2668     1
   1308   1313     1
   1308   1314     1
   1312   2660     1
   1312   2661     1
   1313   2659     1
   1314   2659     1
   1315   2690     1
   1315   2691     1
   1316   2689     1
   1317   2689     1
   1320   1334     1
   1320   1335     1
   1320   1337     1
   1320   1338     1
   1320   1331     1
   1320   1332     1
   1321   1325     1
   1321   1326     1
   1321   1328     1
   1321   1329     1
   1321   1346     1
   1321   1347     1
   1322   1324     1
   1322   1327     1
   1322   1349     1
   1322   1345     1
   1322   1334     1
   1322   1335     1
   1323   1324     1
   1323   1327     1
   1323   1349     1
   1323   1345     1
   1323   1334     1
   1323   1335     1
   1324   1328     1
   1324   1329     1
   1324   1343     1
   1324   1344     1
   1325   1327     1
   1325   1349     1
   1325   1342     1
   1325   1337     1
   1325   1338     1
   1326   1327     1
   1326   1349     1
   1326   1342     1
   1326   1337     1
   1326   1338     1
   1327   1340     1
   1327   1341     1
   1328   1349     1
   1328   1339     1
   1328   1331     1
   1328   1332     1
   1329   1349     1
   1329   1339     1
   1329   1331     1
   1329   1332     1
   1330   1349     1
   1331   1348     1
   1331   1340     1
   1331   1341     1
   1332   1348     1
   1332   1340     1
   1332   1341     1
   1333   1349     1
   1334   2758     1
   1334   1346     1
   1334   1347     1
   1335   2758     1
   1335   1346     1
   1335   1347     1
   1336   1349     1
   1337   2728     1
   1337   1343     1
   1337   1344     1
   1338   2728     1
   1338   1343     1
   1338   1344     1
   1342   2720     1
   1342   2721     1
   1343   2719     1
   1344   2719     1
   1345   2750     1
   1345   2751     1
   1346   2749     1
   1347   2749     1
   1350   1364     1
   1350   1365     1
   1350   1367     1
   1350   1368     1
   1350   1361     1
   1350   1362     1
   1351   1355     1
   1351   1356     1
   1351   1358     1
   1351   1359     1
   1351   1376     1
   1351   1377     1
   1352   1354     1
   1352   1357     1
   1352   1379     1
   1352   1375     1
   1352   1364     1
   1352   1365     1
   1353   1354     1
   1353   1357     1
   1353   1379     1
   1353   1375     1
   1353   1364     1
   1353   1365     1
   1354   1358     1
   1354   1359     1
   1354   1373     1
   1354   1374     1
   1355   1357     1
   1355   1379     1
   1355   1372     1
   1355   1367     1
   1355   1368     1
   1356   1357     1
   1356   1379     1
   1356   1372     1
   1356   1367     1
   1356   1368     1
   1357   1370     1
   1357   1371     1
   1358   1379     1
   1358   1369     1
   1358   1361     1
   1358   1362     1
   1359   1379     1
   1359   1369     1
   1359   1361     1
   1359   1362     1
   1360   1379     1
   1361   1378     1
   1361   1370     1
   1361   1371     1
   1362   1378     1
   1362   1370     1
   1362   1371     1
   1363   1379     1
   1364   2818     1
   1364   1376     1
   1364   1377     1
   1365   2818     1
   1365   1376     1
   1365   1377     1
   1366   1379     1
   1367   2788     1
   1367   1373     1
   1367   1374     1
   1368   2788     1
   1368   1373     1
   1368   1374     1
   1372   2780     1
   1372   2781     1
   1373   2779     1
   1374   2779     1
   1375   2810     1
   1375   2811     1
   1376   2809     1
   1377   2809     1
   1380   1394     1
   1380   1395     1
   1380   1397     1
   1380   1398     1
   1380   1391     1
   1380   1392     1
   1381   1385     1
   1381   1386     1
   1381   1388     1
   1381   1389     1
   1381   1406     1
   1381   1407     1
   1382   1384     1
   1382   1387     1
   1382   1409     1
   1382   1405     1
   1382   1394     1
   1382   1395     1
   1383   1384     1
   1383   1387     1
   1383   1409     1
   1383   1405     1
   1383   1394     1
   1383   1395     1
   1384   1388     1
   1384   1389     1
   1384   1403     1
   1384   1404     1
   1385   1387     1
   1385   1409     1
   1385   1402     1
   1385   1397     1
   1385   1398     1
   1386   1387     1
   1386   1409     1
   1386   1402     1
   1386   1397     1
   1386   1398     1
   1387   1400     1
   1387   1401     1
   1388   1409     1
   1388   1399     1
   1388   1391     1
   1388   1392     1
   1389   1409     1
   1389   1399     1
   1389   1391     1
   1389   1392     1
   1390   1409     1
   1391   1408     1
   1391   1400     1
   1391   1401     1
   1392   1408     1
   1392   1400     1
   1392   1401     1
   1393   1409     1
   1394   2853     1
   1394   1406     1
   1394   1407     1
   1395   2853     1
   1395   1406     1
   1395   1407     1
   1396   1409     1
   1397   2830     1
   1397   1403     1
   1397   1404     1
   1398   2830     1
   1398   1403     1
   1398   1404     1
   1402   2829     1
   1403   2826     1
   1404   2826     1
   1405   2852     1
   1406   2849     1
   1407   2849     1
   1410   1424     1
   1410   1425     1
   1410   1427     1
   1410   1428     1
   1410   1421     1
   1410   1422     1
   1411   1415     1
   1411   1416     1
   1411   1418     1
   1411   1419     1
   1411   1436     1
   1411   1437     1
   1412   1414     1
   1412   1417     1
   1412   1439     1
   1412   1435     1
   1412   1424     1
   1412   1425     1
   1413   1414     1
   1413   1417     1
   1413   1439     1
   1413   1435     1
   1413   1424     1
   1413   1425     1
   1414   1418     1
   1414   1419     1
   1414   1433     1
   1414   1434     1
   1415   1417     1
   1415   1439     1
   1415   1432     1
   1415   1427     1
   1415   1428     1
   1416   1417     1
   1416   1439     1
   1416   1432     1
   1416   1427     1
   1416   1428     1
   1417   1430     1
   1417   1431     1
   1418   1439     1
   1418   1429     1
   1418   1421     1
   1418   1422     1
   1419   1439     1
   1419   1429     1
   1419   1421     1
   1419   1422     1
   1420   1439     1
   1421   1438     1
   1421   1430     1
   1421   1431     1
   1422   1438     1
   1422   1430     1
   1422   1431     1
   1423   1439     1
   1424   2899     1
   1424   1436     1
   1424   1437     1
   1425   2899     1
   1425   1436     1
   1425   1437     1
   1426   1439     1
   1427   2876     1
   1427   1433     1
   1427   1434     1
   1428   2876     1
   1428   1433     1
   1428   1434     1
   1432   2875     1
   1433   2872     1
   1434   2872     1
   1435   2898     1
   1436   2895     1
   1437   2895     1
   1440   1454     1
   1440   1455     1
   1440   1457     1
   1440   1458     1
   1440   1451     1
   1440   1452     1
   1441   1445     1
   1441   1446     1
   1441   1448     1
   1441   1449     1
   1441   1466     1
   1441   1467     1
   1442   1444     1
   1442   1447     1
   1442   1469     1
   1442   1465     1
   1442   1454     1
   1442   1455     1
   1443   1444     1
   1443   1447     1
   1443   1469     1
   1443   1465     1
   1443   1454     1
   1443   1455     1
   1444   1448     1
   1444   1449     1
   1444   1463     1
   1444   1464     1
   1445   1447     1
   1445   1469     1
   1445   1462     1
   1445   1457     1
   1445   1458     1
   1446   1447     1
   1446   1469     1
   1446   1462     1
   1446   1457     1
   1446   1458     1
   1447   1460     1
   1447   1461     1
   1448   1469     1
   1448   1459     1
   1448   1451     1
   1448   1452     1
   1449   1469     1
   1449   1459     1
   1449   1451     1
   1449   1452     1
   1450   1469     1
   1451   1468     1
   1451   1460     1
   1451   1461     1
   1452   1468     1
   1452   1460     1
   1452   1461     1
   1453   1469     1
   1454   2945     1
   1454   1466     1
   1454   1467     1
   1455   2945     1
   1455   1466     1
   1455   1467     1
   1456   1469     1
   1457   2922     1
   1457   1463     1
   1457   1464     1
   1458   2922     1
   1458   1463     1
   1458   1464     1
   1462   2921     1
   1463   2918     1
   1464   2918     1
   1465   2944     1
   1466   2941     1
   1467   2941     1
   1470   1484     1
   1470   1485     1
   1470   1487     1
   1470   1488     1
   1470   1481     1
   1470   1482     1
   1471   1475     1
   1471   1476     1
   1471   1478     1
   1471   1479     1
   1471   1496     1
   1471   1497     1
   1472   1474     1
   1472   1477     1
   1472   1499     1
   1472   1495     1
   1472   1484     1
   1472   1485     1
   1473   1474     1
   1473   1477     1
   1473   1499     1
   1473   1495     1
   1473   1484     1
   1473   1485     1
   1474   1478     1
   1474   1479     1
   1474   1493     1
   1474   1494     1
   1475   1477     1
   1475   1499     1
   1475   1492     1
   1475   1487     1
   1475   1488     1
   1476   1477     1
   1476   1499     1
   1476   1492     1
   1476   1487     1
   1476   1488     1
   1477   1490     1
   1477   1491     1
   1478   1499     1
   1478   1489     1
   1478   1481     1
   1478   1482     1
   1479   1499     1
   1479   1489     1
   1479   1481     1
   1479   1482     1
   1480   1499     1
   1481   1498     1
   1481   1490     1
   1481   1491     1
   1482   1498     1
   1482   1490     1
   1482   1491     1
   1483   1499     1
   1484   2991     1
   1484   1496     1
   1484   1497     1
   1485   2991     1
   1485   1496     1
   1485   1497     1
   1486   1499     1
   1487   2968     1
   1487   1493     1
   1487   1494     1
   1488   2968     1
   1488   1493     1
   1488   1494     1
   1492   2967     1
   1493   2964     1
   1494   2964     1
   1495   2990     1
   1496   2987     1
   1497   2987     1
   1500   1514     1
   1500   1515     1
   1500   1517     1
   1500   1518     1
   1500   1511     1
   1500   1512     1
   1501   1505     1
   1501   1506     1
   1501   1508     1
   1501   1509     1
   1501   1526     1
   1501   1527     1
   1502   1504     1
   1502   1507     1
   1502   1529     1
   1502   1525     1
   1502   1514     1
   1502   1515     1
   1503   1504     1
   1503   1507     1
   1503   1529     1
   1503   1525     1
   1503   1514     1
   1503   1515     1
   1504   1508     1
   1504   1509     1
   1504   1523     1
   1504   1524     1
   1505   1507     1
   1505   1529     1
   1505   1522     1
   1505   1517     1
   1505   1518     1
   1506   1507     1
   1506   1529     1
   1506   1522     1
   1506   1517     1
   1506   1518     1
   1507   1520     1
   1507   1521     1
   1508   1529     1
   1508   1519     1
   1508   1511     1
   1508   1512     1
   1509   1529     1
   1509   1519     1
   1509   1511     1
   1509   1512     1
   1510   1529     1
   1511   1528     1
   1511   1520     1
   1511   1521     1
   1512   1528     1
   1512   1520     1
   1512   1521     1
   1513   1529     1
   1514   3037     1
   1514   1526     1
   1514   1527     1
   1515   3037     1
   1515   1526     1
   1515   1527     1
   1516   1529     1
   1517   3014     1
   1517   1523     1
   1517   1524     1
   1518   3014     1
   1518   1523     1
   1518   1524     1
   1522   3013     1
   1523   3010     1
   1524   3010     1
   1525   3036     1
   1526   3033     1
   1527   3033     1
   1530   1544     1
   1530   1545     1
   1530   1547     1
   1530   1548     1
   1530   1541     1
   1530   1542     1
   1531   1535     1
   1531   1536     1
   1531   1538     1
   1531   1539     1
   1531   1556     1
   1531   1557     1
   1532   1534     1
   1532   1537     1
   1532   1559     1
   1532   1555     1
   1532   1544     1
   1532   1545     1
   1533   1534     1
   1533   1537     1
   1533   1559     1
   1533   1555     1
   1533   1544     1
   1533   1545     1
   1534   1538     1
   1534   1539     1
   1534   1553     1
   1534   1554     1
   1535   1537     1
   1535   1559     1
   1535   1552     1
   1535   1547     1
   1535   1548     1
   1536   1537     1
   1536   1559     1
   1536   1552     1
   1536   1547     1
   1536   1548     1
   1537   1550     1
   1537   1551     1
   1538   1559     1
   1538   1549     1
   1538   1541     1
   1538   1542     1
   1539   1559     1
   1539   1549     1
   1539   1541     1
   1539   1542     1
   1540   1559     1
   1541   1558     1
   1541   1550     1
   1541   1551     1
   1542   1558     1
   1542   1550     1
   1542   1551     1
   1543   1559     1
   1544   3083     1
   1544   1556     1
   1544   1557     1
   1545   3083     1
   1545   1556     1
   1545   1557     1
   1546   1559     1
   1547   3060     1
   1547   1553     1
   1547   1554     1
   1548   3060     1
   1548   1553     1
   1548   1554     1
   1552   3059     1
   1553   3056     1
   1554   3056     1
   1555   3082     1
   1556   3079     1
   1557   3079     1
   1560   1574     1
   1560   1575     1
   1560   1577     1
   1560   1578     1
   1560   1571     1
   1560   1572     1
   1561   1565     1
   1561   1566     1
   1561   1568     1
   1561   1569     1
   1561   1586     1
   1561   1587     1
   1562   1564     1
   1562   1567     1
   1562   1589     1
   1562   1585     1
   1562   1574     1
   1562   1575     1
   1563   1564     1
   1563   1567     1
   1563   1589     1
   1563   1585     1
   1563   1574     1
   1563   1575     1
   1564   1568     1
   1564   1569     1
   1564   1583     1
   1564   1584     1
   1565   1567     1
   1565   1589     1
   1565   1582     1
   1565   1577     1
   1565   1578     1
   1566   1567     1
   1566   1589     1
   1566   1582     1
   1566   1577     1
   1566   1578     1
   1567   1580     1
   1567   1581     1
   1568   1589     1
   1568   1579     1
   1568   1571     1
   1568   1572     1
   1569   1589     1
   1569   1579     1
   1569   1571     1
   1569   1572     1
   1570   1589     1
   1571   1588     1
   1571   1580     1
   1571   1581     1
   1572   1588     1
   1572   1580     1
   1572   1581     1
   1573   1589     1
   1574   3129     1
   1574   1586     1
   1574   1587     1
   1575   3129     1
   1575   1586     1
   1575   1587     1
   1576   1589     1
   1577   3106     1
   1577   1583     1
   1577   1584     1
   1578   3106     1
   1578   1583     1
   1578   1584     1
   1582   3105     1
   1583   3102     1
   1584   3102     1
   1585   3128     1
   1586   3125     1
   1587   3125     1
   1590   1604     1
   1590   1605     1
   1590   1607     1
   1590   1608     1
   1590   1601     1
   1590   1602     1
   1591   1595     1
   1591   1596     1
   1591   1598     1
   1591   1599     1
   1591   1616     1
   1591   1617     1
   1592   1594     1
   1592   1597     1
   1592   1619     1
   1592   1615     1
   1592   1604     1
   1592   1605     1
   1593   1594     1
   1593   1597     1
   1593   1619     1
   1593   1615     1
   1593   1604     1
   1593   1605     1
   1594   1598     1
   1594   1599     1
   1594   1613     1
   1594   1614     1
   1595   1597     1
   1595   1619     1
   1595   1612     1
   1595   1607     1
   1595   1608     1
   1596   1597     1
   1596   1619     1
   1596   1612     1
   1596   1607     1
   1596   1608     1
   1597   1610     1
   1597   1611     1
   1598   1619     1
   1598   1609     1
   1598   1601     1
   1598   1602     1
   1599   1619     1
   1599   1609     1
   1599   1601     1
   1599   1602     1
   1600   1619     1
   1601   1618     1
   1601   1610     1
   1601   1611     1
   1602   1618     1
   1602   1610     1
   1602   1611     1
   1603   1619     1
   1604   3175     1
   1604   1616     1
   1604   1617     1
   1605   3175     1
   1605   1616     1
   1605   1617     1
   1606   1619     1
   1607   3152     1
   1607   1613     1
   1607   1614     1
   1608   3152     1
   1608   1613     1
   1608   1614     1
   1612   3151     1
   1613   3148     1
   1614   3148     1
   1615   3174     1
   1616   3171     1
   1617   3171     1
   1620   1634     1
   1620   1635     1
   1620   1637     1
   1620   1638     1
   1620   1631     1
   1620   1632     1
   1621   1625     1
   1621   1626     1
   1621   1628     1
   1621   1629     1
   1621   1646     1
   1621   1647     1
   1622   1624     1
   1622   1627     1
   1622   1649     1
   1622   1645     1
   1622   1634     1
   1622   1635     1
   1623   1624     1
   1623   1627     1
   1623   1649     1
   1623   1645     1
   1623   1634     1
   1623   1635     1
   1624   1628     1
   1624   1629     1
   1624   1643     1
   1624   1644     1
   1625   1627     1
   1625   1649     1
   1625   1642     1
   1625   1637     1
   1625   1638     1
   1626   1627     1
   1626   1649     1
   1626   1642     1
   1626   1637     1
   1626   1638     1
   1627   1640     1
   1627   1641     1
   1628   1649     1
   1628   1639     1
   1628   1631     1
   1628   1632     1
   1629   1649     1
   1629   1639     1
   1629   1631     1
   1629   1632     1
   1630   1649     1
   1631   1648     1
   1631   1640     1
   1631   1641     1
   1632   1648     1
   1632   1640     1
   1632   1641     1
   1633   1649     1
   1634   3221     1
   1634   1646     1
   1634   1647     1
   1635   3221     1
   1635   1646     1
   1635   1647     1
   1636   1649     1
   1637   3198     1
   1637   1643     1
   1637   1644     1
   1638   3198     1
   1638   1643     1
   1638   1644     1
   1642   3197     1
   1643   3194     1
   1644   3194     1
   1645   3220     1
   1646   3217     1
   1647   3217     1
   1650   1664     1
   1650   1665     1
   1650   1667     1
   1650   1668     1
   1650   1661     1
   1650   1662     1
   1651   1655     1
   1651   1656     1
   1651   1658     1
   1651   1659     1
   1651   1676     1
   1651   1677     1
   1652   1654     1
   1652   1657     1
   1652   1679     1
   1652   1675     1
   1652   1664     1
   1652   1665     1
   1653   1654     1
   1653   1657     1
   1653   1679     1
   1653   1675     1
   1653   1664     1
   1653   1665     1
   1654   1658     1
   1654   1659     1
   1654   1673     1
   1654   1674     1
   1655   1657     1
   1655   1679     1
   1655   1672     1
   1655   1667     1
   1655   1668     1
   1656   1657     1
   1656   1679     1
   1656   1672     1
   1656   1667     1
   1656   1668     1
   1657   1670     1
   1657   1671     1
   1658   1679     1
   1658   1669     1
   1658   1661     1
   1658   1662     1
   1659   1679     1
   1659   1669     1
   1659   1661     1
   1659   1662     1
   1660   1679     1
   1661   1678     1
   1661   1670     1
   1661   1671     1
   1662   1678     1
   1662   1670     1
   1662   1671     1
   1663   1679     1
   1664   3267     1
   1664   1676     1
   1664   1677     1
   1665   3267     1
   1665   1676     1
   1665   1677     1
   1666   1679     1
   1667   3244     1
   1667   1673     1
   1667   1674     1
   1668   3244     1
   1668   1673     1
   1668   1674     1
   1672   3243     1
   1673   3240     1
   1674   3240     1
   1675   3266     1
   1676   3263     1
   1677   3263     1
   1680   1694     1
   1680   1695     1
   1680   1697     1
   1680   1698     1
   1680   1691     1
   1680   1692     1
   1681   1685     1
   1681   1686     1
   1681   1688     1
   1681   1689     1
   1681   1706     1
   1681   1707     1
   1682   1684     1
   1682   1687     1
   1682   1709     1
   1682   1705     1
   1682   1694     1
   1682   1695     1
   1683   1684     1
   1683   1687     1
   1683   1709     1
   1683   1705     1
   1683   1694     1
   1683   1695     1
   1684   1688     1
   1684   1689     1
   1684   1703     1
   1684   1704     1
   1685   1687     1
   1685   1709     1
   1685   1702     1
   1685   1697     1
   1685   1698     1
   1686   1687     1
   1686   1709     1
   1686   1702     1
   1686   1697     1
   1686   1698     1
   1687   1700     1
   1687   1701     1
   1688   1709     1
   1688   1699     1
   1688   1691     1
   1688   1692     1
   1689   1709     1
   1689   1699     1
   1689   1691     1
   1689   1692     1
   1690   1709     1
   1691   1708     1
   1691   1700     1
   1691   1701     1
   1692   1708     1
   1692   1700     1
   1692   1701     1
   1693   1709     1
   1694   3313     1
   1694   1706     1
   1694   1707     1
   1695   3313     1
   1695   1706     1
   1695   1707     1
   1696   1709     1
   1697   3290     1
   1697   1703     1
   1697   1704     1
   1698   3290     1
   1698   1703     1
   1698   1704     1
   1702   3289     1
   1703   3286     1
   1704   3286     1
   1705   3312     1
   1706   3309     1
   1707   3309     1
   1710   1724     1
   1710   1725     1
   1710   1727     1
   1710   1728     1
   1710   1721     1
   1710   1722     1
   1711   1715     1
   1711   1716     1
   1711   1718     1
   1711   1719     1
   1711   1736     1
   1711   1737     1
   1712   1714     1
   1712   1717     1
   1712   1739     1
   1712   1735     1
   1712   1724     1
   1712   1725     1
   1713   1714     1
   1713   1717     1
   1713   1739     1
   1713   1735     1
   1713   1724     1
   1713   1725     1
   1714   1718     1
   1714   1719     1
   1714   1733     1
   1714   1734     1
   1715   1717     1
   1715   1739     1
   1715   1732     1
   1715   1727     1
   1715   1728     1
   1716   1717     1
   1716   1739     1
   1716   1732     1
   1716   1727     1
   1716   1728     1
   1717   1730     1
   1717   1731     1
   1718   1739     1
   1718   1729     1
   1718   1721     1
   1718   1722     1
   1719   1739     1
   1719   1729     1
   1719   1721     1
   1719   1722     1
   1720   1739     1
   1721   1738     1
   1721   1730     1
   1721   1731     1
   1722   1738     1
   1722   1730     1
   1722   1731     1
   1723   1739     1
   1724   3359     1
   1724   1736     1
   1724   1737     1
   1725   3359     1
   1725   1736     1
   1725   1737     1
   1726   1739     1
   1727   3336     1
   1727   1733     1
   1727   1734     1
   1728   3336     1
   1728   1733     1
   1728   1734     1
   1732   3335     1
   1733   3332     1
   1734   3332     1
   1735   3358     1
   1736   3355     1
   1737   3355     1
   1740   1754     1
   1740   1755     1
   1740   1757     1
   1740   1758     1
   1740   1751     1
   1740   1752     1
   1741   1745     1
   1741   1746     1
   1741   1748     1
   1741   1749     1
   1741   1766     1
   1741   1767     1
   1742   1744     1
   1742   1747     1
   1742   1769     1
   1742   1765     1
   1742   1754     1
   1742   1755     1
   1743   1744     1
   1743   1747     1
   1743   1769     1
   1743   1765     1
   1743   1754     1
   1743   1755     1
   1744   1748     1
   1744   1749     1
   1744   1763     1
   1744   1764     1
   1745   1747     1
   1745   1769     1
   1745   1762     1
   1745   1757     1
   1745   1758     1
   1746   1747     1
   1746   1769     1
   1746   1762     1
   1746   1757     1
   1746   1758     1
   1747   1760     1
   1747   1761     1
   1748   1769     1
   1748   1759     1
   1748   1751     1
   1748   1752     1
   1749   1769     1
   1749   1759     1
   1749   1751     1
   1749   1752     1
   1750   1769     1
   1751   1768     1
   1751   1760     1
   1751   1761     1
   1752   1768     1
   1752   1760     1
   1752   1761     1
   1753   1769     1
   1754   3405     1
   1754   1766     1
   1754   1767     1
   1755   3405     1
   1755   1766     1
   1755   1767     1
   1756   1769     1
   1757   3382     1
   1757   1763     1
   1757   1764     1
   1758   3382     1
   1758   1763     1
   1758   1764     1
   1762   3381     1
   1763   3378     1
   1764   3378     1
   1765   3404     1
   1766   3401     1
   1767   3401     1
   1770   1784     1
   1770   1785     1
   1770   1787     1
   1770   1788     1
   1770   1781     1
   1770   1782     1
   1771   1775     1
   1771   1776     1
   1771   1778     1
   1771   1779     1
   1771   1796     1
   1771   1797     1
   1772   1774     1
   1772   1777     1
   1772   1799     1
   1772   1795     1
   1772   1784     1
   1772   1785     1
   1773   1774     1
   1773   1777     1
   1773   1799     1
   1773   1795     1
   1773   1784     1
   1773   1785     1
   1774   1778     1
   1774   1779     1
   1774   1793     1
   1774   1794     1
   1775   1777     1
   1775   1799     1
   1775   1792     1
   1775   1787     1
   1775   1788     1
   1776   1777     1
   1776   1799     1
   1776   1792     1
   1776   1787     1
   1776   1788     1
   1777   1790     1
   1777   1791     1
   1778   1799     1
   1778   1789     1
   1778   1781     1
   1778   1782     1
   1779   1799     1
   1779   1789     1
   1779   1781     1
   1779   1782     1
   1780   1799     1
   1781   1798     1
   1781   1790     1
   1781   1791     1
   1782   1798     1
   1782   1790     1
   1782   1791     1
   1783   1799     1
   1784   3451     1
   1784   1796     1
   1784   1797     1
   1785   3451     1
   1785   1796     1
   1785   1797     1
   1786   1799     1
   1787   3428     1
   1787   1793     1
   1787   1794     1
   1788   3428     1
   1788   1793     1
   1788   1794     1
   1792   3427     1
   1793   3424     1
   1794   3424     1
   1795   3450     1
   1796   3447     1
   1797   3447     1
   1800   1814     1
   1800   1815     1
   1800   1817     1
   1800   1818     1
   1800   1811     1
   1800   1812     1
   1801   1805     1
   1801   1806     1
   1801   1808     1
   1801   1809     1
   1801   1826     1
   1801   1827     1
   1802   1804     1
   1802   1807     1
   1802   1829     1
   1802   1825     1
   1802   1814     1
   1802   1815     1
   1803   1804     1
   1803   1807     1
   1803   1829     1
   1803   1825     1
   1803   1814     1
   1803   1815     1
   1804   1808     1
   1804   1809     1
   1804   1823     1
   1804   1824     1
   1805   1807     1
   1805   1829     1
   1805   1822     1
   1805   1817     1
   1805   1818     1
   1806   1807     1
   1806   1829     1
   1806   1822     1
   1806   1817     1
   1806   1818     1
   1807   1820     1
   1807   1821     1
   1808   1829     1
   1808   1819     1
   1808   1811     1
   1808   1812     1
   1809   1829     1
   1809   1819     1
   1809   1811     1
   1809   1812     1
   1810   1829     1
   1811   1828     1
   1811   1820     1
   1811   1821     1
   1812   1828     1
   1812   1820     1
   1812   1821     1
   1813   1829     1
   1814   3497     1
   1814   1826     1
   1814   1827     1
   1815   3497     1
   1815   1826     1
   1815   1827     1
   1816   1829     1
   1817   3474     1
   1817   1823     1
   1817   1824     1
   1818   3474     1
   1818   1823     1
   1818   1824     1
   1822   3473     1
   1823   3470     1
   1824   3470     1
   1825   3496     1
   1826   3493     1
   1827   3493     1
   1830   1844     1
   1830   1845     1
   1830   1847     1
   1830   1848     1
   1830   1841     1
   1830   1842     1
   1831   1835     1
   1831   1836     1
   1831   1838     1
   1831   1839     1
   1831   1856     1
   1831   1857     1
   1832   1834     1
   1832   1837     1
   1832   1859     1
   1832   1855     1
   1832   1844     1
   1832   1845     1
   1833   1834     1
   1833   1837     1
   1833   1859     1
   1833   1855     1
   1833   1844     1
   1833   1845     1
   1834   1838     1
   1834   1839     1
   1834   1853     1
   1834   1854     1
   1835   1837     1
   1835   1859     1
   1835   1852     1
   1835   1847     1
   1835   1848     1
   1836   1837     1
   1836   1859     1
   1836   1852     1
   1836   1847     1
   1836   1848     1
   1837   1850     1
   1837   1851     1
   1838   1859     1
   1838   1849     1
   1838   1841     1
   1838   1842     1
   1839   1859     1
   1839   1849     1
   1839   1841     1
   1839   1842     1
   1840   1859     1
   1841   1858     1
   1841   1850     1
   1841   1851     1
   1842   1858     1
   1842   1850     1
   1842   1851     1
   1843   1859     1
   1844   3543     1
   1844   1856     1
   1844   1857     1
   1845   3543     1
   1845   1856     1
   1845   1857     1
   1846   1859     1
   1847   3520     1
   1847   1853     1
   1847   1854     1
   1848   3520     1
   1848   1853     1
   1848   1854     1
   1852   3519     1
   1853   3516     1
   1854   3516     1
   1855   3542     1
   1856   3539     1
   1857   3539     1
   1860   1874     1
   1860   1875     1
   1860   1877     1
   1860   1878     1
   1860   1871     1
   1860   1872     1
   1861   1865     1
   1861   1866     1
   1861   1868     1
   1861   1869     1
   1861   1886     1
   1861   1887     1
   1862   1864     1
   1862   1867     1
   1862   1889     1
   1862   1885     1
   1862   1874     1
   1862   1875     1
   1863   1864     1
   1863   1867     1
   1863   1889     1
   1863   1885     1
   1863   1874     1
   1863   1875     1
   1864   1868     1
   1864   1869     1
   1864   1883     1
   1864   1884     1
   1865   1867     1
   1865   1889     1
   1865   1882     1
   1865   1877     1
   1865   1878     1
   1866   1867     1
   1866   1889     1
   1866   1882     1
   1866   1877     1
   1866   1878     1
   1867   1880     1
   1867   1881     1
   1868   1889     1
   1868   1879     1
   1868   1871     1
   1868   1872     1
   1869   1889     1
   1869   1879     1
   1869   1871     1
   1869   1872     1
   1870   1889     1
   1871   1888     1
   1871   1880     1
   1871   1881     1
   1872   1888     1
   1872   1880     1
   1872   1881     1
   1873   1889     1
   1874   3589     1
   1874   1886     1
   1874   1887     1
   1875   3589     1
   1875   1886     1
   1875   1887     1
   1876   1889     1
   1877   3566     1
   1877   1883     1
   1877   1884     1
   1878   3566     1
   1878   1883     1
   1878   1884     1
   1882   3565     1
   1883   3562     1
   1884   3562     1
   1885   3588     1
   1886   3585     1
   1887   3585     1
   1890   1904     1
   1890   1905     1
   1890   1907     1
   1890   1908     1
   1890   1901     1
   1890   1902     1
   1891   1895     1
   1891   1896     1
   1891   1898     1
   1891   1899     1
   1891   1916     1
   1891   1917     1
   1892   1894     1
   1892   1897     1
   1892   1919     1
   1892   1915     1
   1892   1904     1
   1892   1905     1
   1893   1894     1
   1893   1897     1
   1893   1919     1
   1893   1915     1
   1893   1904     1
   1893   1905     1
   1894   1898     1
   1894   1899     1
   1894   1913     1
   1894   1914     1
   1895   1897     1
   1895   1919     1
   1895   1912     1
   1895   1907     1
   1895   1908     1
   1896   1897     1
   1896   1919     1
   1896   1912     1
   1896   1907     1
   1896   1908     1
   1897   1910     1
   1897   1911     1
   1898   1919     1
   1898   1909     1
   1898   1901     1
   1898   1902     1
   1899   1919     1
   1899   1909     1
   1899   1901     1
   1899   1902     1
   1900   1919     1
   1901   1918     1
   1901   1910     1
   1901   1911     1
   1902   1918     1
   1902   1910     1
   1902   1911     1
   1903   1919     1
   1904   3635     1
   1904   1916     1
   1904   1917     1
   1905   3635     1
   1905   1916     1
   1905   1917     1
   1906   1919     1
   1907   3612     1
   1907   1913     1
   1907   1914     1
   1908   3612     1
   1908   1913     1
   1908   1914     1
   1912   3611     1
   1913   3608     1
   1914   3608     1
   1915   3634     1
   1916   3631     1
   1917   3631     1
   1920   1934     1
   1920   1935     1
   1920   1937     1
   1920   1938     1
   1920   1931     1
   1920   1932     1
   1921   1925     1
   1921   1926     1
   1921   1928     1
   1921   1929     1
   1921   1946     1
   1921   1947     1
   1922   1924     1
   1922   1927     1
   1922   1949     1
   1922   1945     1
   1922   1934     1
   1922   1935     1
   1923   1924     1
   1923   1927     1
   1923   1949     1
   1923   1945     1
   1923   1934     1
   1923   1935     1
   1924   1928     1
   1924   1929     1
   1924   1943     1
   1924   1944     1
   1925   1927     1
   1925   1949     1
   1925   1942     1
   1925   1937     1
   1925   1938     1
   1926   1927     1
   1926   1949     1
   1926   1942     1
   1926   1937     1
   1926   1938     1
   1927   1940     1
   1927   1941     1
   1928   1949     1
   1928   1939     1
   1928   1931     1
   1928   1932     1
   1929   1949     1
   1929   1939     1
   1929   1931     1
   1929   1932     1
   1930   1949     1
   1931   1948     1
   1931   1940     1
   1931   1941     1
   1932   1948     1
   1932   1940     1
   1932   1941     1
   1933   1949     1
   1934   3681     1
   1934   1946     1
   1934   1947     1
   1935   3681     1
   1935   1946     1
   1935   1947     1
   1936   1949     1
   1937   3658     1
   1937   1943     1
   1937   1944     1
   1938   3658     1
   1938   1943     1
   1938   1944     1
   1942   3657     1
   1943   3654     1
   1944   3654     1
   1945   3680     1
   1946   3677     1
   1947   3677     1
   1950   1964     1
   1950   1965     1
   1950   1967     1
   1950   1968     1
   1950   1961     1
   1950   1962     1
   1951   1955     1
   1951   1956     1
   1951   1958     1
   1951   1959     1
   1951   1976     1
   1951   1977     1
   1952   1954     1
   1952   1957     1
   1952   1979     1
   1952   1975     1
   1952   1964     1
   1952   1965     1
   1953   1954     1
   1953   1957     1
   1953   1979     1
   1953   1975     1
   1953   1964     1
   1953   1965     1
   1954   1958     1
   1954   1959     1
   1954   1973     1
   1954   1974     1
   1955   1957     1
   1955   1979     1
   1955   1972     1
   1955   1967     1
   1955   1968     1
   1956   1957     1
   1956   1979     1
   1956   1972     1
   1956   1967     1
   1956   1968     1
   1957   1970     1
   1957   1971     1
   1958   1979     1
   1958   1969     1
   1958   1961     1
   1958   1962     1
   1959   1979     1
   1959   1969     1
   1959   1961     1
   1959   1962     1
   1960   1979     1
   1961   1978     1
   1961   1970     1
   1961   1971     1
   1962   1978     1
   1962   1970     1
   1962   1971     1
   1963   1979     1
   1964   3727     1
   1964   1976     1
   1964   1977     1
   1965   3727     1
   1965   1976     1
   1965   1977     1
   1966   1979     1
   1967   3704     1
   1967   1973     1
   1967   1974     1
   1968   3704     1
   1968   1973     1
   1968   1974     1
   1972   3703     1
   1973   3700     1
   1974   3700     1
   1975   3726     1
   1976   3723     1
   1977   3723     1
   1980   1994     1
   1980   1995     1
   1980   1997     1
   1980   1998     1
   1980   1991     1
   1980   1992     1
   1981   1985     1
   1981   1986     1
   1981   1988     1
   1981   1989     1
   1981   2006     1
   1981   2007     1
   1982   1984     1
   1982   1987     1
   1982   2009     1
   1982   2005     1
   1982   1994     1
   1982   1995     1
   1983   1984     1
   1983   1987     1
   1983   2009     1
   1983   2005     1
   1983   1994     1
   1983   1995     1
   1984   1988     1
   1984   1989     1
   1984   2003     1
   1984   2004     1
   1985   1987     1
   1985   2009     1
   1985   2002     1
   1985   1997     1
   1985   1998     1
   1986   1987     1
   1986   2009     1
   1986   2002     1
   1986   1997     1
   1986   1998     1
   1987   2000     1
   1987   2001     1
   1988   2009     1
   1988   1999     1
   1988   1991     1
   1988   1992     1
   1989   2009     1
   1989   1999     1
   1989   1991     1
   1989   1992     1
   1990   2009     1
   1991   2008     1
   1991   2000     1
   1991   2001     1
   1992   2008     1
   1992   2000     1
   1992   2001     1
   1993   2009     1
   1994   3773     1
   1994   2006     1
   1994   2007     1
   1995   3773     1
   1995   2006     1
   1995   2007     1
   1996   2009     1
   1997   3750     1
   1997   2003     1
   1997   2004     1
   1998   3750     1
   1998   2003     1
   1998   2004     1
   2002   3749     1
   2003   3746     1
   2004   3746     1
   2005   3772     1
   2006   3769     1
   2007   3769     1
   2010   2024     1
   2010   2025     1
   2010   2027     1
   2010   2028     1
   2010   2021     1
   2010   2022     1
   2011   2015     1
   2011   2016     1
   2011   2018     1
   2011   2019     1
   2011   2036     1
   2011   2037     1
   2012   2014     1
   2012   2017     1
   2012   2039     1
   2012   2035     1
   2012   2024     1
   2012   2025     1
   2013   2014     1
   2013   2017     1
   2013   2039     1
   2013   2035     1
   2013   2024     1
   2013   2025     1
   2014   2018     1
   2014   2019     1
   2014   2033     1
   2014   2034     1
   2015   2017     1
   2015   2039     1
   2015   2032     1
   2015   2027     1
   2015   2028     1
   2016   2017     1
   2016   2039     1
   2016   2032     1
   2016   2027     1
   2016   2028     1
   2017   2030     1
   2017   2031     1
   2018   2039     1
   2018   2029     1
   2018   2021     1
   2018   2022     1
   2019   2039     1
   2019   2029     1
   2019   2021     1
   2019   2022     1
   2020   2039     1
   2021   2038     1
   2021   2030     1
   2021   2031     1
   2022   2038     1
   2022   2030     1
   2022   2031     1
   2023   2039     1
   2024   3819     1
   2024   2036     1
   2024   2037     1
   2025   3819     1
   2025   2036     1
   2025   2037     1
   2026   2039     1
   2027   3796     1
   2027   2033     1
   2027   2034     1
   2028   3796     1
   2028   2033     1
   2028   2034     1
   2032   3795     1
   2033   3792     1
   2034   3792     1
   2035   3818     1
   2036   3815     1
   2037   3815     1
   2040   2054     1
   2040   2055     1
   2040   2057     1
   2040   2058     1
   2040   2051     1
   2040   2052     1
   2041   2045     1
   2041   2046     1
   2041   2048     1
   2041   2049     1
   2041   2066     1
   2041   2067     1
   2042   2044     1
   2042   2047     1
   2042   2069     1
   2042   2065     1
   2042   2054     1
   2042   2055     1
   2043   2044     1
   2043   2047     1
   2043   2069     1
   2043   2065     1
   2043   2054     1
   2043   2055     1
   2044   2048     1
   2044   2049     1
   2044   2063     1
   2044   2064     1
   2045   2047     1
   2045   2069     1
   2045   2062     1
   2045   2057     1
   2045   2058     1
   2046   2047     1
   2046   2069     1
   2046   2062     1
   2046   2057     1
   2046   2058     1
   2047   2060     1
   2047   2061     1
   2048   2069     1
   2048   2059     1
   2048   2051     1
   2048   2052     1
   2049   2069     1
   2049   2059     1
   2049   2051     1
   2049   2052     1
   2050   2069     1
   2051   2068     1
   2051   2060     1
   2051   2061     1
   2052   2068     1
   2052   2060     1
   2052   2061     1
   2053   2069     1
   2054   3865     1
   2054   2066     1
   2054   2067     1
   2055   3865     1
   2055   2066     1
   2055   2067     1
   2056   2069     1
   2057   3842     1
   2057   2063     1
   2057   2064     1
   2058   3842     1
   2058   2063     1
   2058   2064     1
   2062   3841     1
   2063   3838     1
   2064   3838     1
   2065   3864     1
   2066   3861     1
   2067   3861     1
   2070   2084     1
   2070   2085     1
   2070   2087     1
   2070   2088     1
   2070   2081     1
   2070   2082     1
   2071   2075     1
   2071   2076     1
   2071   2078     1
   2071   2079     1
   2071   2096     1
   2071   2097     1
   2072   2074     1
   2072   2077     1
   2072   2099     1
   2072   2095     1
   2072   2084     1
   2072   2085     1
   2073   2074     1
   2073   2077     1
   2073   2099     1
   2073   2095     1
   2073   2084     1
   2073   2085     1
   2074   2078     1
   2074   2079     1
   2074   2093     1
   2074   2094     1
   2075   2077     1
   2075   2099     1
   2075   2092     1
   2075   2087     1
   2075   2088     1
   2076   2077     1
   2076   2099     1
   2076   2092     1
   2076   2087     1
   2076   2088     1
   2077   2090     1
   2077   2091     1
   2078   2099     1
   2078   2089     1
   2078   2081     1
   2078   2082     1
   2079   2099     1
   2079   2089     1
   2079   2081     1
   2079   2082     1
   2080   2099     1
   2081   2098     1
   2081   2090     1
   2081   2091     1
   2082   2098     1
   2082   2090     1
   2082   2091     1
   2083   2099     1
   2084   3911     1
   2084   2096     1
   2084   2097     1
   2085   3911     1
   2085   2096     1
   2085   2097     1
   2086   2099     1
   2087   3888     1
   2087   2093     1
   2087   2094     1
   2088   3888     1
   2088   2093     1
   2088   2094     1
   2092   3887     1
   2093   3884     1
   2094   3884     1
   2095   3910     1
   2096   3907     1
   2097   3907     1
   2100   2114     1
   2100   2115     1
   2100   2117     1
   2100   2118     1
   2100   2111     1
   2100   2112     1
   2101   2105     1
   2101   2106     1
   2101   2108     1
   2101   2109     1
   2101   2126     1
   2101   2127     1
   2102   2104     1
   2102   2107     1
   2102   2129     1
   2102   2125     1
   2102   2114     1
   2102   2115     1
   2103   2104     1
   2103   2107     1
   2103   2129     1
   2103   2125     1
   2103   2114     1
   2103   2115     1
   2104   2108     1
   2104   2109     1
   2104   2123     1
   2104   2124     1
   2105   2107     1
   2105   2129     1
   2105   2122     1
   2105   2117     1
   2105   2118     1
   2106   2107     1
   2106   2129     1
   2106   2122     1
   2106   2117     1
   2106   2118     1
   2107   2120     1
   2107   2121     1
   2108   2129     1
   2108   2119     1
   2108   2111     1
   2108   2112     1
   2109   2129     1
   2109   2119     1
   2109   2111     1
   2109   2112     1
   2110   2129     1
   2111   2128     1
   2111   2120     1
   2111   2121     1
   2112   2128     1
   2112   2120     1
   2112   2121     1
   2113   2129     1
   2114   3957     1
   2114   2126     1
   2114   2127     1
   2115   3957     1
   2115   2126     1
   2115   2127     1
   2116   2129     1
   2117   3934     1
   2117   2123     1
   2117   2124     1
   2118   3934     1
   2118   2123     1
   2118   2124     1
   2122   3933     1
   2123   3930     1
   2124   3930     1
   2125   3956     1
   2126   3953     1
   2127   3953     1
   2130   2144     1
   2130   2145     1
   2130   2147     1
   2130   2148     1
   2130   2141     1
   2130   2142     1
   2131   2135     1
   2131   2136     1
   2131   2138     1
   2131   2139     1
   2131   2156     1
   2131   2157     1
   2132   2134     1
   2132   2137     1
   2132   2159     1
   2132   2155     1
   2132   2144     1
   2132   2145     1
   2133   2134     1
   2133   2137     1
   2133   2159     1
   2133   2155     1
   2133   2144     1
   2133   2145     1
   2134   2138     1
   2134   2139     1
   2134   2153     1
   2134   2154     1
   2135   2137     1
   2135   2159     1
   2135   2152     1
   2135   2147     1
   2135   2148     1
   2136   2137     1
   2136   2159     1
   2136   2152     1
   2136   2147     1
   2136   2148     1
   2137   2150     1
   2137   2151     1
   2138   2159     1
   2138   2149     1
   2138   2141     1
   2138   2142     1
   2139   2159     1
   2139   2149     1
   2139   2141     1
   2139   2142     1
   2140   2159     1
   2141   2158     1
   2141   2150     1
   2141   2151     1
   2142   2158     1
   2142   2150     1
   2142   2151     1
   2143   2159     1
   2144   4003     1
   2144   2156     1
   2144   2157     1
   2145   4003     1
   2145   2156     1
   2145   2157     1
   2146   2159     1
   2147   3980     1
   2147   2153     1
   2147   2154     1
   2148   3980     1
   2148   2153     1
   2148   2154     1
   2152   3979     1
   2153   3976     1
   2154   3976     1
   2155   4002     1
   2156   3999     1
   2157   3999     1
   2160   2174     1
   2160   2175     1
   2160   2177     1
   2160   2178     1
   2160   2171     1
   2160   2172     1
   2161   2165     1
   2161   2166     1
   2161   2168     1
   2161   2169     1
   2161   2186     1
   2161   2187     1
   2162   2164     1
   2162   2167     1
   2162   2189     1
   2162   2185     1
   2162   2174     1
   2162   2175     1
   2163   2164     1
   2163   2167     1
   2163   2189     1
   2163   2185     1
   2163   2174     1
   2163   2175     1
   2164   2168     1
   2164   2169     1
   2164   2183     1
   2164   2184     1
   2165   2167     1
   2165   2189     1
   2165   2182     1
   2165   2177     1
   2165   2178     1
   2166   2167     1
   2166   2189     1
   2166   2182     1
   2166   2177     1
   2166   2178     1
   2167   2180     1
   2167   2181     1
   2168   2189     1
   2168   2179     1
   2168   2171     1
   2168   2172     1
   2169   2189     1
   2169   2179     1
   2169   2171     1
   2169   2172     1
   2170   2189     1
   2171   2188     1
   2171   2180     1
   2171   2181     1
   2172   2188     1
   2172   2180     1
   2172   2181     1
   2173   2189     1
   2174   4049     1
   2174   2186     1
   2174   2187     1
   2175   4049     1
   2175   2186     1
   2175   2187     1
   2176   2189     1
   2177   4026     1
   2177   2183     1
   2177   2184     1
   2178   4026     1
   2178   2183     1
   2178   2184     1
   2182   4025     1
   2183   4022     1
   2184   4022     1
   2185   4048     1
   2186   4045     1
   2187   4045     1
   2190   2204     1
   2190   2205     1
   2190   2207     1
   2190   2208     1
   2190   2201     1
   2190   2202     1
   2191   2195     1
   2191   2196     1
   2191   2198     1
   2191   2199     1
   2191   2216     1
   2191   2217     1
   2192   2194     1
   2192   2197     1
   2192   2219     1
   2192   2215     1
   2192   2204     1
   2192   2205     1
   2193   2194     1
   2193   2197     1
   2193   2219     1
   2193   2215     1
   2193   2204     1
   2193   2205     1
   2194   2198     1
   2194   2199     1
   2194   2213     1
   2194   2214     1
   2195   2197     1
   2195   2219     1
   2195   2212     1
   2195   2207     1
   2195   2208     1
   2196   2197     1
   2196   2219     1
   2196   2212     1
   2196   2207     1
   2196   2208     1
   2197   2210     1
   2197   2211     1
   2198   2219     1
   2198   2209     1
   2198   2201     1
   2198   2202     1
   2199   2219     1
   2199   2209     1
   2199   2201     1
   2199   2202     1
   2200   2219     1
   2201   2218     1
   2201   2210     1
   2201   2211     1
   2202   2218     1
   2202   2210     1
   2202   2211     1
   2203   2219     1
   2204   4095     1
   2204   2216     1
   2204   2217     1
   2205   4095     1
   2205   2216     1
   2205   2217     1
   2206   2219     1
   2207   4072     1
   2207   2213     1
   2207   2214     1
   2208   4072     1
   2208   2213     1
   2208   2214     1
   2212   4071     1
   2213   4068     1
   2214   4068     1
   2215   4094     1
   2216   4091     1
   2217   4091     1
   2220   2234     1
   2220   2235     1
   2220   2237     1
   2220   2238     1
   2220   2231     1
   2220   2232     1
   2221   2225     1
   2221   2226     1
   2221   2228     1
   2221   2229     1
   2221   2246     1
   2221   2247     1
   2222   2224     1
   2222   2227     1
   2222   2249     1
   2222   2245     1
   2222   2234     1
   2222   2235     1
   2223   2224     1
   2223   2227     1
   2223   2249     1
   2223   2245     1
   2223   2234     1
   2223   2235     1
   2224   2228     1
   2224   2229     1
   2224   2243     1
   2224   2244     1
   2225   2227     1
   2225   2249     1
   2225   2242     1
   2225   2237     1
   2225   2238     1
   2226   2227     1
   2226   2249     1
   2226   2242     1
   2226   2237     1
   2226   2238     1
   2227   2240     1
   2227   2241     1
   2228   2249     1
   2228   2239     1
   2228   2231     1
   2228   2232     1
   2229   2249     1
   2229   2239     1
   2229   2231     1
   2229   2232     1
   2230   2249     1
   2231   2248     1
   2231   2240     1
   2231   2241     1
   2232   2248     1
   2232   2240     1
   2232   2241     1
   2233   2249     1
   2234   4141     1
   2234   2246     1
   2234   2247     1
   2235   4141     1
   2235   2246     1
   2235   2247     1
   2236   2249     1
   2237   4118     1
   2237   2243     1
   2237   2244     1
   2238   4118     1
   2238   2243     1
   2238   2244     1
   2242   4117     1
   2243   4114     1
   2244   4114     1
   2245   4140     1
   2246   4137     1
   2247   4137     1
   2250   2264     1
   2250   2265     1
   2250   2267     1
   2250   2268     1
   2250   2261     1
   2250   2262     1
   2251   2255     1
   2251   2256     1
   2251   2258     1
   2251   2259     1
   2251   2276     1
   2251   2277     1
   2252   2254     1
   2252   2257     1
   2252   2279     1
   2252   2275     1
   2252   2264     1
   2252   2265     1
   2253   2254     1
   2253   2257     1
   2253   2279     1
   2253   2275     1
   2253   2264     1
   2253   2265     1
   2254   2258     1
   2254   2259     1
   2254   2273     1
   2254   2274     1
   2255   2257     1
   2255   2279     1
   2255   2272     1
   2255   2267     1
   2255   2268     1
   2256   2257     1
   2256   2279     1
   2256   2272     1
   2256   2267     1
   2256   2268     1
   2257   2270     1
   2257   2271     1
   2258   2279     1
   2258   2269     1
   2258   2261     1
   2258   2262     1
   2259   2279     1
   2259   2269     1
   2259   2261     1
   2259   2262     1
   2260   2279     1
   2261   2278     1
   2261   2270     1
   2261   2271     1
   2262   2278     1
   2262   2270     1
   2262   2271     1
   2263   2279     1
   2264   4187     1
   2264   2276     1
   2264   2277     1
   2265   4187     1
   2265   2276     1
   2265   2277     1
   2266   2279     1
   2267   4164     1
   2267   2273     1
   2267   2274     1
   2268   4164     1
   2268   2273     1
   2268   2274     1
   2272   4163     1
   2273   4160     1
   2274   4160     1
   2275   4186     1
   2276   4183     1
   2277   4183     1
   2280   2294     1
   2280   2295     1
   2280   2297     1
   2280   2298     1
   2280   2291     1
   2280   2292     1
   2281   2285     1
   2281   2286     1
   2281   2288     1
   2281   2289     1
   2281   2306     1
   2281   2307     1
   2282   2284     1
   2282   2287     1
   2282   2309     1
   2282   2305     1
   2282   2294     1
   2282   2295     1
   2283   2284     1
   2283   2287     1
   2283   2309     1
   2283   2305     1
   2283   2294     1
   2283   2295     1
   2284   2288     1
   2284   2289     1
   2284   2303     1
   2284   2304     1
   2285   2287     1
   2285   2309     1
   2285   2302     1
   2285   2297     1
   2285   2298     1
   2286   2287     1
   2286   2309     1
   2286   2302     1
   2286   2297     1
   2286   2298     1
   2287   2300     1
   2287   2301     1
   2288   2309     1
   2288   2299     1
   2288   2291     1
   2288   2292     1
   2289   2309     1
   2289   2299     1
   2289   2291     1
   2289   2292     1
   2290   2309     1
   2291   2308     1
   2291   2300     1
   2291   2301     1
   2292   2308     1
   2292   2300     1
   2292   2301     1
   2293   2309     1
   2294   4233     1
   2294   2306     1
   2294   2307     1
   2295   4233     1
   2295   2306     1
   2295   2307     1
   2296   2309     1
   2297   4210     1
   2297   2303     1
   2297   2304     1
   2298   4210     1
   2298   2303     1
   2298   2304     1
   2302   4209     1
   2303   4206     1
   2304   4206     1
   2305   4232     1
   2306   4229     1
   2307   4229     1
   2310   2324     1
   2310   2325     1
   2310   2327     1
   2310   2328     1
   2310   2321     1
   2310   2322     1
   2311   2315     1
   2311   2316     1
   2311   2318     1
   2311   2319     1
   2311   2336     1
   2311   2337     1
   2312   2314     1
   2312   2317     1
   2312   2339     1
   2312   2335     1
   2312   2324     1
   2312   2325     1
   2313   2314     1
   2313   2317     1
   2313   2339     1
   2313   2335     1
   2313   2324     1
   2313   2325     1
   2314   2318     1
   2314   2319     1
   2314   2333     1
   2314   2334     1
   2315   2317     1
   2315   2339     1
   2315   2332     1
   2315   2327     1
   2315   2328     1
   2316   2317     1
   2316   2339     1
   2316   2332     1
   2316   2327     1
   2316   2328     1
   2317   2330     1
   2317   2331     1
   2318   2339     1
   2318   2329     1
   2318   2321     1
   2318   2322     1
   2319   2339     1
   2319   2329     1
   2319   2321     1
   2319   2322     1
   2320   2339     1
   2321   2338     1
   2321   2330     1
   2321   2331     1
   2322   2338     1
   2322   2330     1
   2322   2331     1
   2323   2339     1
   2324   4279     1
   2324   2336     1
   2324   2337     1
   2325   4279     1
   2325   2336     1
   2325   2337     1
   2326   2339     1
   2327   4256     1
   2327   2333     1
   2327   2334     1
   2328   4256     1
   2328   2333     1
   2328   2334     1
   2332   4255     1
   2333   4252     1
   2334   4252     1
   2335   4278     1
   2336   4275     1
   2337   4275     1
   2340   2354     1
   2340   2355     1
   2340   2357     1
   2340   2358     1
   2340   2351     1
   2340   2352     1
   2341   2345     1
   2341   2346     1
   2341   2348     1
   2341   2349     1
   2341   2366     1
   2341   2367     1
   2342   2344     1
   2342   2347     1
   2342   2369     1
   2342   2365     1
   2342   2354     1
   2342   2355     1
   2343   2344     1
   2343   2347     1
   2343   2369     1
   2343   2365     1
   2343   2354     1
   2343   2355     1
   2344   2348     1
   2344   2349     1
   2344   2363     1
   2344   2364     1
   2345   2347     1
   2345   2369     1
   2345   2362     1
   2345   2357     1
   2345   2358     1
   2346   2347     1
   2346   2369     1
   2346   2362     1
   2346   2357     1
   2346   2358     1
   2347   2360     1
   2347   2361     1
   2348   2369     1
   2348   2359     1
   2348   2351     1
   2348   2352     1
   2349   2369     1
   2349   2359     1
   2349   2351     1
   2349   2352     1
   2350   2369     1
   2351   2368     1
   2351   2360     1
   2351   2361     1
   2352   2368     1
   2352   2360     1
   2352   2361     1
   2353   2369     1
   2354   4325     1
   2354   2366     1
   2354   2367     1
   2355   4325     1
   2355   2366     1
   2355   2367     1
   2356   2369     1
   2357   4302     1
   2357   2363     1
   2357   2364     1
   2358   4302     1
   2358   2363     1
   2358   2364     1
   2362   4301     1
   2363   4298     1
   2364   4298     1
   2365   4324     1
   2366   4321     1
   2367   4321     1
   2370   2384     1
   2370   2385     1
   2370   2387     1
   2370   2388     1
   2370   2381     1
   2370   2382     1
   2371   2375     1
   2371   2376     1
   2371   2378     1
   2371   2379     1
   2371   2396     1
   2371   2397     1
   2372   2374     1
   2372   2377     1
   2372   2399     1
   2372   2395     1
   2372   2384     1
   2372   2385     1
   2373   2374     1
   2373   2377     1
   2373   2399     1
   2373   2395     1
   2373   2384     1
   2373   2385     1
   2374   2378     1
   2374   2379     1
   2374   2393     1
   2374   2394     1
   2375   2377     1
   2375   2399     1
   2375   2392     1
   2375   2387     1
   2375   2388     1
   2376   2377     1
   2376   2399     1
   2376   2392     1
   2376   2387     1
   2376   2388     1
   2377   2390     1
   2377   2391     1
   2378   2399     1
   2378   2389     1
   2378   2381     1
   2378   2382     1
   2379   2399     1
   2379   2389     1
   2379   2381     1
   2379   2382     1
   2380   2399     1
   2381   2398     1
   2381   2390     1
   2381   2391     1
   2382   2398     1
   2382   2390     1
   2382   2391     1
   2383   2399     1
   2384   4371     1
   2384   2396     1
   2384   2397     1
   2385   4371     1
   2385   2396     1
   2385   2397     1
   2386   2399     1
   2387   4348     1
   2387   2393     1
   2387   2394     1
   2388   4348     1
   2388   2393     1
   2388   2394     1
   2392   4347     1
   2393   4344     1
   2394   4344     1
   2395   4370     1
   2396   4367     1
   2397   4367     1
   2400   2414     1
   2400   2415     1
   2400   2417     1
   2400   2418     1
   2400   2411     1
   2400   2412     1
   2401   2405     1
   2401   2406     1
   2401   2408     1
   2401   2409     1
   2401   2426     1
   2401   2427     1
   2402   2404     1
   2402   2407     1
   2402   2429     1
   2402   2425     1
   2402   2414     1
   2402   2415     1
   2403   2404     1
   2403   2407     1
   2403   2429     1
   2403   2425     1
   2403   2414     1
   2403   2415     1
   2404   2408     1
   2404   2409     1
   2404   2423     1
   2404   2424     1
   2405   2407     1
   2405   2429     1
   2405   2422     1
   2405   2417     1
   2405   2418     1
   2406   2407     1
   2406   2429     1
   2406   2422     1
   2406   2417     1
   2406   2418     1
   2407   2420     1
   2407   2421     1
   2408   2429     1
   2408   2419     1
   2408   2411     1
   2408   2412     1
   2409   2429     1
   2409   2419     1
   2409   2411     1
   2409   2412     1
   2410   2429     1
   2411   2428     1
   2411   2420     1
   2411   2421     1
   2412   2428     1
   2412   2420     1
   2412   2421     1
   2413   2429     1
   2414   4417     1
   2414   2426     1
   2414   2427     1
   2415   4417     1
   2415   2426     1
   2415   2427     1
   2416   2429     1
   2417   4394     1
   2417   2423     1
   2417   2424     1
   2418   4394     1
   2418   2423     1
   2418   2424     1
   2422   4393     1
   2423   4390     1
   2424   4390     1
   2425   4416     1
   2426   4413     1
   2427   4413     1
   2430   2444     1
   2430   2445     1
   2430   2447     1
   2430   2448     1
   2430   2441     1
   2430   2442     1
   2431   2435     1
   2431   2436     1
   2431   2438     1
   2431   2439     1
   2431   2456     1
   2431   2457     1
   2432   2434     1
   2432   2437     1
   2432   2459     1
   2432   2455     1
   2432   2444     1
   2432   2445     1
   2433   2434     1
   2433   2437     1
   2433   2459     1
   2433   2455     1
   2433   2444     1
   2433   2445     1
   2434   2438     1
   2434   2439     1
   2434   2453     1
   2434   2454     1
   2435   2437     1
   2435   2459     1
   2435   2452     1
   2435   2447     1
   2435   2448     1
   2436   2437     1
   2436   2459     1
   2436   2452     1
   2436   2447     1
   2436   2448     1
   2437   2450     1
   2437   2451     1
   2438   2459     1
   2438   2449     1
   2438   2441     1
   2438   2442     1
   2439   2459     1
   2439   2449     1
   2439   2441     1
   2439   2442     1
   2440   2459     1
   2441   2458     1
   2441   2450     1
   2441   2451     1
   2442   2458     1
   2442   2450     1
   2442   2451     1
   2443   2459     1
   2444   4463     1
   2444   2456     1
   2444   2457     1
   2445   4463     1
   2445   2456     1
   2445   2457     1
   2446   2459     1
   2447   4440     1
   2447   2453     1
   2447   2454     1
   2448   4440     1
   2448   2453     1
   2448   2454     1
   2452   4439     1
   2453   4436     1
   2454   4436     1
   2455   4462     1
   2456   4459     1
   2457   4459     1
   2460   2474     1
   2460   2475     1
   2460   2477     1
   2460   2478     1
   2460   2471     1
   2460   2472     1
   2461   2465     1
   2461   2466     1
   2461   2468     1
   2461   2469     1
   2461   2486     1
   2461   2487     1
   2462   2464     1
   2462   2467     1
   2462   2489     1
   2462   2485     1
   2462   2474     1
   2462   2475     1
   2463   2464     1
   2463   2467     1
   2463   2489     1
   2463   2485     1
   2463   2474     1
   2463   2475     1
   2464   2468     1
   2464   2469     1
   2464   2483     1
   2464   2484     1
   2465   2467     1
   2465   2489     1
   2465   2482     1
   2465   2477     1
   2465   2478     1
   2466   2467     1
   2466   2489     1
   2466   2482     1
   2466   2477     1
   2466   2478     1
   2467   2480     1
   2467   2481     1
   2468   2489     1
   2468   2479     1
   2468   2471     1
   2468   2472     1
   2469   2489     1
   2469   2479     1
   2469   2471     1
   2469   2472     1
   2470   2489     1
   2471   2488     1
   2471   2480     1
   2471   2481     1
   2472   2488     1
   2472   2480     1
   2472   2481     1
   2473   2489     1
   2474   4509     1
   2474   2486     1
   2474   2487     1
   2475   4509     1
   2475   2486     1
   2475   2487     1
   2476   2489     1
   2477   4486     1
   2477   2483     1
   2477   2484     1
   2478   4486     1
   2478   2483     1
   2478   2484     1
   2482   4485     1
   2483   4482     1
   2484   4482     1
   2485   4508     1
   2486   4505     1
   2487   4505     1
   2490   2504     1
   2490   2505     1
   2490   2507     1
   2490   2508     1
   2490   2501     1
   2490   2502     1
   2491   2495     1
   2491   2496     1
   2491   2498     1
   2491   2499     1
   2491   2516     1
   2491   2517     1
   2492   2494     1
   2492   2497     1
   2492   2519     1
   2492   2515     1
   2492   2504     1
   2492   2505     1
   2493   2494     1
   2493   2497     1
   2493   2519     1
   2493   2515     1
   2493   2504     1
   2493   2505     1
   2494   2498     1
   2494   2499     1
   2494   2513     1
   2494   2514     1
   2495   2497     1
   2495   2519     1
   2495   2512     1
   2495   2507     1
   2495   2508     1
   2496   2497     1
   2496   2519     1
   2496   2512     1
   2496   2507     1
   2496   2508     1
   2497   2510     1
   2497   2511     1
   2498   2519     1
   2498   2509     1
   2498   2501     1
   2498   2502     1
   2499   2519     1
   2499   2509     1
   2499   2501     1
   2499   2502     1
   2500   2519     1
   2501   2518     1
   2501   2510     1
   2501   2511     1
   2502   2518     1
   2502   2510     1
   2502   2511     1
   2503   2519     1
   2504   4555     1
   2504   2516     1
   2504   2517     1
   2505   4555     1
   2505   2516     1
   2505   2517     1
   2506   2519     1
   2507   4532     1
   2507   2513     1
   2507   2514     1
   2508   4532     1
   2508   2513     1
   2508   2514     1
   2512   4531     1
   2513   4528     1
   2514   4528     1
   2515   4554     1
   2516   4551     1
   2517   4551     1
   2520   2534     1
   2520   2535     1
   2520   2537     1
   2520   2538     1
   2520   2531     1
   2520   2532     1
   2521   2525     1
   2521   2526     1
   2521   2528     1
   2521   2529     1
   2521   2546     1
   2521   2547     1
   2522   2524     1
   2522   2527     1
   2522   2549     1
   2522   2545     1
   2522   2534     1
   2522   2535     1
   2523   2524     1
   2523   2527     1
   2523   2549     1
   2523   2545     1
   2523   2534     1
   2523   2535     1
   2524   2528     1
   2524   2529     1
   2524   2543     1
   2524   2544     1
   2525   2527     1
   2525   2549     1
   2525   2542     1
   2525   2537     1
   2525   2538     1
   2526   2527     1
   2526   2549     1
   2526   2542     1
   2526   2537     1
   2526   2538     1
   2527   2540     1
   2527   2541     1
   2528   2549     1
   2528   2539     1
   2528   2531     1
   2528   2532     1
   2529   2549     1
   2529   2539     1
   2529   2531     1
   2529   2532     1
   2530   2549     1
   2531   2548     1
   2531   2540     1
   2531   2541     1
   2532   2548     1
   2532   2540     1
   2532   2541     1
   2533   2549     1
   2534   4601     1
   2534   2546     1
   2534   2547     1
   2535   4601     1
   2535   2546     1
   2535   2547     1
   2536   2549     1
   2537   4578     1
   2537   2543     1
   2537   2544     1
   2538   4578     1
   2538   2543     1
   2538   2544     1
   2542   4577     1
   2543   4574     1
   2544   4574     1
   2545   4600     1
   2546   4597     1
   2547   4597     1
   2550   2564     1
   2550   2565     1
   2550   2567     1
   2550   2568     1
   2550   2561     1
   2550   2562     1
   2551   2555     1
   2551   2556     1
   2551   2558     1
   2551   2559     1
   2551   2576     1
   2551   2577     1
   2552   2554     1
   2552   2557     1
   2552   2579     1
   2552   2575     1
   2552   2564     1
   2552   2565     1
   2553   2554     1
   2553   2557     1
   2553   2579     1
   2553   2575     1
   2553   2564     1
   2553   2565     1
   2554   2558     1
   2554   2559     1
   2554   2573     1
   2554   2574     1
   2555   2557     1
   2555   2579     1
   2555   2572     1
   2555   2567     1
   2555   2568     1
   2556   2557     1
   2556   2579     1
   2556   2572     1
   2556   2567     1
   2556   2568     1
   2557   2570     1
   2557   2571     1
   2558   2579     1
   2558   2569     1
   2558   2561     1
   2558   2562     1
   2559   2579     1
   2559   2569     1
   2559   2561     1
   2559   2562     1
   2560   2579     1
   2561   2578     1
   2561   2570     1
   2561   2571     1
   2562   2578     1
   2562   2570     1
   2562   2571     1
   2563   2579     1
   2564   4647     1
   2564   2576     1
   2564   2577     1
   2565   4647     1
   2565   2576     1
   2565   2577     1
   2566   2579     1
   2567   4624     1
   2567   2573     1
   2567   2574     1
   2568   4624     1
   2568   2573     1
   2568   2574     1
   2572   4623     1
   2573   4620     1
   2574   4620     1
   2575   4646     1
   2576   4643     1
   2577   4643     1
   2580   2594     1
   2580   2595     1
   2580   2597     1
   2580   2598     1
   2580   2591     1
   2580   2592     1
   2581   2585     1
   2581   2586     1
   2581   2588     1
   2581   2589     1
   2581   2606     1
   2581   2607     1
   2582   2584     1
   2582   2587     1
   2582   2609     1
   2582   2605     1
   2582   2594     1
   2582   2595     1
   2583   2584     1
   2583   2587     1
   2583   2609     1
   2583   2605     1
   2583   2594     1
   2583   2595     1
   2584   2588     1
   2584   2589     1
   2584   2603     1
   2584   2604     1
   2585   2587     1
   2585   2609     1
   2585   2602     1
   2585   2597     1
   2585   2598     1
   2586   2587     1
   2586   2609     1
   2586   2602     1
   2586   2597     1
   2586   2598     1
   2587   2600     1
   2587   2601     1
   2588   2609     1
   2588   2599     1
   2588   2591     1
   2588   2592     1
   2589   2609     1
   2589   2599     1
   2589   2591     1
   2589   2592     1
   2590   2609     1
   2591   2608     1
   2591   2600     1
   2591   2601     1
   2592   2608     1
   2592   2600     1
   2592   2601     1
   2593   2609     1
   2594   4693     1
   2594   2606     1
   2594   2607     1
   2595   4693     1
   2595   2606     1
   2595   2607     1
   2596   2609     1
   2597   4670     1
   2597   2603     1
   2597   2604     1
   2598   4670     1
   2598   2603     1
   2598   2604     1
   2602   4669     1
   2603   4666     1
   2604   4666     1
   2605   4692     1
   2606   4689     1
   2607   4689     1
   2610   2624     1
   2610   2625     1
   2610   2627     1
   2610   2628     1
   2610   2621     1
   2610   2622     1
   2611   2615     1
   2611   2616     1
   2611   2618     1
   2611   2619     1
   2611   2636     1
   2611   2637     1
   2612   2614     1
   2612   2617     1
   2612   2639     1
   2612   2635     1
   2612   2624     1
   2612   2625     1
   2613   2614     1
   2613   2617     1
   2613   2639     1
   2613   2635     1
   2613   2624     1
   2613   2625     1
   2614   2618     1
   2614   2619     1
   2614   2633     1
   2614   2634     1
   2615   2617     1
   2615   2639     1
   2615   2632     1
   2615   2627     1
   2615   2628     1
   2616   2617     1
   2616   2639     1
   2616   2632     1
   2616   2627     1
   2616   2628     1
   2617   2630     1
   2617   2631     1
   2618   2639     1
   2618   2629     1
   2618   2621     1
   2618   2622     1
   2619   2639     1
   2619   2629     1
   2619   2621     1
   2619   2622     1
   2620   2639     1
   2621   2638     1
   2621   2630     1
   2621   2631     1
   2622   2638     1
   2622   2630     1
   2622   2631     1
   2623   2639     1
   2624   4739     1
   2624   2636     1
   2624   2637     1
   2625   4739     1
   2625   2636     1
   2625   2637     1
   2626   2639     1
   2627   4716     1
   2627   2633     1
   2627   2634     1
   2628   4716     1
   2628   2633     1
   2628   2634     1
   2632   4715     1
   2633   4712     1
   2634   4712     1
   2635   4738     1
   2636   4735     1
   2637   4735     1
   2640   2654     1
   2640   2655     1
   2640   2657     1
   2640   2658     1
   2640   2651     1
   2640   2652     1
   2641   2645     1
   2641   2646     1
   2641   2648     1
   2641   2649     1
   2641   2666     1
   2641   2667     1
   2642   2644     1
   2642   2647     1
   2642   2669     1
   2642   2665     1
   2642   2654     1
   2642   2655     1
   2643   2644     1
   2643   2647     1
   2643   2669     1
   2643   2665     1
   2643   2654     1
   2643   2655     1
   2644   2648     1
   2644   2649     1
   2644   2663     1
   2644   2664     1
   2645   2647     1
   2645   2669     1
   2645   2662     1
   2645   2657     1
   2645   2658     1
   2646   2647     1
   2646   2669     1
   2646   2662     1
   2646   2657     1
   2646   2658     1
   2647   2660     1
   2647   2661     1
   2648   2669     1
   2648   2659     1
   2648   2651     1
   2648   2652     1
   2649   2669     1
   2649   2659     1
   2649   2651     1
   2649   2652     1
   2650   2669     1
   2651   2668     1
   2651   2660     1
   2651   2661     1
   2652   2668     1
   2652   2660     1
   2652   2661     1
   2653   2669     1
   2654   4785     1
   2654   2666     1
   2654   2667     1
   2655   4785     1
   2655   2666     1
   2655   2667     1
   2656   2669     1
   2657   4762     1
   2657   2663     1
   2657   2664     1
   2658   4762     1
   2658   2663     1
   2658   2664     1
   2662   4761     1
   2663   4758     1
   2664   4758     1
   2665   4784     1
   2666   4781     1
   2667   4781     1
   2670   2684     1
   2670   2685     1
   2670   2687     1
   2670   2688     1
   2670   2681     1
   2670   2682     1
   2671   2675     1
   2671   2676     1
   2671   2678     1
   2671   2679     1
   2671   2696     1
   2671   2697     1
   2672   2674     1
   2672   2677     1
   2672   2699     1
   2672   2695     1
   2672   2684     1
   2672   2685     1
   2673   2674     1
   2673   2677     1
   2673   2699     1
   2673   2695     1
   2673   2684     1
   2673   2685     1
   2674   2678     1
   2674   2679     1
   2674   2693     1
   2674   2694     1
   2675   2677     1
   2675   2699     1
   2675   2692     1
   2675   2687     1
   2675   2688     1
   2676   2677     1
   2676   2699     1
   2676   2692     1
   2676   2687     1
   2676   2688     1
   2677   2690     1
   2677   2691     1
   2678   2699     1
   2678   2689     1
   2678   2681     1
   2678   2682     1
   2679   2699     1
   2679   2689     1
   2679   2681     1
   2679   2682     1
   2680   2699     1
   2681   2698     1
   2681   2690     1
   2681   2691     1
   2682   2698     1
   2682   2690     1
   2682   2691     1
   2683   2699     1
   2684   4831     1
   2684   2696     1
   2684   2697     1
   2685   4831     1
   2685   2696     1
   2685   2697     1
   2686   2699     1
   2687   4808     1
   2687   2693     1
   2687   2694     1
   2688   4808     1
   2688   2693     1
   2688   2694     1
   2692   4807     1
   2693   4804     1
   2694   4804     1
   2695   4830     1
   2696   4827     1
   2697   4827     1
   2700   2714     1
   2700   2715     1
   2700   2717     1
   2700   2718     1
   2700   2711     1
   2700   2712     1
   2701   2705     1
   2701   2706     1
   2701   2708     1
   2701   2709     1
   2701   2726     1
   2701   2727     1
   2702   2704     1
   2702   2707     1
   2702   2729     1
   2702   2725     1
   2702   2714     1
   2702   2715     1
   2703   2704     1
   2703   2707     1
   2703   2729     1
   2703   2725     1
   2703   2714     1
   2703   2715     1
   2704   2708     1
   2704   2709     1
   2704   2723     1
   2704   2724     1
   2705   2707     1
   2705   2729     1
   2705   2722     1
   2705   2717     1
   2705   2718     1
   2706   2707     1
   2706   2729     1
   2706   2722     1
   2706   2717     1
   2706   2718     1
   2707   2720     1
   2707   2721     1
   2708   2729     1
   2708   2719     1
   2708   2711     1
   2708   2712     1
   2709   2729     1
   2709   2719     1
   2709   2711     1
   2709   2712     1
   2710   2729     1
   2711   2728     1
   2711   2720     1
   2711   2721     1
   2712   2728     1
   2712   2720     1
   2712   2721     1
   2713   2729     1
   2714   4877     1
   2714   2726     1
   2714   2727     1
   2715   4877     1
   2715   2726     1
   2715   2727     1
   2716   2729     1
   2717   4854     1
   2717   2723     1
   2717   2724     1
   2718   4854     1
   2718   2723     1
   2718   2724     1
   2722   4853     1
   2723   4850     1
   2724   4850     1
   2725   4876     1
   2726   4873     1
   2727   4873     1
   2730   2744     1
   2730   2745     1
   2730   2747     1
   2730   2748     1
   2730   2741     1
   2730   2742     1
   2731   2735     1
   2731   2736     1
   2731   2738     1
   2731   2739     1
   2731   2756     1
   2731   2757     1
   2732   2734     1
   2732   2737     1
   2732   2759     1
   2732   2755     1
   2732   2744     1
   2732   2745     1
   2733   2734     1
   2733   2737     1
   2733   2759     1
   2733   2755     1
   2733   2744     1
   2733   2745     1
   2734   2738     1
   2734   2739     1
   2734   2753     1
   2734   2754     1
   2735   2737     1
   2735   2759     1
   2735   2752     1
   2735   2747     1
   2735   2748     1
   2736   2737     1
   2736   2759     1
   2736   2752     1
   2736   2747     1
   2736   2748     1
   2737   2750     1
   2737   2751     1
   2738   2759     1
   2738   2749     1
   2738   2741     1
   2738   2742     1
   2739   2759     1
   2739   2749     1
   2739   2741     1
   2739   2742     1
   2740   2759     1
   2741   2758     1
   2741   2750     1
   2741   2751     1
   2742   2758     1
   2742   2750     1
   2742   2751     1
   2743   2759     1
   2744   4923     1
   2744   2756     1
   2744   2757     1
   2745   4923     1
   2745   2756     1
   2745   2757     1
   2746   2759     1
   2747   4900     1
   2747   2753     1
   2747   2754     1
   2748   4900     1
   2748   2753     1
   2748   2754     1
   2752   4899     1
   2753   4896     1
   2754   4896     1
   2755   4922     1
   2756   4919     1
   2757   4919     1
   2760   2774     1
   2760   2775     1
   2760   2777     1
   2760   2778     1
   2760   2771     1
   2760   2772     1
   2761   2765     1
   2761   2766     1
   2761   2768     1
   2761   2769     1
   2761   2786     1
   2761   2787     1
   2762   2764     1
   2762   2767     1
   2762   2789     1
   2762   2785     1
   2762   2774     1
   2762   2775     1
   2763   2764     1
   2763   2767     1
   2763   2789     1
   2763   2785     1
   2763   2774     1
   2763   2775     1
   2764   2768     1
   2764   2769     1
   2764   2783     1
   2764   2784     1
   2765   2767     1
   2765   2789     1
   2765   2782     1
   2765   2777     1
   2765   2778     1
   2766   2767     1
   2766   2789     1
   2766   2782     1
   2766   2777     1
   2766   2778     1
   2767   2780     1
   2767   2781     1
   2768   2789     1
   2768   2779     1
   2768   2771     1
   2768   2772     1
   2769   2789     1
   2769   2779     1
   2769   2771     1
   2769   2772     1
   2770   2789     1
   2771   2788     1
   2771   2780     1
   2771   2781     1
   2772   2788     1
   2772   2780     1
   2772   2781     1
   2773   2789     1
   2774   4969     1
   2774   2786     1
   2774   2787     1
   2775   4969     1
   2775   2786     1
   2775   2787     1
   2776   2789     1
   2777   4946     1
   2777   2783     1
   2777   2784     1
   2778   4946     1
   2778   2783     1
   2778   2784     1
   2782   4945     1
   2783   4942     1
   2784   4942     1
   2785   4968     1
   2786   4965     1
   2787   4965     1
   2790   2804     1
   2790   2805     1
   2790   2807     1
   2790   2808     1
   2790   2801     1
   2790   2802     1
   2791   2795     1
   2791   2796     1
   2791   2798     1
   2791   2799     1
   2791   2816     1
   2791   2817     1
   2792   2794     1
   2792   2797     1
   2792   2819     1
   2792   2815     1
   2792   2804     1
   2792   2805     1
   2793   2794     1
   2793   2797     1
   2793   2819     1
   2793   2815     1
   2793   2804     1
   2793   2805     1
   2794   2798     1
   2794   2799     1
   2794   2813     1
   2794   2814     1
   2795   2797     1
   2795   2819     1
   2795   2812     1
   2795   2807     1
   2795   2808     1
   2796   2797     1
   2796   2819     1
   2796   2812     1
   2796   2807     1
   2796   2808     1
   2797   2810     1
   2797   2811     1
   2798   2819     1
   2798   2809     1
   2798   2801     1
   2798   2802     1
   2799   2819     1
   2799   2809     1
   2799   2801     1
   2799   2802     1
   2800   2819     1
   2801   2818     1
   2801   2810     1
   2801   2811     1
   2802   2818     1
   2802   2810     1
   2802   2811     1
   2803   2819     1
   2804   5015     1
   2804   2816     1
   2804   2817     1
   2805   5015     1
   2805   2816     1
   2805   2817     1
   2806   2819     1
   2807   4992     1
   2807   2813     1
   2807   2814     1
   2808   4992     1
   2808   2813     1
   2808   2814     1
   2812   4991     1
   2813   4988     1
   2814   4988     1
   2815   5014     1
   2816   5011     1
   2817   5011     1
   2820   2828     1
   2820   2836     1
   2820   2841     1
   2820   2829     1
   2821   2838     1
   2821   2839     1
   2821   2827     1
   2821   2835     1
   2822   2824     1
   2822   2833     1
   2822   2823     1
   2822   2840     1
   2822   2838     1
   2822   2839     1
   2822   2826     1
   2823   2834     1
   2823   2842     1
   2823   2825     1
   2823   2832     1
   2823   2828     1
   2823   2836     1
   2824   2836     1
   2824   2829     1
   2824   2837     1
   2825   2835     1
   2826   2828     1
   2826   2837     1
   2827   2832     1
   2827   2828     1
   2827   2830     1
   2827   2842     1
   2827   2829     1
   2827   2837     1
   2828   2833     1
   2828   2831     1
   2828   2835     1
   2829   2831     1
   2838   2842     1
   2838   2841     1
   2839   2842     1
   2839   2841     1
   2843   2851     1
   2843   2859     1
   2843   2864     1
   2843   2852     1
   2844   2850     1
   2844   2858     1
   2844   2861     1
   2844   2862     1
   2845   2847     1
   2845   2856     1
   2845   2846     1
   2845   2863     1
   2845   2861     1
   2845   2862     1
   2845   2849     1
   2846   2848     1
   2846   2855     1
   2846   2851     1
   2846   2859     1
   2846   2857     1
   2846   2865     1
   2847   2852     1
   2847   2860     1
   2847   2859     1
   2848   2858     1
   2849   2860     1
   2849   2851     1
   2850   2853     1
   2850   2865     1
   2850   2852     1
   2850   2860     1
   2850   2855     1
   2850   2851     1
   2851   2854     1
   2851   2858     1
   2851   2856     1
   2852   2854     1
   2861   2864     1
   2861   2865     1
   2862   2864     1
   2862   2865     1
   2866   2874     1
   2866   2882     1
   2866   2887     1
   2866   2875     1
   2867   2884     1
   2867   2885     1
   2867   2873     1
   2867   2881     1
   2868   2870     1
   2868   2879     1
   2868   2869     1
   2868   2886     1
   2868   2884     1
   2868   2885     1
   2868   2872     1
   2869   2880     1
   2869   2888     1
   2869   2871     1
   2869   2878     1
   2869   2874     1
   2869   2882     1
   2870   2882     1
   2870   2875     1
   2870   2883     1
   2871   2881     1
   2872   2874     1
   2872   2883     1
   2873   2878     1
   2873   2874     1
   2873   2876     1
   2873   2888     1
   2873   2875     1
   2873   2883     1
   2874   2879     1
   2874   2877     1
   2874   2881     1
   2875   2877     1
   2884   2888     1
   2884   2887     1
   2885   2888     1
   2885   2887     1
   2889   2897     1
   2889   2905     1
   2889   2910     1
   2889   2898     1
   2890   2896     1
   2890   2904     1
   2890   2907     1
   2890   2908     1
   2891   2893     1
   2891   2902     1
   2891   2892     1
   2891   2909     1
   2891   2907     1
   2891   2908     1
   2891   2895     1
   2892   2894     1
   2892   2901     1
   2892   2897     1
   2892   2905     1
   2892   2903     1
   2892   2911     1
   2893   2898     1
   2893   2906     1
   2893   2905     1
   2894   2904     1
   2895   2906     1
   2895   2897     1
   2896   2899     1
   2896   2911     1
   2896   2898     1
   2896   2906     1
   2896   2901     1
   2896   2897     1
   2897   2900     1
   2897   2904     1
   2897   2902     1
   2898   2900     1
   2907   2910     1
   2907   2911     1
   2908   2910     1
   2908   2911     1
   2912   2920     1
   2912   2928     1
   2912   2933     1
   2912   2921     1
   2913   2930     1
   2913   2931     1
   2913   2919     1
   2913   2927     1
   2914   2916     1
   2914   2925     1
   2914   2915     1
   2914   2932     1
   2914   2930     1
   2914   2931     1
   2914   2918     1
   2915   2926     1
   2915   2934     1
   2915   2917     1
   2915   2924     1
   2915   2920     1
   2915   2928     1
   2916   2928     1
   2916   2921     1
   2916   2929     1
   2917   2927     1
   2918   2920     1
   2918   2929     1
   2919   2924     1
   2919   2920     1
   2919   2922     1
   2919   2934     1
   2919   2921     1
   2919   2929     1
   2920   2925     1
   2920   2923     1
   2920   2927     1
   2921   2923     1
   2930   2934     1
   2930   2933     1
   2931   2934     1
   2931   2933     1
   2935   2943     1
   2935   2951     1
   2935   2956     1
   2935   2944     1
   2936   2942     1
   2936   2950     1
   2936   2953     1
   2936   2954     1
   2937   2939     1
   2937   2948     1
   2937   2938     1
   2937   2955     1
   2937   2953     1
   2937   2954     1
   2937   2941     1
   2938   2940     1
   2938   2947     1
   2938   2943     1
   2938   2951     1
   2938   2949     1
   2938   2957     1
   2939   2944     1
   2939   2952     1
   2939   2951     1
   2940   2950     1
   2941   2952     1
   2941   2943     1
   2942   2945     1
   2942   2957     1
   2942   2944     1
   2942   2952     1
   2942   2947     1
   2942   2943     1
   2943   2946     1
   2943   2950     1
   2943   2948     1
   2944   2946     1
   2953   2956     1
   2953   2957     1
   2954   2956     1
   2954   2957     1
   2958   2966     1
   2958   2974     1
   2958   2979     1
   2958   2967     1
   2959   2976     1
   2959   2977     1
   2959   2965     1
   2959   2973     1
   2960   2962     1
   2960   2971     1
   2960   2961     1
   2960   2978     1
   2960   2976     1
   2960   2977     1
   2960   2964     1
   2961   2972     1
   2961   2980     1
   2961   2963     1
   2961   2970     1
   2961   2966     1
   2961   2974     1
   2962   2974     1
   2962   2967     1
   2962   2975     1
   2963   2973     1
   2964   2966     1
   2964   2975     1
   2965   2970     1
   2965   2966     1
   2965   2968     1
   2965   2980     1
   2965   2967     1
   2965   2975     1
   2966   2971     1
   2966   2969     1
   2966   2973     1
   2967   2969     1
   2976   2980     1
   2976   2979     1
   2977   2980     1
   2977   2979     1
   2981   2989     1
   2981   2997     1
   2981   3002     1
   2981   2990     1
   2982   2988     1
   2982   2996     1
   2982   2999     1
   2982   3000     1
   2983   2985     1
   2983   2994     1
   2983   2984     1
   2983   3001     1
   2983   2999     1
   2983   3000     1
   2983   2987     1
   2984   2986     1
   2984   2993     1
   2984   2989     1
   2984   2997     1
   2984   2995     1
   2984   3003     1
   2985   2990     1
   2985   2998     1
   2985   2997     1
   2986   2996     1
   2987   2998     1
   2987   2989     1
   2988   2991     1
   2988   3003     1
   2988   2990     1
   2988   2998     1
   2988   2993     1
   2988   2989     1
   2989   2992     1
   2989   2996     1
   2989   2994     1
   2990   2992     1
   2999   3002     1
   2999   3003     1
   3000   3002     1
   3000   3003     1
   3004   3012     1
   3004   3020     1
   3004   3025     1
   3004   3013     1
   3005   3022     1
   3005   3023     1
   3005   3011     1
   3005   3019     1
   3006   3008     1
   3006   3017     1
   3006   3007     1
   3006   3024     1
   3006   3022     1
   3006   3023     1
   3006   3010     1
   3007   3018     1
   3007   3026     1
   3007   3009     1
   3007   3016     1
   3007   3012     1
   3007   3020     1
   3008   3020     1
   3008   3013     1
   3008   3021     1
   3009   3019     1
   3010   3012     1
   3010   3021     1
   3011   3016     1
   3011   3012     1
   3011   3014     1
   3011   3026     1
   3011   3013     1
   3011   3021     1
   3012   3017     1
   3012   3015     1
   3012   3019     1
   3013   3015     1
   3022   3026     1
   3022   3025     1
   3023   3026     1
   3023   3025     1
   3027   3035     1
   3027   3043     1
   3027   3048     1
   3027   3036     1
   3028   3034     1
   3028   3042     1
   3028   3045     1
   3028   3046     1
   3029   3031     1
   3029   3040     1
   3029   3030     1
   3029   3047     1
   3029   3045     1
   3029   3046     1
   3029   3033     1
   3030   3032     1
   3030   3039     1
   3030   3035     1
   3030   3043     1
   3030   3041     1
   3030   3049     1
   3031   3036     1
   3031   3044     1
   3031   3043     1
   3032   3042     1
   3033   3044     1
   3033   3035     1
   3034   3037     1
   3034   3049     1
   3034   3036     1
   3034   3044     1
   3034   3039     1
   3034   3035     1
   3035   3038     1
   3035   3042     1
   3035   3040     1
   3036   3038     1
   3045   3048     1
   3045   3049     1
   3046   3048     1
   3046   3049     1
   3050   3058     1
   3050   3066     1
   3050   3071     1
   3050   3059     1
   3051   3068     1
   3051   3069     1
   3051   3057     1
   3051   3065     1
   3052   3054     1
   3052   3063     1
   3052   3053     1
   3052   3070     1
   3052   3068     1
   3052   3069     1
   3052   3056     1
   3053   3064     1
   3053   3072     1
   3053   3055     1
   3053   3062     1
   3053   3058     1
   3053   3066     1
   3054   3066     1
   3054   3059     1
   3054   3067     1
   3055   3065     1
   3056   3058     1
   3056   3067     1
   3057   3062     1
   3057   3058     1
   3057   3060     1
   3057   3072     1
   3057   3059     1
   3057   3067     1
   3058   3063     1
   3058   3061     1
   3058   3065     1
   3059   3061     1
   3068   3072     1
   3068   3071     1
   3069   3072     1
   3069   3071     1
   3073   3081     1
   3073   3089     1
   3073   3094     1
   3073   3082     1
   3074   3080     1
   3074   3088     1
   3074   3091     1
   3074   3092     1
   3075   3077     1
   3075   3086     1
   3075   3076     1
   3075   3093     1
   3075   3091     1
   3075   3092     1
   3075   3079     1
   3076   3078     1
   3076   3085     1
   3076   3081     1
   3076   3089     1
   3076   3087     1
   3076   3095     1
   3077   3082     1
   3077   3090     1
   3077   3089     1
   3078   3088     1
   3079   3090     1
   3079   3081     1
   3080   3083     1
   3080   3095     1
   3080   3082     1
   3080   3090     1
   3080   3085     1
   3080   3081     1
   3081   3084     1
   3081   3088     1
   3081   3086     1
   3082   3084     1
   3091   3094     1
   3091   3095     1
   3092   3094     1
   3092   3095     1
   3096   3104     1
   3096   3112     1
   3096   3117     1
   3096   3105     1
   3097   3114     1
   3097   3115     1
   3097   3103     1
   3097   3111     1
   3098   3100     1
   3098   3109     1
   3098   3099     1
   3098   3116     1
   3098   3114     1
   3098   3115     1
   3098   3102     1
   3099   3110     1
   3099   3118     1
   3099   3101     1
   3099   3108     1
   3099   3104     1
   3099   3112     1
   3100   3112     1
   3100   3105     1
   3100   3113     1
   3101   3111     1
   3102   3104     1
   3102   3113     1
   3103   3108     1
   3103   3104     1
   3103   3106     1
   3103   3118     1
   3103   3105     1
   3103   3113     1
   3104   3109     1
   3104   3107     1
   3104   3111     1
   3105   3107     1
   3114   3118     1
   3114   3117     1
   3115   3118     1
   3115   3117     1
   3119   3127     1
   3119   3135     1
   3119   3140     1
   3119   3128     1
   3120   3126     1
   3120   3134     1
   3120   3137     1
   3120   3138     1
   3121   3123     1
   3121   3132     1
   3121   3122     1
   3121   3139     1
   3121   3137     1
   3121   3138     1
   3121   3125     1
   3122   3124     1
   3122   3131     1
   3122   3127     1
   3122   3135     1
   3122   3133     1
   3122   3141     1
   3123   3128     1
   3123   3136     1
   3123   3135     1
   3124   3134     1
   3125   3136     1
   3125   3127     1
   3126   3129     1
   3126   3141     1
   3126   3128     1
   3126   3136     1
   3126   3131     1
   3126   3127     1
   3127   3130     1
   3127   3134     1
   3127   3132     1
   3128   3130     1
   3137   3140     1
   3137   3141     1
   3138   3140     1
   3138   3141     1
   3142   3150     1
   3142   3158     1
   3142   3163     1
   3142   3151     1
   3143   3160     1
   3143   3161     1
   3143   3149     1
   3143   3157     1
   3144   3146     1
   3144   3155     1
   3144   3145     1
   3144   3162     1
   3144   3160     1
   3144   3161     1
   3144   3148     1
   3145   3156     1
   3145   3164     1
   3145   3147     1
   3145   3154     1
   3145   3150     1
   3145   3158     1
   3146   3158     1
   3146   3151     1
   3146   3159     1
   3147   3157     1
   3148   3150     1
   3148   3159     1
   3149   3154     1
   3149   3150     1
   3149   3152     1
   3149   3164     1
   3149   3151     1
   3149   3159     1
   3150   3155     1
   3150   3153     1
   3150   3157     1
   3151   3153     1
   3160   3164     1
   3160   3163     1
   3161   3164     1
   3161   3163     1
   3165   3173     1
   3165   3181     1
   3165   3186     1
   3165   3174     1
   3166   3172     1
   3166   3180     1
   3166   3183     1
   3166   3184     1
   3167   3169     1
   3167   3178     1
   3167   3168     1
   3167   3185     1
   3167   3183     1
   3167   3184     1
   3167   3171     1
   3168   3170     1
   3168   3177     1
   3168   3173     1
   3168   3181     1
   3168   3179     1
   3168   3187     1
   3169   3174     1
   3169   3182     1
   3169   3181     1
   3170   3180     1
   3171   3182     1
   3171   3173     1
   3172   3175     1
   3172   3187     1
   3172   3174     1
   3172   3182     1
   3172   3177     1
   3172   3173     1
   3173   3176     1
   3173   3180     1
   3173   3178     1
   3174   3176     1
   3183   3186     1
   3183   3187     1
   3184   3186     1
   3184   3187     1
   3188   3196     1
   3188   3204     1
   3188   3209     1
   3188   3197     1
   3189   3206     1
   3189   3207     1
   3189   3195     1
   3189   3203     1
   3190   3192     1
   3190   3201     1
   3190   3191     1
   3190   3208     1
   3190   3206     1
   3190   3207     1
   3190   3194     1
   3191   3202     1
   3191   3210     1
   3191   3193     1
   3191   3200     1
   3191   3196     1
   3191   3204     1
   3192   3204     1
   3192   3197     1
   3192   3205     1
   3193   3203     1
   3194   3196     1
   3194   3205     1
   3195   3200     1
   3195   3196     1
   3195   3198     1
   3195   3210     1
   3195   3197     1
   3195   3205     1
   3196   3201     1
   3196   3199     1
   3196   3203     1
   3197   3199     1
   3206   3210     1
   3206   3209     1
   3207   3210     1
   3207   3209     1
   3211   3219     1
   3211   3227     1
   3211   3232     1
   3211   3220     1
   3212   3218     1
   3212   3226     1
   3212   3229     1
   3212   3230     1
   3213   3215     1
   3213   3224     1
   3213   3214     1
   3213   3231     1
   3213   3229     1
   3213   3230     1
   3213   3217     1
   3214   3216     1
   3214   3223     1
   3214   3219     1
   3214   3227     1
   3214   3225     1
   3214   3233     1
   3215   3220     1
   3215   3228     1
   3215   3227     1
   3216   3226     1
   3217   3228     1
   3217   3219     1
   3218   3221     1
   3218   3233     1
   3218   3220     1
   3218   3228     1
   3218   3223     1
   3218   3219     1
   3219   3222     1
   3219   3226     1
   3219   3224     1
   3220   3222     1
   3229   3232     1
   3229   3233     1
   3230   3232     1
   3230   3233     1
   3234   3242     1
   3234   3250     1
   3234   3255     1
   3234   3243     1
   3235   3252     1
   3235   3253     1
   3235   3241     1
   3235   3249     1
   3236   3238     1
   3236   3247     1
   3236   3237     1
   3236   3254     1
   3236   3252     1
   3236   3253     1
   3236   3240     1
   3237   3248     1
   3237   3256     1
   3237   3239     1
   3237   3246     1
   3237   3242     1
   3237   3250     1
   3238   3250     1
   3238   3243     1
   3238   3251     1
   3239   3249     1
   3240   3242     1
   3240   3251     1
   3241   3246     1
   3241   3242     1
   3241   3244     1
   3241   3256     1
   3241   3243     1
   3241   3251     1
   3242   3247     1
   3242   3245     1
   3242   3249     1
   3243   3245     1
   3252   3256     1
   3252   3255     1
   3253   3256     1
   3253   3255     1
   3257   3265     1
   3257   3273     1
   3257   3278     1
   3257   3266     1
   3258   3264     1
   3258   3272     1
   3258   3275     1
   3258   3276     1
   3259   3261     1
   3259   3270     1
   3259   3260     1
   3259   3277     1
   3259   3275     1
   3259   3276     1
   3259   3263     1
   3260   3262     1
   3260   3269     1
   3260   3265     1
   3260   3273     1
   3260   3271     1
   3260   3279     1
   3261   3266     1
   3261   3274     1
   3261   3273     1
   3262   3272     1
   3263   3274     1
   3263   3265     1
   3264   3267     1
   3264   3279     1
   3264   3266     1
   3264   3274     1
   3264   3269     1
   3264   3265     1
   3265   3268     1
   3265   3272     1
   3265   3270     1
   3266   3268     1
   3275   3278     1
   3275   3279     1
   3276   3278     1
   3276   3279     1
   3280   3288     1
   3280   3296     1
   3280   3301     1
   3280   3289     1
   3281   3298     1
   3281   3299     1
   3281   3287     1
   3281   3295     1
   3282   3284     1
   3282   3293     1
   3282   3283     1
   3282   3300     1
   3282   3298     1
   3282   3299     1
   3282   3286     1
   3283   3294     1
   3283   3302     1
   3283   3285     1
   3283   3292     1
   3283   3288     1
   3283   3296     1
   3284   3296     1
   3284   3289     1
   3284   3297     1
   3285   3295     1
   3286   3288     1
   3286   3297     1
   3287   3292     1
   3287   3288     1
   3287   3290     1
   3287   3302     1
   3287   3289     1
   3287   3297     1
   3288   3293     1
   3288   3291     1
   3288   3295     1
   3289   3291     1
   3298   3302     1
   3298   3301     1
   3299   3302     1
   3299   3301     1
   3303   3311     1
   3303   3319     1
   3303   3324     1
   3303   3312     1
   3304   3310     1
   3304   3318     1
   3304   3321     1
   3304   3322     1
   3305   3307     1
   3305   3316     1
   3305   3306     1
   3305   3323     1
   3305   3321     1
   3305   3322     1
   3305   3309     1
   3306   3308     1
   3306   3315     1
   3306   3311     1
   3306   3319     1
   3306   3317     1
   3306   3325     1
   3307   3312     1
   3307   3320     1
   3307   3319     1
   3308   3318     1
   3309   3320     1
   3309   3311     1
   3310   3313     1
   3310   3325     1
   3310   3312     1
   3310   3320     1
   3310   3315     1
   3310   3311     1
   3311   3314     1
   3311   3318     1
   3311   3316     1
   3312   3314     1
   3321   3324     1
   3321   3325     1
   3322   3324     1
   3322   3325     1
   3326   3334     1
   3326   3342     1
   3326   3347     1
   3326   3335     1
   3327   3344     1
   3327   3345     1
   3327   3333     1
   3327   3341     1
   3328   3330     1
   3328   3339     1
   3328   3329     1
   3328   3346     1
   3328   3344     1
   3328   3345     1
   3328   3332     1
   3329   3340     1
   3329   3348     1
   3329   3331     1
   3329   3338     1
   3329   3334     1
   3329   3342     1
   3330   3342     1
   3330   3335     1
   3330   3343     1
   3331   3341     1
   3332   3334     1
   3332   3343     1
   3333   3338     1
   3333   3334     1
   3333   3336     1
   3333   3348     1
   3333   3335     1
   3333   3343     1
   3334   3339     1
   3334   3337     1
   3334   3341     1
   3335   3337     1
   3344   3348     1
   3344   3347     1
   3345   3348     1
   3345   3347     1
   3349   3357     1
   3349   3365     1
   3349   3370     1
   3349   3358     1
   3350   3356     1
   3350   3364     1
   3350   3367     1
   3350   3368     1
   3351   3353     1
   3351   3362     1
   3351   3352     1
   3351   3369     1
   3351   3367     1
   3351   3368     1
   3351   3355     1
   3352   3354     1
   3352   3361     1
   3352   3357     1
   3352   3365     1
   3352   3363     1
   3352   3371     1
   3353   3358     1
   3353   3366     1
   3353   3365     1
   3354   3364     1
   3355   3366     1
   3355   3357     1
   3356   3359     1
   3356   3371     1
   3356   3358     1
   3356   3366     1
   3356   3361     1
   3356   3357     1
   3357   3360     1
   3357   3364     1
   3357   3362     1
   3358   3360     1
   3367   3370     1
   3367   3371     1
   3368   3370     1
   3368   3371     1
   3372   3380     1
   3372   3388     1
   3372   3393     1
   3372   3381     1
   3373   3390     1
   3373   3391     1
   3373   3379     1
   3373   3387     1
   3374   3376     1
   3374   3385     1
   3374   3375     1
   3374   3392     1
   3374   3390     1
   3374   3391     1
   3374   3378     1
   3375   3386     1
   3375   3394     1
   3375   3377     1
   3375   3384     1
   3375   3380     1
   3375   3388     1
   3376   3388     1
   3376   3381     1
   3376   3389     1
   3377   3387     1
   3378   3380     1
   3378   3389     1
   3379   3384     1
   3379   3380     1
   3379   3382     1
   3379   3394     1
   3379   3381     1
   3379   3389     1
   3380   3385     1
   3380   3383     1
   3380   3387     1
   3381   3383     1
   3390   3394     1
   3390   3393     1
   3391   3394     1
   3391   3393     1
   3395   3403     1
   3395   3411     1
   3395   3416     1
   3395   3404     1
   3396   3402     1
   3396   3410     1
   3396   3413     1
   3396   3414     1
   3397   3399     1
   3397   3408     1
   3397   3398     1
   3397   3415     1
   3397   3413     1
   3397   3414     1
   3397   3401     1
   3398   3400     1
   3398   3407     1
   3398   3403     1
   3398   3411     1
   3398   3409     1
   3398   3417     1
   3399   3404     1
   3399   3412     1
   3399   3411     1
   3400   3410     1
   3401   3412     1
   3401   3403     1
   3402   3405     1
   3402   3417     1
   3402   3404     1
   3402   3412     1
   3402   3407     1
   3402   3403     1
   3403   3406     1
   3403   3410     1
   3403   3408     1
   3404   3406     1
   3413   3416     1
   3413   3417     1
   3414   3416     1
   3414   3417     1
   3418   3426     1
   3418   3434     1
   3418   3439     1
   3418   3427     1
   3419   3436     1
   3419   3437     1
   3419   3425     1
   3419   3433     1
   3420   3422     1
   3420   3431     1
   3420   3421     1
   3420   3438     1
   3420   3436     1
   3420   3437     1
   3420   3424     1
   3421   3432     1
   3421   3440     1
   3421   3423     1
   3421   3430     1
   3421   3426     1
   3421   3434     1
   3422   3434     1
   3422   3427     1
   3422   3435     1
   3423   3433     1
   3424   3426     1
   3424   3435     1
   3425   3430     1
   3425   3426     1
   3425   3428     1
   3425   3440     1
   3425   3427     1
   3425   3435     1
   3426   3431     1
   3426   3429     1
   3426   3433     1
   3427   3429     1
   3436   3440     1
   3436   3439     1
   3437   3440     1
   3437   3439     1
   3441   3449     1
   3441   3457     1
   3441   3462     1
   3441   3450     1
   3442   3448     1
   3442   3456     1
   3442   3459     1
   3442   3460     1
   3443   3445     1
   3443   3454     1
   3443   3444     1
   3443   3461     1
   3443   3459     1
   3443   3460     1
   3443   3447     1
   3444   3446     1
   3444   3453     1
   3444   3449     1
   3444   3457     1
   3444   3455     1
   3444   3463     1
   3445   3450     1
   3445   3458     1
   3445   3457     1
   3446   3456     1
   3447   3458     1
   3447   3449     1
   3448   3451     1
   3448   3463     1
   3448   3450     1
   3448   3458     1
   3448   3453     1
   3448   3449     1
   3449   3452     1
   3449   3456     1
   3449   3454     1
   3450   3452     1
   3459   3462     1
   3459   3463     1
   3460   3462     1
   3460   3463     1
   3464   3472     1
   3464   3480     1
   3464   3485     1
   3464   3473     1
   3465   3482     1
   3465   3483     1
   3465   3471     1
   3465   3479     1
   3466   3468     1
   3466   3477     1
   3466   3467     1
   3466   3484     1
   3466   3482     1
   3466   3483     1
   3466   3470     1
   3467   3478     1
   3467   3486     1
   3467   3469     1
   3467   3476     1
   3467   3472     1
   3467   3480     1
   3468   3480     1
   3468   3473     1
   3468   3481     1
   3469   3479     1
   3470   3472     1
   3470   3481     1
   3471   3476     1
   3471   3472     1
   3471   3474     1
   3471   3486     1
   3471   3473     1
   3471   3481     1
   3472   3477     1
   3472   3475     1
   3472   3479     1
   3473   3475     1
   3482   3486     1
   3482   3485     1
   3483   3486     1
   3483   3485     1
   3487   3495     1
   3487   3503     1
   3487   3508     1
   3487   3496     1
   3488   3494     1
   3488   3502     1
   3488   3505     1
   3488   3506     1
   3489   3491     1
   3489   3500     1
   3489   3490     1
   3489   3507     1
   3489   3505     1
   3489   3506     1
   3489   3493     1
   3490   3492     1
   3490   3499     1
   3490   3495     1
   3490   3503     1
   3490   3501     1
   3490   3509     1
   3491   3496     1
   3491   3504     1
   3491   3503     1
   3492   3502     1
   3493   3504     1
   3493   3495     1
   3494   3497     1
   3494   3509     1
   3494   3496     1
   3494   3504     1
   3494   3499     1
   3494   3495     1
   3495   3498     1
   3495   3502     1
   3495   3500     1
   3496   3498     1
   3505   3508     1
   3505   3509     1
   3506   3508     1
   3506   3509     1
   3510   3518     1
   3510   3526     1
   3510   3531     1
   3510   3519     1
   3511   3528     1
   3511   3529     1
   3511   3517     1
   3511   3525     1
   3512   3514     1
   3512   3523     1
   3512   3513     1
   3512   3530     1
   3512   3528     1
   3512   3529     1
   3512   3516     1
   3513   3524     1
   3513   3532     1
   3513   3515     1
   3513   3522     1
   3513   3518     1
   3513   3526     1
   3514   3526     1
   3514   3519     1
   3514   3527     1
   3515   3525     1
   3516   3518     1
   3516   3527     1
   3517   3522     1
   3517   3518     1
   3517   3520     1
   3517   3532     1
   3517   3519     1
   3517   3527     1
   3518   3523     1
   3518   3521     1
   3518   3525     1
   3519   3521     1
   3528   3532     1
   3528   3531     1
   3529   3532     1
   3529   3531     1
   3533   3541     1
   3533   3549     1
   3533   3554     1
   3533   3542     1
   3534   3540     1
   3534   3548     1
   3534   3551     1
   3534   3552     1
   3535   3537     1
   3535   3546     1
   3535   3536     1
   3535   3553     1
   3535   3551     1
   3535   3552     1
   3535   3539     1
   3536   3538     1
   3536   3545     1
   3536   3541     1
   3536   3549     1
   3536   3547     1
   3536   3555     1
   3537   3542     1
   3537   3550     1
   3537   3549     1
   3538   3548     1
   3539   3550     1
   3539   3541     1
   3540   3543     1
   3540   3555     1
   3540   3542     1
   3540   3550     1
   3540   3545     1
   3540   3541     1
   3541   3544     1
   3541   3548     1
   3541   3546     1
   3542   3544     1
   3551   3554     1
   3551   3555     1
   3552   3554     1
   3552   3555     1
   3556   3564     1
   3556   3572     1
   3556   3577     1
   3556   3565     1
   3557   3574     1
   3557   3575     1
   3557   3563     1
   3557   3571     1
   3558   3560     1
   3558   3569     1
   3558   3559     1
   3558   3576     1
   3558   3574     1
   3558   3575     1
   3558   3562     1
   3559   3570     1
   3559   3578     1
   3559   3561     1
   3559   3568     1
   3559   3564     1
   3559   3572     1
   3560   3572     1
   3560   3565     1
   3560   3573     1
   3561   3571     1
   3562   3564     1
   3562   3573     1
   3563   3568     1
   3563   3564     1
   3563   3566     1
   3563   3578     1
   3563   3565     1
   3563   3573     1
   3564   3569     1
   3564   3567     1
   3564   3571     1
   3565   3567     1
   3574   3578     1
   3574   3577     1
   3575   3578     1
   3575   3577     1
   3579   3587     1
   3579   3595     1
   3579   3600     1
   3579   3588     1
   3580   3586     1
   3580   3594     1
   3580   3597     1
   3580   3598     1
   3581   3583     1
   3581   3592     1
   3581   3582     1
   3581   3599     1
   3581   3597     1
   3581   3598     1
   3581   3585     1
   3582   3584     1
   3582   3591     1
   3582   3587     1
   3582   3595     1
   3582   3593     1
   3582   3601     1
   3583   3588     1
   3583   3596     1
   3583   3595     1
   3584   3594     1
   3585   3596     1
   3585   3587     1
   3586   3589     1
   3586   3601     1
   3586   3588     1
   3586   3596     1
   3586   3591     1
   3586   3587     1
   3587   3590     1
   3587   3594     1
   3587   3592     1
   3588   3590     1
   3597   3600     1
   3597   3601     1
   3598   3600     1
   3598   3601     1
   3602   3610     1
   3602   3618     1
   3602   3623     1
   3602   3611     1
   3603   3620     1
   3603   3621     1
   3603   3609     1
   3603   3617     1
   3604   3606     1
   3604   3615     1
   3604   3605     1
   3604   3622     1
   3604   3620     1
   3604   3621     1
   3604   3608     1
   3605   3616     1
   3605   3624     1
   3605   3607     1
   3605   3614     1
   3605   3610     1
   3605   3618     1
   3606   3618     1
   3606   3611     1
   3606   3619     1
   3607   3617     1
   3608   3610     1
   3608   3619     1
   3609   3614     1
   3609   3610     1
   3609   3612     1
   3609   3624     1
   3609   3611     1
   3609   3619     1
   3610   3615     1
   3610   3613     1
   3610   3617     1
   3611   3613     1
   3620   3624     1
   3620   3623     1
   3621   3624     1
   3621   3623     1
   3625   3633     1
   3625   3641     1
   3625   3646     1
   3625   3634     1
   3626   3632     1
   3626   3640     1
   3626   3643     1
   3626   3644     1
   3627   3629     1
   3627   3638     1
   3627   3628     1
   3627   3645     1
   3627   3643     1
   3627   3644     1
   3627   3631     1
   3628   3630     1
   3628   3637     1
   3628   3633     1
   3628   3641     1
   3628   3639     1
   3628   3647     1
   3629   3634     1
   3629   3642     1
   3629   3641     1
   3630   3640     1
   3631   3642     1
   3631   3633     1
   3632   3635     1
   3632   3647     1
   3632   3634     1
   3632   3642     1
   3632   3637     1
   3632   3633     1
   3633   3636     1
   3633   3640     1
   3633   3638     1
   3634   3636     1
   3643   3646     1
   3643   3647     1
   3644   3646     1
   3644   3647     1
   3648   3656     1
   3648   3664     1
   3648   3669     1
   3648   3657     1
   3649   3666     1
   3649   3667     1
   3649   3655     1
   3649   3663     1
   3650   3652     1
   3650   3661     1
   3650   3651     1
   3650   3668     1
   3650   3666     1
   3650   3667     1
   3650   3654     1
   3651   3662     1
   3651   3670     1
   3651   3653     1
   3651   3660     1
   3651   3656     1
   3651   3664     1
   3652   3664     1
   3652   3657     1
   3652   3665     1
   3653   3663     1
   3654   3656     1
   3654   3665     1
   3655   3660     1
   3655   3656     1
   3655   3658     1
   3655   3670     1
   3655   3657     1
   3655   3665     1
   3656   3661     1
   3656   3659     1
   3656   3663     1
   3657   3659     1
   3666   3670     1
   3666   3669     1
   3667   3670     1
   3667   3669     1
   3671   3679     1
   3671   3687     1
   3671   3692     1
   3671   3680     1
   3672   3678     1
   3672   3686     1
   3672   3689     1
   3672   3690     1
   3673   3675     1
   3673   3684     1
   3673   3674     1
   3673   3691     1
   3673   3689     1
   3673   3690     1
   3673   3677     1
   3674   3676     1
   3674   3683     1
   3674   3679     1
   3674   3687     1
   3674   3685     1
   3674   3693     1
   3675   3680     1
   3675   3688     1
   3675   3687     1
   3676   3686     1
   3677   3688     1
   3677   3679     1
   3678   3681     1
   3678   3693     1
   3678   3680     1
   3678   3688     1
   3678   3683     1
   3678   3679     1
   3679   3682     1
   3679   3686     1
   3679   3684     1
   3680   3682     1
   3689   3692     1
   3689   3693     1
   3690   3692     1
   3690   3693     1
   3694   3702     1
   3694   3710     1
   3694   3715     1
   3694   3703     1
   3695   3712     1
   3695   3713     1
   3695   3701     1
   3695   3709     1
   3696   3698     1
   3696   3707     1
   3696   3697     1
   3696   3714     1
   3696   3712     1
   3696   3713     1
   3696   3700     1
   3697   3708     1
   3697   3716     1
   3697   3699     1
   3697   3706     1
   3697   3702     1
   3697   3710     1
   3698   3710     1
   3698   3703     1
   3698   3711     1
   3699   3709     1
   3700   3702     1
   3700   3711     1
   3701   3706     1
   3701   3702     1
   3701   3704     1
   3701   3716     1
   3701   3703     1
   3701   3711     1
   3702   3707     1
   3702   3705     1
   3702   3709     1
   3703   3705     1
   3712   3716     1
   3712   3715     1
   3713   3716     1
   3713   3715     1
   3717   3725     1
   3717   3733     1
   3717   3738     1
   3717   3726     1
   3718   3724     1
   3718   3732     1
   3718   3735     1
   3718   3736     1
   3719   3721     1
   3719   3730     1
   3719   3720     1
   3719   3737     1
   3719   3735     1
   3719   3736     1
   3719   3723     1
   3720   3722     1
   3720   3729     1
   3720   3725     1
   3720   3733     1
   3720   3731     1
   3720   3739     1
   3721   3726     1
   3721   3734     1
   3721   3733     1
   3722   3732     1
   3723   3734     1
   3723   3725     1
   3724   3727     1
   3724   3739     1
   3724   3726     1
   3724   3734     1
   3724   3729     1
   3724   3725     1
   3725   3728     1
   3725   3732     1
   3725   3730     1
   3726   3728     1
   3735   3738     1
   3735   3739     1
   3736   3738     1
   3736   3739     1
   3740   3748     1
   3740   3756     1
   3740   3761     1
   3740   3749     1
   3741   3758     1
   3741   3759     1
   3741   3747     1
   3741   3755     1
   3742   3744     1
   3742   3753     1
   3742   3743     1
   3742   3760     1
   3742   3758     1
   3742   3759     1
   3742   3746     1
   3743   3754     1
   3743   3762     1
   3743   3745     1
   3743   3752     1
   3743   3748     1
   3743   3756     1
   3744   3756     1
   3744   3749     1
   3744   3757     1
   3745   3755     1
   3746   3748     1
   3746   3757     1
   3747   3752     1
   3747   3748     1
   3747   3750     1
   3747   3762     1
   3747   3749     1
   3747   3757     1
   3748   3753     1
   3748   3751     1
   3748   3755     1
   3749   3751     1
   3758   3762     1
   3758   3761     1
   3759   3762     1
   3759   3761     1
   3763   3771     1
   3763   3779     1
   3763   3784     1
   3763   3772     1
   3764   3770     1
   3764   3778     1
   3764   3781     1
   3764   3782     1
   3765   3767     1
   3765   3776     1
   3765   3766     1
   3765   3783     1
   3765   3781     1
   3765   3782     1
   3765   3769     1
   3766   3768     1
   3766   3775     1
   3766   3771     1
   3766   3779     1
   3766   3777     1
   3766   3785     1
   3767   3772     1
   3767   3780     1
   3767   3779     1
   3768   3778     1
   3769   3780     1
   3769   3771     1
   3770   3773     1
   3770   3785     1
   3770   3772     1
   3770   3780     1
   3770   3775     1
   3770   3771     1
   3771   3774     1
   3771   3778     1
   3771   3776     1
   3772   3774     1
   3781   3784     1
   3781   3785     1
   3782   3784     1
   3782   3785     1
   3786   3794     1
   3786   3802     1
   3786   3807     1
   3786   3795     1
   3787   3804     1
   3787   3805     1
   3787   3793     1
   3787   3801     1
   3788   3790     1
   3788   3799     1
   3788   3789     1
   3788   3806     1
   3788   3804     1
   3788   3805     1
   3788   3792     1
   3789   3800     1
   3789   3808     1
   3789   3791     1
   3789   3798     1
   3789   3794     1
   3789   3802     1
   3790   3802     1
   3790   3795     1
   3790   3803     1
   3791   3801     1
   3792   3794     1
   3792   3803     1
   3793   3798     1
   3793   3794     1
   3793   3796     1
   3793   3808     1
   3793   3795     1
   3793   3803     1
   3794   3799     1
   3794   3797     1
   3794   3801     1
   3795   3797     1
   3804   3808     1
   3804   3807     1
   3805   3808     1
   3805   3807     1
   3809   3817     1
   3809   3825     1
   3809   3830     1
   3809   3818     1
   3810   3816     1
   3810   3824     1
   3810   3827     1
   3810   3828     1
   3811   3813     1
   3811   3822     1
   3811   3812     1
   3811   3829     1
   3811   3827     1
   3811   3828     1
   3811   3815     1
   3812   3814     1
   3812   3821     1
   3812   3817     1
   3812   3825     1
   3812   3823     1
   3812   3831     1
   3813   3818     1
   3813   3826     1
   3813   3825     1
   3814   3824     1
   3815   3826     1
   3815   3817     1
   3816   3819     1
   3816   3831     1
   3816   3818     1
   3816   3826     1
   3816   3821     1
   3816   3817     1
   3817   3820     1
   3817   3824     1
   3817   3822     1
   3818   3820     1
   3827   3830     1
   3827   3831     1
   3828   3830     1
   3828   3831     1
   3832   3840     1
   3832   3848     1
   3832   3853     1
   3832   3841     1
   3833   3850     1
   3833   3851     1
   3833   3839     1
   3833   3847     1
   3834   3836     1
   3834   3845     1
   3834   3835     1
   3834   3852     1
   3834   3850     1
   3834   3851     1
   3834   3838     1
   3835   3846     1
   3835   3854     1
   3835   3837     1
   3835   3844     1
   3835   3840     1
   3835   3848     1
   3836   3848     1
   3836   3841     1
   3836   3849     1
   3837   3847     1
   3838   3840     1
   3838   3849     1
   3839   3844     1
   3839   3840     1
   3839   3842     1
   3839   3854     1
   3839   3841     1
   3839   3849     1
   3840   3845     1
   3840   3843     1
   3840   3847     1
   3841   3843     1
   3850   3854     1
   3850   3853     1
   3851   3854     1
   3851   3853     1
   3855   3863     1
   3855   3871     1
   3855   3876     1
   3855   3864     1
   3856   3862     1
   3856   3870     1
   3856   3873     1
   3856   3874     1
   3857   3859     1
   3857   3868     1
   3857   3858     1
   3857   3875     1
   3857   3873     1
   3857   3874     1
   3857   3861     1
   3858   3860     1
   3858   3867     1
   3858   3863     1
   3858   3871     1
   3858   3869     1
   3858   3877     1
   3859   3864     1
   3859   3872     1
   3859   3871     1
   3860   3870     1
   3861   3872     1
   3861   3863     1
   3862   3865     1
   3862   3877     1
   3862   3864     1
   3862   3872     1
   3862   3867     1
   3862   3863     1
   3863   3866     1
   3863   3870     1
   3863   3868     1
   3864   3866     1
   3873   3876     1
   3873   3877     1
   3874   3876     1
   3874   3877     1
   3878   3886     1
   3878   3894     1
   3878   3899     1
   3878   3887     1
   3879   3896     1
   3879   3897     1
   3879   3885     1
   3879   3893     1
   3880   3882     1
   3880   3891     1
   3880   3881     1
   3880   3898     1
   3880   3896     1
   3880   3897     1
   3880   3884     1
   3881   3892     1
   3881   3900     1
   3881   3883     1
   3881   3890     1
   3881   3886     1
   3881   3894     1
   3882   3894     1
   3882   3887     1
   3882   3895     1
   3883   3893     1
   3884   3886     1
   3884   3895     1
   3885   3890     1
   3885   3886     1
   3885   3888     1
   3885   3900     1
   3885   3887     1
   3885   3895     1
   3886   3891     1
   3886   3889     1
   3886   3893     1
   3887   3889     1
   3896   3900     1
   3896   3899     1
   3897   3900     1
   3897   3899     1
   3901   3909     1
   3901   3917     1
   3901   3922     1
   3901   3910     1
   3902   3908     1
   3902   3916     1
   3902   3919     1
   3902   3920     1
   3903   3905     1
   3903   3914     1
   3903   3904     1
   3903   3921     1
   3903   3919     1
   3903   3920     1
   3903   3907     1
   3904   3906     1
   3904   3913     1
   3904   3909     1
   3904   3917     1
   3904   3915     1
   3904   3923     1
   3905   3910     1
   3905   3918     1
   3905   3917     1
   3906   3916     1
   3907   3918     1
   3907   3909     1
   3908   3911     1
   3908   3923     1
   3908   3910     1
   3908   3918     1
   3908   3913     1
   3908   3909     1
   3909   3912     1
   3909   3916     1
   3909   3914     1
   3910   3912     1
   3919   3922     1
   3919   3923     1
   3920   3922     1
   3920   3923     1
   3924   3932     1
   3924   3940     1
   3924   3945     1
   3924   3933     1
   3925   3942     1
   3925   3943     1
   3925   3931     1
   3925   3939     1
   3926   3928     1
   3926   3937     1
   3926   3927     1
   3926   3944     1
   3926   3942     1
   3926   3943     1
   3926   3930     1
   3927   3938     1
   3927   3946     1
   3927   3929     1
   3927   3936     1
   3927   3932     1
   3927   3940     1
   3928   3940     1
   3928   3933     1
   3928   3941     1
   3929   3939     1
   3930   3932     1
   3930   3941     1
   3931   3936     1
   3931   3932     1
   3931   3934     1
   3931   3946     1
   3931   3933     1
   3931   3941     1
   3932   3937     1
   3932   3935     1
   3932   3939     1
   3933   3935     1
   3942   3946     1
   3942   3945     1
   3943   3946     1
   3943   3945     1
   3947   3955     1
   3947   3963     1
   3947   3968     1
   3947   3956     1
   3948   3954     1
   3948   3962     1
   3948   3965     1
   3948   3966     1
   3949   3951     1
   3949   3960     1
   3949   3950     1
   3949   3967     1
   3949   3965     1
   3949   3966     1
   3949   3953     1
   3950   3952     1
   3950   3959     1
   3950   3955     1
   3950   3963     1
   3950   3961     1
   3950   3969     1
   3951   3956     1
   3951   3964     1
   3951   3963     1
   3952   3962     1
   3953   3964     1
   3953   3955     1
   3954   3957     1
   3954   3969     1
   3954   3956     1
   3954   3964     1
   3954   3959     1
   3954   3955     1
   3955   3958     1
   3955   3962     1
   3955   3960     1
   3956   3958     1
   3965   3968     1
   3965   3969     1
   3966   3968     1
   3966   3969     1
   3970   3978     1
   3970   3986     1
   3970   3991     1
   3970   3979     1
   3971   3988     1
   3971   3989     1
   3971   3977     1
   3971   3985     1
   3972   3974     1
   3972   3983     1
   3972   3973     1
   3972   3990     1
   3972   3988     1
   3972   3989     1
   3972   3976     1
   3973   3984     1
   3973   3992     1
   3973   3975     1
   3973   3982     1
   3973   3978     1
   3973   3986     1
   3974   3986     1
   3974   3979     1
   3974   3987     1
   3975   3985     1
   3976   3978     1
   3976   3987     1
   3977   3982     1
   3977   3978     1
   3977   3980     1
   3977   3992     1
   3977   3979     1
   3977   3987     1
   3978   3983     1
   3978   3981     1
   3978   3985     1
   3979   3981     1
   3988   3992     1
   3988   3991     1
   3989   3992     1
   3989   3991     1
   3993   4001     1
   3993   4009     1
   3993   4014     1
   3993   4002     1
   3994   4000     1
   3994   4008     1
   3994   4011     1
   3994   4012     1
   3995   3997     1
   3995   4006     1
   3995   3996     1
   3995   4013     1
   3995   4011     1
   3995   4012     1
   3995   3999     1
   3996   3998     1
   3996   4005     1
   3996   4001     1
   3996   4009     1
   3996   4007     1
   3996   4015     1
   3997   4002     1
   3997   4010     1
   3997   4009     1
   3998   4008     1
   3999   4010     1
   3999   4001     1
   4000   4003     1
   4000   4015     1
   4000   4002     1
   4000   4010     1
   4000   4005     1
   4000   4001     1
   4001   4004     1
   4001   4008     1
   4001   4006     1
   4002   4004     1
   4011   4014     1
   4011   4015     1
   4012   4014     1
   4012   4015     1
   4016   4024     1
   4016   4032     1
   4016   4037     1
   4016   4025     1
   4017   4034     1
   4017   4035     1
   4017   4023     1
   4017   4031     1
   4018   4020     1
   4018   4029     1
   4018   4019     1
   4018   4036     1
   4018   4034     1
   4018   4035     1
   4018   4022     1
   4019   4030     1
   4019   4038     1
   4019   4021     1
   4019   4028     1
   4019   4024     1
   4019   4032     1
   4020   4032     1
   4020   4025     1
   4020   4033     1
   4021   4031     1
   4022   4024     1
   4022   4033     1
   4023   4028     1
   4023   4024     1
   4023   4026     1
   4023   4038     1
   4023   4025     1
   4023   4033     1
   4024   4029     1
   4024   4027     1
   4024   4031     1
   4025   4027     1
   4034   4038     1
   4034   4037     1
   4035   4038     1
   4035   4037     1
   4039   4047     1
   4039   4055     1
   4039   4060     1
   4039   4048     1
   4040   4046     1
   4040   4054     1
   4040   4057     1
   4040   4058     1
   4041   4043     1
   4041   4052     1
   4041   4042     1
   4041   4059     1
   4041   4057     1
   4041   4058     1
   4041   4045     1
   4042   4044     1
   4042   4051     1
   4042   4047     1
   4042   4055     1
   4042   4053     1
   4042   4061     1
   4043   4048     1
   4043   4056     1
   4043   4055     1
   4044   4054     1
   4045   4056     1
   4045   4047     1
   4046   4049     1
   4046   4061     1
   4046   4048     1
   4046   4056     1
   4046   4051     1
   4046   4047     1
   4047   4050     1
   4047   4054     1
   4047   4052     1
   4048   4050     1
   4057   4060     1
   4057   4061     1
   4058   4060     1
   4058   4061     1
   4062   4070     1
   4062   4078     1
   4062   4083     1
   4062   4071     1
   4063   4080     1
   4063   4081     1
   4063   4069     1
   4063   4077     1
   4064   4066     1
   4064   4075     1
   4064   4065     1
   4064   4082     1
   4064   4080     1
   4064   4081     1
   4064   4068     1
   4065   4076     1
   4065   4084     1
   4065   4067     1
   4065   4074     1
   4065   4070     1
   4065   4078     1
   4066   4078     1
   4066   4071     1
   4066   4079     1
   4067   4077     1
   4068   4070     1
   4068   4079     1
   4069   4074     1
   4069   4070     1
   4069   4072     1
   4069   4084     1
   4069   4071     1
   4069   4079     1
   4070   4075     1
   4070   4073     1
   4070   4077     1
   4071   4073     1
   4080   4084     1
   4080   4083     1
   4081   4084     1
   4081   4083     1
   4085   4093     1
   4085   4101     1
   4085   4106     1
   4085   4094     1
   4086   4092     1
   4086   4100     1
   4086   4103     1
   4086   4104     1
   4087   4089     1
   4087   4098     1
   4087   4088     1
   4087   4105     1
   4087   4103     1
   4087   4104     1
   4087   4091     1
   4088   4090     1
   4088   4097     1
   4088   4093     1
   4088   4101     1
   4088   4099     1
   4088   4107     1
   4089   4094     1
   4089   4102     1
   4089   4101     1
   4090   4100     1
   4091   4102     1
   4091   4093     1
   4092   4095     1
   4092   4107     1
   4092   4094     1
   4092   4102     1
   4092   4097     1
   4092   4093     1
   4093   4096     1
   4093   4100     1
   4093   4098     1
   4094   4096     1
   4103   4106     1
   4103   4107     1
   4104   4106     1
   4104   4107     1
   4108   4116     1
   4108   4124     1
   4108   4129     1
   4108   4117     1
   4109   4126     1
   4109   4127     1
   4109   4115     1
   4109   4123     1
   4110   4112     1
   4110   4121     1
   4110   4111     1
   4110   4128     1
   4110   4126     1
   4110   4127     1
   4110   4114     1
   4111   4122     1
   4111   4130     1
   4111   4113     1
   4111   4120     1
   4111   4116     1
   4111   4124     1
   4112   4124     1
   4112   4117     1
   4112   4125     1
   4113   4123     1
   4114   4116     1
   4114   4125     1
   4115   4120     1
   4115   4116     1
   4115   4118     1
   4115   4130     1
   4115   4117     1
   4115   4125     1
   4116   4121     1
   4116   4119     1
   4116   4123     1
   4117   4119     1
   4126   4130     1
   4126   4129     1
   4127   4130     1
   4127   4129     1
   4131   4139     1
   4131   4147     1
   4131   4152     1
   4131   4140     1
   4132   4138     1
   4132   4146     1
   4132   4149     1
   4132   4150     1
   4133   4135     1
   4133   4144     1
   4133   4134     1
   4133   4151     1
   4133   4149     1
   4133   4150     1
   4133   4137     1
   4134   4136     1
   4134   4143     1
   4134   4139     1
   4134   4147     1
   4134   4145     1
   4134   4153     1
   4135   4140     1
   4135   4148     1
   4135   4147     1
   4136   4146     1
   4137   4148     1
   4137   4139     1
   4138   4141     1
   4138   4153     1
   4138   4140     1
   4138   4148     1
   4138   4143     1
   4138   4139     1
   4139   4142     1
   4139   4146     1
   4139   4144     1
   4140   4142     1
   4149   4152     1
   4149   4153     1
   4150   4152     1
   4150   4153     1
   4154   4162     1
   4154   4170     1
   4154   4175     1
   4154   4163     1
   4155   4172     1
   4155   4173     1
   4155   4161     1
   4155   4169     1
   4156   4158     1
   4156   4167     1
   4156   4157     1
   4156   4174     1
   4156   4172     1
   4156   4173     1
   4156   4160     1
   4157   4168     1
   4157   4176     1
   4157   4159     1
   4157   4166     1
   4157   4162     1
   4157   4170     1
   4158   4170     1
   4158   4163     1
   4158   4171     1
   4159   4169     1
   4160   4162     1
   4160   4171     1
   4161   4166     1
   4161   4162     1
   4161   4164     1
   4161   4176     1
   4161   4163     1
   4161   4171     1
   4162   4167     1
   4162   4165     1
   4162   4169     1
   4163   4165     1
   4172   4176     1
   4172   4175     1
   4173   4176     1
   4173   4175     1
   4177   4185     1
   4177   4193     1
   4177   4198     1
   4177   4186     1
   4178   4184     1
   4178   4192     1
   4178   4195     1
   4178   4196     1
   4179   4181     1
   4179   4190     1
   4179   4180     1
   4179   4197     1
   4179   4195     1
   4179   4196     1
   4179   4183     1
   4180   4182     1
   4180   4189     1
   4180   4185     1
   4180   4193     1
   4180   4191     1
   4180   4199     1
   4181   4186     1
   4181   4194     1
   4181   4193     1
   4182   4192     1
   4183   4194     1
   4183   4185     1
   4184   4187     1
   4184   4199     1
   4184   4186     1
   4184   4194     1
   4184   4189     1
   4184   4185     1
   4185   4188     1
   4185   4192     1
   4185   4190     1
   4186   4188     1
   4195   4198     1
   4195   4199     1
   4196   4198     1
   4196   4199     1
   4200   4208     1
   4200   4216     1
   4200   4221     1
   4200   4209     1
   4201   4218     1
   4201   4219     1
   4201   4207     1
   4201   4215     1
   4202   4204     1
   4202   4213     1
   4202   4203     1
   4202   4220     1
   4202   4218     1
   4202   4219     1
   4202   4206     1
   4203   4214     1
   4203   4222     1
   4203   4205     1
   4203   4212     1
   4203   4208     1
   4203   4216     1
   4204   4216     1
   4204   4209     1
   4204   4217     1
   4205   4215     1
   4206   4208     1
   4206   4217     1
   4207   4212     1
   4207   4208     1
   4207   4210     1
   4207   4222     1
   4207   4209     1
   4207   4217     1
   4208   4213     1
   4208   4211     1
   4208   4215     1
   4209   4211     1
   4218   4222     1
   4218   4221     1
   4219   4222     1
   4219   4221     1
   4223   4231     1
   4223   4239     1
   4223   4244     1
   4223   4232     1
   4224   4230     1
   4224   4238     1
   4224   4241     1
   4224   4242     1
   4225   4227     1
   4225   4236     1
   4225   4226     1
   4225   4243     1
   4225   4241     1
   4225   4242     1
   4225   4229     1
   4226   4228     1
   4226   4235     1
   4226   4231     1
   4226   4239     1
   4226   4237     1
   4226   4245     1
   4227   4232     1
   4227   4240     1
   4227   4239     1
   4228   4238     1
   4229   4240     1
   4229   4231     1
   4230   4233     1
   4230   4245     1
   4230   4232     1
   4230   4240     1
   4230   4235     1
   4230   4231     1
   4231   4234     1
   4231   4238     1
   4231   4236     1
   4232   4234     1
   4241   4244     1
   4241   4245     1
   4242   4244     1
   4242   4245     1
   4246   4254     1
   4246   4262     1
   4246   4267     1
   4246   4255     1
   4247   4264     1
   4247   4265     1
   4247   4253     1
   4247   4261     1
   4248   4250     1
   4248   4259     1
   4248   4249     1
   4248   4266     1
   4248   4264     1
   4248   4265     1
   4248   4252     1
   4249   4260     1
   4249   4268     1
   4249   4251     1
   4249   4258     1
   4249   4254     1
   4249   4262     1
   4250   4262     1
   4250   4255     1
   4250   4263     1
   4251   4261     1
   4252   4254     1
   4252   4263     1
   4253   4258     1
   4253   4254     1
   4253   4256     1
   4253   4268     1
   4253   4255     1
   4253   4263     1
   4254   4259     1
   4254   4257     1
   4254   4261     1
   4255   4257     1
   4264   4268     1
   4264   4267     1
   4265   4268     1
   4265   4267     1
   4269   4277     1
   4269   4285     1
   4269   4290     1
   4269   4278     1
   4270   4276     1
   4270   4284     1
   4270   4287     1
   4270   4288     1
   4271   4273     1
   4271   4282     1
   4271   4272     1
   4271   4289     1
   4271   4287     1
   4271   4288     1
   4271   4275     1
   4272   4274     1
   4272   4281     1
   4272   4277     1
   4272   4285     1
   4272   4283     1
   4272   4291     1
   4273   4278     1
   4273   4286     1
   4273   4285     1
   4274   4284     1
   4275   4286     1
   4275   4277     1
   4276   4279     1
   4276   4291     1
   4276   4278     1
   4276   4286     1
   4276   4281     1
   4276   4277     1
   4277   4280     1
   4277   4284     1
   4277   4282     1
   4278   4280     1
   4287   4290     1
   4287   4291     1
   4288   4290     1
   4288   4291     1
   4292   4300     1
   4292   4308     1
   4292   4313     1
   4292   4301     1
   4293   4310     1
   4293   4311     1
   4293   4299     1
   4293   4307     1
   4294   4296     1
   4294   4305     1
   4294   4295     1
   4294   4312     1
   4294   4310     1
   4294   4311     1
   4294   4298     1
   4295   4306     1
   4295   4314     1
   4295   4297     1
   4295   4304     1
   4295   4300     1
   4295   4308     1
   4296   4308     1
   4296   4301     1
   4296   4309     1
   4297   4307     1
   4298   4300     1
   4298   4309     1
   4299   4304     1
   4299   4300     1
   4299   4302     1
   4299   4314     1
   4299   4301     1
   4299   4309     1
   4300   4305     1
   4300   4303     1
   4300   4307     1
   4301   4303     1
   4310   4314     1
   4310   4313     1
   4311   4314     1
   4311   4313     1
   4315   4323     1
   4315   4331     1
   4315   4336     1
   4315   4324     1
   4316   4322     1
   4316   4330     1
   4316   4333     1
   4316   4334     1
   4317   4319     1
   4317   4328     1
   4317   4318     1
   4317   4335     1
   4317   4333     1
   4317   4334     1
   4317   4321     1
   4318   4320     1
   4318   4327     1
   4318   4323     1
   4318   4331     1
   4318   4329     1
   4318   4337     1
   4319   4324     1
   4319   4332     1
   4319   4331     1
   4320   4330     1
   4321   4332     1
   4321   4323     1
   4322   4325     1
   4322   4337     1
   4322   4324     1
   4322   4332     1
   4322   4327     1
   4322   4323     1
   4323   4326     1
   4323   4330     1
   4323   4328     1
   4324   4326     1
   4333   4336     1
   4333   4337     1
   4334   4336     1
   4334   4337     1
   4338   4346     1
   4338   4354     1
   4338   4359     1
   4338   4347     1
   4339   4356     1
   4339   4357     1
   4339   4345     1
   4339   4353     1
   4340   4342     1
   4340   4351     1
   4340   4341     1
   4340   4358     1
   4340   4356     1
   4340   4357     1
   4340   4344     1
   4341   4352     1
   4341   4360     1
   4341   4343     1
   4341   4350     1
   4341   4346     1
   4341   4354     1
   4342   4354     1
   4342   4347     1
   4342   4355     1
   4343   4353     1
   4344   4346     1
   4344   4355     1
   4345   4350     1
   4345   4346     1
   4345   4348     1
   4345   4360     1
   4345   4347     1
   4345   4355     1
   4346   4351     1
   4346   4349     1
   4346   4353     1
   4347   4349     1
   4356   4360     1
   4356   4359     1
   4357   4360     1
   4357   4359     1
   4361   4369     1
   4361   4377     1
   4361   4382     1
   4361   4370     1
   4362   4368     1
   4362   4376     1
   4362   4379     1
   4362   4380     1
   4363   4365     1
   4363   4374     1
   4363   4364     1
   4363   4381     1
   4363   4379     1
   4363   4380     1
   4363   4367     1
   4364   4366     1
   4364   4373     1
   4364   4369     1
   4364   4377     1
   4364   4375     1
   4364   4383     1
   4365   4370     1
   4365   4378     1
   4365   4377     1
   4366   4376     1
   4367   4378     1
   4367   4369     1
   4368   4371     1
   4368   4383     1
   4368   4370     1
   4368   4378     1
   4368   4373     1
   4368   4369     1
   4369   4372     1
   4369   4376     1
   4369   4374     1
   4370   4372     1
   4379   4382     1
   4379   4383     1
   4380   4382     1
   4380   4383     1
   4384   4392     1
   4384   4400     1
   4384   4405     1
   4384   4393     1
   4385   4402     1
   4385   4403     1
   4385   4391     1
   4385   4399     1
   4386   4388     1
   4386   4397     1
   4386   4387     1
   4386   4404     1
   4386   4402     1
   4386   4403     1
   4386   4390     1
   4387   4398     1
   4387   4406     1
   4387   4389     1
   4387   4396     1
   4387   4392     1
   4387   4400     1
   4388   4400     1
   4388   4393     1
   4388   4401     1
   4389   4399     1
   4390   4392     1
   4390   4401     1
   4391   4396     1
   4391   4392     1
   4391   4394     1
   4391   4406     1
   4391   4393     1
   4391   4401     1
   4392   4397     1
   4392   4395     1
   4392   4399     1
   4393   4395     1
   4402   4406     1
   4402   4405     1
   4403   4406     1
   4403   4405     1
   4407   4415     1
   4407   4423     1
   4407   4428     1
   4407   4416     1
   4408   4414     1
   4408   4422     1
   4408   4425     1
   4408   4426     1
   4409   4411     1
   4409   4420     1
   4409   4410     1
   4409   4427     1
   4409   4425     1
   4409   4426     1
   4409   4413     1
   4410   4412     1
   4410   4419     1
   4410   4415     1
   4410   4423     1
   4410   4421     1
   4410   4429     1
   4411   4416     1
   4411   4424     1
   4411   4423     1
   4412   4422     1
   4413   4424     1
   4413   4415     1
   4414   4417     1
   4414   4429     1
   4414   4416     1
   4414   4424     1
   4414   4419     1
   4414   4415     1
   4415   4418     1
   4415   4422     1
   4415   4420     1
   4416   4418     1
   4425   4428     1
   4425   4429     1
   4426   4428     1
   4426   4429     1
   4430   4438     1
   4430   4446     1
   4430   4451     1
   4430   4439     1
   4431   4448     1
   4431   4449     1
   4431   4437     1
   4431   4445     1
   4432   4434     1
   4432   4443     1
   4432   4433     1
   4432   4450     1
   4432   4448     1
   4432   4449     1
   4432   4436     1
   4433   4444     1
   4433   4452     1
   4433   4435     1
   4433   4442     1
   4433   4438     1
   4433   4446     1
   4434   4446     1
   4434   4439     1
   4434   4447     1
   4435   4445     1
   4436   4438     1
   4436   4447     1
   4437   4442     1
   4437   4438     1
   4437   4440     1
   4437   4452     1
   4437   4439     1
   4437   4447     1
   4438   4443     1
   4438   4441     1
   4438   4445     1
   4439   4441     1
   4448   4452     1
   4448   4451     1
   4449   4452     1
   4449   4451     1
   4453   4461     1
   4453   4469     1
   4453   4474     1
   4453   4462     1
   4454   4460     1
   4454   4468     1
   4454   4471     1
   4454   4472     1
   4455   4457     1
   4455   4466     1
   4455   4456     1
   4455   4473     1
   4455   4471     1
   4455   4472     1
   4455   4459     1
   4456   4458     1
   4456   4465     1
   4456   4461     1
   4456   4469     1
   4456   4467     1
   4456   4475     1
   4457   4462     1
   4457   4470     1
   4457   4469     1
   4458   4468     1
   4459   4470     1
   4459   4461     1
   4460   4463     1
   4460   4475     1
   4460   4462     1
   4460   4470     1
   4460   4465     1
   4460   4461     1
   4461   4464     1
   4461   4468     1
   4461   4466     1
   4462   4464     1
   4471   4474     1
   4471   4475     1
   4472   4474     1
   4472   4475     1
   4476   4484     1
   4476   4492     1
   4476   4497     1
   4476   4485     1
   4477   4494     1
   4477   4495     1
   4477   4483     1
   4477   4491     1
   4478   4480     1
   4478   4489     1
   4478   4479     1
   4478   4496     1
   4478   4494     1
   4478   4495     1
   4478   4482     1
   4479   4490     1
   4479   4498     1
   4479   4481     1
   4479   4488     1
   4479   4484     1
   4479   4492     1
   4480   4492     1
   4480   4485     1
   4480   4493     1
   4481   4491     1
   4482   4484     1
   4482   4493     1
   4483   4488     1
   4483   4484     1
   4483   4486     1
   4483   4498     1
   4483   4485     1
   4483   4493     1
   4484   4489     1
   4484   4487     1
   4484   4491     1
   4485   4487     1
   4494   4498     1
   4494   4497     1
   4495   4498     1
   4495   4497     1
   4499   4507     1
   4499   4515     1
   4499   4520     1
   4499   4508     1
   4500   4506     1
   4500   4514     1
   4500   4517     1
   4500   4518     1
   4501   4503     1
   4501   4512     1
   4501   4502     1
   4501   4519     1
   4501   4517     1
   4501   4518     1
   4501   4505     1
   4502   4504     1
   4502   4511     1
   4502   4507     1
   4502   4515     1
   4502   4513     1
   4502   4521     1
   4503   4508     1
   4503   4516     1
   4503   4515     1
   4504   4514     1
   4505   4516     1
   4505   4507     1
   4506   4509     1
   4506   4521     1
   4506   4508     1
   4506   4516     1
   4506   4511     1
   4506   4507     1
   4507   4510     1
   4507   4514     1
   4507   4512     1
   4508   4510     1
   4517   4520     1
   4517   4521     1
   4518   4520     1
   4518   4521     1
   4522   4530     1
   4522   4538     1
   4522   4543     1
   4522   4531     1
   4523   4540     1
   4523   4541     1
   4523   4529     1
   4523   4537     1
   4524   4526     1
   4524   4535     1
   4524   4525     1
   4524   4542     1
   4524   4540     1
   4524   4541     1
   4524   4528     1
   4525   4536     1
   4525   4544     1
   4525   4527     1
   4525   4534     1
   4525   4530     1
   4525   4538     1
   4526   4538     1
   4526   4531     1
   4526   4539     1
   4527   4537     1
   4528   4530     1
   4528   4539     1
   4529   4534     1
   4529   4530     1
   4529   4532     1
   4529   4544     1
   4529   4531     1
   4529   4539     1
   4530   4535     1
   4530   4533     1
   4530   4537     1
   4531   4533     1
   4540   4544     1
   4540   4543     1
   4541   4544     1
   4541   4543     1
   4545   4553     1
   4545   4561     1
   4545   4566     1
   4545   4554     1
   4546   4552     1
   4546   4560     1
   4546   4563     1
   4546   4564     1
   4547   4549     1
   4547   4558     1
   4547   4548     1
   4547   4565     1
   4547   4563     1
   4547   4564     1
   4547   4551     1
   4548   4550     1
   4548   4557     1
   4548   4553     1
   4548   4561     1
   4548   4559     1
   4548   4567     1
   4549   4554     1
   4549   4562     1
   4549   4561     1
   4550   4560     1
   4551   4562     1
   4551   4553     1
   4552   4555     1
   4552   4567     1
   4552   4554     1
   4552   4562     1
   4552   4557     1
   4552   4553     1
   4553   4556     1
   4553   4560     1
   4553   4558     1
   4554   4556     1
   4563   4566     1
   4563   4567     1
   4564   4566     1
   4564   4567     1
   4568   4576     1
   4568   4584     1
   4568   4589     1
   4568   4577     1
   4569   4586     1
   4569   4587     1
   4569   4575     1
   4569   4583     1
   4570   4572     1
   4570   4581     1
   4570   4571     1
   4570   4588     1
   4570   4586     1
   4570   4587     1
   4570   4574     1
   4571   4582     1
   4571   4590     1
   4571   4573     1
   4571   4580     1
   4571   4576     1
   4571   4584     1
   4572   4584     1
   4572   4577     1
   4572   4585     1
   4573   4583     1
   4574   4576     1
   4574   4585     1
   4575   4580     1
   4575   4576     1
   4575   4578     1
   4575   4590     1
   4575   4577     1
   4575   4585     1
   4576   4581     1
   4576   4579     1
   4576   4583     1
   4577   4579     1
   4586   4590     1
   4586   4589     1
   4587   4590     1
   4587   4589     1
   4591   4599     1
   4591   4607     1
   4591   4612     1
   4591   4600     1
   4592   4598     1
   4592   4606     1
   4592   4609     1
   4592   4610     1
   4593   4595     1
   4593   4604     1
   4593   4594     1
   4593   4611     1
   4593   4609     1
   4593   4610     1
   4593   4597     1
   4594   4596     1
   4594   4603     1
   4594   4599     1
   4594   4607     1
   4594   4605     1
   4594   4613     1
   4595   4600     1
   4595   4608     1
   4595   4607     1
   4596   4606     1
   4597   4608     1
   4597   4599     1
   4598   4601     1
   4598   4613     1
   4598   4600     1
   4598   4608     1
   4598   4603     1
   4598   4599     1
   4599   4602     1
   4599   4606     1
   4599   4604     1
   4600   4602     1
   4609   4612     1
   4609   4613     1
   4610   4612     1
   4610   4613     1
   4614   4622     1
   4614   4630     1
   4614   4635     1
   4614   4623     1
   4615   4632     1
   4615   4633     1
   4615   4621     1
   4615   4629     1
   4616   4618     1
   4616   4627     1
   4616   4617     1
   4616   4634     1
   4616   4632     1
   4616   4633     1
   4616   4620     1
   4617   4628     1
   4617   4636     1
   4617   4619     1
   4617   4626     1
   4617   4622     1
   4617   4630     1
   4618   4630     1
   4618   4623     1
   4618   4631     1
   4619   4629     1
   4620   4622     1
   4620   4631     1
   4621   4626     1
   4621   4622     1
   4621   4624     1
   4621   4636     1
   4621   4623     1
   4621   4631     1
   4622   4627     1
   4622   4625     1
   4622   4629     1
   4623   4625     1
   4632   4636     1
   4632   4635     1
   4633   4636     1
   4633   4635     1
   4637   4645     1
   4637   4653     1
   4637   4658     1
   4637   4646     1
   4638   4644     1
   4638   4652     1
   4638   4655     1
   4638   4656     1
   4639   4641     1
   4639   4650     1
   4639   4640     1
   4639   4657     1
   4639   4655     1
   4639   4656     1
   4639   4643     1
   4640   4642     1
   4640   4649     1
   4640   4645     1
   4640   4653     1
   4640   4651     1
   4640   4659     1
   4641   4646     1
   4641   4654     1
   4641   4653     1
   4642   4652     1
   4643   4654     1
   4643   4645     1
   4644   4647     1
   4644   4659     1
   4644   4646     1
   4644   4654     1
   4644   4649     1
   4644   4645     1
   4645   4648     1
   4645   4652     1
   4645   4650     1
   4646   4648     1
   4655   4658     1
   4655   4659     1
   4656   4658     1
   4656   4659     1
   4660   4668     1
   4660   4676     1
   4660   4681     1
   4660   4669     1
   4661   4678     1
   4661   4679     1
   4661   4667     1
   4661   4675     1
   4662   4664     1
   4662   4673     1
   4662   4663     1
   4662   4680     1
   4662   4678     1
   4662   4679     1
   4662   4666     1
   4663   4674     1
   4663   4682     1
   4663   4665     1
   4663   4672     1
   4663   4668     1
   4663   4676     1
   4664   4676     1
   4664   4669     1
   4664   4677     1
   4665   4675     1
   4666   4668     1
   4666   4677     1
   4667   4672     1
   4667   4668     1
   4667   4670     1
   4667   4682     1
   4667   4669     1
   4667   4677     1
   4668   4673     1
   4668   4671     1
   4668   4675     1
   4669   4671     1
   4678   4682     1
   4678   4681     1
   4679   4682     1
   4679   4681     1
   4683   4691     1
   4683   4699     1
   4683   4704     1
   4683   4692     1
   4684   4690     1
   4684   4698     1
   4684   4701     1
   4684   4702     1
   4685   4687     1
   4685   4696     1
   4685   4686     1
   4685   4703     1
   4685   4701     1
   4685   4702     1
   4685   4689     1
   4686   4688     1
   4686   4695     1
   4686   4691     1
   4686   4699     1
   4686   4697     1
   4686   4705     1
   4687   4692     1
   4687   4700     1
   4687   4699     1
   4688   4698     1
   4689   4700     1
   4689   4691     1
   4690   4693     1
   4690   4705     1
   4690   4692     1
   4690   4700     1
   4690   4695     1
   4690   4691     1
   4691   4694     1
   4691   4698     1
   4691   4696     1
   4692   4694     1
   4701   4704     1
   4701   4705     1
   4702   4704     1
   4702   4705     1
   4706   4714     1
   4706   4722     1
   4706   4727     1
   4706   4715     1
   4707   4724     1
   4707   4725     1
   4707   4713     1
   4707   4721     1
   4708   4710     1
   4708   4719     1
   4708   4709     1
   4708   4726     1
   4708   4724     1
   4708   4725     1
   4708   4712     1
   4709   4720     1
   4709   4728     1
   4709   4711     1
   4709   4718     1
   4709   4714     1
   4709   4722     1
   4710   4722     1
   4710   4715     1
   4710   4723     1
   4711   4721     1
   4712   4714     1
   4712   4723     1
   4713   4718     1
   4713   4714     1
   4713   4716     1
   4713   4728     1
   4713   4715     1
   4713   4723     1
   4714   4719     1
   4714   4717     1
   4714   4721     1
   4715   4717     1
   4724   4728     1
   4724   4727     1
   4725   4728     1
   4725   4727     1
   4729   4737     1
   4729   4745     1
   4729   4750     1
   4729   4738     1
   4730   4736     1
   4730   4744     1
   4730   4747     1
   4730   4748     1
   4731   4733     1
   4731   4742     1
   4731   4732     1
   4731   4749     1
   4731   4747     1
   4731   4748     1
   4731   4735     1
   4732   4734     1
   4732   4741     1
   4732   4737     1
   4732   4745     1
   4732   4743     1
   4732   4751     1
   4733   4738     1
   4733   4746     1
   4733   4745     1
   4734   4744     1
   4735   4746     1
   4735   4737     1
   4736   4739     1
   4736   4751     1
   4736   4738     1
   4736   4746     1
   4736   4741     1
   4736   4737     1
   4737   4740     1
   4737   4744     1
   4737   4742     1
   4738   4740     1
   4747   4750     1
   4747   4751     1
   4748   4750     1
   4748   4751     1
   4752   4760     1
   4752   4768     1
   4752   4773     1
   4752   4761     1
   4753   4770     1
   4753   4771     1
   4753   4759     1
   4753   4767     1
   4754   4756     1
   4754   4765     1
   4754   4755     1
   4754   4772     1
   4754   4770     1
   4754   4771     1
   4754   4758     1
   4755   4766     1
   4755   4774     1
   4755   4757     1
   4755   4764     1
   4755   4760     1
   4755   4768     1
   4756   4768     1
   4756   4761     1
   4756   4769     1
   4757   4767     1
   4758   4760     1
   4758   4769     1
   4759   4764     1
   4759   4760     1
   4759   4762     1
   4759   4774     1
   4759   4761     1
   4759   4769     1
   4760   4765     1
   4760   4763     1
   4760   4767     1
   4761   4763     1
   4770   4774     1
   4770   4773     1
   4771   4774     1
   4771   4773     1
   4775   4783     1
   4775   4791     1
   4775   4796     1
   4775   4784     1
   4776   4782     1
   4776   4790     1
   4776   4793     1
   4776   4794     1
   4777   4779     1
   4777   4788     1
   4777   4778     1
   4777   4795     1
   4777   4793     1
   4777   4794     1
   4777   4781     1
   4778   4780     1
   4778   4787     1
   4778   4783     1
   4778   4791     1
   4778   4789     1
   4778   4797     1
   4779   4784     1
   4779   4792     1
   4779   4791     1
   4780   4790     1
   4781   4792     1
   4781   4783     1
   4782   4785     1
   4782   4797     1
   4782   4784     1
   4782   4792     1
   4782   4787     1
   4782   4783     1
   4783   4786     1
   4783   4790     1
   4783   4788     1
   4784   4786     1
   4793   4796     1
   4793   4797     1
   4794   4796     1
   4794   4797     1
   4798   4806     1
   4798   4814     1
   4798   4819     1
   4798   4807     1
   4799   4816     1
   4799   4817     1
   4799   4805     1
   4799   4813     1
   4800   4802     1
   4800   4811     1
   4800   4801     1
   4800   4818     1
   4800   4816     1
   4800   4817     1
   4800   4804     1
   4801   4812     1
   4801   4820     1
   4801   4803     1
   4801   4810     1
   4801   4806     1
   4801   4814     1
   4802   4814     1
   4802   4807     1
   4802   4815     1
   4803   4813     1
   4804   4806     1
   4804   4815     1
   4805   4810     1
   4805   4806     1
   4805   4808     1
   4805   4820     1
   4805   4807     1
   4805   4815     1
   4806   4811     1
   4806   4809     1
   4806   4813     1
   4807   4809     1
   4816   4820     1
   4816   4819     1
   4817   4820     1
   4817   4819     1
   4821   4829     1
   4821   4837     1
   4821   4842     1
   4821   4830     1
   4822   4828     1
   4822   4836     1
   4822   4839     1
   4822   4840     1
   4823   4825     1
   4823   4834     1
   4823   4824     1
   4823   4841     1
   4823   4839     1
   4823   4840     1
   4823   4827     1
   4824   4826     1
   4824   4833     1
   4824   4829     1
   4824   4837     1
   4824   4835     1
   4824   4843     1
   4825   4830     1
   4825   4838     1
   4825   4837     1
   4826   4836     1
   4827   4838     1
   4827   4829     1
   4828   4831     1
   4828   4843     1
   4828   4830     1
   4828   4838     1
   4828   4833     1
   4828   4829     1
   4829   4832     1
   4829   4836     1
   4829   4834     1
   4830   4832     1
   4839   4842     1
   4839   4843     1
   4840   4842     1
   4840   4843     1
   4844   4852     1
   4844   4860     1
   4844   4865     1
   4844   4853     1
   4845   4862     1
   4845   4863     1
   4845   4851     1
   4845   4859     1
   4846   4848     1
   4846   4857     1
   4846   4847     1
   4846   4864     1
   4846   4862     1
   4846   4863     1
   4846   4850     1
   4847   4858     1
   4847   4866     1
   4847   4849     1
   4847   4856     1
   4847   4852     1
   4847   4860     1
   4848   4860     1
   4848   4853     1
   4848   4861     1
   4849   4859     1
   4850   4852     1
   4850   4861     1
   4851   4856     1
   4851   4852     1
   4851   4854     1
   4851   4866     1
   4851   4853     1
   4851   4861     1
   4852   4857     1
   4852   4855     1
   4852   4859     1
   4853   4855     1
   4862   4866     1
   4862   4865     1
   4863   4866     1
   4863   4865     1
   4867   4875     1
   4867   4883     1
   4867   4888     1
   4867   4876     1
   4868   4874     1
   4868   4882     1
   4868   4885     1
   4868   4886     1
   4869   4871     1
   4869   4880     1
   4869   4870     1
   4869   4887     1
   4869   4885     1
   4869   4886     1
   4869   4873     1
   4870   4872     1
   4870   4879     1
   4870   4875     1
   4870   4883     1
   4870   4881     1
   4870   4889     1
   4871   4876     1
   4871   4884     1
   4871   4883     1
   4872   4882     1
   4873   4884     1
   4873   4875     1
   4874   4877     1
   4874   4889     1
   4874   4876     1
   4874   4884     1
   4874   4879     1
   4874   4875     1
   4875   4878     1
   4875   4882     1
   4875   4880     1
   4876   4878     1
   4885   4888     1
   4885   4889     1
   4886   4888     1
   4886   4889     1
   4890   4898     1
   4890   4906     1
   4890   4911     1
   4890   4899     1
   4891   4908     1
   4891   4909     1
   4891   4897     1
   4891   4905     1
   4892   4894     1
   4892   4903     1
   4892   4893     1
   4892   4910     1
   4892   4908     1
   4892   4909     1
   4892   4896     1
   4893   4904     1
   4893   4912     1
   4893   4895     1
   4893   4902     1
   4893   4898     1
   4893   4906     1
   4894   4906     1
   4894   4899     1
   4894   4907     1
   4895   4905     1
   4896   4898     1
   4896   4907     1
   4897   4902     1
   4897   4898     1
   4897   4900     1
   4897   4912     1
   4897   4899     1
   4897   4907     1
   4898   4903     1
   4898   4901     1
   4898   4905     1
   4899   4901     1
   4908   4912     1
   4908   4911     1
   4909   4912     1
   4909   4911     1
   4913   4921     1
   4913   4929     1
   4913   4934     1
   4913   4922     1
   4914   4920     1
   4914   4928     1
   4914   4931     1
   4914   4932     1
   4915   4917     1
   4915   4926     1
   4915   4916     1
   4915   4933     1
   4915   4931     1
   4915   4932     1
   4915   4919     1
   4916   4918     1
   4916   4925     1
   4916   4921     1
   4916   4929     1
   4916   4927     1
   4916   4935     1
   4917   4922     1
   4917   4930     1
   4917   4929     1
   4918   4928     1
   4919   4930     1
   4919   4921     1
   4920   4923     1
   4920   4935     1
   4920   4922     1
   4920   4930     1
   4920   4925     1
   4920   4921     1
   4921   4924     1
   4921   4928     1
   4921   4926     1
   4922   4924     1
   4931   4934     1
   4931   4935     1
   4932   4934     1
   4932   4935     1
   4936   4944     1
   4936   4952     1
   4936   4957     1
   4936   4945     1
   4937   4954     1
   4937   4955     1
   4937   4943     1
   4937   4951     1
   4938   4940     1
   4938   4949     1
   4938   4939     1
   4938   4956     1
   4938   4954     1
   4938   4955     1
   4938   4942     1
   4939   4950     1
   4939   4958     1
   4939   4941     1
   4939   4948     1
   4939   4944     1
   4939   4952     1
   4940   4952     1
   4940   4945     1
   4940   4953     1
   4941   4951     1
   4942   4944     1
   4942   4953     1
   4943   4948     1
   4943   4944     1
   4943   4946     1
   4943   4958     1
   4943   4945     1
   4943   4953     1
   4944   4949     1
   4944   4947     1
   4944   4951     1
   4945   4947     1
   4954   4958     1
   4954   4957     1
   4955   4958     1
   4955   4957     1
   4959   4967     1
   4959   4975     1
   4959   4980     1
   4959   4968     1
   4960   4966     1
   4960   4974     1
   4960   4977     1
   4960   4978     1
   4961   4963     1
   4961   4972     1
   4961   4962     1
   4961   4979     1
   4961   4977     1
   4961   4978     1
   4961   4965     1
   4962   4964     1
   4962   4971     1
   4962   4967     1
   4962   4975     1
   4962   4973     1
   4962   4981     1
   4963   4968     1
   4963   4976     1
   4963   4975     1
   4964   4974     1
   4965   4976     1
   4965   4967     1
   4966   4969     1
   4966   4981     1
   4966   4968     1
   4966   4976     1
   4966   4971     1
   4966   4967     1
   4967   4970     1
   4967   4974     1
   4967   4972     1
   4968   4970     1
   4977   4980     1
   4977   4981     1
   4978   4980     1
   4978   4981     1
   4982   4990     1
   4982   4998     1
   4982   5003     1
   4982   4991     1
   4983   5000     1
   4983   5001     1
   4983   4989     1
   4983   4997     1
   4984   4986     1
   4984   4995     1
   4984   4985     1
   4984   5002     1
   4984   5000     1
   4984   5001     1
   4984   4988     1
   4985   4996     1
   4985   5004     1
   4985   4987     1
   4985   4994     1
   4985   4990     1
   4985   4998     1
   4986   4998     1
   4986   4991     1
   4986   4999     1
   4987   4997     1
   4988   4990     1
   4988   4999     1
   4989   4994     1
   4989   4990     1
   4989   4992     1
   4989   5004     1
   4989   4991     1
   4989   4999     1
   4990   4995     1
   4990   4993     1
   4990   4997     1
   4991   4993     1
   5000   5004     1
   5000   5003     1
   5001   5004     1
   5001   5003     1
   5005   5013     1
   5005   5021     1
   5005   5026     1
   5005   5014     1
   5006   5012     1
   5006   5020     1
   5006   5023     1
   5006   5024     1
   5007   5009     1
   5007   5018     1
   5007   5008     1
   5007   5025     1
   5007   5023     1
   5007   5024     1
   5007   5011     1
   5008   5010     1
   5008   5017     1
   5008   5013     1
   5008   5021     1
   5008   5019     1
   5008   5027     1
   5009   5014     1
   5009   5022     1
   5009   5021     1
   5010   5020     1
   5011   5022     1
   5011   5013     1
   5012   5015     1
   5012   5027     1
   5012   5014     1
   5012   5022     1
   5012   5017     1
   5012   5013     1
   5013   5016     1
   5013   5020     1
   5013   5018     1
   5014   5016     1
   5023   5026     1
   5023   5027     1
   5024   5026     1
   5024   5027     1

[ angles ]
;    ai     aj     ak funct         c0         c1         c2         c3
      1      2     14     1   114.2100488 537.225600
      1      5     17     1   114.2100488 537.225600
      1      8     11     1   114.2100488 537.225600
      2      1      5     1   109.6600471 523.836800
      2      1      8     1   109.6600471 523.836800
      2     14     26     1   111.5100476 526.347200
      5      1      8     1   109.6600471 523.836800
      5     17     20     1   111.5100476 526.347200
      8     11     23     1   111.5100476 526.347200
     11     23     88     1   107.9700462 569.024000
     14     26    118     1   107.9700462 569.024000
     17     20     58     1   107.9700462 569.024000
     20     58     49     1   112.4800480 524.673600
     23     88     79     1   112.4800480 524.673600
     26    118    109     1   112.4800480 524.673600
     30     31     43     1   114.2100488 537.225600
     30     34     46     1   114.2100488 537.225600
     30     37     40     1   114.2100488 537.225600
     31     30     34     1   109.6600471 523.836800
     31     30     37     1   109.6600471 523.836800
     31     43     55     1   111.5100476 526.347200
     34     30     37     1   109.6600471 523.836800
     34     46     52     1   111.5100476 526.347200
     37     40     49     1   111.5100476 526.347200
     40     49     58     1   107.9700462 569.024000
     43     55    178     1   107.9700462 569.024000
     46     52    148     1   107.9700462 569.024000
     52    148    139     1   112.4800480 524.673600
     55    178    169     1   112.4800480 524.673600
     60     61     73     1   114.2100488 537.225600
     60     64     76     1   114.2100488 537.225600
     60     67     70     1   114.2100488 537.225600
     61     60     64     1   109.6600471 523.836800
     61     60     67     1   109.6600471 523.836800
     61     73     85     1   111.5100476 526.347200
     64     60     67     1   109.6600471 523.836800
     64     76     82     1   111.5100476 526.347200
     67     70     79     1   111.5100476 526.347200
     70     79     88     1   107.9700462 569.024000
     73     85    238     1   107.9700462 569.024000
     76     82    208     1   107.9700462 569.024000
     82    208    199     1   112.4800480 524.673600
     85    238    229     1   112.4800480 524.673600
     90     91    103     1   114.2100488 537.225600
     90     94    106     1   114.2100488 537.225600
     90     97    100     1   114.2100488 537.225600
     91     90     94     1   109.6600471 523.836800
     91     90     97     1   109.6600471 523.836800
     91    103    115     1   111.5100476 526.347200
     94     90     97     1   109.6600471 523.836800
     94    106    112     1   111.5100476 526.347200
     97    100    109     1   111.5100476 526.347200
    100    109    118     1   107.9700462 569.024000
    103    115    298     1   107.9700462 569.024000
    106    112    268     1   107.9700462 569.024000
    112    268    259     1   112.4800480 524.673600
    115    298    289     1   112.4800480 524.673600
    120    121    133     1   114.2100488 537.225600
    120    124    136     1   114.2100488 537.225600
    120    127    130     1   114.2100488 537.225600
    121    120    124     1   109.6600471 523.836800
    121    120    127     1   109.6600471 523.836800
    121    133    145     1   111.5100476 526.347200
    124    120    127     1   109.6600471 523.836800
    124    136    142     1   111.5100476 526.347200
    127    130    139     1   111.5100476 526.347200
    130    139    148     1   107.9700462 569.024000
    133    145    358     1   107.9700462 569.024000
    136    142    328     1   107.9700462 569.024000
    142    328    319     1   112.4800480 524.673600
    145    358    349     1   112.4800480 524.673600
    150    151    163     1   114.2100488 537.225600
    150    154    166     1   114.2100488 537.225600
    150    157    160     1   114.2100488 537.225600
    151    150    154     1   109.6600471 523.836800
    151    150    157     1   109.6600471 523.836800
    151    163    175     1   111.5100476 526.347200
    154    150    157     1   109.6600471 523.836800
    154    166    172     1   111.5100476 526.347200
    157    160    169     1   111.5100476 526.347200
    160    169    178     1   107.9700462 569.024000
    163    175    418     1   107.9700462 569.024000
    166    172    388     1   107.9700462 569.024000
    172    388    379     1   112.4800480 524.673600
    175    418    409     1   112.4800480 524.673600
    180    181    193     1   114.2100488 537.225600
    180    184    196     1   114.2100488 537.225600
    180    187    190     1   114.2100488 537.225600
    181    180    184     1   109.6600471 523.836800
    181    180    187     1   109.6600471 523.836800
    181    193    205     1   111.5100476 526.347200
    184    180    187     1   109.6600471 523.836800
    184    196    202     1   111.5100476 526.347200
    187    190    199     1   111.5100476 526.347200
    190    199    208     1   107.9700462 569.024000
    193    205    478     1   107.9700462 569.024000
    196    202    448     1   107.9700462 569.024000
    202    448    439     1   112.4800480 524.673600
    205    478    469     1   112.4800480 524.673600
    210    211    223     1   114.2100488 537.225600
    210    214    226     1   114.2100488 537.225600
    210    217    220     1   114.2100488 537.225600
    211    210    214     1   109.6600471 523.836800
    211    210    217     1   109.6600471 523.836800
    211    223    235     1   111.5100476 526.347200
    214    210    217     1   109.6600471 523.836800
    214    226    232     1   111.5100476 526.347200
    217    220    229     1   111.5100476 526.347200
    220    229    238     1   107.9700462 569.024000
    223    235    538     1   107.9700462 569.024000
    226    232    508     1   107.9700462 569.024000
    232    508    499     1   112.4800480 524.673600
    235    538    529     1   112.4800480 524.673600
    240    241    253     1   114.2100488 537.225600
    240    244    256     1   114.2100488 537.225600
    240    247    250     1   114.2100488 537.225600
    241    240    244     1   109.6600471 523.836800
    241    240    247     1   109.6600471 523.836800
    241    253    265     1   111.5100476 526.347200
    244    240    247     1   109.6600471 523.836800
    244    256    262     1   111.5100476 526.347200
    247    250    259     1   111.5100476 526.347200
    250    259    268     1   107.9700462 569.024000
    253    265    598     1   107.9700462 569.024000
    256    262    568     1   107.9700462 569.024000
    262    568    559     1   112.4800480 524.673600
    265    598    589     1   112.4800480 524.673600
    270    271    283     1   114.2100488 537.225600
    270    274    286     1   114.2100488 537.225600
    270    277    280     1   114.2100488 537.225600
    271    270    274     1   109.6600471 523.836800
    271    270    277     1   109.6600471 523.836800
    271    283    295     1   111.5100476 526.347200
    274    270    277     1   109.6600471 523.836800
    274    286    292     1   111.5100476 526.347200
    277    280    289     1   111.5100476 526.347200
    280    289    298     1   107.9700462 569.024000
    283    295    658     1   107.9700462 569.024000
    286    292    628     1   107.9700462 569.024000
    292    628    619     1   112.4800480 524.673600
    295    658    649     1   112.4800480 524.673600
    300    301    313     1   114.2100488 537.225600
    300    304    316     1   114.2100488 537.225600
    300    307    310     1   114.2100488 537.225600
    301    300    304     1   109.6600471 523.836800
    301    300    307     1   109.6600471 523.836800
    301    313    325     1   111.5100476 526.347200
    304    300    307     1   109.6600471 523.836800
    304    316    322     1   111.5100476 526.347200
    307    310    319     1   111.5100476 526.347200
    310    319    328     1   107.9700462 569.024000
    313    325    718     1   107.9700462 569.024000
    316    322    688     1   107.9700462 569.024000
    322    688    679     1   112.4800480 524.673600
    325    718    709     1   112.4800480 524.673600
    330    331    343     1   114.2100488 537.225600
    330    334    346     1   114.2100488 537.225600
    330    337    340     1   114.2100488 537.225600
    331    330    334     1   109.6600471 523.836800
    331    330    337     1   109.6600471 523.836800
    331    343    355     1   111.5100476 526.347200
    334    330    337     1   109.6600471 523.836800
    334    346    352     1   111.5100476 526.347200
    337    340    349     1   111.5100476 526.347200
    340    349    358     1   107.9700462 569.024000
    343    355    778     1   107.9700462 569.024000
    346    352    748     1   107.9700462 569.024000
    352    748    739     1   112.4800480 524.673600
    355    778    769     1   112.4800480 524.673600
    360    361    373     1   114.2100488 537.225600
    360    364    376     1   114.2100488 537.225600
    360    367    370     1   114.2100488 537.225600
    361    360    364     1   109.6600471 523.836800
    361    360    367     1   109.6600471 523.836800
    361    373    385     1   111.5100476 526.347200
    364    360    367     1   109.6600471 523.836800
    364    376    382     1   111.5100476 526.347200
    367    370    379     1   111.5100476 526.347200
    370    379    388     1   107.9700462 569.024000
    373    385    838     1   107.9700462 569.024000
    376    382    808     1   107.9700462 569.024000
    382    808    799     1   112.4800480 524.673600
    385    838    829     1   112.4800480 524.673600
    390    391    403     1   114.2100488 537.225600
    390    394    406     1   114.2100488 537.225600
    390    397    400     1   114.2100488 537.225600
    391    390    394     1   109.6600471 523.836800
    391    390    397     1   109.6600471 523.836800
    391    403    415     1   111.5100476 526.347200
    394    390    397     1   109.6600471 523.836800
    394    406    412     1   111.5100476 526.347200
    397    400    409     1   111.5100476 526.347200
    400    409    418     1   107.9700462 569.024000
    403    415    898     1   107.9700462 569.024000
    406    412    868     1   107.9700462 569.024000
    412    868    859     1   112.4800480 524.673600
    415    898    889     1   112.4800480 524.673600
    420    421    433     1   114.2100488 537.225600
    420    424    436     1   114.2100488 537.225600
    420    427    430     1   114.2100488 537.225600
    421    420    424     1   109.6600471 523.836800
    421    420    427     1   109.6600471 523.836800
    421    433    445     1   111.5100476 526.347200
    424    420    427     1   109.6600471 523.836800
    424    436    442     1   111.5100476 526.347200
    427    430    439     1   111.5100476 526.347200
    430    439    448     1   107.9700462 569.024000
    433    445    958     1   107.9700462 569.024000
    436    442    928     1   107.9700462 569.024000
    442    928    919     1   112.4800480 524.673600
    445    958    949     1   112.4800480 524.673600
    450    451    463     1   114.2100488 537.225600
    450    454    466     1   114.2100488 537.225600
    450    457    460     1   114.2100488 537.225600
    451    450    454     1   109.6600471 523.836800
    451    450    457     1   109.6600471 523.836800
    451    463    475     1   111.5100476 526.347200
    454    450    457     1   109.6600471 523.836800
    454    466    472     1   111.5100476 526.347200
    457    460    469     1   111.5100476 526.347200
    460    469    478     1   107.9700462 569.024000
    463    475   1018     1   107.9700462 569.024000
    466    472    988     1   107.9700462 569.024000
    472    988    979     1   112.4800480 524.673600
    475   1018   1009     1   112.4800480 524.673600
    480    481    493     1   114.2100488 537.225600
    480    484    496     1   114.2100488 537.225600
    480    487    490     1   114.2100488 537.225600
    481    480    484     1   109.6600471 523.836800
    481    480    487     1   109.6600471 523.836800
    481    493    505     1   111.5100476 526.347200
    484    480    487     1   109.6600471 523.836800
    484    496    502     1   111.5100476 526.347200
    487    490    499     1   111.5100476 526.347200
    490    499    508     1   107.9700462 569.024000
    493    505   1078     1   107.9700462 569.024000
    496    502   1048     1   107.9700462 569.024000
    502   1048   1039     1   112.4800480 524.673600
    505   1078   1069     1   112.4800480 524.673600
    510    511    523     1   114.2100488 537.225600
    510    514    526     1   114.2100488 537.225600
    510    517    520     1   114.2100488 537.225600
    511    510    514     1   109.6600471 523.836800
    511    510    517     1   109.6600471 523.836800
    511    523    535     1   111.5100476 526.347200
    514    510    517     1   109.6600471 523.836800
    514    526    532     1   111.5100476 526.347200
    517    520    529     1   111.5100476 526.347200
    520    529    538     1   107.9700462 569.024000
    523    535   1138     1   107.9700462 569.024000
    526    532   1108     1   107.9700462 569.024000
    532   1108   1099     1   112.4800480 524.673600
    535   1138   1129     1   112.4800480 524.673600
    540    541    553     1   114.2100488 537.225600
    540    544    556     1   114.2100488 537.225600
    540    547    550     1   114.2100488 537.225600
    541    540    544     1   109.6600471 523.836800
    541    540    547     1   109.6600471 523.836800
    541    553    565     1   111.5100476 526.347200
    544    540    547     1   109.6600471 523.836800
    544    556    562     1   111.5100476 526.347200
    547    550    559     1   111.5100476 526.347200
    550    559    568     1   107.9700462 569.024000
    553    565   1198     1   107.9700462 569.024000
    556    562   1168     1   107.9700462 569.024000
    562   1168   1159     1   112.4800480 524.673600
    565   1198   1189     1   112.4800480 524.673600
    570    571    583     1   114.2100488 537.225600
    570    574    586     1   114.2100488 537.225600
    570    577    580     1   114.2100488 537.225600
    571    570    574     1   109.6600471 523.836800
    571    570    577     1   109.6600471 523.836800
    571    583    595     1   111.5100476 526.347200
    574    570    577     1   109.6600471 523.836800
    574    586    592     1   111.5100476 526.347200
    577    580    589     1   111.5100476 526.347200
    580    589    598     1   107.9700462 569.024000
    583    595   1258     1   107.9700462 569.024000
    586    592   1228     1   107.9700462 569.024000
    592   1228   1219     1   112.4800480 524.673600
    595   1258   1249     1   112.4800480 524.673600
    600    601    613     1   114.2100488 537.225600
    600    604    616     1   114.2100488 537.225600
    600    607    610     1   114.2100488 537.225600
    601    600    604     1   109.6600471 523.836800
    601    600    607     1   109.6600471 523.836800
    601    613    625     1   111.5100476 526.347200
    604    600    607     1   109.6600471 523.836800
    604    616    622     1   111.5100476 526.347200
    607    610    619     1   111.5100476 526.347200
    610    619    628     1   107.9700462 569.024000
    613    625   1318     1   107.9700462 569.024000
    616    622   1288     1   107.9700462 569.024000
    622   1288   1279     1   112.4800480 524.673600
    625   1318   1309     1   112.4800480 524.673600
    630    631    643     1   114.2100488 537.225600
    630    634    646     1   114.2100488 537.225600
    630    637    640     1   114.2100488 537.225600
    631    630    634     1   109.6600471 523.836800
    631    630    637     1   109.6600471 523.836800
    631    643    655     1   111.5100476 526.347200
    634    630    637     1   109.6600471 523.836800
    634    646    652     1   111.5100476 526.347200
    637    640    649     1   111.5100476 526.347200
    640    649    658     1   107.9700462 569.024000
    643    655   1378     1   107.9700462 569.024000
    646    652   1348     1   107.9700462 569.024000
    652   1348   1339     1   112.4800480 524.673600
    655   1378   1369     1   112.4800480 524.673600
    660    661    673     1   114.2100488 537.225600
    660    664    676     1   114.2100488 537.225600
    660    667    670     1   114.2100488 537.225600
    661    660    664     1   109.6600471 523.836800
    661    660    667     1   109.6600471 523.836800
    661    673    685     1   111.5100476 526.347200
    664    660    667     1   109.6600471 523.836800
    664    676    682     1   111.5100476 526.347200
    667    670    679     1   111.5100476 526.347200
    670    679    688     1   107.9700462 569.024000
    673    685   1438     1   107.9700462 569.024000
    676    682   1408     1   107.9700462 569.024000
    682   1408   1399     1   112.4800480 524.673600
    685   1438   1429     1   112.4800480 524.673600
    690    691    703     1   114.2100488 537.225600
    690    694    706     1   114.2100488 537.225600
    690    697    700     1   114.2100488 537.225600
    691    690    694     1   109.6600471 523.836800
    691    690    697     1   109.6600471 523.836800
    691    703    715     1   111.5100476 526.347200
    694    690    697     1   109.6600471 523.836800
    694    706    712     1   111.5100476 526.347200
    697    700    709     1   111.5100476 526.347200
    700    709    718     1   107.9700462 569.024000
    703    715   1498     1   107.9700462 569.024000
    706    712   1468     1   107.9700462 569.024000
    712   1468   1459     1   112.4800480 524.673600
    715   1498   1489     1   112.4800480 524.673600
    720    721    733     1   114.2100488 537.225600
    720    724    736     1   114.2100488 537.225600
    720    727    730     1   114.2100488 537.225600
    721    720    724     1   109.6600471 523.836800
    721    720    727     1   109.6600471 523.836800
    721    733    745     1   111.5100476 526.347200
    724    720    727     1   109.6600471 523.836800
    724    736    742     1   111.5100476 526.347200
    727    730    739     1   111.5100476 526.347200
    730    739    748     1   107.9700462 569.024000
    733    745   1558     1   107.9700462 569.024000
    736    742   1528     1   107.9700462 569.024000
    742   1528   1519     1   112.4800480 524.673600
    745   1558   1549     1   112.4800480 524.673600
    750    751    763     1   114.2100488 537.225600
    750    754    766     1   114.2100488 537.225600
    750    757    760     1   114.2100488 537.225600
    751    750    754     1   109.6600471 523.836800
    751    750    757     1   109.6600471 523.836800
    751    763    775     1   111.5100476 526.347200
    754    750    757     1   109.6600471 523.836800
    754    766    772     1   111.5100476 526.347200
    757    760    769     1   111.5100476 526.347200
    760    769    778     1   107.9700462 569.024000
    763    775   1618     1   107.9700462 569.024000
    766    772   1588     1   107.9700462 569.024000
    772   1588   1579     1   112.4800480 524.673600
    775   1618   1609     1   112.4800480 524.673600
    780    781    793     1   114.2100488 537.225600
    780    784    796     1   114.2100488 537.225600
    780    787    790     1   114.2100488 537.225600
    781    780    784     1   109.6600471 523.836800
    781    780    787     1   109.6600471 523.836800
    781    793    805     1   111.5100476 526.347200
    784    780    787     1   109.6600471 523.836800
    784    796    802     1   111.5100476 526.347200
    787    790    799     1   111.5100476 526.347200
    790    799    808     1   107.9700462 569.024000
    793    805   1678     1   107.9700462 569.024000
    796    802   1648     1   107.9700462 569.024000
    802   1648   1639     1   112.4800480 524.673600
    805   1678   1669     1   112.4800480 524.673600
    810    811    823     1   114.2100488 537.225600
    810    814    826     1   114.2100488 537.225600
    810    817    820     1   114.2100488 537.225600
    811    810    814     1   109.6600471 523.836800
    811    810    817     1   109.6600471 523.836800
    811    823    835     1   111.5100476 526.347200
    814    810    817     1   109.6600471 523.836800
    814    826    832     1   111.5100476 526.347200
    817    820    829     1   111.5100476 526.347200
    820    829    838     1   107.9700462 569.024000
    823    835   1738     1   107.9700462 569.024000
    826    832   1708     1   107.9700462 569.024000
    832   1708   1699     1   112.4800480 524.673600
    835   1738   1729     1   112.4800480 524.673600
    840    841    853     1   114.2100488 537.225600
    840    844    856     1   114.2100488 537.225600
    840    847    850     1   114.2100488 537.225600
    841    840    844     1   109.6600471 523.836800
    841    840    847     1   109.6600471 523.836800
    841    853    865     1   111.5100476 526.347200
    844    840    847     1   109.6600471 523.836800
    844    856    862     1   111.5100476 526.347200
    847    850    859     1   111.5100476 526.347200
    850    859    868     1   107.9700462 569.024000
    853    865   1798     1   107.9700462 569.024000
    856    862   1768     1   107.9700462 569.024000
    862   1768   1759     1   112.4800480 524.673600
    865   1798   1789     1   112.4800480 524.673600
    870    871    883     1   114.2100488 537.225600
    870    874    886     1   114.2100488 537.225600
    870    877    880     1   114.2100488 537.225600
    871    870    874     1   109.6600471 523.836800
    871    870    877     1   109.6600471 523.836800
    871    883    895     1   111.5100476 526.347200
    874    870    877     1   109.6600471 523.836800
    874    886    892     1   111.5100476 526.347200
    877    880    889     1   111.5100476 526.347200
    880    889    898     1   107.9700462 569.024000
    883    895   1858     1   107.9700462 569.024000
    886    892   1828     1   107.9700462 569.024000
    892   1828   1819     1   112.4800480 524.673600
    895   1858   1849     1   112.4800480 524.673600
    900    901    913     1   114.2100488 537.225600
    900    904    916     1   114.2100488 537.225600
    900    907    910     1   114.2100488 537.225600
    901    900    904     1   109.6600471 523.836800
    901    900    907     1   109.6600471 523.836800
    901    913    925     1   111.5100476 526.347200
    904    900    907     1   109.6600471 523.836800
    904    916    922     1   111.5100476 526.347200
    907    910    919     1   111.5100476 526.347200
    910    919    928     1   107.9700462 569.024000
    913    925   1918     1   107.9700462 569.024000
    916    922   1888     1   107.9700462 569.024000
    922   1888   1879     1   112.4800480 524.673600
    925   1918   1909     1   112.4800480 524.673600
    930    931    943     1   114.2100488 537.225600
    930    934    946     1   114.2100488 537.225600
    930    937    940     1   114.2100488 537.225600
    931    930    934     1   109.6600471 523.836800
    931    930    937     1   109.6600471 523.836800
    931    943    955     1   111.5100476 526.347200
    934    930    937     1   109.6600471 523.836800
    934    946    952     1   111.5100476 526.347200
    937    940    949     1   111.5100476 526.347200
    940    949    958     1   107.9700462 569.024000
    943    955   1978     1   107.9700462 569.024000
    946    952   1948     1   107.9700462 569.024000
    952   1948   1939     1   112.4800480 524.673600
    955   1978   1969     1   112.4800480 524.673600
    960    961    973     1   114.2100488 537.225600
    960    964    976     1   114.2100488 537.225600
    960    967    970     1   114.2100488 537.225600
    961    960    964     1   109.6600471 523.836800
    961    960    967     1   109.6600471 523.836800
    961    973    985     1   111.5100476 526.347200
    964    960    967     1   109.6600471 523.836800
    964    976    982     1   111.5100476 526.347200
    967    970    979     1   111.5100476 526.347200
    970    979    988     1   107.9700462 569.024000
    973    985   2038     1   107.9700462 569.024000
    976    982   2008     1   107.9700462 569.024000
    982   2008   1999     1   112.4800480 524.673600
    985   2038   2029     1   112.4800480 524.673600
    990    991   1003     1   114.2100488 537.225600
    990    994   1006     1   114.2100488 537.225600
    990    997   1000     1   114.2100488 537.225600
    991    990    994     1   109.6600471 523.836800
    991    990    997     1   109.6600471 523.836800
    991   1003   1015     1   111.5100476 526.347200
    994    990    997     1   109.6600471 523.836800
    994   1006   1012     1   111.5100476 526.347200
    997   1000   1009     1   111.5100476 526.347200
   1000   1009   1018     1   107.9700462 569.024000
   1003   1015   2098     1   107.9700462 569.024000
   1006   1012   2068     1   107.9700462 569.024000
   1012   2068   2059     1   112.4800480 524.673600
   1015   2098   2089     1   112.4800480 524.673600
   1020   1021   1033     1   114.2100488 537.225600
   1020   1024   1036     1   114.2100488 537.225600
   1020   1027   1030     1   114.2100488 537.225600
   1021   1020   1024     1   109.6600471 523.836800
   1021   1020   1027     1   109.6600471 523.836800
   1021   1033   1045     1   111.5100476 526.347200
   1024   1020   1027     1   109.6600471 523.836800
   1024   1036   1042     1   111.5100476 526.347200
   1027   1030   1039     1   111.5100476 526.347200
   1030   1039   1048     1   107.9700462 569.024000
   1033   1045   2158     1   107.9700462 569.024000
   1036   1042   2128     1   107.9700462 569.024000
   1042   2128   2119     1   112.4800480 524.673600
   1045   2158   2149     1   112.4800480 524.673600
   1050   1051   1063     1   114.2100488 537.225600
   1050   1054   1066     1   114.2100488 537.225600
   1050   1057   1060     1   114.2100488 537.225600
   1051   1050   1054     1   109.6600471 523.836800
   1051   1050   1057     1   109.6600471 523.836800
   1051   1063   1075     1   111.5100476 526.347200
   1054   1050   1057     1   109.6600471 523.836800
   1054   1066   1072     1   111.5100476 526.347200
   1057   1060   1069     1   111.5100476 526.347200
   1060   1069   1078     1   107.9700462 569.024000
   1063   1075   2218     1   107.9700462 569.024000
   1066   1072   2188     1   107.9700462 569.024000
   1072   2188   2179     1   112.4800480 524.673600
   1075   2218   2209     1   112.4800480 524.673600
   1080   1081   1093     1   114.2100488 537.225600
   1080   1084   1096     1   114.2100488 537.225600
   1080   1087   1090     1   114.2100488 537.225600
   1081   1080   1084     1   109.6600471 523.836800
   1081   1080   1087     1   109.6600471 523.836800
   1081   1093   1105     1   111.5100476 526.347200
   1084   1080   1087     1   109.6600471 523.836800
   1084   1096   1102     1   111.5100476 526.347200
   1087   1090   1099     1   111.5100476 526.347200
   1090   1099   1108     1   107.9700462 569.024000
   1093   1105   2278     1   107.9700462 569.024000
   1096   1102   2248     1   107.9700462 569.024000
   1102   2248   2239     1   112.4800480 524.673600
   1105   2278   2269     1   112.4800480 524.673600
   1110   1111   1123     1   114.2100488 537.225600
   1110   1114   1126     1   114.2100488 537.225600
   1110   1117   1120     1   114.2100488 537.225600
   1111   1110   1114     1   109.6600471 523.836800
   1111   1110   1117     1   109.6600471 523.836800
   1111   1123   1135     1   111.5100476 526.347200
   1114   1110   1117     1   109.6600471 523.836800
   1114   1126   1132     1   111.5100476 526.347200
   1117   1120   1129     1   111.5100476 526.347200
   1120   1129   1138     1   107.9700462 569.024000
   1123   1135   2338     1   107.9700462 569.024000
   1126   1132   2308     1   107.9700462 569.024000
   1132   2308   2299     1   112.4800480 524.673600
   1135   2338   2329     1   112.4800480 524.673600
   1140   1141   1153     1   114.2100488 537.225600
   1140   1144   1156     1   114.2100488 537.225600
   1140   1147   1150     1   114.2100488 537.225600
   1141   1140   1144     1   109.6600471 523.836800
   1141   1140   1147     1   109.6600471 523.836800
   1141   1153   1165     1   111.5100476 526.347200
   1144   1140   1147     1   109.6600471 523.836800
   1144   1156   1162     1   111.5100476 526.347200
   1147   1150   1159     1   111.5100476 526.347200
   1150   1159   1168     1   107.9700462 569.024000
   1153   1165   2398     1   107.9700462 569.024000
   1156   1162   2368     1   107.9700462 569.024000
   1162   2368   2359     1   112.4800480 524.673600
   1165   2398   2389     1   112.4800480 524.673600
   1170   1171   1183     1   114.2100488 537.225600
   1170   1174   1186     1   114.2100488 537.225600
   1170   1177   1180     1   114.2100488 537.225600
   1171   1170   1174     1   109.6600471 523.836800
   1171   1170   1177     1   109.6600471 523.836800
   1171   1183   1195     1   111.5100476 526.347200
   1174   1170   1177     1   109.6600471 523.836800
   1174   1186   1192     1   111.5100476 526.347200
   1177   1180   1189     1   111.5100476 526.347200
   1180   1189   1198     1   107.9700462 569.024000
   1183   1195   2458     1   107.9700462 569.024000
   1186   1192   2428     1   107.9700462 569.024000
   1192   2428   2419     1   112.4800480 524.673600
   1195   2458   2449     1   112.4800480 524.673600
   1200   1201   1213     1   114.2100488 537.225600
   1200   1204   1216     1   114.2100488 537.225600
   1200   1207   1210     1   114.2100488 537.225600
   1201   1200   1204     1   109.6600471 523.836800
   1201   1200   1207     1   109.6600471 523.836800
   1201   1213   1225     1   111.5100476 526.347200
   1204   1200   1207     1   109.6600471 523.836800
   1204   1216   1222     1   111.5100476 526.347200
   1207   1210   1219     1   111.5100476 526.347200
   1210   1219   1228     1   107.9700462 569.024000
   1213   1225   2518     1   107.9700462 569.024000
   1216   1222   2488     1   107.9700462 569.024000
   1222   2488   2479     1   112.4800480 524.673600
   1225   2518   2509     1   112.4800480 524.673600
   1230   1231   1243     1   114.2100488 537.225600
   1230   1234   1246     1   114.2100488 537.225600
   1230   1237   1240     1   114.2100488 537.225600
   1231   1230   1234     1   109.6600471 523.836800
   1231   1230   1237     1   109.6600471 523.836800
   1231   1243   1255     1   111.5100476 526.347200
   1234   1230   1237     1   109.6600471 523.836800
   1234   1246   1252     1   111.5100476 526.347200
   1237   1240   1249     1   111.5100476 526.347200
   1240   1249   1258     1   107.9700462 569.024000
   1243   1255   2578     1   107.9700462 569.024000
   1246   1252   2548     1   107.9700462 569.024000
   1252   2548   2539     1   112.4800480 524.673600
   1255   2578   2569     1   112.4800480 524.673600
   1260   1261   1273     1   114.2100488 537.225600
   1260   1264   1276     1   114.2100488 537.225600
   1260   1267   1270     1   114.2100488 537.225600
   1261   1260   1264     1   109.6600471 523.836800
   1261   1260   1267     1   109.6600471 523.836800
   1261   1273   1285     1   111.5100476 526.347200
   1264   1260   1267     1   109.6600471 523.836800
   1264   1276   1282     1   111.5100476 526.347200
   1267   1270   1279     1   111.5100476 526.347200
   1270   1279   1288     1   107.9700462 569.024000
   1273   1285   2638     1   107.9700462 569.024000
   1276   1282   2608     1   107.9700462 569.024000
   1282   2608   2599     1   112.4800480 524.673600
   1285   2638   2629     1   112.4800480 524.673600
   1290   1291   1303     1   114.2100488 537.225600
   1290   1294   1306     1   114.2100488 537.225600
   1290   1297   1300     1   114.2100488 537.225600
   1291   1290   1294     1   109.6600471 523.836800
   1291   1290   1297     1   109.6600471 523.836800
   1291   1303   1315     1   111.5100476 526.347200
   1294   1290   1297     1   109.6600471 523.836800
   1294   1306   1312     1   111.5100476 526.347200
   1297   1300   1309     1   111.5100476 526.347200
   1300   1309   1318     1   107.9700462 569.024000
   1303   1315   2698     1   107.9700462 569.024000
   1306   1312   2668     1   107.9700462 569.024000
   1312   2668   2659     1   112.4800480 524.673600
   1315   2698   2689     1   112.4800480 524.673600
   1320   1321   1333     1   114.2100488 537.225600
   1320   1324   1336     1   114.2100488 537.225600
   1320   1327   1330     1   114.2100488 537.225600
   1321   1320   1324     1   109.6600471 523.836800
   1321   1320   1327     1   109.6600471 523.836800
   1321   1333   1345     1   111.5100476 526.347200
   1324   1320   1327     1   109.6600471 523.836800
   1324   1336   1342     1   111.5100476 526.347200
   1327   1330   1339     1   111.5100476 526.347200
   1330   1339   1348     1   107.9700462 569.024000
   1333   1345   2758     1   107.9700462 569.024000
   1336   1342   2728     1   107.9700462 569.024000
   1342   2728   2719     1   112.4800480 524.673600
   1345   2758   2749     1   112.4800480 524.673600
   1350   1351   1363     1   114.2100488 537.225600
   1350   1354   1366     1   114.2100488 537.225600
   1350   1357   1360     1   114.2100488 537.225600
   1351   1350   1354     1   109.6600471 523.836800
   1351   1350   1357     1   109.6600471 523.836800
   1351   1363   1375     1   111.5100476 526.347200
   1354   1350   1357     1   109.6600471 523.836800
   1354   1366   1372     1   111.5100476 526.347200
   1357   1360   1369     1   111.5100476 526.347200
   1360   1369   1378     1   107.9700462 569.024000
   1363   1375   2818     1   107.9700462 569.024000
   1366   1372   2788     1   107.9700462 569.024000
   1372   2788   2779     1   112.4800480 524.673600
   1375   2818   2809     1   112.4800480 524.673600
   1380   1381   1393     1   114.2100488 537.225600
   1380   1384   1396     1   114.2100488 537.225600
   1380   1387   1390     1   114.2100488 537.225600
   1381   1380   1384     1   109.6600471 523.836800
   1381   1380   1387     1   109.6600471 523.836800
   1381   1393   1405     1   111.5100476 526.347200
   1384   1380   1387     1   109.6600471 523.836800
   1384   1396   1402     1   111.5100476 526.347200
   1387   1390   1399     1   111.5100476 526.347200
   1390   1399   1408     1   107.9700462 569.024000
   1393   1405   2853     1   107.9700462 569.024000
   1396   1402   2830     1   107.9700462 569.024000
   1402   2830   2826     1   112.4800480 524.673600
   1405   2853   2849     1   112.4800480 524.673600
   1410   1411   1423     1   114.2100488 537.225600
   1410   1414   1426     1   114.2100488 537.225600
   1410   1417   1420     1   114.2100488 537.225600
   1411   1410   1414     1   109.6600471 523.836800
   1411   1410   1417     1   109.6600471 523.836800
   1411   1423   1435     1   111.5100476 526.347200
   1414   1410   1417     1   109.6600471 523.836800
   1414   1426   1432     1   111.5100476 526.347200
   1417   1420   1429     1   111.5100476 526.347200
   1420   1429   1438     1   107.9700462 569.024000
   1423   1435   2899     1   107.9700462 569.024000
   1426   1432   2876     1   107.9700462 569.024000
   1432   2876   2872     1   112.4800480 524.673600
   1435   2899   2895     1   112.4800480 524.673600
   1440   1441   1453     1   114.2100488 537.225600
   1440   1444   1456     1   114.2100488 537.225600
   1440   1447   1450     1   114.2100488 537.225600
   1441   1440   1444     1   109.6600471 523.836800
   1441   1440   1447     1   109.6600471 523.836800
   1441   1453   1465     1   111.5100476 526.347200
   1444   1440   1447     1   109.6600471 523.836800
   1444   1456   1462     1   111.5100476 526.347200
   1447   1450   1459     1   111.5100476 526.347200
   1450   1459   1468     1   107.9700462 569.024000
   1453   1465   2945     1   107.9700462 569.024000
   1456   1462   2922     1   107.9700462 569.024000
   1462   2922   2918     1   112.4800480 524.673600
   1465   2945   2941     1   112.4800480 524.673600
   1470   1471   1483     1   114.2100488 537.225600
   1470   1474   1486     1   114.2100488 537.225600
   1470   1477   1480     1   114.2100488 537.225600
   1471   1470   1474     1   109.6600471 523.836800
   1471   1470   1477     1   109.6600471 523.836800
   1471   1483   1495     1   111.5100476 526.347200
   1474   1470   1477     1   109.6600471 523.836800
   1474   1486   1492     1   111.5100476 526.347200
   1477   1480   1489     1   111.5100476 526.347200
   1480   1489   1498     1   107.9700462 569.024000
   1483   1495   2991     1   107.9700462 569.024000
   1486   1492   2968     1   107.9700462 569.024000
   1492   2968   2964     1   112.4800480 524.673600
   1495   2991   2987     1   112.4800480 524.673600
   1500   1501   1513     1   114.2100488 537.225600
   1500   1504   1516     1   114.2100488 537.225600
   1500   1507   1510     1   114.2100488 537.225600
   1501   1500   1504     1   109.6600471 523.836800
   1501   1500   1507     1   109.6600471 523.836800
   1501   1513   1525     1   111.5100476 526.347200
   1504   1500   1507     1   109.6600471 523.836800
   1504   1516   1522     1   111.5100476 526.347200
   1507   1510   1519     1   111.5100476 526.347200
   1510   1519   1528     1   107.9700462 569.024000
   1513   1525   3037     1   107.9700462 569.024000
   1516   1522   3014     1   107.9700462 569.024000
   1522   3014   3010     1   112.4800480 524.673600
   1525   3037   3033     1   112.4800480 524.673600
   1530   1531   1543     1   114.2100488 537.225600
   1530   1534   1546     1   114.2100488 537.225600
   1530   1537   1540     1   114.2100488 537.225600
   1531   1530   1534     1   109.6600471 523.836800
   1531   1530   1537     1   109.6600471 523.836800
   1531   1543   1555     1   111.5100476 526.347200
   1534   1530   1537     1   109.6600471 523.836800
   1534   1546   1552     1   111.5100476 526.347200
   1537   1540   1549     1   111.5100476 526.347200
   1540   1549   1558     1   107.9700462 569.024000
   1543   1555   3083     1   107.9700462 569.024000
   1546   1552   3060     1   107.9700462 569.024000
   1552   3060   3056     1   112.4800480 524.673600
   1555   3083   3079     1   112.4800480 524.673600
   1560   1561   1573     1   114.2100488 537.225600
   1560   1564   1576     1   114.2100488 537.225600
   1560   1567   1570     1   114.2100488 537.225600
   1561   1560   1564     1   109.6600471 523.836800
   1561   1560   1567     1   109.6600471 523.836800
   1561   1573   1585     1   111.5100476 526.347200
   1564   1560   1567     1   109.6600471 523.836800
   1564   1576   1582     1   111.5100476 526.347200
   1567   1570   1579     1   111.5100476 526.347200
   1570   1579   1588     1   107.9700462 569.024000
   1573   1585   3129     1   107.9700462 569.024000
   1576   1582   3106     1   107.9700462 569.024000
   1582   3106   3102     1   112.4800480 524.673600
   1585   3129   3125     1   112.4800480 524.673600
   1590   1591   1603     1   114.2100488 537.225600
   1590   1594   1606     1   114.2100488 537.225600
   1590   1597   1600     1   114.2100488 537.225600
   1591   1590   1594     1   109.6600471 523.836800
   1591   1590   1597     1   109.6600471 523.836800
   1591   1603   1615     1   111.5100476 526.347200
   1594   1590   1597     1   109.6600471 523.836800
   1594   1606   1612     1   111.5100476 526.347200
   1597   1600   1609     1   111.5100476 526.347200
   1600   1609   1618     1   107.9700462 569.024000
   1603   1615   3175     1   107.9700462 569.024000
   1606   1612   3152     1   107.9700462 569.024000
   1612   3152   3148     1   112.4800480 524.673600
   1615   3175   3171     1   112.4800480 524.673600
   1620   1621   1633     1   114.2100488 537.225600
   1620   1624   1636     1   114.2100488 537.225600
   1620   1627   1630     1   114.2100488 537.225600
   1621   1620   1624     1   109.6600471 523.836800
   1621   1620   1627     1   109.6600471 523.836800
   1621   1633   1645     1   111.5100476 526.347200
   1624   1620   1627     1   109.6600471 523.836800
   1624   1636   1642     1   111.5100476 526.347200
   1627   1630   1639     1   111.5100476 526.347200
   1630   1639   1648     1   107.9700462 569.024000
   1633   1645   3221     1   107.9700462 569.024000
   1636   1642   3198     1   107.9700462 569.024000
   1642   3198   3194     1   112.4800480 524.673600
   1645   3221   3217     1   112.4800480 524.673600
   1650   1651   1663     1   114.2100488 537.225600
   1650   1654   1666     1   114.2100488 537.225600
   1650   1657   1660     1   114.2100488 537.225600
   1651   1650   1654     1   109.6600471 523.836800
   1651   1650   1657     1   109.6600471 523.836800
   1651   1663   1675     1   111.5100476 526.347200
   1654   1650   1657     1   109.6600471 523.836800
   1654   1666   1672     1   111.5100476 526.347200
   1657   1660   1669     1   111.5100476 526.347200
   1660   1669   1678     1   107.9700462 569.024000
   1663   1675   3267     1   107.9700462 569.024000
   1666   1672   3244     1   107.9700462 569.024000
   1672   3244   3240     1   112.4800480 524.673600
   1675   3267   3263     1   112.4800480 524.673600
   1680   1681   1693     1   114.2100488 537.225600
   1680   1684   1696     1   114.2100488 537.225600
   1680   1687   1690     1   114.2100488 537.225600
   1681   1680   1684     1   109.6600471 523.836800
   1681   1680   1687     1   109.6600471 523.836800
   1681   1693   1705     1   111.5100476 526.347200
   1684   1680   1687     1   109.6600471 523.836800
   1684   1696   1702     1   111.5100476 526.347200
   1687   1690   1699     1   111.5100476 526.347200
   1690   1699   1708     1   107.9700462 569.024000
   1693   1705   3313     1   107.9700462 569.024000
   1696   1702   3290     1   107.9700462 569.024000
   1702   3290   3286     1   112.4800480 524.673600
   1705   3313   3309     1   112.4800480 524.673600
   1710   1711   1723     1   114.2100488 537.225600
   1710   1714   1726     1   114.2100488 537.225600
   1710   1717   1720     1   114.2100488 537.225600
   1711   1710   1714     1   109.6600471 523.836800
   1711   1710   1717     1   109.6600471 523.836800
   1711   1723   1735     1   111.5100476 526.347200
   1714   1710   1717     1   109.6600471 523.836800
   1714   1726   1732     1   111.5100476 526.347200
   1717   1720   1729     1   111.5100476 526.347200
   1720   1729   1738     1   107.9700462 569.024000
   1723   1735   3359     1   107.9700462 569.024000
   1726   1732   3336     1   107.9700462 569.024000
   1732   3336   3332     1   112.4800480 524.673600
   1735   3359   3355     1   112.4800480 524.673600
   1740   1741   1753     1   114.2100488 537.225600
   1740   1744   1756     1   114.2100488 537.225600
   1740   1747   1750     1   114.2100488 537.225600
   1741   1740   1744     1   109.6600471 523.836800
   1741   1740   1747     1   109.6600471 523.836800
   1741   1753   1765     1   111.5100476 526.347200
   1744   1740   1747     1   109.6600471 523.836800
   1744   1756   1762     1   111.5100476 526.347200
   1747   1750   1759     1   111.5100476 526.347200
   1750   1759   1768     1   107.9700462 569.024000
   1753   1765   3405     1   107.9700462 569.024000
   1756   1762   3382     1   107.9700462 569.024000
   1762   3382   3378     1   112.4800480 524.673600
   1765   3405   3401     1   112.4800480 524.673600
   1770   1771   1783     1   114.2100488 537.225600
   1770   1774   1786     1   114.2100488 537.225600
   1770   1777   1780     1   114.2100488 537.225600
   1771   1770   1774     1   109.6600471 523.836800
   1771   1770   1777     1   109.6600471 523.836800
   1771   1783   1795     1   111.5100476 526.347200
   1774   1770   1777     1   109.6600471 523.836800
   1774   1786   1792     1   111.5100476 526.347200
   1777   1780   1789     1   111.5100476 526.347200
   1780   1789   1798     1   107.9700462 569.024000
   1783   1795   3451     1   107.9700462 569.024000
   1786   1792   3428     1   107.9700462 569.024000
   1792   3428   3424     1   112.4800480 524.673600
   1795   3451   3447     1   112.4800480 524.673600
   1800   1801   1813     1   114.2100488 537.225600
   1800   1804   1816     1   114.2100488 537.225600
   1800   1807   1810     1   114.2100488 537.225600
   1801   1800   1804     1   109.6600471 523.836800
   1801   1800   1807     1   109.6600471 523.836800
   1801   1813   1825     1   111.5100476 526.347200
   1804   1800   1807     1   109.6600471 523.836800
   1804   1816   1822     1   111.5100476 526.347200
   1807   1810   1819     1   111.5100476 526.347200
   1810   1819   1828     1   107.9700462 569.024000
   1813   1825   3497     1   107.9700462 569.024000
   1816   1822   3474     1   107.9700462 569.024000
   1822   3474   3470     1   112.4800480 524.673600
   1825   3497   3493     1   112.4800480 524.673600
   1830   1831   1843     1   114.2100488 537.225600
   1830   1834   1846     1   114.2100488 537.225600
   1830   1837   1840     1   114.2100488 537.225600
   1831   1830   1834     1   109.6600471 523.836800
   1831   1830   1837     1   109.6600471 523.836800
   1831   1843   1855     1   111.5100476 526.347200
   1834   1830   1837     1   109.6600471 523.836800
   1834   1846   1852     1   111.5100476 526.347200
   1837   1840   1849     1   111.5100476 526.347200
   1840   1849   1858     1   107.9700462 569.024000
   1843   1855   3543     1   107.9700462 569.024000
   1846   1852   3520     1   107.9700462 569.024000
   1852   3520   3516     1   112.4800480 524.673600
   1855   3543   3539     1   112.4800480 524.673600
   1860   1861   1873     1   114.2100488 537.225600
   1860   1864   1876     1   114.2100488 537.225600
   1860   1867   1870     1   114.2100488 537.225600
   1861   1860   1864     1   109.6600471 523.836800
   1861   1860   1867     1   109.6600471 523.836800
   1861   1873   1885     1   111.5100476 526.347200
   1864   1860   1867     1   109.6600471 523.836800
   1864   1876   1882     1   111.5100476 526.347200
   1867   1870   1879     1   111.5100476 526.347200
   1870   1879   1888     1   107.9700462 569.024000
   1873   1885   3589     1   107.9700462 569.024000
   1876   1882   3566     1   107.9700462 569.024000
   1882   3566   3562     1   112.4800480 524.673600
   1885   3589   3585     1   112.4800480 524.673600
   1890   1891   1903     1   114.2100488 537.225600
   1890   1894   1906     1   114.2100488 537.225600
   1890   1897   1900     1   114.2100488 537.225600
   1891   1890   1894     1   109.6600471 523.836800
   1891   1890   1897     1   109.6600471 523.836800
   1891   1903   1915     1   111.5100476 526.347200
   1894   1890   1897     1   109.6600471 523.836800
   1894   1906   1912     1   111.5100476 526.347200
   1897   1900   1909     1   111.5100476 526.347200
   1900   1909   1918     1   107.9700462 569.024000
   1903   1915   3635     1   107.9700462 569.024000
   1906   1912   3612     1   107.9700462 569.024000
   1912   3612   3608     1   112.4800480 524.673600
   1915   3635   3631     1   112.4800480 524.673600
   1920   1921   1933     1   114.2100488 537.225600
   1920   1924   1936     1   114.2100488 537.225600
   1920   1927   1930     1   114.2100488 537.225600
   1921   1920   1924     1   109.6600471 523.836800
   1921   1920   1927     1   109.6600471 523.836800
   1921   1933   1945     1   111.5100476 526.347200
   1924   1920   1927     1   109.6600471 523.836800
   1924   1936   1942     1   111.5100476 526.347200
   1927   1930   1939     1   111.5100476 526.347200
   1930   1939   1948     1   107.9700462 569.024000
   1933   1945   3681     1   107.9700462 569.024000
   1936   1942   3658     1   107.9700462 569.024000
   1942   3658   3654     1   112.4800480 524.673600
   1945   3681   3677     1   112.4800480 524.673600
   1950   1951   1963     1   114.2100488 537.225600
   1950   1954   1966     1   114.2100488 537.225600
   1950   1957   1960     1   114.2100488 537.225600
   1951   1950   1954     1   109.6600471 523.836800
   1951   1950   1957     1   109.6600471 523.836800
   1951   1963   1975     1   111.5100476 526.347200
   1954   1950   1957     1   109.6600471 523.836800
   1954   1966   1972     1   111.5100476 526.347200
   1957   1960   1969     1   111.5100476 526.347200
   1960   1969   1978     1   107.9700462 569.024000
   1963   1975   3727     1   107.9700462 569.024000
   1966   1972   3704     1   107.9700462 569.024000
   1972   3704   3700     1   112.4800480 524.673600
   1975   3727   3723     1   112.4800480 524.673600
   1980   1981   1993     1   114.2100488 537.225600
   1980   1984   1996     1   114.2100488 537.225600
   1980   1987   1990     1   114.2100488 537.225600
   1981   1980   1984     1   109.6600471 523.836800
   1981   1980   1987     1   109.6600471 523.836800
   1981   1993   2005     1   111.5100476 526.347200
   1984   1980   1987     1   109.6600471 523.836800
   1984   1996   2002     1   111.5100476 526.347200
   1987   1990   1999     1   111.5100476 526.347200
   1990   1999   2008     1   107.9700462 569.024000
   1993   2005   3773     1   107.9700462 569.024000
   1996   2002   3750     1   107.9700462 569.024000
   2002   3750   3746     1   112.4800480 524.673600
   2005   3773   3769     1   112.4800480 524.673600
   2010   2011   2023     1   114.2100488 537.225600
   2010   2014   2026     1   114.2100488 537.225600
   2010   2017   2020     1   114.2100488 537.225600
   2011   2010   2014     1   109.6600471 523.836800
   2011   2010   2017     1   109.6600471 523.836800
   2011   2023   2035     1   111.5100476 526.347200
   2014   2010   2017     1   109.6600471 523.836800
   2014   2026   2032     1   111.5100476 526.347200
   2017   2020   2029     1   111.5100476 526.347200
   2020   2029   2038     1   107.9700462 569.024000
   2023   2035   3819     1   107.9700462 569.024000
   2026   2032   3796     1   107.9700462 569.024000
   2032   3796   3792     1   112.4800480 524.673600
   2035   3819   3815     1   112.4800480 524.673600
   2040   2041   2053     1   114.2100488 537.225600
   2040   2044   2056     1   114.2100488 537.225600
   2040   2047   2050     1   114.2100488 537.225600
   2041   2040   2044     1   109.6600471 523.836800
   2041   2040   2047     1   109.6600471 523.836800
   2041   2053   2065     1   111.5100476 526.347200
   2044   2040   2047     1   109.6600471 523.836800
   2044   2056   2062     1   111.5100476 526.347200
   2047   2050   2059     1   111.5100476 526.347200
   2050   2059   2068     1   107.9700462 569.024000
   2053   2065   3865     1   107.9700462 569.024000
   2056   2062   3842     1   107.9700462 569.024000
   2062   3842   3838     1   112.4800480 524.673600
   2065   3865   3861     1   112.4800480 524.673600
   2070   2071   2083     1   114.2100488 537.225600
   2070   2074   2086     1   114.2100488 537.225600
   2070   2077   2080     1   114.2100488 537.225600
   2071   2070   2074     1   109.6600471 523.836800
   2071   2070   2077     1   109.6600471 523.836800
   2071   2083   2095     1   111.5100476 526.347200
   2074   2070   2077     1   109.6600471 523.836800
   2074   2086   2092     1   111.5100476 526.347200
   2077   2080   2089     1   111.5100476 526.347200
   2080   2089   2098     1   107.9700462 569.024000
   2083   2095   3911     1   107.9700462 569.024000
   2086   2092   3888     1   107.9700462 569.024000
   2092   3888   3884     1   112.4800480 524.673600
   2095   3911   3907     1   112.4800480 524.673600
   2100   2101   2113     1   114.2100488 537.225600
   2100   2104   2116     1   114.2100488 537.225600
   2100   2107   2110     1   114.2100488 537.225600
   2101   2100   2104     1   109.6600471 523.836800
   2101   2100   2107     1   109.6600471 523.836800
   2101   2113   2125     1   111.5100476 526.347200
   2104   2100   2107     1   109.6600471 523.836800
   2104   2116   2122     1   111.5100476 526.347200
   2107   2110   2119     1   111.5100476 526.347200
   2110   2119   2128     1   107.9700462 569.024000
   2113   2125   3957     1   107.9700462 569.024000
   2116   2122   3934     1   107.9700462 569.024000
   2122   3934   3930     1   112.4800480 524.673600
   2125   3957   3953     1   112.4800480 524.673600
   2130   2131   2143     1   114.2100488 537.225600
   2130   2134   2146     1   114.2100488 537.225600
   2130   2137   2140     1   114.2100488 537.225600
   2131   2130   2134     1   109.6600471 523.836800
   2131   2130   2137     1   109.6600471 523.836800
   2131   2143   2155     1   111.5100476 526.347200
   2134   2130   2137     1   109.6600471 523.836800
   2134   2146   2152     1   111.5100476 526.347200
   2137   2140   2149     1   111.5100476 526.347200
   2140   2149   2158     1   107.9700462 569.024000
   2143   2155   4003     1   107.9700462 569.024000
   2146   2152   3980     1   107.9700462 569.024000
   2152   3980   3976     1   112.4800480 524.673600
   2155   4003   3999     1   112.4800480 524.673600
   2160   2161   2173     1   114.2100488 537.225600
   2160   2164   2176     1   114.2100488 537.225600
   2160   2167   2170     1   114.2100488 537.225600
   2161   2160   2164     1   109.6600471 523.836800
   2161   2160   2167     1   109.6600471 523.836800
   2161   2173   2185     1   111.5100476 526.347200
   2164   2160   2167     1   109.6600471 523.836800
   2164   2176   2182     1   111.5100476 526.347200
   2167   2170   2179     1   111.5100476 526.347200
   2170   2179   2188     1   107.9700462 569.024000
   2173   2185   4049     1   107.9700462 569.024000
   2176   2182   4026     1   107.9700462 569.024000
   2182   4026   4022     1   112.4800480 524.673600
   2185   4049   4045     1   112.4800480 524.673600
   2190   2191   2203     1   114.2100488 537.225600
   2190   2194   2206     1   114.2100488 537.225600
   2190   2197   2200     1   114.2100488 537.225600
   2191   2190   2194     1   109.6600471 523.836800
   2191   2190   2197     1   109.6600471 523.836800
   2191   2203   2215     1   111.5100476 526.347200
   2194   2190   2197     1   109.6600471 523.836800
   2194   2206   2212     1   111.5100476 526.347200
   2197   2200   2209     1   111.5100476 526.347200
   2200   2209   2218     1   107.9700462 569.024000
   2203   2215   4095     1   107.9700462 569.024000
   2206   2212   4072     1   107.9700462 569.024000
   2212   4072   4068     1   112.4800480 524.673600
   2215   4095   4091     1   112.4800480 524.673600
   2220   2221   2233     1   114.2100488 537.225600
   2220   2224   2236     1   114.2100488 537.225600
   2220   2227   2230     1   114.2100488 537.225600
   2221   2220   2224     1   109.6600471 523.836800
   2221   2220   2227     1   109.6600471 523.836800
   2221   2233   2245     1   111.5100476 526.347200
   2224   2220   2227     1   109.6600471 523.836800
   2224   2236   2242     1   111.5100476 526.347200
   2227   2230   2239     1   111.5100476 526.347200
   2230   2239   2248     1   107.9700462 569.024000
   2233   2245   4141     1   107.9700462 569.024000
   2236   2242   4118     1   107.9700462 569.024000
   2242   4118   4114     1   112.4800480 524.673600
   2245   4141   4137     1   112.4800480 524.673600
   2250   2251   2263     1   114.2100488 537.225600
   2250   2254   2266     1   114.2100488 537.225600
   2250   2257   2260     1   114.2100488 537.225600
   2251   2250   2254     1   109.6600471 523.836800
   2251   2250   2257     1   109.6600471 523.836800
   2251   2263   2275     1   111.5100476 526.347200
   2254   2250   2257     1   109.6600471 523.836800
   2254   2266   2272     1   111.5100476 526.347200
   2257   2260   2269     1   111.5100476 526.347200
   2260   2269   2278     1   107.9700462 569.024000
   2263   2275   4187     1   107.9700462 569.024000
   2266   2272   4164     1   107.9700462 569.024000
   2272   4164   4160     1   112.4800480 524.673600
   2275   4187   4183     1   112.4800480 524.673600
   2280   2281   2293     1   114.2100488 537.225600
   2280   2284   2296     1   114.2100488 537.225600
   2280   2287   2290     1   114.2100488 537.225600
   2281   2280   2284     1   109.6600471 523.836800
   2281   2280   2287     1   109.6600471 523.836800
   2281   2293   2305     1   111.5100476 526.347200
   2284   2280   2287     1   109.6600471 523.836800
   2284   2296   2302     1   111.5100476 526.347200
   2287   2290   2299     1   111.5100476 526.347200
   2290   2299   2308     1   107.9700462 569.024000
   2293   2305   4233     1   107.9700462 569.024000
   2296   2302   4210     1   107.9700462 569.024000
   2302   4210   4206     1   112.4800480 524.673600
   2305   4233   4229     1   112.4800480 524.673600
   2310   2311   2323     1   114.2100488 537.225600
   2310   2314   2326     1   114.2100488 537.225600
   2310   2317   2320     1   114.2100488 537.225600
   2311   2310   2314     1   109.6600471 523.836800
   2311   2310   2317     1   109.6600471 523.836800
   2311   2323   2335     1   111.5100476 526.347200
   2314   2310   2317     1   109.6600471 523.836800
   2314   2326   2332     1   111.5100476 526.347200
   2317   2320   2329     1   111.5100476 526.347200
   2320   2329   2338     1   107.9700462 569.024000
   2323   2335   4279     1   107.9700462 569.024000
   2326   2332   4256     1   107.9700462 569.024000
   2332   4256   4252     1   112.4800480 524.673600
   2335   4279   4275     1   112.4800480 524.673600
   2340   2341   2353     1   114.2100488 537.225600
   2340   2344   2356     1   114.2100488 537.225600
   2340   2347   2350     1   114.2100488 537.225600
   2341   2340   2344     1   109.6600471 523.836800
   2341   2340   2347     1   109.6600471 523.836800
   2341   2353   2365     1   111.5100476 526.347200
   2344   2340   2347     1   109.6600471 523.836800
   2344   2356   2362     1   111.5100476 526.347200
   2347   2350   2359     1   111.5100476 526.347200
   2350   2359   2368     1   107.9700462 569.024000
   2353   2365   4325     1   107.9700462 569.024000
   2356   2362   4302     1   107.9700462 569.024000
   2362   4302   4298     1   112.4800480 524.673600
   2365   4325   4321     1   112.4800480 524.673600
   2370   2371   2383     1   114.2100488 537.225600
   2370   2374   2386     1   114.2100488 537.225600
   2370   2377   2380     1   114.2100488 537.225600
   2371   2370   2374     1   109.6600471 523.836800
   2371   2370   2377     1   109.6600471 523.836800
   2371   2383   2395     1   111.5100476 526.347200
   2374   2370   2377     1   109.6600471 523.836800
   2374   2386   2392     1   111.5100476 526.347200
   2377   2380   2389     1   111.5100476 526.347200
   2380   2389   2398     1   107.9700462 569.024000
   2383   2395   4371     1   107.9700462 569.024000
   2386   2392   4348     1   107.9700462 569.024000
   2392   4348   4344     1   112.4800480 524.673600
   2395   4371   4367     1   112.4800480 524.673600
   2400   2401   2413     1   114.2100488 537.225600
   2400   2404   2416     1   114.2100488 537.225600
   2400   2407   2410     1   114.2100488 537.225600
   2401   2400   2404     1   109.6600471 523.836800
   2401   2400   2407     1   109.6600471 523.836800
   2401   2413   2425     1   111.5100476 526.347200
   2404   2400   2407     1   109.6600471 523.836800
   2404   2416   2422     1   111.5100476 526.347200
   2407   2410   2419     1   111.5100476 526.347200
   2410   2419   2428     1   107.9700462 569.024000
   2413   2425   4417     1   107.9700462 569.024000
   2416   2422   4394     1   107.9700462 569.024000
   2422   4394   4390     1   112.4800480 524.673600
   2425   4417   4413     1   112.4800480 524.673600
   2430   2431   2443     1   114.2100488 537.225600
   2430   2434   2446     1   114.2100488 537.225600
   2430   2437   2440     1   114.2100488 537.225600
   2431   2430   2434     1   109.6600471 523.836800
   2431   2430   2437     1   109.6600471 523.836800
   2431   2443   2455     1   111.5100476 526.347200
   2434   2430   2437     1   109.6600471 523.836800
   2434   2446   2452     1   111.5100476 526.347200
   2437   2440   2449     1   111.5100476 526.347200
   2440   2449   2458     1   107.9700462 569.024000
   2443   2455   4463     1   107.9700462 569.024000
   2446   2452   4440     1   107.9700462 569.024000
   2452   4440   4436     1   112.4800480 524.673600
   2455   4463   4459     1   112.4800480 524.673600
   2460   2461   2473     1   114.2100488 537.225600
   2460   2464   2476     1   114.2100488 537.225600
   2460   2467   2470     1   114.2100488 537.225600
   2461   2460   2464     1   109.6600471 523.836800
   2461   2460   2467     1   109.6600471 523.836800
   2461   2473   2485     1   111.5100476 526.347200
   2464   2460   2467     1   109.6600471 523.836800
   2464   2476   2482     1   111.5100476 526.347200
   2467   2470   2479     1   111.5100476 526.347200
   2470   2479   2488     1   107.9700462 569.024000
   2473   2485   4509     1   107.9700462 569.024000
   2476   2482   4486     1   107.9700462 569.024000
   2482   4486   4482     1   112.4800480 524.673600
   2485   4509   4505     1   112.4800480 524.673600
   2490   2491   2503     1   114.2100488 537.225600
   2490   2494   2506     1   114.2100488 537.225600
   2490   2497   2500     1   114.2100488 537.225600
   2491   2490   2494     1   109.6600471 523.836800
   2491   2490   2497     1   109.6600471 523.836800
   2491   2503   2515     1   111.5100476 526.347200
   2494   2490   2497     1   109.6600471 523.836800
   2494   2506   2512     1   111.5100476 526.347200
   2497   2500   2509     1   111.5100476 526.347200
   2500   2509   2518     1   107.9700462 569.024000
   2503   2515   4555     1   107.9700462 569.024000
   2506   2512   4532     1   107.9700462 569.024000
   2512   4532   4528     1   112.4800480 524.673600
   2515   4555   4551     1   112.4800480 524.673600
   2520   2521   2533     1   114.2100488 537.225600
   2520   2524   2536     1   114.2100488 537.225600
   2520   2527   2530     1   114.2100488 537.225600
   2521   2520   2524     1   109.6600471 523.836800
   2521   2520   2527     1   109.6600471 523.836800
   2521   2533   2545     1   111.5100476 526.347200
   2524   2520   2527     1   109.6600471 523.836800
   2524   2536   2542     1   111.5100476 526.347200
   2527   2530   2539     1   111.5100476 526.347200
   2530   2539   2548     1   107.9700462 569.024000
   2533   2545   4601     1   107.9700462 569.024000
   2536   2542   4578     1   107.9700462 569.024000
   2542   4578   4574     1   112.4800480 524.673600
   2545   4601   4597     1   112.4800480 524.673600
   2550   2551   2563     1   114.2100488 537.225600
   2550   2554   2566     1   114.2100488 537.225600
   2550   2557   2560     1   114.2100488 537.225600
   2551   2550   2554     1   109.6600471 523.836800
   2551   2550   2557     1   109.6600471 523.836800
   2551   2563   2575     1   111.5100476 526.347200
   2554   2550   2557     1   109.6600471 523.836800
   2554   2566   2572     1   111.5100476 526.347200
   2557   2560   2569     1   111.5100476 526.347200
   2560   2569   2578     1   107.9700462 569.024000
   2563   2575   4647     1   107.9700462 569.024000
   2566   2572   4624     1   107.9700462 569.024000
   2572   4624   4620     1   112.4800480 524.673600
   2575   4647   4643     1   112.4800480 524.673600
   2580   2581   2593     1   114.2100488 537.225600
   2580   2584   2596     1   114.2100488 537.225600
   2580   2587   2590     1   114.2100488 537.225600
   2581   2580   2584     1   109.6600471 523.836800
   2581   2580   2587     1   109.6600471 523.836800
   2581   2593   2605     1   111.5100476 526.347200
   2584   2580   2587     1   109.6600471 523.836800
   2584   2596   2602     1   111.5100476 526.347200
   2587   2590   2599     1   111.5100476 526.347200
   2590   2599   2608     1   107.9700462 569.024000
   2593   2605   4693     1   107.9700462 569.024000
   2596   2602   4670     1   107.9700462 569.024000
   2602   4670   4666     1   112.4800480 524.673600
   2605   4693   4689     1   112.4800480 524.673600
   2610   2611   2623     1   114.2100488 537.225600
   2610   2614   2626     1   114.2100488 537.225600
   2610   2617   2620     1   114.2100488 537.225600
   2611   2610   2614     1   109.6600471 523.836800
   2611   2610   2617     1   109.6600471 523.836800
   2611   2623   2635     1   111.5100476 526.347200
   2614   2610   2617     1   109.6600471 523.836800
   2614   2626   2632     1   111.5100476 526.347200
   2617   2620   2629     1   111.5100476 526.347200
   2620   2629   2638     1   107.9700462 569.024000
   2623   2635   4739     1   107.9700462 569.024000
   2626   2632   4716     1   107.9700462 569.024000
   2632   4716   4712     1   112.4800480 524.673600
   2635   4739   4735     1   112.4800480 524.673600
   2640   2641   2653     1   114.2100488 537.225600
   2640   2644   2656     1   114.2100488 537.225600
   2640   2647   2650     1   114.2100488 537.225600
   2641   2640   2644     1   109.6600471 523.836800
   2641   2640   2647     1   109.6600471 523.836800
   2641   2653   2665     1   111.5100476 526.347200
   2644   2640   2647     1   109.6600471 523.836800
   2644   2656   2662     1   111.5100476 526.347200
   2647   2650   2659     1   111.5100476 526.347200
   2650   2659   2668     1   107.9700462 569.024000
   2653   2665   4785     1   107.9700462 569.024000
   2656   2662   4762     1   107.9700462 569.024000
   2662   4762   4758     1   112.4800480 524.673600
   2665   4785   4781     1   112.4800480 524.673600
   2670   2671   2683     1   114.2100488 537.225600
   2670   2674   2686     1   114.2100488 537.225600
   2670   2677   2680     1   114.2100488 537.225600
   2671   2670   2674     1   109.6600471 523.836800
   2671   2670   2677     1   109.6600471 523.836800
   2671   2683   2695     1   111.5100476 526.347200
   2674   2670   2677     1   109.6600471 523.836800
   2674   2686   2692     1   111.5100476 526.347200
   2677   2680   2689     1   111.5100476 526.347200
   2680   2689   2698     1   107.9700462 569.024000
   2683   2695   4831     1   107.9700462 569.024000
   2686   2692   4808     1   107.9700462 569.024000
   2692   4808   4804     1   112.4800480 524.673600
   2695   4831   4827     1   112.4800480 524.673600
   2700   2701   2713     1   114.2100488 537.225600
   2700   2704   2716     1   114.2100488 537.225600
   2700   2707   2710     1   114.2100488 537.225600
   2701   2700   2704     1   109.6600471 523.836800
   2701   2700   2707     1   109.6600471 523.836800
   2701   2713   2725     1   111.5100476 526.347200
   2704   2700   2707     1   109.6600471 523.836800
   2704   2716   2722     1   111.5100476 526.347200
   2707   2710   2719     1   111.5100476 526.347200
   2710   2719   2728     1   107.9700462 569.024000
   2713   2725   4877     1   107.9700462 569.024000
   2716   2722   4854     1   107.9700462 569.024000
   2722   4854   4850     1   112.4800480 524.673600
   2725   4877   4873     1   112.4800480 524.673600
   2730   2731   2743     1   114.2100488 537.225600
   2730   2734   2746     1   114.2100488 537.225600
   2730   2737   2740     1   114.2100488 537.225600
   2731   2730   2734     1   109.6600471 523.836800
   2731   2730   2737     1   109.6600471 523.836800
   2731   2743   2755     1   111.5100476 526.347200
   2734   2730   2737     1   109.6600471 523.836800
   2734   2746   2752     1   111.5100476 526.347200
   2737   2740   2749     1   111.5100476 526.347200
   2740   2749   2758     1   107.9700462 569.024000
   2743   2755   4923     1   107.9700462 569.024000
   2746   2752   4900     1   107.9700462 569.024000
   2752   4900   4896     1   112.4800480 524.673600
   2755   4923   4919     1   112.4800480 524.673600
   2760   2761   2773     1   114.2100488 537.225600
   2760   2764   2776     1   114.2100488 537.225600
   2760   2767   2770     1   114.2100488 537.225600
   2761   2760   2764     1   109.6600471 523.836800
   2761   2760   2767     1   109.6600471 523.836800
   2761   2773   2785     1   111.5100476 526.347200
   2764   2760   2767     1   109.6600471 523.836800
   2764   2776   2782     1   111.5100476 526.347200
   2767   2770   2779     1   111.5100476 526.347200
   2770   2779   2788     1   107.9700462 569.024000
   2773   2785   4969     1   107.9700462 569.024000
   2776   2782   4946     1   107.9700462 569.024000
   2782   4946   4942     1   112.4800480 524.673600
   2785   4969   4965     1   112.4800480 524.673600
   2790   2791   2803     1   114.2100488 537.225600
   2790   2794   2806     1   114.2100488 537.225600
   2790   2797   2800     1   114.2100488 537.225600
   2791   2790   2794     1   109.6600471 523.836800
   2791   2790   2797     1   109.6600471 523.836800
   2791   2803   2815     1   111.5100476 526.347200
   2794   2790   2797     1   109.6600471 523.836800
   2794   2806   2812     1   111.5100476 526.347200
   2797   2800   2809     1   111.5100476 526.347200
   2800   2809   2818     1   107.9700462 569.024000
   2803   2815   5015     1   107.9700462 569.024000
   2806   2812   4992     1   107.9700462 569.024000
   2812   4992   4988     1   112.4800480 524.673600
   2815   5015   5011     1   112.4800480 524.673600
   2820   2821   2824     1   111.5100476 526.347200
   2820   2821   2833     1   110.1900474 564.840000
   2820   2834   2840     1   110.1900474 564.840000
   2820   2842   2826     1   112.4800480 524.673600
   2821   2820   2834     1   111.5100476 526.347200
   2821   2820   2842     1   107.9700462 569.024000
   2821   2824   2825     1   111.5100476 526.347200
   2821   2824   2832     1   110.1900474 564.840000
   2824   2821   2833     1   110.1900474 564.840000
   2824   2825   2826     1   111.5100476 526.347200
   2824   2825   2831     1   110.1900474 564.840000
   2825   2824   2832     1   110.1900474 564.840000
   2825   2826   2830     1   107.9700462 569.024000
   2825   2826   2842     1   107.9700462 569.024000
   2826   2825   2831     1   110.1900474 564.840000
   2830   2826   2842     1   108.2900466 608.353600
   2834   2820   2842     1   107.9700462 569.024000
   2843   2844   2847     1   111.5100476 526.347200
   2843   2844   2856     1   110.1900474 564.840000
   2843   2857   2863     1   110.1900474 564.840000
   2843   2865   2849     1   112.4800480 524.673600
   2844   2847   2848     1   111.5100476 526.347200
   2844   2847   2855     1   110.1900474 564.840000
   2844   2843   2857     1   111.5100476 526.347200
   2844   2843   2865     1   107.9700462 569.024000
   2847   2848   2849     1   111.5100476 526.347200
   2847   2848   2854     1   110.1900474 564.840000
   2847   2844   2856     1   110.1900474 564.840000
   2848   2849   2853     1   107.9700462 569.024000
   2848   2849   2865     1   107.9700462 569.024000
   2848   2847   2855     1   110.1900474 564.840000
   2849   2848   2854     1   110.1900474 564.840000
   2853   2849   2865     1   108.2900466 608.353600
   2857   2843   2865     1   107.9700462 569.024000
   2866   2867   2870     1   111.5100476 526.347200
   2866   2867   2879     1   110.1900474 564.840000
   2866   2880   2886     1   110.1900474 564.840000
   2866   2888   2872     1   112.4800480 524.673600
   2867   2866   2880     1   111.5100476 526.347200
   2867   2866   2888     1   107.9700462 569.024000
   2867   2870   2871     1   111.5100476 526.347200
   2867   2870   2878     1   110.1900474 564.840000
   2870   2867   2879     1   110.1900474 564.840000
   2870   2871   2872     1   111.5100476 526.347200
   2870   2871   2877     1   110.1900474 564.840000
   2871   2870   2878     1   110.1900474 564.840000
   2871   2872   2876     1   107.9700462 569.024000
   2871   2872   2888     1   107.9700462 569.024000
   2872   2871   2877     1   110.1900474 564.840000
   2876   2872   2888     1   108.2900466 608.353600
   2880   2866   2888     1   107.9700462 569.024000
   2889   2890   2893     1   111.5100476 526.347200
   2889   2890   2902     1   110.1900474 564.840000
   2889   2903   2909     1   110.1900474 564.840000
   2889   2911   2895     1   112.4800480 524.673600
   2890   2893   2894     1   111.5100476 526.347200
   2890   2893   2901     1   110.1900474 564.840000
   2890   2889   2903     1   111.5100476 526.347200
   2890   2889   2911     1   107.9700462 569.024000
   2893   2894   2895     1   111.5100476 526.347200
   2893   2894   2900     1   110.1900474 564.840000
   2893   2890   2902     1   110.1900474 564.840000
   2894   2895   2899     1   107.9700462 569.024000
   2894   2895   2911     1   107.9700462 569.024000
   2894   2893   2901     1   110.1900474 564.840000
   2895   2894   2900     1   110.1900474 564.840000
   2899   2895   2911     1   108.2900466 608.353600
   2903   2889   2911     1   107.9700462 569.024000
   2912   2913   2916     1   111.5100476 526.347200
   2912   2913   2925     1   110.1900474 564.840000
   2912   2926   2932     1   110.1900474 564.840000
   2912   2934   2918     1   112.4800480 524.673600
   2913   2912   2926     1   111.5100476 526.347200
   2913   2912   2934     1   107.9700462 569.024000
   2913   2916   2917     1   111.5100476 526.347200
   2913   2916   2924     1   110.1900474 564.840000
   2916   2913   2925     1   110.1900474 564.840000
   2916   2917   2918     1   111.5100476 526.347200
   2916   2917   2923     1   110.1900474 564.840000
   2917   2916   2924     1   110.1900474 564.840000
   2917   2918   2922     1   107.9700462 569.024000
   2917   2918   2934     1   107.9700462 569.024000
   2918   2917   2923     1   110.1900474 564.840000
   2922   2918   2934     1   108.2900466 608.353600
   2926   2912   2934     1   107.9700462 569.024000
   2935   2936   2939     1   111.5100476 526.347200
   2935   2936   2948     1   110.1900474 564.840000
   2935   2949   2955     1   110.1900474 564.840000
   2935   2957   2941     1   112.4800480 524.673600
   2936   2939   2940     1   111.5100476 526.347200
   2936   2939   2947     1   110.1900474 564.840000
   2936   2935   2949     1   111.5100476 526.347200
   2936   2935   2957     1   107.9700462 569.024000
   2939   2940   2941     1   111.5100476 526.347200
   2939   2940   2946     1   110.1900474 564.840000
   2939   2936   2948     1   110.1900474 564.840000
   2940   2941   2945     1   107.9700462 569.024000
   2940   2941   2957     1   107.9700462 569.024000
   2940   2939   2947     1   110.1900474 564.840000
   2941   2940   2946     1   110.1900474 564.840000
   2945   2941   2957     1   108.2900466 608.353600
   2949   2935   2957     1   107.9700462 569.024000
   2958   2959   2962     1   111.5100476 526.347200
   2958   2959   2971     1   110.1900474 564.840000
   2958   2972   2978     1   110.1900474 564.840000
   2958   2980   2964     1   112.4800480 524.673600
   2959   2958   2972     1   111.5100476 526.347200
   2959   2958   2980     1   107.9700462 569.024000
   2959   2962   2963     1   111.5100476 526.347200
   2959   2962   2970     1   110.1900474 564.840000
   2962   2959   2971     1   110.1900474 564.840000
   2962   2963   2964     1   111.5100476 526.347200
   2962   2963   2969     1   110.1900474 564.840000
   2963   2962   2970     1   110.1900474 564.840000
   2963   2964   2968     1   107.9700462 569.024000
   2963   2964   2980     1   107.9700462 569.024000
   2964   2963   2969     1   110.1900474 564.840000
   2968   2964   2980     1   108.2900466 608.353600
   2972   2958   2980     1   107.9700462 569.024000
   2981   2982   2985     1   111.5100476 526.347200
   2981   2982   2994     1   110.1900474 564.840000
   2981   2995   3001     1   110.1900474 564.840000
   2981   3003   2987     1   112.4800480 524.673600
   2982   2985   2986     1   111.5100476 526.347200
   2982   2985   2993     1   110.1900474 564.840000
   2982   2981   2995     1   111.5100476 526.347200
   2982   2981   3003     1   107.9700462 569.024000
   2985   2986   2987     1   111.5100476 526.347200
   2985   2986   2992     1   110.1900474 564.840000
   2985   2982   2994     1   110.1900474 564.840000
   2986   2987   2991     1   107.9700462 569.024000
   2986   2987   3003     1   107.9700462 569.024000
   2986   2985   2993     1   110.1900474 564.840000
   2987   2986   2992     1   110.1900474 564.840000
   2991   2987   3003     1   108.2900466 608.353600
   2995   2981   3003     1   107.9700462 569.024000
   3004   3005   3008     1   111.5100476 526.347200
   3004   3005   3017     1   110.1900474 564.840000
   3004   3018   3024     1   110.1900474 564.840000
   3004   3026   3010     1   112.4800480 524.673600
   3005   3004   3018     1   111.5100476 526.347200
   3005   3004   3026     1   107.9700462 569.024000
   3005   3008   3009     1   111.5100476 526.347200
   3005   3008   3016     1   110.1900474 564.840000
   3008   3005   3017     1   110.1900474 564.840000
   3008   3009   3010     1   111.5100476 526.347200
   3008   3009   3015     1   110.1900474 564.840000
   3009   3008   3016     1   110.1900474 564.840000
   3009   3010   3014     1   107.9700462 569.024000
   3009   3010   3026     1   107.9700462 569.024000
   3010   3009   3015     1   110.1900474 564.840000
   3014   3010   3026     1   108.2900466 608.353600
   3018   3004   3026     1   107.9700462 569.024000
   3027   3028   3031     1   111.5100476 526.347200
   3027   3028   3040     1   110.1900474 564.840000
   3027   3041   3047     1   110.1900474 564.840000
   3027   3049   3033     1   112.4800480 524.673600
   3028   3031   3032     1   111.5100476 526.347200
   3028   3031   3039     1   110.1900474 564.840000
   3028   3027   3041     1   111.5100476 526.347200
   3028   3027   3049     1   107.9700462 569.024000
   3031   3032   3033     1   111.5100476 526.347200
   3031   3032   3038     1   110.1900474 564.840000
   3031   3028   3040     1   110.1900474 564.840000
   3032   3033   3037     1   107.9700462 569.024000
   3032   3033   3049     1   107.9700462 569.024000
   3032   3031   3039     1   110.1900474 564.840000
   3033   3032   3038     1   110.1900474 564.840000
   3037   3033   3049     1   108.2900466 608.353600
   3041   3027   3049     1   107.9700462 569.024000
   3050   3051   3054     1   111.5100476 526.347200
   3050   3051   3063     1   110.1900474 564.840000
   3050   3064   3070     1   110.1900474 564.840000
   3050   3072   3056     1   112.4800480 524.673600
   3051   3050   3064     1   111.5100476 526.347200
   3051   3050   3072     1   107.9700462 569.024000
   3051   3054   3055     1   111.5100476 526.347200
   3051   3054   3062     1   110.1900474 564.840000
   3054   3051   3063     1   110.1900474 564.840000
   3054   3055   3056     1   111.5100476 526.347200
   3054   3055   3061     1   110.1900474 564.840000
   3055   3054   3062     1   110.1900474 564.840000
   3055   3056   3060     1   107.9700462 569.024000
   3055   3056   3072     1   107.9700462 569.024000
   3056   3055   3061     1   110.1900474 564.840000
   3060   3056   3072     1   108.2900466 608.353600
   3064   3050   3072     1   107.9700462 569.024000
   3073   3074   3077     1   111.5100476 526.347200
   3073   3074   3086     1   110.1900474 564.840000
   3073   3087   3093     1   110.1900474 564.840000
   3073   3095   3079     1   112.4800480 524.673600
   3074   3077   3078     1   111.5100476 526.347200
   3074   3077   3085     1   110.1900474 564.840000
   3074   3073   3087     1   111.5100476 526.347200
   3074   3073   3095     1   107.9700462 569.024000
   3077   3078   3079     1   111.5100476 526.347200
   3077   3078   3084     1   110.1900474 564.840000
   3077   3074   3086     1   110.1900474 564.840000
   3078   3079   3083     1   107.9700462 569.024000
   3078   3079   3095     1   107.9700462 569.024000
   3078   3077   3085     1   110.1900474 564.840000
   3079   3078   3084     1   110.1900474 564.840000
   3083   3079   3095     1   108.2900466 608.353600
   3087   3073   3095     1   107.9700462 569.024000
   3096   3097   3100     1   111.5100476 526.347200
   3096   3097   3109     1   110.1900474 564.840000
   3096   3110   3116     1   110.1900474 564.840000
   3096   3118   3102     1   112.4800480 524.673600
   3097   3096   3110     1   111.5100476 526.347200
   3097   3096   3118     1   107.9700462 569.024000
   3097   3100   3101     1   111.5100476 526.347200
   3097   3100   3108     1   110.1900474 564.840000
   3100   3097   3109     1   110.1900474 564.840000
   3100   3101   3102     1   111.5100476 526.347200
   3100   3101   3107     1   110.1900474 564.840000
   3101   3100   3108     1   110.1900474 564.840000
   3101   3102   3106     1   107.9700462 569.024000
   3101   3102   3118     1   107.9700462 569.024000
   3102   3101   3107     1   110.1900474 564.840000
   3106   3102   3118     1   108.2900466 608.353600
   3110   3096   3118     1   107.9700462 569.024000
   3119   3120   3123     1   111.5100476 526.347200
   3119   3120   3132     1   110.1900474 564.840000
   3119   3133   3139     1   110.1900474 564.840000
   3119   3141   3125     1   112.4800480 524.673600
   3120   3123   3124     1   111.5100476 526.347200
   3120   3123   3131     1   110.1900474 564.840000
   3120   3119   3133     1   111.5100476 526.347200
   3120   3119   3141     1   107.9700462 569.024000
   3123   3124   3125     1   111.5100476 526.347200
   3123   3124   3130     1   110.1900474 564.840000
   3123   3120   3132     1   110.1900474 564.840000
   3124   3125   3129     1   107.9700462 569.024000
   3124   3125   3141     1   107.9700462 569.024000
   3124   3123   3131     1   110.1900474 564.840000
   3125   3124   3130     1   110.1900474 564.840000
   3129   3125   3141     1   108.2900466 608.353600
   3133   3119   3141     1   107.9700462 569.024000
   3142   3143   3146     1   111.5100476 526.347200
   3142   3143   3155     1   110.1900474 564.840000
   3142   3156   3162     1   110.1900474 564.840000
   3142   3164   3148     1   112.4800480 524.673600
   3143   3142   3156     1   111.5100476 526.347200
   3143   3142   3164     1   107.9700462 569.024000
   3143   3146   3147     1   111.5100476 526.347200
   3143   3146   3154     1   110.1900474 564.840000
   3146   3143   3155     1   110.1900474 564.840000
   3146   3147   3148     1   111.5100476 526.347200
   3146   3147   3153     1   110.1900474 564.840000
   3147   3146   3154     1   110.1900474 564.840000
   3147   3148   3152     1   107.9700462 569.024000
   3147   3148   3164     1   107.9700462 569.024000
   3148   3147   3153     1   110.1900474 564.840000
   3152   3148   3164     1   108.2900466 608.353600
   3156   3142   3164     1   107.9700462 569.024000
   3165   3166   3169     1   111.5100476 526.347200
   3165   3166   3178     1   110.1900474 564.840000
   3165   3179   3185     1   110.1900474 564.840000
   3165   3187   3171     1   112.4800480 524.673600
   3166   3169   3170     1   111.5100476 526.347200
   3166   3169   3177     1   110.1900474 564.840000
   3166   3165   3179     1   111.5100476 526.347200
   3166   3165   3187     1   107.9700462 569.024000
   3169   3170   3171     1   111.5100476 526.347200
   3169   3170   3176     1   110.1900474 564.840000
   3169   3166   3178     1   110.1900474 564.840000
   3170   3171   3175     1   107.9700462 569.024000
   3170   3171   3187     1   107.9700462 569.024000
   3170   3169   3177     1   110.1900474 564.840000
   3171   3170   3176     1   110.1900474 564.840000
   3175   3171   3187     1   108.2900466 608.353600
   3179   3165   3187     1   107.9700462 569.024000
   3188   3189   3192     1   111.5100476 526.347200
   3188   3189   3201     1   110.1900474 564.840000
   3188   3202   3208     1   110.1900474 564.840000
   3188   3210   3194     1   112.4800480 524.673600
   3189   3188   3202     1   111.5100476 526.347200
   3189   3188   3210     1   107.9700462 569.024000
   3189   3192   3193     1   111.5100476 526.347200
   3189   3192   3200     1   110.1900474 564.840000
   3192   3189   3201     1   110.1900474 564.840000
   3192   3193   3194     1   111.5100476 526.347200
   3192   3193   3199     1   110.1900474 564.840000
   3193   3192   3200     1   110.1900474 564.840000
   3193   3194   3198     1   107.9700462 569.024000
   3193   3194   3210     1   107.9700462 569.024000
   3194   3193   3199     1   110.1900474 564.840000
   3198   3194   3210     1   108.2900466 608.353600
   3202   3188   3210     1   107.9700462 569.024000
   3211   3212   3215     1   111.5100476 526.347200
   3211   3212   3224     1   110.1900474 564.840000
   3211   3225   3231     1   110.1900474 564.840000
   3211   3233   3217     1   112.4800480 524.673600
   3212   3215   3216     1   111.5100476 526.347200
   3212   3215   3223     1   110.1900474 564.840000
   3212   3211   3225     1   111.5100476 526.347200
   3212   3211   3233     1   107.9700462 569.024000
   3215   3216   3217     1   111.5100476 526.347200
   3215   3216   3222     1   110.1900474 564.840000
   3215   3212   3224     1   110.1900474 564.840000
   3216   3217   3221     1   107.9700462 569.024000
   3216   3217   3233     1   107.9700462 569.024000
   3216   3215   3223     1   110.1900474 564.840000
   3217   3216   3222     1   110.1900474 564.840000
   3221   3217   3233     1   108.2900466 608.353600
   3225   3211   3233     1   107.9700462 569.024000
   3234   3235   3238     1   111.5100476 526.347200
   3234   3235   3247     1   110.1900474 564.840000
   3234   3248   3254     1   110.1900474 564.840000
   3234   3256   3240     1   112.4800480 524.673600
   3235   3234   3248     1   111.5100476 526.347200
   3235   3234   3256     1   107.9700462 569.024000
   3235   3238   3239     1   111.5100476 526.347200
   3235   3238   3246     1   110.1900474 564.840000
   3238   3235   3247     1   110.1900474 564.840000
   3238   3239   3240     1   111.5100476 526.347200
   3238   3239   3245     1   110.1900474 564.840000
   3239   3238   3246     1   110.1900474 564.840000
   3239   3240   3244     1   107.9700462 569.024000
   3239   3240   3256     1   107.9700462 569.024000
   3240   3239   3245     1   110.1900474 564.840000
   3244   3240   3256     1   108.2900466 608.353600
   3248   3234   3256     1   107.9700462 569.024000
   3257   3258   3261     1   111.5100476 526.347200
   3257   3258   3270     1   110.1900474 564.840000
   3257   3271   3277     1   110.1900474 564.840000
   3257   3279   3263     1   112.4800480 524.673600
   3258   3261   3262     1   111.5100476 526.347200
   3258   3261   3269     1   110.1900474 564.840000
   3258   3257   3271     1   111.5100476 526.347200
   3258   3257   3279     1   107.9700462 569.024000
   3261   3262   3263     1   111.5100476 526.347200
   3261   3262   3268     1   110.1900474 564.840000
   3261   3258   3270     1   110.1900474 564.840000
   3262   3263   3267     1   107.9700462 569.024000
   3262   3263   3279     1   107.9700462 569.024000
   3262   3261   3269     1   110.1900474 564.840000
   3263   3262   3268     1   110.1900474 564.840000
   3267   3263   3279     1   108.2900466 608.353600
   3271   3257   3279     1   107.9700462 569.024000
   3280   3281   3284     1   111.5100476 526.347200
   3280   3281   3293     1   110.1900474 564.840000
   3280   3294   3300     1   110.1900474 564.840000
   3280   3302   3286     1   112.4800480 524.673600
   3281   3280   3294     1   111.5100476 526.347200
   3281   3280   3302     1   107.9700462 569.024000
   3281   3284   3285     1   111.5100476 526.347200
   3281   3284   3292     1   110.1900474 564.840000
   3284   3281   3293     1   110.1900474 564.840000
   3284   3285   3286     1   111.5100476 526.347200
   3284   3285   3291     1   110.1900474 564.840000
   3285   3284   3292     1   110.1900474 564.840000
   3285   3286   3290     1   107.9700462 569.024000
   3285   3286   3302     1   107.9700462 569.024000
   3286   3285   3291     1   110.1900474 564.840000
   3290   3286   3302     1   108.2900466 608.353600
   3294   3280   3302     1   107.9700462 569.024000
   3303   3304   3307     1   111.5100476 526.347200
   3303   3304   3316     1   110.1900474 564.840000
   3303   3317   3323     1   110.1900474 564.840000
   3303   3325   3309     1   112.4800480 524.673600
   3304   3307   3308     1   111.5100476 526.347200
   3304   3307   3315     1   110.1900474 564.840000
   3304   3303   3317     1   111.5100476 526.347200
   3304   3303   3325     1   107.9700462 569.024000
   3307   3308   3309     1   111.5100476 526.347200
   3307   3308   3314     1   110.1900474 564.840000
   3307   3304   3316     1   110.1900474 564.840000
   3308   3309   3313     1   107.9700462 569.024000
   3308   3309   3325     1   107.9700462 569.024000
   3308   3307   3315     1   110.1900474 564.840000
   3309   3308   3314     1   110.1900474 564.840000
   3313   3309   3325     1   108.2900466 608.353600
   3317   3303   3325     1   107.9700462 569.024000
   3326   3327   3330     1   111.5100476 526.347200
   3326   3327   3339     1   110.1900474 564.840000
   3326   3340   3346     1   110.1900474 564.840000
   3326   3348   3332     1   112.4800480 524.673600
   3327   3326   3340     1   111.5100476 526.347200
   3327   3326   3348     1   107.9700462 569.024000
   3327   3330   3331     1   111.5100476 526.347200
   3327   3330   3338     1   110.1900474 564.840000
   3330   3327   3339     1   110.1900474 564.840000
   3330   3331   3332     1   111.5100476 526.347200
   3330   3331   3337     1   110.1900474 564.840000
   3331   3330   3338     1   110.1900474 564.840000
   3331   3332   3336     1   107.9700462 569.024000
   3331   3332   3348     1   107.9700462 569.024000
   3332   3331   3337     1   110.1900474 564.840000
   3336   3332   3348     1   108.2900466 608.353600
   3340   3326   3348     1   107.9700462 569.024000
   3349   3350   3353     1   111.5100476 526.347200
   3349   3350   3362     1   110.1900474 564.840000
   3349   3363   3369     1   110.1900474 564.840000
   3349   3371   3355     1   112.4800480 524.673600
   3350   3353   3354     1   111.5100476 526.347200
   3350   3353   3361     1   110.1900474 564.840000
   3350   3349   3363     1   111.5100476 526.347200
   3350   3349   3371     1   107.9700462 569.024000
   3353   3354   3355     1   111.5100476 526.347200
   3353   3354   3360     1   110.1900474 564.840000
   3353   3350   3362     1   110.1900474 564.840000
   3354   3355   3359     1   107.9700462 569.024000
   3354   3355   3371     1   107.9700462 569.024000
   3354   3353   3361     1   110.1900474 564.840000
   3355   3354   3360     1   110.1900474 564.840000
   3359   3355   3371     1   108.2900466 608.353600
   3363   3349   3371     1   107.9700462 569.024000
   3372   3373   3376     1   111.5100476 526.347200
   3372   3373   3385     1   110.1900474 564.840000
   3372   3386   3392     1   110.1900474 564.840000
   3372   3394   3378     1   112.4800480 524.673600
   3373   3372   3386     1   111.5100476 526.347200
   3373   3372   3394     1   107.9700462 569.024000
   3373   3376   3377     1   111.5100476 526.347200
   3373   3376   3384     1   110.1900474 564.840000
   3376   3373   3385     1   110.1900474 564.840000
   3376   3377   3378     1   111.5100476 526.347200
   3376   3377   3383     1   110.1900474 564.840000
   3377   3376   3384     1   110.1900474 564.840000
   3377   3378   3382     1   107.9700462 569.024000
   3377   3378   3394     1   107.9700462 569.024000
   3378   3377   3383     1   110.1900474 564.840000
   3382   3378   3394     1   108.2900466 608.353600
   3386   3372   3394     1   107.9700462 569.024000
   3395   3396   3399     1   111.5100476 526.347200
   3395   3396   3408     1   110.1900474 564.840000
   3395   3409   3415     1   110.1900474 564.840000
   3395   3417   3401     1   112.4800480 524.673600
   3396   3399   3400     1   111.5100476 526.347200
   3396   3399   3407     1   110.1900474 564.840000
   3396   3395   3409     1   111.5100476 526.347200
   3396   3395   3417     1   107.9700462 569.024000
   3399   3400   3401     1   111.5100476 526.347200
   3399   3400   3406     1   110.1900474 564.840000
   3399   3396   3408     1   110.1900474 564.840000
   3400   3401   3405     1   107.9700462 569.024000
   3400   3401   3417     1   107.9700462 569.024000
   3400   3399   3407     1   110.1900474 564.840000
   3401   3400   3406     1   110.1900474 564.840000
   3405   3401   3417     1   108.2900466 608.353600
   3409   3395   3417     1   107.9700462 569.024000
   3418   3419   3422     1   111.5100476 526.347200
   3418   3419   3431     1   110.1900474 564.840000
   3418   3432   3438     1   110.1900474 564.840000
   3418   3440   3424     1   112.4800480 524.673600
   3419   3418   3432     1   111.5100476 526.347200
   3419   3418   3440     1   107.9700462 569.024000
   3419   3422   3423     1   111.5100476 526.347200
   3419   3422   3430     1   110.1900474 564.840000
   3422   3419   3431     1   110.1900474 564.840000
   3422   3423   3424     1   111.5100476 526.347200
   3422   3423   3429     1   110.1900474 564.840000
   3423   3422   3430     1   110.1900474 564.840000
   3423   3424   3428     1   107.9700462 569.024000
   3423   3424   3440     1   107.9700462 569.024000
   3424   3423   3429     1   110.1900474 564.840000
   3428   3424   3440     1   108.2900466 608.353600
   3432   3418   3440     1   107.9700462 569.024000
   3441   3442   3445     1   111.5100476 526.347200
   3441   3442   3454     1   110.1900474 564.840000
   3441   3455   3461     1   110.1900474 564.840000
   3441   3463   3447     1   112.4800480 524.673600
   3442   3445   3446     1   111.5100476 526.347200
   3442   3445   3453     1   110.1900474 564.840000
   3442   3441   3455     1   111.5100476 526.347200
   3442   3441   3463     1   107.9700462 569.024000
   3445   3446   3447     1   111.5100476 526.347200
   3445   3446   3452     1   110.1900474 564.840000
   3445   3442   3454     1   110.1900474 564.840000
   3446   3447   3451     1   107.9700462 569.024000
   3446   3447   3463     1   107.9700462 569.024000
   3446   3445   3453     1   110.1900474 564.840000
   3447   3446   3452     1   110.1900474 564.840000
   3451   3447   3463     1   108.2900466 608.353600
   3455   3441   3463     1   107.9700462 569.024000
   3464   3465   3468     1   111.5100476 526.347200
   3464   3465   3477     1   110.1900474 564.840000
   3464   3478   3484     1   110.1900474 564.840000
   3464   3486   3470     1   112.4800480 524.673600
   3465   3464   3478     1   111.5100476 526.347200
   3465   3464   3486     1   107.9700462 569.024000
   3465   3468   3469     1   111.5100476 526.347200
   3465   3468   3476     1   110.1900474 564.840000
   3468   3465   3477     1   110.1900474 564.840000
   3468   3469   3470     1   111.5100476 526.347200
   3468   3469   3475     1   110.1900474 564.840000
   3469   3468   3476     1   110.1900474 564.840000
   3469   3470   3474     1   107.9700462 569.024000
   3469   3470   3486     1   107.9700462 569.024000
   3470   3469   3475     1   110.1900474 564.840000
   3474   3470   3486     1   108.2900466 608.353600
   3478   3464   3486     1   107.9700462 569.024000
   3487   3488   3491     1   111.5100476 526.347200
   3487   3488   3500     1   110.1900474 564.840000
   3487   3501   3507     1   110.1900474 564.840000
   3487   3509   3493     1   112.4800480 524.673600
   3488   3491   3492     1   111.5100476 526.347200
   3488   3491   3499     1   110.1900474 564.840000
   3488   3487   3501     1   111.5100476 526.347200
   3488   3487   3509     1   107.9700462 569.024000
   3491   3492   3493     1   111.5100476 526.347200
   3491   3492   3498     1   110.1900474 564.840000
   3491   3488   3500     1   110.1900474 564.840000
   3492   3493   3497     1   107.9700462 569.024000
   3492   3493   3509     1   107.9700462 569.024000
   3492   3491   3499     1   110.1900474 564.840000
   3493   3492   3498     1   110.1900474 564.840000
   3497   3493   3509     1   108.2900466 608.353600
   3501   3487   3509     1   107.9700462 569.024000
   3510   3511   3514     1   111.5100476 526.347200
   3510   3511   3523     1   110.1900474 564.840000
   3510   3524   3530     1   110.1900474 564.840000
   3510   3532   3516     1   112.4800480 524.673600
   3511   3510   3524     1   111.5100476 526.347200
   3511   3510   3532     1   107.9700462 569.024000
   3511   3514   3515     1   111.5100476 526.347200
   3511   3514   3522     1   110.1900474 564.840000
   3514   3511   3523     1   110.1900474 564.840000
   3514   3515   3516     1   111.5100476 526.347200
   3514   3515   3521     1   110.1900474 564.840000
   3515   3514   3522     1   110.1900474 564.840000
   3515   3516   3520     1   107.9700462 569.024000
   3515   3516   3532     1   107.9700462 569.024000
   3516   3515   3521     1   110.1900474 564.840000
   3520   3516   3532     1   108.2900466 608.353600
   3524   3510   3532     1   107.9700462 569.024000
   3533   3534   3537     1   111.5100476 526.347200
   3533   3534   3546     1   110.1900474 564.840000
   3533   3547   3553     1   110.1900474 564.840000
   3533   3555   3539     1   112.4800480 524.673600
   3534   3537   3538     1   111.5100476 526.347200
   3534   3537   3545     1   110.1900474 564.840000
   3534   3533   3547     1   111.5100476 526.347200
   3534   3533   3555     1   107.9700462 569.024000
   3537   3538   3539     1   111.5100476 526.347200
   3537   3538   3544     1   110.1900474 564.840000
   3537   3534   3546     1   110.1900474 564.840000
   3538   3539   3543     1   107.9700462 569.024000
   3538   3539   3555     1   107.9700462 569.024000
   3538   3537   3545     1   110.1900474 564.840000
   3539   3538   3544     1   110.1900474 564.840000
   3543   3539   3555     1   108.2900466 608.353600
   3547   3533   3555     1   107.9700462 569.024000
   3556   3557   3560     1   111.5100476 526.347200
   3556   3557   3569     1   110.1900474 564.840000
   3556   3570   3576     1   110.1900474 564.840000
   3556   3578   3562     1   112.4800480 524.673600
   3557   3556   3570     1   111.5100476 526.347200
   3557   3556   3578     1   107.9700462 569.024000
   3557   3560   3561     1   111.5100476 526.347200
   3557   3560   3568     1   110.1900474 564.840000
   3560   3557   3569     1   110.1900474 564.840000
   3560   3561   3562     1   111.5100476 526.347200
   3560   3561   3567     1   110.1900474 564.840000
   3561   3560   3568     1   110.1900474 564.840000
   3561   3562   3566     1   107.9700462 569.024000
   3561   3562   3578     1   107.9700462 569.024000
   3562   3561   3567     1   110.1900474 564.840000
   3566   3562   3578     1   108.2900466 608.353600
   3570   3556   3578     1   107.9700462 569.024000
   3579   3580   3583     1   111.5100476 526.347200
   3579   3580   3592     1   110.1900474 564.840000
   3579   3593   3599     1   110.1900474 564.840000
   3579   3601   3585     1   112.4800480 524.673600
   3580   3583   3584     1   111.5100476 526.347200
   3580   3583   3591     1   110.1900474 564.840000
   3580   3579   3593     1   111.5100476 526.347200
   3580   3579   3601     1   107.9700462 569.024000
   3583   3584   3585     1   111.5100476 526.347200
   3583   3584   3590     1   110.1900474 564.840000
   3583   3580   3592     1   110.1900474 564.840000
   3584   3585   3589     1   107.9700462 569.024000
   3584   3585   3601     1   107.9700462 569.024000
   3584   3583   3591     1   110.1900474 564.840000
   3585   3584   3590     1   110.1900474 564.840000
   3589   3585   3601     1   108.2900466 608.353600
   3593   3579   3601     1   107.9700462 569.024000
   3602   3603   3606     1   111.5100476 526.347200
   3602   3603   3615     1   110.1900474 564.840000
   3602   3616   3622     1   110.1900474 564.840000
   3602   3624   3608     1   112.4800480 524.673600
   3603   3602   3616     1   111.5100476 526.347200
   3603   3602   3624     1   107.9700462 569.024000
   3603   3606   3607     1   111.5100476 526.347200
   3603   3606   3614     1   110.1900474 564.840000
   3606   3603   3615     1   110.1900474 564.840000
   3606   3607   3608     1   111.5100476 526.347200
   3606   3607   3613     1   110.1900474 564.840000
   3607   3606   3614     1   110.1900474 564.840000
   3607   3608   3612     1   107.9700462 569.024000
   3607   3608   3624     1   107.9700462 569.024000
   3608   3607   3613     1   110.1900474 564.840000
   3612   3608   3624     1   108.2900466 608.353600
   3616   3602   3624     1   107.9700462 569.024000
   3625   3626   3629     1   111.5100476 526.347200
   3625   3626   3638     1   110.1900474 564.840000
   3625   3639   3645     1   110.1900474 564.840000
   3625   3647   3631     1   112.4800480 524.673600
   3626   3629   3630     1   111.5100476 526.347200
   3626   3629   3637     1   110.1900474 564.840000
   3626   3625   3639     1   111.5100476 526.347200
   3626   3625   3647     1   107.9700462 569.024000
   3629   3630   3631     1   111.5100476 526.347200
   3629   3630   3636     1   110.1900474 564.840000
   3629   3626   3638     1   110.1900474 564.840000
   3630   3631   3635     1   107.9700462 569.024000
   3630   3631   3647     1   107.9700462 569.024000
   3630   3629   3637     1   110.1900474 564.840000
   3631   3630   3636     1   110.1900474 564.840000
   3635   3631   3647     1   108.2900466 608.353600
   3639   3625   3647     1   107.9700462 569.024000
   3648   3649   3652     1   111.5100476 526.347200
   3648   3649   3661     1   110.1900474 564.840000
   3648   3662   3668     1   110.1900474 564.840000
   3648   3670   3654     1   112.4800480 524.673600
   3649   3648   3662     1   111.5100476 526.347200
   3649   3648   3670     1   107.9700462 569.024000
   3649   3652   3653     1   111.5100476 526.347200
   3649   3652   3660     1   110.1900474 564.840000
   3652   3649   3661     1   110.1900474 564.840000
   3652   3653   3654     1   111.5100476 526.347200
   3652   3653   3659     1   110.1900474 564.840000
   3653   3652   3660     1   110.1900474 564.840000
   3653   3654   3658     1   107.9700462 569.024000
   3653   3654   3670     1   107.9700462 569.024000
   3654   3653   3659     1   110.1900474 564.840000
   3658   3654   3670     1   108.2900466 608.353600
   3662   3648   3670     1   107.9700462 569.024000
   3671   3672   3675     1   111.5100476 526.347200
   3671   3672   3684     1   110.1900474 564.840000
   3671   3685   3691     1   110.1900474 564.840000
   3671   3693   3677     1   112.4800480 524.673600
   3672   3675   3676     1   111.5100476 526.347200
   3672   3675   3683     1   110.1900474 564.840000
   3672   3671   3685     1   111.5100476 526.347200
   3672   3671   3693     1   107.9700462 569.024000
   3675   3676   3677     1   111.5100476 526.347200
   3675   3676   3682     1   110.1900474 564.840000
   3675   3672   3684     1   110.1900474 564.840000
   3676   3677   3681     1   107.9700462 569.024000
   3676   3677   3693     1   107.9700462 569.024000
   3676   3675   3683     1   110.1900474 564.840000
   3677   3676   3682     1   110.1900474 564.840000
   3681   3677   3693     1   108.2900466 608.353600
   3685   3671   3693     1   107.9700462 569.024000
   3694   3695   3698     1   111.5100476 526.347200
   3694   3695   3707     1   110.1900474 564.840000
   3694   3708   3714     1   110.1900474 564.840000
   3694   3716   3700     1   112.4800480 524.673600
   3695   3694   3708     1   111.5100476 526.347200
   3695   3694   3716     1   107.9700462 569.024000
   3695   3698   3699     1   111.5100476 526.347200
   3695   3698   3706     1   110.1900474 564.840000
   3698   3695   3707     1   110.1900474 564.840000
   3698   3699   3700     1   111.5100476 526.347200
   3698   3699   3705     1   110.1900474 564.840000
   3699   3698   3706     1   110.1900474 564.840000
   3699   3700   3704     1   107.9700462 569.024000
   3699   3700   3716     1   107.9700462 569.024000
   3700   3699   3705     1   110.1900474 564.840000
   3704   3700   3716     1   108.2900466 608.353600
   3708   3694   3716     1   107.9700462 569.024000
   3717   3718   3721     1   111.5100476 526.347200
   3717   3718   3730     1   110.1900474 564.840000
   3717   3731   3737     1   110.1900474 564.840000
   3717   3739   3723     1   112.4800480 524.673600
   3718   3721   3722     1   111.5100476 526.347200
   3718   3721   3729     1   110.1900474 564.840000
   3718   3717   3731     1   111.5100476 526.347200
   3718   3717   3739     1   107.9700462 569.024000
   3721   3722   3723     1   111.5100476 526.347200
   3721   3722   3728     1   110.1900474 564.840000
   3721   3718   3730     1   110.1900474 564.840000
   3722   3723   3727     1   107.9700462 569.024000
   3722   3723   3739     1   107.9700462 569.024000
   3722   3721   3729     1   110.1900474 564.840000
   3723   3722   3728     1   110.1900474 564.840000
   3727   3723   3739     1   108.2900466 608.353600
   3731   3717   3739     1   107.9700462 569.024000
   3740   3741   3744     1   111.5100476 526.347200
   3740   3741   3753     1   110.1900474 564.840000
   3740   3754   3760     1   110.1900474 564.840000
   3740   3762   3746     1   112.4800480 524.673600
   3741   3740   3754     1   111.5100476 526.347200
   3741   3740   3762     1   107.9700462 569.024000
   3741   3744   3745     1   111.5100476 526.347200
   3741   3744   3752     1   110.1900474 564.840000
   3744   3741   3753     1   110.1900474 564.840000
   3744   3745   3746     1   111.5100476 526.347200
   3744   3745   3751     1   110.1900474 564.840000
   3745   3744   3752     1   110.1900474 564.840000
   3745   3746   3750     1   107.9700462 569.024000
   3745   3746   3762     1   107.9700462 569.024000
   3746   3745   3751     1   110.1900474 564.840000
   3750   3746   3762     1   108.2900466 608.353600
   3754   3740   3762     1   107.9700462 569.024000
   3763   3764   3767     1   111.5100476 526.347200
   3763   3764   3776     1   110.1900474 564.840000
   3763   3777   3783     1   110.1900474 564.840000
   3763   3785   3769     1   112.4800480 524.673600
   3764   3767   3768     1   111.5100476 526.347200
   3764   3767   3775     1   110.1900474 564.840000
   3764   3763   3777     1   111.5100476 526.347200
   3764   3763   3785     1   107.9700462 569.024000
   3767   3768   3769     1   111.5100476 526.347200
   3767   3768   3774     1   110.1900474 564.840000
   3767   3764   3776     1   110.1900474 564.840000
   3768   3769   3773     1   107.9700462 569.024000
   3768   3769   3785     1   107.9700462 569.024000
   3768   3767   3775     1   110.1900474 564.840000
   3769   3768   3774     1   110.1900474 564.840000
   3773   3769   3785     1   108.2900466 608.353600
   3777   3763   3785     1   107.9700462 569.024000
   3786   3787   3790     1   111.5100476 526.347200
   3786   3787   3799     1   110.1900474 564.840000
   3786   3800   3806     1   110.1900474 564.840000
   3786   3808   3792     1   112.4800480 524.673600
   3787   3786   3800     1   111.5100476 526.347200
   3787   3786   3808     1   107.9700462 569.024000
   3787   3790   3791     1   111.5100476 526.347200
   3787   3790   3798     1   110.1900474 564.840000
   3790   3787   3799     1   110.1900474 564.840000
   3790   3791   3792     1   111.5100476 526.347200
   3790   3791   3797     1   110.1900474 564.840000
   3791   3790   3798     1   110.1900474 564.840000
   3791   3792   3796     1   107.9700462 569.024000
   3791   3792   3808     1   107.9700462 569.024000
   3792   3791   3797     1   110.1900474 564.840000
   3796   3792   3808     1   108.2900466 608.353600
   3800   3786   3808     1   107.9700462 569.024000
   3809   3810   3813     1   111.5100476 526.347200
   3809   3810   3822     1   110.1900474 564.840000
   3809   3823   3829     1   110.1900474 564.840000
   3809   3831   3815     1   112.4800480 524.673600
   3810   3813   3814     1   111.5100476 526.347200
   3810   3813   3821     1   110.1900474 564.840000
   3810   3809   3823     1   111.5100476 526.347200
   3810   3809   3831     1   107.9700462 569.024000
   3813   3814   3815     1   111.5100476 526.347200
   3813   3814   3820     1   110.1900474 564.840000
   3813   3810   3822     1   110.1900474 564.840000
   3814   3815   3819     1   107.9700462 569.024000
   3814   3815   3831     1   107.9700462 569.024000
   3814   3813   3821     1   110.1900474 564.840000
   3815   3814   3820     1   110.1900474 564.840000
   3819   3815   3831     1   108.2900466 608.353600
   3823   3809   3831     1   107.9700462 569.024000
   3832   3833   3836     1   111.5100476 526.347200
   3832   3833   3845     1   110.1900474 564.840000
   3832   3846   3852     1   110.1900474 564.840000
   3832   3854   3838     1   112.4800480 524.673600
   3833   3832   3846     1   111.5100476 526.347200
   3833   3832   3854     1   107.9700462 569.024000
   3833   3836   3837     1   111.5100476 526.347200
   3833   3836   3844     1   110.1900474 564.840000
   3836   3833   3845     1   110.1900474 564.840000
   3836   3837   3838     1   111.5100476 526.347200
   3836   3837   3843     1   110.1900474 564.840000
   3837   3836   3844     1   110.1900474 564.840000
   3837   3838   3842     1   107.9700462 569.024000
   3837   3838   3854     1   107.9700462 569.024000
   3838   3837   3843     1   110.1900474 564.840000
   3842   3838   3854     1   108.2900466 608.353600
   3846   3832   3854     1   107.9700462 569.024000
   3855   3856   3859     1   111.5100476 526.347200
   3855   3856   3868     1   110.1900474 564.840000
   3855   3869   3875     1   110.1900474 564.840000
   3855   3877   3861     1   112.4800480 524.673600
   3856   3859   3860     1   111.5100476 526.347200
   3856   3859   3867     1   110.1900474 564.840000
   3856   3855   3869     1   111.5100476 526.347200
   3856   3855   3877     1   107.9700462 569.024000
   3859   3860   3861     1   111.5100476 526.347200
   3859   3860   3866     1   110.1900474 564.840000
   3859   3856   3868     1   110.1900474 564.840000
   3860   3861   3865     1   107.9700462 569.024000
   3860   3861   3877     1   107.9700462 569.024000
   3860   3859   3867     1   110.1900474 564.840000
   3861   3860   3866     1   110.1900474 564.840000
   3865   3861   3877     1   108.2900466 608.353600
   3869   3855   3877     1   107.9700462 569.024000
   3878   3879   3882     1   111.5100476 526.347200
   3878   3879   3891     1   110.1900474 564.840000
   3878   3892   3898     1   110.1900474 564.840000
   3878   3900   3884     1   112.4800480 524.673600
   3879   3878   3892     1   111.5100476 526.347200
   3879   3878   3900     1   107.9700462 569.024000
   3879   3882   3883     1   111.5100476 526.347200
   3879   3882   3890     1   110.1900474 564.840000
   3882   3879   3891     1   110.1900474 564.840000
   3882   3883   3884     1   111.5100476 526.347200
   3882   3883   3889     1   110.1900474 564.840000
   3883   3882   3890     1   110.1900474 564.840000
   3883   3884   3888     1   107.9700462 569.024000
   3883   3884   3900     1   107.9700462 569.024000
   3884   3883   3889     1   110.1900474 564.840000
   3888   3884   3900     1   108.2900466 608.353600
   3892   3878   3900     1   107.9700462 569.024000
   3901   3902   3905     1   111.5100476 526.347200
   3901   3902   3914     1   110.1900474 564.840000
   3901   3915   3921     1   110.1900474 564.840000
   3901   3923   3907     1   112.4800480 524.673600
   3902   3905   3906     1   111.5100476 526.347200
   3902   3905   3913     1   110.1900474 564.840000
   3902   3901   3915     1   111.5100476 526.347200
   3902   3901   3923     1   107.9700462 569.024000
   3905   3906   3907     1   111.5100476 526.347200
   3905   3906   3912     1   110.1900474 564.840000
   3905   3902   3914     1   110.1900474 564.840000
   3906   3907   3911     1   107.9700462 569.024000
   3906   3907   3923     1   107.9700462 569.024000
   3906   3905   3913     1   110.1900474 564.840000
   3907   3906   3912     1   110.1900474 564.840000
   3911   3907   3923     1   108.2900466 608.353600
   3915   3901   3923     1   107.9700462 569.024000
   3924   3925   3928     1   111.5100476 526.347200
   3924   3925   3937     1   110.1900474 564.840000
   3924   3938   3944     1   110.1900474 564.840000
   3924   3946   3930     1   112.4800480 524.673600
   3925   3924   3938     1   111.5100476 526.347200
   3925   3924   3946     1   107.9700462 569.024000
   3925   3928   3929     1   111.5100476 526.347200
   3925   3928   3936     1   110.1900474 564.840000
   3928   3925   3937     1   110.1900474 564.840000
   3928   3929   3930     1   111.5100476 526.347200
   3928   3929   3935     1   110.1900474 564.840000
   3929   3928   3936     1   110.1900474 564.840000
   3929   3930   3934     1   107.9700462 569.024000
   3929   3930   3946     1   107.9700462 569.024000
   3930   3929   3935     1   110.1900474 564.840000
   3934   3930   3946     1   108.2900466 608.353600
   3938   3924   3946     1   107.9700462 569.024000
   3947   3948   3951     1   111.5100476 526.347200
   3947   3948   3960     1   110.1900474 564.840000
   3947   3961   3967     1   110.1900474 564.840000
   3947   3969   3953     1   112.4800480 524.673600
   3948   3951   3952     1   111.5100476 526.347200
   3948   3951   3959     1   110.1900474 564.840000
   3948   3947   3961     1   111.5100476 526.347200
   3948   3947   3969     1   107.9700462 569.024000
   3951   3952   3953     1   111.5100476 526.347200
   3951   3952   3958     1   110.1900474 564.840000
   3951   3948   3960     1   110.1900474 564.840000
   3952   3953   3957     1   107.9700462 569.024000
   3952   3953   3969     1   107.9700462 569.024000
   3952   3951   3959     1   110.1900474 564.840000
   3953   3952   3958     1   110.1900474 564.840000
   3957   3953   3969     1   108.2900466 608.353600
   3961   3947   3969     1   107.9700462 569.024000
   3970   3971   3974     1   111.5100476 526.347200
   3970   3971   3983     1   110.1900474 564.840000
   3970   3984   3990     1   110.1900474 564.840000
   3970   3992   3976     1   112.4800480 524.673600
   3971   3970   3984     1   111.5100476 526.347200
   3971   3970   3992     1   107.9700462 569.024000
   3971   3974   3975     1   111.5100476 526.347200
   3971   3974   3982     1   110.1900474 564.840000
   3974   3971   3983     1   110.1900474 564.840000
   3974   3975   3976     1   111.5100476 526.347200
   3974   3975   3981     1   110.1900474 564.840000
   3975   3974   3982     1   110.1900474 564.840000
   3975   3976   3980     1   107.9700462 569.024000
   3975   3976   3992     1   107.9700462 569.024000
   3976   3975   3981     1   110.1900474 564.840000
   3980   3976   3992     1   108.2900466 608.353600
   3984   3970   3992     1   107.9700462 569.024000
   3993   3994   3997     1   111.5100476 526.347200
   3993   3994   4006     1   110.1900474 564.840000
   3993   4007   4013     1   110.1900474 564.840000
   3993   4015   3999     1   112.4800480 524.673600
   3994   3997   3998     1   111.5100476 526.347200
   3994   3997   4005     1   110.1900474 564.840000
   3994   3993   4007     1   111.5100476 526.347200
   3994   3993   4015     1   107.9700462 569.024000
   3997   3998   3999     1   111.5100476 526.347200
   3997   3998   4004     1   110.1900474 564.840000
   3997   3994   4006     1   110.1900474 564.840000
   3998   3999   4003     1   107.9700462 569.024000
   3998   3999   4015     1   107.9700462 569.024000
   3998   3997   4005     1   110.1900474 564.840000
   3999   3998   4004     1   110.1900474 564.840000
   4003   3999   4015     1   108.2900466 608.353600
   4007   3993   4015     1   107.9700462 569.024000
   4016   4017   4020     1   111.5100476 526.347200
   4016   4017   4029     1   110.1900474 564.840000
   4016   4030   4036     1   110.1900474 564.840000
   4016   4038   4022     1   112.4800480 524.673600
   4017   4016   4030     1   111.5100476 526.347200
   4017   4016   4038     1   107.9700462 569.024000
   4017   4020   4021     1   111.5100476 526.347200
   4017   4020   4028     1   110.1900474 564.840000
   4020   4017   4029     1   110.1900474 564.840000
   4020   4021   4022     1   111.5100476 526.347200
   4020   4021   4027     1   110.1900474 564.840000
   4021   4020   4028     1   110.1900474 564.840000
   4021   4022   4026     1   107.9700462 569.024000
   4021   4022   4038     1   107.9700462 569.024000
   4022   4021   4027     1   110.1900474 564.840000
   4026   4022   4038     1   108.2900466 608.353600
   4030   4016   4038     1   107.9700462 569.024000
   4039   4040   4043     1   111.5100476 526.347200
   4039   4040   4052     1   110.1900474 564.840000
   4039   4053   4059     1   110.1900474 564.840000
   4039   4061   4045     1   112.4800480 524.673600
   4040   4043   4044     1   111.5100476 526.347200
   4040   4043   4051     1   110.1900474 564.840000
   4040   4039   4053     1   111.5100476 526.347200
   4040   4039   4061     1   107.9700462 569.024000
   4043   4044   4045     1   111.5100476 526.347200
   4043   4044   4050     1   110.1900474 564.840000
   4043   4040   4052     1   110.1900474 564.840000
   4044   4045   4049     1   107.9700462 569.024000
   4044   4045   4061     1   107.9700462 569.024000
   4044   4043   4051     1   110.1900474 564.840000
   4045   4044   4050     1   110.1900474 564.840000
   4049   4045   4061     1   108.2900466 608.353600
   4053   4039   4061     1   107.9700462 569.024000
   4062   4063   4066     1   111.5100476 526.347200
   4062   4063   4075     1   110.1900474 564.840000
   4062   4076   4082     1   110.1900474 564.840000
   4062   4084   4068     1   112.4800480 524.673600
   4063   4062   4076     1   111.5100476 526.347200
   4063   4062   4084     1   107.9700462 569.024000
   4063   4066   4067     1   111.5100476 526.347200
   4063   4066   4074     1   110.1900474 564.840000
   4066   4063   4075     1   110.1900474 564.840000
   4066   4067   4068     1   111.5100476 526.347200
   4066   4067   4073     1   110.1900474 564.840000
   4067   4066   4074     1   110.1900474 564.840000
   4067   4068   4072     1   107.9700462 569.024000
   4067   4068   4084     1   107.9700462 569.024000
   4068   4067   4073     1   110.1900474 564.840000
   4072   4068   4084     1   108.2900466 608.353600
   4076   4062   4084     1   107.9700462 569.024000
   4085   4086   4089     1   111.5100476 526.347200
   4085   4086   4098     1   110.1900474 564.840000
   4085   4099   4105     1   110.1900474 564.840000
   4085   4107   4091     1   112.4800480 524.673600
   4086   4089   4090     1   111.5100476 526.347200
   4086   4089   4097     1   110.1900474 564.840000
   4086   4085   4099     1   111.5100476 526.347200
   4086   4085   4107     1   107.9700462 569.024000
   4089   4090   4091     1   111.5100476 526.347200
   4089   4090   4096     1   110.1900474 564.840000
   4089   4086   4098     1   110.1900474 564.840000
   4090   4091   4095     1   107.9700462 569.024000
   4090   4091   4107     1   107.9700462 569.024000
   4090   4089   4097     1   110.1900474 564.840000
   4091   4090   4096     1   110.1900474 564.840000
   4095   4091   4107     1   108.2900466 608.353600
   4099   4085   4107     1   107.9700462 569.024000
   4108   4109   4112     1   111.5100476 526.347200
   4108   4109   4121     1   110.1900474 564.840000
   4108   4122   4128     1   110.1900474 564.840000
   4108   4130   4114     1   112.4800480 524.673600
   4109   4108   4122     1   111.5100476 526.347200
   4109   4108   4130     1   107.9700462 569.024000
   4109   4112   4113     1   111.5100476 526.347200
   4109   4112   4120     1   110.1900474 564.840000
   4112   4109   4121     1   110.1900474 564.840000
   4112   4113   4114     1   111.5100476 526.347200
   4112   4113   4119     1   110.1900474 564.840000
   4113   4112   4120     1   110.1900474 564.840000
   4113   4114   4118     1   107.9700462 569.024000
   4113   4114   4130     1   107.9700462 569.024000
   4114   4113   4119     1   110.1900474 564.840000
   4118   4114   4130     1   108.2900466 608.353600
   4122   4108   4130     1   107.9700462 569.024000
   4131   4132   4135     1   111.5100476 526.347200
   4131   4132   4144     1   110.1900474 564.840000
   4131   4145   4151     1   110.1900474 564.840000
   4131   4153   4137     1   112.4800480 524.673600
   4132   4135   4136     1   111.5100476 526.347200
   4132   4135   4143     1   110.1900474 564.840000
   4132   4131   4145     1   111.5100476 526.347200
   4132   4131   4153     1   107.9700462 569.024000
   4135   4136   4137     1   111.5100476 526.347200
   4135   4136   4142     1   110.1900474 564.840000
   4135   4132   4144     1   110.1900474 564.840000
   4136   4137   4141     1   107.9700462 569.024000
   4136   4137   4153     1   107.9700462 569.024000
   4136   4135   4143     1   110.1900474 564.840000
   4137   4136   4142     1   110.1900474 564.840000
   4141   4137   4153     1   108.2900466 608.353600
   4145   4131   4153     1   107.9700462 569.024000
   4154   4155   4158     1   111.5100476 526.347200
   4154   4155   4167     1   110.1900474 564.840000
   4154   4168   4174     1   110.1900474 564.840000
   4154   4176   4160     1   112.4800480 524.673600
   4155   4154   4168     1   111.5100476 526.347200
   4155   4154   4176     1   107.9700462 569.024000
   4155   4158   4159     1   111.5100476 526.347200
   4155   4158   4166     1   110.1900474 564.840000
   4158   4155   4167     1   110.1900474 564.840000
   4158   4159   4160     1   111.5100476 526.347200
   4158   4159   4165     1   110.1900474 564.840000
   4159   4158   4166     1   110.1900474 564.840000
   4159   4160   4164     1   107.9700462 569.024000
   4159   4160   4176     1   107.9700462 569.024000
   4160   4159   4165     1   110.1900474 564.840000
   4164   4160   4176     1   108.2900466 608.353600
   4168   4154   4176     1   107.9700462 569.024000
   4177   4178   4181     1   111.5100476 526.347200
   4177   4178   4190     1   110.1900474 564.840000
   4177   4191   4197     1   110.1900474 564.840000
   4177   4199   4183     1   112.4800480 524.673600
   4178   4181   4182     1   111.5100476 526.347200
   4178   4181   4189     1   110.1900474 564.840000
   4178   4177   4191     1   111.5100476 526.347200
   4178   4177   4199     1   107.9700462 569.024000
   4181   4182   4183     1   111.5100476 526.347200
   4181   4182   4188     1   110.1900474 564.840000
   4181   4178   4190     1   110.1900474 564.840000
   4182   4183   4187     1   107.9700462 569.024000
   4182   4183   4199     1   107.9700462 569.024000
   4182   4181   4189     1   110.1900474 564.840000
   4183   4182   4188     1   110.1900474 564.840000
   4187   4183   4199     1   108.2900466 608.353600
   4191   4177   4199     1   107.9700462 569.024000
   4200   4201   4204     1   111.5100476 526.347200
   4200   4201   4213     1   110.1900474 564.840000
   4200   4214   4220     1   110.1900474 564.840000
   4200   4222   4206     1   112.4800480 524.673600
   4201   4200   4214     1   111.5100476 526.347200
   4201   4200   4222     1   107.9700462 569.024000
   4201   4204   4205     1   111.5100476 526.347200
   4201   4204   4212     1   110.1900474 564.840000
   4204   4201   4213     1   110.1900474 564.840000
   4204   4205   4206     1   111.5100476 526.347200
   4204   4205   4211     1   110.1900474 564.840000
   4205   4204   4212     1   110.1900474 564.840000
   4205   4206   4210     1   107.9700462 569.024000
   4205   4206   4222     1   107.9700462 569.024000
   4206   4205   4211     1   110.1900474 564.840000
   4210   4206   4222     1   108.2900466 608.353600
   4214   4200   4222     1   107.9700462 569.024000
   4223   4224   4227     1   111.5100476 526.347200
   4223   4224   4236     1   110.1900474 564.840000
   4223   4237   4243     1   110.1900474 564.840000
   4223   4245   4229     1   112.4800480 524.673600
   4224   4227   4228     1   111.5100476 526.347200
   4224   4227   4235     1   110.1900474 564.840000
   4224   4223   4237     1   111.5100476 526.347200
   4224   4223   4245     1   107.9700462 569.024000
   4227   4228   4229     1   111.5100476 526.347200
   4227   4228   4234     1   110.1900474 564.840000
   4227   4224   4236     1   110.1900474 564.840000
   4228   4229   4233     1   107.9700462 569.024000
   4228   4229   4245     1   107.9700462 569.024000
   4228   4227   4235     1   110.1900474 564.840000
   4229   4228   4234     1   110.1900474 564.840000
   4233   4229   4245     1   108.2900466 608.353600
   4237   4223   4245     1   107.9700462 569.024000
   4246   4247   4250     1   111.5100476 526.347200
   4246   4247   4259     1   110.1900474 564.840000
   4246   4260   4266     1   110.1900474 564.840000
   4246   4268   4252     1   112.4800480 524.673600
   4247   4246   4260     1   111.5100476 526.347200
   4247   4246   4268     1   107.9700462 569.024000
   4247   4250   4251     1   111.5100476 526.347200
   4247   4250   4258     1   110.1900474 564.840000
   4250   4247   4259     1   110.1900474 564.840000
   4250   4251   4252     1   111.5100476 526.347200
   4250   4251   4257     1   110.1900474 564.840000
   4251   4250   4258     1   110.1900474 564.840000
   4251   4252   4256     1   107.9700462 569.024000
   4251   4252   4268     1   107.9700462 569.024000
   4252   4251   4257     1   110.1900474 564.840000
   4256   4252   4268     1   108.2900466 608.353600
   4260   4246   4268     1   107.9700462 569.024000
   4269   4270   4273     1   111.5100476 526.347200
   4269   4270   4282     1   110.1900474 564.840000
   4269   4283   4289     1   110.1900474 564.840000
   4269   4291   4275     1   112.4800480 524.673600
   4270   4273   4274     1   111.5100476 526.347200
   4270   4273   4281     1   110.1900474 564.840000
   4270   4269   4283     1   111.5100476 526.347200
   4270   4269   4291     1   107.9700462 569.024000
   4273   4274   4275     1   111.5100476 526.347200
   4273   4274   4280     1   110.1900474 564.840000
   4273   4270   4282     1   110.1900474 564.840000
   4274   4275   4279     1   107.9700462 569.024000
   4274   4275   4291     1   107.9700462 569.024000
   4274   4273   4281     1   110.1900474 564.840000
   4275   4274   4280     1   110.1900474 564.840000
   4279   4275   4291     1   108.2900466 608.353600
   4283   4269   4291     1   107.9700462 569.024000
   4292   4293   4296     1   111.5100476 526.347200
   4292   4293   4305     1   110.1900474 564.840000
   4292   4306   4312     1   110.1900474 564.840000
   4292   4314   4298     1   112.4800480 524.673600
   4293   4292   4306     1   111.5100476 526.347200
   4293   4292   4314     1   107.9700462 569.024000
   4293   4296   4297     1   111.5100476 526.347200
   4293   4296   4304     1   110.1900474 564.840000
   4296   4293   4305     1   110.1900474 564.840000
   4296   4297   4298     1   111.5100476 526.347200
   4296   4297   4303     1   110.1900474 564.840000
   4297   4296   4304     1   110.1900474 564.840000
   4297   4298   4302     1   107.9700462 569.024000
   4297   4298   4314     1   107.9700462 569.024000
   4298   4297   4303     1   110.1900474 564.840000
   4302   4298   4314     1   108.2900466 608.353600
   4306   4292   4314     1   107.9700462 569.024000
   4315   4316   4319     1   111.5100476 526.347200
   4315   4316   4328     1   110.1900474 564.840000
   4315   4329   4335     1   110.1900474 564.840000
   4315   4337   4321     1   112.4800480 524.673600
   4316   4319   4320     1   111.5100476 526.347200
   4316   4319   4327     1   110.1900474 564.840000
   4316   4315   4329     1   111.5100476 526.347200
   4316   4315   4337     1   107.9700462 569.024000
   4319   4320   4321     1   111.5100476 526.347200
   4319   4320   4326     1   110.1900474 564.840000
   4319   4316   4328     1   110.1900474 564.840000
   4320   4321   4325     1   107.9700462 569.024000
   4320   4321   4337     1   107.9700462 569.024000
   4320   4319   4327     1   110.1900474 564.840000
   4321   4320   4326     1   110.1900474 564.840000
   4325   4321   4337     1   108.2900466 608.353600
   4329   4315   4337     1   107.9700462 569.024000
   4338   4339   4342     1   111.5100476 526.347200
   4338   4339   4351     1   110.1900474 564.840000
   4338   4352   4358     1   110.1900474 564.840000
   4338   4360   4344     1   112.4800480 524.673600
   4339   4338   4352     1   111.5100476 526.347200
   4339   4338   4360     1   107.9700462 569.024000
   4339   4342   4343     1   111.5100476 526.347200
   4339   4342   4350     1   110.1900474 564.840000
   4342   4339   4351     1   110.1900474 564.840000
   4342   4343   4344     1   111.5100476 526.347200
   4342   4343   4349     1   110.1900474 564.840000
   4343   4342   4350     1   110.1900474 564.840000
   4343   4344   4348     1   107.9700462 569.024000
   4343   4344   4360     1   107.9700462 569.024000
   4344   4343   4349     1   110.1900474 564.840000
   4348   4344   4360     1   108.2900466 608.353600
   4352   4338   4360     1   107.9700462 569.024000
   4361   4362   4365     1   111.5100476 526.347200
   4361   4362   4374     1   110.1900474 564.840000
   4361   4375   4381     1   110.1900474 564.840000
   4361   4383   4367     1   112.4800480 524.673600
   4362   4365   4366     1   111.5100476 526.347200
   4362   4365   4373     1   110.1900474 564.840000
   4362   4361   4375     1   111.5100476 526.347200
   4362   4361   4383     1   107.9700462 569.024000
   4365   4366   4367     1   111.5100476 526.347200
   4365   4366   4372     1   110.1900474 564.840000
   4365   4362   4374     1   110.1900474 564.840000
   4366   4367   4371     1   107.9700462 569.024000
   4366   4367   4383     1   107.9700462 569.024000
   4366   4365   4373     1   110.1900474 564.840000
   4367   4366   4372     1   110.1900474 564.840000
   4371   4367   4383     1   108.2900466 608.353600
   4375   4361   4383     1   107.9700462 569.024000
   4384   4385   4388     1   111.5100476 526.347200
   4384   4385   4397     1   110.1900474 564.840000
   4384   4398   4404     1   110.1900474 564.840000
   4384   4406   4390     1   112.4800480 524.673600
   4385   4384   4398     1   111.5100476 526.347200
   4385   4384   4406     1   107.9700462 569.024000
   4385   4388   4389     1   111.5100476 526.347200
   4385   4388   4396     1   110.1900474 564.840000
   4388   4385   4397     1   110.1900474 564.840000
   4388   4389   4390     1   111.5100476 526.347200
   4388   4389   4395     1   110.1900474 564.840000
   4389   4388   4396     1   110.1900474 564.840000
   4389   4390   4394     1   107.9700462 569.024000
   4389   4390   4406     1   107.9700462 569.024000
   4390   4389   4395     1   110.1900474 564.840000
   4394   4390   4406     1   108.2900466 608.353600
   4398   4384   4406     1   107.9700462 569.024000
   4407   4408   4411     1   111.5100476 526.347200
   4407   4408   4420     1   110.1900474 564.840000
   4407   4421   4427     1   110.1900474 564.840000
   4407   4429   4413     1   112.4800480 524.673600
   4408   4411   4412     1   111.5100476 526.347200
   4408   4411   4419     1   110.1900474 564.840000
   4408   4407   4421     1   111.5100476 526.347200
   4408   4407   4429     1   107.9700462 569.024000
   4411   4412   4413     1   111.5100476 526.347200
   4411   4412   4418     1   110.1900474 564.840000
   4411   4408   4420     1   110.1900474 564.840000
   4412   4413   4417     1   107.9700462 569.024000
   4412   4413   4429     1   107.9700462 569.024000
   4412   4411   4419     1   110.1900474 564.840000
   4413   4412   4418     1   110.1900474 564.840000
   4417   4413   4429     1   108.2900466 608.353600
   4421   4407   4429     1   107.9700462 569.024000
   4430   4431   4434     1   111.5100476 526.347200
   4430   4431   4443     1   110.1900474 564.840000
   4430   4444   4450     1   110.1900474 564.840000
   4430   4452   4436     1   112.4800480 524.673600
   4431   4430   4444     1   111.5100476 526.347200
   4431   4430   4452     1   107.9700462 569.024000
   4431   4434   4435     1   111.5100476 526.347200
   4431   4434   4442     1   110.1900474 564.840000
   4434   4431   4443     1   110.1900474 564.840000
   4434   4435   4436     1   111.5100476 526.347200
   4434   4435   4441     1   110.1900474 564.840000
   4435   4434   4442     1   110.1900474 564.840000
   4435   4436   4440     1   107.9700462 569.024000
   4435   4436   4452     1   107.9700462 569.024000
   4436   4435   4441     1   110.1900474 564.840000
   4440   4436   4452     1   108.2900466 608.353600
   4444   4430   4452     1   107.9700462 569.024000
   4453   4454   4457     1   111.5100476 526.347200
   4453   4454   4466     1   110.1900474 564.840000
   4453   4467   4473     1   110.1900474 564.840000
   4453   4475   4459     1   112.4800480 524.673600
   4454   4457   4458     1   111.5100476 526.347200
   4454   4457   4465     1   110.1900474 564.840000
   4454   4453   4467     1   111.5100476 526.347200
   4454   4453   4475     1   107.9700462 569.024000
   4457   4458   4459     1   111.5100476 526.347200
   4457   4458   4464     1   110.1900474 564.840000
   4457   4454   4466     1   110.1900474 564.840000
   4458   4459   4463     1   107.9700462 569.024000
   4458   4459   4475     1   107.9700462 569.024000
   4458   4457   4465     1   110.1900474 564.840000
   4459   4458   4464     1   110.1900474 564.840000
   4463   4459   4475     1   108.2900466 608.353600
   4467   4453   4475     1   107.9700462 569.024000
   4476   4477   4480     1   111.5100476 526.347200
   4476   4477   4489     1   110.1900474 564.840000
   4476   4490   4496     1   110.1900474 564.840000
   4476   4498   4482     1   112.4800480 524.673600
   4477   4476   4490     1   111.5100476 526.347200
   4477   4476   4498     1   107.9700462 569.024000
   4477   4480   4481     1   111.5100476 526.347200
   4477   4480   4488     1   110.1900474 564.840000
   4480   4477   4489     1   110.1900474 564.840000
   4480   4481   4482     1   111.5100476 526.347200
   4480   4481   4487     1   110.1900474 564.840000
   4481   4480   4488     1   110.1900474 564.840000
   4481   4482   4486     1   107.9700462 569.024000
   4481   4482   4498     1   107.9700462 569.024000
   4482   4481   4487     1   110.1900474 564.840000
   4486   4482   4498     1   108.2900466 608.353600
   4490   4476   4498     1   107.9700462 569.024000
   4499   4500   4503     1   111.5100476 526.347200
   4499   4500   4512     1   110.1900474 564.840000
   4499   4513   4519     1   110.1900474 564.840000
   4499   4521   4505     1   112.4800480 524.673600
   4500   4503   4504     1   111.5100476 526.347200
   4500   4503   4511     1   110.1900474 564.840000
   4500   4499   4513     1   111.5100476 526.347200
   4500   4499   4521     1   107.9700462 569.024000
   4503   4504   4505     1   111.5100476 526.347200
   4503   4504   4510     1   110.1900474 564.840000
   4503   4500   4512     1   110.1900474 564.840000
   4504   4505   4509     1   107.9700462 569.024000
   4504   4505   4521     1   107.9700462 569.024000
   4504   4503   4511     1   110.1900474 564.840000
   4505   4504   4510     1   110.1900474 564.840000
   4509   4505   4521     1   108.2900466 608.353600
   4513   4499   4521     1   107.9700462 569.024000
   4522   4523   4526     1   111.5100476 526.347200
   4522   4523   4535     1   110.1900474 564.840000
   4522   4536   4542     1   110.1900474 564.840000
   4522   4544   4528     1   112.4800480 524.673600
   4523   4522   4536     1   111.5100476 526.347200
   4523   4522   4544     1   107.9700462 569.024000
   4523   4526   4527     1   111.5100476 526.347200
   4523   4526   4534     1   110.1900474 564.840000
   4526   4523   4535     1   110.1900474 564.840000
   4526   4527   4528     1   111.5100476 526.347200
   4526   4527   4533     1   110.1900474 564.840000
   4527   4526   4534     1   110.1900474 564.840000
   4527   4528   4532     1   107.9700462 569.024000
   4527   4528   4544     1   107.9700462 569.024000
   4528   4527   4533     1   110.1900474 564.840000
   4532   4528   4544     1   108.2900466 608.353600
   4536   4522   4544     1   107.9700462 569.024000
   4545   4546   4549     1   111.5100476 526.347200
   4545   4546   4558     1   110.1900474 564.840000
   4545   4559   4565     1   110.1900474 564.840000
   4545   4567   4551     1   112.4800480 524.673600
   4546   4549   4550     1   111.5100476 526.347200
   4546   4549   4557     1   110.1900474 564.840000
   4546   4545   4559     1   111.5100476 526.347200
   4546   4545   4567     1   107.9700462 569.024000
   4549   4550   4551     1   111.5100476 526.347200
   4549   4550   4556     1   110.1900474 564.840000
   4549   4546   4558     1   110.1900474 564.840000
   4550   4551   4555     1   107.9700462 569.024000
   4550   4551   4567     1   107.9700462 569.024000
   4550   4549   4557     1   110.1900474 564.840000
   4551   4550   4556     1   110.1900474 564.840000
   4555   4551   4567     1   108.2900466 608.353600
   4559   4545   4567     1   107.9700462 569.024000
   4568   4569   4572     1   111.5100476 526.347200
   4568   4569   4581     1   110.1900474 564.840000
   4568   4582   4588     1   110.1900474 564.840000
   4568   4590   4574     1   112.4800480 524.673600
   4569   4568   4582     1   111.5100476 526.347200
   4569   4568   4590     1   107.9700462 569.024000
   4569   4572   4573     1   111.5100476 526.347200
   4569   4572   4580     1   110.1900474 564.840000
   4572   4569   4581     1   110.1900474 564.840000
   4572   4573   4574     1   111.5100476 526.347200
   4572   4573   4579     1   110.1900474 564.840000
   4573   4572   4580     1   110.1900474 564.840000
   4573   4574   4578     1   107.9700462 569.024000
   4573   4574   4590     1   107.9700462 569.024000
   4574   4573   4579     1   110.1900474 564.840000
   4578   4574   4590     1   108.2900466 608.353600
   4582   4568   4590     1   107.9700462 569.024000
   4591   4592   4595     1   111.5100476 526.347200
   4591   4592   4604     1   110.1900474 564.840000
   4591   4605   4611     1   110.1900474 564.840000
   4591   4613   4597     1   112.4800480 524.673600
   4592   4595   4596     1   111.5100476 526.347200
   4592   4595   4603     1   110.1900474 564.840000
   4592   4591   4605     1   111.5100476 526.347200
   4592   4591   4613     1   107.9700462 569.024000
   4595   4596   4597     1   111.5100476 526.347200
   4595   4596   4602     1   110.1900474 564.840000
   4595   4592   4604     1   110.1900474 564.840000
   4596   4597   4601     1   107.9700462 569.024000
   4596   4597   4613     1   107.9700462 569.024000
   4596   4595   4603     1   110.1900474 564.840000
   4597   4596   4602     1   110.1900474 564.840000
   4601   4597   4613     1   108.2900466 608.353600
   4605   4591   4613     1   107.9700462 569.024000
   4614   4615   4618     1   111.5100476 526.347200
   4614   4615   4627     1   110.1900474 564.840000
   4614   4628   4634     1   110.1900474 564.840000
   4614   4636   4620     1   112.4800480 524.673600
   4615   4614   4628     1   111.5100476 526.347200
   4615   4614   4636     1   107.9700462 569.024000
   4615   4618   4619     1   111.5100476 526.347200
   4615   4618   4626     1   110.1900474 564.840000
   4618   4615   4627     1   110.1900474 564.840000
   4618   4619   4620     1   111.5100476 526.347200
   4618   4619   4625     1   110.1900474 564.840000
   4619   4618   4626     1   110.1900474 564.840000
   4619   4620   4624     1   107.9700462 569.024000
   4619   4620   4636     1   107.9700462 569.024000
   4620   4619   4625     1   110.1900474 564.840000
   4624   4620   4636     1   108.2900466 608.353600
   4628   4614   4636     1   107.9700462 569.024000
   4637   4638   4641     1   111.5100476 526.347200
   4637   4638   4650     1   110.1900474 564.840000
   4637   4651   4657     1   110.1900474 564.840000
   4637   4659   4643     1   112.4800480 524.673600
   4638   4641   4642     1   111.5100476 526.347200
   4638   4641   4649     1   110.1900474 564.840000
   4638   4637   4651     1   111.5100476 526.347200
   4638   4637   4659     1   107.9700462 569.024000
   4641   4642   4643     1   111.5100476 526.347200
   4641   4642   4648     1   110.1900474 564.840000
   4641   4638   4650     1   110.1900474 564.840000
   4642   4643   4647     1   107.9700462 569.024000
   4642   4643   4659     1   107.9700462 569.024000
   4642   4641   4649     1   110.1900474 564.840000
   4643   4642   4648     1   110.1900474 564.840000
   4647   4643   4659     1   108.2900466 608.353600
   4651   4637   4659     1   107.9700462 569.024000
   4660   4661   4664     1   111.5100476 526.347200
   4660   4661   4673     1   110.1900474 564.840000
   4660   4674   4680     1   110.1900474 564.840000
   4660   4682   4666     1   112.4800480 524.673600
   4661   4660   4674     1   111.5100476 526.347200
   4661   4660   4682     1   107.9700462 569.024000
   4661   4664   4665     1   111.5100476 526.347200
   4661   4664   4672     1   110.1900474 564.840000
   4664   4661   4673     1   110.1900474 564.840000
   4664   4665   4666     1   111.5100476 526.347200
   4664   4665   4671     1   110.1900474 564.840000
   4665   4664   4672     1   110.1900474 564.840000
   4665   4666   4670     1   107.9700462 569.024000
   4665   4666   4682     1   107.9700462 569.024000
   4666   4665   4671     1   110.1900474 564.840000
   4670   4666   4682     1   108.2900466 608.353600
   4674   4660   4682     1   107.9700462 569.024000
   4683   4684   4687     1   111.5100476 526.347200
   4683   4684   4696     1   110.1900474 564.840000
   4683   4697   4703     1   110.1900474 564.840000
   4683   4705   4689     1   112.4800480 524.673600
   4684   4687   4688     1   111.5100476 526.347200
   4684   4687   4695     1   110.1900474 564.840000
   4684   4683   4697     1   111.5100476 526.347200
   4684   4683   4705     1   107.9700462 569.024000
   4687   4688   4689     1   111.5100476 526.347200
   4687   4688   4694     1   110.1900474 564.840000
   4687   4684   4696     1   110.1900474 564.840000
   4688   4689   4693     1   107.9700462 569.024000
   4688   4689   4705     1   107.9700462 569.024000
   4688   4687   4695     1   110.1900474 564.840000
   4689   4688   4694     1   110.1900474 564.840000
   4693   4689   4705     1   108.2900466 608.353600
   4697   4683   4705     1   107.9700462 569.024000
   4706   4707   4710     1   111.5100476 526.347200
   4706   4707   4719     1   110.1900474 564.840000
   4706   4720   4726     1   110.1900474 564.840000
   4706   4728   4712     1   112.4800480 524.673600
   4707   4706   4720     1   111.5100476 526.347200
   4707   4706   4728     1   107.9700462 569.024000
   4707   4710   4711     1   111.5100476 526.347200
   4707   4710   4718     1   110.1900474 564.840000
   4710   4707   4719     1   110.1900474 564.840000
   4710   4711   4712     1   111.5100476 526.347200
   4710   4711   4717     1   110.1900474 564.840000
   4711   4710   4718     1   110.1900474 564.840000
   4711   4712   4716     1   107.9700462 569.024000
   4711   4712   4728     1   107.9700462 569.024000
   4712   4711   4717     1   110.1900474 564.840000
   4716   4712   4728     1   108.2900466 608.353600
   4720   4706   4728     1   107.9700462 569.024000
   4729   4730   4733     1   111.5100476 526.347200
   4729   4730   4742     1   110.1900474 564.840000
   4729   4743   4749     1   110.1900474 564.840000
   4729   4751   4735     1   112.4800480 524.673600
   4730   4733   4734     1   111.5100476 526.347200
   4730   4733   4741     1   110.1900474 564.840000
   4730   4729   4743     1   111.5100476 526.347200
   4730   4729   4751     1   107.9700462 569.024000
   4733   4734   4735     1   111.5100476 526.347200
   4733   4734   4740     1   110.1900474 564.840000
   4733   4730   4742     1   110.1900474 564.840000
   4734   4735   4739     1   107.9700462 569.024000
   4734   4735   4751     1   107.9700462 569.024000
   4734   4733   4741     1   110.1900474 564.840000
   4735   4734   4740     1   110.1900474 564.840000
   4739   4735   4751     1   108.2900466 608.353600
   4743   4729   4751     1   107.9700462 569.024000
   4752   4753   4756     1   111.5100476 526.347200
   4752   4753   4765     1   110.1900474 564.840000
   4752   4766   4772     1   110.1900474 564.840000
   4752   4774   4758     1   112.4800480 524.673600
   4753   4752   4766     1   111.5100476 526.347200
   4753   4752   4774     1   107.9700462 569.024000
   4753   4756   4757     1   111.5100476 526.347200
   4753   4756   4764     1   110.1900474 564.840000
   4756   4753   4765     1   110.1900474 564.840000
   4756   4757   4758     1   111.5100476 526.347200
   4756   4757   4763     1   110.1900474 564.840000
   4757   4756   4764     1   110.1900474 564.840000
   4757   4758   4762     1   107.9700462 569.024000
   4757   4758   4774     1   107.9700462 569.024000
   4758   4757   4763     1   110.1900474 564.840000
   4762   4758   4774     1   108.2900466 608.353600
   4766   4752   4774     1   107.9700462 569.024000
   4775   4776   4779     1   111.5100476 526.347200
   4775   4776   4788     1   110.1900474 564.840000
   4775   4789   4795     1   110.1900474 564.840000
   4775   4797   4781     1   112.4800480 524.673600
   4776   4779   4780     1   111.5100476 526.347200
   4776   4779   4787     1   110.1900474 564.840000
   4776   4775   4789     1   111.5100476 526.347200
   4776   4775   4797     1   107.9700462 569.024000
   4779   4780   4781     1   111.5100476 526.347200
   4779   4780   4786     1   110.1900474 564.840000
   4779   4776   4788     1   110.1900474 564.840000
   4780   4781   4785     1   107.9700462 569.024000
   4780   4781   4797     1   107.9700462 569.024000
   4780   4779   4787     1   110.1900474 564.840000
   4781   4780   4786     1   110.1900474 564.840000
   4785   4781   4797     1   108.2900466 608.353600
   4789   4775   4797     1   107.9700462 569.024000
   4798   4799   4802     1   111.5100476 526.347200
   4798   4799   4811     1   110.1900474 564.840000
   4798   4812   4818     1   110.1900474 564.840000
   4798   4820   4804     1   112.4800480 524.673600
   4799   4798   4812     1   111.5100476 526.347200
   4799   4798   4820     1   107.9700462 569.024000
   4799   4802   4803     1   111.5100476 526.347200
   4799   4802   4810     1   110.1900474 564.840000
   4802   4799   4811     1   110.1900474 564.840000
   4802   4803   4804     1   111.5100476 526.347200
   4802   4803   4809     1   110.1900474 564.840000
   4803   4802   4810     1   110.1900474 564.840000
   4803   4804   4808     1   107.9700462 569.024000
   4803   4804   4820     1   107.9700462 569.024000
   4804   4803   4809     1   110.1900474 564.840000
   4808   4804   4820     1   108.2900466 608.353600
   4812   4798   4820     1   107.9700462 569.024000
   4821   4822   4825     1   111.5100476 526.347200
   4821   4822   4834     1   110.1900474 564.840000
   4821   4835   4841     1   110.1900474 564.840000
   4821   4843   4827     1   112.4800480 524.673600
   4822   4825   4826     1   111.5100476 526.347200
   4822   4825   4833     1   110.1900474 564.840000
   4822   4821   4835     1   111.5100476 526.347200
   4822   4821   4843     1   107.9700462 569.024000
   4825   4826   4827     1   111.5100476 526.347200
   4825   4826   4832     1   110.1900474 564.840000
   4825   4822   4834     1   110.1900474 564.840000
   4826   4827   4831     1   107.9700462 569.024000
   4826   4827   4843     1   107.9700462 569.024000
   4826   4825   4833     1   110.1900474 564.840000
   4827   4826   4832     1   110.1900474 564.840000
   4831   4827   4843     1   108.2900466 608.353600
   4835   4821   4843     1   107.9700462 569.024000
   4844   4845   4848     1   111.5100476 526.347200
   4844   4845   4857     1   110.1900474 564.840000
   4844   4858   4864     1   110.1900474 564.840000
   4844   4866   4850     1   112.4800480 524.673600
   4845   4844   4858     1   111.5100476 526.347200
   4845   4844   4866     1   107.9700462 569.024000
   4845   4848   4849     1   111.5100476 526.347200
   4845   4848   4856     1   110.1900474 564.840000
   4848   4845   4857     1   110.1900474 564.840000
   4848   4849   4850     1   111.5100476 526.347200
   4848   4849   4855     1   110.1900474 564.840000
   4849   4848   4856     1   110.1900474 564.840000
   4849   4850   4854     1   107.9700462 569.024000
   4849   4850   4866     1   107.9700462 569.024000
   4850   4849   4855     1   110.1900474 564.840000
   4854   4850   4866     1   108.2900466 608.353600
   4858   4844   4866     1   107.9700462 569.024000
   4867   4868   4871     1   111.5100476 526.347200
   4867   4868   4880     1   110.1900474 564.840000
   4867   4881   4887     1   110.1900474 564.840000
   4867   4889   4873     1   112.4800480 524.673600
   4868   4871   4872     1   111.5100476 526.347200
   4868   4871   4879     1   110.1900474 564.840000
   4868   4867   4881     1   111.5100476 526.347200
   4868   4867   4889     1   107.9700462 569.024000
   4871   4872   4873     1   111.5100476 526.347200
   4871   4872   4878     1   110.1900474 564.840000
   4871   4868   4880     1   110.1900474 564.840000
   4872   4873   4877     1   107.9700462 569.024000
   4872   4873   4889     1   107.9700462 569.024000
   4872   4871   4879     1   110.1900474 564.840000
   4873   4872   4878     1   110.1900474 564.840000
   4877   4873   4889     1   108.2900466 608.353600
   4881   4867   4889     1   107.9700462 569.024000
   4890   4891   4894     1   111.5100476 526.347200
   4890   4891   4903     1   110.1900474 564.840000
   4890   4904   4910     1   110.1900474 564.840000
   4890   4912   4896     1   112.4800480 524.673600
   4891   4890   4904     1   111.5100476 526.347200
   4891   4890   4912     1   107.9700462 569.024000
   4891   4894   4895     1   111.5100476 526.347200
   4891   4894   4902     1   110.1900474 564.840000
   4894   4891   4903     1   110.1900474 564.840000
   4894   4895   4896     1   111.5100476 526.347200
   4894   4895   4901     1   110.1900474 564.840000
   4895   4894   4902     1   110.1900474 564.840000
   4895   4896   4900     1   107.9700462 569.024000
   4895   4896   4912     1   107.9700462 569.024000
   4896   4895   4901     1   110.1900474 564.840000
   4900   4896   4912     1   108.2900466 608.353600
   4904   4890   4912     1   107.9700462 569.024000
   4913   4914   4917     1   111.5100476 526.347200
   4913   4914   4926     1   110.1900474 564.840000
   4913   4927   4933     1   110.1900474 564.840000
   4913   4935   4919     1   112.4800480 524.673600
   4914   4917   4918     1   111.5100476 526.347200
   4914   4917   4925     1   110.1900474 564.840000
   4914   4913   4927     1   111.5100476 526.347200
   4914   4913   4935     1   107.9700462 569.024000
   4917   4918   4919     1   111.5100476 526.347200
   4917   4918   4924     1   110.1900474 564.840000
   4917   4914   4926     1   110.1900474 564.840000
   4918   4919   4923     1   107.9700462 569.024000
   4918   4919   4935     1   107.9700462 569.024000
   4918   4917   4925     1   110.1900474 564.840000
   4919   4918   4924     1   110.1900474 564.840000
   4923   4919   4935     1   108.2900466 608.353600
   4927   4913   4935     1   107.9700462 569.024000
   4936   4937   4940     1   111.5100476 526.347200
   4936   4937   4949     1   110.1900474 564.840000
   4936   4950   4956     1   110.1900474 564.840000
   4936   4958   4942     1   112.4800480 524.673600
   4937   4936   4950     1   111.5100476 526.347200
   4937   4936   4958     1   107.9700462 569.024000
   4937   4940   4941     1   111.5100476 526.347200
   4937   4940   4948     1   110.1900474 564.840000
   4940   4937   4949     1   110.1900474 564.840000
   4940   4941   4942     1   111.5100476 526.347200
   4940   4941   4947     1   110.1900474 564.840000
   4941   4940   4948     1   110.1900474 564.840000
   4941   4942   4946     1   107.9700462 569.024000
   4941   4942   4958     1   107.9700462 569.024000
   4942   4941   4947     1   110.1900474 564.840000
   4946   4942   4958     1   108.2900466 608.353600
   4950   4936   4958     1   107.9700462 569.024000
   4959   4960   4963     1   111.5100476 526.347200
   4959   4960   4972     1   110.1900474 564.840000
   4959   4973   4979     1   110.1900474 564.840000
   4959   4981   4965     1   112.4800480 524.673600
   4960   4963   4964     1   111.5100476 526.347200
   4960   4963   4971     1   110.1900474 564.840000
   4960   4959   4973     1   111.5100476 526.347200
   4960   4959   4981     1   107.9700462 569.024000
   4963   4964   4965     1   111.5100476 526.347200
   4963   4964   4970     1   110.1900474 564.840000
   4963   4960   4972     1   110.1900474 564.840000
   4964   4965   4969     1   107.9700462 569.024000
   4964   4965   4981     1   107.9700462 569.024000
   4964   4963   4971     1   110.1900474 564.840000
   4965   4964   4970     1   110.1900474 564.840000
   4969   4965   4981     1   108.2900466 608.353600
   4973   4959   4981     1   107.9700462 569.024000
   4982   4983   4986     1   111.5100476 526.347200
   4982   4983   4995     1   110.1900474 564.840000
   4982   4996   5002     1   110.1900474 564.840000
   4982   5004   4988     1   112.4800480 524.673600
   4983   4982   4996     1   111.5100476 526.347200
   4983   4982   5004     1   107.9700462 569.024000
   4983   4986   4987     1   111.5100476 526.347200
   4983   4986   4994     1   110.1900474 564.840000
   4986   4983   4995     1   110.1900474 564.840000
   4986   4987   4988     1   111.5100476 526.347200
   4986   4987   4993     1   110.1900474 564.840000
   4987   4986   4994     1   110.1900474 564.840000
   4987   4988   4992     1   107.9700462 569.024000
   4987   4988   5004     1   107.9700462 569.024000
   4988   4987   4993     1   110.1900474 564.840000
   4992   4988   5004     1   108.2900466 608.353600
   4996   4982   5004     1   107.9700462 569.024000
   5005   5006   5009     1   111.5100476 526.347200
   5005   5006   5018     1   110.1900474 564.840000
   5005   5019   5025     1   110.1900474 564.840000
   5005   5027   5011     1   112.4800480 524.673600
   5006   5009   5010     1   111.5100476 526.347200
   5006   5009   5017     1   110.1900474 564.840000
   5006   5005   5019     1   111.5100476 526.347200
   5006   5005   5027     1   107.9700462 569.024000
   5009   5010   5011     1   111.5100476 526.347200
   5009   5010   5016     1   110.1900474 564.840000
   5009   5006   5018     1   110.1900474 564.840000
   5010   5011   5015     1   107.9700462 569.024000
   5010   5011   5027     1   107.9700462 569.024000
   5010   5009   5017     1   110.1900474 564.840000
   5011   5010   5016     1   110.1900474 564.840000
   5015   5011   5027     1   108.2900466 608.353600
   5019   5005   5027     1   107.9700462 569.024000
      1      2      3     1   108.0100461 406.684800
      1      2      4     1   108.0100461 406.684800
      1      5      6     1   108.0100461 406.684800
      1      5      7     1   108.0100461 406.684800
      1      8      9     1   108.0100461 406.684800
      1      8     10     1   108.0100461 406.684800
      2      1     29     1   110.1100470 384.091200
      2     14     15     1   109.8000471 387.438400
      2     14     16     1   109.8000471 387.438400
      3      2     14     1   110.5600475 386.601600
      3      2      4     1   109.7500473 328.025600
      4      2     14     1   110.5600475 386.601600
      5      1     29     1   110.1100470 384.091200
      5     17     18     1   109.8000471 387.438400
      5     17     19     1   109.8000471 387.438400
      6      5     17     1   110.5600475 386.601600
      6      5      7     1   109.7500473 328.025600
      7      5     17     1   110.5600475 386.601600
      8      1     29     1   110.1100470 384.091200
      8     11     12     1   109.8000471 387.438400
      8     11     13     1   109.8000471 387.438400
      9      8     11     1   110.5600475 386.601600
      9      8     10     1   109.7500473 328.025600
     10      8     11     1   110.5600475 386.601600
     11     23     24     1   109.5600471 388.275200
     11     23     25     1   109.5600471 388.275200
     12     11     23     1   109.8000471 387.438400
     12     11     13     1   107.5800459 329.699200
     13     11     23     1   109.8000471 387.438400
     14     26     27     1   109.5600471 388.275200
     14     26     28     1   109.5600471 388.275200
     15     14     26     1   109.8000471 387.438400
     15     14     16     1   107.5800459 329.699200
     16     14     26     1   109.8000471 387.438400
     17     20     21     1   109.5600471 388.275200
     17     20     22     1   109.5600471 388.275200
     18     17     20     1   109.8000471 387.438400
     18     17     19     1   107.5800459 329.699200
     19     17     20     1   109.8000471 387.438400
     21     20     58     1   109.7800468 425.094400
     21     20     22     1   108.4600466 328.025600
     22     20     58     1   109.7800468 425.094400
     24     23     88     1   109.7800468 425.094400
     24     23     25     1   108.4600466 328.025600
     25     23     88     1   109.7800468 425.094400
     27     26    118     1   109.7800468 425.094400
     27     26     28     1   108.4600466 328.025600
     28     26    118     1   109.7800468 425.094400
     30     31     32     1   108.0100461 406.684800
     30     31     33     1   108.0100461 406.684800
     30     34     35     1   108.0100461 406.684800
     30     34     36     1   108.0100461 406.684800
     30     37     38     1   108.0100461 406.684800
     30     37     39     1   108.0100461 406.684800
     31     30     59     1   110.1100470 384.091200
     31     43     44     1   109.8000471 387.438400
     31     43     45     1   109.8000471 387.438400
     32     31     43     1   110.5600475 386.601600
     32     31     33     1   109.7500473 328.025600
     33     31     43     1   110.5600475 386.601600
     34     30     59     1   110.1100470 384.091200
     34     46     47     1   109.8000471 387.438400
     34     46     48     1   109.8000471 387.438400
     35     34     46     1   110.5600475 386.601600
     35     34     36     1   109.7500473 328.025600
     36     34     46     1   110.5600475 386.601600
     37     30     59     1   110.1100470 384.091200
     37     40     41     1   109.8000471 387.438400
     37     40     42     1   109.8000471 387.438400
     38     37     40     1   110.5600475 386.601600
     38     37     39     1   109.7500473 328.025600
     39     37     40     1   110.5600475 386.601600
     40     49     50     1   109.5600471 388.275200
     40     49     51     1   109.5600471 388.275200
     41     40     49     1   109.8000471 387.438400
     41     40     42     1   107.5800459 329.699200
     42     40     49     1   109.8000471 387.438400
     43     55     56     1   109.5600471 388.275200
     43     55     57     1   109.5600471 388.275200
     44     43     55     1   109.8000471 387.438400
     44     43     45     1   107.5800459 329.699200
     45     43     55     1   109.8000471 387.438400
     46     52     53     1   109.5600471 388.275200
     46     52     54     1   109.5600471 388.275200
     47     46     52     1   109.8000471 387.438400
     47     46     48     1   107.5800459 329.699200
     48     46     52     1   109.8000471 387.438400
     50     49     58     1   109.7800468 425.094400
     50     49     51     1   108.4600466 328.025600
     51     49     58     1   109.7800468 425.094400
     53     52    148     1   109.7800468 425.094400
     53     52     54     1   108.4600466 328.025600
     54     52    148     1   109.7800468 425.094400
     56     55    178     1   109.7800468 425.094400
     56     55     57     1   108.4600466 328.025600
     57     55    178     1   109.7800468 425.094400
     60     61     62     1   108.0100461 406.684800
     60     61     63     1   108.0100461 406.684800
     60     64     65     1   108.0100461 406.684800
     60     64     66     1   108.0100461 406.684800
     60     67     68     1   108.0100461 406.684800
     60     67     69     1   108.0100461 406.684800
     61     60     89     1   110.1100470 384.091200
     61     73     74     1   109.8000471 387.438400
     61     73     75     1   109.8000471 387.438400
     62     61     73     1   110.5600475 386.601600
     62     61     63     1   109.7500473 328.025600
     63     61     73     1   110.5600475 386.601600
     64     60     89     1   110.1100470 384.091200
     64     76     77     1   109.8000471 387.438400
     64     76     78     1   109.8000471 387.438400
     65     64     76     1   110.5600475 386.601600
     65     64     66     1   109.7500473 328.025600
     66     64     76     1   110.5600475 386.601600
     67     60     89     1   110.1100470 384.091200
     67     70     71     1   109.8000471 387.438400
     67     70     72     1   109.8000471 387.438400
     68     67     70     1   110.5600475 386.601600
     68     67     69     1   109.7500473 328.025600
     69     67     70     1   110.5600475 386.601600
     70     79     80     1   109.5600471 388.275200
     70     79     81     1   109.5600471 388.275200
     71     70     79     1   109.8000471 387.438400
     71     70     72     1   107.5800459 329.699200
     72     70     79     1   109.8000471 387.438400
     73     85     86     1   109.5600471 388.275200
     73     85     87     1   109.5600471 388.275200
     74     73     85     1   109.8000471 387.438400
     74     73     75     1   107.5800459 329.699200
     75     73     85     1   109.8000471 387.438400
     76     82     83     1   109.5600471 388.275200
     76     82     84     1   109.5600471 388.275200
     77     76     82     1   109.8000471 387.438400
     77     76     78     1   107.5800459 329.699200
     78     76     82     1   109.8000471 387.438400
     80     79     88     1   109.7800468 425.094400
     80     79     81     1   108.4600466 328.025600
     81     79     88     1   109.7800468 425.094400
     83     82    208     1   109.7800468 425.094400
     83     82     84     1   108.4600466 328.025600
     84     82    208     1   109.7800468 425.094400
     86     85    238     1   109.7800468 425.094400
     86     85     87     1   108.4600466 328.025600
     87     85    238     1   109.7800468 425.094400
     90     91     92     1   108.0100461 406.684800
     90     91     93     1   108.0100461 406.684800
     90     94     95     1   108.0100461 406.684800
     90     94     96     1   108.0100461 406.684800
     90     97     98     1   108.0100461 406.684800
     90     97     99     1   108.0100461 406.684800
     91     90    119     1   110.1100470 384.091200
     91    103    104     1   109.8000471 387.438400
     91    103    105     1   109.8000471 387.438400
     92     91    103     1   110.5600475 386.601600
     92     91     93     1   109.7500473 328.025600
     93     91    103     1   110.5600475 386.601600
     94     90    119     1   110.1100470 384.091200
     94    106    107     1   109.8000471 387.438400
     94    106    108     1   109.8000471 387.438400
     95     94    106     1   110.5600475 386.601600
     95     94     96     1   109.7500473 328.025600
     96     94    106     1   110.5600475 386.601600
     97     90    119     1   110.1100470 384.091200
     97    100    101     1   109.8000471 387.438400
     97    100    102     1   109.8000471 387.438400
     98     97    100     1   110.5600475 386.601600
     98     97     99     1   109.7500473 328.025600
     99     97    100     1   110.5600475 386.601600
    100    109    110     1   109.5600471 388.275200
    100    109    111     1   109.5600471 388.275200
    101    100    109     1   109.8000471 387.438400
    101    100    102     1   107.5800459 329.699200
    102    100    109     1   109.8000471 387.438400
    103    115    116     1   109.5600471 388.275200
    103    115    117     1   109.5600471 388.275200
    104    103    115     1   109.8000471 387.438400
    104    103    105     1   107.5800459 329.699200
    105    103    115     1   109.8000471 387.438400
    106    112    113     1   109.5600471 388.275200
    106    112    114     1   109.5600471 388.275200
    107    106    112     1   109.8000471 387.438400
    107    106    108     1   107.5800459 329.699200
    108    106    112     1   109.8000471 387.438400
    110    109    118     1   109.7800468 425.094400
    110    109    111     1   108.4600466 328.025600
    111    109    118     1   109.7800468 425.094400
    113    112    268     1   109.7800468 425.094400
    113    112    114     1   108.4600466 328.025600
    114    112    268     1   109.7800468 425.094400
    116    115    298     1   109.7800468 425.094400
    116    115    117     1   108.4600466 328.025600
    117    115    298     1   109.7800468 425.094400
    120    121    122     1   108.0100461 406.684800
    120    121    123     1   108.0100461 406.684800
    120    124    125     1   108.0100461 406.684800
    120    124    126     1   108.0100461 406.684800
    120    127    128     1   108.0100461 406.684800
    120    127    129     1   108.0100461 406.684800
    121    120    149     1   110.1100470 384.091200
    121    133    134     1   109.8000471 387.438400
    121    133    135     1   109.8000471 387.438400
    122    121    133     1   110.5600475 386.601600
    122    121    123     1   109.7500473 328.025600
    123    121    133     1   110.5600475 386.601600
    124    120    149     1   110.1100470 384.091200
    124    136    137     1   109.8000471 387.438400
    124    136    138     1   109.8000471 387.438400
    125    124    136     1   110.5600475 386.601600
    125    124    126     1   109.7500473 328.025600
    126    124    136     1   110.5600475 386.601600
    127    120    149     1   110.1100470 384.091200
    127    130    131     1   109.8000471 387.438400
    127    130    132     1   109.8000471 387.438400
    128    127    130     1   110.5600475 386.601600
    128    127    129     1   109.7500473 328.025600
    129    127    130     1   110.5600475 386.601600
    130    139    140     1   109.5600471 388.275200
    130    139    141     1   109.5600471 388.275200
    131    130    139     1   109.8000471 387.438400
    131    130    132     1   107.5800459 329.699200
    132    130    139     1   109.8000471 387.438400
    133    145    146     1   109.5600471 388.275200
    133    145    147     1   109.5600471 388.275200
    134    133    145     1   109.8000471 387.438400
    134    133    135     1   107.5800459 329.699200
    135    133    145     1   109.8000471 387.438400
    136    142    143     1   109.5600471 388.275200
    136    142    144     1   109.5600471 388.275200
    137    136    142     1   109.8000471 387.438400
    137    136    138     1   107.5800459 329.699200
    138    136    142     1   109.8000471 387.438400
    140    139    148     1   109.7800468 425.094400
    140    139    141     1   108.4600466 328.025600
    141    139    148     1   109.7800468 425.094400
    143    142    328     1   109.7800468 425.094400
    143    142    144     1   108.4600466 328.025600
    144    142    328     1   109.7800468 425.094400
    146    145    358     1   109.7800468 425.094400
    146    145    147     1   108.4600466 328.025600
    147    145    358     1   109.7800468 425.094400
    150    151    152     1   108.0100461 406.684800
    150    151    153     1   108.0100461 406.684800
    150    154    155     1   108.0100461 406.684800
    150    154    156     1   108.0100461 406.684800
    150    157    158     1   108.0100461 406.684800
    150    157    159     1   108.0100461 406.684800
    151    150    179     1   110.1100470 384.091200
    151    163    164     1   109.8000471 387.438400
    151    163    165     1   109.8000471 387.438400
    152    151    163     1   110.5600475 386.601600
    152    151    153     1   109.7500473 328.025600
    153    151    163     1   110.5600475 386.601600
    154    150    179     1   110.1100470 384.091200
    154    166    167     1   109.8000471 387.438400
    154    166    168     1   109.8000471 387.438400
    155    154    166     1   110.5600475 386.601600
    155    154    156     1   109.7500473 328.025600
    156    154    166     1   110.5600475 386.601600
    157    150    179     1   110.1100470 384.091200
    157    160    161     1   109.8000471 387.438400
    157    160    162     1   109.8000471 387.438400
    158    157    160     1   110.5600475 386.601600
    158    157    159     1   109.7500473 328.025600
    159    157    160     1   110.5600475 386.601600
    160    169    170     1   109.5600471 388.275200
    160    169    171     1   109.5600471 388.275200
    161    160    169     1   109.8000471 387.438400
    161    160    162     1   107.5800459 329.699200
    162    160    169     1   109.8000471 387.438400
    163    175    176     1   109.5600471 388.275200
    163    175    177     1   109.5600471 388.275200
    164    163    175     1   109.8000471 387.438400
    164    163    165     1   107.5800459 329.699200
    165    163    175     1   109.8000471 387.438400
    166    172    173     1   109.5600471 388.275200
    166    172    174     1   109.5600471 388.275200
    167    166    172     1   109.8000471 387.438400
    167    166    168     1   107.5800459 329.699200
    168    166    172     1   109.8000471 387.438400
    170    169    178     1   109.7800468 425.094400
    170    169    171     1   108.4600466 328.025600
    171    169    178     1   109.7800468 425.094400
    173    172    388     1   109.7800468 425.094400
    173    172    174     1   108.4600466 328.025600
    174    172    388     1   109.7800468 425.094400
    176    175    418     1   109.7800468 425.094400
    176    175    177     1   108.4600466 328.025600
    177    175    418     1   109.7800468 425.094400
    180    181    182     1   108.0100461 406.684800
    180    181    183     1   108.0100461 406.684800
    180    184    185     1   108.0100461 406.684800
    180    184    186     1   108.0100461 406.684800
    180    187    188     1   108.0100461 406.684800
    180    187    189     1   108.0100461 406.684800
    181    180    209     1   110.1100470 384.091200
    181    193    194     1   109.8000471 387.438400
    181    193    195     1   109.8000471 387.438400
    182    181    193     1   110.5600475 386.601600
    182    181    183     1   109.7500473 328.025600
    183    181    193     1   110.5600475 386.601600
    184    180    209     1   110.1100470 384.091200
    184    196    197     1   109.8000471 387.438400
    184    196    198     1   109.8000471 387.438400
    185    184    196     1   110.5600475 386.601600
    185    184    186     1   109.7500473 328.025600
    186    184    196     1   110.5600475 386.601600
    187    180    209     1   110.1100470 384.091200
    187    190    191     1   109.8000471 387.438400
    187    190    192     1   109.8000471 387.438400
    188    187    190     1   110.5600475 386.601600
    188    187    189     1   109.7500473 328.025600
    189    187    190     1   110.5600475 386.601600
    190    199    200     1   109.5600471 388.275200
    190    199    201     1   109.5600471 388.275200
    191    190    199     1   109.8000471 387.438400
    191    190    192     1   107.5800459 329.699200
    192    190    199     1   109.8000471 387.438400
    193    205    206     1   109.5600471 388.275200
    193    205    207     1   109.5600471 388.275200
    194    193    205     1   109.8000471 387.438400
    194    193    195     1   107.5800459 329.699200
    195    193    205     1   109.8000471 387.438400
    196    202    203     1   109.5600471 388.275200
    196    202    204     1   109.5600471 388.275200
    197    196    202     1   109.8000471 387.438400
    197    196    198     1   107.5800459 329.699200
    198    196    202     1   109.8000471 387.438400
    200    199    208     1   109.7800468 425.094400
    200    199    201     1   108.4600466 328.025600
    201    199    208     1   109.7800468 425.094400
    203    202    448     1   109.7800468 425.094400
    203    202    204     1   108.4600466 328.025600
    204    202    448     1   109.7800468 425.094400
    206    205    478     1   109.7800468 425.094400
    206    205    207     1   108.4600466 328.025600
    207    205    478     1   109.7800468 425.094400
    210    211    212     1   108.0100461 406.684800
    210    211    213     1   108.0100461 406.684800
    210    214    215     1   108.0100461 406.684800
    210    214    216     1   108.0100461 406.684800
    210    217    218     1   108.0100461 406.684800
    210    217    219     1   108.0100461 406.684800
    211    210    239     1   110.1100470 384.091200
    211    223    224     1   109.8000471 387.438400
    211    223    225     1   109.8000471 387.438400
    212    211    223     1   110.5600475 386.601600
    212    211    213     1   109.7500473 328.025600
    213    211    223     1   110.5600475 386.601600
    214    210    239     1   110.1100470 384.091200
    214    226    227     1   109.8000471 387.438400
    214    226    228     1   109.8000471 387.438400
    215    214    226     1   110.5600475 386.601600
    215    214    216     1   109.7500473 328.025600
    216    214    226     1   110.5600475 386.601600
    217    210    239     1   110.1100470 384.091200
    217    220    221     1   109.8000471 387.438400
    217    220    222     1   109.8000471 387.438400
    218    217    220     1   110.5600475 386.601600
    218    217    219     1   109.7500473 328.025600
    219    217    220     1   110.5600475 386.601600
    220    229    230     1   109.5600471 388.275200
    220    229    231     1   109.5600471 388.275200
    221    220    229     1   109.8000471 387.438400
    221    220    222     1   107.5800459 329.699200
    222    220    229     1   109.8000471 387.438400
    223    235    236     1   109.5600471 388.275200
    223    235    237     1   109.5600471 388.275200
    224    223    235     1   109.8000471 387.438400
    224    223    225     1   107.5800459 329.699200
    225    223    235     1   109.8000471 387.438400
    226    232    233     1   109.5600471 388.275200
    226    232    234     1   109.5600471 388.275200
    227    226    232     1   109.8000471 387.438400
    227    226    228     1   107.5800459 329.699200
    228    226    232     1   109.8000471 387.438400
    230    229    238     1   109.7800468 425.094400
    230    229    231     1   108.4600466 328.025600
    231    229    238     1   109.7800468 425.094400
    233    232    508     1   109.7800468 425.094400
    233    232    234     1   108.4600466 328.025600
    234    232    508     1   109.7800468 425.094400
    236    235    538     1   109.7800468 425.094400
    236    235    237     1   108.4600466 328.025600
    237    235    538     1   109.7800468 425.094400
    240    241    242     1   108.0100461 406.684800
    240    241    243     1   108.0100461 406.684800
    240    244    245     1   108.0100461 406.684800
    240    244    246     1   108.0100461 406.684800
    240    247    248     1   108.0100461 406.684800
    240    247    249     1   108.0100461 406.684800
    241    240    269     1   110.1100470 384.091200
    241    253    254     1   109.8000471 387.438400
    241    253    255     1   109.8000471 387.438400
    242    241    253     1   110.5600475 386.601600
    242    241    243     1   109.7500473 328.025600
    243    241    253     1   110.5600475 386.601600
    244    240    269     1   110.1100470 384.091200
    244    256    257     1   109.8000471 387.438400
    244    256    258     1   109.8000471 387.438400
    245    244    256     1   110.5600475 386.601600
    245    244    246     1   109.7500473 328.025600
    246    244    256     1   110.5600475 386.601600
    247    240    269     1   110.1100470 384.091200
    247    250    251     1   109.8000471 387.438400
    247    250    252     1   109.8000471 387.438400
    248    247    250     1   110.5600475 386.601600
    248    247    249     1   109.7500473 328.025600
    249    247    250     1   110.5600475 386.601600
    250    259    260     1   109.5600471 388.275200
    250    259    261     1   109.5600471 388.275200
    251    250    259     1   109.8000471 387.438400
    251    250    252     1   107.5800459 329.699200
    252    250    259     1   109.8000471 387.438400
    253    265    266     1   109.5600471 388.275200
    253    265    267     1   109.5600471 388.275200
    254    253    265     1   109.8000471 387.438400
    254    253    255     1   107.5800459 329.699200
    255    253    265     1   109.8000471 387.438400
    256    262    263     1   109.5600471 388.275200
    256    262    264     1   109.5600471 388.275200
    257    256    262     1   109.8000471 387.438400
    257    256    258     1   107.5800459 329.699200
    258    256    262     1   109.8000471 387.438400
    260    259    268     1   109.7800468 425.094400
    260    259    261     1   108.4600466 328.025600
    261    259    268     1   109.7800468 425.094400
    263    262    568     1   109.7800468 425.094400
    263    262    264     1   108.4600466 328.025600
    264    262    568     1   109.7800468 425.094400
    266    265    598     1   109.7800468 425.094400
    266    265    267     1   108.4600466 328.025600
    267    265    598     1   109.7800468 425.094400
    270    271    272     1   108.0100461 406.684800
    270    271    273     1   108.0100461 406.684800
    270    274    275     1   108.0100461 406.684800
    270    274    276     1   108.0100461 406.684800
    270    277    278     1   108.0100461 406.684800
    270    277    279     1   108.0100461 406.684800
    271    270    299     1   110.1100470 384.091200
    271    283    284     1   109.8000471 387.438400
    271    283    285     1   109.8000471 387.438400
    272    271    283     1   110.5600475 386.601600
    272    271    273     1   109.7500473 328.025600
    273    271    283     1   110.5600475 386.601600
    274    270    299     1   110.1100470 384.091200
    274    286    287     1   109.8000471 387.438400
    274    286    288     1   109.8000471 387.438400
    275    274    286     1   110.5600475 386.601600
    275    274    276     1   109.7500473 328.025600
    276    274    286     1   110.5600475 386.601600
    277    270    299     1   110.1100470 384.091200
    277    280    281     1   109.8000471 387.438400
    277    280    282     1   109.8000471 387.438400
    278    277    280     1   110.5600475 386.601600
    278    277    279     1   109.7500473 328.025600
    279    277    280     1   110.5600475 386.601600
    280    289    290     1   109.5600471 388.275200
    280    289    291     1   109.5600471 388.275200
    281    280    289     1   109.8000471 387.438400
    281    280    282     1   107.5800459 329.699200
    282    280    289     1   109.8000471 387.438400
    283    295    296     1   109.5600471 388.275200
    283    295    297     1   109.5600471 388.275200
    284    283    295     1   109.8000471 387.438400
    284    283    285     1   107.5800459 329.699200
    285    283    295     1   109.8000471 387.438400
    286    292    293     1   109.5600471 388.275200
    286    292    294     1   109.5600471 388.275200
    287    286    292     1   109.8000471 387.438400
    287    286    288     1   107.5800459 329.699200
    288    286    292     1   109.8000471 387.438400
    290    289    298     1   109.7800468 425.094400
    290    289    291     1   108.4600466 328.025600
    291    289    298     1   109.7800468 425.094400
    293    292    628     1   109.7800468 425.094400
    293    292    294     1   108.4600466 328.025600
    294    292    628     1   109.7800468 425.094400
    296    295    658     1   109.7800468 425.094400
    296    295    297     1   108.4600466 328.025600
    297    295    658     1   109.7800468 425.094400
    300    301    302     1   108.0100461 406.684800
    300    301    303     1   108.0100461 406.684800
    300    304    305     1   108.0100461 406.684800
    300    304    306     1   108.0100461 406.684800
    300    307    308     1   108.0100461 406.684800
    300    307    309     1   108.0100461 406.684800
    301    300    329     1   110.1100470 384.091200
    301    313    314     1   109.8000471 387.438400
    301    313    315     1   109.8000471 387.438400
    302    301    313     1   110.5600475 386.601600
    302    301    303     1   109.7500473 328.025600
    303    301    313     1   110.5600475 386.601600
    304    300    329     1   110.1100470 384.091200
    304    316    317     1   109.8000471 387.438400
    304    316    318     1   109.8000471 387.438400
    305    304    316     1   110.5600475 386.601600
    305    304    306     1   109.7500473 328.025600
    306    304    316     1   110.5600475 386.601600
    307    300    329     1   110.1100470 384.091200
    307    310    311     1   109.8000471 387.438400
    307    310    312     1   109.8000471 387.438400
    308    307    310     1   110.5600475 386.601600
    308    307    309     1   109.7500473 328.025600
    309    307    310     1   110.5600475 386.601600
    310    319    320     1   109.5600471 388.275200
    310    319    321     1   109.5600471 388.275200
    311    310    319     1   109.8000471 387.438400
    311    310    312     1   107.5800459 329.699200
    312    310    319     1   109.8000471 387.438400
    313    325    326     1   109.5600471 388.275200
    313    325    327     1   109.5600471 388.275200
    314    313    325     1   109.8000471 387.438400
    314    313    315     1   107.5800459 329.699200
    315    313    325     1   109.8000471 387.438400
    316    322    323     1   109.5600471 388.275200
    316    322    324     1   109.5600471 388.275200
    317    316    322     1   109.8000471 387.438400
    317    316    318     1   107.5800459 329.699200
    318    316    322     1   109.8000471 387.438400
    320    319    328     1   109.7800468 425.094400
    320    319    321     1   108.4600466 328.025600
    321    319    328     1   109.7800468 425.094400
    323    322    688     1   109.7800468 425.094400
    323    322    324     1   108.4600466 328.025600
    324    322    688     1   109.7800468 425.094400
    326    325    718     1   109.7800468 425.094400
    326    325    327     1   108.4600466 328.025600
    327    325    718     1   109.7800468 425.094400
    330    331    332     1   108.0100461 406.684800
    330    331    333     1   108.0100461 406.684800
    330    334    335     1   108.0100461 406.684800
    330    334    336     1   108.0100461 406.684800
    330    337    338     1   108.0100461 406.684800
    330    337    339     1   108.0100461 406.684800
    331    330    359     1   110.1100470 384.091200
    331    343    344     1   109.8000471 387.438400
    331    343    345     1   109.8000471 387.438400
    332    331    343     1   110.5600475 386.601600
    332    331    333     1   109.7500473 328.025600
    333    331    343     1   110.5600475 386.601600
    334    330    359     1   110.1100470 384.091200
    334    346    347     1   109.8000471 387.438400
    334    346    348     1   109.8000471 387.438400
    335    334    346     1   110.5600475 386.601600
    335    334    336     1   109.7500473 328.025600
    336    334    346     1   110.5600475 386.601600
    337    330    359     1   110.1100470 384.091200
    337    340    341     1   109.8000471 387.438400
    337    340    342     1   109.8000471 387.438400
    338    337    340     1   110.5600475 386.601600
    338    337    339     1   109.7500473 328.025600
    339    337    340     1   110.5600475 386.601600
    340    349    350     1   109.5600471 388.275200
    340    349    351     1   109.5600471 388.275200
    341    340    349     1   109.8000471 387.438400
    341    340    342     1   107.5800459 329.699200
    342    340    349     1   109.8000471 387.438400
    343    355    356     1   109.5600471 388.275200
    343    355    357     1   109.5600471 388.275200
    344    343    355     1   109.8000471 387.438400
    344    343    345     1   107.5800459 329.699200
    345    343    355     1   109.8000471 387.438400
    346    352    353     1   109.5600471 388.275200
    346    352    354     1   109.5600471 388.275200
    347    346    352     1   109.8000471 387.438400
    347    346    348     1   107.5800459 329.699200
    348    346    352     1   109.8000471 387.438400
    350    349    358     1   109.7800468 425.094400
    350    349    351     1   108.4600466 328.025600
    351    349    358     1   109.7800468 425.094400
    353    352    748     1   109.7800468 425.094400
    353    352    354     1   108.4600466 328.025600
    354    352    748     1   109.7800468 425.094400
    356    355    778     1   109.7800468 425.094400
    356    355    357     1   108.4600466 328.025600
    357    355    778     1   109.7800468 425.094400
    360    361    362     1   108.0100461 406.684800
    360    361    363     1   108.0100461 406.684800
    360    364    365     1   108.0100461 406.684800
    360    364    366     1   108.0100461 406.684800
    360    367    368     1   108.0100461 406.684800
    360    367    369     1   108.0100461 406.684800
    361    360    389     1   110.1100470 384.091200
    361    373    374     1   109.8000471 387.438400
    361    373    375     1   109.8000471 387.438400
    362    361    373     1   110.5600475 386.601600
    362    361    363     1   109.7500473 328.025600
    363    361    373     1   110.5600475 386.601600
    364    360    389     1   110.1100470 384.091200
    364    376    377     1   109.8000471 387.438400
    364    376    378     1   109.8000471 387.438400
    365    364    376     1   110.5600475 386.601600
    365    364    366     1   109.7500473 328.025600
    366    364    376     1   110.5600475 386.601600
    367    360    389     1   110.1100470 384.091200
    367    370    371     1   109.8000471 387.438400
    367    370    372     1   109.8000471 387.438400
    368    367    370     1   110.5600475 386.601600
    368    367    369     1   109.7500473 328.025600
    369    367    370     1   110.5600475 386.601600
    370    379    380     1   109.5600471 388.275200
    370    379    381     1   109.5600471 388.275200
    371    370    379     1   109.8000471 387.438400
    371    370    372     1   107.5800459 329.699200
    372    370    379     1   109.8000471 387.438400
    373    385    386     1   109.5600471 388.275200
    373    385    387     1   109.5600471 388.275200
    374    373    385     1   109.8000471 387.438400
    374    373    375     1   107.5800459 329.699200
    375    373    385     1   109.8000471 387.438400
    376    382    383     1   109.5600471 388.275200
    376    382    384     1   109.5600471 388.275200
    377    376    382     1   109.8000471 387.438400
    377    376    378     1   107.5800459 329.699200
    378    376    382     1   109.8000471 387.438400
    380    379    388     1   109.7800468 425.094400
    380    379    381     1   108.4600466 328.025600
    381    379    388     1   109.7800468 425.094400
    383    382    808     1   109.7800468 425.094400
    383    382    384     1   108.4600466 328.025600
    384    382    808     1   109.7800468 425.094400
    386    385    838     1   109.7800468 425.094400
    386    385    387     1   108.4600466 328.025600
    387    385    838     1   109.7800468 425.094400
    390    391    392     1   108.0100461 406.684800
    390    391    393     1   108.0100461 406.684800
    390    394    395     1   108.0100461 406.684800
    390    394    396     1   108.0100461 406.684800
    390    397    398     1   108.0100461 406.684800
    390    397    399     1   108.0100461 406.684800
    391    390    419     1   110.1100470 384.091200
    391    403    404     1   109.8000471 387.438400
    391    403    405     1   109.8000471 387.438400
    392    391    403     1   110.5600475 386.601600
    392    391    393     1   109.7500473 328.025600
    393    391    403     1   110.5600475 386.601600
    394    390    419     1   110.1100470 384.091200
    394    406    407     1   109.8000471 387.438400
    394    406    408     1   109.8000471 387.438400
    395    394    406     1   110.5600475 386.601600
    395    394    396     1   109.7500473 328.025600
    396    394    406     1   110.5600475 386.601600
    397    390    419     1   110.1100470 384.091200
    397    400    401     1   109.8000471 387.438400
    397    400    402     1   109.8000471 387.438400
    398    397    400     1   110.5600475 386.601600
    398    397    399     1   109.7500473 328.025600
    399    397    400     1   110.5600475 386.601600
    400    409    410     1   109.5600471 388.275200
    400    409    411     1   109.5600471 388.275200
    401    400    409     1   109.8000471 387.438400
    401    400    402     1   107.5800459 329.699200
    402    400    409     1   109.8000471 387.438400
    403    415    416     1   109.5600471 388.275200
    403    415    417     1   109.5600471 388.275200
    404    403    415     1   109.8000471 387.438400
    404    403    405     1   107.5800459 329.699200
    405    403    415     1   109.8000471 387.438400
    406    412    413     1   109.5600471 388.275200
    406    412    414     1   109.5600471 388.275200
    407    406    412     1   109.8000471 387.438400
    407    406    408     1   107.5800459 329.699200
    408    406    412     1   109.8000471 387.438400
    410    409    418     1   109.7800468 425.094400
    410    409    411     1   108.4600466 328.025600
    411    409    418     1   109.7800468 425.094400
    413    412    868     1   109.7800468 425.094400
    413    412    414     1   108.4600466 328.025600
    414    412    868     1   109.7800468 425.094400
    416    415    898     1   109.7800468 425.094400
    416    415    417     1   108.4600466 328.025600
    417    415    898     1   109.7800468 425.094400
    420    421    422     1   108.0100461 406.684800
    420    421    423     1   108.0100461 406.684800
    420    424    425     1   108.0100461 406.684800
    420    424    426     1   108.0100461 406.684800
    420    427    428     1   108.0100461 406.684800
    420    427    429     1   108.0100461 406.684800
    421    420    449     1   110.1100470 384.091200
    421    433    434     1   109.8000471 387.438400
    421    433    435     1   109.8000471 387.438400
    422    421    433     1   110.5600475 386.601600
    422    421    423     1   109.7500473 328.025600
    423    421    433     1   110.5600475 386.601600
    424    420    449     1   110.1100470 384.091200
    424    436    437     1   109.8000471 387.438400
    424    436    438     1   109.8000471 387.438400
    425    424    436     1   110.5600475 386.601600
    425    424    426     1   109.7500473 328.025600
    426    424    436     1   110.5600475 386.601600
    427    420    449     1   110.1100470 384.091200
    427    430    431     1   109.8000471 387.438400
    427    430    432     1   109.8000471 387.438400
    428    427    430     1   110.5600475 386.601600
    428    427    429     1   109.7500473 328.025600
    429    427    430     1   110.5600475 386.601600
    430    439    440     1   109.5600471 388.275200
    430    439    441     1   109.5600471 388.275200
    431    430    439     1   109.8000471 387.438400
    431    430    432     1   107.5800459 329.699200
    432    430    439     1   109.8000471 387.438400
    433    445    446     1   109.5600471 388.275200
    433    445    447     1   109.5600471 388.275200
    434    433    445     1   109.8000471 387.438400
    434    433    435     1   107.5800459 329.699200
    435    433    445     1   109.8000471 387.438400
    436    442    443     1   109.5600471 388.275200
    436    442    444     1   109.5600471 388.275200
    437    436    442     1   109.8000471 387.438400
    437    436    438     1   107.5800459 329.699200
    438    436    442     1   109.8000471 387.438400
    440    439    448     1   109.7800468 425.094400
    440    439    441     1   108.4600466 328.025600
    441    439    448     1   109.7800468 425.094400
    443    442    928     1   109.7800468 425.094400
    443    442    444     1   108.4600466 328.025600
    444    442    928     1   109.7800468 425.094400
    446    445    958     1   109.7800468 425.094400
    446    445    447     1   108.4600466 328.025600
    447    445    958     1   109.7800468 425.094400
    450    451    452     1   108.0100461 406.684800
    450    451    453     1   108.0100461 406.684800
    450    454    455     1   108.0100461 406.684800
    450    454    456     1   108.0100461 406.684800
    450    457    458     1   108.0100461 406.684800
    450    457    459     1   108.0100461 406.684800
    451    450    479     1   110.1100470 384.091200
    451    463    464     1   109.8000471 387.438400
    451    463    465     1   109.8000471 387.438400
    452    451    463     1   110.5600475 386.601600
    452    451    453     1   109.7500473 328.025600
    453    451    463     1   110.5600475 386.601600
    454    450    479     1   110.1100470 384.091200
    454    466    467     1   109.8000471 387.438400
    454    466    468     1   109.8000471 387.438400
    455    454    466     1   110.5600475 386.601600
    455    454    456     1   109.7500473 328.025600
    456    454    466     1   110.5600475 386.601600
    457    450    479     1   110.1100470 384.091200
    457    460    461     1   109.8000471 387.438400
    457    460    462     1   109.8000471 387.438400
    458    457    460     1   110.5600475 386.601600
    458    457    459     1   109.7500473 328.025600
    459    457    460     1   110.5600475 386.601600
    460    469    470     1   109.5600471 388.275200
    460    469    471     1   109.5600471 388.275200
    461    460    469     1   109.8000471 387.438400
    461    460    462     1   107.5800459 329.699200
    462    460    469     1   109.8000471 387.438400
    463    475    476     1   109.5600471 388.275200
    463    475    477     1   109.5600471 388.275200
    464    463    475     1   109.8000471 387.438400
    464    463    465     1   107.5800459 329.699200
    465    463    475     1   109.8000471 387.438400
    466    472    473     1   109.5600471 388.275200
    466    472    474     1   109.5600471 388.275200
    467    466    472     1   109.8000471 387.438400
    467    466    468     1   107.5800459 329.699200
    468    466    472     1   109.8000471 387.438400
    470    469    478     1   109.7800468 425.094400
    470    469    471     1   108.4600466 328.025600
    471    469    478     1   109.7800468 425.094400
    473    472    988     1   109.7800468 425.094400
    473    472    474     1   108.4600466 328.025600
    474    472    988     1   109.7800468 425.094400
    476    475   1018     1   109.7800468 425.094400
    476    475    477     1   108.4600466 328.025600
    477    475   1018     1   109.7800468 425.094400
    480    481    482     1   108.0100461 406.684800
    480    481    483     1   108.0100461 406.684800
    480    484    485     1   108.0100461 406.684800
    480    484    486     1   108.0100461 406.684800
    480    487    488     1   108.0100461 406.684800
    480    487    489     1   108.0100461 406.684800
    481    480    509     1   110.1100470 384.091200
    481    493    494     1   109.8000471 387.438400
    481    493    495     1   109.8000471 387.438400
    482    481    493     1   110.5600475 386.601600
    482    481    483     1   109.7500473 328.025600
    483    481    493     1   110.5600475 386.601600
    484    480    509     1   110.1100470 384.091200
    484    496    497     1   109.8000471 387.438400
    484    496    498     1   109.8000471 387.438400
    485    484    496     1   110.5600475 386.601600
    485    484    486     1   109.7500473 328.025600
    486    484    496     1   110.5600475 386.601600
    487    480    509     1   110.1100470 384.091200
    487    490    491     1   109.8000471 387.438400
    487    490    492     1   109.8000471 387.438400
    488    487    490     1   110.5600475 386.601600
    488    487    489     1   109.7500473 328.025600
    489    487    490     1   110.5600475 386.601600
    490    499    500     1   109.5600471 388.275200
    490    499    501     1   109.5600471 388.275200
    491    490    499     1   109.8000471 387.438400
    491    490    492     1   107.5800459 329.699200
    492    490    499     1   109.8000471 387.438400
    493    505    506     1   109.5600471 388.275200
    493    505    507     1   109.5600471 388.275200
    494    493    505     1   109.8000471 387.438400
    494    493    495     1   107.5800459 329.699200
    495    493    505     1   109.8000471 387.438400
    496    502    503     1   109.5600471 388.275200
    496    502    504     1   109.5600471 388.275200
    497    496    502     1   109.8000471 387.438400
    497    496    498     1   107.5800459 329.699200
    498    496    502     1   109.8000471 387.438400
    500    499    508     1   109.7800468 425.094400
    500    499    501     1   108.4600466 328.025600
    501    499    508     1   109.7800468 425.094400
    503    502   1048     1   109.7800468 425.094400
    503    502    504     1   108.4600466 328.025600
    504    502   1048     1   109.7800468 425.094400
    506    505   1078     1   109.7800468 425.094400
    506    505    507     1   108.4600466 328.025600
    507    505   1078     1   109.7800468 425.094400
    510    511    512     1   108.0100461 406.684800
    510    511    513     1   108.0100461 406.684800
    510    514    515     1   108.0100461 406.684800
    510    514    516     1   108.0100461 406.684800
    510    517    518     1   108.0100461 406.684800
    510    517    519     1   108.0100461 406.684800
    511    510    539     1   110.1100470 384.091200
    511    523    524     1   109.8000471 387.438400
    511    523    525     1   109.8000471 387.438400
    512    511    523     1   110.5600475 386.601600
    512    511    513     1   109.7500473 328.025600
    513    511    523     1   110.5600475 386.601600
    514    510    539     1   110.1100470 384.091200
    514    526    527     1   109.8000471 387.438400
    514    526    528     1   109.8000471 387.438400
    515    514    526     1   110.5600475 386.601600
    515    514    516     1   109.7500473 328.025600
    516    514    526     1   110.5600475 386.601600
    517    510    539     1   110.1100470 384.091200
    517    520    521     1   109.8000471 387.438400
    517    520    522     1   109.8000471 387.438400
    518    517    520     1   110.5600475 386.601600
    518    517    519     1   109.7500473 328.025600
    519    517    520     1   110.5600475 386.601600
    520    529    530     1   109.5600471 388.275200
    520    529    531     1   109.5600471 388.275200
    521    520    529     1   109.8000471 387.438400
    521    520    522     1   107.5800459 329.699200
    522    520    529     1   109.8000471 387.438400
    523    535    536     1   109.5600471 388.275200
    523    535    537     1   109.5600471 388.275200
    524    523    535     1   109.8000471 387.438400
    524    523    525     1   107.5800459 329.699200
    525    523    535     1   109.8000471 387.438400
    526    532    533     1   109.5600471 388.275200
    526    532    534     1   109.5600471 388.275200
    527    526    532     1   109.8000471 387.438400
    527    526    528     1   107.5800459 329.699200
    528    526    532     1   109.8000471 387.438400
    530    529    538     1   109.7800468 425.094400
    530    529    531     1   108.4600466 328.025600
    531    529    538     1   109.7800468 425.094400
    533    532   1108     1   109.7800468 425.094400
    533    532    534     1   108.4600466 328.025600
    534    532   1108     1   109.7800468 425.094400
    536    535   1138     1   109.7800468 425.094400
    536    535    537     1   108.4600466 328.025600
    537    535   1138     1   109.7800468 425.094400
    540    541    542     1   108.0100461 406.684800
    540    541    543     1   108.0100461 406.684800
    540    544    545     1   108.0100461 406.684800
    540    544    546     1   108.0100461 406.684800
    540    547    548     1   108.0100461 406.684800
    540    547    549     1   108.0100461 406.684800
    541    540    569     1   110.1100470 384.091200
    541    553    554     1   109.8000471 387.438400
    541    553    555     1   109.8000471 387.438400
    542    541    553     1   110.5600475 386.601600
    542    541    543     1   109.7500473 328.025600
    543    541    553     1   110.5600475 386.601600
    544    540    569     1   110.1100470 384.091200
    544    556    557     1   109.8000471 387.438400
    544    556    558     1   109.8000471 387.438400
    545    544    556     1   110.5600475 386.601600
    545    544    546     1   109.7500473 328.025600
    546    544    556     1   110.5600475 386.601600
    547    540    569     1   110.1100470 384.091200
    547    550    551     1   109.8000471 387.438400
    547    550    552     1   109.8000471 387.438400
    548    547    550     1   110.5600475 386.601600
    548    547    549     1   109.7500473 328.025600
    549    547    550     1   110.5600475 386.601600
    550    559    560     1   109.5600471 388.275200
    550    559    561     1   109.5600471 388.275200
    551    550    559     1   109.8000471 387.438400
    551    550    552     1   107.5800459 329.699200
    552    550    559     1   109.8000471 387.438400
    553    565    566     1   109.5600471 388.275200
    553    565    567     1   109.5600471 388.275200
    554    553    565     1   109.8000471 387.438400
    554    553    555     1   107.5800459 329.699200
    555    553    565     1   109.8000471 387.438400
    556    562    563     1   109.5600471 388.275200
    556    562    564     1   109.5600471 388.275200
    557    556    562     1   109.8000471 387.438400
    557    556    558     1   107.5800459 329.699200
    558    556    562     1   109.8000471 387.438400
    560    559    568     1   109.7800468 425.094400
    560    559    561     1   108.4600466 328.025600
    561    559    568     1   109.7800468 425.094400
    563    562   1168     1   109.7800468 425.094400
    563    562    564     1   108.4600466 328.025600
    564    562   1168     1   109.7800468 425.094400
    566    565   1198     1   109.7800468 425.094400
    566    565    567     1   108.4600466 328.025600
    567    565   1198     1   109.7800468 425.094400
    570    571    572     1   108.0100461 406.684800
    570    571    573     1   108.0100461 406.684800
    570    574    575     1   108.0100461 406.684800
    570    574    576     1   108.0100461 406.684800
    570    577    578     1   108.0100461 406.684800
    570    577    579     1   108.0100461 406.684800
    571    570    599     1   110.1100470 384.091200
    571    583    584     1   109.8000471 387.438400
    571    583    585     1   109.8000471 387.438400
    572    571    583     1   110.5600475 386.601600
    572    571    573     1   109.7500473 328.025600
    573    571    583     1   110.5600475 386.601600
    574    570    599     1   110.1100470 384.091200
    574    586    587     1   109.8000471 387.438400
    574    586    588     1   109.8000471 387.438400
    575    574    586     1   110.5600475 386.601600
    575    574    576     1   109.7500473 328.025600
    576    574    586     1   110.5600475 386.601600
    577    570    599     1   110.1100470 384.091200
    577    580    581     1   109.8000471 387.438400
    577    580    582     1   109.8000471 387.438400
    578    577    580     1   110.5600475 386.601600
    578    577    579     1   109.7500473 328.025600
    579    577    580     1   110.5600475 386.601600
    580    589    590     1   109.5600471 388.275200
    580    589    591     1   109.5600471 388.275200
    581    580    589     1   109.8000471 387.438400
    581    580    582     1   107.5800459 329.699200
    582    580    589     1   109.8000471 387.438400
    583    595    596     1   109.5600471 388.275200
    583    595    597     1   109.5600471 388.275200
    584    583    595     1   109.8000471 387.438400
    584    583    585     1   107.5800459 329.699200
    585    583    595     1   109.8000471 387.438400
    586    592    593     1   109.5600471 388.275200
    586    592    594     1   109.5600471 388.275200
    587    586    592     1   109.8000471 387.438400
    587    586    588     1   107.5800459 329.699200
    588    586    592     1   109.8000471 387.438400
    590    589    598     1   109.7800468 425.094400
    590    589    591     1   108.4600466 328.025600
    591    589    598     1   109.7800468 425.094400
    593    592   1228     1   109.7800468 425.094400
    593    592    594     1   108.4600466 328.025600
    594    592   1228     1   109.7800468 425.094400
    596    595   1258     1   109.7800468 425.094400
    596    595    597     1   108.4600466 328.025600
    597    595   1258     1   109.7800468 425.094400
    600    601    602     1   108.0100461 406.684800
    600    601    603     1   108.0100461 406.684800
    600    604    605     1   108.0100461 406.684800
    600    604    606     1   108.0100461 406.684800
    600    607    608     1   108.0100461 406.684800
    600    607    609     1   108.0100461 406.684800
    601    600    629     1   110.1100470 384.091200
    601    613    614     1   109.8000471 387.438400
    601    613    615     1   109.8000471 387.438400
    602    601    613     1   110.5600475 386.601600
    602    601    603     1   109.7500473 328.025600
    603    601    613     1   110.5600475 386.601600
    604    600    629     1   110.1100470 384.091200
    604    616    617     1   109.8000471 387.438400
    604    616    618     1   109.8000471 387.438400
    605    604    616     1   110.5600475 386.601600
    605    604    606     1   109.7500473 328.025600
    606    604    616     1   110.5600475 386.601600
    607    600    629     1   110.1100470 384.091200
    607    610    611     1   109.8000471 387.438400
    607    610    612     1   109.8000471 387.438400
    608    607    610     1   110.5600475 386.601600
    608    607    609     1   109.7500473 328.025600
    609    607    610     1   110.5600475 386.601600
    610    619    620     1   109.5600471 388.275200
    610    619    621     1   109.5600471 388.275200
    611    610    619     1   109.8000471 387.438400
    611    610    612     1   107.5800459 329.699200
    612    610    619     1   109.8000471 387.438400
    613    625    626     1   109.5600471 388.275200
    613    625    627     1   109.5600471 388.275200
    614    613    625     1   109.8000471 387.438400
    614    613    615     1   107.5800459 329.699200
    615    613    625     1   109.8000471 387.438400
    616    622    623     1   109.5600471 388.275200
    616    622    624     1   109.5600471 388.275200
    617    616    622     1   109.8000471 387.438400
    617    616    618     1   107.5800459 329.699200
    618    616    622     1   109.8000471 387.438400
    620    619    628     1   109.7800468 425.094400
    620    619    621     1   108.4600466 328.025600
    621    619    628     1   109.7800468 425.094400
    623    622   1288     1   109.7800468 425.094400
    623    622    624     1   108.4600466 328.025600
    624    622   1288     1   109.7800468 425.094400
    626    625   1318     1   109.7800468 425.094400
    626    625    627     1   108.4600466 328.025600
    627    625   1318     1   109.7800468 425.094400
    630    631    632     1   108.0100461 406.684800
    630    631    633     1   108.0100461 406.684800
    630    634    635     1   108.0100461 406.684800
    630    634    636     1   108.0100461 406.684800
    630    637    638     1   108.0100461 406.684800
    630    637    639     1   108.0100461 406.684800
    631    630    659     1   110.1100470 384.091200
    631    643    644     1   109.8000471 387.438400
    631    643    645     1   109.8000471 387.438400
    632    631    643     1   110.5600475 386.601600
    632    631    633     1   109.7500473 328.025600
    633    631    643     1   110.5600475 386.601600
    634    630    659     1   110.1100470 384.091200
    634    646    647     1   109.8000471 387.438400
    634    646    648     1   109.8000471 387.438400
    635    634    646     1   110.5600475 386.601600
    635    634    636     1   109.7500473 328.025600
    636    634    646     1   110.5600475 386.601600
    637    630    659     1   110.1100470 384.091200
    637    640    641     1   109.8000471 387.438400
    637    640    642     1   109.8000471 387.438400
    638    637    640     1   110.5600475 386.601600
    638    637    639     1   109.7500473 328.025600
    639    637    640     1   110.5600475 386.601600
    640    649    650     1   109.5600471 388.275200
    640    649    651     1   109.5600471 388.275200
    641    640    649     1   109.8000471 387.438400
    641    640    642     1   107.5800459 329.699200
    642    640    649     1   109.8000471 387.438400
    643    655    656     1   109.5600471 388.275200
    643    655    657     1   109.5600471 388.275200
    644    643    655     1   109.8000471 387.438400
    644    643    645     1   107.5800459 329.699200
    645    643    655     1   109.8000471 387.438400
    646    652    653     1   109.5600471 388.275200
    646    652    654     1   109.5600471 388.275200
    647    646    652     1   109.8000471 387.438400
    647    646    648     1   107.5800459 329.699200
    648    646    652     1   109.8000471 387.438400
    650    649    658     1   109.7800468 425.094400
    650    649    651     1   108.4600466 328.025600
    651    649    658     1   109.7800468 425.094400
    653    652   1348     1   109.7800468 425.094400
    653    652    654     1   108.4600466 328.025600
    654    652   1348     1   109.7800468 425.094400
    656    655   1378     1   109.7800468 425.094400
    656    655    657     1   108.4600466 328.025600
    657    655   1378     1   109.7800468 425.094400
    660    661    662     1   108.0100461 406.684800
    660    661    663     1   108.0100461 406.684800
    660    664    665     1   108.0100461 406.684800
    660    664    666     1   108.0100461 406.684800
    660    667    668     1   108.0100461 406.684800
    660    667    669     1   108.0100461 406.684800
    661    660    689     1   110.1100470 384.091200
    661    673    674     1   109.8000471 387.438400
    661    673    675     1   109.8000471 387.438400
    662    661    673     1   110.5600475 386.601600
    662    661    663     1   109.7500473 328.025600
    663    661    673     1   110.5600475 386.601600
    664    660    689     1   110.1100470 384.091200
    664    676    677     1   109.8000471 387.438400
    664    676    678     1   109.8000471 387.438400
    665    664    676     1   110.5600475 386.601600
    665    664    666     1   109.7500473 328.025600
    666    664    676     1   110.5600475 386.601600
    667    660    689     1   110.1100470 384.091200
    667    670    671     1   109.8000471 387.438400
    667    670    672     1   109.8000471 387.438400
    668    667    670     1   110.5600475 386.601600
    668    667    669     1   109.7500473 328.025600
    669    667    670     1   110.5600475 386.601600
    670    679    680     1   109.5600471 388.275200
    670    679    681     1   109.5600471 388.275200
    671    670    679     1   109.8000471 387.438400
    671    670    672     1   107.5800459 329.699200
    672    670    679     1   109.8000471 387.438400
    673    685    686     1   109.5600471 388.275200
    673    685    687     1   109.5600471 388.275200
    674    673    685     1   109.8000471 387.438400
    674    673    675     1   107.5800459 329.699200
    675    673    685     1   109.8000471 387.438400
    676    682    683     1   109.5600471 388.275200
    676    682    684     1   109.5600471 388.275200
    677    676    682     1   109.8000471 387.438400
    677    676    678     1   107.5800459 329.699200
    678    676    682     1   109.8000471 387.438400
    680    679    688     1   109.7800468 425.094400
    680    679    681     1   108.4600466 328.025600
    681    679    688     1   109.7800468 425.094400
    683    682   1408     1   109.7800468 425.094400
    683    682    684     1   108.4600466 328.025600
    684    682   1408     1   109.7800468 425.094400
    686    685   1438     1   109.7800468 425.094400
    686    685    687     1   108.4600466 328.025600
    687    685   1438     1   109.7800468 425.094400
    690    691    692     1   108.0100461 406.684800
    690    691    693     1   108.0100461 406.684800
    690    694    695     1   108.0100461 406.684800
    690    694    696     1   108.0100461 406.684800
    690    697    698     1   108.0100461 406.684800
    690    697    699     1   108.0100461 406.684800
    691    690    719     1   110.1100470 384.091200
    691    703    704     1   109.8000471 387.438400
    691    703    705     1   109.8000471 387.438400
    692    691    703     1   110.5600475 386.601600
    692    691    693     1   109.7500473 328.025600
    693    691    703     1   110.5600475 386.601600
    694    690    719     1   110.1100470 384.091200
    694    706    707     1   109.8000471 387.438400
    694    706    708     1   109.8000471 387.438400
    695    694    706     1   110.5600475 386.601600
    695    694    696     1   109.7500473 328.025600
    696    694    706     1   110.5600475 386.601600
    697    690    719     1   110.1100470 384.091200
    697    700    701     1   109.8000471 387.438400
    697    700    702     1   109.8000471 387.438400
    698    697    700     1   110.5600475 386.601600
    698    697    699     1   109.7500473 328.025600
    699    697    700     1   110.5600475 386.601600
    700    709    710     1   109.5600471 388.275200
    700    709    711     1   109.5600471 388.275200
    701    700    709     1   109.8000471 387.438400
    701    700    702     1   107.5800459 329.699200
    702    700    709     1   109.8000471 387.438400
    703    715    716     1   109.5600471 388.275200
    703    715    717     1   109.5600471 388.275200
    704    703    715     1   109.8000471 387.438400
    704    703    705     1   107.5800459 329.699200
    705    703    715     1   109.8000471 387.438400
    706    712    713     1   109.5600471 388.275200
    706    712    714     1   109.5600471 388.275200
    707    706    712     1   109.8000471 387.438400
    707    706    708     1   107.5800459 329.699200
    708    706    712     1   109.8000471 387.438400
    710    709    718     1   109.7800468 425.094400
    710    709    711     1   108.4600466 328.025600
    711    709    718     1   109.7800468 425.094400
    713    712   1468     1   109.7800468 425.094400
    713    712    714     1   108.4600466 328.025600
    714    712   1468     1   109.7800468 425.094400
    716    715   1498     1   109.7800468 425.094400
    716    715    717     1   108.4600466 328.025600
    717    715   1498     1   109.7800468 425.094400
    720    721    722     1   108.0100461 406.684800
    720    721    723     1   108.0100461 406.684800
    720    724    725     1   108.0100461 406.684800
    720    724    726     1   108.0100461 406.684800
    720    727    728     1   108.0100461 406.684800
    720    727    729     1   108.0100461 406.684800
    721    720    749     1   110.1100470 384.091200
    721    733    734     1   109.8000471 387.438400
    721    733    735     1   109.8000471 387.438400
    722    721    733     1   110.5600475 386.601600
    722    721    723     1   109.7500473 328.025600
    723    721    733     1   110.5600475 386.601600
    724    720    749     1   110.1100470 384.091200
    724    736    737     1   109.8000471 387.438400
    724    736    738     1   109.8000471 387.438400
    725    724    736     1   110.5600475 386.601600
    725    724    726     1   109.7500473 328.025600
    726    724    736     1   110.5600475 386.601600
    727    720    749     1   110.1100470 384.091200
    727    730    731     1   109.8000471 387.438400
    727    730    732     1   109.8000471 387.438400
    728    727    730     1   110.5600475 386.601600
    728    727    729     1   109.7500473 328.025600
    729    727    730     1   110.5600475 386.601600
    730    739    740     1   109.5600471 388.275200
    730    739    741     1   109.5600471 388.275200
    731    730    739     1   109.8000471 387.438400
    731    730    732     1   107.5800459 329.699200
    732    730    739     1   109.8000471 387.438400
    733    745    746     1   109.5600471 388.275200
    733    745    747     1   109.5600471 388.275200
    734    733    745     1   109.8000471 387.438400
    734    733    735     1   107.5800459 329.699200
    735    733    745     1   109.8000471 387.438400
    736    742    743     1   109.5600471 388.275200
    736    742    744     1   109.5600471 388.275200
    737    736    742     1   109.8000471 387.438400
    737    736    738     1   107.5800459 329.699200
    738    736    742     1   109.8000471 387.438400
    740    739    748     1   109.7800468 425.094400
    740    739    741     1   108.4600466 328.025600
    741    739    748     1   109.7800468 425.094400
    743    742   1528     1   109.7800468 425.094400
    743    742    744     1   108.4600466 328.025600
    744    742   1528     1   109.7800468 425.094400
    746    745   1558     1   109.7800468 425.094400
    746    745    747     1   108.4600466 328.025600
    747    745   1558     1   109.7800468 425.094400
    750    751    752     1   108.0100461 406.684800
    750    751    753     1   108.0100461 406.684800
    750    754    755     1   108.0100461 406.684800
    750    754    756     1   108.0100461 406.684800
    750    757    758     1   108.0100461 406.684800
    750    757    759     1   108.0100461 406.684800
    751    750    779     1   110.1100470 384.091200
    751    763    764     1   109.8000471 387.438400
    751    763    765     1   109.8000471 387.438400
    752    751    763     1   110.5600475 386.601600
    752    751    753     1   109.7500473 328.025600
    753    751    763     1   110.5600475 386.601600
    754    750    779     1   110.1100470 384.091200
    754    766    767     1   109.8000471 387.438400
    754    766    768     1   109.8000471 387.438400
    755    754    766     1   110.5600475 386.601600
    755    754    756     1   109.7500473 328.025600
    756    754    766     1   110.5600475 386.601600
    757    750    779     1   110.1100470 384.091200
    757    760    761     1   109.8000471 387.438400
    757    760    762     1   109.8000471 387.438400
    758    757    760     1   110.5600475 386.601600
    758    757    759     1   109.7500473 328.025600
    759    757    760     1   110.5600475 386.601600
    760    769    770     1   109.5600471 388.275200
    760    769    771     1   109.5600471 388.275200
    761    760    769     1   109.8000471 387.438400
    761    760    762     1   107.5800459 329.699200
    762    760    769     1   109.8000471 387.438400
    763    775    776     1   109.5600471 388.275200
    763    775    777     1   109.5600471 388.275200
    764    763    775     1   109.8000471 387.438400
    764    763    765     1   107.5800459 329.699200
    765    763    775     1   109.8000471 387.438400
    766    772    773     1   109.5600471 388.275200
    766    772    774     1   109.5600471 388.275200
    767    766    772     1   109.8000471 387.438400
    767    766    768     1   107.5800459 329.699200
    768    766    772     1   109.8000471 387.438400
    770    769    778     1   109.7800468 425.094400
    770    769    771     1   108.4600466 328.025600
    771    769    778     1   109.7800468 425.094400
    773    772   1588     1   109.7800468 425.094400
    773    772    774     1   108.4600466 328.025600
    774    772   1588     1   109.7800468 425.094400
    776    775   1618     1   109.7800468 425.094400
    776    775    777     1   108.4600466 328.025600
    777    775   1618     1   109.7800468 425.094400
    780    781    782     1   108.0100461 406.684800
    780    781    783     1   108.0100461 406.684800
    780    784    785     1   108.0100461 406.684800
    780    784    786     1   108.0100461 406.684800
    780    787    788     1   108.0100461 406.684800
    780    787    789     1   108.0100461 406.684800
    781    780    809     1   110.1100470 384.091200
    781    793    794     1   109.8000471 387.438400
    781    793    795     1   109.8000471 387.438400
    782    781    793     1   110.5600475 386.601600
    782    781    783     1   109.7500473 328.025600
    783    781    793     1   110.5600475 386.601600
    784    780    809     1   110.1100470 384.091200
    784    796    797     1   109.8000471 387.438400
    784    796    798     1   109.8000471 387.438400
    785    784    796     1   110.5600475 386.601600
    785    784    786     1   109.7500473 328.025600
    786    784    796     1   110.5600475 386.601600
    787    780    809     1   110.1100470 384.091200
    787    790    791     1   109.8000471 387.438400
    787    790    792     1   109.8000471 387.438400
    788    787    790     1   110.5600475 386.601600
    788    787    789     1   109.7500473 328.025600
    789    787    790     1   110.5600475 386.601600
    790    799    800     1   109.5600471 388.275200
    790    799    801     1   109.5600471 388.275200
    791    790    799     1   109.8000471 387.438400
    791    790    792     1   107.5800459 329.699200
    792    790    799     1   109.8000471 387.438400
    793    805    806     1   109.5600471 388.275200
    793    805    807     1   109.5600471 388.275200
    794    793    805     1   109.8000471 387.438400
    794    793    795     1   107.5800459 329.699200
    795    793    805     1   109.8000471 387.438400
    796    802    803     1   109.5600471 388.275200
    796    802    804     1   109.5600471 388.275200
    797    796    802     1   109.8000471 387.438400
    797    796    798     1   107.5800459 329.699200
    798    796    802     1   109.8000471 387.438400
    800    799    808     1   109.7800468 425.094400
    800    799    801     1   108.4600466 328.025600
    801    799    808     1   109.7800468 425.094400
    803    802   1648     1   109.7800468 425.094400
    803    802    804     1   108.4600466 328.025600
    804    802   1648     1   109.7800468 425.094400
    806    805   1678     1   109.7800468 425.094400
    806    805    807     1   108.4600466 328.025600
    807    805   1678     1   109.7800468 425.094400
    810    811    812     1   108.0100461 406.684800
    810    811    813     1   108.0100461 406.684800
    810    814    815     1   108.0100461 406.684800
    810    814    816     1   108.0100461 406.684800
    810    817    818     1   108.0100461 406.684800
    810    817    819     1   108.0100461 406.684800
    811    810    839     1   110.1100470 384.091200
    811    823    824     1   109.8000471 387.438400
    811    823    825     1   109.8000471 387.438400
    812    811    823     1   110.5600475 386.601600
    812    811    813     1   109.7500473 328.025600
    813    811    823     1   110.5600475 386.601600
    814    810    839     1   110.1100470 384.091200
    814    826    827     1   109.8000471 387.438400
    814    826    828     1   109.8000471 387.438400
    815    814    826     1   110.5600475 386.601600
    815    814    816     1   109.7500473 328.025600
    816    814    826     1   110.5600475 386.601600
    817    810    839     1   110.1100470 384.091200
    817    820    821     1   109.8000471 387.438400
    817    820    822     1   109.8000471 387.438400
    818    817    820     1   110.5600475 386.601600
    818    817    819     1   109.7500473 328.025600
    819    817    820     1   110.5600475 386.601600
    820    829    830     1   109.5600471 388.275200
    820    829    831     1   109.5600471 388.275200
    821    820    829     1   109.8000471 387.438400
    821    820    822     1   107.5800459 329.699200
    822    820    829     1   109.8000471 387.438400
    823    835    836     1   109.5600471 388.275200
    823    835    837     1   109.5600471 388.275200
    824    823    835     1   109.8000471 387.438400
    824    823    825     1   107.5800459 329.699200
    825    823    835     1   109.8000471 387.438400
    826    832    833     1   109.5600471 388.275200
    826    832    834     1   109.5600471 388.275200
    827    826    832     1   109.8000471 387.438400
    827    826    828     1   107.5800459 329.699200
    828    826    832     1   109.8000471 387.438400
    830    829    838     1   109.7800468 425.094400
    830    829    831     1   108.4600466 328.025600
    831    829    838     1   109.7800468 425.094400
    833    832   1708     1   109.7800468 425.094400
    833    832    834     1   108.4600466 328.025600
    834    832   1708     1   109.7800468 425.094400
    836    835   1738     1   109.7800468 425.094400
    836    835    837     1   108.4600466 328.025600
    837    835   1738     1   109.7800468 425.094400
    840    841    842     1   108.0100461 406.684800
    840    841    843     1   108.0100461 406.684800
    840    844    845     1   108.0100461 406.684800
    840    844    846     1   108.0100461 406.684800
    840    847    848     1   108.0100461 406.684800
    840    847    849     1   108.0100461 406.684800
    841    840    869     1   110.1100470 384.091200
    841    853    854     1   109.8000471 387.438400
    841    853    855     1   109.8000471 387.438400
    842    841    853     1   110.5600475 386.601600
    842    841    843     1   109.7500473 328.025600
    843    841    853     1   110.5600475 386.601600
    844    840    869     1   110.1100470 384.091200
    844    856    857     1   109.8000471 387.438400
    844    856    858     1   109.8000471 387.438400
    845    844    856     1   110.5600475 386.601600
    845    844    846     1   109.7500473 328.025600
    846    844    856     1   110.5600475 386.601600
    847    840    869     1   110.1100470 384.091200
    847    850    851     1   109.8000471 387.438400
    847    850    852     1   109.8000471 387.438400
    848    847    850     1   110.5600475 386.601600
    848    847    849     1   109.7500473 328.025600
    849    847    850     1   110.5600475 386.601600
    850    859    860     1   109.5600471 388.275200
    850    859    861     1   109.5600471 388.275200
    851    850    859     1   109.8000471 387.438400
    851    850    852     1   107.5800459 329.699200
    852    850    859     1   109.8000471 387.438400
    853    865    866     1   109.5600471 388.275200
    853    865    867     1   109.5600471 388.275200
    854    853    865     1   109.8000471 387.438400
    854    853    855     1   107.5800459 329.699200
    855    853    865     1   109.8000471 387.438400
    856    862    863     1   109.5600471 388.275200
    856    862    864     1   109.5600471 388.275200
    857    856    862     1   109.8000471 387.438400
    857    856    858     1   107.5800459 329.699200
    858    856    862     1   109.8000471 387.438400
    860    859    868     1   109.7800468 425.094400
    860    859    861     1   108.4600466 328.025600
    861    859    868     1   109.7800468 425.094400
    863    862   1768     1   109.7800468 425.094400
    863    862    864     1   108.4600466 328.025600
    864    862   1768     1   109.7800468 425.094400
    866    865   1798     1   109.7800468 425.094400
    866    865    867     1   108.4600466 328.025600
    867    865   1798     1   109.7800468 425.094400
    870    871    872     1   108.0100461 406.684800
    870    871    873     1   108.0100461 406.684800
    870    874    875     1   108.0100461 406.684800
    870    874    876     1   108.0100461 406.684800
    870    877    878     1   108.0100461 406.684800
    870    877    879     1   108.0100461 406.684800
    871    870    899     1   110.1100470 384.091200
    871    883    884     1   109.8000471 387.438400
    871    883    885     1   109.8000471 387.438400
    872    871    883     1   110.5600475 386.601600
    872    871    873     1   109.7500473 328.025600
    873    871    883     1   110.5600475 386.601600
    874    870    899     1   110.1100470 384.091200
    874    886    887     1   109.8000471 387.438400
    874    886    888     1   109.8000471 387.438400
    875    874    886     1   110.5600475 386.601600
    875    874    876     1   109.7500473 328.025600
    876    874    886     1   110.5600475 386.601600
    877    870    899     1   110.1100470 384.091200
    877    880    881     1   109.8000471 387.438400
    877    880    882     1   109.8000471 387.438400
    878    877    880     1   110.5600475 386.601600
    878    877    879     1   109.7500473 328.025600
    879    877    880     1   110.5600475 386.601600
    880    889    890     1   109.5600471 388.275200
    880    889    891     1   109.5600471 388.275200
    881    880    889     1   109.8000471 387.438400
    881    880    882     1   107.5800459 329.699200
    882    880    889     1   109.8000471 387.438400
    883    895    896     1   109.5600471 388.275200
    883    895    897     1   109.5600471 388.275200
    884    883    895     1   109.8000471 387.438400
    884    883    885     1   107.5800459 329.699200
    885    883    895     1   109.8000471 387.438400
    886    892    893     1   109.5600471 388.275200
    886    892    894     1   109.5600471 388.275200
    887    886    892     1   109.8000471 387.438400
    887    886    888     1   107.5800459 329.699200
    888    886    892     1   109.8000471 387.438400
    890    889    898     1   109.7800468 425.094400
    890    889    891     1   108.4600466 328.025600
    891    889    898     1   109.7800468 425.094400
    893    892   1828     1   109.7800468 425.094400
    893    892    894     1   108.4600466 328.025600
    894    892   1828     1   109.7800468 425.094400
    896    895   1858     1   109.7800468 425.094400
    896    895    897     1   108.4600466 328.025600
    897    895   1858     1   109.7800468 425.094400
    900    901    902     1   108.0100461 406.684800
    900    901    903     1   108.0100461 406.684800
    900    904    905     1   108.0100461 406.684800
    900    904    906     1   108.0100461 406.684800
    900    907    908     1   108.0100461 406.684800
    900    907    909     1   108.0100461 406.684800
    901    900    929     1   110.1100470 384.091200
    901    913    914     1   109.8000471 387.438400
    901    913    915     1   109.8000471 387.438400
    902    901    913     1   110.5600475 386.601600
    902    901    903     1   109.7500473 328.025600
    903    901    913     1   110.5600475 386.601600
    904    900    929     1   110.1100470 384.091200
    904    916    917     1   109.8000471 387.438400
    904    916    918     1   109.8000471 387.438400
    905    904    916     1   110.5600475 386.601600
    905    904    906     1   109.7500473 328.025600
    906    904    916     1   110.5600475 386.601600
    907    900    929     1   110.1100470 384.091200
    907    910    911     1   109.8000471 387.438400
    907    910    912     1   109.8000471 387.438400
    908    907    910     1   110.5600475 386.601600
    908    907    909     1   109.7500473 328.025600
    909    907    910     1   110.5600475 386.601600
    910    919    920     1   109.5600471 388.275200
    910    919    921     1   109.5600471 388.275200
    911    910    919     1   109.8000471 387.438400
    911    910    912     1   107.5800459 329.699200
    912    910    919     1   109.8000471 387.438400
    913    925    926     1   109.5600471 388.275200
    913    925    927     1   109.5600471 388.275200
    914    913    925     1   109.8000471 387.438400
    914    913    915     1   107.5800459 329.699200
    915    913    925     1   109.8000471 387.438400
    916    922    923     1   109.5600471 388.275200
    916    922    924     1   109.5600471 388.275200
    917    916    922     1   109.8000471 387.438400
    917    916    918     1   107.5800459 329.699200
    918    916    922     1   109.8000471 387.438400
    920    919    928     1   109.7800468 425.094400
    920    919    921     1   108.4600466 328.025600
    921    919    928     1   109.7800468 425.094400
    923    922   1888     1   109.7800468 425.094400
    923    922    924     1   108.4600466 328.025600
    924    922   1888     1   109.7800468 425.094400
    926    925   1918     1   109.7800468 425.094400
    926    925    927     1   108.4600466 328.025600
    927    925   1918     1   109.7800468 425.094400
    930    931    932     1   108.0100461 406.684800
    930    931    933     1   108.0100461 406.684800
    930    934    935     1   108.0100461 406.684800
    930    934    936     1   108.0100461 406.684800
    930    937    938     1   108.0100461 406.684800
    930    937    939     1   108.0100461 406.684800
    931    930    959     1   110.1100470 384.091200
    931    943    944     1   109.8000471 387.438400
    931    943    945     1   109.8000471 387.438400
    932    931    943     1   110.5600475 386.601600
    932    931    933     1   109.7500473 328.025600
    933    931    943     1   110.5600475 386.601600
    934    930    959     1   110.1100470 384.091200
    934    946    947     1   109.8000471 387.438400
    934    946    948     1   109.8000471 387.438400
    935    934    946     1   110.5600475 386.601600
    935    934    936     1   109.7500473 328.025600
    936    934    946     1   110.5600475 386.601600
    937    930    959     1   110.1100470 384.091200
    937    940    941     1   109.8000471 387.438400
    937    940    942     1   109.8000471 387.438400
    938    937    940     1   110.5600475 386.601600
    938    937    939     1   109.7500473 328.025600
    939    937    940     1   110.5600475 386.601600
    940    949    950     1   109.5600471 388.275200
    940    949    951     1   109.5600471 388.275200
    941    940    949     1   109.8000471 387.438400
    941    940    942     1   107.5800459 329.699200
    942    940    949     1   109.8000471 387.438400
    943    955    956     1   109.5600471 388.275200
    943    955    957     1   109.5600471 388.275200
    944    943    955     1   109.8000471 387.438400
    944    943    945     1   107.5800459 329.699200
    945    943    955     1   109.8000471 387.438400
    946    952    953     1   109.5600471 388.275200
    946    952    954     1   109.5600471 388.275200
    947    946    952     1   109.8000471 387.438400
    947    946    948     1   107.5800459 329.699200
    948    946    952     1   109.8000471 387.438400
    950    949    958     1   109.7800468 425.094400
    950    949    951     1   108.4600466 328.025600
    951    949    958     1   109.7800468 425.094400
    953    952   1948     1   109.7800468 425.094400
    953    952    954     1   108.4600466 328.025600
    954    952   1948     1   109.7800468 425.094400
    956    955   1978     1   109.7800468 425.094400
    956    955    957     1   108.4600466 328.025600
    957    955   1978     1   109.7800468 425.094400
    960    961    962     1   108.0100461 406.684800
    960    961    963     1   108.0100461 406.684800
    960    964    965     1   108.0100461 406.684800
    960    964    966     1   108.0100461 406.684800
    960    967    968     1   108.0100461 406.684800
    960    967    969     1   108.0100461 406.684800
    961    960    989     1   110.1100470 384.091200
    961    973    974     1   109.8000471 387.438400
    961    973    975     1   109.8000471 387.438400
    962    961    973     1   110.5600475 386.601600
    962    961    963     1   109.7500473 328.025600
    963    961    973     1   110.5600475 386.601600
    964    960    989     1   110.1100470 384.091200
    964    976    977     1   109.8000471 387.438400
    964    976    978     1   109.8000471 387.438400
    965    964    976     1   110.5600475 386.601600
    965    964    966     1   109.7500473 328.025600
    966    964    976     1   110.5600475 386.601600
    967    960    989     1   110.1100470 384.091200
    967    970    971     1   109.8000471 387.438400
    967    970    972     1   109.8000471 387.438400
    968    967    970     1   110.5600475 386.601600
    968    967    969     1   109.7500473 328.025600
    969    967    970     1   110.5600475 386.601600
    970    979    980     1   109.5600471 388.275200
    970    979    981     1   109.5600471 388.275200
    971    970    979     1   109.8000471 387.438400
    971    970    972     1   107.5800459 329.699200
    972    970    979     1   109.8000471 387.438400
    973    985    986     1   109.5600471 388.275200
    973    985    987     1   109.5600471 388.275200
    974    973    985     1   109.8000471 387.438400
    974    973    975     1   107.5800459 329.699200
    975    973    985     1   109.8000471 387.438400
    976    982    983     1   109.5600471 388.275200
    976    982    984     1   109.5600471 388.275200
    977    976    982     1   109.8000471 387.438400
    977    976    978     1   107.5800459 329.699200
    978    976    982     1   109.8000471 387.438400
    980    979    988     1   109.7800468 425.094400
    980    979    981     1   108.4600466 328.025600
    981    979    988     1   109.7800468 425.094400
    983    982   2008     1   109.7800468 425.094400
    983    982    984     1   108.4600466 328.025600
    984    982   2008     1   109.7800468 425.094400
    986    985   2038     1   109.7800468 425.094400
    986    985    987     1   108.4600466 328.025600
    987    985   2038     1   109.7800468 425.094400
    990    991    992     1   108.0100461 406.684800
    990    991    993     1   108.0100461 406.684800
    990    994    995     1   108.0100461 406.684800
    990    994    996     1   108.0100461 406.684800
    990    997    998     1   108.0100461 406.684800
    990    997    999     1   108.0100461 406.684800
    991    990   1019     1   110.1100470 384.091200
    991   1003   1004     1   109.8000471 387.438400
    991   1003   1005     1   109.8000471 387.438400
    992    991   1003     1   110.5600475 386.601600
    992    991    993     1   109.7500473 328.025600
    993    991   1003     1   110.5600475 386.601600
    994    990   1019     1   110.1100470 384.091200
    994   1006   1007     1   109.8000471 387.438400
    994   1006   1008     1   109.8000471 387.438400
    995    994   1006     1   110.5600475 386.601600
    995    994    996     1   109.7500473 328.025600
    996    994   1006     1   110.5600475 386.601600
    997    990   1019     1   110.1100470 384.091200
    997   1000   1001     1   109.8000471 387.438400
    997   1000   1002     1   109.8000471 387.438400
    998    997   1000     1   110.5600475 386.601600
    998    997    999     1   109.7500473 328.025600
    999    997   1000     1   110.5600475 386.601600
   1000   1009   1010     1   109.5600471 388.275200
   1000   1009   1011     1   109.5600471 388.275200
   1001   1000   1009     1   109.8000471 387.438400
   1001   1000   1002     1   107.5800459 329.699200
   1002   1000   1009     1   109.8000471 387.438400
   1003   1015   1016     1   109.5600471 388.275200
   1003   1015   1017     1   109.5600471 388.275200
   1004   1003   1015     1   109.8000471 387.438400
   1004   1003   1005     1   107.5800459 329.699200
   1005   1003   1015     1   109.8000471 387.438400
   1006   1012   1013     1   109.5600471 388.275200
   1006   1012   1014     1   109.5600471 388.275200
   1007   1006   1012     1   109.8000471 387.438400
   1007   1006   1008     1   107.5800459 329.699200
   1008   1006   1012     1   109.8000471 387.438400
   1010   1009   1018     1   109.7800468 425.094400
   1010   1009   1011     1   108.4600466 328.025600
   1011   1009   1018     1   109.7800468 425.094400
   1013   1012   2068     1   109.7800468 425.094400
   1013   1012   1014     1   108.4600466 328.025600
   1014   1012   2068     1   109.7800468 425.094400
   1016   1015   2098     1   109.7800468 425.094400
   1016   1015   1017     1   108.4600466 328.025600
   1017   1015   2098     1   109.7800468 425.094400
   1020   1021   1022     1   108.0100461 406.684800
   1020   1021   1023     1   108.0100461 406.684800
   1020   1024   1025     1   108.0100461 406.684800
   1020   1024   1026     1   108.0100461 406.684800
   1020   1027   1028     1   108.0100461 406.684800
   1020   1027   1029     1   108.0100461 406.684800
   1021   1020   1049     1   110.1100470 384.091200
   1021   1033   1034     1   109.8000471 387.438400
   1021   1033   1035     1   109.8000471 387.438400
   1022   1021   1033     1   110.5600475 386.601600
   1022   1021   1023     1   109.7500473 328.025600
   1023   1021   1033     1   110.5600475 386.601600
   1024   1020   1049     1   110.1100470 384.091200
   1024   1036   1037     1   109.8000471 387.438400
   1024   1036   1038     1   109.8000471 387.438400
   1025   1024   1036     1   110.5600475 386.601600
   1025   1024   1026     1   109.7500473 328.025600
   1026   1024   1036     1   110.5600475 386.601600
   1027   1020   1049     1   110.1100470 384.091200
   1027   1030   1031     1   109.8000471 387.438400
   1027   1030   1032     1   109.8000471 387.438400
   1028   1027   1030     1   110.5600475 386.601600
   1028   1027   1029     1   109.7500473 328.025600
   1029   1027   1030     1   110.5600475 386.601600
   1030   1039   1040     1   109.5600471 388.275200
   1030   1039   1041     1   109.5600471 388.275200
   1031   1030   1039     1   109.8000471 387.438400
   1031   1030   1032     1   107.5800459 329.699200
   1032   1030   1039     1   109.8000471 387.438400
   1033   1045   1046     1   109.5600471 388.275200
   1033   1045   1047     1   109.5600471 388.275200
   1034   1033   1045     1   109.8000471 387.438400
   1034   1033   1035     1   107.5800459 329.699200
   1035   1033   1045     1   109.8000471 387.438400
   1036   1042   1043     1   109.5600471 388.275200
   1036   1042   1044     1   109.5600471 388.275200
   1037   1036   1042     1   109.8000471 387.438400
   1037   1036   1038     1   107.5800459 329.699200
   1038   1036   1042     1   109.8000471 387.438400
   1040   1039   1048     1   109.7800468 425.094400
   1040   1039   1041     1   108.4600466 328.025600
   1041   1039   1048     1   109.7800468 425.094400
   1043   1042   2128     1   109.7800468 425.094400
   1043   1042   1044     1   108.4600466 328.025600
   1044   1042   2128     1   109.7800468 425.094400
   1046   1045   2158     1   109.7800468 425.094400
   1046   1045   1047     1   108.4600466 328.025600
   1047   1045   2158     1   109.7800468 425.094400
   1050   1051   1052     1   108.0100461 406.684800
   1050   1051   1053     1   108.0100461 406.684800
   1050   1054   1055     1   108.0100461 406.684800
   1050   1054   1056     1   108.0100461 406.684800
   1050   1057   1058     1   108.0100461 406.684800
   1050   1057   1059     1   108.0100461 406.684800
   1051   1050   1079     1   110.1100470 384.091200
   1051   1063   1064     1   109.8000471 387.438400
   1051   1063   1065     1   109.8000471 387.438400
   1052   1051   1063     1   110.5600475 386.601600
   1052   1051   1053     1   109.7500473 328.025600
   1053   1051   1063     1   110.5600475 386.601600
   1054   1050   1079     1   110.1100470 384.091200
   1054   1066   1067     1   109.8000471 387.438400
   1054   1066   1068     1   109.8000471 387.438400
   1055   1054   1066     1   110.5600475 386.601600
   1055   1054   1056     1   109.7500473 328.025600
   1056   1054   1066     1   110.5600475 386.601600
   1057   1050   1079     1   110.1100470 384.091200
   1057   1060   1061     1   109.8000471 387.438400
   1057   1060   1062     1   109.8000471 387.438400
   1058   1057   1060     1   110.5600475 386.601600
   1058   1057   1059     1   109.7500473 328.025600
   1059   1057   1060     1   110.5600475 386.601600
   1060   1069   1070     1   109.5600471 388.275200
   1060   1069   1071     1   109.5600471 388.275200
   1061   1060   1069     1   109.8000471 387.438400
   1061   1060   1062     1   107.5800459 329.699200
   1062   1060   1069     1   109.8000471 387.438400
   1063   1075   1076     1   109.5600471 388.275200
   1063   1075   1077     1   109.5600471 388.275200
   1064   1063   1075     1   109.8000471 387.438400
   1064   1063   1065     1   107.5800459 329.699200
   1065   1063   1075     1   109.8000471 387.438400
   1066   1072   1073     1   109.5600471 388.275200
   1066   1072   1074     1   109.5600471 388.275200
   1067   1066   1072     1   109.8000471 387.438400
   1067   1066   1068     1   107.5800459 329.699200
   1068   1066   1072     1   109.8000471 387.438400
   1070   1069   1078     1   109.7800468 425.094400
   1070   1069   1071     1   108.4600466 328.025600
   1071   1069   1078     1   109.7800468 425.094400
   1073   1072   2188     1   109.7800468 425.094400
   1073   1072   1074     1   108.4600466 328.025600
   1074   1072   2188     1   109.7800468 425.094400
   1076   1075   2218     1   109.7800468 425.094400
   1076   1075   1077     1   108.4600466 328.025600
   1077   1075   2218     1   109.7800468 425.094400
   1080   1081   1082     1   108.0100461 406.684800
   1080   1081   1083     1   108.0100461 406.684800
   1080   1084   1085     1   108.0100461 406.684800
   1080   1084   1086     1   108.0100461 406.684800
   1080   1087   1088     1   108.0100461 406.684800
   1080   1087   1089     1   108.0100461 406.684800
   1081   1080   1109     1   110.1100470 384.091200
   1081   1093   1094     1   109.8000471 387.438400
   1081   1093   1095     1   109.8000471 387.438400
   1082   1081   1093     1   110.5600475 386.601600
   1082   1081   1083     1   109.7500473 328.025600
   1083   1081   1093     1   110.5600475 386.601600
   1084   1080   1109     1   110.1100470 384.091200
   1084   1096   1097     1   109.8000471 387.438400
   1084   1096   1098     1   109.8000471 387.438400
   1085   1084   1096     1   110.5600475 386.601600
   1085   1084   1086     1   109.7500473 328.025600
   1086   1084   1096     1   110.5600475 386.601600
   1087   1080   1109     1   110.1100470 384.091200
   1087   1090   1091     1   109.8000471 387.438400
   1087   1090   1092     1   109.8000471 387.438400
   1088   1087   1090     1   110.5600475 386.601600
   1088   1087   1089     1   109.7500473 328.025600
   1089   1087   1090     1   110.5600475 386.601600
   1090   1099   1100     1   109.5600471 388.275200
   1090   1099   1101     1   109.5600471 388.275200
   1091   1090   1099     1   109.8000471 387.438400
   1091   1090   1092     1   107.5800459 329.699200
   1092   1090   1099     1   109.8000471 387.438400
   1093   1105   1106     1   109.5600471 388.275200
   1093   1105   1107     1   109.5600471 388.275200
   1094   1093   1105     1   109.8000471 387.438400
   1094   1093   1095     1   107.5800459 329.699200
   1095   1093   1105     1   109.8000471 387.438400
   1096   1102   1103     1   109.5600471 388.275200
   1096   1102   1104     1   109.5600471 388.275200
   1097   1096   1102     1   109.8000471 387.438400
   1097   1096   1098     1   107.5800459 329.699200
   1098   1096   1102     1   109.8000471 387.438400
   1100   1099   1108     1   109.7800468 425.094400
   1100   1099   1101     1   108.4600466 328.025600
   1101   1099   1108     1   109.7800468 425.094400
   1103   1102   2248     1   109.7800468 425.094400
   1103   1102   1104     1   108.4600466 328.025600
   1104   1102   2248     1   109.7800468 425.094400
   1106   1105   2278     1   109.7800468 425.094400
   1106   1105   1107     1   108.4600466 328.025600
   1107   1105   2278     1   109.7800468 425.094400
   1110   1111   1112     1   108.0100461 406.684800
   1110   1111   1113     1   108.0100461 406.684800
   1110   1114   1115     1   108.0100461 406.684800
   1110   1114   1116     1   108.0100461 406.684800
   1110   1117   1118     1   108.0100461 406.684800
   1110   1117   1119     1   108.0100461 406.684800
   1111   1110   1139     1   110.1100470 384.091200
   1111   1123   1124     1   109.8000471 387.438400
   1111   1123   1125     1   109.8000471 387.438400
   1112   1111   1123     1   110.5600475 386.601600
   1112   1111   1113     1   109.7500473 328.025600
   1113   1111   1123     1   110.5600475 386.601600
   1114   1110   1139     1   110.1100470 384.091200
   1114   1126   1127     1   109.8000471 387.438400
   1114   1126   1128     1   109.8000471 387.438400
   1115   1114   1126     1   110.5600475 386.601600
   1115   1114   1116     1   109.7500473 328.025600
   1116   1114   1126     1   110.5600475 386.601600
   1117   1110   1139     1   110.1100470 384.091200
   1117   1120   1121     1   109.8000471 387.438400
   1117   1120   1122     1   109.8000471 387.438400
   1118   1117   1120     1   110.5600475 386.601600
   1118   1117   1119     1   109.7500473 328.025600
   1119   1117   1120     1   110.5600475 386.601600
   1120   1129   1130     1   109.5600471 388.275200
   1120   1129   1131     1   109.5600471 388.275200
   1121   1120   1129     1   109.8000471 387.438400
   1121   1120   1122     1   107.5800459 329.699200
   1122   1120   1129     1   109.8000471 387.438400
   1123   1135   1136     1   109.5600471 388.275200
   1123   1135   1137     1   109.5600471 388.275200
   1124   1123   1135     1   109.8000471 387.438400
   1124   1123   1125     1   107.5800459 329.699200
   1125   1123   1135     1   109.8000471 387.438400
   1126   1132   1133     1   109.5600471 388.275200
   1126   1132   1134     1   109.5600471 388.275200
   1127   1126   1132     1   109.8000471 387.438400
   1127   1126   1128     1   107.5800459 329.699200
   1128   1126   1132     1   109.8000471 387.438400
   1130   1129   1138     1   109.7800468 425.094400
   1130   1129   1131     1   108.4600466 328.025600
   1131   1129   1138     1   109.7800468 425.094400
   1133   1132   2308     1   109.7800468 425.094400
   1133   1132   1134     1   108.4600466 328.025600
   1134   1132   2308     1   109.7800468 425.094400
   1136   1135   2338     1   109.7800468 425.094400
   1136   1135   1137     1   108.4600466 328.025600
   1137   1135   2338     1   109.7800468 425.094400
   1140   1141   1142     1   108.0100461 406.684800
   1140   1141   1143     1   108.0100461 406.684800
   1140   1144   1145     1   108.0100461 406.684800
   1140   1144   1146     1   108.0100461 406.684800
   1140   1147   1148     1   108.0100461 406.684800
   1140   1147   1149     1   108.0100461 406.684800
   1141   1140   1169     1   110.1100470 384.091200
   1141   1153   1154     1   109.8000471 387.438400
   1141   1153   1155     1   109.8000471 387.438400
   1142   1141   1153     1   110.5600475 386.601600
   1142   1141   1143     1   109.7500473 328.025600
   1143   1141   1153     1   110.5600475 386.601600
   1144   1140   1169     1   110.1100470 384.091200
   1144   1156   1157     1   109.8000471 387.438400
   1144   1156   1158     1   109.8000471 387.438400
   1145   1144   1156     1   110.5600475 386.601600
   1145   1144   1146     1   109.7500473 328.025600
   1146   1144   1156     1   110.5600475 386.601600
   1147   1140   1169     1   110.1100470 384.091200
   1147   1150   1151     1   109.8000471 387.438400
   1147   1150   1152     1   109.8000471 387.438400
   1148   1147   1150     1   110.5600475 386.601600
   1148   1147   1149     1   109.7500473 328.025600
   1149   1147   1150     1   110.5600475 386.601600
   1150   1159   1160     1   109.5600471 388.275200
   1150   1159   1161     1   109.5600471 388.275200
   1151   1150   1159     1   109.8000471 387.438400
   1151   1150   1152     1   107.5800459 329.699200
   1152   1150   1159     1   109.8000471 387.438400
   1153   1165   1166     1   109.5600471 388.275200
   1153   1165   1167     1   109.5600471 388.275200
   1154   1153   1165     1   109.8000471 387.438400
   1154   1153   1155     1   107.5800459 329.699200
   1155   1153   1165     1   109.8000471 387.438400
   1156   1162   1163     1   109.5600471 388.275200
   1156   1162   1164     1   109.5600471 388.275200
   1157   1156   1162     1   109.8000471 387.438400
   1157   1156   1158     1   107.5800459 329.699200
   1158   1156   1162     1   109.8000471 387.438400
   1160   1159   1168     1   109.7800468 425.094400
   1160   1159   1161     1   108.4600466 328.025600
   1161   1159   1168     1   109.7800468 425.094400
   1163   1162   2368     1   109.7800468 425.094400
   1163   1162   1164     1   108.4600466 328.025600
   1164   1162   2368     1   109.7800468 425.094400
   1166   1165   2398     1   109.7800468 425.094400
   1166   1165   1167     1   108.4600466 328.025600
   1167   1165   2398     1   109.7800468 425.094400
   1170   1171   1172     1   108.0100461 406.684800
   1170   1171   1173     1   108.0100461 406.684800
   1170   1174   1175     1   108.0100461 406.684800
   1170   1174   1176     1   108.0100461 406.684800
   1170   1177   1178     1   108.0100461 406.684800
   1170   1177   1179     1   108.0100461 406.684800
   1171   1170   1199     1   110.1100470 384.091200
   1171   1183   1184     1   109.8000471 387.438400
   1171   1183   1185     1   109.8000471 387.438400
   1172   1171   1183     1   110.5600475 386.601600
   1172   1171   1173     1   109.7500473 328.025600
   1173   1171   1183     1   110.5600475 386.601600
   1174   1170   1199     1   110.1100470 384.091200
   1174   1186   1187     1   109.8000471 387.438400
   1174   1186   1188     1   109.8000471 387.438400
   1175   1174   1186     1   110.5600475 386.601600
   1175   1174   1176     1   109.7500473 328.025600
   1176   1174   1186     1   110.5600475 386.601600
   1177   1170   1199     1   110.1100470 384.091200
   1177   1180   1181     1   109.8000471 387.438400
   1177   1180   1182     1   109.8000471 387.438400
   1178   1177   1180     1   110.5600475 386.601600
   1178   1177   1179     1   109.7500473 328.025600
   1179   1177   1180     1   110.5600475 386.601600
   1180   1189   1190     1   109.5600471 388.275200
   1180   1189   1191     1   109.5600471 388.275200
   1181   1180   1189     1   109.8000471 387.438400
   1181   1180   1182     1   107.5800459 329.699200
   1182   1180   1189     1   109.8000471 387.438400
   1183   1195   1196     1   109.5600471 388.275200
   1183   1195   1197     1   109.5600471 388.275200
   1184   1183   1195     1   109.8000471 387.438400
   1184   1183   1185     1   107.5800459 329.699200
   1185   1183   1195     1   109.8000471 387.438400
   1186   1192   1193     1   109.5600471 388.275200
   1186   1192   1194     1   109.5600471 388.275200
   1187   1186   1192     1   109.8000471 387.438400
   1187   1186   1188     1   107.5800459 329.699200
   1188   1186   1192     1   109.8000471 387.438400
   1190   1189   1198     1   109.7800468 425.094400
   1190   1189   1191     1   108.4600466 328.025600
   1191   1189   1198     1   109.7800468 425.094400
   1193   1192   2428     1   109.7800468 425.094400
   1193   1192   1194     1   108.4600466 328.025600
   1194   1192   2428     1   109.7800468 425.094400
   1196   1195   2458     1   109.7800468 425.094400
   1196   1195   1197     1   108.4600466 328.025600
   1197   1195   2458     1   109.7800468 425.094400
   1200   1201   1202     1   108.0100461 406.684800
   1200   1201   1203     1   108.0100461 406.684800
   1200   1204   1205     1   108.0100461 406.684800
   1200   1204   1206     1   108.0100461 406.684800
   1200   1207   1208     1   108.0100461 406.684800
   1200   1207   1209     1   108.0100461 406.684800
   1201   1200   1229     1   110.1100470 384.091200
   1201   1213   1214     1   109.8000471 387.438400
   1201   1213   1215     1   109.8000471 387.438400
   1202   1201   1213     1   110.5600475 386.601600
   1202   1201   1203     1   109.7500473 328.025600
   1203   1201   1213     1   110.5600475 386.601600
   1204   1200   1229     1   110.1100470 384.091200
   1204   1216   1217     1   109.8000471 387.438400
   1204   1216   1218     1   109.8000471 387.438400
   1205   1204   1216     1   110.5600475 386.601600
   1205   1204   1206     1   109.7500473 328.025600
   1206   1204   1216     1   110.5600475 386.601600
   1207   1200   1229     1   110.1100470 384.091200
   1207   1210   1211     1   109.8000471 387.438400
   1207   1210   1212     1   109.8000471 387.438400
   1208   1207   1210     1   110.5600475 386.601600
   1208   1207   1209     1   109.7500473 328.025600
   1209   1207   1210     1   110.5600475 386.601600
   1210   1219   1220     1   109.5600471 388.275200
   1210   1219   1221     1   109.5600471 388.275200
   1211   1210   1219     1   109.8000471 387.438400
   1211   1210   1212     1   107.5800459 329.699200
   1212   1210   1219     1   109.8000471 387.438400
   1213   1225   1226     1   109.5600471 388.275200
   1213   1225   1227     1   109.5600471 388.275200
   1214   1213   1225     1   109.8000471 387.438400
   1214   1213   1215     1   107.5800459 329.699200
   1215   1213   1225     1   109.8000471 387.438400
   1216   1222   1223     1   109.5600471 388.275200
   1216   1222   1224     1   109.5600471 388.275200
   1217   1216   1222     1   109.8000471 387.438400
   1217   1216   1218     1   107.5800459 329.699200
   1218   1216   1222     1   109.8000471 387.438400
   1220   1219   1228     1   109.7800468 425.094400
   1220   1219   1221     1   108.4600466 328.025600
   1221   1219   1228     1   109.7800468 425.094400
   1223   1222   2488     1   109.7800468 425.094400
   1223   1222   1224     1   108.4600466 328.025600
   1224   1222   2488     1   109.7800468 425.094400
   1226   1225   2518     1   109.7800468 425.094400
   1226   1225   1227     1   108.4600466 328.025600
   1227   1225   2518     1   109.7800468 425.094400
   1230   1231   1232     1   108.0100461 406.684800
   1230   1231   1233     1   108.0100461 406.684800
   1230   1234   1235     1   108.0100461 406.684800
   1230   1234   1236     1   108.0100461 406.684800
   1230   1237   1238     1   108.0100461 406.684800
   1230   1237   1239     1   108.0100461 406.684800
   1231   1230   1259     1   110.1100470 384.091200
   1231   1243   1244     1   109.8000471 387.438400
   1231   1243   1245     1   109.8000471 387.438400
   1232   1231   1243     1   110.5600475 386.601600
   1232   1231   1233     1   109.7500473 328.025600
   1233   1231   1243     1   110.5600475 386.601600
   1234   1230   1259     1   110.1100470 384.091200
   1234   1246   1247     1   109.8000471 387.438400
   1234   1246   1248     1   109.8000471 387.438400
   1235   1234   1246     1   110.5600475 386.601600
   1235   1234   1236     1   109.7500473 328.025600
   1236   1234   1246     1   110.5600475 386.601600
   1237   1230   1259     1   110.1100470 384.091200
   1237   1240   1241     1   109.8000471 387.438400
   1237   1240   1242     1   109.8000471 387.438400
   1238   1237   1240     1   110.5600475 386.601600
   1238   1237   1239     1   109.7500473 328.025600
   1239   1237   1240     1   110.5600475 386.601600
   1240   1249   1250     1   109.5600471 388.275200
   1240   1249   1251     1   109.5600471 388.275200
   1241   1240   1249     1   109.8000471 387.438400
   1241   1240   1242     1   107.5800459 329.699200
   1242   1240   1249     1   109.8000471 387.438400
   1243   1255   1256     1   109.5600471 388.275200
   1243   1255   1257     1   109.5600471 388.275200
   1244   1243   1255     1   109.8000471 387.438400
   1244   1243   1245     1   107.5800459 329.699200
   1245   1243   1255     1   109.8000471 387.438400
   1246   1252   1253     1   109.5600471 388.275200
   1246   1252   1254     1   109.5600471 388.275200
   1247   1246   1252     1   109.8000471 387.438400
   1247   1246   1248     1   107.5800459 329.699200
   1248   1246   1252     1   109.8000471 387.438400
   1250   1249   1258     1   109.7800468 425.094400
   1250   1249   1251     1   108.4600466 328.025600
   1251   1249   1258     1   109.7800468 425.094400
   1253   1252   2548     1   109.7800468 425.094400
   1253   1252   1254     1   108.4600466 328.025600
   1254   1252   2548     1   109.7800468 425.094400
   1256   1255   2578     1   109.7800468 425.094400
   1256   1255   1257     1   108.4600466 328.025600
   1257   1255   2578     1   109.7800468 425.094400
   1260   1261   1262     1   108.0100461 406.684800
   1260   1261   1263     1   108.0100461 406.684800
   1260   1264   1265     1   108.0100461 406.684800
   1260   1264   1266     1   108.0100461 406.684800
   1260   1267   1268     1   108.0100461 406.684800
   1260   1267   1269     1   108.0100461 406.684800
   1261   1260   1289     1   110.1100470 384.091200
   1261   1273   1274     1   109.8000471 387.438400
   1261   1273   1275     1   109.8000471 387.438400
   1262   1261   1273     1   110.5600475 386.601600
   1262   1261   1263     1   109.7500473 328.025600
   1263   1261   1273     1   110.5600475 386.601600
   1264   1260   1289     1   110.1100470 384.091200
   1264   1276   1277     1   109.8000471 387.438400
   1264   1276   1278     1   109.8000471 387.438400
   1265   1264   1276     1   110.5600475 386.601600
   1265   1264   1266     1   109.7500473 328.025600
   1266   1264   1276     1   110.5600475 386.601600
   1267   1260   1289     1   110.1100470 384.091200
   1267   1270   1271     1   109.8000471 387.438400
   1267   1270   1272     1   109.8000471 387.438400
   1268   1267   1270     1   110.5600475 386.601600
   1268   1267   1269     1   109.7500473 328.025600
   1269   1267   1270     1   110.5600475 386.601600
   1270   1279   1280     1   109.5600471 388.275200
   1270   1279   1281     1   109.5600471 388.275200
   1271   1270   1279     1   109.8000471 387.438400
   1271   1270   1272     1   107.5800459 329.699200
   1272   1270   1279     1   109.8000471 387.438400
   1273   1285   1286     1   109.5600471 388.275200
   1273   1285   1287     1   109.5600471 388.275200
   1274   1273   1285     1   109.8000471 387.438400
   1274   1273   1275     1   107.5800459 329.699200
   1275   1273   1285     1   109.8000471 387.438400
   1276   1282   1283     1   109.5600471 388.275200
   1276   1282   1284     1   109.5600471 388.275200
   1277   1276   1282     1   109.8000471 387.438400
   1277   1276   1278     1   107.5800459 329.699200
   1278   1276   1282     1   109.8000471 387.438400
   1280   1279   1288     1   109.7800468 425.094400
   1280   1279   1281     1   108.4600466 328.025600
   1281   1279   1288     1   109.7800468 425.094400
   1283   1282   2608     1   109.7800468 425.094400
   1283   1282   1284     1   108.4600466 328.025600
   1284   1282   2608     1   109.7800468 425.094400
   1286   1285   2638     1   109.7800468 425.094400
   1286   1285   1287     1   108.4600466 328.025600
   1287   1285   2638     1   109.7800468 425.094400
   1290   1291   1292     1   108.0100461 406.684800
   1290   1291   1293     1   108.0100461 406.684800
   1290   1294   1295     1   108.0100461 406.684800
   1290   1294   1296     1   108.0100461 406.684800
   1290   1297   1298     1   108.0100461 406.684800
   1290   1297   1299     1   108.0100461 406.684800
   1291   1290   1319     1   110.1100470 384.091200
   1291   1303   1304     1   109.8000471 387.438400
   1291   1303   1305     1   109.8000471 387.438400
   1292   1291   1303     1   110.5600475 386.601600
   1292   1291   1293     1   109.7500473 328.025600
   1293   1291   1303     1   110.5600475 386.601600
   1294   1290   1319     1   110.1100470 384.091200
   1294   1306   1307     1   109.8000471 387.438400
   1294   1306   1308     1   109.8000471 387.438400
   1295   1294   1306     1   110.5600475 386.601600
   1295   1294   1296     1   109.7500473 328.025600
   1296   1294   1306     1   110.5600475 386.601600
   1297   1290   1319     1   110.1100470 384.091200
   1297   1300   1301     1   109.8000471 387.438400
   1297   1300   1302     1   109.8000471 387.438400
   1298   1297   1300     1   110.5600475 386.601600
   1298   1297   1299     1   109.7500473 328.025600
   1299   1297   1300     1   110.5600475 386.601600
   1300   1309   1310     1   109.5600471 388.275200
   1300   1309   1311     1   109.5600471 388.275200
   1301   1300   1309     1   109.8000471 387.438400
   1301   1300   1302     1   107.5800459 329.699200
   1302   1300   1309     1   109.8000471 387.438400
   1303   1315   1316     1   109.5600471 388.275200
   1303   1315   1317     1   109.5600471 388.275200
   1304   1303   1315     1   109.8000471 387.438400
   1304   1303   1305     1   107.5800459 329.699200
   1305   1303   1315     1   109.8000471 387.438400
   1306   1312   1313     1   109.5600471 388.275200
   1306   1312   1314     1   109.5600471 388.275200
   1307   1306   1312     1   109.8000471 387.438400
   1307   1306   1308     1   107.5800459 329.699200
   1308   1306   1312     1   109.8000471 387.438400
   1310   1309   1318     1   109.7800468 425.094400
   1310   1309   1311     1   108.4600466 328.025600
   1311   1309   1318     1   109.7800468 425.094400
   1313   1312   2668     1   109.7800468 425.094400
   1313   1312   1314     1   108.4600466 328.025600
   1314   1312   2668     1   109.7800468 425.094400
   1316   1315   2698     1   109.7800468 425.094400
   1316   1315   1317     1   108.4600466 328.025600
   1317   1315   2698     1   109.7800468 425.094400
   1320   1321   1322     1   108.0100461 406.684800
   1320   1321   1323     1   108.0100461 406.684800
   1320   1324   1325     1   108.0100461 406.684800
   1320   1324   1326     1   108.0100461 406.684800
   1320   1327   1328     1   108.0100461 406.684800
   1320   1327   1329     1   108.0100461 406.684800
   1321   1320   1349     1   110.1100470 384.091200
   1321   1333   1334     1   109.8000471 387.438400
   1321   1333   1335     1   109.8000471 387.438400
   1322   1321   1333     1   110.5600475 386.601600
   1322   1321   1323     1   109.7500473 328.025600
   1323   1321   1333     1   110.5600475 386.601600
   1324   1320   1349     1   110.1100470 384.091200
   1324   1336   1337     1   109.8000471 387.438400
   1324   1336   1338     1   109.8000471 387.438400
   1325   1324   1336     1   110.5600475 386.601600
   1325   1324   1326     1   109.7500473 328.025600
   1326   1324   1336     1   110.5600475 386.601600
   1327   1320   1349     1   110.1100470 384.091200
   1327   1330   1331     1   109.8000471 387.438400
   1327   1330   1332     1   109.8000471 387.438400
   1328   1327   1330     1   110.5600475 386.601600
   1328   1327   1329     1   109.7500473 328.025600
   1329   1327   1330     1   110.5600475 386.601600
   1330   1339   1340     1   109.5600471 388.275200
   1330   1339   1341     1   109.5600471 388.275200
   1331   1330   1339     1   109.8000471 387.438400
   1331   1330   1332     1   107.5800459 329.699200
   1332   1330   1339     1   109.8000471 387.438400
   1333   1345   1346     1   109.5600471 388.275200
   1333   1345   1347     1   109.5600471 388.275200
   1334   1333   1345     1   109.8000471 387.438400
   1334   1333   1335     1   107.5800459 329.699200
   1335   1333   1345     1   109.8000471 387.438400
   1336   1342   1343     1   109.5600471 388.275200
   1336   1342   1344     1   109.5600471 388.275200
   1337   1336   1342     1   109.8000471 387.438400
   1337   1336   1338     1   107.5800459 329.699200
   1338   1336   1342     1   109.8000471 387.438400
   1340   1339   1348     1   109.7800468 425.094400
   1340   1339   1341     1   108.4600466 328.025600
   1341   1339   1348     1   109.7800468 425.094400
   1343   1342   2728     1   109.7800468 425.094400
   1343   1342   1344     1   108.4600466 328.025600
   1344   1342   2728     1   109.7800468 425.094400
   1346   1345   2758     1   109.7800468 425.094400
   1346   1345   1347     1   108.4600466 328.025600
   1347   1345   2758     1   109.7800468 425.094400
   1350   1351   1352     1   108.0100461 406.684800
   1350   1351   1353     1   108.0100461 406.684800
   1350   1354   1355     1   108.0100461 406.684800
   1350   1354   1356     1   108.0100461 406.684800
   1350   1357   1358     1   108.0100461 406.684800
   1350   1357   1359     1   108.0100461 406.684800
   1351   1350   1379     1   110.1100470 384.091200
   1351   1363   1364     1   109.8000471 387.438400
   1351   1363   1365     1   109.8000471 387.438400
   1352   1351   1363     1   110.5600475 386.601600
   1352   1351   1353     1   109.7500473 328.025600
   1353   1351   1363     1   110.5600475 386.601600
   1354   1350   1379     1   110.1100470 384.091200
   1354   1366   1367     1   109.8000471 387.438400
   1354   1366   1368     1   109.8000471 387.438400
   1355   1354   1366     1   110.5600475 386.601600
   1355   1354   1356     1   109.7500473 328.025600
   1356   1354   1366     1   110.5600475 386.601600
   1357   1350   1379     1   110.1100470 384.091200
   1357   1360   1361     1   109.8000471 387.438400
   1357   1360   1362     1   109.8000471 387.438400
   1358   1357   1360     1   110.5600475 386.601600
   1358   1357   1359     1   109.7500473 328.025600
   1359   1357   1360     1   110.5600475 386.601600
   1360   1369   1370     1   109.5600471 388.275200
   1360   1369   1371     1   109.5600471 388.275200
   1361   1360   1369     1   109.8000471 387.438400
   1361   1360   1362     1   107.5800459 329.699200
   1362   1360   1369     1   109.8000471 387.438400
   1363   1375   1376     1   109.5600471 388.275200
   1363   1375   1377     1   109.5600471 388.275200
   1364   1363   1375     1   109.8000471 387.438400
   1364   1363   1365     1   107.5800459 329.699200
   1365   1363   1375     1   109.8000471 387.438400
   1366   1372   1373     1   109.5600471 388.275200
   1366   1372   1374     1   109.5600471 388.275200
   1367   1366   1372     1   109.8000471 387.438400
   1367   1366   1368     1   107.5800459 329.699200
   1368   1366   1372     1   109.8000471 387.438400
   1370   1369   1378     1   109.7800468 425.094400
   1370   1369   1371     1   108.4600466 328.025600
   1371   1369   1378     1   109.7800468 425.094400
   1373   1372   2788     1   109.7800468 425.094400
   1373   1372   1374     1   108.4600466 328.025600
   1374   1372   2788     1   109.7800468 425.094400
   1376   1375   2818     1   109.7800468 425.094400
   1376   1375   1377     1   108.4600466 328.025600
   1377   1375   2818     1   109.7800468 425.094400
   1380   1381   1382     1   108.0100461 406.684800
   1380   1381   1383     1   108.0100461 406.684800
   1380   1384   1385     1   108.0100461 406.684800
   1380   1384   1386     1   108.0100461 406.684800
   1380   1387   1388     1   108.0100461 406.684800
   1380   1387   1389     1   108.0100461 406.684800
   1381   1380   1409     1   110.1100470 384.091200
   1381   1393   1394     1   109.8000471 387.438400
   1381   1393   1395     1   109.8000471 387.438400
   1382   1381   1393     1   110.5600475 386.601600
   1382   1381   1383     1   109.7500473 328.025600
   1383   1381   1393     1   110.5600475 386.601600
   1384   1380   1409     1   110.1100470 384.091200
   1384   1396   1397     1   109.8000471 387.438400
   1384   1396   1398     1   109.8000471 387.438400
   1385   1384   1396     1   110.5600475 386.601600
   1385   1384   1386     1   109.7500473 328.025600
   1386   1384   1396     1   110.5600475 386.601600
   1387   1380   1409     1   110.1100470 384.091200
   1387   1390   1391     1   109.8000471 387.438400
   1387   1390   1392     1   109.8000471 387.438400
   1388   1387   1390     1   110.5600475 386.601600
   1388   1387   1389     1   109.7500473 328.025600
   1389   1387   1390     1   110.5600475 386.601600
   1390   1399   1400     1   109.5600471 388.275200
   1390   1399   1401     1   109.5600471 388.275200
   1391   1390   1399     1   109.8000471 387.438400
   1391   1390   1392     1   107.5800459 329.699200
   1392   1390   1399     1   109.8000471 387.438400
   1393   1405   1406     1   109.5600471 388.275200
   1393   1405   1407     1   109.5600471 388.275200
   1394   1393   1405     1   109.8000471 387.438400
   1394   1393   1395     1   107.5800459 329.699200
   1395   1393   1405     1   109.8000471 387.438400
   1396   1402   1403     1   109.5600471 388.275200
   1396   1402   1404     1   109.5600471 388.275200
   1397   1396   1402     1   109.8000471 387.438400
   1397   1396   1398     1   107.5800459 329.699200
   1398   1396   1402     1   109.8000471 387.438400
   1400   1399   1408     1   109.7800468 425.094400
   1400   1399   1401     1   108.4600466 328.025600
   1401   1399   1408     1   109.7800468 425.094400
   1403   1402   2830     1   109.7800468 425.094400
   1403   1402   1404     1   108.4600466 328.025600
   1404   1402   2830     1   109.7800468 425.094400
   1406   1405   2853     1   109.7800468 425.094400
   1406   1405   1407     1   108.4600466 328.025600
   1407   1405   2853     1   109.7800468 425.094400
   1410   1411   1412     1   108.0100461 406.684800
   1410   1411   1413     1   108.0100461 406.684800
   1410   1414   1415     1   108.0100461 406.684800
   1410   1414   1416     1   108.0100461 406.684800
   1410   1417   1418     1   108.0100461 406.684800
   1410   1417   1419     1   108.0100461 406.684800
   1411   1410   1439     1   110.1100470 384.091200
   1411   1423   1424     1   109.8000471 387.438400
   1411   1423   1425     1   109.8000471 387.438400
   1412   1411   1423     1   110.5600475 386.601600
   1412   1411   1413     1   109.7500473 328.025600
   1413   1411   1423     1   110.5600475 386.601600
   1414   1410   1439     1   110.1100470 384.091200
   1414   1426   1427     1   109.8000471 387.438400
   1414   1426   1428     1   109.8000471 387.438400
   1415   1414   1426     1   110.5600475 386.601600
   1415   1414   1416     1   109.7500473 328.025600
   1416   1414   1426     1   110.5600475 386.601600
   1417   1410   1439     1   110.1100470 384.091200
   1417   1420   1421     1   109.8000471 387.438400
   1417   1420   1422     1   109.8000471 387.438400
   1418   1417   1420     1   110.5600475 386.601600
   1418   1417   1419     1   109.7500473 328.025600
   1419   1417   1420     1   110.5600475 386.601600
   1420   1429   1430     1   109.5600471 388.275200
   1420   1429   1431     1   109.5600471 388.275200
   1421   1420   1429     1   109.8000471 387.438400
   1421   1420   1422     1   107.5800459 329.699200
   1422   1420   1429     1   109.8000471 387.438400
   1423   1435   1436     1   109.5600471 388.275200
   1423   1435   1437     1   109.5600471 388.275200
   1424   1423   1435     1   109.8000471 387.438400
   1424   1423   1425     1   107.5800459 329.699200
   1425   1423   1435     1   109.8000471 387.438400
   1426   1432   1433     1   109.5600471 388.275200
   1426   1432   1434     1   109.5600471 388.275200
   1427   1426   1432     1   109.8000471 387.438400
   1427   1426   1428     1   107.5800459 329.699200
   1428   1426   1432     1   109.8000471 387.438400
   1430   1429   1438     1   109.7800468 425.094400
   1430   1429   1431     1   108.4600466 328.025600
   1431   1429   1438     1   109.7800468 425.094400
   1433   1432   2876     1   109.7800468 425.094400
   1433   1432   1434     1   108.4600466 328.025600
   1434   1432   2876     1   109.7800468 425.094400
   1436   1435   2899     1   109.7800468 425.094400
   1436   1435   1437     1   108.4600466 328.025600
   1437   1435   2899     1   109.7800468 425.094400
   1440   1441   1442     1   108.0100461 406.684800
   1440   1441   1443     1   108.0100461 406.684800
   1440   1444   1445     1   108.0100461 406.684800
   1440   1444   1446     1   108.0100461 406.684800
   1440   1447   1448     1   108.0100461 406.684800
   1440   1447   1449     1   108.0100461 406.684800
   1441   1440   1469     1   110.1100470 384.091200
   1441   1453   1454     1   109.8000471 387.438400
   1441   1453   1455     1   109.8000471 387.438400
   1442   1441   1453     1   110.5600475 386.601600
   1442   1441   1443     1   109.7500473 328.025600
   1443   1441   1453     1   110.5600475 386.601600
   1444   1440   1469     1   110.1100470 384.091200
   1444   1456   1457     1   109.8000471 387.438400
   1444   1456   1458     1   109.8000471 387.438400
   1445   1444   1456     1   110.5600475 386.601600
   1445   1444   1446     1   109.7500473 328.025600
   1446   1444   1456     1   110.5600475 386.601600
   1447   1440   1469     1   110.1100470 384.091200
   1447   1450   1451     1   109.8000471 387.438400
   1447   1450   1452     1   109.8000471 387.438400
   1448   1447   1450     1   110.5600475 386.601600
   1448   1447   1449     1   109.7500473 328.025600
   1449   1447   1450     1   110.5600475 386.601600
   1450   1459   1460     1   109.5600471 388.275200
   1450   1459   1461     1   109.5600471 388.275200
   1451   1450   1459     1   109.8000471 387.438400
   1451   1450   1452     1   107.5800459 329.699200
   1452   1450   1459     1   109.8000471 387.438400
   1453   1465   1466     1   109.5600471 388.275200
   1453   1465   1467     1   109.5600471 388.275200
   1454   1453   1465     1   109.8000471 387.438400
   1454   1453   1455     1   107.5800459 329.699200
   1455   1453   1465     1   109.8000471 387.438400
   1456   1462   1463     1   109.5600471 388.275200
   1456   1462   1464     1   109.5600471 388.275200
   1457   1456   1462     1   109.8000471 387.438400
   1457   1456   1458     1   107.5800459 329.699200
   1458   1456   1462     1   109.8000471 387.438400
   1460   1459   1468     1   109.7800468 425.094400
   1460   1459   1461     1   108.4600466 328.025600
   1461   1459   1468     1   109.7800468 425.094400
   1463   1462   2922     1   109.7800468 425.094400
   1463   1462   1464     1   108.4600466 328.025600
   1464   1462   2922     1   109.7800468 425.094400
   1466   1465   2945     1   109.7800468 425.094400
   1466   1465   1467     1   108.4600466 328.025600
   1467   1465   2945     1   109.7800468 425.094400
   1470   1471   1472     1   108.0100461 406.684800
   1470   1471   1473     1   108.0100461 406.684800
   1470   1474   1475     1   108.0100461 406.684800
   1470   1474   1476     1   108.0100461 406.684800
   1470   1477   1478     1   108.0100461 406.684800
   1470   1477   1479     1   108.0100461 406.684800
   1471   1470   1499     1   110.1100470 384.091200
   1471   1483   1484     1   109.8000471 387.438400
   1471   1483   1485     1   109.8000471 387.438400
   1472   1471   1483     1   110.5600475 386.601600
   1472   1471   1473     1   109.7500473 328.025600
   1473   1471   1483     1   110.5600475 386.601600
   1474   1470   1499     1   110.1100470 384.091200
   1474   1486   1487     1   109.8000471 387.438400
   1474   1486   1488     1   109.8000471 387.438400
   1475   1474   1486     1   110.5600475 386.601600
   1475   1474   1476     1   109.7500473 328.025600
   1476   1474   1486     1   110.5600475 386.601600
   1477   1470   1499     1   110.1100470 384.091200
   1477   1480   1481     1   109.8000471 387.438400
   1477   1480   1482     1   109.8000471 387.438400
   1478   1477   1480     1   110.5600475 386.601600
   1478   1477   1479     1   109.7500473 328.025600
   1479   1477   1480     1   110.5600475 386.601600
   1480   1489   1490     1   109.5600471 388.275200
   1480   1489   1491     1   109.5600471 388.275200
   1481   1480   1489     1   109.8000471 387.438400
   1481   1480   1482     1   107.5800459 329.699200
   1482   1480   1489     1   109.8000471 387.438400
   1483   1495   1496     1   109.5600471 388.275200
   1483   1495   1497     1   109.5600471 388.275200
   1484   1483   1495     1   109.8000471 387.438400
   1484   1483   1485     1   107.5800459 329.699200
   1485   1483   1495     1   109.8000471 387.438400
   1486   1492   1493     1   109.5600471 388.275200
   1486   1492   1494     1   109.5600471 388.275200
   1487   1486   1492     1   109.8000471 387.438400
   1487   1486   1488     1   107.5800459 329.699200
   1488   1486   1492     1   109.8000471 387.438400
   1490   1489   1498     1   109.7800468 425.094400
   1490   1489   1491     1   108.4600466 328.025600
   1491   1489   1498     1   109.7800468 425.094400
   1493   1492   2968     1   109.7800468 425.094400
   1493   1492   1494     1   108.4600466 328.025600
   1494   1492   2968     1   109.7800468 425.094400
   1496   1495   2991     1   109.7800468 425.094400
   1496   1495   1497     1   108.4600466 328.025600
   1497   1495   2991     1   109.7800468 425.094400
   1500   1501   1502     1   108.0100461 406.684800
   1500   1501   1503     1   108.0100461 406.684800
   1500   1504   1505     1   108.0100461 406.684800
   1500   1504   1506     1   108.0100461 406.684800
   1500   1507   1508     1   108.0100461 406.684800
   1500   1507   1509     1   108.0100461 406.684800
   1501   1500   1529     1   110.1100470 384.091200
   1501   1513   1514     1   109.8000471 387.438400
   1501   1513   1515     1   109.8000471 387.438400
   1502   1501   1513     1   110.5600475 386.601600
   1502   1501   1503     1   109.7500473 328.025600
   1503   1501   1513     1   110.5600475 386.601600
   1504   1500   1529     1   110.1100470 384.091200
   1504   1516   1517     1   109.8000471 387.438400
   1504   1516   1518     1   109.8000471 387.438400
   1505   1504   1516     1   110.5600475 386.601600
   1505   1504   1506     1   109.7500473 328.025600
   1506   1504   1516     1   110.5600475 386.601600
   1507   1500   1529     1   110.1100470 384.091200
   1507   1510   1511     1   109.8000471 387.438400
   1507   1510   1512     1   109.8000471 387.438400
   1508   1507   1510     1   110.5600475 386.601600
   1508   1507   1509     1   109.7500473 328.025600
   1509   1507   1510     1   110.5600475 386.601600
   1510   1519   1520     1   109.5600471 388.275200
   1510   1519   1521     1   109.5600471 388.275200
   1511   1510   1519     1   109.8000471 387.438400
   1511   1510   1512     1   107.5800459 329.699200
   1512   1510   1519     1   109.8000471 387.438400
   1513   1525   1526     1   109.5600471 388.275200
   1513   1525   1527     1   109.5600471 388.275200
   1514   1513   1525     1   109.8000471 387.438400
   1514   1513   1515     1   107.5800459 329.699200
   1515   1513   1525     1   109.8000471 387.438400
   1516   1522   1523     1   109.5600471 388.275200
   1516   1522   1524     1   109.5600471 388.275200
   1517   1516   1522     1   109.8000471 387.438400
   1517   1516   1518     1   107.5800459 329.699200
   1518   1516   1522     1   109.8000471 387.438400
   1520   1519   1528     1   109.7800468 425.094400
   1520   1519   1521     1   108.4600466 328.025600
   1521   1519   1528     1   109.7800468 425.094400
   1523   1522   3014     1   109.7800468 425.094400
   1523   1522   1524     1   108.4600466 328.025600
   1524   1522   3014     1   109.7800468 425.094400
   1526   1525   3037     1   109.7800468 425.094400
   1526   1525   1527     1   108.4600466 328.025600
   1527   1525   3037     1   109.7800468 425.094400
   1530   1531   1532     1   108.0100461 406.684800
   1530   1531   1533     1   108.0100461 406.684800
   1530   1534   1535     1   108.0100461 406.684800
   1530   1534   1536     1   108.0100461 406.684800
   1530   1537   1538     1   108.0100461 406.684800
   1530   1537   1539     1   108.0100461 406.684800
   1531   1530   1559     1   110.1100470 384.091200
   1531   1543   1544     1   109.8000471 387.438400
   1531   1543   1545     1   109.8000471 387.438400
   1532   1531   1543     1   110.5600475 386.601600
   1532   1531   1533     1   109.7500473 328.025600
   1533   1531   1543     1   110.5600475 386.601600
   1534   1530   1559     1   110.1100470 384.091200
   1534   1546   1547     1   109.8000471 387.438400
   1534   1546   1548     1   109.8000471 387.438400
   1535   1534   1546     1   110.5600475 386.601600
   1535   1534   1536     1   109.7500473 328.025600
   1536   1534   1546     1   110.5600475 386.601600
   1537   1530   1559     1   110.1100470 384.091200
   1537   1540   1541     1   109.8000471 387.438400
   1537   1540   1542     1   109.8000471 387.438400
   1538   1537   1540     1   110.5600475 386.601600
   1538   1537   1539     1   109.7500473 328.025600
   1539   1537   1540     1   110.5600475 386.601600
   1540   1549   1550     1   109.5600471 388.275200
   1540   1549   1551     1   109.5600471 388.275200
   1541   1540   1549     1   109.8000471 387.438400
   1541   1540   1542     1   107.5800459 329.699200
   1542   1540   1549     1   109.8000471 387.438400
   1543   1555   1556     1   109.5600471 388.275200
   1543   1555   1557     1   109.5600471 388.275200
   1544   1543   1555     1   109.8000471 387.438400
   1544   1543   1545     1   107.5800459 329.699200
   1545   1543   1555     1   109.8000471 387.438400
   1546   1552   1553     1   109.5600471 388.275200
   1546   1552   1554     1   109.5600471 388.275200
   1547   1546   1552     1   109.8000471 387.438400
   1547   1546   1548     1   107.5800459 329.699200
   1548   1546   1552     1   109.8000471 387.438400
   1550   1549   1558     1   109.7800468 425.094400
   1550   1549   1551     1   108.4600466 328.025600
   1551   1549   1558     1   109.7800468 425.094400
   1553   1552   3060     1   109.7800468 425.094400
   1553   1552   1554     1   108.4600466 328.025600
   1554   1552   3060     1   109.7800468 425.094400
   1556   1555   3083     1   109.7800468 425.094400
   1556   1555   1557     1   108.4600466 328.025600
   1557   1555   3083     1   109.7800468 425.094400
   1560   1561   1562     1   108.0100461 406.684800
   1560   1561   1563     1   108.0100461 406.684800
   1560   1564   1565     1   108.0100461 406.684800
   1560   1564   1566     1   108.0100461 406.684800
   1560   1567   1568     1   108.0100461 406.684800
   1560   1567   1569     1   108.0100461 406.684800
   1561   1560   1589     1   110.1100470 384.091200
   1561   1573   1574     1   109.8000471 387.438400
   1561   1573   1575     1   109.8000471 387.438400
   1562   1561   1573     1   110.5600475 386.601600
   1562   1561   1563     1   109.7500473 328.025600
   1563   1561   1573     1   110.5600475 386.601600
   1564   1560   1589     1   110.1100470 384.091200
   1564   1576   1577     1   109.8000471 387.438400
   1564   1576   1578     1   109.8000471 387.438400
   1565   1564   1576     1   110.5600475 386.601600
   1565   1564   1566     1   109.7500473 328.025600
   1566   1564   1576     1   110.5600475 386.601600
   1567   1560   1589     1   110.1100470 384.091200
   1567   1570   1571     1   109.8000471 387.438400
   1567   1570   1572     1   109.8000471 387.438400
   1568   1567   1570     1   110.5600475 386.601600
   1568   1567   1569     1   109.7500473 328.025600
   1569   1567   1570     1   110.5600475 386.601600
   1570   1579   1580     1   109.5600471 388.275200
   1570   1579   1581     1   109.5600471 388.275200
   1571   1570   1579     1   109.8000471 387.438400
   1571   1570   1572     1   107.5800459 329.699200
   1572   1570   1579     1   109.8000471 387.438400
   1573   1585   1586     1   109.5600471 388.275200
   1573   1585   1587     1   109.5600471 388.275200
   1574   1573   1585     1   109.8000471 387.438400
   1574   1573   1575     1   107.5800459 329.699200
   1575   1573   1585     1   109.8000471 387.438400
   1576   1582   1583     1   109.5600471 388.275200
   1576   1582   1584     1   109.5600471 388.275200
   1577   1576   1582     1   109.8000471 387.438400
   1577   1576   1578     1   107.5800459 329.699200
   1578   1576   1582     1   109.8000471 387.438400
   1580   1579   1588     1   109.7800468 425.094400
   1580   1579   1581     1   108.4600466 328.025600
   1581   1579   1588     1   109.7800468 425.094400
   1583   1582   3106     1   109.7800468 425.094400
   1583   1582   1584     1   108.4600466 328.025600
   1584   1582   3106     1   109.7800468 425.094400
   1586   1585   3129     1   109.7800468 425.094400
   1586   1585   1587     1   108.4600466 328.025600
   1587   1585   3129     1   109.7800468 425.094400
   1590   1591   1592     1   108.0100461 406.684800
   1590   1591   1593     1   108.0100461 406.684800
   1590   1594   1595     1   108.0100461 406.684800
   1590   1594   1596     1   108.0100461 406.684800
   1590   1597   1598     1   108.0100461 406.684800
   1590   1597   1599     1   108.0100461 406.684800
   1591   1590   1619     1   110.1100470 384.091200
   1591   1603   1604     1   109.8000471 387.438400
   1591   1603   1605     1   109.8000471 387.438400
   1592   1591   1603     1   110.5600475 386.601600
   1592   1591   1593     1   109.7500473 328.025600
   1593   1591   1603     1   110.5600475 386.601600
   1594   1590   1619     1   110.1100470 384.091200
   1594   1606   1607     1   109.8000471 387.438400
   1594   1606   1608     1   109.8000471 387.438400
   1595   1594   1606     1   110.5600475 386.601600
   1595   1594   1596     1   109.7500473 328.025600
   1596   1594   1606     1   110.5600475 386.601600
   1597   1590   1619     1   110.1100470 384.091200
   1597   1600   1601     1   109.8000471 387.438400
   1597   1600   1602     1   109.8000471 387.438400
   1598   1597   1600     1   110.5600475 386.601600
   1598   1597   1599     1   109.7500473 328.025600
   1599   1597   1600     1   110.5600475 386.601600
   1600   1609   1610     1   109.5600471 388.275200
   1600   1609   1611     1   109.5600471 388.275200
   1601   1600   1609     1   109.8000471 387.438400
   1601   1600   1602     1   107.5800459 329.699200
   1602   1600   1609     1   109.8000471 387.438400
   1603   1615   1616     1   109.5600471 388.275200
   1603   1615   1617     1   109.5600471 388.275200
   1604   1603   1615     1   109.8000471 387.438400
   1604   1603   1605     1   107.5800459 329.699200
   1605   1603   1615     1   109.8000471 387.438400
   1606   1612   1613     1   109.5600471 388.275200
   1606   1612   1614     1   109.5600471 388.275200
   1607   1606   1612     1   109.8000471 387.438400
   1607   1606   1608     1   107.5800459 329.699200
   1608   1606   1612     1   109.8000471 387.438400
   1610   1609   1618     1   109.7800468 425.094400
   1610   1609   1611     1   108.4600466 328.025600
   1611   1609   1618     1   109.7800468 425.094400
   1613   1612   3152     1   109.7800468 425.094400
   1613   1612   1614     1   108.4600466 328.025600
   1614   1612   3152     1   109.7800468 425.094400
   1616   1615   3175     1   109.7800468 425.094400
   1616   1615   1617     1   108.4600466 328.025600
   1617   1615   3175     1   109.7800468 425.094400
   1620   1621   1622     1   108.0100461 406.684800
   1620   1621   1623     1   108.0100461 406.684800
   1620   1624   1625     1   108.0100461 406.684800
   1620   1624   1626     1   108.0100461 406.684800
   1620   1627   1628     1   108.0100461 406.684800
   1620   1627   1629     1   108.0100461 406.684800
   1621   1620   1649     1   110.1100470 384.091200
   1621   1633   1634     1   109.8000471 387.438400
   1621   1633   1635     1   109.8000471 387.438400
   1622   1621   1633     1   110.5600475 386.601600
   1622   1621   1623     1   109.7500473 328.025600
   1623   1621   1633     1   110.5600475 386.601600
   1624   1620   1649     1   110.1100470 384.091200
   1624   1636   1637     1   109.8000471 387.438400
   1624   1636   1638     1   109.8000471 387.438400
   1625   1624   1636     1   110.5600475 386.601600
   1625   1624   1626     1   109.7500473 328.025600
   1626   1624   1636     1   110.5600475 386.601600
   1627   1620   1649     1   110.1100470 384.091200
   1627   1630   1631     1   109.8000471 387.438400
   1627   1630   1632     1   109.8000471 387.438400
   1628   1627   1630     1   110.5600475 386.601600
   1628   1627   1629     1   109.7500473 328.025600
   1629   1627   1630     1   110.5600475 386.601600
   1630   1639   1640     1   109.5600471 388.275200
   1630   1639   1641     1   109.5600471 388.275200
   1631   1630   1639     1   109.8000471 387.438400
   1631   1630   1632     1   107.5800459 329.699200
   1632   1630   1639     1   109.8000471 387.438400
   1633   1645   1646     1   109.5600471 388.275200
   1633   1645   1647     1   109.5600471 388.275200
   1634   1633   1645     1   109.8000471 387.438400
   1634   1633   1635     1   107.5800459 329.699200
   1635   1633   1645     1   109.8000471 387.438400
   1636   1642   1643     1   109.5600471 388.275200
   1636   1642   1644     1   109.5600471 388.275200
   1637   1636   1642     1   109.8000471 387.438400
   1637   1636   1638     1   107.5800459 329.699200
   1638   1636   1642     1   109.8000471 387.438400
   1640   1639   1648     1   109.7800468 425.094400
   1640   1639   1641     1   108.4600466 328.025600
   1641   1639   1648     1   109.7800468 425.094400
   1643   1642   3198     1   109.7800468 425.094400
   1643   1642   1644     1   108.4600466 328.025600
   1644   1642   3198     1   109.7800468 425.094400
   1646   1645   3221     1   109.7800468 425.094400
   1646   1645   1647     1   108.4600466 328.025600
   1647   1645   3221     1   109.7800468 425.094400
   1650   1651   1652     1   108.0100461 406.684800
   1650   1651   1653     1   108.0100461 406.684800
   1650   1654   1655     1   108.0100461 406.684800
   1650   1654   1656     1   108.0100461 406.684800
   1650   1657   1658     1   108.0100461 406.684800
   1650   1657   1659     1   108.0100461 406.684800
   1651   1650   1679     1   110.1100470 384.091200
   1651   1663   1664     1   109.8000471 387.438400
   1651   1663   1665     1   109.8000471 387.438400
   1652   1651   1663     1   110.5600475 386.601600
   1652   1651   1653     1   109.7500473 328.025600
   1653   1651   1663     1   110.5600475 386.601600
   1654   1650   1679     1   110.1100470 384.091200
   1654   1666   1667     1   109.8000471 387.438400
   1654   1666   1668     1   109.8000471 387.438400
   1655   1654   1666     1   110.5600475 386.601600
   1655   1654   1656     1   109.7500473 328.025600
   1656   1654   1666     1   110.5600475 386.601600
   1657   1650   1679     1   110.1100470 384.091200
   1657   1660   1661     1   109.8000471 387.438400
   1657   1660   1662     1   109.8000471 387.438400
   1658   1657   1660     1   110.5600475 386.601600
   1658   1657   1659     1   109.7500473 328.025600
   1659   1657   1660     1   110.5600475 386.601600
   1660   1669   1670     1   109.5600471 388.275200
   1660   1669   1671     1   109.5600471 388.275200
   1661   1660   1669     1   109.8000471 387.438400
   1661   1660   1662     1   107.5800459 329.699200
   1662   1660   1669     1   109.8000471 387.438400
   1663   1675   1676     1   109.5600471 388.275200
   1663   1675   1677     1   109.5600471 388.275200
   1664   1663   1675     1   109.8000471 387.438400
   1664   1663   1665     1   107.5800459 329.699200
   1665   1663   1675     1   109.8000471 387.438400
   1666   1672   1673     1   109.5600471 388.275200
   1666   1672   1674     1   109.5600471 388.275200
   1667   1666   1672     1   109.8000471 387.438400
   1667   1666   1668     1   107.5800459 329.699200
   1668   1666   1672     1   109.8000471 387.438400
   1670   1669   1678     1   109.7800468 425.094400
   1670   1669   1671     1   108.4600466 328.025600
   1671   1669   1678     1   109.7800468 425.094400
   1673   1672   3244     1   109.7800468 425.094400
   1673   1672   1674     1   108.4600466 328.025600
   1674   1672   3244     1   109.7800468 425.094400
   1676   1675   3267     1   109.7800468 425.094400
   1676   1675   1677     1   108.4600466 328.025600
   1677   1675   3267     1   109.7800468 425.094400
   1680   1681   1682     1   108.0100461 406.684800
   1680   1681   1683     1   108.0100461 406.684800
   1680   1684   1685     1   108.0100461 406.684800
   1680   1684   1686     1   108.0100461 406.684800
   1680   1687   1688     1   108.0100461 406.684800
   1680   1687   1689     1   108.0100461 406.684800
   1681   1680   1709     1   110.1100470 384.091200
   1681   1693   1694     1   109.8000471 387.438400
   1681   1693   1695     1   109.8000471 387.438400
   1682   1681   1693     1   110.5600475 386.601600
   1682   1681   1683     1   109.7500473 328.025600
   1683   1681   1693     1   110.5600475 386.601600
   1684   1680   1709     1   110.1100470 384.091200
   1684   1696   1697     1   109.8000471 387.438400
   1684   1696   1698     1   109.8000471 387.438400
   1685   1684   1696     1   110.5600475 386.601600
   1685   1684   1686     1   109.7500473 328.025600
   1686   1684   1696     1   110.5600475 386.601600
   1687   1680   1709     1   110.1100470 384.091200
   1687   1690   1691     1   109.8000471 387.438400
   1687   1690   1692     1   109.8000471 387.438400
   1688   1687   1690     1   110.5600475 386.601600
   1688   1687   1689     1   109.7500473 328.025600
   1689   1687   1690     1   110.5600475 386.601600
   1690   1699   1700     1   109.5600471 388.275200
   1690   1699   1701     1   109.5600471 388.275200
   1691   1690   1699     1   109.8000471 387.438400
   1691   1690   1692     1   107.5800459 329.699200
   1692   1690   1699     1   109.8000471 387.438400
   1693   1705   1706     1   109.5600471 388.275200
   1693   1705   1707     1   109.5600471 388.275200
   1694   1693   1705     1   109.8000471 387.438400
   1694   1693   1695     1   107.5800459 329.699200
   1695   1693   1705     1   109.8000471 387.438400
   1696   1702   1703     1   109.5600471 388.275200
   1696   1702   1704     1   109.5600471 388.275200
   1697   1696   1702     1   109.8000471 387.438400
   1697   1696   1698     1   107.5800459 329.699200
   1698   1696   1702     1   109.8000471 387.438400
   1700   1699   1708     1   109.7800468 425.094400
   1700   1699   1701     1   108.4600466 328.025600
   1701   1699   1708     1   109.7800468 425.094400
   1703   1702   3290     1   109.7800468 425.094400
   1703   1702   1704     1   108.4600466 328.025600
   1704   1702   3290     1   109.7800468 425.094400
   1706   1705   3313     1   109.7800468 425.094400
   1706   1705   1707     1   108.4600466 328.025600
   1707   1705   3313     1   109.7800468 425.094400
   1710   1711   1712     1   108.0100461 406.684800
   1710   1711   1713     1   108.0100461 406.684800
   1710   1714   1715     1   108.0100461 406.684800
   1710   1714   1716     1   108.0100461 406.684800
   1710   1717   1718     1   108.0100461 406.684800
   1710   1717   1719     1   108.0100461 406.684800
   1711   1710   1739     1   110.1100470 384.091200
   1711   1723   1724     1   109.8000471 387.438400
   1711   1723   1725     1   109.8000471 387.438400
   1712   1711   1723     1   110.5600475 386.601600
   1712   1711   1713     1   109.7500473 328.025600
   1713   1711   1723     1   110.5600475 386.601600
   1714   1710   1739     1   110.1100470 384.091200
   1714   1726   1727     1   109.8000471 387.438400
   1714   1726   1728     1   109.8000471 387.438400
   1715   1714   1726     1   110.5600475 386.601600
   1715   1714   1716     1   109.7500473 328.025600
   1716   1714   1726     1   110.5600475 386.601600
   1717   1710   1739     1   110.1100470 384.091200
   1717   1720   1721     1   109.8000471 387.438400
   1717   1720   1722     1   109.8000471 387.438400
   1718   1717   1720     1   110.5600475 386.601600
   1718   1717   1719     1   109.7500473 328.025600
   1719   1717   1720     1   110.5600475 386.601600
   1720   1729   1730     1   109.5600471 388.275200
   1720   1729   1731     1   109.5600471 388.275200
   1721   1720   1729     1   109.8000471 387.438400
   1721   1720   1722     1   107.5800459 329.699200
   1722   1720   1729     1   109.8000471 387.438400
   1723   1735   1736     1   109.5600471 388.275200
   1723   1735   1737     1   109.5600471 388.275200
   1724   1723   1735     1   109.8000471 387.438400
   1724   1723   1725     1   107.5800459 329.699200
   1725   1723   1735     1   109.8000471 387.438400
   1726   1732   1733     1   109.5600471 388.275200
   1726   1732   1734     1   109.5600471 388.275200
   1727   1726   1732     1   109.8000471 387.438400
   1727   1726   1728     1   107.5800459 329.699200
   1728   1726   1732     1   109.8000471 387.438400
   1730   1729   1738     1   109.7800468 425.094400
   1730   1729   1731     1   108.4600466 328.025600
   1731   1729   1738     1   109.7800468 425.094400
   1733   1732   3336     1   109.7800468 425.094400
   1733   1732   1734     1   108.4600466 328.025600
   1734   1732   3336     1   109.7800468 425.094400
   1736   1735   3359     1   109.7800468 425.094400
   1736   1735   1737     1   108.4600466 328.025600
   1737   1735   3359     1   109.7800468 425.094400
   1740   1741   1742     1   108.0100461 406.684800
   1740   1741   1743     1   108.0100461 406.684800
   1740   1744   1745     1   108.0100461 406.684800
   1740   1744   1746     1   108.0100461 406.684800
   1740   1747   1748     1   108.0100461 406.684800
   1740   1747   1749     1   108.0100461 406.684800
   1741   1740   1769     1   110.1100470 384.091200
   1741   1753   1754     1   109.8000471 387.438400
   1741   1753   1755     1   109.8000471 387.438400
   1742   1741   1753     1   110.5600475 386.601600
   1742   1741   1743     1   109.7500473 328.025600
   1743   1741   1753     1   110.5600475 386.601600
   1744   1740   1769     1   110.1100470 384.091200
   1744   1756   1757     1   109.8000471 387.438400
   1744   1756   1758     1   109.8000471 387.438400
   1745   1744   1756     1   110.5600475 386.601600
   1745   1744   1746     1   109.7500473 328.025600
   1746   1744   1756     1   110.5600475 386.601600
   1747   1740   1769     1   110.1100470 384.091200
   1747   1750   1751     1   109.8000471 387.438400
   1747   1750   1752     1   109.8000471 387.438400
   1748   1747   1750     1   110.5600475 386.601600
   1748   1747   1749     1   109.7500473 328.025600
   1749   1747   1750     1   110.5600475 386.601600
   1750   1759   1760     1   109.5600471 388.275200
   1750   1759   1761     1   109.5600471 388.275200
   1751   1750   1759     1   109.8000471 387.438400
   1751   1750   1752     1   107.5800459 329.699200
   1752   1750   1759     1   109.8000471 387.438400
   1753   1765   1766     1   109.5600471 388.275200
   1753   1765   1767     1   109.5600471 388.275200
   1754   1753   1765     1   109.8000471 387.438400
   1754   1753   1755     1   107.5800459 329.699200
   1755   1753   1765     1   109.8000471 387.438400
   1756   1762   1763     1   109.5600471 388.275200
   1756   1762   1764     1   109.5600471 388.275200
   1757   1756   1762     1   109.8000471 387.438400
   1757   1756   1758     1   107.5800459 329.699200
   1758   1756   1762     1   109.8000471 387.438400
   1760   1759   1768     1   109.7800468 425.094400
   1760   1759   1761     1   108.4600466 328.025600
   1761   1759   1768     1   109.7800468 425.094400
   1763   1762   3382     1   109.7800468 425.094400
   1763   1762   1764     1   108.4600466 328.025600
   1764   1762   3382     1   109.7800468 425.094400
   1766   1765   3405     1   109.7800468 425.094400
   1766   1765   1767     1   108.4600466 328.025600
   1767   1765   3405     1   109.7800468 425.094400
   1770   1771   1772     1   108.0100461 406.684800
   1770   1771   1773     1   108.0100461 406.684800
   1770   1774   1775     1   108.0100461 406.684800
   1770   1774   1776     1   108.0100461 406.684800
   1770   1777   1778     1   108.0100461 406.684800
   1770   1777   1779     1   108.0100461 406.684800
   1771   1770   1799     1   110.1100470 384.091200
   1771   1783   1784     1   109.8000471 387.438400
   1771   1783   1785     1   109.8000471 387.438400
   1772   1771   1783     1   110.5600475 386.601600
   1772   1771   1773     1   109.7500473 328.025600
   1773   1771   1783     1   110.5600475 386.601600
   1774   1770   1799     1   110.1100470 384.091200
   1774   1786   1787     1   109.8000471 387.438400
   1774   1786   1788     1   109.8000471 387.438400
   1775   1774   1786     1   110.5600475 386.601600
   1775   1774   1776     1   109.7500473 328.025600
   1776   1774   1786     1   110.5600475 386.601600
   1777   1770   1799     1   110.1100470 384.091200
   1777   1780   1781     1   109.8000471 387.438400
   1777   1780   1782     1   109.8000471 387.438400
   1778   1777   1780     1   110.5600475 386.601600
   1778   1777   1779     1   109.7500473 328.025600
   1779   1777   1780     1   110.5600475 386.601600
   1780   1789   1790     1   109.5600471 388.275200
   1780   1789   1791     1   109.5600471 388.275200
   1781   1780   1789     1   109.8000471 387.438400
   1781   1780   1782     1   107.5800459 329.699200
   1782   1780   1789     1   109.8000471 387.438400
   1783   1795   1796     1   109.5600471 388.275200
   1783   1795   1797     1   109.5600471 388.275200
   1784   1783   1795     1   109.8000471 387.438400
   1784   1783   1785     1   107.5800459 329.699200
   1785   1783   1795     1   109.8000471 387.438400
   1786   1792   1793     1   109.5600471 388.275200
   1786   1792   1794     1   109.5600471 388.275200
   1787   1786   1792     1   109.8000471 387.438400
   1787   1786   1788     1   107.5800459 329.699200
   1788   1786   1792     1   109.8000471 387.438400
   1790   1789   1798     1   109.7800468 425.094400
   1790   1789   1791     1   108.4600466 328.025600
   1791   1789   1798     1   109.7800468 425.094400
   1793   1792   3428     1   109.7800468 425.094400
   1793   1792   1794     1   108.4600466 328.025600
   1794   1792   3428     1   109.7800468 425.094400
   1796   1795   3451     1   109.7800468 425.094400
   1796   1795   1797     1   108.4600466 328.025600
   1797   1795   3451     1   109.7800468 425.094400
   1800   1801   1802     1   108.0100461 406.684800
   1800   1801   1803     1   108.0100461 406.684800
   1800   1804   1805     1   108.0100461 406.684800
   1800   1804   1806     1   108.0100461 406.684800
   1800   1807   1808     1   108.0100461 406.684800
   1800   1807   1809     1   108.0100461 406.684800
   1801   1800   1829     1   110.1100470 384.091200
   1801   1813   1814     1   109.8000471 387.438400
   1801   1813   1815     1   109.8000471 387.438400
   1802   1801   1813     1   110.5600475 386.601600
   1802   1801   1803     1   109.7500473 328.025600
   1803   1801   1813     1   110.5600475 386.601600
   1804   1800   1829     1   110.1100470 384.091200
   1804   1816   1817     1   109.8000471 387.438400
   1804   1816   1818     1   109.8000471 387.438400
   1805   1804   1816     1   110.5600475 386.601600
   1805   1804   1806     1   109.7500473 328.025600
   1806   1804   1816     1   110.5600475 386.601600
   1807   1800   1829     1   110.1100470 384.091200
   1807   1810   1811     1   109.8000471 387.438400
   1807   1810   1812     1   109.8000471 387.438400
   1808   1807   1810     1   110.5600475 386.601600
   1808   1807   1809     1   109.7500473 328.025600
   1809   1807   1810     1   110.5600475 386.601600
   1810   1819   1820     1   109.5600471 388.275200
   1810   1819   1821     1   109.5600471 388.275200
   1811   1810   1819     1   109.8000471 387.438400
   1811   1810   1812     1   107.5800459 329.699200
   1812   1810   1819     1   109.8000471 387.438400
   1813   1825   1826     1   109.5600471 388.275200
   1813   1825   1827     1   109.5600471 388.275200
   1814   1813   1825     1   109.8000471 387.438400
   1814   1813   1815     1   107.5800459 329.699200
   1815   1813   1825     1   109.8000471 387.438400
   1816   1822   1823     1   109.5600471 388.275200
   1816   1822   1824     1   109.5600471 388.275200
   1817   1816   1822     1   109.8000471 387.438400
   1817   1816   1818     1   107.5800459 329.699200
   1818   1816   1822     1   109.8000471 387.438400
   1820   1819   1828     1   109.7800468 425.094400
   1820   1819   1821     1   108.4600466 328.025600
   1821   1819   1828     1   109.7800468 425.094400
   1823   1822   3474     1   109.7800468 425.094400
   1823   1822   1824     1   108.4600466 328.025600
   1824   1822   3474     1   109.7800468 425.094400
   1826   1825   3497     1   109.7800468 425.094400
   1826   1825   1827     1   108.4600466 328.025600
   1827   1825   3497     1   109.7800468 425.094400
   1830   1831   1832     1   108.0100461 406.684800
   1830   1831   1833     1   108.0100461 406.684800
   1830   1834   1835     1   108.0100461 406.684800
   1830   1834   1836     1   108.0100461 406.684800
   1830   1837   1838     1   108.0100461 406.684800
   1830   1837   1839     1   108.0100461 406.684800
   1831   1830   1859     1   110.1100470 384.091200
   1831   1843   1844     1   109.8000471 387.438400
   1831   1843   1845     1   109.8000471 387.438400
   1832   1831   1843     1   110.5600475 386.601600
   1832   1831   1833     1   109.7500473 328.025600
   1833   1831   1843     1   110.5600475 386.601600
   1834   1830   1859     1   110.1100470 384.091200
   1834   1846   1847     1   109.8000471 387.438400
   1834   1846   1848     1   109.8000471 387.438400
   1835   1834   1846     1   110.5600475 386.601600
   1835   1834   1836     1   109.7500473 328.025600
   1836   1834   1846     1   110.5600475 386.601600
   1837   1830   1859     1   110.1100470 384.091200
   1837   1840   1841     1   109.8000471 387.438400
   1837   1840   1842     1   109.8000471 387.438400
   1838   1837   1840     1   110.5600475 386.601600
   1838   1837   1839     1   109.7500473 328.025600
   1839   1837   1840     1   110.5600475 386.601600
   1840   1849   1850     1   109.5600471 388.275200
   1840   1849   1851     1   109.5600471 388.275200
   1841   1840   1849     1   109.8000471 387.438400
   1841   1840   1842     1   107.5800459 329.699200
   1842   1840   1849     1   109.8000471 387.438400
   1843   1855   1856     1   109.5600471 388.275200
   1843   1855   1857     1   109.5600471 388.275200
   1844   1843   1855     1   109.8000471 387.438400
   1844   1843   1845     1   107.5800459 329.699200
   1845   1843   1855     1   109.8000471 387.438400
   1846   1852   1853     1   109.5600471 388.275200
   1846   1852   1854     1   109.5600471 388.275200
   1847   1846   1852     1   109.8000471 387.438400
   1847   1846   1848     1   107.5800459 329.699200
   1848   1846   1852     1   109.8000471 387.438400
   1850   1849   1858     1   109.7800468 425.094400
   1850   1849   1851     1   108.4600466 328.025600
   1851   1849   1858     1   109.7800468 425.094400
   1853   1852   3520     1   109.7800468 425.094400
   1853   1852   1854     1   108.4600466 328.025600
   1854   1852   3520     1   109.7800468 425.094400
   1856   1855   3543     1   109.7800468 425.094400
   1856   1855   1857     1   108.4600466 328.025600
   1857   1855   3543     1   109.7800468 425.094400
   1860   1861   1862     1   108.0100461 406.684800
   1860   1861   1863     1   108.0100461 406.684800
   1860   1864   1865     1   108.0100461 406.684800
   1860   1864   1866     1   108.0100461 406.684800
   1860   1867   1868     1   108.0100461 406.684800
   1860   1867   1869     1   108.0100461 406.684800
   1861   1860   1889     1   110.1100470 384.091200
   1861   1873   1874     1   109.8000471 387.438400
   1861   1873   1875     1   109.8000471 387.438400
   1862   1861   1873     1   110.5600475 386.601600
   1862   1861   1863     1   109.7500473 328.025600
   1863   1861   1873     1   110.5600475 386.601600
   1864   1860   1889     1   110.1100470 384.091200
   1864   1876   1877     1   109.8000471 387.438400
   1864   1876   1878     1   109.8000471 387.438400
   1865   1864   1876     1   110.5600475 386.601600
   1865   1864   1866     1   109.7500473 328.025600
   1866   1864   1876     1   110.5600475 386.601600
   1867   1860   1889     1   110.1100470 384.091200
   1867   1870   1871     1   109.8000471 387.438400
   1867   1870   1872     1   109.8000471 387.438400
   1868   1867   1870     1   110.5600475 386.601600
   1868   1867   1869     1   109.7500473 328.025600
   1869   1867   1870     1   110.5600475 386.601600
   1870   1879   1880     1   109.5600471 388.275200
   1870   1879   1881     1   109.5600471 388.275200
   1871   1870   1879     1   109.8000471 387.438400
   1871   1870   1872     1   107.5800459 329.699200
   1872   1870   1879     1   109.8000471 387.438400
   1873   1885   1886     1   109.5600471 388.275200
   1873   1885   1887     1   109.5600471 388.275200
   1874   1873   1885     1   109.8000471 387.438400
   1874   1873   1875     1   107.5800459 329.699200
   1875   1873   1885     1   109.8000471 387.438400
   1876   1882   1883     1   109.5600471 388.275200
   1876   1882   1884     1   109.5600471 388.275200
   1877   1876   1882     1   109.8000471 387.438400
   1877   1876   1878     1   107.5800459 329.699200
   1878   1876   1882     1   109.8000471 387.438400
   1880   1879   1888     1   109.7800468 425.094400
   1880   1879   1881     1   108.4600466 328.025600
   1881   1879   1888     1   109.7800468 425.094400
   1883   1882   3566     1   109.7800468 425.094400
   1883   1882   1884     1   108.4600466 328.025600
   1884   1882   3566     1   109.7800468 425.094400
   1886   1885   3589     1   109.7800468 425.094400
   1886   1885   1887     1   108.4600466 328.025600
   1887   1885   3589     1   109.7800468 425.094400
   1890   1891   1892     1   108.0100461 406.684800
   1890   1891   1893     1   108.0100461 406.684800
   1890   1894   1895     1   108.0100461 406.684800
   1890   1894   1896     1   108.0100461 406.684800
   1890   1897   1898     1   108.0100461 406.684800
   1890   1897   1899     1   108.0100461 406.684800
   1891   1890   1919     1   110.1100470 384.091200
   1891   1903   1904     1   109.8000471 387.438400
   1891   1903   1905     1   109.8000471 387.438400
   1892   1891   1903     1   110.5600475 386.601600
   1892   1891   1893     1   109.7500473 328.025600
   1893   1891   1903     1   110.5600475 386.601600
   1894   1890   1919     1   110.1100470 384.091200
   1894   1906   1907     1   109.8000471 387.438400
   1894   1906   1908     1   109.8000471 387.438400
   1895   1894   1906     1   110.5600475 386.601600
   1895   1894   1896     1   109.7500473 328.025600
   1896   1894   1906     1   110.5600475 386.601600
   1897   1890   1919     1   110.1100470 384.091200
   1897   1900   1901     1   109.8000471 387.438400
   1897   1900   1902     1   109.8000471 387.438400
   1898   1897   1900     1   110.5600475 386.601600
   1898   1897   1899     1   109.7500473 328.025600
   1899   1897   1900     1   110.5600475 386.601600
   1900   1909   1910     1   109.5600471 388.275200
   1900   1909   1911     1   109.5600471 388.275200
   1901   1900   1909     1   109.8000471 387.438400
   1901   1900   1902     1   107.5800459 329.699200
   1902   1900   1909     1   109.8000471 387.438400
   1903   1915   1916     1   109.5600471 388.275200
   1903   1915   1917     1   109.5600471 388.275200
   1904   1903   1915     1   109.8000471 387.438400
   1904   1903   1905     1   107.5800459 329.699200
   1905   1903   1915     1   109.8000471 387.438400
   1906   1912   1913     1   109.5600471 388.275200
   1906   1912   1914     1   109.5600471 388.275200
   1907   1906   1912     1   109.8000471 387.438400
   1907   1906   1908     1   107.5800459 329.699200
   1908   1906   1912     1   109.8000471 387.438400
   1910   1909   1918     1   109.7800468 425.094400
   1910   1909   1911     1   108.4600466 328.025600
   1911   1909   1918     1   109.7800468 425.094400
   1913   1912   3612     1   109.7800468 425.094400
   1913   1912   1914     1   108.4600466 328.025600
   1914   1912   3612     1   109.7800468 425.094400
   1916   1915   3635     1   109.7800468 425.094400
   1916   1915   1917     1   108.4600466 328.025600
   1917   1915   3635     1   109.7800468 425.094400
   1920   1921   1922     1   108.0100461 406.684800
   1920   1921   1923     1   108.0100461 406.684800
   1920   1924   1925     1   108.0100461 406.684800
   1920   1924   1926     1   108.0100461 406.684800
   1920   1927   1928     1   108.0100461 406.684800
   1920   1927   1929     1   108.0100461 406.684800
   1921   1920   1949     1   110.1100470 384.091200
   1921   1933   1934     1   109.8000471 387.438400
   1921   1933   1935     1   109.8000471 387.438400
   1922   1921   1933     1   110.5600475 386.601600
   1922   1921   1923     1   109.7500473 328.025600
   1923   1921   1933     1   110.5600475 386.601600
   1924   1920   1949     1   110.1100470 384.091200
   1924   1936   1937     1   109.8000471 387.438400
   1924   1936   1938     1   109.8000471 387.438400
   1925   1924   1936     1   110.5600475 386.601600
   1925   1924   1926     1   109.7500473 328.025600
   1926   1924   1936     1   110.5600475 386.601600
   1927   1920   1949     1   110.1100470 384.091200
   1927   1930   1931     1   109.8000471 387.438400
   1927   1930   1932     1   109.8000471 387.438400
   1928   1927   1930     1   110.5600475 386.601600
   1928   1927   1929     1   109.7500473 328.025600
   1929   1927   1930     1   110.5600475 386.601600
   1930   1939   1940     1   109.5600471 388.275200
   1930   1939   1941     1   109.5600471 388.275200
   1931   1930   1939     1   109.8000471 387.438400
   1931   1930   1932     1   107.5800459 329.699200
   1932   1930   1939     1   109.8000471 387.438400
   1933   1945   1946     1   109.5600471 388.275200
   1933   1945   1947     1   109.5600471 388.275200
   1934   1933   1945     1   109.8000471 387.438400
   1934   1933   1935     1   107.5800459 329.699200
   1935   1933   1945     1   109.8000471 387.438400
   1936   1942   1943     1   109.5600471 388.275200
   1936   1942   1944     1   109.5600471 388.275200
   1937   1936   1942     1   109.8000471 387.438400
   1937   1936   1938     1   107.5800459 329.699200
   1938   1936   1942     1   109.8000471 387.438400
   1940   1939   1948     1   109.7800468 425.094400
   1940   1939   1941     1   108.4600466 328.025600
   1941   1939   1948     1   109.7800468 425.094400
   1943   1942   3658     1   109.7800468 425.094400
   1943   1942   1944     1   108.4600466 328.025600
   1944   1942   3658     1   109.7800468 425.094400
   1946   1945   3681     1   109.7800468 425.094400
   1946   1945   1947     1   108.4600466 328.025600
   1947   1945   3681     1   109.7800468 425.094400
   1950   1951   1952     1   108.0100461 406.684800
   1950   1951   1953     1   108.0100461 406.684800
   1950   1954   1955     1   108.0100461 406.684800
   1950   1954   1956     1   108.0100461 406.684800
   1950   1957   1958     1   108.0100461 406.684800
   1950   1957   1959     1   108.0100461 406.684800
   1951   1950   1979     1   110.1100470 384.091200
   1951   1963   1964     1   109.8000471 387.438400
   1951   1963   1965     1   109.8000471 387.438400
   1952   1951   1963     1   110.5600475 386.601600
   1952   1951   1953     1   109.7500473 328.025600
   1953   1951   1963     1   110.5600475 386.601600
   1954   1950   1979     1   110.1100470 384.091200
   1954   1966   1967     1   109.8000471 387.438400
   1954   1966   1968     1   109.8000471 387.438400
   1955   1954   1966     1   110.5600475 386.601600
   1955   1954   1956     1   109.7500473 328.025600
   1956   1954   1966     1   110.5600475 386.601600
   1957   1950   1979     1   110.1100470 384.091200
   1957   1960   1961     1   109.8000471 387.438400
   1957   1960   1962     1   109.8000471 387.438400
   1958   1957   1960     1   110.5600475 386.601600
   1958   1957   1959     1   109.7500473 328.025600
   1959   1957   1960     1   110.5600475 386.601600
   1960   1969   1970     1   109.5600471 388.275200
   1960   1969   1971     1   109.5600471 388.275200
   1961   1960   1969     1   109.8000471 387.438400
   1961   1960   1962     1   107.5800459 329.699200
   1962   1960   1969     1   109.8000471 387.438400
   1963   1975   1976     1   109.5600471 388.275200
   1963   1975   1977     1   109.5600471 388.275200
   1964   1963   1975     1   109.8000471 387.438400
   1964   1963   1965     1   107.5800459 329.699200
   1965   1963   1975     1   109.8000471 387.438400
   1966   1972   1973     1   109.5600471 388.275200
   1966   1972   1974     1   109.5600471 388.275200
   1967   1966   1972     1   109.8000471 387.438400
   1967   1966   1968     1   107.5800459 329.699200
   1968   1966   1972     1   109.8000471 387.438400
   1970   1969   1978     1   109.7800468 425.094400
   1970   1969   1971     1   108.4600466 328.025600
   1971   1969   1978     1   109.7800468 425.094400
   1973   1972   3704     1   109.7800468 425.094400
   1973   1972   1974     1   108.4600466 328.025600
   1974   1972   3704     1   109.7800468 425.094400
   1976   1975   3727     1   109.7800468 425.094400
   1976   1975   1977     1   108.4600466 328.025600
   1977   1975   3727     1   109.7800468 425.094400
   1980   1981   1982     1   108.0100461 406.684800
   1980   1981   1983     1   108.0100461 406.684800
   1980   1984   1985     1   108.0100461 406.684800
   1980   1984   1986     1   108.0100461 406.684800
   1980   1987   1988     1   108.0100461 406.684800
   1980   1987   1989     1   108.0100461 406.684800
   1981   1980   2009     1   110.1100470 384.091200
   1981   1993   1994     1   109.8000471 387.438400
   1981   1993   1995     1   109.8000471 387.438400
   1982   1981   1993     1   110.5600475 386.601600
   1982   1981   1983     1   109.7500473 328.025600
   1983   1981   1993     1   110.5600475 386.601600
   1984   1980   2009     1   110.1100470 384.091200
   1984   1996   1997     1   109.8000471 387.438400
   1984   1996   1998     1   109.8000471 387.438400
   1985   1984   1996     1   110.5600475 386.601600
   1985   1984   1986     1   109.7500473 328.025600
   1986   1984   1996     1   110.5600475 386.601600
   1987   1980   2009     1   110.1100470 384.091200
   1987   1990   1991     1   109.8000471 387.438400
   1987   1990   1992     1   109.8000471 387.438400
   1988   1987   1990     1   110.5600475 386.601600
   1988   1987   1989     1   109.7500473 328.025600
   1989   1987   1990     1   110.5600475 386.601600
   1990   1999   2000     1   109.5600471 388.275200
   1990   1999   2001     1   109.5600471 388.275200
   1991   1990   1999     1   109.8000471 387.438400
   1991   1990   1992     1   107.5800459 329.699200
   1992   1990   1999     1   109.8000471 387.438400
   1993   2005   2006     1   109.5600471 388.275200
   1993   2005   2007     1   109.5600471 388.275200
   1994   1993   2005     1   109.8000471 387.438400
   1994   1993   1995     1   107.5800459 329.699200
   1995   1993   2005     1   109.8000471 387.438400
   1996   2002   2003     1   109.5600471 388.275200
   1996   2002   2004     1   109.5600471 388.275200
   1997   1996   2002     1   109.8000471 387.438400
   1997   1996   1998     1   107.5800459 329.699200
   1998   1996   2002     1   109.8000471 387.438400
   2000   1999   2008     1   109.7800468 425.094400
   2000   1999   2001     1   108.4600466 328.025600
   2001   1999   2008     1   109.7800468 425.094400
   2003   2002   3750     1   109.7800468 425.094400
   2003   2002   2004     1   108.4600466 328.025600
   2004   2002   3750     1   109.7800468 425.094400
   2006   2005   3773     1   109.7800468 425.094400
   2006   2005   2007     1   108.4600466 328.025600
   2007   2005   3773     1   109.7800468 425.094400
   2010   2011   2012     1   108.0100461 406.684800
   2010   2011   2013     1   108.0100461 406.684800
   2010   2014   2015     1   108.0100461 406.684800
   2010   2014   2016     1   108.0100461 406.684800
   2010   2017   2018     1   108.0100461 406.684800
   2010   2017   2019     1   108.0100461 406.684800
   2011   2010   2039     1   110.1100470 384.091200
   2011   2023   2024     1   109.8000471 387.438400
   2011   2023   2025     1   109.8000471 387.438400
   2012   2011   2023     1   110.5600475 386.601600
   2012   2011   2013     1   109.7500473 328.025600
   2013   2011   2023     1   110.5600475 386.601600
   2014   2010   2039     1   110.1100470 384.091200
   2014   2026   2027     1   109.8000471 387.438400
   2014   2026   2028     1   109.8000471 387.438400
   2015   2014   2026     1   110.5600475 386.601600
   2015   2014   2016     1   109.7500473 328.025600
   2016   2014   2026     1   110.5600475 386.601600
   2017   2010   2039     1   110.1100470 384.091200
   2017   2020   2021     1   109.8000471 387.438400
   2017   2020   2022     1   109.8000471 387.438400
   2018   2017   2020     1   110.5600475 386.601600
   2018   2017   2019     1   109.7500473 328.025600
   2019   2017   2020     1   110.5600475 386.601600
   2020   2029   2030     1   109.5600471 388.275200
   2020   2029   2031     1   109.5600471 388.275200
   2021   2020   2029     1   109.8000471 387.438400
   2021   2020   2022     1   107.5800459 329.699200
   2022   2020   2029     1   109.8000471 387.438400
   2023   2035   2036     1   109.5600471 388.275200
   2023   2035   2037     1   109.5600471 388.275200
   2024   2023   2035     1   109.8000471 387.438400
   2024   2023   2025     1   107.5800459 329.699200
   2025   2023   2035     1   109.8000471 387.438400
   2026   2032   2033     1   109.5600471 388.275200
   2026   2032   2034     1   109.5600471 388.275200
   2027   2026   2032     1   109.8000471 387.438400
   2027   2026   2028     1   107.5800459 329.699200
   2028   2026   2032     1   109.8000471 387.438400
   2030   2029   2038     1   109.7800468 425.094400
   2030   2029   2031     1   108.4600466 328.025600
   2031   2029   2038     1   109.7800468 425.094400
   2033   2032   3796     1   109.7800468 425.094400
   2033   2032   2034     1   108.4600466 328.025600
   2034   2032   3796     1   109.7800468 425.094400
   2036   2035   3819     1   109.7800468 425.094400
   2036   2035   2037     1   108.4600466 328.025600
   2037   2035   3819     1   109.7800468 425.094400
   2040   2041   2042     1   108.0100461 406.684800
   2040   2041   2043     1   108.0100461 406.684800
   2040   2044   2045     1   108.0100461 406.684800
   2040   2044   2046     1   108.0100461 406.684800
   2040   2047   2048     1   108.0100461 406.684800
   2040   2047   2049     1   108.0100461 406.684800
   2041   2040   2069     1   110.1100470 384.091200
   2041   2053   2054     1   109.8000471 387.438400
   2041   2053   2055     1   109.8000471 387.438400
   2042   2041   2053     1   110.5600475 386.601600
   2042   2041   2043     1   109.7500473 328.025600
   2043   2041   2053     1   110.5600475 386.601600
   2044   2040   2069     1   110.1100470 384.091200
   2044   2056   2057     1   109.8000471 387.438400
   2044   2056   2058     1   109.8000471 387.438400
   2045   2044   2056     1   110.5600475 386.601600
   2045   2044   2046     1   109.7500473 328.025600
   2046   2044   2056     1   110.5600475 386.601600
   2047   2040   2069     1   110.1100470 384.091200
   2047   2050   2051     1   109.8000471 387.438400
   2047   2050   2052     1   109.8000471 387.438400
   2048   2047   2050     1   110.5600475 386.601600
   2048   2047   2049     1   109.7500473 328.025600
   2049   2047   2050     1   110.5600475 386.601600
   2050   2059   2060     1   109.5600471 388.275200
   2050   2059   2061     1   109.5600471 388.275200
   2051   2050   2059     1   109.8000471 387.438400
   2051   2050   2052     1   107.5800459 329.699200
   2052   2050   2059     1   109.8000471 387.438400
   2053   2065   2066     1   109.5600471 388.275200
   2053   2065   2067     1   109.5600471 388.275200
   2054   2053   2065     1   109.8000471 387.438400
   2054   2053   2055     1   107.5800459 329.699200
   2055   2053   2065     1   109.8000471 387.438400
   2056   2062   2063     1   109.5600471 388.275200
   2056   2062   2064     1   109.5600471 388.275200
   2057   2056   2062     1   109.8000471 387.438400
   2057   2056   2058     1   107.5800459 329.699200
   2058   2056   2062     1   109.8000471 387.438400
   2060   2059   2068     1   109.7800468 425.094400
   2060   2059   2061     1   108.4600466 328.025600
   2061   2059   2068     1   109.7800468 425.094400
   2063   2062   3842     1   109.7800468 425.094400
   2063   2062   2064     1   108.4600466 328.025600
   2064   2062   3842     1   109.7800468 425.094400
   2066   2065   3865     1   109.7800468 425.094400
   2066   2065   2067     1   108.4600466 328.025600
   2067   2065   3865     1   109.7800468 425.094400
   2070   2071   2072     1   108.0100461 406.684800
   2070   2071   2073     1   108.0100461 406.684800
   2070   2074   2075     1   108.0100461 406.684800
   2070   2074   2076     1   108.0100461 406.684800
   2070   2077   2078     1   108.0100461 406.684800
   2070   2077   2079     1   108.0100461 406.684800
   2071   2070   2099     1   110.1100470 384.091200
   2071   2083   2084     1   109.8000471 387.438400
   2071   2083   2085     1   109.8000471 387.438400
   2072   2071   2083     1   110.5600475 386.601600
   2072   2071   2073     1   109.7500473 328.025600
   2073   2071   2083     1   110.5600475 386.601600
   2074   2070   2099     1   110.1100470 384.091200
   2074   2086   2087     1   109.8000471 387.438400
   2074   2086   2088     1   109.8000471 387.438400
   2075   2074   2086     1   110.5600475 386.601600
   2075   2074   2076     1   109.7500473 328.025600
   2076   2074   2086     1   110.5600475 386.601600
   2077   2070   2099     1   110.1100470 384.091200
   2077   2080   2081     1   109.8000471 387.438400
   2077   2080   2082     1   109.8000471 387.438400
   2078   2077   2080     1   110.5600475 386.601600
   2078   2077   2079     1   109.7500473 328.025600
   2079   2077   2080     1   110.5600475 386.601600
   2080   2089   2090     1   109.5600471 388.275200
   2080   2089   2091     1   109.5600471 388.275200
   2081   2080   2089     1   109.8000471 387.438400
   2081   2080   2082     1   107.5800459 329.699200
   2082   2080   2089     1   109.8000471 387.438400
   2083   2095   2096     1   109.5600471 388.275200
   2083   2095   2097     1   109.5600471 388.275200
   2084   2083   2095     1   109.8000471 387.438400
   2084   2083   2085     1   107.5800459 329.699200
   2085   2083   2095     1   109.8000471 387.438400
   2086   2092   2093     1   109.5600471 388.275200
   2086   2092   2094     1   109.5600471 388.275200
   2087   2086   2092     1   109.8000471 387.438400
   2087   2086   2088     1   107.5800459 329.699200
   2088   2086   2092     1   109.8000471 387.438400
   2090   2089   2098     1   109.7800468 425.094400
   2090   2089   2091     1   108.4600466 328.025600
   2091   2089   2098     1   109.7800468 425.094400
   2093   2092   3888     1   109.7800468 425.094400
   2093   2092   2094     1   108.4600466 328.025600
   2094   2092   3888     1   109.7800468 425.094400
   2096   2095   3911     1   109.7800468 425.094400
   2096   2095   2097     1   108.4600466 328.025600
   2097   2095   3911     1   109.7800468 425.094400
   2100   2101   2102     1   108.0100461 406.684800
   2100   2101   2103     1   108.0100461 406.684800
   2100   2104   2105     1   108.0100461 406.684800
   2100   2104   2106     1   108.0100461 406.684800
   2100   2107   2108     1   108.0100461 406.684800
   2100   2107   2109     1   108.0100461 406.684800
   2101   2100   2129     1   110.1100470 384.091200
   2101   2113   2114     1   109.8000471 387.438400
   2101   2113   2115     1   109.8000471 387.438400
   2102   2101   2113     1   110.5600475 386.601600
   2102   2101   2103     1   109.7500473 328.025600
   2103   2101   2113     1   110.5600475 386.601600
   2104   2100   2129     1   110.1100470 384.091200
   2104   2116   2117     1   109.8000471 387.438400
   2104   2116   2118     1   109.8000471 387.438400
   2105   2104   2116     1   110.5600475 386.601600
   2105   2104   2106     1   109.7500473 328.025600
   2106   2104   2116     1   110.5600475 386.601600
   2107   2100   2129     1   110.1100470 384.091200
   2107   2110   2111     1   109.8000471 387.438400
   2107   2110   2112     1   109.8000471 387.438400
   2108   2107   2110     1   110.5600475 386.601600
   2108   2107   2109     1   109.7500473 328.025600
   2109   2107   2110     1   110.5600475 386.601600
   2110   2119   2120     1   109.5600471 388.275200
   2110   2119   2121     1   109.5600471 388.275200
   2111   2110   2119     1   109.8000471 387.438400
   2111   2110   2112     1   107.5800459 329.699200
   2112   2110   2119     1   109.8000471 387.438400
   2113   2125   2126     1   109.5600471 388.275200
   2113   2125   2127     1   109.5600471 388.275200
   2114   2113   2125     1   109.8000471 387.438400
   2114   2113   2115     1   107.5800459 329.699200
   2115   2113   2125     1   109.8000471 387.438400
   2116   2122   2123     1   109.5600471 388.275200
   2116   2122   2124     1   109.5600471 388.275200
   2117   2116   2122     1   109.8000471 387.438400
   2117   2116   2118     1   107.5800459 329.699200
   2118   2116   2122     1   109.8000471 387.438400
   2120   2119   2128     1   109.7800468 425.094400
   2120   2119   2121     1   108.4600466 328.025600
   2121   2119   2128     1   109.7800468 425.094400
   2123   2122   3934     1   109.7800468 425.094400
   2123   2122   2124     1   108.4600466 328.025600
   2124   2122   3934     1   109.7800468 425.094400
   2126   2125   3957     1   109.7800468 425.094400
   2126   2125   2127     1   108.4600466 328.025600
   2127   2125   3957     1   109.7800468 425.094400
   2130   2131   2132     1   108.0100461 406.684800
   2130   2131   2133     1   108.0100461 406.684800
   2130   2134   2135     1   108.0100461 406.684800
   2130   2134   2136     1   108.0100461 406.684800
   2130   2137   2138     1   108.0100461 406.684800
   2130   2137   2139     1   108.0100461 406.684800
   2131   2130   2159     1   110.1100470 384.091200
   2131   2143   2144     1   109.8000471 387.438400
   2131   2143   2145     1   109.8000471 387.438400
   2132   2131   2143     1   110.5600475 386.601600
   2132   2131   2133     1   109.7500473 328.025600
   2133   2131   2143     1   110.5600475 386.601600
   2134   2130   2159     1   110.1100470 384.091200
   2134   2146   2147     1   109.8000471 387.438400
   2134   2146   2148     1   109.8000471 387.438400
   2135   2134   2146     1   110.5600475 386.601600
   2135   2134   2136     1   109.7500473 328.025600
   2136   2134   2146     1   110.5600475 386.601600
   2137   2130   2159     1   110.1100470 384.091200
   2137   2140   2141     1   109.8000471 387.438400
   2137   2140   2142     1   109.8000471 387.438400
   2138   2137   2140     1   110.5600475 386.601600
   2138   2137   2139     1   109.7500473 328.025600
   2139   2137   2140     1   110.5600475 386.601600
   2140   2149   2150     1   109.5600471 388.275200
   2140   2149   2151     1   109.5600471 388.275200
   2141   2140   2149     1   109.8000471 387.438400
   2141   2140   2142     1   107.5800459 329.699200
   2142   2140   2149     1   109.8000471 387.438400
   2143   2155   2156     1   109.5600471 388.275200
   2143   2155   2157     1   109.5600471 388.275200
   2144   2143   2155     1   109.8000471 387.438400
   2144   2143   2145     1   107.5800459 329.699200
   2145   2143   2155     1   109.8000471 387.438400
   2146   2152   2153     1   109.5600471 388.275200
   2146   2152   2154     1   109.5600471 388.275200
   2147   2146   2152     1   109.8000471 387.438400
   2147   2146   2148     1   107.5800459 329.699200
   2148   2146   2152     1   109.8000471 387.438400
   2150   2149   2158     1   109.7800468 425.094400
   2150   2149   2151     1   108.4600466 328.025600
   2151   2149   2158     1   109.7800468 425.094400
   2153   2152   3980     1   109.7800468 425.094400
   2153   2152   2154     1   108.4600466 328.025600
   2154   2152   3980     1   109.7800468 425.094400
   2156   2155   4003     1   109.7800468 425.094400
   2156   2155   2157     1   108.4600466 328.025600
   2157   2155   4003     1   109.7800468 425.094400
   2160   2161   2162     1   108.0100461 406.684800
   2160   2161   2163     1   108.0100461 406.684800
   2160   2164   2165     1   108.0100461 406.684800
   2160   2164   2166     1   108.0100461 406.684800
   2160   2167   2168     1   108.0100461 406.684800
   2160   2167   2169     1   108.0100461 406.684800
   2161   2160   2189     1   110.1100470 384.091200
   2161   2173   2174     1   109.8000471 387.438400
   2161   2173   2175     1   109.8000471 387.438400
   2162   2161   2173     1   110.5600475 386.601600
   2162   2161   2163     1   109.7500473 328.025600
   2163   2161   2173     1   110.5600475 386.601600
   2164   2160   2189     1   110.1100470 384.091200
   2164   2176   2177     1   109.8000471 387.438400
   2164   2176   2178     1   109.8000471 387.438400
   2165   2164   2176     1   110.5600475 386.601600
   2165   2164   2166     1   109.7500473 328.025600
   2166   2164   2176     1   110.5600475 386.601600
   2167   2160   2189     1   110.1100470 384.091200
   2167   2170   2171     1   109.8000471 387.438400
   2167   2170   2172     1   109.8000471 387.438400
   2168   2167   2170     1   110.5600475 386.601600
   2168   2167   2169     1   109.7500473 328.025600
   2169   2167   2170     1   110.5600475 386.601600
   2170   2179   2180     1   109.5600471 388.275200
   2170   2179   2181     1   109.5600471 388.275200
   2171   2170   2179     1   109.8000471 387.438400
   2171   2170   2172     1   107.5800459 329.699200
   2172   2170   2179     1   109.8000471 387.438400
   2173   2185   2186     1   109.5600471 388.275200
   2173   2185   2187     1   109.5600471 388.275200
   2174   2173   2185     1   109.8000471 387.438400
   2174   2173   2175     1   107.5800459 329.699200
   2175   2173   2185     1   109.8000471 387.438400
   2176   2182   2183     1   109.5600471 388.275200
   2176   2182   2184     1   109.5600471 388.275200
   2177   2176   2182     1   109.8000471 387.438400
   2177   2176   2178     1   107.5800459 329.699200
   2178   2176   2182     1   109.8000471 387.438400
   2180   2179   2188     1   109.7800468 425.094400
   2180   2179   2181     1   108.4600466 328.025600
   2181   2179   2188     1   109.7800468 425.094400
   2183   2182   4026     1   109.7800468 425.094400
   2183   2182   2184     1   108.4600466 328.025600
   2184   2182   4026     1   109.7800468 425.094400
   2186   2185   4049     1   109.7800468 425.094400
   2186   2185   2187     1   108.4600466 328.025600
   2187   2185   4049     1   109.7800468 425.094400
   2190   2191   2192     1   108.0100461 406.684800
   2190   2191   2193     1   108.0100461 406.684800
   2190   2194   2195     1   108.0100461 406.684800
   2190   2194   2196     1   108.0100461 406.684800
   2190   2197   2198     1   108.0100461 406.684800
   2190   2197   2199     1   108.0100461 406.684800
   2191   2190   2219     1   110.1100470 384.091200
   2191   2203   2204     1   109.8000471 387.438400
   2191   2203   2205     1   109.8000471 387.438400
   2192   2191   2203     1   110.5600475 386.601600
   2192   2191   2193     1   109.7500473 328.025600
   2193   2191   2203     1   110.5600475 386.601600
   2194   2190   2219     1   110.1100470 384.091200
   2194   2206   2207     1   109.8000471 387.438400
   2194   2206   2208     1   109.8000471 387.438400
   2195   2194   2206     1   110.5600475 386.601600
   2195   2194   2196     1   109.7500473 328.025600
   2196   2194   2206     1   110.5600475 386.601600
   2197   2190   2219     1   110.1100470 384.091200
   2197   2200   2201     1   109.8000471 387.438400
   2197   2200   2202     1   109.8000471 387.438400
   2198   2197   2200     1   110.5600475 386.601600
   2198   2197   2199     1   109.7500473 328.025600
   2199   2197   2200     1   110.5600475 386.601600
   2200   2209   2210     1   109.5600471 388.275200
   2200   2209   2211     1   109.5600471 388.275200
   2201   2200   2209     1   109.8000471 387.438400
   2201   2200   2202     1   107.5800459 329.699200
   2202   2200   2209     1   109.8000471 387.438400
   2203   2215   2216     1   109.5600471 388.275200
   2203   2215   2217     1   109.5600471 388.275200
   2204   2203   2215     1   109.8000471 387.438400
   2204   2203   2205     1   107.5800459 329.699200
   2205   2203   2215     1   109.8000471 387.438400
   2206   2212   2213     1   109.5600471 388.275200
   2206   2212   2214     1   109.5600471 388.275200
   2207   2206   2212     1   109.8000471 387.438400
   2207   2206   2208     1   107.5800459 329.699200
   2208   2206   2212     1   109.8000471 387.438400
   2210   2209   2218     1   109.7800468 425.094400
   2210   2209   2211     1   108.4600466 328.025600
   2211   2209   2218     1   109.7800468 425.094400
   2213   2212   4072     1   109.7800468 425.094400
   2213   2212   2214     1   108.4600466 328.025600
   2214   2212   4072     1   109.7800468 425.094400
   2216   2215   4095     1   109.7800468 425.094400
   2216   2215   2217     1   108.4600466 328.025600
   2217   2215   4095     1   109.7800468 425.094400
   2220   2221   2222     1   108.0100461 406.684800
   2220   2221   2223     1   108.0100461 406.684800
   2220   2224   2225     1   108.0100461 406.684800
   2220   2224   2226     1   108.0100461 406.684800
   2220   2227   2228     1   108.0100461 406.684800
   2220   2227   2229     1   108.0100461 406.684800
   2221   2220   2249     1   110.1100470 384.091200
   2221   2233   2234     1   109.8000471 387.438400
   2221   2233   2235     1   109.8000471 387.438400
   2222   2221   2233     1   110.5600475 386.601600
   2222   2221   2223     1   109.7500473 328.025600
   2223   2221   2233     1   110.5600475 386.601600
   2224   2220   2249     1   110.1100470 384.091200
   2224   2236   2237     1   109.8000471 387.438400
   2224   2236   2238     1   109.8000471 387.438400
   2225   2224   2236     1   110.5600475 386.601600
   2225   2224   2226     1   109.7500473 328.025600
   2226   2224   2236     1   110.5600475 386.601600
   2227   2220   2249     1   110.1100470 384.091200
   2227   2230   2231     1   109.8000471 387.438400
   2227   2230   2232     1   109.8000471 387.438400
   2228   2227   2230     1   110.5600475 386.601600
   2228   2227   2229     1   109.7500473 328.025600
   2229   2227   2230     1   110.5600475 386.601600
   2230   2239   2240     1   109.5600471 388.275200
   2230   2239   2241     1   109.5600471 388.275200
   2231   2230   2239     1   109.8000471 387.438400
   2231   2230   2232     1   107.5800459 329.699200
   2232   2230   2239     1   109.8000471 387.438400
   2233   2245   2246     1   109.5600471 388.275200
   2233   2245   2247     1   109.5600471 388.275200
   2234   2233   2245     1   109.8000471 387.438400
   2234   2233   2235     1   107.5800459 329.699200
   2235   2233   2245     1   109.8000471 387.438400
   2236   2242   2243     1   109.5600471 388.275200
   2236   2242   2244     1   109.5600471 388.275200
   2237   2236   2242     1   109.8000471 387.438400
   2237   2236   2238     1   107.5800459 329.699200
   2238   2236   2242     1   109.8000471 387.438400
   2240   2239   2248     1   109.7800468 425.094400
   2240   2239   2241     1   108.4600466 328.025600
   2241   2239   2248     1   109.7800468 425.094400
   2243   2242   4118     1   109.7800468 425.094400
   2243   2242   2244     1   108.4600466 328.025600
   2244   2242   4118     1   109.7800468 425.094400
   2246   2245   4141     1   109.7800468 425.094400
   2246   2245   2247     1   108.4600466 328.025600
   2247   2245   4141     1   109.7800468 425.094400
   2250   2251   2252     1   108.0100461 406.684800
   2250   2251   2253     1   108.0100461 406.684800
   2250   2254   2255     1   108.0100461 406.684800
   2250   2254   2256     1   108.0100461 406.684800
   2250   2257   2258     1   108.0100461 406.684800
   2250   2257   2259     1   108.0100461 406.684800
   2251   2250   2279     1   110.1100470 384.091200
   2251   2263   2264     1   109.8000471 387.438400
   2251   2263   2265     1   109.8000471 387.438400
   2252   2251   2263     1   110.5600475 386.601600
   2252   2251   2253     1   109.7500473 328.025600
   2253   2251   2263     1   110.5600475 386.601600
   2254   2250   2279     1   110.1100470 384.091200
   2254   2266   2267     1   109.8000471 387.438400
   2254   2266   2268     1   109.8000471 387.438400
   2255   2254   2266     1   110.5600475 386.601600
   2255   2254   2256     1   109.7500473 328.025600
   2256   2254   2266     1   110.5600475 386.601600
   2257   2250   2279     1   110.1100470 384.091200
   2257   2260   2261     1   109.8000471 387.438400
   2257   2260   2262     1   109.8000471 387.438400
   2258   2257   2260     1   110.5600475 386.601600
   2258   2257   2259     1   109.7500473 328.025600
   2259   2257   2260     1   110.5600475 386.601600
   2260   2269   2270     1   109.5600471 388.275200
   2260   2269   2271     1   109.5600471 388.275200
   2261   2260   2269     1   109.8000471 387.438400
   2261   2260   2262     1   107.5800459 329.699200
   2262   2260   2269     1   109.8000471 387.438400
   2263   2275   2276     1   109.5600471 388.275200
   2263   2275   2277     1   109.5600471 388.275200
   2264   2263   2275     1   109.8000471 387.438400
   2264   2263   2265     1   107.5800459 329.699200
   2265   2263   2275     1   109.8000471 387.438400
   2266   2272   2273     1   109.5600471 388.275200
   2266   2272   2274     1   109.5600471 388.275200
   2267   2266   2272     1   109.8000471 387.438400
   2267   2266   2268     1   107.5800459 329.699200
   2268   2266   2272     1   109.8000471 387.438400
   2270   2269   2278     1   109.7800468 425.094400
   2270   2269   2271     1   108.4600466 328.025600
   2271   2269   2278     1   109.7800468 425.094400
   2273   2272   4164     1   109.7800468 425.094400
   2273   2272   2274     1   108.4600466 328.025600
   2274   2272   4164     1   109.7800468 425.094400
   2276   2275   4187     1   109.7800468 425.094400
   2276   2275   2277     1   108.4600466 328.025600
   2277   2275   4187     1   109.7800468 425.094400
   2280   2281   2282     1   108.0100461 406.684800
   2280   2281   2283     1   108.0100461 406.684800
   2280   2284   2285     1   108.0100461 406.684800
   2280   2284   2286     1   108.0100461 406.684800
   2280   2287   2288     1   108.0100461 406.684800
   2280   2287   2289     1   108.0100461 406.684800
   2281   2280   2309     1   110.1100470 384.091200
   2281   2293   2294     1   109.8000471 387.438400
   2281   2293   2295     1   109.8000471 387.438400
   2282   2281   2293     1   110.5600475 386.601600
   2282   2281   2283     1   109.7500473 328.025600
   2283   2281   2293     1   110.5600475 386.601600
   2284   2280   2309     1   110.1100470 384.091200
   2284   2296   2297     1   109.8000471 387.438400
   2284   2296   2298     1   109.8000471 387.438400
   2285   2284   2296     1   110.5600475 386.601600
   2285   2284   2286     1   109.7500473 328.025600
   2286   2284   2296     1   110.5600475 386.601600
   2287   2280   2309     1   110.1100470 384.091200
   2287   2290   2291     1   109.8000471 387.438400
   2287   2290   2292     1   109.8000471 387.438400
   2288   2287   2290     1   110.5600475 386.601600
   2288   2287   2289     1   109.7500473 328.025600
   2289   2287   2290     1   110.5600475 386.601600
   2290   2299   2300     1   109.5600471 388.275200
   2290   2299   2301     1   109.5600471 388.275200
   2291   2290   2299     1   109.8000471 387.438400
   2291   2290   2292     1   107.5800459 329.699200
   2292   2290   2299     1   109.8000471 387.438400
   2293   2305   2306     1   109.5600471 388.275200
   2293   2305   2307     1   109.5600471 388.275200
   2294   2293   2305     1   109.8000471 387.438400
   2294   2293   2295     1   107.5800459 329.699200
   2295   2293   2305     1   109.8000471 387.438400
   2296   2302   2303     1   109.5600471 388.275200
   2296   2302   2304     1   109.5600471 388.275200
   2297   2296   2302     1   109.8000471 387.438400
   2297   2296   2298     1   107.5800459 329.699200
   2298   2296   2302     1   109.8000471 387.438400
   2300   2299   2308     1   109.7800468 425.094400
   2300   2299   2301     1   108.4600466 328.025600
   2301   2299   2308     1   109.7800468 425.094400
   2303   2302   4210     1   109.7800468 425.094400
   2303   2302   2304     1   108.4600466 328.025600
   2304   2302   4210     1   109.7800468 425.094400
   2306   2305   4233     1   109.7800468 425.094400
   2306   2305   2307     1   108.4600466 328.025600
   2307   2305   4233     1   109.7800468 425.094400
   2310   2311   2312     1   108.0100461 406.684800
   2310   2311   2313     1   108.0100461 406.684800
   2310   2314   2315     1   108.0100461 406.684800
   2310   2314   2316     1   108.0100461 406.684800
   2310   2317   2318     1   108.0100461 406.684800
   2310   2317   2319     1   108.0100461 406.684800
   2311   2310   2339     1   110.1100470 384.091200
   2311   2323   2324     1   109.8000471 387.438400
   2311   2323   2325     1   109.8000471 387.438400
   2312   2311   2323     1   110.5600475 386.601600
   2312   2311   2313     1   109.7500473 328.025600
   2313   2311   2323     1   110.5600475 386.601600
   2314   2310   2339     1   110.1100470 384.091200
   2314   2326   2327     1   109.8000471 387.438400
   2314   2326   2328     1   109.8000471 387.438400
   2315   2314   2326     1   110.5600475 386.601600
   2315   2314   2316     1   109.7500473 328.025600
   2316   2314   2326     1   110.5600475 386.601600
   2317   2310   2339     1   110.1100470 384.091200
   2317   2320   2321     1   109.8000471 387.438400
   2317   2320   2322     1   109.8000471 387.438400
   2318   2317   2320     1   110.5600475 386.601600
   2318   2317   2319     1   109.7500473 328.025600
   2319   2317   2320     1   110.5600475 386.601600
   2320   2329   2330     1   109.5600471 388.275200
   2320   2329   2331     1   109.5600471 388.275200
   2321   2320   2329     1   109.8000471 387.438400
   2321   2320   2322     1   107.5800459 329.699200
   2322   2320   2329     1   109.8000471 387.438400
   2323   2335   2336     1   109.5600471 388.275200
   2323   2335   2337     1   109.5600471 388.275200
   2324   2323   2335     1   109.8000471 387.438400
   2324   2323   2325     1   107.5800459 329.699200
   2325   2323   2335     1   109.8000471 387.438400
   2326   2332   2333     1   109.5600471 388.275200
   2326   2332   2334     1   109.5600471 388.275200
   2327   2326   2332     1   109.8000471 387.438400
   2327   2326   2328     1   107.5800459 329.699200
   2328   2326   2332     1   109.8000471 387.438400
   2330   2329   2338     1   109.7800468 425.094400
   2330   2329   2331     1   108.4600466 328.025600
   2331   2329   2338     1   109.7800468 425.094400
   2333   2332   4256     1   109.7800468 425.094400
   2333   2332   2334     1   108.4600466 328.025600
   2334   2332   4256     1   109.7800468 425.094400
   2336   2335   4279     1   109.7800468 425.094400
   2336   2335   2337     1   108.4600466 328.025600
   2337   2335   4279     1   109.7800468 425.094400
   2340   2341   2342     1   108.0100461 406.684800
   2340   2341   2343     1   108.0100461 406.684800
   2340   2344   2345     1   108.0100461 406.684800
   2340   2344   2346     1   108.0100461 406.684800
   2340   2347   2348     1   108.0100461 406.684800
   2340   2347   2349     1   108.0100461 406.684800
   2341   2340   2369     1   110.1100470 384.091200
   2341   2353   2354     1   109.8000471 387.438400
   2341   2353   2355     1   109.8000471 387.438400
   2342   2341   2353     1   110.5600475 386.601600
   2342   2341   2343     1   109.7500473 328.025600
   2343   2341   2353     1   110.5600475 386.601600
   2344   2340   2369     1   110.1100470 384.091200
   2344   2356   2357     1   109.8000471 387.438400
   2344   2356   2358     1   109.8000471 387.438400
   2345   2344   2356     1   110.5600475 386.601600
   2345   2344   2346     1   109.7500473 328.025600
   2346   2344   2356     1   110.5600475 386.601600
   2347   2340   2369     1   110.1100470 384.091200
   2347   2350   2351     1   109.8000471 387.438400
   2347   2350   2352     1   109.8000471 387.438400
   2348   2347   2350     1   110.5600475 386.601600
   2348   2347   2349     1   109.7500473 328.025600
   2349   2347   2350     1   110.5600475 386.601600
   2350   2359   2360     1   109.5600471 388.275200
   2350   2359   2361     1   109.5600471 388.275200
   2351   2350   2359     1   109.8000471 387.438400
   2351   2350   2352     1   107.5800459 329.699200
   2352   2350   2359     1   109.8000471 387.438400
   2353   2365   2366     1   109.5600471 388.275200
   2353   2365   2367     1   109.5600471 388.275200
   2354   2353   2365     1   109.8000471 387.438400
   2354   2353   2355     1   107.5800459 329.699200
   2355   2353   2365     1   109.8000471 387.438400
   2356   2362   2363     1   109.5600471 388.275200
   2356   2362   2364     1   109.5600471 388.275200
   2357   2356   2362     1   109.8000471 387.438400
   2357   2356   2358     1   107.5800459 329.699200
   2358   2356   2362     1   109.8000471 387.438400
   2360   2359   2368     1   109.7800468 425.094400
   2360   2359   2361     1   108.4600466 328.025600
   2361   2359   2368     1   109.7800468 425.094400
   2363   2362   4302     1   109.7800468 425.094400
   2363   2362   2364     1   108.4600466 328.025600
   2364   2362   4302     1   109.7800468 425.094400
   2366   2365   4325     1   109.7800468 425.094400
   2366   2365   2367     1   108.4600466 328.025600
   2367   2365   4325     1   109.7800468 425.094400
   2370   2371   2372     1   108.0100461 406.684800
   2370   2371   2373     1   108.0100461 406.684800
   2370   2374   2375     1   108.0100461 406.684800
   2370   2374   2376     1   108.0100461 406.684800
   2370   2377   2378     1   108.0100461 406.684800
   2370   2377   2379     1   108.0100461 406.684800
   2371   2370   2399     1   110.1100470 384.091200
   2371   2383   2384     1   109.8000471 387.438400
   2371   2383   2385     1   109.8000471 387.438400
   2372   2371   2383     1   110.5600475 386.601600
   2372   2371   2373     1   109.7500473 328.025600
   2373   2371   2383     1   110.5600475 386.601600
   2374   2370   2399     1   110.1100470 384.091200
   2374   2386   2387     1   109.8000471 387.438400
   2374   2386   2388     1   109.8000471 387.438400
   2375   2374   2386     1   110.5600475 386.601600
   2375   2374   2376     1   109.7500473 328.025600
   2376   2374   2386     1   110.5600475 386.601600
   2377   2370   2399     1   110.1100470 384.091200
   2377   2380   2381     1   109.8000471 387.438400
   2377   2380   2382     1   109.8000471 387.438400
   2378   2377   2380     1   110.5600475 386.601600
   2378   2377   2379     1   109.7500473 328.025600
   2379   2377   2380     1   110.5600475 386.601600
   2380   2389   2390     1   109.5600471 388.275200
   2380   2389   2391     1   109.5600471 388.275200
   2381   2380   2389     1   109.8000471 387.438400
   2381   2380   2382     1   107.5800459 329.699200
   2382   2380   2389     1   109.8000471 387.438400
   2383   2395   2396     1   109.5600471 388.275200
   2383   2395   2397     1   109.5600471 388.275200
   2384   2383   2395     1   109.8000471 387.438400
   2384   2383   2385     1   107.5800459 329.699200
   2385   2383   2395     1   109.8000471 387.438400
   2386   2392   2393     1   109.5600471 388.275200
   2386   2392   2394     1   109.5600471 388.275200
   2387   2386   2392     1   109.8000471 387.438400
   2387   2386   2388     1   107.5800459 329.699200
   2388   2386   2392     1   109.8000471 387.438400
   2390   2389   2398     1   109.7800468 425.094400
   2390   2389   2391     1   108.4600466 328.025600
   2391   2389   2398     1   109.7800468 425.094400
   2393   2392   4348     1   109.7800468 425.094400
   2393   2392   2394     1   108.4600466 328.025600
   2394   2392   4348     1   109.7800468 425.094400
   2396   2395   4371     1   109.7800468 425.094400
   2396   2395   2397     1   108.4600466 328.025600
   2397   2395   4371     1   109.7800468 425.094400
   2400   2401   2402     1   108.0100461 406.684800
   2400   2401   2403     1   108.0100461 406.684800
   2400   2404   2405     1   108.0100461 406.684800
   2400   2404   2406     1   108.0100461 406.684800
   2400   2407   2408     1   108.0100461 406.684800
   2400   2407   2409     1   108.0100461 406.684800
   2401   2400   2429     1   110.1100470 384.091200
   2401   2413   2414     1   109.8000471 387.438400
   2401   2413   2415     1   109.8000471 387.438400
   2402   2401   2413     1   110.5600475 386.601600
   2402   2401   2403     1   109.7500473 328.025600
   2403   2401   2413     1   110.5600475 386.601600
   2404   2400   2429     1   110.1100470 384.091200
   2404   2416   2417     1   109.8000471 387.438400
   2404   2416   2418     1   109.8000471 387.438400
   2405   2404   2416     1   110.5600475 386.601600
   2405   2404   2406     1   109.7500473 328.025600
   2406   2404   2416     1   110.5600475 386.601600
   2407   2400   2429     1   110.1100470 384.091200
   2407   2410   2411     1   109.8000471 387.438400
   2407   2410   2412     1   109.8000471 387.438400
   2408   2407   2410     1   110.5600475 386.601600
   2408   2407   2409     1   109.7500473 328.025600
   2409   2407   2410     1   110.5600475 386.601600
   2410   2419   2420     1   109.5600471 388.275200
   2410   2419   2421     1   109.5600471 388.275200
   2411   2410   2419     1   109.8000471 387.438400
   2411   2410   2412     1   107.5800459 329.699200
   2412   2410   2419     1   109.8000471 387.438400
   2413   2425   2426     1   109.5600471 388.275200
   2413   2425   2427     1   109.5600471 388.275200
   2414   2413   2425     1   109.8000471 387.438400
   2414   2413   2415     1   107.5800459 329.699200
   2415   2413   2425     1   109.8000471 387.438400
   2416   2422   2423     1   109.5600471 388.275200
   2416   2422   2424     1   109.5600471 388.275200
   2417   2416   2422     1   109.8000471 387.438400
   2417   2416   2418     1   107.5800459 329.699200
   2418   2416   2422     1   109.8000471 387.438400
   2420   2419   2428     1   109.7800468 425.094400
   2420   2419   2421     1   108.4600466 328.025600
   2421   2419   2428     1   109.7800468 425.094400
   2423   2422   4394     1   109.7800468 425.094400
   2423   2422   2424     1   108.4600466 328.025600
   2424   2422   4394     1   109.7800468 425.094400
   2426   2425   4417     1   109.7800468 425.094400
   2426   2425   2427     1   108.4600466 328.025600
   2427   2425   4417     1   109.7800468 425.094400
   2430   2431   2432     1   108.0100461 406.684800
   2430   2431   2433     1   108.0100461 406.684800
   2430   2434   2435     1   108.0100461 406.684800
   2430   2434   2436     1   108.0100461 406.684800
   2430   2437   2438     1   108.0100461 406.684800
   2430   2437   2439     1   108.0100461 406.684800
   2431   2430   2459     1   110.1100470 384.091200
   2431   2443   2444     1   109.8000471 387.438400
   2431   2443   2445     1   109.8000471 387.438400
   2432   2431   2443     1   110.5600475 386.601600
   2432   2431   2433     1   109.7500473 328.025600
   2433   2431   2443     1   110.5600475 386.601600
   2434   2430   2459     1   110.1100470 384.091200
   2434   2446   2447     1   109.8000471 387.438400
   2434   2446   2448     1   109.8000471 387.438400
   2435   2434   2446     1   110.5600475 386.601600
   2435   2434   2436     1   109.7500473 328.025600
   2436   2434   2446     1   110.5600475 386.601600
   2437   2430   2459     1   110.1100470 384.091200
   2437   2440   2441     1   109.8000471 387.438400
   2437   2440   2442     1   109.8000471 387.438400
   2438   2437   2440     1   110.5600475 386.601600
   2438   2437   2439     1   109.7500473 328.025600
   2439   2437   2440     1   110.5600475 386.601600
   2440   2449   2450     1   109.5600471 388.275200
   2440   2449   2451     1   109.5600471 388.275200
   2441   2440   2449     1   109.8000471 387.438400
   2441   2440   2442     1   107.5800459 329.699200
   2442   2440   2449     1   109.8000471 387.438400
   2443   2455   2456     1   109.5600471 388.275200
   2443   2455   2457     1   109.5600471 388.275200
   2444   2443   2455     1   109.8000471 387.438400
   2444   2443   2445     1   107.5800459 329.699200
   2445   2443   2455     1   109.8000471 387.438400
   2446   2452   2453     1   109.5600471 388.275200
   2446   2452   2454     1   109.5600471 388.275200
   2447   2446   2452     1   109.8000471 387.438400
   2447   2446   2448     1   107.5800459 329.699200
   2448   2446   2452     1   109.8000471 387.438400
   2450   2449   2458     1   109.7800468 425.094400
   2450   2449   2451     1   108.4600466 328.025600
   2451   2449   2458     1   109.7800468 425.094400
   2453   2452   4440     1   109.7800468 425.094400
   2453   2452   2454     1   108.4600466 328.025600
   2454   2452   4440     1   109.7800468 425.094400
   2456   2455   4463     1   109.7800468 425.094400
   2456   2455   2457     1   108.4600466 328.025600
   2457   2455   4463     1   109.7800468 425.094400
   2460   2461   2462     1   108.0100461 406.684800
   2460   2461   2463     1   108.0100461 406.684800
   2460   2464   2465     1   108.0100461 406.684800
   2460   2464   2466     1   108.0100461 406.684800
   2460   2467   2468     1   108.0100461 406.684800
   2460   2467   2469     1   108.0100461 406.684800
   2461   2460   2489     1   110.1100470 384.091200
   2461   2473   2474     1   109.8000471 387.438400
   2461   2473   2475     1   109.8000471 387.438400
   2462   2461   2473     1   110.5600475 386.601600
   2462   2461   2463     1   109.7500473 328.025600
   2463   2461   2473     1   110.5600475 386.601600
   2464   2460   2489     1   110.1100470 384.091200
   2464   2476   2477     1   109.8000471 387.438400
   2464   2476   2478     1   109.8000471 387.438400
   2465   2464   2476     1   110.5600475 386.601600
   2465   2464   2466     1   109.7500473 328.025600
   2466   2464   2476     1   110.5600475 386.601600
   2467   2460   2489     1   110.1100470 384.091200
   2467   2470   2471     1   109.8000471 387.438400
   2467   2470   2472     1   109.8000471 387.438400
   2468   2467   2470     1   110.5600475 386.601600
   2468   2467   2469     1   109.7500473 328.025600
   2469   2467   2470     1   110.5600475 386.601600
   2470   2479   2480     1   109.5600471 388.275200
   2470   2479   2481     1   109.5600471 388.275200
   2471   2470   2479     1   109.8000471 387.438400
   2471   2470   2472     1   107.5800459 329.699200
   2472   2470   2479     1   109.8000471 387.438400
   2473   2485   2486     1   109.5600471 388.275200
   2473   2485   2487     1   109.5600471 388.275200
   2474   2473   2485     1   109.8000471 387.438400
   2474   2473   2475     1   107.5800459 329.699200
   2475   2473   2485     1   109.8000471 387.438400
   2476   2482   2483     1   109.5600471 388.275200
   2476   2482   2484     1   109.5600471 388.275200
   2477   2476   2482     1   109.8000471 387.438400
   2477   2476   2478     1   107.5800459 329.699200
   2478   2476   2482     1   109.8000471 387.438400
   2480   2479   2488     1   109.7800468 425.094400
   2480   2479   2481     1   108.4600466 328.025600
   2481   2479   2488     1   109.7800468 425.094400
   2483   2482   4486     1   109.7800468 425.094400
   2483   2482   2484     1   108.4600466 328.025600
   2484   2482   4486     1   109.7800468 425.094400
   2486   2485   4509     1   109.7800468 425.094400
   2486   2485   2487     1   108.4600466 328.025600
   2487   2485   4509     1   109.7800468 425.094400
   2490   2491   2492     1   108.0100461 406.684800
   2490   2491   2493     1   108.0100461 406.684800
   2490   2494   2495     1   108.0100461 406.684800
   2490   2494   2496     1   108.0100461 406.684800
   2490   2497   2498     1   108.0100461 406.684800
   2490   2497   2499     1   108.0100461 406.684800
   2491   2490   2519     1   110.1100470 384.091200
   2491   2503   2504     1   109.8000471 387.438400
   2491   2503   2505     1   109.8000471 387.438400
   2492   2491   2503     1   110.5600475 386.601600
   2492   2491   2493     1   109.7500473 328.025600
   2493   2491   2503     1   110.5600475 386.601600
   2494   2490   2519     1   110.1100470 384.091200
   2494   2506   2507     1   109.8000471 387.438400
   2494   2506   2508     1   109.8000471 387.438400
   2495   2494   2506     1   110.5600475 386.601600
   2495   2494   2496     1   109.7500473 328.025600
   2496   2494   2506     1   110.5600475 386.601600
   2497   2490   2519     1   110.1100470 384.091200
   2497   2500   2501     1   109.8000471 387.438400
   2497   2500   2502     1   109.8000471 387.438400
   2498   2497   2500     1   110.5600475 386.601600
   2498   2497   2499     1   109.7500473 328.025600
   2499   2497   2500     1   110.5600475 386.601600
   2500   2509   2510     1   109.5600471 388.275200
   2500   2509   2511     1   109.5600471 388.275200
   2501   2500   2509     1   109.8000471 387.438400
   2501   2500   2502     1   107.5800459 329.699200
   2502   2500   2509     1   109.8000471 387.438400
   2503   2515   2516     1   109.5600471 388.275200
   2503   2515   2517     1   109.5600471 388.275200
   2504   2503   2515     1   109.8000471 387.438400
   2504   2503   2505     1   107.5800459 329.699200
   2505   2503   2515     1   109.8000471 387.438400
   2506   2512   2513     1   109.5600471 388.275200
   2506   2512   2514     1   109.5600471 388.275200
   2507   2506   2512     1   109.8000471 387.438400
   2507   2506   2508     1   107.5800459 329.699200
   2508   2506   2512     1   109.8000471 387.438400
   2510   2509   2518     1   109.7800468 425.094400
   2510   2509   2511     1   108.4600466 328.025600
   2511   2509   2518     1   109.7800468 425.094400
   2513   2512   4532     1   109.7800468 425.094400
   2513   2512   2514     1   108.4600466 328.025600
   2514   2512   4532     1   109.7800468 425.094400
   2516   2515   4555     1   109.7800468 425.094400
   2516   2515   2517     1   108.4600466 328.025600
   2517   2515   4555     1   109.7800468 425.094400
   2520   2521   2522     1   108.0100461 406.684800
   2520   2521   2523     1   108.0100461 406.684800
   2520   2524   2525     1   108.0100461 406.684800
   2520   2524   2526     1   108.0100461 406.684800
   2520   2527   2528     1   108.0100461 406.684800
   2520   2527   2529     1   108.0100461 406.684800
   2521   2520   2549     1   110.1100470 384.091200
   2521   2533   2534     1   109.8000471 387.438400
   2521   2533   2535     1   109.8000471 387.438400
   2522   2521   2533     1   110.5600475 386.601600
   2522   2521   2523     1   109.7500473 328.025600
   2523   2521   2533     1   110.5600475 386.601600
   2524   2520   2549     1   110.1100470 384.091200
   2524   2536   2537     1   109.8000471 387.438400
   2524   2536   2538     1   109.8000471 387.438400
   2525   2524   2536     1   110.5600475 386.601600
   2525   2524   2526     1   109.7500473 328.025600
   2526   2524   2536     1   110.5600475 386.601600
   2527   2520   2549     1   110.1100470 384.091200
   2527   2530   2531     1   109.8000471 387.438400
   2527   2530   2532     1   109.8000471 387.438400
   2528   2527   2530     1   110.5600475 386.601600
   2528   2527   2529     1   109.7500473 328.025600
   2529   2527   2530     1   110.5600475 386.601600
   2530   2539   2540     1   109.5600471 388.275200
   2530   2539   2541     1   109.5600471 388.275200
   2531   2530   2539     1   109.8000471 387.438400
   2531   2530   2532     1   107.5800459 329.699200
   2532   2530   2539     1   109.8000471 387.438400
   2533   2545   2546     1   109.5600471 388.275200
   2533   2545   2547     1   109.5600471 388.275200
   2534   2533   2545     1   109.8000471 387.438400
   2534   2533   2535     1   107.5800459 329.699200
   2535   2533   2545     1   109.8000471 387.438400
   2536   2542   2543     1   109.5600471 388.275200
   2536   2542   2544     1   109.5600471 388.275200
   2537   2536   2542     1   109.8000471 387.438400
   2537   2536   2538     1   107.5800459 329.699200
   2538   2536   2542     1   109.8000471 387.438400
   2540   2539   2548     1   109.7800468 425.094400
   2540   2539   2541     1   108.4600466 328.025600
   2541   2539   2548     1   109.7800468 425.094400
   2543   2542   4578     1   109.7800468 425.094400
   2543   2542   2544     1   108.4600466 328.025600
   2544   2542   4578     1   109.7800468 425.094400
   2546   2545   4601     1   109.7800468 425.094400
   2546   2545   2547     1   108.4600466 328.025600
   2547   2545   4601     1   109.7800468 425.094400
   2550   2551   2552     1   108.0100461 406.684800
   2550   2551   2553     1   108.0100461 406.684800
   2550   2554   2555     1   108.0100461 406.684800
   2550   2554   2556     1   108.0100461 406.684800
   2550   2557   2558     1   108.0100461 406.684800
   2550   2557   2559     1   108.0100461 406.684800
   2551   2550   2579     1   110.1100470 384.091200
   2551   2563   2564     1   109.8000471 387.438400
   2551   2563   2565     1   109.8000471 387.438400
   2552   2551   2563     1   110.5600475 386.601600
   2552   2551   2553     1   109.7500473 328.025600
   2553   2551   2563     1   110.5600475 386.601600
   2554   2550   2579     1   110.1100470 384.091200
   2554   2566   2567     1   109.8000471 387.438400
   2554   2566   2568     1   109.8000471 387.438400
   2555   2554   2566     1   110.5600475 386.601600
   2555   2554   2556     1   109.7500473 328.025600
   2556   2554   2566     1   110.5600475 386.601600
   2557   2550   2579     1   110.1100470 384.091200
   2557   2560   2561     1   109.8000471 387.438400
   2557   2560   2562     1   109.8000471 387.438400
   2558   2557   2560     1   110.5600475 386.601600
   2558   2557   2559     1   109.7500473 328.025600
   2559   2557   2560     1   110.5600475 386.601600
   2560   2569   2570     1   109.5600471 388.275200
   2560   2569   2571     1   109.5600471 388.275200
   2561   2560   2569     1   109.8000471 387.438400
   2561   2560   2562     1   107.5800459 329.699200
   2562   2560   2569     1   109.8000471 387.438400
   2563   2575   2576     1   109.5600471 388.275200
   2563   2575   2577     1   109.5600471 388.275200
   2564   2563   2575     1   109.8000471 387.438400
   2564   2563   2565     1   107.5800459 329.699200
   2565   2563   2575     1   109.8000471 387.438400
   2566   2572   2573     1   109.5600471 388.275200
   2566   2572   2574     1   109.5600471 388.275200
   2567   2566   2572     1   109.8000471 387.438400
   2567   2566   2568     1   107.5800459 329.699200
   2568   2566   2572     1   109.8000471 387.438400
   2570   2569   2578     1   109.7800468 425.094400
   2570   2569   2571     1   108.4600466 328.025600
   2571   2569   2578     1   109.7800468 425.094400
   2573   2572   4624     1   109.7800468 425.094400
   2573   2572   2574     1   108.4600466 328.025600
   2574   2572   4624     1   109.7800468 425.094400
   2576   2575   4647     1   109.7800468 425.094400
   2576   2575   2577     1   108.4600466 328.025600
   2577   2575   4647     1   109.7800468 425.094400
   2580   2581   2582     1   108.0100461 406.684800
   2580   2581   2583     1   108.0100461 406.684800
   2580   2584   2585     1   108.0100461 406.684800
   2580   2584   2586     1   108.0100461 406.684800
   2580   2587   2588     1   108.0100461 406.684800
   2580   2587   2589     1   108.0100461 406.684800
   2581   2580   2609     1   110.1100470 384.091200
   2581   2593   2594     1   109.8000471 387.438400
   2581   2593   2595     1   109.8000471 387.438400
   2582   2581   2593     1   110.5600475 386.601600
   2582   2581   2583     1   109.7500473 328.025600
   2583   2581   2593     1   110.5600475 386.601600
   2584   2580   2609     1   110.1100470 384.091200
   2584   2596   2597     1   109.8000471 387.438400
   2584   2596   2598     1   109.8000471 387.438400
   2585   2584   2596     1   110.5600475 386.601600
   2585   2584   2586     1   109.7500473 328.025600
   2586   2584   2596     1   110.5600475 386.601600
   2587   2580   2609     1   110.1100470 384.091200
   2587   2590   2591     1   109.8000471 387.438400
   2587   2590   2592     1   109.8000471 387.438400
   2588   2587   2590     1   110.5600475 386.601600
   2588   2587   2589     1   109.7500473 328.025600
   2589   2587   2590     1   110.5600475 386.601600
   2590   2599   2600     1   109.5600471 388.275200
   2590   2599   2601     1   109.5600471 388.275200
   2591   2590   2599     1   109.8000471 387.438400
   2591   2590   2592     1   107.5800459 329.699200
   2592   2590   2599     1   109.8000471 387.438400
   2593   2605   2606     1   109.5600471 388.275200
   2593   2605   2607     1   109.5600471 388.275200
   2594   2593   2605     1   109.8000471 387.438400
   2594   2593   2595     1   107.5800459 329.699200
   2595   2593   2605     1   109.8000471 387.438400
   2596   2602   2603     1   109.5600471 388.275200
   2596   2602   2604     1   109.5600471 388.275200
   2597   2596   2602     1   109.8000471 387.438400
   2597   2596   2598     1   107.5800459 329.699200
   2598   2596   2602     1   109.8000471 387.438400
   2600   2599   2608     1   109.7800468 425.094400
   2600   2599   2601     1   108.4600466 328.025600
   2601   2599   2608     1   109.7800468 425.094400
   2603   2602   4670     1   109.7800468 425.094400
   2603   2602   2604     1   108.4600466 328.025600
   2604   2602   4670     1   109.7800468 425.094400
   2606   2605   4693     1   109.7800468 425.094400
   2606   2605   2607     1   108.4600466 328.025600
   2607   2605   4693     1   109.7800468 425.094400
   2610   2611   2612     1   108.0100461 406.684800
   2610   2611   2613     1   108.0100461 406.684800
   2610   2614   2615     1   108.0100461 406.684800
   2610   2614   2616     1   108.0100461 406.684800
   2610   2617   2618     1   108.0100461 406.684800
   2610   2617   2619     1   108.0100461 406.684800
   2611   2610   2639     1   110.1100470 384.091200
   2611   2623   2624     1   109.8000471 387.438400
   2611   2623   2625     1   109.8000471 387.438400
   2612   2611   2623     1   110.5600475 386.601600
   2612   2611   2613     1   109.7500473 328.025600
   2613   2611   2623     1   110.5600475 386.601600
   2614   2610   2639     1   110.1100470 384.091200
   2614   2626   2627     1   109.8000471 387.438400
   2614   2626   2628     1   109.8000471 387.438400
   2615   2614   2626     1   110.5600475 386.601600
   2615   2614   2616     1   109.7500473 328.025600
   2616   2614   2626     1   110.5600475 386.601600
   2617   2610   2639     1   110.1100470 384.091200
   2617   2620   2621     1   109.8000471 387.438400
   2617   2620   2622     1   109.8000471 387.438400
   2618   2617   2620     1   110.5600475 386.601600
   2618   2617   2619     1   109.7500473 328.025600
   2619   2617   2620     1   110.5600475 386.601600
   2620   2629   2630     1   109.5600471 388.275200
   2620   2629   2631     1   109.5600471 388.275200
   2621   2620   2629     1   109.8000471 387.438400
   2621   2620   2622     1   107.5800459 329.699200
   2622   2620   2629     1   109.8000471 387.438400
   2623   2635   2636     1   109.5600471 388.275200
   2623   2635   2637     1   109.5600471 388.275200
   2624   2623   2635     1   109.8000471 387.438400
   2624   2623   2625     1   107.5800459 329.699200
   2625   2623   2635     1   109.8000471 387.438400
   2626   2632   2633     1   109.5600471 388.275200
   2626   2632   2634     1   109.5600471 388.275200
   2627   2626   2632     1   109.8000471 387.438400
   2627   2626   2628     1   107.5800459 329.699200
   2628   2626   2632     1   109.8000471 387.438400
   2630   2629   2638     1   109.7800468 425.094400
   2630   2629   2631     1   108.4600466 328.025600
   2631   2629   2638     1   109.7800468 425.094400
   2633   2632   4716     1   109.7800468 425.094400
   2633   2632   2634     1   108.4600466 328.025600
   2634   2632   4716     1   109.7800468 425.094400
   2636   2635   4739     1   109.7800468 425.094400
   2636   2635   2637     1   108.4600466 328.025600
   2637   2635   4739     1   109.7800468 425.094400
   2640   2641   2642     1   108.0100461 406.684800
   2640   2641   2643     1   108.0100461 406.684800
   2640   2644   2645     1   108.0100461 406.684800
   2640   2644   2646     1   108.0100461 406.684800
   2640   2647   2648     1   108.0100461 406.684800
   2640   2647   2649     1   108.0100461 406.684800
   2641   2640   2669     1   110.1100470 384.091200
   2641   2653   2654     1   109.8000471 387.438400
   2641   2653   2655     1   109.8000471 387.438400
   2642   2641   2653     1   110.5600475 386.601600
   2642   2641   2643     1   109.7500473 328.025600
   2643   2641   2653     1   110.5600475 386.601600
   2644   2640   2669     1   110.1100470 384.091200
   2644   2656   2657     1   109.8000471 387.438400
   2644   2656   2658     1   109.8000471 387.438400
   2645   2644   2656     1   110.5600475 386.601600
   2645   2644   2646     1   109.7500473 328.025600
   2646   2644   2656     1   110.5600475 386.601600
   2647   2640   2669     1   110.1100470 384.091200
   2647   2650   2651     1   109.8000471 387.438400
   2647   2650   2652     1   109.8000471 387.438400
   2648   2647   2650     1   110.5600475 386.601600
   2648   2647   2649     1   109.7500473 328.025600
   2649   2647   2650     1   110.5600475 386.601600
   2650   2659   2660     1   109.5600471 388.275200
   2650   2659   2661     1   109.5600471 388.275200
   2651   2650   2659     1   109.8000471 387.438400
   2651   2650   2652     1   107.5800459 329.699200
   2652   2650   2659     1   109.8000471 387.438400
   2653   2665   2666     1   109.5600471 388.275200
   2653   2665   2667     1   109.5600471 388.275200
   2654   2653   2665     1   109.8000471 387.438400
   2654   2653   2655     1   107.5800459 329.699200
   2655   2653   2665     1   109.8000471 387.438400
   2656   2662   2663     1   109.5600471 388.275200
   2656   2662   2664     1   109.5600471 388.275200
   2657   2656   2662     1   109.8000471 387.438400
   2657   2656   2658     1   107.5800459 329.699200
   2658   2656   2662     1   109.8000471 387.438400
   2660   2659   2668     1   109.7800468 425.094400
   2660   2659   2661     1   108.4600466 328.025600
   2661   2659   2668     1   109.7800468 425.094400
   2663   2662   4762     1   109.7800468 425.094400
   2663   2662   2664     1   108.4600466 328.025600
   2664   2662   4762     1   109.7800468 425.094400
   2666   2665   4785     1   109.7800468 425.094400
   2666   2665   2667     1   108.4600466 328.025600
   2667   2665   4785     1   109.7800468 425.094400
   2670   2671   2672     1   108.0100461 406.684800
   2670   2671   2673     1   108.0100461 406.684800
   2670   2674   2675     1   108.0100461 406.684800
   2670   2674   2676     1   108.0100461 406.684800
   2670   2677   2678     1   108.0100461 406.684800
   2670   2677   2679     1   108.0100461 406.684800
   2671   2670   2699     1   110.1100470 384.091200
   2671   2683   2684     1   109.8000471 387.438400
   2671   2683   2685     1   109.8000471 387.438400
   2672   2671   2683     1   110.5600475 386.601600
   2672   2671   2673     1   109.7500473 328.025600
   2673   2671   2683     1   110.5600475 386.601600
   2674   2670   2699     1   110.1100470 384.091200
   2674   2686   2687     1   109.8000471 387.438400
   2674   2686   2688     1   109.8000471 387.438400
   2675   2674   2686     1   110.5600475 386.601600
   2675   2674   2676     1   109.7500473 328.025600
   2676   2674   2686     1   110.5600475 386.601600
   2677   2670   2699     1   110.1100470 384.091200
   2677   2680   2681     1   109.8000471 387.438400
   2677   2680   2682     1   109.8000471 387.438400
   2678   2677   2680     1   110.5600475 386.601600
   2678   2677   2679     1   109.7500473 328.025600
   2679   2677   2680     1   110.5600475 386.601600
   2680   2689   2690     1   109.5600471 388.275200
   2680   2689   2691     1   109.5600471 388.275200
   2681   2680   2689     1   109.8000471 387.438400
   2681   2680   2682     1   107.5800459 329.699200
   2682   2680   2689     1   109.8000471 387.438400
   2683   2695   2696     1   109.5600471 388.275200
   2683   2695   2697     1   109.5600471 388.275200
   2684   2683   2695     1   109.8000471 387.438400
   2684   2683   2685     1   107.5800459 329.699200
   2685   2683   2695     1   109.8000471 387.438400
   2686   2692   2693     1   109.5600471 388.275200
   2686   2692   2694     1   109.5600471 388.275200
   2687   2686   2692     1   109.8000471 387.438400
   2687   2686   2688     1   107.5800459 329.699200
   2688   2686   2692     1   109.8000471 387.438400
   2690   2689   2698     1   109.7800468 425.094400
   2690   2689   2691     1   108.4600466 328.025600
   2691   2689   2698     1   109.7800468 425.094400
   2693   2692   4808     1   109.7800468 425.094400
   2693   2692   2694     1   108.4600466 328.025600
   2694   2692   4808     1   109.7800468 425.094400
   2696   2695   4831     1   109.7800468 425.094400
   2696   2695   2697     1   108.4600466 328.025600
   2697   2695   4831     1   109.7800468 425.094400
   2700   2701   2702     1   108.0100461 406.684800
   2700   2701   2703     1   108.0100461 406.684800
   2700   2704   2705     1   108.0100461 406.684800
   2700   2704   2706     1   108.0100461 406.684800
   2700   2707   2708     1   108.0100461 406.684800
   2700   2707   2709     1   108.0100461 406.684800
   2701   2700   2729     1   110.1100470 384.091200
   2701   2713   2714     1   109.8000471 387.438400
   2701   2713   2715     1   109.8000471 387.438400
   2702   2701   2713     1   110.5600475 386.601600
   2702   2701   2703     1   109.7500473 328.025600
   2703   2701   2713     1   110.5600475 386.601600
   2704   2700   2729     1   110.1100470 384.091200
   2704   2716   2717     1   109.8000471 387.438400
   2704   2716   2718     1   109.8000471 387.438400
   2705   2704   2716     1   110.5600475 386.601600
   2705   2704   2706     1   109.7500473 328.025600
   2706   2704   2716     1   110.5600475 386.601600
   2707   2700   2729     1   110.1100470 384.091200
   2707   2710   2711     1   109.8000471 387.438400
   2707   2710   2712     1   109.8000471 387.438400
   2708   2707   2710     1   110.5600475 386.601600
   2708   2707   2709     1   109.7500473 328.025600
   2709   2707   2710     1   110.5600475 386.601600
   2710   2719   2720     1   109.5600471 388.275200
   2710   2719   2721     1   109.5600471 388.275200
   2711   2710   2719     1   109.8000471 387.438400
   2711   2710   2712     1   107.5800459 329.699200
   2712   2710   2719     1   109.8000471 387.438400
   2713   2725   2726     1   109.5600471 388.275200
   2713   2725   2727     1   109.5600471 388.275200
   2714   2713   2725     1   109.8000471 387.438400
   2714   2713   2715     1   107.5800459 329.699200
   2715   2713   2725     1   109.8000471 387.438400
   2716   2722   2723     1   109.5600471 388.275200
   2716   2722   2724     1   109.5600471 388.275200
   2717   2716   2722     1   109.8000471 387.438400
   2717   2716   2718     1   107.5800459 329.699200
   2718   2716   2722     1   109.8000471 387.438400
   2720   2719   2728     1   109.7800468 425.094400
   2720   2719   2721     1   108.4600466 328.025600
   2721   2719   2728     1   109.7800468 425.094400
   2723   2722   4854     1   109.7800468 425.094400
   2723   2722   2724     1   108.4600466 328.025600
   2724   2722   4854     1   109.7800468 425.094400
   2726   2725   4877     1   109.7800468 425.094400
   2726   2725   2727     1   108.4600466 328.025600
   2727   2725   4877     1   109.7800468 425.094400
   2730   2731   2732     1   108.0100461 406.684800
   2730   2731   2733     1   108.0100461 406.684800
   2730   2734   2735     1   108.0100461 406.684800
   2730   2734   2736     1   108.0100461 406.684800
   2730   2737   2738     1   108.0100461 406.684800
   2730   2737   2739     1   108.0100461 406.684800
   2731   2730   2759     1   110.1100470 384.091200
   2731   2743   2744     1   109.8000471 387.438400
   2731   2743   2745     1   109.8000471 387.438400
   2732   2731   2743     1   110.5600475 386.601600
   2732   2731   2733     1   109.7500473 328.025600
   2733   2731   2743     1   110.5600475 386.601600
   2734   2730   2759     1   110.1100470 384.091200
   2734   2746   2747     1   109.8000471 387.438400
   2734   2746   2748     1   109.8000471 387.438400
   2735   2734   2746     1   110.5600475 386.601600
   2735   2734   2736     1   109.7500473 328.025600
   2736   2734   2746     1   110.5600475 386.601600
   2737   2730   2759     1   110.1100470 384.091200
   2737   2740   2741     1   109.8000471 387.438400
   2737   2740   2742     1   109.8000471 387.438400
   2738   2737   2740     1   110.5600475 386.601600
   2738   2737   2739     1   109.7500473 328.025600
   2739   2737   2740     1   110.5600475 386.601600
   2740   2749   2750     1   109.5600471 388.275200
   2740   2749   2751     1   109.5600471 388.275200
   2741   2740   2749     1   109.8000471 387.438400
   2741   2740   2742     1   107.5800459 329.699200
   2742   2740   2749     1   109.8000471 387.438400
   2743   2755   2756     1   109.5600471 388.275200
   2743   2755   2757     1   109.5600471 388.275200
   2744   2743   2755     1   109.8000471 387.438400
   2744   2743   2745     1   107.5800459 329.699200
   2745   2743   2755     1   109.8000471 387.438400
   2746   2752   2753     1   109.5600471 388.275200
   2746   2752   2754     1   109.5600471 388.275200
   2747   2746   2752     1   109.8000471 387.438400
   2747   2746   2748     1   107.5800459 329.699200
   2748   2746   2752     1   109.8000471 387.438400
   2750   2749   2758     1   109.7800468 425.094400
   2750   2749   2751     1   108.4600466 328.025600
   2751   2749   2758     1   109.7800468 425.094400
   2753   2752   4900     1   109.7800468 425.094400
   2753   2752   2754     1   108.4600466 328.025600
   2754   2752   4900     1   109.7800468 425.094400
   2756   2755   4923     1   109.7800468 425.094400
   2756   2755   2757     1   108.4600466 328.025600
   2757   2755   4923     1   109.7800468 425.094400
   2760   2761   2762     1   108.0100461 406.684800
   2760   2761   2763     1   108.0100461 406.684800
   2760   2764   2765     1   108.0100461 406.684800
   2760   2764   2766     1   108.0100461 406.684800
   2760   2767   2768     1   108.0100461 406.684800
   2760   2767   2769     1   108.0100461 406.684800
   2761   2760   2789     1   110.1100470 384.091200
   2761   2773   2774     1   109.8000471 387.438400
   2761   2773   2775     1   109.8000471 387.438400
   2762   2761   2773     1   110.5600475 386.601600
   2762   2761   2763     1   109.7500473 328.025600
   2763   2761   2773     1   110.5600475 386.601600
   2764   2760   2789     1   110.1100470 384.091200
   2764   2776   2777     1   109.8000471 387.438400
   2764   2776   2778     1   109.8000471 387.438400
   2765   2764   2776     1   110.5600475 386.601600
   2765   2764   2766     1   109.7500473 328.025600
   2766   2764   2776     1   110.5600475 386.601600
   2767   2760   2789     1   110.1100470 384.091200
   2767   2770   2771     1   109.8000471 387.438400
   2767   2770   2772     1   109.8000471 387.438400
   2768   2767   2770     1   110.5600475 386.601600
   2768   2767   2769     1   109.7500473 328.025600
   2769   2767   2770     1   110.5600475 386.601600
   2770   2779   2780     1   109.5600471 388.275200
   2770   2779   2781     1   109.5600471 388.275200
   2771   2770   2779     1   109.8000471 387.438400
   2771   2770   2772     1   107.5800459 329.699200
   2772   2770   2779     1   109.8000471 387.438400
   2773   2785   2786     1   109.5600471 388.275200
   2773   2785   2787     1   109.5600471 388.275200
   2774   2773   2785     1   109.8000471 387.438400
   2774   2773   2775     1   107.5800459 329.699200
   2775   2773   2785     1   109.8000471 387.438400
   2776   2782   2783     1   109.5600471 388.275200
   2776   2782   2784     1   109.5600471 388.275200
   2777   2776   2782     1   109.8000471 387.438400
   2777   2776   2778     1   107.5800459 329.699200
   2778   2776   2782     1   109.8000471 387.438400
   2780   2779   2788     1   109.7800468 425.094400
   2780   2779   2781     1   108.4600466 328.025600
   2781   2779   2788     1   109.7800468 425.094400
   2783   2782   4946     1   109.7800468 425.094400
   2783   2782   2784     1   108.4600466 328.025600
   2784   2782   4946     1   109.7800468 425.094400
   2786   2785   4969     1   109.7800468 425.094400
   2786   2785   2787     1   108.4600466 328.025600
   2787   2785   4969     1   109.7800468 425.094400
   2790   2791   2792     1   108.0100461 406.684800
   2790   2791   2793     1   108.0100461 406.684800
   2790   2794   2795     1   108.0100461 406.684800
   2790   2794   2796     1   108.0100461 406.684800
   2790   2797   2798     1   108.0100461 406.684800
   2790   2797   2799     1   108.0100461 406.684800
   2791   2790   2819     1   110.1100470 384.091200
   2791   2803   2804     1   109.8000471 387.438400
   2791   2803   2805     1   109.8000471 387.438400
   2792   2791   2803     1   110.5600475 386.601600
   2792   2791   2793     1   109.7500473 328.025600
   2793   2791   2803     1   110.5600475 386.601600
   2794   2790   2819     1   110.1100470 384.091200
   2794   2806   2807     1   109.8000471 387.438400
   2794   2806   2808     1   109.8000471 387.438400
   2795   2794   2806     1   110.5600475 386.601600
   2795   2794   2796     1   109.7500473 328.025600
   2796   2794   2806     1   110.5600475 386.601600
   2797   2790   2819     1   110.1100470 384.091200
   2797   2800   2801     1   109.8000471 387.438400
   2797   2800   2802     1   109.8000471 387.438400
   2798   2797   2800     1   110.5600475 386.601600
   2798   2797   2799     1   109.7500473 328.025600
   2799   2797   2800     1   110.5600475 386.601600
   2800   2809   2810     1   109.5600471 388.275200
   2800   2809   2811     1   109.5600471 388.275200
   2801   2800   2809     1   109.8000471 387.438400
   2801   2800   2802     1   107.5800459 329.699200
   2802   2800   2809     1   109.8000471 387.438400
   2803   2815   2816     1   109.5600471 388.275200
   2803   2815   2817     1   109.5600471 388.275200
   2804   2803   2815     1   109.8000471 387.438400
   2804   2803   2805     1   107.5800459 329.699200
   2805   2803   2815     1   109.8000471 387.438400
   2806   2812   2813     1   109.5600471 388.275200
   2806   2812   2814     1   109.5600471 388.275200
   2807   2806   2812     1   109.8000471 387.438400
   2807   2806   2808     1   107.5800459 329.699200
   2808   2806   2812     1   109.8000471 387.438400
   2810   2809   2818     1   109.7800468 425.094400
   2810   2809   2811     1   108.4600466 328.025600
   2811   2809   2818     1   109.7800468 425.094400
   2813   2812   4992     1   109.7800468 425.094400
   2813   2812   2814     1   108.4600466 328.025600
   2814   2812   4992     1   109.7800468 425.094400
   2816   2815   5015     1   109.7800468 425.094400
   2816   2815   2817     1   108.4600466 328.025600
   2817   2815   5015     1   109.7800468 425.094400
   2820   2821   2823     1   109.5600471 388.275200
   2820   2834   2838     1   109.5600471 388.275200
   2820   2834   2839     1   109.5600471 388.275200
   2821   2820   2822     1   109.5600471 388.275200
   2821   2824   2828     1   109.5600471 388.275200
   2821   2833   2836     1   107.2600461 396.643200
   2822   2820   2834     1   109.5600471 388.275200
   2822   2820   2842     1   109.7800468 425.094400
   2823   2821   2824     1   109.5600471 388.275200
   2823   2821   2833     1   110.2600474 425.931200
   2824   2825   2827     1   109.5600471 388.275200
   2824   2832   2835     1   107.2600461 396.643200
   2825   2824   2828     1   109.5600471 388.275200
   2825   2826   2829     1   110.2200475 386.601600
   2825   2831   2837     1   107.2600461 396.643200
   2826   2825   2827     1   109.5600471 388.275200
   2827   2825   2831     1   110.2600474 425.931200
   2828   2824   2832     1   110.2600474 425.931200
   2829   2826   2830     1   109.5800467 425.931200
   2829   2826   2842     1   109.5800467 425.931200
   2834   2840   2841     1   107.2600461 396.643200
   2838   2834   2840     1   110.2600474 425.931200
   2838   2834   2839     1   108.4600466 328.025600
   2839   2834   2840     1   110.2600474 425.931200
   2843   2844   2846     1   109.5600471 388.275200
   2843   2857   2861     1   109.5600471 388.275200
   2843   2857   2862     1   109.5600471 388.275200
   2844   2847   2851     1   109.5600471 388.275200
   2844   2856   2859     1   107.2600461 396.643200
   2844   2843   2845     1   109.5600471 388.275200
   2845   2843   2857     1   109.5600471 388.275200
   2845   2843   2865     1   109.7800468 425.094400
   2846   2844   2847     1   109.5600471 388.275200
   2846   2844   2856     1   110.2600474 425.931200
   2847   2848   2850     1   109.5600471 388.275200
   2847   2855   2858     1   107.2600461 396.643200
   2848   2849   2852     1   110.2200475 386.601600
   2848   2854   2860     1   107.2600461 396.643200
   2848   2847   2851     1   109.5600471 388.275200
   2849   2848   2850     1   109.5600471 388.275200
   2850   2848   2854     1   110.2600474 425.931200
   2851   2847   2855     1   110.2600474 425.931200
   2852   2849   2853     1   109.5800467 425.931200
   2852   2849   2865     1   109.5800467 425.931200
   2857   2863   2864     1   107.2600461 396.643200
   2861   2857   2863     1   110.2600474 425.931200
   2861   2857   2862     1   108.4600466 328.025600
   2862   2857   2863     1   110.2600474 425.931200
   2866   2867   2869     1   109.5600471 388.275200
   2866   2880   2884     1   109.5600471 388.275200
   2866   2880   2885     1   109.5600471 388.275200
   2867   2866   2868     1   109.5600471 388.275200
   2867   2870   2874     1   109.5600471 388.275200
   2867   2879   2882     1   107.2600461 396.643200
   2868   2866   2880     1   109.5600471 388.275200
   2868   2866   2888     1   109.7800468 425.094400
   2869   2867   2870     1   109.5600471 388.275200
   2869   2867   2879     1   110.2600474 425.931200
   2870   2871   2873     1   109.5600471 388.275200
   2870   2878   2881     1   107.2600461 396.643200
   2871   2870   2874     1   109.5600471 388.275200
   2871   2872   2875     1   110.2200475 386.601600
   2871   2877   2883     1   107.2600461 396.643200
   2872   2871   2873     1   109.5600471 388.275200
   2873   2871   2877     1   110.2600474 425.931200
   2874   2870   2878     1   110.2600474 425.931200
   2875   2872   2876     1   109.5800467 425.931200
   2875   2872   2888     1   109.5800467 425.931200
   2880   2886   2887     1   107.2600461 396.643200
   2884   2880   2886     1   110.2600474 425.931200
   2884   2880   2885     1   108.4600466 328.025600
   2885   2880   2886     1   110.2600474 425.931200
   2889   2890   2892     1   109.5600471 388.275200
   2889   2903   2907     1   109.5600471 388.275200
   2889   2903   2908     1   109.5600471 388.275200
   2890   2893   2897     1   109.5600471 388.275200
   2890   2902   2905     1   107.2600461 396.643200
   2890   2889   2891     1   109.5600471 388.275200
   2891   2889   2903     1   109.5600471 388.275200
   2891   2889   2911     1   109.7800468 425.094400
   2892   2890   2893     1   109.5600471 388.275200
   2892   2890   2902     1   110.2600474 425.931200
   2893   2894   2896     1   109.5600471 388.275200
   2893   2901   2904     1   107.2600461 396.643200
   2894   2895   2898     1   110.2200475 386.601600
   2894   2900   2906     1   107.2600461 396.643200
   2894   2893   2897     1   109.5600471 388.275200
   2895   2894   2896     1   109.5600471 388.275200
   2896   2894   2900     1   110.2600474 425.931200
   2897   2893   2901     1   110.2600474 425.931200
   2898   2895   2899     1   109.5800467 425.931200
   2898   2895   2911     1   109.5800467 425.931200
   2903   2909   2910     1   107.2600461 396.643200
   2907   2903   2909     1   110.2600474 425.931200
   2907   2903   2908     1   108.4600466 328.025600
   2908   2903   2909     1   110.2600474 425.931200
   2912   2913   2915     1   109.5600471 388.275200
   2912   2926   2930     1   109.5600471 388.275200
   2912   2926   2931     1   109.5600471 388.275200
   2913   2912   2914     1   109.5600471 388.275200
   2913   2916   2920     1   109.5600471 388.275200
   2913   2925   2928     1   107.2600461 396.643200
   2914   2912   2926     1   109.5600471 388.275200
   2914   2912   2934     1   109.7800468 425.094400
   2915   2913   2916     1   109.5600471 388.275200
   2915   2913   2925     1   110.2600474 425.931200
   2916   2917   2919     1   109.5600471 388.275200
   2916   2924   2927     1   107.2600461 396.643200
   2917   2916   2920     1   109.5600471 388.275200
   2917   2918   2921     1   110.2200475 386.601600
   2917   2923   2929     1   107.2600461 396.643200
   2918   2917   2919     1   109.5600471 388.275200
   2919   2917   2923     1   110.2600474 425.931200
   2920   2916   2924     1   110.2600474 425.931200
   2921   2918   2922     1   109.5800467 425.931200
   2921   2918   2934     1   109.5800467 425.931200
   2926   2932   2933     1   107.2600461 396.643200
   2930   2926   2932     1   110.2600474 425.931200
   2930   2926   2931     1   108.4600466 328.025600
   2931   2926   2932     1   110.2600474 425.931200
   2935   2936   2938     1   109.5600471 388.275200
   2935   2949   2953     1   109.5600471 388.275200
   2935   2949   2954     1   109.5600471 388.275200
   2936   2939   2943     1   109.5600471 388.275200
   2936   2948   2951     1   107.2600461 396.643200
   2936   2935   2937     1   109.5600471 388.275200
   2937   2935   2949     1   109.5600471 388.275200
   2937   2935   2957     1   109.7800468 425.094400
   2938   2936   2939     1   109.5600471 388.275200
   2938   2936   2948     1   110.2600474 425.931200
   2939   2940   2942     1   109.5600471 388.275200
   2939   2947   2950     1   107.2600461 396.643200
   2940   2941   2944     1   110.2200475 386.601600
   2940   2946   2952     1   107.2600461 396.643200
   2940   2939   2943     1   109.5600471 388.275200
   2941   2940   2942     1   109.5600471 388.275200
   2942   2940   2946     1   110.2600474 425.931200
   2943   2939   2947     1   110.2600474 425.931200
   2944   2941   2945     1   109.5800467 425.931200
   2944   2941   2957     1   109.5800467 425.931200
   2949   2955   2956     1   107.2600461 396.643200
   2953   2949   2955     1   110.2600474 425.931200
   2953   2949   2954     1   108.4600466 328.025600
   2954   2949   2955     1   110.2600474 425.931200
   2958   2959   2961     1   109.5600471 388.275200
   2958   2972   2976     1   109.5600471 388.275200
   2958   2972   2977     1   109.5600471 388.275200
   2959   2958   2960     1   109.5600471 388.275200
   2959   2962   2966     1   109.5600471 388.275200
   2959   2971   2974     1   107.2600461 396.643200
   2960   2958   2972     1   109.5600471 388.275200
   2960   2958   2980     1   109.7800468 425.094400
   2961   2959   2962     1   109.5600471 388.275200
   2961   2959   2971     1   110.2600474 425.931200
   2962   2963   2965     1   109.5600471 388.275200
   2962   2970   2973     1   107.2600461 396.643200
   2963   2962   2966     1   109.5600471 388.275200
   2963   2964   2967     1   110.2200475 386.601600
   2963   2969   2975     1   107.2600461 396.643200
   2964   2963   2965     1   109.5600471 388.275200
   2965   2963   2969     1   110.2600474 425.931200
   2966   2962   2970     1   110.2600474 425.931200
   2967   2964   2968     1   109.5800467 425.931200
   2967   2964   2980     1   109.5800467 425.931200
   2972   2978   2979     1   107.2600461 396.643200
   2976   2972   2978     1   110.2600474 425.931200
   2976   2972   2977     1   108.4600466 328.025600
   2977   2972   2978     1   110.2600474 425.931200
   2981   2982   2984     1   109.5600471 388.275200
   2981   2995   2999     1   109.5600471 388.275200
   2981   2995   3000     1   109.5600471 388.275200
   2982   2985   2989     1   109.5600471 388.275200
   2982   2994   2997     1   107.2600461 396.643200
   2982   2981   2983     1   109.5600471 388.275200
   2983   2981   2995     1   109.5600471 388.275200
   2983   2981   3003     1   109.7800468 425.094400
   2984   2982   2985     1   109.5600471 388.275200
   2984   2982   2994     1   110.2600474 425.931200
   2985   2986   2988     1   109.5600471 388.275200
   2985   2993   2996     1   107.2600461 396.643200
   2986   2987   2990     1   110.2200475 386.601600
   2986   2992   2998     1   107.2600461 396.643200
   2986   2985   2989     1   109.5600471 388.275200
   2987   2986   2988     1   109.5600471 388.275200
   2988   2986   2992     1   110.2600474 425.931200
   2989   2985   2993     1   110.2600474 425.931200
   2990   2987   2991     1   109.5800467 425.931200
   2990   2987   3003     1   109.5800467 425.931200
   2995   3001   3002     1   107.2600461 396.643200
   2999   2995   3001     1   110.2600474 425.931200
   2999   2995   3000     1   108.4600466 328.025600
   3000   2995   3001     1   110.2600474 425.931200
   3004   3005   3007     1   109.5600471 388.275200
   3004   3018   3022     1   109.5600471 388.275200
   3004   3018   3023     1   109.5600471 388.275200
   3005   3004   3006     1   109.5600471 388.275200
   3005   3008   3012     1   109.5600471 388.275200
   3005   3017   3020     1   107.2600461 396.643200
   3006   3004   3018     1   109.5600471 388.275200
   3006   3004   3026     1   109.7800468 425.094400
   3007   3005   3008     1   109.5600471 388.275200
   3007   3005   3017     1   110.2600474 425.931200
   3008   3009   3011     1   109.5600471 388.275200
   3008   3016   3019     1   107.2600461 396.643200
   3009   3008   3012     1   109.5600471 388.275200
   3009   3010   3013     1   110.2200475 386.601600
   3009   3015   3021     1   107.2600461 396.643200
   3010   3009   3011     1   109.5600471 388.275200
   3011   3009   3015     1   110.2600474 425.931200
   3012   3008   3016     1   110.2600474 425.931200
   3013   3010   3014     1   109.5800467 425.931200
   3013   3010   3026     1   109.5800467 425.931200
   3018   3024   3025     1   107.2600461 396.643200
   3022   3018   3024     1   110.2600474 425.931200
   3022   3018   3023     1   108.4600466 328.025600
   3023   3018   3024     1   110.2600474 425.931200
   3027   3028   3030     1   109.5600471 388.275200
   3027   3041   3045     1   109.5600471 388.275200
   3027   3041   3046     1   109.5600471 388.275200
   3028   3031   3035     1   109.5600471 388.275200
   3028   3040   3043     1   107.2600461 396.643200
   3028   3027   3029     1   109.5600471 388.275200
   3029   3027   3041     1   109.5600471 388.275200
   3029   3027   3049     1   109.7800468 425.094400
   3030   3028   3031     1   109.5600471 388.275200
   3030   3028   3040     1   110.2600474 425.931200
   3031   3032   3034     1   109.5600471 388.275200
   3031   3039   3042     1   107.2600461 396.643200
   3032   3033   3036     1   110.2200475 386.601600
   3032   3038   3044     1   107.2600461 396.643200
   3032   3031   3035     1   109.5600471 388.275200
   3033   3032   3034     1   109.5600471 388.275200
   3034   3032   3038     1   110.2600474 425.931200
   3035   3031   3039     1   110.2600474 425.931200
   3036   3033   3037     1   109.5800467 425.931200
   3036   3033   3049     1   109.5800467 425.931200
   3041   3047   3048     1   107.2600461 396.643200
   3045   3041   3047     1   110.2600474 425.931200
   3045   3041   3046     1   108.4600466 328.025600
   3046   3041   3047     1   110.2600474 425.931200
   3050   3051   3053     1   109.5600471 388.275200
   3050   3064   3068     1   109.5600471 388.275200
   3050   3064   3069     1   109.5600471 388.275200
   3051   3050   3052     1   109.5600471 388.275200
   3051   3054   3058     1   109.5600471 388.275200
   3051   3063   3066     1   107.2600461 396.643200
   3052   3050   3064     1   109.5600471 388.275200
   3052   3050   3072     1   109.7800468 425.094400
   3053   3051   3054     1   109.5600471 388.275200
   3053   3051   3063     1   110.2600474 425.931200
   3054   3055   3057     1   109.5600471 388.275200
   3054   3062   3065     1   107.2600461 396.643200
   3055   3054   3058     1   109.5600471 388.275200
   3055   3056   3059     1   110.2200475 386.601600
   3055   3061   3067     1   107.2600461 396.643200
   3056   3055   3057     1   109.5600471 388.275200
   3057   3055   3061     1   110.2600474 425.931200
   3058   3054   3062     1   110.2600474 425.931200
   3059   3056   3060     1   109.5800467 425.931200
   3059   3056   3072     1   109.5800467 425.931200
   3064   3070   3071     1   107.2600461 396.643200
   3068   3064   3070     1   110.2600474 425.931200
   3068   3064   3069     1   108.4600466 328.025600
   3069   3064   3070     1   110.2600474 425.931200
   3073   3074   3076     1   109.5600471 388.275200
   3073   3087   3091     1   109.5600471 388.275200
   3073   3087   3092     1   109.5600471 388.275200
   3074   3077   3081     1   109.5600471 388.275200
   3074   3086   3089     1   107.2600461 396.643200
   3074   3073   3075     1   109.5600471 388.275200
   3075   3073   3087     1   109.5600471 388.275200
   3075   3073   3095     1   109.7800468 425.094400
   3076   3074   3077     1   109.5600471 388.275200
   3076   3074   3086     1   110.2600474 425.931200
   3077   3078   3080     1   109.5600471 388.275200
   3077   3085   3088     1   107.2600461 396.643200
   3078   3079   3082     1   110.2200475 386.601600
   3078   3084   3090     1   107.2600461 396.643200
   3078   3077   3081     1   109.5600471 388.275200
   3079   3078   3080     1   109.5600471 388.275200
   3080   3078   3084     1   110.2600474 425.931200
   3081   3077   3085     1   110.2600474 425.931200
   3082   3079   3083     1   109.5800467 425.931200
   3082   3079   3095     1   109.5800467 425.931200
   3087   3093   3094     1   107.2600461 396.643200
   3091   3087   3093     1   110.2600474 425.931200
   3091   3087   3092     1   108.4600466 328.025600
   3092   3087   3093     1   110.2600474 425.931200
   3096   3097   3099     1   109.5600471 388.275200
   3096   3110   3114     1   109.5600471 388.275200
   3096   3110   3115     1   109.5600471 388.275200
   3097   3096   3098     1   109.5600471 388.275200
   3097   3100   3104     1   109.5600471 388.275200
   3097   3109   3112     1   107.2600461 396.643200
   3098   3096   3110     1   109.5600471 388.275200
   3098   3096   3118     1   109.7800468 425.094400
   3099   3097   3100     1   109.5600471 388.275200
   3099   3097   3109     1   110.2600474 425.931200
   3100   3101   3103     1   109.5600471 388.275200
   3100   3108   3111     1   107.2600461 396.643200
   3101   3100   3104     1   109.5600471 388.275200
   3101   3102   3105     1   110.2200475 386.601600
   3101   3107   3113     1   107.2600461 396.643200
   3102   3101   3103     1   109.5600471 388.275200
   3103   3101   3107     1   110.2600474 425.931200
   3104   3100   3108     1   110.2600474 425.931200
   3105   3102   3106     1   109.5800467 425.931200
   3105   3102   3118     1   109.5800467 425.931200
   3110   3116   3117     1   107.2600461 396.643200
   3114   3110   3116     1   110.2600474 425.931200
   3114   3110   3115     1   108.4600466 328.025600
   3115   3110   3116     1   110.2600474 425.931200
   3119   3120   3122     1   109.5600471 388.275200
   3119   3133   3137     1   109.5600471 388.275200
   3119   3133   3138     1   109.5600471 388.275200
   3120   3123   3127     1   109.5600471 388.275200
   3120   3132   3135     1   107.2600461 396.643200
   3120   3119   3121     1   109.5600471 388.275200
   3121   3119   3133     1   109.5600471 388.275200
   3121   3119   3141     1   109.7800468 425.094400
   3122   3120   3123     1   109.5600471 388.275200
   3122   3120   3132     1   110.2600474 425.931200
   3123   3124   3126     1   109.5600471 388.275200
   3123   3131   3134     1   107.2600461 396.643200
   3124   3125   3128     1   110.2200475 386.601600
   3124   3130   3136     1   107.2600461 396.643200
   3124   3123   3127     1   109.5600471 388.275200
   3125   3124   3126     1   109.5600471 388.275200
   3126   3124   3130     1   110.2600474 425.931200
   3127   3123   3131     1   110.2600474 425.931200
   3128   3125   3129     1   109.5800467 425.931200
   3128   3125   3141     1   109.5800467 425.931200
   3133   3139   3140     1   107.2600461 396.643200
   3137   3133   3139     1   110.2600474 425.931200
   3137   3133   3138     1   108.4600466 328.025600
   3138   3133   3139     1   110.2600474 425.931200
   3142   3143   3145     1   109.5600471 388.275200
   3142   3156   3160     1   109.5600471 388.275200
   3142   3156   3161     1   109.5600471 388.275200
   3143   3142   3144     1   109.5600471 388.275200
   3143   3146   3150     1   109.5600471 388.275200
   3143   3155   3158     1   107.2600461 396.643200
   3144   3142   3156     1   109.5600471 388.275200
   3144   3142   3164     1   109.7800468 425.094400
   3145   3143   3146     1   109.5600471 388.275200
   3145   3143   3155     1   110.2600474 425.931200
   3146   3147   3149     1   109.5600471 388.275200
   3146   3154   3157     1   107.2600461 396.643200
   3147   3146   3150     1   109.5600471 388.275200
   3147   3148   3151     1   110.2200475 386.601600
   3147   3153   3159     1   107.2600461 396.643200
   3148   3147   3149     1   109.5600471 388.275200
   3149   3147   3153     1   110.2600474 425.931200
   3150   3146   3154     1   110.2600474 425.931200
   3151   3148   3152     1   109.5800467 425.931200
   3151   3148   3164     1   109.5800467 425.931200
   3156   3162   3163     1   107.2600461 396.643200
   3160   3156   3162     1   110.2600474 425.931200
   3160   3156   3161     1   108.4600466 328.025600
   3161   3156   3162     1   110.2600474 425.931200
   3165   3166   3168     1   109.5600471 388.275200
   3165   3179   3183     1   109.5600471 388.275200
   3165   3179   3184     1   109.5600471 388.275200
   3166   3169   3173     1   109.5600471 388.275200
   3166   3178   3181     1   107.2600461 396.643200
   3166   3165   3167     1   109.5600471 388.275200
   3167   3165   3179     1   109.5600471 388.275200
   3167   3165   3187     1   109.7800468 425.094400
   3168   3166   3169     1   109.5600471 388.275200
   3168   3166   3178     1   110.2600474 425.931200
   3169   3170   3172     1   109.5600471 388.275200
   3169   3177   3180     1   107.2600461 396.643200
   3170   3171   3174     1   110.2200475 386.601600
   3170   3176   3182     1   107.2600461 396.643200
   3170   3169   3173     1   109.5600471 388.275200
   3171   3170   3172     1   109.5600471 388.275200
   3172   3170   3176     1   110.2600474 425.931200
   3173   3169   3177     1   110.2600474 425.931200
   3174   3171   3175     1   109.5800467 425.931200
   3174   3171   3187     1   109.5800467 425.931200
   3179   3185   3186     1   107.2600461 396.643200
   3183   3179   3185     1   110.2600474 425.931200
   3183   3179   3184     1   108.4600466 328.025600
   3184   3179   3185     1   110.2600474 425.931200
   3188   3189   3191     1   109.5600471 388.275200
   3188   3202   3206     1   109.5600471 388.275200
   3188   3202   3207     1   109.5600471 388.275200
   3189   3188   3190     1   109.5600471 388.275200
   3189   3192   3196     1   109.5600471 388.275200
   3189   3201   3204     1   107.2600461 396.643200
   3190   3188   3202     1   109.5600471 388.275200
   3190   3188   3210     1   109.7800468 425.094400
   3191   3189   3192     1   109.5600471 388.275200
   3191   3189   3201     1   110.2600474 425.931200
   3192   3193   3195     1   109.5600471 388.275200
   3192   3200   3203     1   107.2600461 396.643200
   3193   3192   3196     1   109.5600471 388.275200
   3193   3194   3197     1   110.2200475 386.601600
   3193   3199   3205     1   107.2600461 396.643200
   3194   3193   3195     1   109.5600471 388.275200
   3195   3193   3199     1   110.2600474 425.931200
   3196   3192   3200     1   110.2600474 425.931200
   3197   3194   3198     1   109.5800467 425.931200
   3197   3194   3210     1   109.5800467 425.931200
   3202   3208   3209     1   107.2600461 396.643200
   3206   3202   3208     1   110.2600474 425.931200
   3206   3202   3207     1   108.4600466 328.025600
   3207   3202   3208     1   110.2600474 425.931200
   3211   3212   3214     1   109.5600471 388.275200
   3211   3225   3229     1   109.5600471 388.275200
   3211   3225   3230     1   109.5600471 388.275200
   3212   3215   3219     1   109.5600471 388.275200
   3212   3224   3227     1   107.2600461 396.643200
   3212   3211   3213     1   109.5600471 388.275200
   3213   3211   3225     1   109.5600471 388.275200
   3213   3211   3233     1   109.7800468 425.094400
   3214   3212   3215     1   109.5600471 388.275200
   3214   3212   3224     1   110.2600474 425.931200
   3215   3216   3218     1   109.5600471 388.275200
   3215   3223   3226     1   107.2600461 396.643200
   3216   3217   3220     1   110.2200475 386.601600
   3216   3222   3228     1   107.2600461 396.643200
   3216   3215   3219     1   109.5600471 388.275200
   3217   3216   3218     1   109.5600471 388.275200
   3218   3216   3222     1   110.2600474 425.931200
   3219   3215   3223     1   110.2600474 425.931200
   3220   3217   3221     1   109.5800467 425.931200
   3220   3217   3233     1   109.5800467 425.931200
   3225   3231   3232     1   107.2600461 396.643200
   3229   3225   3231     1   110.2600474 425.931200
   3229   3225   3230     1   108.4600466 328.025600
   3230   3225   3231     1   110.2600474 425.931200
   3234   3235   3237     1   109.5600471 388.275200
   3234   3248   3252     1   109.5600471 388.275200
   3234   3248   3253     1   109.5600471 388.275200
   3235   3234   3236     1   109.5600471 388.275200
   3235   3238   3242     1   109.5600471 388.275200
   3235   3247   3250     1   107.2600461 396.643200
   3236   3234   3248     1   109.5600471 388.275200
   3236   3234   3256     1   109.7800468 425.094400
   3237   3235   3238     1   109.5600471 388.275200
   3237   3235   3247     1   110.2600474 425.931200
   3238   3239   3241     1   109.5600471 388.275200
   3238   3246   3249     1   107.2600461 396.643200
   3239   3238   3242     1   109.5600471 388.275200
   3239   3240   3243     1   110.2200475 386.601600
   3239   3245   3251     1   107.2600461 396.643200
   3240   3239   3241     1   109.5600471 388.275200
   3241   3239   3245     1   110.2600474 425.931200
   3242   3238   3246     1   110.2600474 425.931200
   3243   3240   3244     1   109.5800467 425.931200
   3243   3240   3256     1   109.5800467 425.931200
   3248   3254   3255     1   107.2600461 396.643200
   3252   3248   3254     1   110.2600474 425.931200
   3252   3248   3253     1   108.4600466 328.025600
   3253   3248   3254     1   110.2600474 425.931200
   3257   3258   3260     1   109.5600471 388.275200
   3257   3271   3275     1   109.5600471 388.275200
   3257   3271   3276     1   109.5600471 388.275200
   3258   3261   3265     1   109.5600471 388.275200
   3258   3270   3273     1   107.2600461 396.643200
   3258   3257   3259     1   109.5600471 388.275200
   3259   3257   3271     1   109.5600471 388.275200
   3259   3257   3279     1   109.7800468 425.094400
   3260   3258   3261     1   109.5600471 388.275200
   3260   3258   3270     1   110.2600474 425.931200
   3261   3262   3264     1   109.5600471 388.275200
   3261   3269   3272     1   107.2600461 396.643200
   3262   3263   3266     1   110.2200475 386.601600
   3262   3268   3274     1   107.2600461 396.643200
   3262   3261   3265     1   109.5600471 388.275200
   3263   3262   3264     1   109.5600471 388.275200
   3264   3262   3268     1   110.2600474 425.931200
   3265   3261   3269     1   110.2600474 425.931200
   3266   3263   3267     1   109.5800467 425.931200
   3266   3263   3279     1   109.5800467 425.931200
   3271   3277   3278     1   107.2600461 396.643200
   3275   3271   3277     1   110.2600474 425.931200
   3275   3271   3276     1   108.4600466 328.025600
   3276   3271   3277     1   110.2600474 425.931200
   3280   3281   3283     1   109.5600471 388.275200
   3280   3294   3298     1   109.5600471 388.275200
   3280   3294   3299     1   109.5600471 388.275200
   3281   3280   3282     1   109.5600471 388.275200
   3281   3284   3288     1   109.5600471 388.275200
   3281   3293   3296     1   107.2600461 396.643200
   3282   3280   3294     1   109.5600471 388.275200
   3282   3280   3302     1   109.7800468 425.094400
   3283   3281   3284     1   109.5600471 388.275200
   3283   3281   3293     1   110.2600474 425.931200
   3284   3285   3287     1   109.5600471 388.275200
   3284   3292   3295     1   107.2600461 396.643200
   3285   3284   3288     1   109.5600471 388.275200
   3285   3286   3289     1   110.2200475 386.601600
   3285   3291   3297     1   107.2600461 396.643200
   3286   3285   3287     1   109.5600471 388.275200
   3287   3285   3291     1   110.2600474 425.931200
   3288   3284   3292     1   110.2600474 425.931200
   3289   3286   3290     1   109.5800467 425.931200
   3289   3286   3302     1   109.5800467 425.931200
   3294   3300   3301     1   107.2600461 396.643200
   3298   3294   3300     1   110.2600474 425.931200
   3298   3294   3299     1   108.4600466 328.025600
   3299   3294   3300     1   110.2600474 425.931200
   3303   3304   3306     1   109.5600471 388.275200
   3303   3317   3321     1   109.5600471 388.275200
   3303   3317   3322     1   109.5600471 388.275200
   3304   3307   3311     1   109.5600471 388.275200
   3304   3316   3319     1   107.2600461 396.643200
   3304   3303   3305     1   109.5600471 388.275200
   3305   3303   3317     1   109.5600471 388.275200
   3305   3303   3325     1   109.7800468 425.094400
   3306   3304   3307     1   109.5600471 388.275200
   3306   3304   3316     1   110.2600474 425.931200
   3307   3308   3310     1   109.5600471 388.275200
   3307   3315   3318     1   107.2600461 396.643200
   3308   3309   3312     1   110.2200475 386.601600
   3308   3314   3320     1   107.2600461 396.643200
   3308   3307   3311     1   109.5600471 388.275200
   3309   3308   3310     1   109.5600471 388.275200
   3310   3308   3314     1   110.2600474 425.931200
   3311   3307   3315     1   110.2600474 425.931200
   3312   3309   3313     1   109.5800467 425.931200
   3312   3309   3325     1   109.5800467 425.931200
   3317   3323   3324     1   107.2600461 396.643200
   3321   3317   3323     1   110.2600474 425.931200
   3321   3317   3322     1   108.4600466 328.025600
   3322   3317   3323     1   110.2600474 425.931200
   3326   3327   3329     1   109.5600471 388.275200
   3326   3340   3344     1   109.5600471 388.275200
   3326   3340   3345     1   109.5600471 388.275200
   3327   3326   3328     1   109.5600471 388.275200
   3327   3330   3334     1   109.5600471 388.275200
   3327   3339   3342     1   107.2600461 396.643200
   3328   3326   3340     1   109.5600471 388.275200
   3328   3326   3348     1   109.7800468 425.094400
   3329   3327   3330     1   109.5600471 388.275200
   3329   3327   3339     1   110.2600474 425.931200
   3330   3331   3333     1   109.5600471 388.275200
   3330   3338   3341     1   107.2600461 396.643200
   3331   3330   3334     1   109.5600471 388.275200
   3331   3332   3335     1   110.2200475 386.601600
   3331   3337   3343     1   107.2600461 396.643200
   3332   3331   3333     1   109.5600471 388.275200
   3333   3331   3337     1   110.2600474 425.931200
   3334   3330   3338     1   110.2600474 425.931200
   3335   3332   3336     1   109.5800467 425.931200
   3335   3332   3348     1   109.5800467 425.931200
   3340   3346   3347     1   107.2600461 396.643200
   3344   3340   3346     1   110.2600474 425.931200
   3344   3340   3345     1   108.4600466 328.025600
   3345   3340   3346     1   110.2600474 425.931200
   3349   3350   3352     1   109.5600471 388.275200
   3349   3363   3367     1   109.5600471 388.275200
   3349   3363   3368     1   109.5600471 388.275200
   3350   3353   3357     1   109.5600471 388.275200
   3350   3362   3365     1   107.2600461 396.643200
   3350   3349   3351     1   109.5600471 388.275200
   3351   3349   3363     1   109.5600471 388.275200
   3351   3349   3371     1   109.7800468 425.094400
   3352   3350   3353     1   109.5600471 388.275200
   3352   3350   3362     1   110.2600474 425.931200
   3353   3354   3356     1   109.5600471 388.275200
   3353   3361   3364     1   107.2600461 396.643200
   3354   3355   3358     1   110.2200475 386.601600
   3354   3360   3366     1   107.2600461 396.643200
   3354   3353   3357     1   109.5600471 388.275200
   3355   3354   3356     1   109.5600471 388.275200
   3356   3354   3360     1   110.2600474 425.931200
   3357   3353   3361     1   110.2600474 425.931200
   3358   3355   3359     1   109.5800467 425.931200
   3358   3355   3371     1   109.5800467 425.931200
   3363   3369   3370     1   107.2600461 396.643200
   3367   3363   3369     1   110.2600474 425.931200
   3367   3363   3368     1   108.4600466 328.025600
   3368   3363   3369     1   110.2600474 425.931200
   3372   3373   3375     1   109.5600471 388.275200
   3372   3386   3390     1   109.5600471 388.275200
   3372   3386   3391     1   109.5600471 388.275200
   3373   3372   3374     1   109.5600471 388.275200
   3373   3376   3380     1   109.5600471 388.275200
   3373   3385   3388     1   107.2600461 396.643200
   3374   3372   3386     1   109.5600471 388.275200
   3374   3372   3394     1   109.7800468 425.094400
   3375   3373   3376     1   109.5600471 388.275200
   3375   3373   3385     1   110.2600474 425.931200
   3376   3377   3379     1   109.5600471 388.275200
   3376   3384   3387     1   107.2600461 396.643200
   3377   3376   3380     1   109.5600471 388.275200
   3377   3378   3381     1   110.2200475 386.601600
   3377   3383   3389     1   107.2600461 396.643200
   3378   3377   3379     1   109.5600471 388.275200
   3379   3377   3383     1   110.2600474 425.931200
   3380   3376   3384     1   110.2600474 425.931200
   3381   3378   3382     1   109.5800467 425.931200
   3381   3378   3394     1   109.5800467 425.931200
   3386   3392   3393     1   107.2600461 396.643200
   3390   3386   3392     1   110.2600474 425.931200
   3390   3386   3391     1   108.4600466 328.025600
   3391   3386   3392     1   110.2600474 425.931200
   3395   3396   3398     1   109.5600471 388.275200
   3395   3409   3413     1   109.5600471 388.275200
   3395   3409   3414     1   109.5600471 388.275200
   3396   3399   3403     1   109.5600471 388.275200
   3396   3408   3411     1   107.2600461 396.643200
   3396   3395   3397     1   109.5600471 388.275200
   3397   3395   3409     1   109.5600471 388.275200
   3397   3395   3417     1   109.7800468 425.094400
   3398   3396   3399     1   109.5600471 388.275200
   3398   3396   3408     1   110.2600474 425.931200
   3399   3400   3402     1   109.5600471 388.275200
   3399   3407   3410     1   107.2600461 396.643200
   3400   3401   3404     1   110.2200475 386.601600
   3400   3406   3412     1   107.2600461 396.643200
   3400   3399   3403     1   109.5600471 388.275200
   3401   3400   3402     1   109.5600471 388.275200
   3402   3400   3406     1   110.2600474 425.931200
   3403   3399   3407     1   110.2600474 425.931200
   3404   3401   3405     1   109.5800467 425.931200
   3404   3401   3417     1   109.5800467 425.931200
   3409   3415   3416     1   107.2600461 396.643200
   3413   3409   3415     1   110.2600474 425.931200
   3413   3409   3414     1   108.4600466 328.025600
   3414   3409   3415     1   110.2600474 425.931200
   3418   3419   3421     1   109.5600471 388.275200
   3418   3432   3436     1   109.5600471 388.275200
   3418   3432   3437     1   109.5600471 388.275200
   3419   3418   3420     1   109.5600471 388.275200
   3419   3422   3426     1   109.5600471 388.275200
   3419   3431   3434     1   107.2600461 396.643200
   3420   3418   3432     1   109.5600471 388.275200
   3420   3418   3440     1   109.7800468 425.094400
   3421   3419   3422     1   109.5600471 388.275200
   3421   3419   3431     1   110.2600474 425.931200
   3422   3423   3425     1   109.5600471 388.275200
   3422   3430   3433     1   107.2600461 396.643200
   3423   3422   3426     1   109.5600471 388.275200
   3423   3424   3427     1   110.2200475 386.601600
   3423   3429   3435     1   107.2600461 396.643200
   3424   3423   3425     1   109.5600471 388.275200
   3425   3423   3429     1   110.2600474 425.931200
   3426   3422   3430     1   110.2600474 425.931200
   3427   3424   3428     1   109.5800467 425.931200
   3427   3424   3440     1   109.5800467 425.931200
   3432   3438   3439     1   107.2600461 396.643200
   3436   3432   3438     1   110.2600474 425.931200
   3436   3432   3437     1   108.4600466 328.025600
   3437   3432   3438     1   110.2600474 425.931200
   3441   3442   3444     1   109.5600471 388.275200
   3441   3455   3459     1   109.5600471 388.275200
   3441   3455   3460     1   109.5600471 388.275200
   3442   3445   3449     1   109.5600471 388.275200
   3442   3454   3457     1   107.2600461 396.643200
   3442   3441   3443     1   109.5600471 388.275200
   3443   3441   3455     1   109.5600471 388.275200
   3443   3441   3463     1   109.7800468 425.094400
   3444   3442   3445     1   109.5600471 388.275200
   3444   3442   3454     1   110.2600474 425.931200
   3445   3446   3448     1   109.5600471 388.275200
   3445   3453   3456     1   107.2600461 396.643200
   3446   3447   3450     1   110.2200475 386.601600
   3446   3452   3458     1   107.2600461 396.643200
   3446   3445   3449     1   109.5600471 388.275200
   3447   3446   3448     1   109.5600471 388.275200
   3448   3446   3452     1   110.2600474 425.931200
   3449   3445   3453     1   110.2600474 425.931200
   3450   3447   3451     1   109.5800467 425.931200
   3450   3447   3463     1   109.5800467 425.931200
   3455   3461   3462     1   107.2600461 396.643200
   3459   3455   3461     1   110.2600474 425.931200
   3459   3455   3460     1   108.4600466 328.025600
   3460   3455   3461     1   110.2600474 425.931200
   3464   3465   3467     1   109.5600471 388.275200
   3464   3478   3482     1   109.5600471 388.275200
   3464   3478   3483     1   109.5600471 388.275200
   3465   3464   3466     1   109.5600471 388.275200
   3465   3468   3472     1   109.5600471 388.275200
   3465   3477   3480     1   107.2600461 396.643200
   3466   3464   3478     1   109.5600471 388.275200
   3466   3464   3486     1   109.7800468 425.094400
   3467   3465   3468     1   109.5600471 388.275200
   3467   3465   3477     1   110.2600474 425.931200
   3468   3469   3471     1   109.5600471 388.275200
   3468   3476   3479     1   107.2600461 396.643200
   3469   3468   3472     1   109.5600471 388.275200
   3469   3470   3473     1   110.2200475 386.601600
   3469   3475   3481     1   107.2600461 396.643200
   3470   3469   3471     1   109.5600471 388.275200
   3471   3469   3475     1   110.2600474 425.931200
   3472   3468   3476     1   110.2600474 425.931200
   3473   3470   3474     1   109.5800467 425.931200
   3473   3470   3486     1   109.5800467 425.931200
   3478   3484   3485     1   107.2600461 396.643200
   3482   3478   3484     1   110.2600474 425.931200
   3482   3478   3483     1   108.4600466 328.025600
   3483   3478   3484     1   110.2600474 425.931200
   3487   3488   3490     1   109.5600471 388.275200
   3487   3501   3505     1   109.5600471 388.275200
   3487   3501   3506     1   109.5600471 388.275200
   3488   3491   3495     1   109.5600471 388.275200
   3488   3500   3503     1   107.2600461 396.643200
   3488   3487   3489     1   109.5600471 388.275200
   3489   3487   3501     1   109.5600471 388.275200
   3489   3487   3509     1   109.7800468 425.094400
   3490   3488   3491     1   109.5600471 388.275200
   3490   3488   3500     1   110.2600474 425.931200
   3491   3492   3494     1   109.5600471 388.275200
   3491   3499   3502     1   107.2600461 396.643200
   3492   3493   3496     1   110.2200475 386.601600
   3492   3498   3504     1   107.2600461 396.643200
   3492   3491   3495     1   109.5600471 388.275200
   3493   3492   3494     1   109.5600471 388.275200
   3494   3492   3498     1   110.2600474 425.931200
   3495   3491   3499     1   110.2600474 425.931200
   3496   3493   3497     1   109.5800467 425.931200
   3496   3493   3509     1   109.5800467 425.931200
   3501   3507   3508     1   107.2600461 396.643200
   3505   3501   3507     1   110.2600474 425.931200
   3505   3501   3506     1   108.4600466 328.025600
   3506   3501   3507     1   110.2600474 425.931200
   3510   3511   3513     1   109.5600471 388.275200
   3510   3524   3528     1   109.5600471 388.275200
   3510   3524   3529     1   109.5600471 388.275200
   3511   3510   3512     1   109.5600471 388.275200
   3511   3514   3518     1   109.5600471 388.275200
   3511   3523   3526     1   107.2600461 396.643200
   3512   3510   3524     1   109.5600471 388.275200
   3512   3510   3532     1   109.7800468 425.094400
   3513   3511   3514     1   109.5600471 388.275200
   3513   3511   3523     1   110.2600474 425.931200
   3514   3515   3517     1   109.5600471 388.275200
   3514   3522   3525     1   107.2600461 396.643200
   3515   3514   3518     1   109.5600471 388.275200
   3515   3516   3519     1   110.2200475 386.601600
   3515   3521   3527     1   107.2600461 396.643200
   3516   3515   3517     1   109.5600471 388.275200
   3517   3515   3521     1   110.2600474 425.931200
   3518   3514   3522     1   110.2600474 425.931200
   3519   3516   3520     1   109.5800467 425.931200
   3519   3516   3532     1   109.5800467 425.931200
   3524   3530   3531     1   107.2600461 396.643200
   3528   3524   3530     1   110.2600474 425.931200
   3528   3524   3529     1   108.4600466 328.025600
   3529   3524   3530     1   110.2600474 425.931200
   3533   3534   3536     1   109.5600471 388.275200
   3533   3547   3551     1   109.5600471 388.275200
   3533   3547   3552     1   109.5600471 388.275200
   3534   3537   3541     1   109.5600471 388.275200
   3534   3546   3549     1   107.2600461 396.643200
   3534   3533   3535     1   109.5600471 388.275200
   3535   3533   3547     1   109.5600471 388.275200
   3535   3533   3555     1   109.7800468 425.094400
   3536   3534   3537     1   109.5600471 388.275200
   3536   3534   3546     1   110.2600474 425.931200
   3537   3538   3540     1   109.5600471 388.275200
   3537   3545   3548     1   107.2600461 396.643200
   3538   3539   3542     1   110.2200475 386.601600
   3538   3544   3550     1   107.2600461 396.643200
   3538   3537   3541     1   109.5600471 388.275200
   3539   3538   3540     1   109.5600471 388.275200
   3540   3538   3544     1   110.2600474 425.931200
   3541   3537   3545     1   110.2600474 425.931200
   3542   3539   3543     1   109.5800467 425.931200
   3542   3539   3555     1   109.5800467 425.931200
   3547   3553   3554     1   107.2600461 396.643200
   3551   3547   3553     1   110.2600474 425.931200
   3551   3547   3552     1   108.4600466 328.025600
   3552   3547   3553     1   110.2600474 425.931200
   3556   3557   3559     1   109.5600471 388.275200
   3556   3570   3574     1   109.5600471 388.275200
   3556   3570   3575     1   109.5600471 388.275200
   3557   3556   3558     1   109.5600471 388.275200
   3557   3560   3564     1   109.5600471 388.275200
   3557   3569   3572     1   107.2600461 396.643200
   3558   3556   3570     1   109.5600471 388.275200
   3558   3556   3578     1   109.7800468 425.094400
   3559   3557   3560     1   109.5600471 388.275200
   3559   3557   3569     1   110.2600474 425.931200
   3560   3561   3563     1   109.5600471 388.275200
   3560   3568   3571     1   107.2600461 396.643200
   3561   3560   3564     1   109.5600471 388.275200
   3561   3562   3565     1   110.2200475 386.601600
   3561   3567   3573     1   107.2600461 396.643200
   3562   3561   3563     1   109.5600471 388.275200
   3563   3561   3567     1   110.2600474 425.931200
   3564   3560   3568     1   110.2600474 425.931200
   3565   3562   3566     1   109.5800467 425.931200
   3565   3562   3578     1   109.5800467 425.931200
   3570   3576   3577     1   107.2600461 396.643200
   3574   3570   3576     1   110.2600474 425.931200
   3574   3570   3575     1   108.4600466 328.025600
   3575   3570   3576     1   110.2600474 425.931200
   3579   3580   3582     1   109.5600471 388.275200
   3579   3593   3597     1   109.5600471 388.275200
   3579   3593   3598     1   109.5600471 388.275200
   3580   3583   3587     1   109.5600471 388.275200
   3580   3592   3595     1   107.2600461 396.643200
   3580   3579   3581     1   109.5600471 388.275200
   3581   3579   3593     1   109.5600471 388.275200
   3581   3579   3601     1   109.7800468 425.094400
   3582   3580   3583     1   109.5600471 388.275200
   3582   3580   3592     1   110.2600474 425.931200
   3583   3584   3586     1   109.5600471 388.275200
   3583   3591   3594     1   107.2600461 396.643200
   3584   3585   3588     1   110.2200475 386.601600
   3584   3590   3596     1   107.2600461 396.643200
   3584   3583   3587     1   109.5600471 388.275200
   3585   3584   3586     1   109.5600471 388.275200
   3586   3584   3590     1   110.2600474 425.931200
   3587   3583   3591     1   110.2600474 425.931200
   3588   3585   3589     1   109.5800467 425.931200
   3588   3585   3601     1   109.5800467 425.931200
   3593   3599   3600     1   107.2600461 396.643200
   3597   3593   3599     1   110.2600474 425.931200
   3597   3593   3598     1   108.4600466 328.025600
   3598   3593   3599     1   110.2600474 425.931200
   3602   3603   3605     1   109.5600471 388.275200
   3602   3616   3620     1   109.5600471 388.275200
   3602   3616   3621     1   109.5600471 388.275200
   3603   3602   3604     1   109.5600471 388.275200
   3603   3606   3610     1   109.5600471 388.275200
   3603   3615   3618     1   107.2600461 396.643200
   3604   3602   3616     1   109.5600471 388.275200
   3604   3602   3624     1   109.7800468 425.094400
   3605   3603   3606     1   109.5600471 388.275200
   3605   3603   3615     1   110.2600474 425.931200
   3606   3607   3609     1   109.5600471 388.275200
   3606   3614   3617     1   107.2600461 396.643200
   3607   3606   3610     1   109.5600471 388.275200
   3607   3608   3611     1   110.2200475 386.601600
   3607   3613   3619     1   107.2600461 396.643200
   3608   3607   3609     1   109.5600471 388.275200
   3609   3607   3613     1   110.2600474 425.931200
   3610   3606   3614     1   110.2600474 425.931200
   3611   3608   3612     1   109.5800467 425.931200
   3611   3608   3624     1   109.5800467 425.931200
   3616   3622   3623     1   107.2600461 396.643200
   3620   3616   3622     1   110.2600474 425.931200
   3620   3616   3621     1   108.4600466 328.025600
   3621   3616   3622     1   110.2600474 425.931200
   3625   3626   3628     1   109.5600471 388.275200
   3625   3639   3643     1   109.5600471 388.275200
   3625   3639   3644     1   109.5600471 388.275200
   3626   3629   3633     1   109.5600471 388.275200
   3626   3638   3641     1   107.2600461 396.643200
   3626   3625   3627     1   109.5600471 388.275200
   3627   3625   3639     1   109.5600471 388.275200
   3627   3625   3647     1   109.7800468 425.094400
   3628   3626   3629     1   109.5600471 388.275200
   3628   3626   3638     1   110.2600474 425.931200
   3629   3630   3632     1   109.5600471 388.275200
   3629   3637   3640     1   107.2600461 396.643200
   3630   3631   3634     1   110.2200475 386.601600
   3630   3636   3642     1   107.2600461 396.643200
   3630   3629   3633     1   109.5600471 388.275200
   3631   3630   3632     1   109.5600471 388.275200
   3632   3630   3636     1   110.2600474 425.931200
   3633   3629   3637     1   110.2600474 425.931200
   3634   3631   3635     1   109.5800467 425.931200
   3634   3631   3647     1   109.5800467 425.931200
   3639   3645   3646     1   107.2600461 396.643200
   3643   3639   3645     1   110.2600474 425.931200
   3643   3639   3644     1   108.4600466 328.025600
   3644   3639   3645     1   110.2600474 425.931200
   3648   3649   3651     1   109.5600471 388.275200
   3648   3662   3666     1   109.5600471 388.275200
   3648   3662   3667     1   109.5600471 388.275200
   3649   3648   3650     1   109.5600471 388.275200
   3649   3652   3656     1   109.5600471 388.275200
   3649   3661   3664     1   107.2600461 396.643200
   3650   3648   3662     1   109.5600471 388.275200
   3650   3648   3670     1   109.7800468 425.094400
   3651   3649   3652     1   109.5600471 388.275200
   3651   3649   3661     1   110.2600474 425.931200
   3652   3653   3655     1   109.5600471 388.275200
   3652   3660   3663     1   107.2600461 396.643200
   3653   3652   3656     1   109.5600471 388.275200
   3653   3654   3657     1   110.2200475 386.601600
   3653   3659   3665     1   107.2600461 396.643200
   3654   3653   3655     1   109.5600471 388.275200
   3655   3653   3659     1   110.2600474 425.931200
   3656   3652   3660     1   110.2600474 425.931200
   3657   3654   3658     1   109.5800467 425.931200
   3657   3654   3670     1   109.5800467 425.931200
   3662   3668   3669     1   107.2600461 396.643200
   3666   3662   3668     1   110.2600474 425.931200
   3666   3662   3667     1   108.4600466 328.025600
   3667   3662   3668     1   110.2600474 425.931200
   3671   3672   3674     1   109.5600471 388.275200
   3671   3685   3689     1   109.5600471 388.275200
   3671   3685   3690     1   109.5600471 388.275200
   3672   3675   3679     1   109.5600471 388.275200
   3672   3684   3687     1   107.2600461 396.643200
   3672   3671   3673     1   109.5600471 388.275200
   3673   3671   3685     1   109.5600471 388.275200
   3673   3671   3693     1   109.7800468 425.094400
   3674   3672   3675     1   109.5600471 388.275200
   3674   3672   3684     1   110.2600474 425.931200
   3675   3676   3678     1   109.5600471 388.275200
   3675   3683   3686     1   107.2600461 396.643200
   3676   3677   3680     1   110.2200475 386.601600
   3676   3682   3688     1   107.2600461 396.643200
   3676   3675   3679     1   109.5600471 388.275200
   3677   3676   3678     1   109.5600471 388.275200
   3678   3676   3682     1   110.2600474 425.931200
   3679   3675   3683     1   110.2600474 425.931200
   3680   3677   3681     1   109.5800467 425.931200
   3680   3677   3693     1   109.5800467 425.931200
   3685   3691   3692     1   107.2600461 396.643200
   3689   3685   3691     1   110.2600474 425.931200
   3689   3685   3690     1   108.4600466 328.025600
   3690   3685   3691     1   110.2600474 425.931200
   3694   3695   3697     1   109.5600471 388.275200
   3694   3708   3712     1   109.5600471 388.275200
   3694   3708   3713     1   109.5600471 388.275200
   3695   3694   3696     1   109.5600471 388.275200
   3695   3698   3702     1   109.5600471 388.275200
   3695   3707   3710     1   107.2600461 396.643200
   3696   3694   3708     1   109.5600471 388.275200
   3696   3694   3716     1   109.7800468 425.094400
   3697   3695   3698     1   109.5600471 388.275200
   3697   3695   3707     1   110.2600474 425.931200
   3698   3699   3701     1   109.5600471 388.275200
   3698   3706   3709     1   107.2600461 396.643200
   3699   3698   3702     1   109.5600471 388.275200
   3699   3700   3703     1   110.2200475 386.601600
   3699   3705   3711     1   107.2600461 396.643200
   3700   3699   3701     1   109.5600471 388.275200
   3701   3699   3705     1   110.2600474 425.931200
   3702   3698   3706     1   110.2600474 425.931200
   3703   3700   3704     1   109.5800467 425.931200
   3703   3700   3716     1   109.5800467 425.931200
   3708   3714   3715     1   107.2600461 396.643200
   3712   3708   3714     1   110.2600474 425.931200
   3712   3708   3713     1   108.4600466 328.025600
   3713   3708   3714     1   110.2600474 425.931200
   3717   3718   3720     1   109.5600471 388.275200
   3717   3731   3735     1   109.5600471 388.275200
   3717   3731   3736     1   109.5600471 388.275200
   3718   3721   3725     1   109.5600471 388.275200
   3718   3730   3733     1   107.2600461 396.643200
   3718   3717   3719     1   109.5600471 388.275200
   3719   3717   3731     1   109.5600471 388.275200
   3719   3717   3739     1   109.7800468 425.094400
   3720   3718   3721     1   109.5600471 388.275200
   3720   3718   3730     1   110.2600474 425.931200
   3721   3722   3724     1   109.5600471 388.275200
   3721   3729   3732     1   107.2600461 396.643200
   3722   3723   3726     1   110.2200475 386.601600
   3722   3728   3734     1   107.2600461 396.643200
   3722   3721   3725     1   109.5600471 388.275200
   3723   3722   3724     1   109.5600471 388.275200
   3724   3722   3728     1   110.2600474 425.931200
   3725   3721   3729     1   110.2600474 425.931200
   3726   3723   3727     1   109.5800467 425.931200
   3726   3723   3739     1   109.5800467 425.931200
   3731   3737   3738     1   107.2600461 396.643200
   3735   3731   3737     1   110.2600474 425.931200
   3735   3731   3736     1   108.4600466 328.025600
   3736   3731   3737     1   110.2600474 425.931200
   3740   3741   3743     1   109.5600471 388.275200
   3740   3754   3758     1   109.5600471 388.275200
   3740   3754   3759     1   109.5600471 388.275200
   3741   3740   3742     1   109.5600471 388.275200
   3741   3744   3748     1   109.5600471 388.275200
   3741   3753   3756     1   107.2600461 396.643200
   3742   3740   3754     1   109.5600471 388.275200
   3742   3740   3762     1   109.7800468 425.094400
   3743   3741   3744     1   109.5600471 388.275200
   3743   3741   3753     1   110.2600474 425.931200
   3744   3745   3747     1   109.5600471 388.275200
   3744   3752   3755     1   107.2600461 396.643200
   3745   3744   3748     1   109.5600471 388.275200
   3745   3746   3749     1   110.2200475 386.601600
   3745   3751   3757     1   107.2600461 396.643200
   3746   3745   3747     1   109.5600471 388.275200
   3747   3745   3751     1   110.2600474 425.931200
   3748   3744   3752     1   110.2600474 425.931200
   3749   3746   3750     1   109.5800467 425.931200
   3749   3746   3762     1   109.5800467 425.931200
   3754   3760   3761     1   107.2600461 396.643200
   3758   3754   3760     1   110.2600474 425.931200
   3758   3754   3759     1   108.4600466 328.025600
   3759   3754   3760     1   110.2600474 425.931200
   3763   3764   3766     1   109.5600471 388.275200
   3763   3777   3781     1   109.5600471 388.275200
   3763   3777   3782     1   109.5600471 388.275200
   3764   3767   3771     1   109.5600471 388.275200
   3764   3776   3779     1   107.2600461 396.643200
   3764   3763   3765     1   109.5600471 388.275200
   3765   3763   3777     1   109.5600471 388.275200
   3765   3763   3785     1   109.7800468 425.094400
   3766   3764   3767     1   109.5600471 388.275200
   3766   3764   3776     1   110.2600474 425.931200
   3767   3768   3770     1   109.5600471 388.275200
   3767   3775   3778     1   107.2600461 396.643200
   3768   3769   3772     1   110.2200475 386.601600
   3768   3774   3780     1   107.2600461 396.643200
   3768   3767   3771     1   109.5600471 388.275200
   3769   3768   3770     1   109.5600471 388.275200
   3770   3768   3774     1   110.2600474 425.931200
   3771   3767   3775     1   110.2600474 425.931200
   3772   3769   3773     1   109.5800467 425.931200
   3772   3769   3785     1   109.5800467 425.931200
   3777   3783   3784     1   107.2600461 396.643200
   3781   3777   3783     1   110.2600474 425.931200
   3781   3777   3782     1   108.4600466 328.025600
   3782   3777   3783     1   110.2600474 425.931200
   3786   3787   3789     1   109.5600471 388.275200
   3786   3800   3804     1   109.5600471 388.275200
   3786   3800   3805     1   109.5600471 388.275200
   3787   3786   3788     1   109.5600471 388.275200
   3787   3790   3794     1   109.5600471 388.275200
   3787   3799   3802     1   107.2600461 396.643200
   3788   3786   3800     1   109.5600471 388.275200
   3788   3786   3808     1   109.7800468 425.094400
   3789   3787   3790     1   109.5600471 388.275200
   3789   3787   3799     1   110.2600474 425.931200
   3790   3791   3793     1   109.5600471 388.275200
   3790   3798   3801     1   107.2600461 396.643200
   3791   3790   3794     1   109.5600471 388.275200
   3791   3792   3795     1   110.2200475 386.601600
   3791   3797   3803     1   107.2600461 396.643200
   3792   3791   3793     1   109.5600471 388.275200
   3793   3791   3797     1   110.2600474 425.931200
   3794   3790   3798     1   110.2600474 425.931200
   3795   3792   3796     1   109.5800467 425.931200
   3795   3792   3808     1   109.5800467 425.931200
   3800   3806   3807     1   107.2600461 396.643200
   3804   3800   3806     1   110.2600474 425.931200
   3804   3800   3805     1   108.4600466 328.025600
   3805   3800   3806     1   110.2600474 425.931200
   3809   3810   3812     1   109.5600471 388.275200
   3809   3823   3827     1   109.5600471 388.275200
   3809   3823   3828     1   109.5600471 388.275200
   3810   3813   3817     1   109.5600471 388.275200
   3810   3822   3825     1   107.2600461 396.643200
   3810   3809   3811     1   109.5600471 388.275200
   3811   3809   3823     1   109.5600471 388.275200
   3811   3809   3831     1   109.7800468 425.094400
   3812   3810   3813     1   109.5600471 388.275200
   3812   3810   3822     1   110.2600474 425.931200
   3813   3814   3816     1   109.5600471 388.275200
   3813   3821   3824     1   107.2600461 396.643200
   3814   3815   3818     1   110.2200475 386.601600
   3814   3820   3826     1   107.2600461 396.643200
   3814   3813   3817     1   109.5600471 388.275200
   3815   3814   3816     1   109.5600471 388.275200
   3816   3814   3820     1   110.2600474 425.931200
   3817   3813   3821     1   110.2600474 425.931200
   3818   3815   3819     1   109.5800467 425.931200
   3818   3815   3831     1   109.5800467 425.931200
   3823   3829   3830     1   107.2600461 396.643200
   3827   3823   3829     1   110.2600474 425.931200
   3827   3823   3828     1   108.4600466 328.025600
   3828   3823   3829     1   110.2600474 425.931200
   3832   3833   3835     1   109.5600471 388.275200
   3832   3846   3850     1   109.5600471 388.275200
   3832   3846   3851     1   109.5600471 388.275200
   3833   3832   3834     1   109.5600471 388.275200
   3833   3836   3840     1   109.5600471 388.275200
   3833   3845   3848     1   107.2600461 396.643200
   3834   3832   3846     1   109.5600471 388.275200
   3834   3832   3854     1   109.7800468 425.094400
   3835   3833   3836     1   109.5600471 388.275200
   3835   3833   3845     1   110.2600474 425.931200
   3836   3837   3839     1   109.5600471 388.275200
   3836   3844   3847     1   107.2600461 396.643200
   3837   3836   3840     1   109.5600471 388.275200
   3837   3838   3841     1   110.2200475 386.601600
   3837   3843   3849     1   107.2600461 396.643200
   3838   3837   3839     1   109.5600471 388.275200
   3839   3837   3843     1   110.2600474 425.931200
   3840   3836   3844     1   110.2600474 425.931200
   3841   3838   3842     1   109.5800467 425.931200
   3841   3838   3854     1   109.5800467 425.931200
   3846   3852   3853     1   107.2600461 396.643200
   3850   3846   3852     1   110.2600474 425.931200
   3850   3846   3851     1   108.4600466 328.025600
   3851   3846   3852     1   110.2600474 425.931200
   3855   3856   3858     1   109.5600471 388.275200
   3855   3869   3873     1   109.5600471 388.275200
   3855   3869   3874     1   109.5600471 388.275200
   3856   3859   3863     1   109.5600471 388.275200
   3856   3868   3871     1   107.2600461 396.643200
   3856   3855   3857     1   109.5600471 388.275200
   3857   3855   3869     1   109.5600471 388.275200
   3857   3855   3877     1   109.7800468 425.094400
   3858   3856   3859     1   109.5600471 388.275200
   3858   3856   3868     1   110.2600474 425.931200
   3859   3860   3862     1   109.5600471 388.275200
   3859   3867   3870     1   107.2600461 396.643200
   3860   3861   3864     1   110.2200475 386.601600
   3860   3866   3872     1   107.2600461 396.643200
   3860   3859   3863     1   109.5600471 388.275200
   3861   3860   3862     1   109.5600471 388.275200
   3862   3860   3866     1   110.2600474 425.931200
   3863   3859   3867     1   110.2600474 425.931200
   3864   3861   3865     1   109.5800467 425.931200
   3864   3861   3877     1   109.5800467 425.931200
   3869   3875   3876     1   107.2600461 396.643200
   3873   3869   3875     1   110.2600474 425.931200
   3873   3869   3874     1   108.4600466 328.025600
   3874   3869   3875     1   110.2600474 425.931200
   3878   3879   3881     1   109.5600471 388.275200
   3878   3892   3896     1   109.5600471 388.275200
   3878   3892   3897     1   109.5600471 388.275200
   3879   3878   3880     1   109.5600471 388.275200
   3879   3882   3886     1   109.5600471 388.275200
   3879   3891   3894     1   107.2600461 396.643200
   3880   3878   3892     1   109.5600471 388.275200
   3880   3878   3900     1   109.7800468 425.094400
   3881   3879   3882     1   109.5600471 388.275200
   3881   3879   3891     1   110.2600474 425.931200
   3882   3883   3885     1   109.5600471 388.275200
   3882   3890   3893     1   107.2600461 396.643200
   3883   3882   3886     1   109.5600471 388.275200
   3883   3884   3887     1   110.2200475 386.601600
   3883   3889   3895     1   107.2600461 396.643200
   3884   3883   3885     1   109.5600471 388.275200
   3885   3883   3889     1   110.2600474 425.931200
   3886   3882   3890     1   110.2600474 425.931200
   3887   3884   3888     1   109.5800467 425.931200
   3887   3884   3900     1   109.5800467 425.931200
   3892   3898   3899     1   107.2600461 396.643200
   3896   3892   3898     1   110.2600474 425.931200
   3896   3892   3897     1   108.4600466 328.025600
   3897   3892   3898     1   110.2600474 425.931200
   3901   3902   3904     1   109.5600471 388.275200
   3901   3915   3919     1   109.5600471 388.275200
   3901   3915   3920     1   109.5600471 388.275200
   3902   3905   3909     1   109.5600471 388.275200
   3902   3914   3917     1   107.2600461 396.643200
   3902   3901   3903     1   109.5600471 388.275200
   3903   3901   3915     1   109.5600471 388.275200
   3903   3901   3923     1   109.7800468 425.094400
   3904   3902   3905     1   109.5600471 388.275200
   3904   3902   3914     1   110.2600474 425.931200
   3905   3906   3908     1   109.5600471 388.275200
   3905   3913   3916     1   107.2600461 396.643200
   3906   3907   3910     1   110.2200475 386.601600
   3906   3912   3918     1   107.2600461 396.643200
   3906   3905   3909     1   109.5600471 388.275200
   3907   3906   3908     1   109.5600471 388.275200
   3908   3906   3912     1   110.2600474 425.931200
   3909   3905   3913     1   110.2600474 425.931200
   3910   3907   3911     1   109.5800467 425.931200
   3910   3907   3923     1   109.5800467 425.931200
   3915   3921   3922     1   107.2600461 396.643200
   3919   3915   3921     1   110.2600474 425.931200
   3919   3915   3920     1   108.4600466 328.025600
   3920   3915   3921     1   110.2600474 425.931200
   3924   3925   3927     1   109.5600471 388.275200
   3924   3938   3942     1   109.5600471 388.275200
   3924   3938   3943     1   109.5600471 388.275200
   3925   3924   3926     1   109.5600471 388.275200
   3925   3928   3932     1   109.5600471 388.275200
   3925   3937   3940     1   107.2600461 396.643200
   3926   3924   3938     1   109.5600471 388.275200
   3926   3924   3946     1   109.7800468 425.094400
   3927   3925   3928     1   109.5600471 388.275200
   3927   3925   3937     1   110.2600474 425.931200
   3928   3929   3931     1   109.5600471 388.275200
   3928   3936   3939     1   107.2600461 396.643200
   3929   3928   3932     1   109.5600471 388.275200
   3929   3930   3933     1   110.2200475 386.601600
   3929   3935   3941     1   107.2600461 396.643200
   3930   3929   3931     1   109.5600471 388.275200
   3931   3929   3935     1   110.2600474 425.931200
   3932   3928   3936     1   110.2600474 425.931200
   3933   3930   3934     1   109.5800467 425.931200
   3933   3930   3946     1   109.5800467 425.931200
   3938   3944   3945     1   107.2600461 396.643200
   3942   3938   3944     1   110.2600474 425.931200
   3942   3938   3943     1   108.4600466 328.025600
   3943   3938   3944     1   110.2600474 425.931200
   3947   3948   3950     1   109.5600471 388.275200
   3947   3961   3965     1   109.5600471 388.275200
   3947   3961   3966     1   109.5600471 388.275200
   3948   3951   3955     1   109.5600471 388.275200
   3948   3960   3963     1   107.2600461 396.643200
   3948   3947   3949     1   109.5600471 388.275200
   3949   3947   3961     1   109.5600471 388.275200
   3949   3947   3969     1   109.7800468 425.094400
   3950   3948   3951     1   109.5600471 388.275200
   3950   3948   3960     1   110.2600474 425.931200
   3951   3952   3954     1   109.5600471 388.275200
   3951   3959   3962     1   107.2600461 396.643200
   3952   3953   3956     1   110.2200475 386.601600
   3952   3958   3964     1   107.2600461 396.643200
   3952   3951   3955     1   109.5600471 388.275200
   3953   3952   3954     1   109.5600471 388.275200
   3954   3952   3958     1   110.2600474 425.931200
   3955   3951   3959     1   110.2600474 425.931200
   3956   3953   3957     1   109.5800467 425.931200
   3956   3953   3969     1   109.5800467 425.931200
   3961   3967   3968     1   107.2600461 396.643200
   3965   3961   3967     1   110.2600474 425.931200
   3965   3961   3966     1   108.4600466 328.025600
   3966   3961   3967     1   110.2600474 425.931200
   3970   3971   3973     1   109.5600471 388.275200
   3970   3984   3988     1   109.5600471 388.275200
   3970   3984   3989     1   109.5600471 388.275200
   3971   3970   3972     1   109.5600471 388.275200
   3971   3974   3978     1   109.5600471 388.275200
   3971   3983   3986     1   107.2600461 396.643200
   3972   3970   3984     1   109.5600471 388.275200
   3972   3970   3992     1   109.7800468 425.094400
   3973   3971   3974     1   109.5600471 388.275200
   3973   3971   3983     1   110.2600474 425.931200
   3974   3975   3977     1   109.5600471 388.275200
   3974   3982   3985     1   107.2600461 396.643200
   3975   3974   3978     1   109.5600471 388.275200
   3975   3976   3979     1   110.2200475 386.601600
   3975   3981   3987     1   107.2600461 396.643200
   3976   3975   3977     1   109.5600471 388.275200
   3977   3975   3981     1   110.2600474 425.931200
   3978   3974   3982     1   110.2600474 425.931200
   3979   3976   3980     1   109.5800467 425.931200
   3979   3976   3992     1   109.5800467 425.931200
   3984   3990   3991     1   107.2600461 396.643200
   3988   3984   3990     1   110.2600474 425.931200
   3988   3984   3989     1   108.4600466 328.025600
   3989   3984   3990     1   110.2600474 425.931200
   3993   3994   3996     1   109.5600471 388.275200
   3993   4007   4011     1   109.5600471 388.275200
   3993   4007   4012     1   109.5600471 388.275200
   3994   3997   4001     1   109.5600471 388.275200
   3994   4006   4009     1   107.2600461 396.643200
   3994   3993   3995     1   109.5600471 388.275200
   3995   3993   4007     1   109.5600471 388.275200
   3995   3993   4015     1   109.7800468 425.094400
   3996   3994   3997     1   109.5600471 388.275200
   3996   3994   4006     1   110.2600474 425.931200
   3997   3998   4000     1   109.5600471 388.275200
   3997   4005   4008     1   107.2600461 396.643200
   3998   3999   4002     1   110.2200475 386.601600
   3998   4004   4010     1   107.2600461 396.643200
   3998   3997   4001     1   109.5600471 388.275200
   3999   3998   4000     1   109.5600471 388.275200
   4000   3998   4004     1   110.2600474 425.931200
   4001   3997   4005     1   110.2600474 425.931200
   4002   3999   4003     1   109.5800467 425.931200
   4002   3999   4015     1   109.5800467 425.931200
   4007   4013   4014     1   107.2600461 396.643200
   4011   4007   4013     1   110.2600474 425.931200
   4011   4007   4012     1   108.4600466 328.025600
   4012   4007   4013     1   110.2600474 425.931200
   4016   4017   4019     1   109.5600471 388.275200
   4016   4030   4034     1   109.5600471 388.275200
   4016   4030   4035     1   109.5600471 388.275200
   4017   4016   4018     1   109.5600471 388.275200
   4017   4020   4024     1   109.5600471 388.275200
   4017   4029   4032     1   107.2600461 396.643200
   4018   4016   4030     1   109.5600471 388.275200
   4018   4016   4038     1   109.7800468 425.094400
   4019   4017   4020     1   109.5600471 388.275200
   4019   4017   4029     1   110.2600474 425.931200
   4020   4021   4023     1   109.5600471 388.275200
   4020   4028   4031     1   107.2600461 396.643200
   4021   4020   4024     1   109.5600471 388.275200
   4021   4022   4025     1   110.2200475 386.601600
   4021   4027   4033     1   107.2600461 396.643200
   4022   4021   4023     1   109.5600471 388.275200
   4023   4021   4027     1   110.2600474 425.931200
   4024   4020   4028     1   110.2600474 425.931200
   4025   4022   4026     1   109.5800467 425.931200
   4025   4022   4038     1   109.5800467 425.931200
   4030   4036   4037     1   107.2600461 396.643200
   4034   4030   4036     1   110.2600474 425.931200
   4034   4030   4035     1   108.4600466 328.025600
   4035   4030   4036     1   110.2600474 425.931200
   4039   4040   4042     1   109.5600471 388.275200
   4039   4053   4057     1   109.5600471 388.275200
   4039   4053   4058     1   109.5600471 388.275200
   4040   4043   4047     1   109.5600471 388.275200
   4040   4052   4055     1   107.2600461 396.643200
   4040   4039   4041     1   109.5600471 388.275200
   4041   4039   4053     1   109.5600471 388.275200
   4041   4039   4061     1   109.7800468 425.094400
   4042   4040   4043     1   109.5600471 388.275200
   4042   4040   4052     1   110.2600474 425.931200
   4043   4044   4046     1   109.5600471 388.275200
   4043   4051   4054     1   107.2600461 396.643200
   4044   4045   4048     1   110.2200475 386.601600
   4044   4050   4056     1   107.2600461 396.643200
   4044   4043   4047     1   109.5600471 388.275200
   4045   4044   4046     1   109.5600471 388.275200
   4046   4044   4050     1   110.2600474 425.931200
   4047   4043   4051     1   110.2600474 425.931200
   4048   4045   4049     1   109.5800467 425.931200
   4048   4045   4061     1   109.5800467 425.931200
   4053   4059   4060     1   107.2600461 396.643200
   4057   4053   4059     1   110.2600474 425.931200
   4057   4053   4058     1   108.4600466 328.025600
   4058   4053   4059     1   110.2600474 425.931200
   4062   4063   4065     1   109.5600471 388.275200
   4062   4076   4080     1   109.5600471 388.275200
   4062   4076   4081     1   109.5600471 388.275200
   4063   4062   4064     1   109.5600471 388.275200
   4063   4066   4070     1   109.5600471 388.275200
   4063   4075   4078     1   107.2600461 396.643200
   4064   4062   4076     1   109.5600471 388.275200
   4064   4062   4084     1   109.7800468 425.094400
   4065   4063   4066     1   109.5600471 388.275200
   4065   4063   4075     1   110.2600474 425.931200
   4066   4067   4069     1   109.5600471 388.275200
   4066   4074   4077     1   107.2600461 396.643200
   4067   4066   4070     1   109.5600471 388.275200
   4067   4068   4071     1   110.2200475 386.601600
   4067   4073   4079     1   107.2600461 396.643200
   4068   4067   4069     1   109.5600471 388.275200
   4069   4067   4073     1   110.2600474 425.931200
   4070   4066   4074     1   110.2600474 425.931200
   4071   4068   4072     1   109.5800467 425.931200
   4071   4068   4084     1   109.5800467 425.931200
   4076   4082   4083     1   107.2600461 396.643200
   4080   4076   4082     1   110.2600474 425.931200
   4080   4076   4081     1   108.4600466 328.025600
   4081   4076   4082     1   110.2600474 425.931200
   4085   4086   4088     1   109.5600471 388.275200
   4085   4099   4103     1   109.5600471 388.275200
   4085   4099   4104     1   109.5600471 388.275200
   4086   4089   4093     1   109.5600471 388.275200
   4086   4098   4101     1   107.2600461 396.643200
   4086   4085   4087     1   109.5600471 388.275200
   4087   4085   4099     1   109.5600471 388.275200
   4087   4085   4107     1   109.7800468 425.094400
   4088   4086   4089     1   109.5600471 388.275200
   4088   4086   4098     1   110.2600474 425.931200
   4089   4090   4092     1   109.5600471 388.275200
   4089   4097   4100     1   107.2600461 396.643200
   4090   4091   4094     1   110.2200475 386.601600
   4090   4096   4102     1   107.2600461 396.643200
   4090   4089   4093     1   109.5600471 388.275200
   4091   4090   4092     1   109.5600471 388.275200
   4092   4090   4096     1   110.2600474 425.931200
   4093   4089   4097     1   110.2600474 425.931200
   4094   4091   4095     1   109.5800467 425.931200
   4094   4091   4107     1   109.5800467 425.931200
   4099   4105   4106     1   107.2600461 396.643200
   4103   4099   4105     1   110.2600474 425.931200
   4103   4099   4104     1   108.4600466 328.025600
   4104   4099   4105     1   110.2600474 425.931200
   4108   4109   4111     1   109.5600471 388.275200
   4108   4122   4126     1   109.5600471 388.275200
   4108   4122   4127     1   109.5600471 388.275200
   4109   4108   4110     1   109.5600471 388.275200
   4109   4112   4116     1   109.5600471 388.275200
   4109   4121   4124     1   107.2600461 396.643200
   4110   4108   4122     1   109.5600471 388.275200
   4110   4108   4130     1   109.7800468 425.094400
   4111   4109   4112     1   109.5600471 388.275200
   4111   4109   4121     1   110.2600474 425.931200
   4112   4113   4115     1   109.5600471 388.275200
   4112   4120   4123     1   107.2600461 396.643200
   4113   4112   4116     1   109.5600471 388.275200
   4113   4114   4117     1   110.2200475 386.601600
   4113   4119   4125     1   107.2600461 396.643200
   4114   4113   4115     1   109.5600471 388.275200
   4115   4113   4119     1   110.2600474 425.931200
   4116   4112   4120     1   110.2600474 425.931200
   4117   4114   4118     1   109.5800467 425.931200
   4117   4114   4130     1   109.5800467 425.931200
   4122   4128   4129     1   107.2600461 396.643200
   4126   4122   4128     1   110.2600474 425.931200
   4126   4122   4127     1   108.4600466 328.025600
   4127   4122   4128     1   110.2600474 425.931200
   4131   4132   4134     1   109.5600471 388.275200
   4131   4145   4149     1   109.5600471 388.275200
   4131   4145   4150     1   109.5600471 388.275200
   4132   4135   4139     1   109.5600471 388.275200
   4132   4144   4147     1   107.2600461 396.643200
   4132   4131   4133     1   109.5600471 388.275200
   4133   4131   4145     1   109.5600471 388.275200
   4133   4131   4153     1   109.7800468 425.094400
   4134   4132   4135     1   109.5600471 388.275200
   4134   4132   4144     1   110.2600474 425.931200
   4135   4136   4138     1   109.5600471 388.275200
   4135   4143   4146     1   107.2600461 396.643200
   4136   4137   4140     1   110.2200475 386.601600
   4136   4142   4148     1   107.2600461 396.643200
   4136   4135   4139     1   109.5600471 388.275200
   4137   4136   4138     1   109.5600471 388.275200
   4138   4136   4142     1   110.2600474 425.931200
   4139   4135   4143     1   110.2600474 425.931200
   4140   4137   4141     1   109.5800467 425.931200
   4140   4137   4153     1   109.5800467 425.931200
   4145   4151   4152     1   107.2600461 396.643200
   4149   4145   4151     1   110.2600474 425.931200
   4149   4145   4150     1   108.4600466 328.025600
   4150   4145   4151     1   110.2600474 425.931200
   4154   4155   4157     1   109.5600471 388.275200
   4154   4168   4172     1   109.5600471 388.275200
   4154   4168   4173     1   109.5600471 388.275200
   4155   4154   4156     1   109.5600471 388.275200
   4155   4158   4162     1   109.5600471 388.275200
   4155   4167   4170     1   107.2600461 396.643200
   4156   4154   4168     1   109.5600471 388.275200
   4156   4154   4176     1   109.7800468 425.094400
   4157   4155   4158     1   109.5600471 388.275200
   4157   4155   4167     1   110.2600474 425.931200
   4158   4159   4161     1   109.5600471 388.275200
   4158   4166   4169     1   107.2600461 396.643200
   4159   4158   4162     1   109.5600471 388.275200
   4159   4160   4163     1   110.2200475 386.601600
   4159   4165   4171     1   107.2600461 396.643200
   4160   4159   4161     1   109.5600471 388.275200
   4161   4159   4165     1   110.2600474 425.931200
   4162   4158   4166     1   110.2600474 425.931200
   4163   4160   4164     1   109.5800467 425.931200
   4163   4160   4176     1   109.5800467 425.931200
   4168   4174   4175     1   107.2600461 396.643200
   4172   4168   4174     1   110.2600474 425.931200
   4172   4168   4173     1   108.4600466 328.025600
   4173   4168   4174     1   110.2600474 425.931200
   4177   4178   4180     1   109.5600471 388.275200
   4177   4191   4195     1   109.5600471 388.275200
   4177   4191   4196     1   109.5600471 388.275200
   4178   4181   4185     1   109.5600471 388.275200
   4178   4190   4193     1   107.2600461 396.643200
   4178   4177   4179     1   109.5600471 388.275200
   4179   4177   4191     1   109.5600471 388.275200
   4179   4177   4199     1   109.7800468 425.094400
   4180   4178   4181     1   109.5600471 388.275200
   4180   4178   4190     1   110.2600474 425.931200
   4181   4182   4184     1   109.5600471 388.275200
   4181   4189   4192     1   107.2600461 396.643200
   4182   4183   4186     1   110.2200475 386.601600
   4182   4188   4194     1   107.2600461 396.643200
   4182   4181   4185     1   109.5600471 388.275200
   4183   4182   4184     1   109.5600471 388.275200
   4184   4182   4188     1   110.2600474 425.931200
   4185   4181   4189     1   110.2600474 425.931200
   4186   4183   4187     1   109.5800467 425.931200
   4186   4183   4199     1   109.5800467 425.931200
   4191   4197   4198     1   107.2600461 396.643200
   4195   4191   4197     1   110.2600474 425.931200
   4195   4191   4196     1   108.4600466 328.025600
   4196   4191   4197     1   110.2600474 425.931200
   4200   4201   4203     1   109.5600471 388.275200
   4200   4214   4218     1   109.5600471 388.275200
   4200   4214   4219     1   109.5600471 388.275200
   4201   4200   4202     1   109.5600471 388.275200
   4201   4204   4208     1   109.5600471 388.275200
   4201   4213   4216     1   107.2600461 396.643200
   4202   4200   4214     1   109.5600471 388.275200
   4202   4200   4222     1   109.7800468 425.094400
   4203   4201   4204     1   109.5600471 388.275200
   4203   4201   4213     1   110.2600474 425.931200
   4204   4205   4207     1   109.5600471 388.275200
   4204   4212   4215     1   107.2600461 396.643200
   4205   4204   4208     1   109.5600471 388.275200
   4205   4206   4209     1   110.2200475 386.601600
   4205   4211   4217     1   107.2600461 396.643200
   4206   4205   4207     1   109.5600471 388.275200
   4207   4205   4211     1   110.2600474 425.931200
   4208   4204   4212     1   110.2600474 425.931200
   4209   4206   4210     1   109.5800467 425.931200
   4209   4206   4222     1   109.5800467 425.931200
   4214   4220   4221     1   107.2600461 396.643200
   4218   4214   4220     1   110.2600474 425.931200
   4218   4214   4219     1   108.4600466 328.025600
   4219   4214   4220     1   110.2600474 425.931200
   4223   4224   4226     1   109.5600471 388.275200
   4223   4237   4241     1   109.5600471 388.275200
   4223   4237   4242     1   109.5600471 388.275200
   4224   4227   4231     1   109.5600471 388.275200
   4224   4236   4239     1   107.2600461 396.643200
   4224   4223   4225     1   109.5600471 388.275200
   4225   4223   4237     1   109.5600471 388.275200
   4225   4223   4245     1   109.7800468 425.094400
   4226   4224   4227     1   109.5600471 388.275200
   4226   4224   4236     1   110.2600474 425.931200
   4227   4228   4230     1   109.5600471 388.275200
   4227   4235   4238     1   107.2600461 396.643200
   4228   4229   4232     1   110.2200475 386.601600
   4228   4234   4240     1   107.2600461 396.643200
   4228   4227   4231     1   109.5600471 388.275200
   4229   4228   4230     1   109.5600471 388.275200
   4230   4228   4234     1   110.2600474 425.931200
   4231   4227   4235     1   110.2600474 425.931200
   4232   4229   4233     1   109.5800467 425.931200
   4232   4229   4245     1   109.5800467 425.931200
   4237   4243   4244     1   107.2600461 396.643200
   4241   4237   4243     1   110.2600474 425.931200
   4241   4237   4242     1   108.4600466 328.025600
   4242   4237   4243     1   110.2600474 425.931200
   4246   4247   4249     1   109.5600471 388.275200
   4246   4260   4264     1   109.5600471 388.275200
   4246   4260   4265     1   109.5600471 388.275200
   4247   4246   4248     1   109.5600471 388.275200
   4247   4250   4254     1   109.5600471 388.275200
   4247   4259   4262     1   107.2600461 396.643200
   4248   4246   4260     1   109.5600471 388.275200
   4248   4246   4268     1   109.7800468 425.094400
   4249   4247   4250     1   109.5600471 388.275200
   4249   4247   4259     1   110.2600474 425.931200
   4250   4251   4253     1   109.5600471 388.275200
   4250   4258   4261     1   107.2600461 396.643200
   4251   4250   4254     1   109.5600471 388.275200
   4251   4252   4255     1   110.2200475 386.601600
   4251   4257   4263     1   107.2600461 396.643200
   4252   4251   4253     1   109.5600471 388.275200
   4253   4251   4257     1   110.2600474 425.931200
   4254   4250   4258     1   110.2600474 425.931200
   4255   4252   4256     1   109.5800467 425.931200
   4255   4252   4268     1   109.5800467 425.931200
   4260   4266   4267     1   107.2600461 396.643200
   4264   4260   4266     1   110.2600474 425.931200
   4264   4260   4265     1   108.4600466 328.025600
   4265   4260   4266     1   110.2600474 425.931200
   4269   4270   4272     1   109.5600471 388.275200
   4269   4283   4287     1   109.5600471 388.275200
   4269   4283   4288     1   109.5600471 388.275200
   4270   4273   4277     1   109.5600471 388.275200
   4270   4282   4285     1   107.2600461 396.643200
   4270   4269   4271     1   109.5600471 388.275200
   4271   4269   4283     1   109.5600471 388.275200
   4271   4269   4291     1   109.7800468 425.094400
   4272   4270   4273     1   109.5600471 388.275200
   4272   4270   4282     1   110.2600474 425.931200
   4273   4274   4276     1   109.5600471 388.275200
   4273   4281   4284     1   107.2600461 396.643200
   4274   4275   4278     1   110.2200475 386.601600
   4274   4280   4286     1   107.2600461 396.643200
   4274   4273   4277     1   109.5600471 388.275200
   4275   4274   4276     1   109.5600471 388.275200
   4276   4274   4280     1   110.2600474 425.931200
   4277   4273   4281     1   110.2600474 425.931200
   4278   4275   4279     1   109.5800467 425.931200
   4278   4275   4291     1   109.5800467 425.931200
   4283   4289   4290     1   107.2600461 396.643200
   4287   4283   4289     1   110.2600474 425.931200
   4287   4283   4288     1   108.4600466 328.025600
   4288   4283   4289     1   110.2600474 425.931200
   4292   4293   4295     1   109.5600471 388.275200
   4292   4306   4310     1   109.5600471 388.275200
   4292   4306   4311     1   109.5600471 388.275200
   4293   4292   4294     1   109.5600471 388.275200
   4293   4296   4300     1   109.5600471 388.275200
   4293   4305   4308     1   107.2600461 396.643200
   4294   4292   4306     1   109.5600471 388.275200
   4294   4292   4314     1   109.7800468 425.094400
   4295   4293   4296     1   109.5600471 388.275200
   4295   4293   4305     1   110.2600474 425.931200
   4296   4297   4299     1   109.5600471 388.275200
   4296   4304   4307     1   107.2600461 396.643200
   4297   4296   4300     1   109.5600471 388.275200
   4297   4298   4301     1   110.2200475 386.601600
   4297   4303   4309     1   107.2600461 396.643200
   4298   4297   4299     1   109.5600471 388.275200
   4299   4297   4303     1   110.2600474 425.931200
   4300   4296   4304     1   110.2600474 425.931200
   4301   4298   4302     1   109.5800467 425.931200
   4301   4298   4314     1   109.5800467 425.931200
   4306   4312   4313     1   107.2600461 396.643200
   4310   4306   4312     1   110.2600474 425.931200
   4310   4306   4311     1   108.4600466 328.025600
   4311   4306   4312     1   110.2600474 425.931200
   4315   4316   4318     1   109.5600471 388.275200
   4315   4329   4333     1   109.5600471 388.275200
   4315   4329   4334     1   109.5600471 388.275200
   4316   4319   4323     1   109.5600471 388.275200
   4316   4328   4331     1   107.2600461 396.643200
   4316   4315   4317     1   109.5600471 388.275200
   4317   4315   4329     1   109.5600471 388.275200
   4317   4315   4337     1   109.7800468 425.094400
   4318   4316   4319     1   109.5600471 388.275200
   4318   4316   4328     1   110.2600474 425.931200
   4319   4320   4322     1   109.5600471 388.275200
   4319   4327   4330     1   107.2600461 396.643200
   4320   4321   4324     1   110.2200475 386.601600
   4320   4326   4332     1   107.2600461 396.643200
   4320   4319   4323     1   109.5600471 388.275200
   4321   4320   4322     1   109.5600471 388.275200
   4322   4320   4326     1   110.2600474 425.931200
   4323   4319   4327     1   110.2600474 425.931200
   4324   4321   4325     1   109.5800467 425.931200
   4324   4321   4337     1   109.5800467 425.931200
   4329   4335   4336     1   107.2600461 396.643200
   4333   4329   4335     1   110.2600474 425.931200
   4333   4329   4334     1   108.4600466 328.025600
   4334   4329   4335     1   110.2600474 425.931200
   4338   4339   4341     1   109.5600471 388.275200
   4338   4352   4356     1   109.5600471 388.275200
   4338   4352   4357     1   109.5600471 388.275200
   4339   4338   4340     1   109.5600471 388.275200
   4339   4342   4346     1   109.5600471 388.275200
   4339   4351   4354     1   107.2600461 396.643200
   4340   4338   4352     1   109.5600471 388.275200
   4340   4338   4360     1   109.7800468 425.094400
   4341   4339   4342     1   109.5600471 388.275200
   4341   4339   4351     1   110.2600474 425.931200
   4342   4343   4345     1   109.5600471 388.275200
   4342   4350   4353     1   107.2600461 396.643200
   4343   4342   4346     1   109.5600471 388.275200
   4343   4344   4347     1   110.2200475 386.601600
   4343   4349   4355     1   107.2600461 396.643200
   4344   4343   4345     1   109.5600471 388.275200
   4345   4343   4349     1   110.2600474 425.931200
   4346   4342   4350     1   110.2600474 425.931200
   4347   4344   4348     1   109.5800467 425.931200
   4347   4344   4360     1   109.5800467 425.931200
   4352   4358   4359     1   107.2600461 396.643200
   4356   4352   4358     1   110.2600474 425.931200
   4356   4352   4357     1   108.4600466 328.025600
   4357   4352   4358     1   110.2600474 425.931200
   4361   4362   4364     1   109.5600471 388.275200
   4361   4375   4379     1   109.5600471 388.275200
   4361   4375   4380     1   109.5600471 388.275200
   4362   4365   4369     1   109.5600471 388.275200
   4362   4374   4377     1   107.2600461 396.643200
   4362   4361   4363     1   109.5600471 388.275200
   4363   4361   4375     1   109.5600471 388.275200
   4363   4361   4383     1   109.7800468 425.094400
   4364   4362   4365     1   109.5600471 388.275200
   4364   4362   4374     1   110.2600474 425.931200
   4365   4366   4368     1   109.5600471 388.275200
   4365   4373   4376     1   107.2600461 396.643200
   4366   4367   4370     1   110.2200475 386.601600
   4366   4372   4378     1   107.2600461 396.643200
   4366   4365   4369     1   109.5600471 388.275200
   4367   4366   4368     1   109.5600471 388.275200
   4368   4366   4372     1   110.2600474 425.931200
   4369   4365   4373     1   110.2600474 425.931200
   4370   4367   4371     1   109.5800467 425.931200
   4370   4367   4383     1   109.5800467 425.931200
   4375   4381   4382     1   107.2600461 396.643200
   4379   4375   4381     1   110.2600474 425.931200
   4379   4375   4380     1   108.4600466 328.025600
   4380   4375   4381     1   110.2600474 425.931200
   4384   4385   4387     1   109.5600471 388.275200
   4384   4398   4402     1   109.5600471 388.275200
   4384   4398   4403     1   109.5600471 388.275200
   4385   4384   4386     1   109.5600471 388.275200
   4385   4388   4392     1   109.5600471 388.275200
   4385   4397   4400     1   107.2600461 396.643200
   4386   4384   4398     1   109.5600471 388.275200
   4386   4384   4406     1   109.7800468 425.094400
   4387   4385   4388     1   109.5600471 388.275200
   4387   4385   4397     1   110.2600474 425.931200
   4388   4389   4391     1   109.5600471 388.275200
   4388   4396   4399     1   107.2600461 396.643200
   4389   4388   4392     1   109.5600471 388.275200
   4389   4390   4393     1   110.2200475 386.601600
   4389   4395   4401     1   107.2600461 396.643200
   4390   4389   4391     1   109.5600471 388.275200
   4391   4389   4395     1   110.2600474 425.931200
   4392   4388   4396     1   110.2600474 425.931200
   4393   4390   4394     1   109.5800467 425.931200
   4393   4390   4406     1   109.5800467 425.931200
   4398   4404   4405     1   107.2600461 396.643200
   4402   4398   4404     1   110.2600474 425.931200
   4402   4398   4403     1   108.4600466 328.025600
   4403   4398   4404     1   110.2600474 425.931200
   4407   4408   4410     1   109.5600471 388.275200
   4407   4421   4425     1   109.5600471 388.275200
   4407   4421   4426     1   109.5600471 388.275200
   4408   4411   4415     1   109.5600471 388.275200
   4408   4420   4423     1   107.2600461 396.643200
   4408   4407   4409     1   109.5600471 388.275200
   4409   4407   4421     1   109.5600471 388.275200
   4409   4407   4429     1   109.7800468 425.094400
   4410   4408   4411     1   109.5600471 388.275200
   4410   4408   4420     1   110.2600474 425.931200
   4411   4412   4414     1   109.5600471 388.275200
   4411   4419   4422     1   107.2600461 396.643200
   4412   4413   4416     1   110.2200475 386.601600
   4412   4418   4424     1   107.2600461 396.643200
   4412   4411   4415     1   109.5600471 388.275200
   4413   4412   4414     1   109.5600471 388.275200
   4414   4412   4418     1   110.2600474 425.931200
   4415   4411   4419     1   110.2600474 425.931200
   4416   4413   4417     1   109.5800467 425.931200
   4416   4413   4429     1   109.5800467 425.931200
   4421   4427   4428     1   107.2600461 396.643200
   4425   4421   4427     1   110.2600474 425.931200
   4425   4421   4426     1   108.4600466 328.025600
   4426   4421   4427     1   110.2600474 425.931200
   4430   4431   4433     1   109.5600471 388.275200
   4430   4444   4448     1   109.5600471 388.275200
   4430   4444   4449     1   109.5600471 388.275200
   4431   4430   4432     1   109.5600471 388.275200
   4431   4434   4438     1   109.5600471 388.275200
   4431   4443   4446     1   107.2600461 396.643200
   4432   4430   4444     1   109.5600471 388.275200
   4432   4430   4452     1   109.7800468 425.094400
   4433   4431   4434     1   109.5600471 388.275200
   4433   4431   4443     1   110.2600474 425.931200
   4434   4435   4437     1   109.5600471 388.275200
   4434   4442   4445     1   107.2600461 396.643200
   4435   4434   4438     1   109.5600471 388.275200
   4435   4436   4439     1   110.2200475 386.601600
   4435   4441   4447     1   107.2600461 396.643200
   4436   4435   4437     1   109.5600471 388.275200
   4437   4435   4441     1   110.2600474 425.931200
   4438   4434   4442     1   110.2600474 425.931200
   4439   4436   4440     1   109.5800467 425.931200
   4439   4436   4452     1   109.5800467 425.931200
   4444   4450   4451     1   107.2600461 396.643200
   4448   4444   4450     1   110.2600474 425.931200
   4448   4444   4449     1   108.4600466 328.025600
   4449   4444   4450     1   110.2600474 425.931200
   4453   4454   4456     1   109.5600471 388.275200
   4453   4467   4471     1   109.5600471 388.275200
   4453   4467   4472     1   109.5600471 388.275200
   4454   4457   4461     1   109.5600471 388.275200
   4454   4466   4469     1   107.2600461 396.643200
   4454   4453   4455     1   109.5600471 388.275200
   4455   4453   4467     1   109.5600471 388.275200
   4455   4453   4475     1   109.7800468 425.094400
   4456   4454   4457     1   109.5600471 388.275200
   4456   4454   4466     1   110.2600474 425.931200
   4457   4458   4460     1   109.5600471 388.275200
   4457   4465   4468     1   107.2600461 396.643200
   4458   4459   4462     1   110.2200475 386.601600
   4458   4464   4470     1   107.2600461 396.643200
   4458   4457   4461     1   109.5600471 388.275200
   4459   4458   4460     1   109.5600471 388.275200
   4460   4458   4464     1   110.2600474 425.931200
   4461   4457   4465     1   110.2600474 425.931200
   4462   4459   4463     1   109.5800467 425.931200
   4462   4459   4475     1   109.5800467 425.931200
   4467   4473   4474     1   107.2600461 396.643200
   4471   4467   4473     1   110.2600474 425.931200
   4471   4467   4472     1   108.4600466 328.025600
   4472   4467   4473     1   110.2600474 425.931200
   4476   4477   4479     1   109.5600471 388.275200
   4476   4490   4494     1   109.5600471 388.275200
   4476   4490   4495     1   109.5600471 388.275200
   4477   4476   4478     1   109.5600471 388.275200
   4477   4480   4484     1   109.5600471 388.275200
   4477   4489   4492     1   107.2600461 396.643200
   4478   4476   4490     1   109.5600471 388.275200
   4478   4476   4498     1   109.7800468 425.094400
   4479   4477   4480     1   109.5600471 388.275200
   4479   4477   4489     1   110.2600474 425.931200
   4480   4481   4483     1   109.5600471 388.275200
   4480   4488   4491     1   107.2600461 396.643200
   4481   4480   4484     1   109.5600471 388.275200
   4481   4482   4485     1   110.2200475 386.601600
   4481   4487   4493     1   107.2600461 396.643200
   4482   4481   4483     1   109.5600471 388.275200
   4483   4481   4487     1   110.2600474 425.931200
   4484   4480   4488     1   110.2600474 425.931200
   4485   4482   4486     1   109.5800467 425.931200
   4485   4482   4498     1   109.5800467 425.931200
   4490   4496   4497     1   107.2600461 396.643200
   4494   4490   4496     1   110.2600474 425.931200
   4494   4490   4495     1   108.4600466 328.025600
   4495   4490   4496     1   110.2600474 425.931200
   4499   4500   4502     1   109.5600471 388.275200
   4499   4513   4517     1   109.5600471 388.275200
   4499   4513   4518     1   109.5600471 388.275200
   4500   4503   4507     1   109.5600471 388.275200
   4500   4512   4515     1   107.2600461 396.643200
   4500   4499   4501     1   109.5600471 388.275200
   4501   4499   4513     1   109.5600471 388.275200
   4501   4499   4521     1   109.7800468 425.094400
   4502   4500   4503     1   109.5600471 388.275200
   4502   4500   4512     1   110.2600474 425.931200
   4503   4504   4506     1   109.5600471 388.275200
   4503   4511   4514     1   107.2600461 396.643200
   4504   4505   4508     1   110.2200475 386.601600
   4504   4510   4516     1   107.2600461 396.643200
   4504   4503   4507     1   109.5600471 388.275200
   4505   4504   4506     1   109.5600471 388.275200
   4506   4504   4510     1   110.2600474 425.931200
   4507   4503   4511     1   110.2600474 425.931200
   4508   4505   4509     1   109.5800467 425.931200
   4508   4505   4521     1   109.5800467 425.931200
   4513   4519   4520     1   107.2600461 396.643200
   4517   4513   4519     1   110.2600474 425.931200
   4517   4513   4518     1   108.4600466 328.025600
   4518   4513   4519     1   110.2600474 425.931200
   4522   4523   4525     1   109.5600471 388.275200
   4522   4536   4540     1   109.5600471 388.275200
   4522   4536   4541     1   109.5600471 388.275200
   4523   4522   4524     1   109.5600471 388.275200
   4523   4526   4530     1   109.5600471 388.275200
   4523   4535   4538     1   107.2600461 396.643200
   4524   4522   4536     1   109.5600471 388.275200
   4524   4522   4544     1   109.7800468 425.094400
   4525   4523   4526     1   109.5600471 388.275200
   4525   4523   4535     1   110.2600474 425.931200
   4526   4527   4529     1   109.5600471 388.275200
   4526   4534   4537     1   107.2600461 396.643200
   4527   4526   4530     1   109.5600471 388.275200
   4527   4528   4531     1   110.2200475 386.601600
   4527   4533   4539     1   107.2600461 396.643200
   4528   4527   4529     1   109.5600471 388.275200
   4529   4527   4533     1   110.2600474 425.931200
   4530   4526   4534     1   110.2600474 425.931200
   4531   4528   4532     1   109.5800467 425.931200
   4531   4528   4544     1   109.5800467 425.931200
   4536   4542   4543     1   107.2600461 396.643200
   4540   4536   4542     1   110.2600474 425.931200
   4540   4536   4541     1   108.4600466 328.025600
   4541   4536   4542     1   110.2600474 425.931200
   4545   4546   4548     1   109.5600471 388.275200
   4545   4559   4563     1   109.5600471 388.275200
   4545   4559   4564     1   109.5600471 388.275200
   4546   4549   4553     1   109.5600471 388.275200
   4546   4558   4561     1   107.2600461 396.643200
   4546   4545   4547     1   109.5600471 388.275200
   4547   4545   4559     1   109.5600471 388.275200
   4547   4545   4567     1   109.7800468 425.094400
   4548   4546   4549     1   109.5600471 388.275200
   4548   4546   4558     1   110.2600474 425.931200
   4549   4550   4552     1   109.5600471 388.275200
   4549   4557   4560     1   107.2600461 396.643200
   4550   4551   4554     1   110.2200475 386.601600
   4550   4556   4562     1   107.2600461 396.643200
   4550   4549   4553     1   109.5600471 388.275200
   4551   4550   4552     1   109.5600471 388.275200
   4552   4550   4556     1   110.2600474 425.931200
   4553   4549   4557     1   110.2600474 425.931200
   4554   4551   4555     1   109.5800467 425.931200
   4554   4551   4567     1   109.5800467 425.931200
   4559   4565   4566     1   107.2600461 396.643200
   4563   4559   4565     1   110.2600474 425.931200
   4563   4559   4564     1   108.4600466 328.025600
   4564   4559   4565     1   110.2600474 425.931200
   4568   4569   4571     1   109.5600471 388.275200
   4568   4582   4586     1   109.5600471 388.275200
   4568   4582   4587     1   109.5600471 388.275200
   4569   4568   4570     1   109.5600471 388.275200
   4569   4572   4576     1   109.5600471 388.275200
   4569   4581   4584     1   107.2600461 396.643200
   4570   4568   4582     1   109.5600471 388.275200
   4570   4568   4590     1   109.7800468 425.094400
   4571   4569   4572     1   109.5600471 388.275200
   4571   4569   4581     1   110.2600474 425.931200
   4572   4573   4575     1   109.5600471 388.275200
   4572   4580   4583     1   107.2600461 396.643200
   4573   4572   4576     1   109.5600471 388.275200
   4573   4574   4577     1   110.2200475 386.601600
   4573   4579   4585     1   107.2600461 396.643200
   4574   4573   4575     1   109.5600471 388.275200
   4575   4573   4579     1   110.2600474 425.931200
   4576   4572   4580     1   110.2600474 425.931200
   4577   4574   4578     1   109.5800467 425.931200
   4577   4574   4590     1   109.5800467 425.931200
   4582   4588   4589     1   107.2600461 396.643200
   4586   4582   4588     1   110.2600474 425.931200
   4586   4582   4587     1   108.4600466 328.025600
   4587   4582   4588     1   110.2600474 425.931200
   4591   4592   4594     1   109.5600471 388.275200
   4591   4605   4609     1   109.5600471 388.275200
   4591   4605   4610     1   109.5600471 388.275200
   4592   4595   4599     1   109.5600471 388.275200
   4592   4604   4607     1   107.2600461 396.643200
   4592   4591   4593     1   109.5600471 388.275200
   4593   4591   4605     1   109.5600471 388.275200
   4593   4591   4613     1   109.7800468 425.094400
   4594   4592   4595     1   109.5600471 388.275200
   4594   4592   4604     1   110.2600474 425.931200
   4595   4596   4598     1   109.5600471 388.275200
   4595   4603   4606     1   107.2600461 396.643200
   4596   4597   4600     1   110.2200475 386.601600
   4596   4602   4608     1   107.2600461 396.643200
   4596   4595   4599     1   109.5600471 388.275200
   4597   4596   4598     1   109.5600471 388.275200
   4598   4596   4602     1   110.2600474 425.931200
   4599   4595   4603     1   110.2600474 425.931200
   4600   4597   4601     1   109.5800467 425.931200
   4600   4597   4613     1   109.5800467 425.931200
   4605   4611   4612     1   107.2600461 396.643200
   4609   4605   4611     1   110.2600474 425.931200
   4609   4605   4610     1   108.4600466 328.025600
   4610   4605   4611     1   110.2600474 425.931200
   4614   4615   4617     1   109.5600471 388.275200
   4614   4628   4632     1   109.5600471 388.275200
   4614   4628   4633     1   109.5600471 388.275200
   4615   4614   4616     1   109.5600471 388.275200
   4615   4618   4622     1   109.5600471 388.275200
   4615   4627   4630     1   107.2600461 396.643200
   4616   4614   4628     1   109.5600471 388.275200
   4616   4614   4636     1   109.7800468 425.094400
   4617   4615   4618     1   109.5600471 388.275200
   4617   4615   4627     1   110.2600474 425.931200
   4618   4619   4621     1   109.5600471 388.275200
   4618   4626   4629     1   107.2600461 396.643200
   4619   4618   4622     1   109.5600471 388.275200
   4619   4620   4623     1   110.2200475 386.601600
   4619   4625   4631     1   107.2600461 396.643200
   4620   4619   4621     1   109.5600471 388.275200
   4621   4619   4625     1   110.2600474 425.931200
   4622   4618   4626     1   110.2600474 425.931200
   4623   4620   4624     1   109.5800467 425.931200
   4623   4620   4636     1   109.5800467 425.931200
   4628   4634   4635     1   107.2600461 396.643200
   4632   4628   4634     1   110.2600474 425.931200
   4632   4628   4633     1   108.4600466 328.025600
   4633   4628   4634     1   110.2600474 425.931200
   4637   4638   4640     1   109.5600471 388.275200
   4637   4651   4655     1   109.5600471 388.275200
   4637   4651   4656     1   109.5600471 388.275200
   4638   4641   4645     1   109.5600471 388.275200
   4638   4650   4653     1   107.2600461 396.643200
   4638   4637   4639     1   109.5600471 388.275200
   4639   4637   4651     1   109.5600471 388.275200
   4639   4637   4659     1   109.7800468 425.094400
   4640   4638   4641     1   109.5600471 388.275200
   4640   4638   4650     1   110.2600474 425.931200
   4641   4642   4644     1   109.5600471 388.275200
   4641   4649   4652     1   107.2600461 396.643200
   4642   4643   4646     1   110.2200475 386.601600
   4642   4648   4654     1   107.2600461 396.643200
   4642   4641   4645     1   109.5600471 388.275200
   4643   4642   4644     1   109.5600471 388.275200
   4644   4642   4648     1   110.2600474 425.931200
   4645   4641   4649     1   110.2600474 425.931200
   4646   4643   4647     1   109.5800467 425.931200
   4646   4643   4659     1   109.5800467 425.931200
   4651   4657   4658     1   107.2600461 396.643200
   4655   4651   4657     1   110.2600474 425.931200
   4655   4651   4656     1   108.4600466 328.025600
   4656   4651   4657     1   110.2600474 425.931200
   4660   4661   4663     1   109.5600471 388.275200
   4660   4674   4678     1   109.5600471 388.275200
   4660   4674   4679     1   109.5600471 388.275200
   4661   4660   4662     1   109.5600471 388.275200
   4661   4664   4668     1   109.5600471 388.275200
   4661   4673   4676     1   107.2600461 396.643200
   4662   4660   4674     1   109.5600471 388.275200
   4662   4660   4682     1   109.7800468 425.094400
   4663   4661   4664     1   109.5600471 388.275200
   4663   4661   4673     1   110.2600474 425.931200
   4664   4665   4667     1   109.5600471 388.275200
   4664   4672   4675     1   107.2600461 396.643200
   4665   4664   4668     1   109.5600471 388.275200
   4665   4666   4669     1   110.2200475 386.601600
   4665   4671   4677     1   107.2600461 396.643200
   4666   4665   4667     1   109.5600471 388.275200
   4667   4665   4671     1   110.2600474 425.931200
   4668   4664   4672     1   110.2600474 425.931200
   4669   4666   4670     1   109.5800467 425.931200
   4669   4666   4682     1   109.5800467 425.931200
   4674   4680   4681     1   107.2600461 396.643200
   4678   4674   4680     1   110.2600474 425.931200
   4678   4674   4679     1   108.4600466 328.025600
   4679   4674   4680     1   110.2600474 425.931200
   4683   4684   4686     1   109.5600471 388.275200
   4683   4697   4701     1   109.5600471 388.275200
   4683   4697   4702     1   109.5600471 388.275200
   4684   4687   4691     1   109.5600471 388.275200
   4684   4696   4699     1   107.2600461 396.643200
   4684   4683   4685     1   109.5600471 388.275200
   4685   4683   4697     1   109.5600471 388.275200
   4685   4683   4705     1   109.7800468 425.094400
   4686   4684   4687     1   109.5600471 388.275200
   4686   4684   4696     1   110.2600474 425.931200
   4687   4688   4690     1   109.5600471 388.275200
   4687   4695   4698     1   107.2600461 396.643200
   4688   4689   4692     1   110.2200475 386.601600
   4688   4694   4700     1   107.2600461 396.643200
   4688   4687   4691     1   109.5600471 388.275200
   4689   4688   4690     1   109.5600471 388.275200
   4690   4688   4694     1   110.2600474 425.931200
   4691   4687   4695     1   110.2600474 425.931200
   4692   4689   4693     1   109.5800467 425.931200
   4692   4689   4705     1   109.5800467 425.931200
   4697   4703   4704     1   107.2600461 396.643200
   4701   4697   4703     1   110.2600474 425.931200
   4701   4697   4702     1   108.4600466 328.025600
   4702   4697   4703     1   110.2600474 425.931200
   4706   4707   4709     1   109.5600471 388.275200
   4706   4720   4724     1   109.5600471 388.275200
   4706   4720   4725     1   109.5600471 388.275200
   4707   4706   4708     1   109.5600471 388.275200
   4707   4710   4714     1   109.5600471 388.275200
   4707   4719   4722     1   107.2600461 396.643200
   4708   4706   4720     1   109.5600471 388.275200
   4708   4706   4728     1   109.7800468 425.094400
   4709   4707   4710     1   109.5600471 388.275200
   4709   4707   4719     1   110.2600474 425.931200
   4710   4711   4713     1   109.5600471 388.275200
   4710   4718   4721     1   107.2600461 396.643200
   4711   4710   4714     1   109.5600471 388.275200
   4711   4712   4715     1   110.2200475 386.601600
   4711   4717   4723     1   107.2600461 396.643200
   4712   4711   4713     1   109.5600471 388.275200
   4713   4711   4717     1   110.2600474 425.931200
   4714   4710   4718     1   110.2600474 425.931200
   4715   4712   4716     1   109.5800467 425.931200
   4715   4712   4728     1   109.5800467 425.931200
   4720   4726   4727     1   107.2600461 396.643200
   4724   4720   4726     1   110.2600474 425.931200
   4724   4720   4725     1   108.4600466 328.025600
   4725   4720   4726     1   110.2600474 425.931200
   4729   4730   4732     1   109.5600471 388.275200
   4729   4743   4747     1   109.5600471 388.275200
   4729   4743   4748     1   109.5600471 388.275200
   4730   4733   4737     1   109.5600471 388.275200
   4730   4742   4745     1   107.2600461 396.643200
   4730   4729   4731     1   109.5600471 388.275200
   4731   4729   4743     1   109.5600471 388.275200
   4731   4729   4751     1   109.7800468 425.094400
   4732   4730   4733     1   109.5600471 388.275200
   4732   4730   4742     1   110.2600474 425.931200
   4733   4734   4736     1   109.5600471 388.275200
   4733   4741   4744     1   107.2600461 396.643200
   4734   4735   4738     1   110.2200475 386.601600
   4734   4740   4746     1   107.2600461 396.643200
   4734   4733   4737     1   109.5600471 388.275200
   4735   4734   4736     1   109.5600471 388.275200
   4736   4734   4740     1   110.2600474 425.931200
   4737   4733   4741     1   110.2600474 425.931200
   4738   4735   4739     1   109.5800467 425.931200
   4738   4735   4751     1   109.5800467 425.931200
   4743   4749   4750     1   107.2600461 396.643200
   4747   4743   4749     1   110.2600474 425.931200
   4747   4743   4748     1   108.4600466 328.025600
   4748   4743   4749     1   110.2600474 425.931200
   4752   4753   4755     1   109.5600471 388.275200
   4752   4766   4770     1   109.5600471 388.275200
   4752   4766   4771     1   109.5600471 388.275200
   4753   4752   4754     1   109.5600471 388.275200
   4753   4756   4760     1   109.5600471 388.275200
   4753   4765   4768     1   107.2600461 396.643200
   4754   4752   4766     1   109.5600471 388.275200
   4754   4752   4774     1   109.7800468 425.094400
   4755   4753   4756     1   109.5600471 388.275200
   4755   4753   4765     1   110.2600474 425.931200
   4756   4757   4759     1   109.5600471 388.275200
   4756   4764   4767     1   107.2600461 396.643200
   4757   4756   4760     1   109.5600471 388.275200
   4757   4758   4761     1   110.2200475 386.601600
   4757   4763   4769     1   107.2600461 396.643200
   4758   4757   4759     1   109.5600471 388.275200
   4759   4757   4763     1   110.2600474 425.931200
   4760   4756   4764     1   110.2600474 425.931200
   4761   4758   4762     1   109.5800467 425.931200
   4761   4758   4774     1   109.5800467 425.931200
   4766   4772   4773     1   107.2600461 396.643200
   4770   4766   4772     1   110.2600474 425.931200
   4770   4766   4771     1   108.4600466 328.025600
   4771   4766   4772     1   110.2600474 425.931200
   4775   4776   4778     1   109.5600471 388.275200
   4775   4789   4793     1   109.5600471 388.275200
   4775   4789   4794     1   109.5600471 388.275200
   4776   4779   4783     1   109.5600471 388.275200
   4776   4788   4791     1   107.2600461 396.643200
   4776   4775   4777     1   109.5600471 388.275200
   4777   4775   4789     1   109.5600471 388.275200
   4777   4775   4797     1   109.7800468 425.094400
   4778   4776   4779     1   109.5600471 388.275200
   4778   4776   4788     1   110.2600474 425.931200
   4779   4780   4782     1   109.5600471 388.275200
   4779   4787   4790     1   107.2600461 396.643200
   4780   4781   4784     1   110.2200475 386.601600
   4780   4786   4792     1   107.2600461 396.643200
   4780   4779   4783     1   109.5600471 388.275200
   4781   4780   4782     1   109.5600471 388.275200
   4782   4780   4786     1   110.2600474 425.931200
   4783   4779   4787     1   110.2600474 425.931200
   4784   4781   4785     1   109.5800467 425.931200
   4784   4781   4797     1   109.5800467 425.931200
   4789   4795   4796     1   107.2600461 396.643200
   4793   4789   4795     1   110.2600474 425.931200
   4793   4789   4794     1   108.4600466 328.025600
   4794   4789   4795     1   110.2600474 425.931200
   4798   4799   4801     1   109.5600471 388.275200
   4798   4812   4816     1   109.5600471 388.275200
   4798   4812   4817     1   109.5600471 388.275200
   4799   4798   4800     1   109.5600471 388.275200
   4799   4802   4806     1   109.5600471 388.275200
   4799   4811   4814     1   107.2600461 396.643200
   4800   4798   4812     1   109.5600471 388.275200
   4800   4798   4820     1   109.7800468 425.094400
   4801   4799   4802     1   109.5600471 388.275200
   4801   4799   4811     1   110.2600474 425.931200
   4802   4803   4805     1   109.5600471 388.275200
   4802   4810   4813     1   107.2600461 396.643200
   4803   4802   4806     1   109.5600471 388.275200
   4803   4804   4807     1   110.2200475 386.601600
   4803   4809   4815     1   107.2600461 396.643200
   4804   4803   4805     1   109.5600471 388.275200
   4805   4803   4809     1   110.2600474 425.931200
   4806   4802   4810     1   110.2600474 425.931200
   4807   4804   4808     1   109.5800467 425.931200
   4807   4804   4820     1   109.5800467 425.931200
   4812   4818   4819     1   107.2600461 396.643200
   4816   4812   4818     1   110.2600474 425.931200
   4816   4812   4817     1   108.4600466 328.025600
   4817   4812   4818     1   110.2600474 425.931200
   4821   4822   4824     1   109.5600471 388.275200
   4821   4835   4839     1   109.5600471 388.275200
   4821   4835   4840     1   109.5600471 388.275200
   4822   4825   4829     1   109.5600471 388.275200
   4822   4834   4837     1   107.2600461 396.643200
   4822   4821   4823     1   109.5600471 388.275200
   4823   4821   4835     1   109.5600471 388.275200
   4823   4821   4843     1   109.7800468 425.094400
   4824   4822   4825     1   109.5600471 388.275200
   4824   4822   4834     1   110.2600474 425.931200
   4825   4826   4828     1   109.5600471 388.275200
   4825   4833   4836     1   107.2600461 396.643200
   4826   4827   4830     1   110.2200475 386.601600
   4826   4832   4838     1   107.2600461 396.643200
   4826   4825   4829     1   109.5600471 388.275200
   4827   4826   4828     1   109.5600471 388.275200
   4828   4826   4832     1   110.2600474 425.931200
   4829   4825   4833     1   110.2600474 425.931200
   4830   4827   4831     1   109.5800467 425.931200
   4830   4827   4843     1   109.5800467 425.931200
   4835   4841   4842     1   107.2600461 396.643200
   4839   4835   4841     1   110.2600474 425.931200
   4839   4835   4840     1   108.4600466 328.025600
   4840   4835   4841     1   110.2600474 425.931200
   4844   4845   4847     1   109.5600471 388.275200
   4844   4858   4862     1   109.5600471 388.275200
   4844   4858   4863     1   109.5600471 388.275200
   4845   4844   4846     1   109.5600471 388.275200
   4845   4848   4852     1   109.5600471 388.275200
   4845   4857   4860     1   107.2600461 396.643200
   4846   4844   4858     1   109.5600471 388.275200
   4846   4844   4866     1   109.7800468 425.094400
   4847   4845   4848     1   109.5600471 388.275200
   4847   4845   4857     1   110.2600474 425.931200
   4848   4849   4851     1   109.5600471 388.275200
   4848   4856   4859     1   107.2600461 396.643200
   4849   4848   4852     1   109.5600471 388.275200
   4849   4850   4853     1   110.2200475 386.601600
   4849   4855   4861     1   107.2600461 396.643200
   4850   4849   4851     1   109.5600471 388.275200
   4851   4849   4855     1   110.2600474 425.931200
   4852   4848   4856     1   110.2600474 425.931200
   4853   4850   4854     1   109.5800467 425.931200
   4853   4850   4866     1   109.5800467 425.931200
   4858   4864   4865     1   107.2600461 396.643200
   4862   4858   4864     1   110.2600474 425.931200
   4862   4858   4863     1   108.4600466 328.025600
   4863   4858   4864     1   110.2600474 425.931200
   4867   4868   4870     1   109.5600471 388.275200
   4867   4881   4885     1   109.5600471 388.275200
   4867   4881   4886     1   109.5600471 388.275200
   4868   4871   4875     1   109.5600471 388.275200
   4868   4880   4883     1   107.2600461 396.643200
   4868   4867   4869     1   109.5600471 388.275200
   4869   4867   4881     1   109.5600471 388.275200
   4869   4867   4889     1   109.7800468 425.094400
   4870   4868   4871     1   109.5600471 388.275200
   4870   4868   4880     1   110.2600474 425.931200
   4871   4872   4874     1   109.5600471 388.275200
   4871   4879   4882     1   107.2600461 396.643200
   4872   4873   4876     1   110.2200475 386.601600
   4872   4878   4884     1   107.2600461 396.643200
   4872   4871   4875     1   109.5600471 388.275200
   4873   4872   4874     1   109.5600471 388.275200
   4874   4872   4878     1   110.2600474 425.931200
   4875   4871   4879     1   110.2600474 425.931200
   4876   4873   4877     1   109.5800467 425.931200
   4876   4873   4889     1   109.5800467 425.931200
   4881   4887   4888     1   107.2600461 396.643200
   4885   4881   4887     1   110.2600474 425.931200
   4885   4881   4886     1   108.4600466 328.025600
   4886   4881   4887     1   110.2600474 425.931200
   4890   4891   4893     1   109.5600471 388.275200
   4890   4904   4908     1   109.5600471 388.275200
   4890   4904   4909     1   109.5600471 388.275200
   4891   4890   4892     1   109.5600471 388.275200
   4891   4894   4898     1   109.5600471 388.275200
   4891   4903   4906     1   107.2600461 396.643200
   4892   4890   4904     1   109.5600471 388.275200
   4892   4890   4912     1   109.7800468 425.094400
   4893   4891   4894     1   109.5600471 388.275200
   4893   4891   4903     1   110.2600474 425.931200
   4894   4895   4897     1   109.5600471 388.275200
   4894   4902   4905     1   107.2600461 396.643200
   4895   4894   4898     1   109.5600471 388.275200
   4895   4896   4899     1   110.2200475 386.601600
   4895   4901   4907     1   107.2600461 396.643200
   4896   4895   4897     1   109.5600471 388.275200
   4897   4895   4901     1   110.2600474 425.931200
   4898   4894   4902     1   110.2600474 425.931200
   4899   4896   4900     1   109.5800467 425.931200
   4899   4896   4912     1   109.5800467 425.931200
   4904   4910   4911     1   107.2600461 396.643200
   4908   4904   4910     1   110.2600474 425.931200
   4908   4904   4909     1   108.4600466 328.025600
   4909   4904   4910     1   110.2600474 425.931200
   4913   4914   4916     1   109.5600471 388.275200
   4913   4927   4931     1   109.5600471 388.275200
   4913   4927   4932     1   109.5600471 388.275200
   4914   4917   4921     1   109.5600471 388.275200
   4914   4926   4929     1   107.2600461 396.643200
   4914   4913   4915     1   109.5600471 388.275200
   4915   4913   4927     1   109.5600471 388.275200
   4915   4913   4935     1   109.7800468 425.094400
   4916   4914   4917     1   109.5600471 388.275200
   4916   4914   4926     1   110.2600474 425.931200
   4917   4918   4920     1   109.5600471 388.275200
   4917   4925   4928     1   107.2600461 396.643200
   4918   4919   4922     1   110.2200475 386.601600
   4918   4924   4930     1   107.2600461 396.643200
   4918   4917   4921     1   109.5600471 388.275200
   4919   4918   4920     1   109.5600471 388.275200
   4920   4918   4924     1   110.2600474 425.931200
   4921   4917   4925     1   110.2600474 425.931200
   4922   4919   4923     1   109.5800467 425.931200
   4922   4919   4935     1   109.5800467 425.931200
   4927   4933   4934     1   107.2600461 396.643200
   4931   4927   4933     1   110.2600474 425.931200
   4931   4927   4932     1   108.4600466 328.025600
   4932   4927   4933     1   110.2600474 425.931200
   4936   4937   4939     1   109.5600471 388.275200
   4936   4950   4954     1   109.5600471 388.275200
   4936   4950   4955     1   109.5600471 388.275200
   4937   4936   4938     1   109.5600471 388.275200
   4937   4940   4944     1   109.5600471 388.275200
   4937   4949   4952     1   107.2600461 396.643200
   4938   4936   4950     1   109.5600471 388.275200
   4938   4936   4958     1   109.7800468 425.094400
   4939   4937   4940     1   109.5600471 388.275200
   4939   4937   4949     1   110.2600474 425.931200
   4940   4941   4943     1   109.5600471 388.275200
   4940   4948   4951     1   107.2600461 396.643200
   4941   4940   4944     1   109.5600471 388.275200
   4941   4942   4945     1   110.2200475 386.601600
   4941   4947   4953     1   107.2600461 396.643200
   4942   4941   4943     1   109.5600471 388.275200
   4943   4941   4947     1   110.2600474 425.931200
   4944   4940   4948     1   110.2600474 425.931200
   4945   4942   4946     1   109.5800467 425.931200
   4945   4942   4958     1   109.5800467 425.931200
   4950   4956   4957     1   107.2600461 396.643200
   4954   4950   4956     1   110.2600474 425.931200
   4954   4950   4955     1   108.4600466 328.025600
   4955   4950   4956     1   110.2600474 425.931200
   4959   4960   4962     1   109.5600471 388.275200
   4959   4973   4977     1   109.5600471 388.275200
   4959   4973   4978     1   109.5600471 388.275200
   4960   4963   4967     1   109.5600471 388.275200
   4960   4972   4975     1   107.2600461 396.643200
   4960   4959   4961     1   109.5600471 388.275200
   4961   4959   4973     1   109.5600471 388.275200
   4961   4959   4981     1   109.7800468 425.094400
   4962   4960   4963     1   109.5600471 388.275200
   4962   4960   4972     1   110.2600474 425.931200
   4963   4964   4966     1   109.5600471 388.275200
   4963   4971   4974     1   107.2600461 396.643200
   4964   4965   4968     1   110.2200475 386.601600
   4964   4970   4976     1   107.2600461 396.643200
   4964   4963   4967     1   109.5600471 388.275200
   4965   4964   4966     1   109.5600471 388.275200
   4966   4964   4970     1   110.2600474 425.931200
   4967   4963   4971     1   110.2600474 425.931200
   4968   4965   4969     1   109.5800467 425.931200
   4968   4965   4981     1   109.5800467 425.931200
   4973   4979   4980     1   107.2600461 396.643200
   4977   4973   4979     1   110.2600474 425.931200
   4977   4973   4978     1   108.4600466 328.025600
   4978   4973   4979     1   110.2600474 425.931200
   4982   4983   4985     1   109.5600471 388.275200
   4982   4996   5000     1   109.5600471 388.275200
   4982   4996   5001     1   109.5600471 388.275200
   4983   4982   4984     1   109.5600471 388.275200
   4983   4986   4990     1   109.5600471 388.275200
   4983   4995   4998     1   107.2600461 396.643200
   4984   4982   4996     1   109.5600471 388.275200
   4984   4982   5004     1   109.7800468 425.094400
   4985   4983   4986     1   109.5600471 388.275200
   4985   4983   4995     1   110.2600474 425.931200
   4986   4987   4989     1   109.5600471 388.275200
   4986   4994   4997     1   107.2600461 396.643200
   4987   4986   4990     1   109.5600471 388.275200
   4987   4988   4991     1   110.2200475 386.601600
   4987   4993   4999     1   107.2600461 396.643200
   4988   4987   4989     1   109.5600471 388.275200
   4989   4987   4993     1   110.2600474 425.931200
   4990   4986   4994     1   110.2600474 425.931200
   4991   4988   4992     1   109.5800467 425.931200
   4991   4988   5004     1   109.5800467 425.931200
   4996   5002   5003     1   107.2600461 396.643200
   5000   4996   5002     1   110.2600474 425.931200
   5000   4996   5001     1   108.4600466 328.025600
   5001   4996   5002     1   110.2600474 425.931200
   5005   5006   5008     1   109.5600471 388.275200
   5005   5019   5023     1   109.5600471 388.275200
   5005   5019   5024     1   109.5600471 388.275200
   5006   5009   5013     1   109.5600471 388.275200
   5006   5018   5021     1   107.2600461 396.643200
   5006   5005   5007     1   109.5600471 388.275200
   5007   5005   5019     1   109.5600471 388.275200
   5007   5005   5027     1   109.7800468 425.094400
   5008   5006   5009     1   109.5600471 388.275200
   5008   5006   5018     1   110.2600474 425.931200
   5009   5010   5012     1   109.5600471 388.275200
   5009   5017   5020     1   107.2600461 396.643200
   5010   5011   5014     1   110.2200475 386.601600
   5010   5016   5022     1   107.2600461 396.643200
   5010   5009   5013     1   109.5600471 388.275200
   5011   5010   5012     1   109.5600471 388.275200
   5012   5010   5016     1   110.2600474 425.931200
   5013   5009   5017     1   110.2600474 425.931200
   5014   5011   5015     1   109.5800467 425.931200
   5014   5011   5027     1   109.5800467 425.931200
   5019   5025   5026     1   107.2600461 396.643200
   5023   5019   5025     1   110.2600474 425.931200
   5023   5019   5024     1   108.4600466 328.025600
   5024   5019   5025     1   110.2600474 425.931200

[ dihedrals ]
;    ai     aj     ak     al funct         c0         c1         c2         c3         c4         c5
      1      2     14     26     1  0.0000000  0.6508444  3
      1      5     17     20     1  0.0000000  0.6508444  3
      1      8     11     23     1  0.0000000  0.6508444  3
      2      1      5     17     1  0.0000000  0.6508444  3
      2      1      8     11     1  0.0000000  0.6508444  3
      2     14     26    118     1  0.0000000  0.6508444  3
      5      1      2     14     1  0.0000000  0.6508444  3
      5      1      8     11     1  0.0000000  0.6508444  3
      5     17     20     58     1  0.0000000  0.6508444  3
      8      1      2     14     1  0.0000000  0.6508444  3
      8      1      5     17     1  0.0000000  0.6508444  3
      8     11     23     88     1  0.0000000  0.6508444  3
     11     23     88     79     1  180.0000771  0.4184000  2
     11     23     88     79     1  0.0000000  1.6024720  3
     14     26    118    109     1  180.0000771  0.4184000  2
     14     26    118    109     1  0.0000000  1.6024720  3
     17     20     58     49     1  180.0000771  0.4184000  2
     17     20     58     49     1  0.0000000  1.6024720  3
     20     58     49     40     1  180.0000771  0.4184000  2
     20     58     49     40     1  0.0000000  1.6024720  3
     23     88     79     70     1  180.0000771  0.4184000  2
     23     88     79     70     1  0.0000000  1.6024720  3
     26    118    109    100     1  180.0000771  0.4184000  2
     26    118    109    100     1  0.0000000  1.6024720  3
     30     31     43     55     1  0.0000000  0.6508444  3
     30     34     46     52     1  0.0000000  0.6508444  3
     30     37     40     49     1  0.0000000  0.6508444  3
     31     30     34     46     1  0.0000000  0.6508444  3
     31     30     37     40     1  0.0000000  0.6508444  3
     31     43     55    178     1  0.0000000  0.6508444  3
     34     30     31     43     1  0.0000000  0.6508444  3
     34     30     37     40     1  0.0000000  0.6508444  3
     34     46     52    148     1  0.0000000  0.6508444  3
     37     30     31     43     1  0.0000000  0.6508444  3
     37     30     34     46     1  0.0000000  0.6508444  3
     37     40     49     58     1  0.0000000  0.6508444  3
     43     55    178    169     1  180.0000771  0.4184000  2
     43     55    178    169     1  0.0000000  1.6024720  3
     46     52    148    139     1  180.0000771  0.4184000  2
     46     52    148    139     1  0.0000000  1.6024720  3
     52    148    139    130     1  180.0000771  0.4184000  2
     52    148    139    130     1  0.0000000  1.6024720  3
     55    178    169    160     1  180.0000771  0.4184000  2
     55    178    169    160     1  0.0000000  1.6024720  3
     60     61     73     85     1  0.0000000  0.6508444  3
     60     64     76     82     1  0.0000000  0.6508444  3
     60     67     70     79     1  0.0000000  0.6508444  3
     61     60     64     76     1  0.0000000  0.6508444  3
     61     60     67     70     1  0.0000000  0.6508444  3
     61     73     85    238     1  0.0000000  0.6508444  3
     64     60     61     73     1  0.0000000  0.6508444  3
     64     60     67     70     1  0.0000000  0.6508444  3
     64     76     82    208     1  0.0000000  0.6508444  3
     67     60     61     73     1  0.0000000  0.6508444  3
     67     60     64     76     1  0.0000000  0.6508444  3
     67     70     79     88     1  0.0000000  0.6508444  3
     73     85    238    229     1  180.0000771  0.4184000  2
     73     85    238    229     1  0.0000000  1.6024720  3
     76     82    208    199     1  180.0000771  0.4184000  2
     76     82    208    199     1  0.0000000  1.6024720  3
     82    208    199    190     1  180.0000771  0.4184000  2
     82    208    199    190     1  0.0000000  1.6024720  3
     85    238    229    220     1  180.0000771  0.4184000  2
     85    238    229    220     1  0.0000000  1.6024720  3
     90     91    103    115     1  0.0000000  0.6508444  3
     90     94    106    112     1  0.0000000  0.6508444  3
     90     97    100    109     1  0.0000000  0.6508444  3
     91     90     94    106     1  0.0000000  0.6508444  3
     91     90     97    100     1  0.0000000  0.6508444  3
     91    103    115    298     1  0.0000000  0.6508444  3
     94     90     91    103     1  0.0000000  0.6508444  3
     94     90     97    100     1  0.0000000  0.6508444  3
     94    106    112    268     1  0.0000000  0.6508444  3
     97     90     91    103     1  0.0000000  0.6508444  3
     97     90     94    106     1  0.0000000  0.6508444  3
     97    100    109    118     1  0.0000000  0.6508444  3
    103    115    298    289     1  180.0000771  0.4184000  2
    103    115    298    289     1  0.0000000  1.6024720  3
    106    112    268    259     1  180.0000771  0.4184000  2
    106    112    268    259     1  0.0000000  1.6024720  3
    112    268    259    250     1  180.0000771  0.4184000  2
    112    268    259    250     1  0.0000000  1.6024720  3
    115    298    289    280     1  180.0000771  0.4184000  2
    115    298    289    280     1  0.0000000  1.6024720  3
    120    121    133    145     1  0.0000000  0.6508444  3
    120    124    136    142     1  0.0000000  0.6508444  3
    120    127    130    139     1  0.0000000  0.6508444  3
    121    120    124    136     1  0.0000000  0.6508444  3
    121    120    127    130     1  0.0000000  0.6508444  3
    121    133    145    358     1  0.0000000  0.6508444  3
    124    120    121    133     1  0.0000000  0.6508444  3
    124    120    127    130     1  0.0000000  0.6508444  3
    124    136    142    328     1  0.0000000  0.6508444  3
    127    120    121    133     1  0.0000000  0.6508444  3
    127    120    124    136     1  0.0000000  0.6508444  3
    127    130    139    148     1  0.0000000  0.6508444  3
    133    145    358    349     1  180.0000771  0.4184000  2
    133    145    358    349     1  0.0000000  1.6024720  3
    136    142    328    319     1  180.0000771  0.4184000  2
    136    142    328    319     1  0.0000000  1.6024720  3
    142    328    319    310     1  180.0000771  0.4184000  2
    142    328    319    310     1  0.0000000  1.6024720  3
    145    358    349    340     1  180.0000771  0.4184000  2
    145    358    349    340     1  0.0000000  1.6024720  3
    150    151    163    175     1  0.0000000  0.6508444  3
    150    154    166    172     1  0.0000000  0.6508444  3
    150    157    160    169     1  0.0000000  0.6508444  3
    151    150    154    166     1  0.0000000  0.6508444  3
    151    150    157    160     1  0.0000000  0.6508444  3
    151    163    175    418     1  0.0000000  0.6508444  3
    154    150    151    163     1  0.0000000  0.6508444  3
    154    150    157    160     1  0.0000000  0.6508444  3
    154    166    172    388     1  0.0000000  0.6508444  3
    157    150    151    163     1  0.0000000  0.6508444  3
    157    150    154    166     1  0.0000000  0.6508444  3
    157    160    169    178     1  0.0000000  0.6508444  3
    163    175    418    409     1  180.0000771  0.4184000  2
    163    175    418    409     1  0.0000000  1.6024720  3
    166    172    388    379     1  180.0000771  0.4184000  2
    166    172    388    379     1  0.0000000  1.6024720  3
    172    388    379    370     1  180.0000771  0.4184000  2
    172    388    379    370     1  0.0000000  1.6024720  3
    175    418    409    400     1  180.0000771  0.4184000  2
    175    418    409    400     1  0.0000000  1.6024720  3
    180    181    193    205     1  0.0000000  0.6508444  3
    180    184    196    202     1  0.0000000  0.6508444  3
    180    187    190    199     1  0.0000000  0.6508444  3
    181    180    184    196     1  0.0000000  0.6508444  3
    181    180    187    190     1  0.0000000  0.6508444  3
    181    193    205    478     1  0.0000000  0.6508444  3
    184    180    181    193     1  0.0000000  0.6508444  3
    184    180    187    190     1  0.0000000  0.6508444  3
    184    196    202    448     1  0.0000000  0.6508444  3
    187    180    181    193     1  0.0000000  0.6508444  3
    187    180    184    196     1  0.0000000  0.6508444  3
    187    190    199    208     1  0.0000000  0.6508444  3
    193    205    478    469     1  180.0000771  0.4184000  2
    193    205    478    469     1  0.0000000  1.6024720  3
    196    202    448    439     1  180.0000771  0.4184000  2
    196    202    448    439     1  0.0000000  1.6024720  3
    202    448    439    430     1  180.0000771  0.4184000  2
    202    448    439    430     1  0.0000000  1.6024720  3
    205    478    469    460     1  180.0000771  0.4184000  2
    205    478    469    460     1  0.0000000  1.6024720  3
    210    211    223    235     1  0.0000000  0.6508444  3
    210    214    226    232     1  0.0000000  0.6508444  3
    210    217    220    229     1  0.0000000  0.6508444  3
    211    210    214    226     1  0.0000000  0.6508444  3
    211    210    217    220     1  0.0000000  0.6508444  3
    211    223    235    538     1  0.0000000  0.6508444  3
    214    210    211    223     1  0.0000000  0.6508444  3
    214    210    217    220     1  0.0000000  0.6508444  3
    214    226    232    508     1  0.0000000  0.6508444  3
    217    210    211    223     1  0.0000000  0.6508444  3
    217    210    214    226     1  0.0000000  0.6508444  3
    217    220    229    238     1  0.0000000  0.6508444  3
    223    235    538    529     1  180.0000771  0.4184000  2
    223    235    538    529     1  0.0000000  1.6024720  3
    226    232    508    499     1  180.0000771  0.4184000  2
    226    232    508    499     1  0.0000000  1.6024720  3
    232    508    499    490     1  180.0000771  0.4184000  2
    232    508    499    490     1  0.0000000  1.6024720  3
    235    538    529    520     1  180.0000771  0.4184000  2
    235    538    529    520     1  0.0000000  1.6024720  3
    240    241    253    265     1  0.0000000  0.6508444  3
    240    244    256    262     1  0.0000000  0.6508444  3
    240    247    250    259     1  0.0000000  0.6508444  3
    241    240    244    256     1  0.0000000  0.6508444  3
    241    240    247    250     1  0.0000000  0.6508444  3
    241    253    265    598     1  0.0000000  0.6508444  3
    244    240    241    253     1  0.0000000  0.6508444  3
    244    240    247    250     1  0.0000000  0.6508444  3
    244    256    262    568     1  0.0000000  0.6508444  3
    247    240    241    253     1  0.0000000  0.6508444  3
    247    240    244    256     1  0.0000000  0.6508444  3
    247    250    259    268     1  0.0000000  0.6508444  3
    253    265    598    589     1  180.0000771  0.4184000  2
    253    265    598    589     1  0.0000000  1.6024720  3
    256    262    568    559     1  180.0000771  0.4184000  2
    256    262    568    559     1  0.0000000  1.6024720  3
    262    568    559    550     1  180.0000771  0.4184000  2
    262    568    559    550     1  0.0000000  1.6024720  3
    265    598    589    580     1  180.0000771  0.4184000  2
    265    598    589    580     1  0.0000000  1.6024720  3
    270    271    283    295     1  0.0000000  0.6508444  3
    270    274    286    292     1  0.0000000  0.6508444  3
    270    277    280    289     1  0.0000000  0.6508444  3
    271    270    274    286     1  0.0000000  0.6508444  3
    271    270    277    280     1  0.0000000  0.6508444  3
    271    283    295    658     1  0.0000000  0.6508444  3
    274    270    271    283     1  0.0000000  0.6508444  3
    274    270    277    280     1  0.0000000  0.6508444  3
    274    286    292    628     1  0.0000000  0.6508444  3
    277    270    271    283     1  0.0000000  0.6508444  3
    277    270    274    286     1  0.0000000  0.6508444  3
    277    280    289    298     1  0.0000000  0.6508444  3
    283    295    658    649     1  180.0000771  0.4184000  2
    283    295    658    649     1  0.0000000  1.6024720  3
    286    292    628    619     1  180.0000771  0.4184000  2
    286    292    628    619     1  0.0000000  1.6024720  3
    292    628    619    610     1  180.0000771  0.4184000  2
    292    628    619    610     1  0.0000000  1.6024720  3
    295    658    649    640     1  180.0000771  0.4184000  2
    295    658    649    640     1  0.0000000  1.6024720  3
    300    301    313    325     1  0.0000000  0.6508444  3
    300    304    316    322     1  0.0000000  0.6508444  3
    300    307    310    319     1  0.0000000  0.6508444  3
    301    300    304    316     1  0.0000000  0.6508444  3
    301    300    307    310     1  0.0000000  0.6508444  3
    301    313    325    718     1  0.0000000  0.6508444  3
    304    300    301    313     1  0.0000000  0.6508444  3
    304    300    307    310     1  0.0000000  0.6508444  3
    304    316    322    688     1  0.0000000  0.6508444  3
    307    300    301    313     1  0.0000000  0.6508444  3
    307    300    304    316     1  0.0000000  0.6508444  3
    307    310    319    328     1  0.0000000  0.6508444  3
    313    325    718    709     1  180.0000771  0.4184000  2
    313    325    718    709     1  0.0000000  1.6024720  3
    316    322    688    679     1  180.0000771  0.4184000  2
    316    322    688    679     1  0.0000000  1.6024720  3
    322    688    679    670     1  180.0000771  0.4184000  2
    322    688    679    670     1  0.0000000  1.6024720  3
    325    718    709    700     1  180.0000771  0.4184000  2
    325    718    709    700     1  0.0000000  1.6024720  3
    330    331    343    355     1  0.0000000  0.6508444  3
    330    334    346    352     1  0.0000000  0.6508444  3
    330    337    340    349     1  0.0000000  0.6508444  3
    331    330    334    346     1  0.0000000  0.6508444  3
    331    330    337    340     1  0.0000000  0.6508444  3
    331    343    355    778     1  0.0000000  0.6508444  3
    334    330    331    343     1  0.0000000  0.6508444  3
    334    330    337    340     1  0.0000000  0.6508444  3
    334    346    352    748     1  0.0000000  0.6508444  3
    337    330    331    343     1  0.0000000  0.6508444  3
    337    330    334    346     1  0.0000000  0.6508444  3
    337    340    349    358     1  0.0000000  0.6508444  3
    343    355    778    769     1  180.0000771  0.4184000  2
    343    355    778    769     1  0.0000000  1.6024720  3
    346    352    748    739     1  180.0000771  0.4184000  2
    346    352    748    739     1  0.0000000  1.6024720  3
    352    748    739    730     1  180.0000771  0.4184000  2
    352    748    739    730     1  0.0000000  1.6024720  3
    355    778    769    760     1  180.0000771  0.4184000  2
    355    778    769    760     1  0.0000000  1.6024720  3
    360    361    373    385     1  0.0000000  0.6508444  3
    360    364    376    382     1  0.0000000  0.6508444  3
    360    367    370    379     1  0.0000000  0.6508444  3
    361    360    364    376     1  0.0000000  0.6508444  3
    361    360    367    370     1  0.0000000  0.6508444  3
    361    373    385    838     1  0.0000000  0.6508444  3
    364    360    361    373     1  0.0000000  0.6508444  3
    364    360    367    370     1  0.0000000  0.6508444  3
    364    376    382    808     1  0.0000000  0.6508444  3
    367    360    361    373     1  0.0000000  0.6508444  3
    367    360    364    376     1  0.0000000  0.6508444  3
    367    370    379    388     1  0.0000000  0.6508444  3
    373    385    838    829     1  180.0000771  0.4184000  2
    373    385    838    829     1  0.0000000  1.6024720  3
    376    382    808    799     1  180.0000771  0.4184000  2
    376    382    808    799     1  0.0000000  1.6024720  3
    382    808    799    790     1  180.0000771  0.4184000  2
    382    808    799    790     1  0.0000000  1.6024720  3
    385    838    829    820     1  180.0000771  0.4184000  2
    385    838    829    820     1  0.0000000  1.6024720  3
    390    391    403    415     1  0.0000000  0.6508444  3
    390    394    406    412     1  0.0000000  0.6508444  3
    390    397    400    409     1  0.0000000  0.6508444  3
    391    390    394    406     1  0.0000000  0.6508444  3
    391    390    397    400     1  0.0000000  0.6508444  3
    391    403    415    898     1  0.0000000  0.6508444  3
    394    390    391    403     1  0.0000000  0.6508444  3
    394    390    397    400     1  0.0000000  0.6508444  3
    394    406    412    868     1  0.0000000  0.6508444  3
    397    390    391    403     1  0.0000000  0.6508444  3
    397    390    394    406     1  0.0000000  0.6508444  3
    397    400    409    418     1  0.0000000  0.6508444  3
    403    415    898    889     1  180.0000771  0.4184000  2
    403    415    898    889     1  0.0000000  1.6024720  3
    406    412    868    859     1  180.0000771  0.4184000  2
    406    412    868    859     1  0.0000000  1.6024720  3
    412    868    859    850     1  180.0000771  0.4184000  2
    412    868    859    850     1  0.0000000  1.6024720  3
    415    898    889    880     1  180.0000771  0.4184000  2
    415    898    889    880     1  0.0000000  1.6024720  3
    420    421    433    445     1  0.0000000  0.6508444  3
    420    424    436    442     1  0.0000000  0.6508444  3
    420    427    430    439     1  0.0000000  0.6508444  3
    421    420    424    436     1  0.0000000  0.6508444  3
    421    420    427    430     1  0.0000000  0.6508444  3
    421    433    445    958     1  0.0000000  0.6508444  3
    424    420    421    433     1  0.0000000  0.6508444  3
    424    420    427    430     1  0.0000000  0.6508444  3
    424    436    442    928     1  0.0000000  0.6508444  3
    427    420    421    433     1  0.0000000  0.6508444  3
    427    420    424    436     1  0.0000000  0.6508444  3
    427    430    439    448     1  0.0000000  0.6508444  3
    433    445    958    949     1  180.0000771  0.4184000  2
    433    445    958    949     1  0.0000000  1.6024720  3
    436    442    928    919     1  180.0000771  0.4184000  2
    436    442    928    919     1  0.0000000  1.6024720  3
    442    928    919    910     1  180.0000771  0.4184000  2
    442    928    919    910     1  0.0000000  1.6024720  3
    445    958    949    940     1  180.0000771  0.4184000  2
    445    958    949    940     1  0.0000000  1.6024720  3
    450    451    463    475     1  0.0000000  0.6508444  3
    450    454    466    472     1  0.0000000  0.6508444  3
    450    457    460    469     1  0.0000000  0.6508444  3
    451    450    454    466     1  0.0000000  0.6508444  3
    451    450    457    460     1  0.0000000  0.6508444  3
    451    463    475   1018     1  0.0000000  0.6508444  3
    454    450    451    463     1  0.0000000  0.6508444  3
    454    450    457    460     1  0.0000000  0.6508444  3
    454    466    472    988     1  0.0000000  0.6508444  3
    457    450    451    463     1  0.0000000  0.6508444  3
    457    450    454    466     1  0.0000000  0.6508444  3
    457    460    469    478     1  0.0000000  0.6508444  3
    463    475   1018   1009     1  180.0000771  0.4184000  2
    463    475   1018   1009     1  0.0000000  1.6024720  3
    466    472    988    979     1  180.0000771  0.4184000  2
    466    472    988    979     1  0.0000000  1.6024720  3
    472    988    979    970     1  180.0000771  0.4184000  2
    472    988    979    970     1  0.0000000  1.6024720  3
    475   1018   1009   1000     1  180.0000771  0.4184000  2
    475   1018   1009   1000     1  0.0000000  1.6024720  3
    480    481    493    505     1  0.0000000  0.6508444  3
    480    484    496    502     1  0.0000000  0.6508444  3
    480    487    490    499     1  0.0000000  0.6508444  3
    481    480    484    496     1  0.0000000  0.6508444  3
    481    480    487    490     1  0.0000000  0.6508444  3
    481    493    505   1078     1  0.0000000  0.6508444  3
    484    480    481    493     1  0.0000000  0.6508444  3
    484    480    487    490     1  0.0000000  0.6508444  3
    484    496    502   1048     1  0.0000000  0.6508444  3
    487    480    481    493     1  0.0000000  0.6508444  3
    487    480    484    496     1  0.0000000  0.6508444  3
    487    490    499    508     1  0.0000000  0.6508444  3
    493    505   1078   1069     1  180.0000771  0.4184000  2
    493    505   1078   1069     1  0.0000000  1.6024720  3
    496    502   1048   1039     1  180.0000771  0.4184000  2
    496    502   1048   1039     1  0.0000000  1.6024720  3
    502   1048   1039   1030     1  180.0000771  0.4184000  2
    502   1048   1039   1030     1  0.0000000  1.6024720  3
    505   1078   1069   1060     1  180.0000771  0.4184000  2
    505   1078   1069   1060     1  0.0000000  1.6024720  3
    510    511    523    535     1  0.0000000  0.6508444  3
    510    514    526    532     1  0.0000000  0.6508444  3
    510    517    520    529     1  0.0000000  0.6508444  3
    511    510    514    526     1  0.0000000  0.6508444  3
    511    510    517    520     1  0.0000000  0.6508444  3
    511    523    535   1138     1  0.0000000  0.6508444  3
    514    510    511    523     1  0.0000000  0.6508444  3
    514    510    517    520     1  0.0000000  0.6508444  3
    514    526    532   1108     1  0.0000000  0.6508444  3
    517    510    511    523     1  0.0000000  0.6508444  3
    517    510    514    526     1  0.0000000  0.6508444  3
    517    520    529    538     1  0.0000000  0.6508444  3
    523    535   1138   1129     1  180.0000771  0.4184000  2
    523    535   1138   1129     1  0.0000000  1.6024720  3
    526    532   1108   1099     1  180.0000771  0.4184000  2
    526    532   1108   1099     1  0.0000000  1.6024720  3
    532   1108   1099   1090     1  180.0000771  0.4184000  2
    532   1108   1099   1090     1  0.0000000  1.6024720  3
    535   1138   1129   1120     1  180.0000771  0.4184000  2
    535   1138   1129   1120     1  0.0000000  1.6024720  3
    540    541    553    565     1  0.0000000  0.6508444  3
    540    544    556    562     1  0.0000000  0.6508444  3
    540    547    550    559     1  0.0000000  0.6508444  3
    541    540    544    556     1  0.0000000  0.6508444  3
    541    540    547    550     1  0.0000000  0.6508444  3
    541    553    565   1198     1  0.0000000  0.6508444  3
    544    540    541    553     1  0.0000000  0.6508444  3
    544    540    547    550     1  0.0000000  0.6508444  3
    544    556    562   1168     1  0.0000000  0.6508444  3
    547    540    541    553     1  0.0000000  0.6508444  3
    547    540    544    556     1  0.0000000  0.6508444  3
    547    550    559    568     1  0.0000000  0.6508444  3
    553    565   1198   1189     1  180.0000771  0.4184000  2
    553    565   1198   1189     1  0.0000000  1.6024720  3
    556    562   1168   1159     1  180.0000771  0.4184000  2
    556    562   1168   1159     1  0.0000000  1.6024720  3
    562   1168   1159   1150     1  180.0000771  0.4184000  2
    562   1168   1159   1150     1  0.0000000  1.6024720  3
    565   1198   1189   1180     1  180.0000771  0.4184000  2
    565   1198   1189   1180     1  0.0000000  1.6024720  3
    570    571    583    595     1  0.0000000  0.6508444  3
    570    574    586    592     1  0.0000000  0.6508444  3
    570    577    580    589     1  0.0000000  0.6508444  3
    571    570    574    586     1  0.0000000  0.6508444  3
    571    570    577    580     1  0.0000000  0.6508444  3
    571    583    595   1258     1  0.0000000  0.6508444  3
    574    570    571    583     1  0.0000000  0.6508444  3
    574    570    577    580     1  0.0000000  0.6508444  3
    574    586    592   1228     1  0.0000000  0.6508444  3
    577    570    571    583     1  0.0000000  0.6508444  3
    577    570    574    586     1  0.0000000  0.6508444  3
    577    580    589    598     1  0.0000000  0.6508444  3
    583    595   1258   1249     1  180.0000771  0.4184000  2
    583    595   1258   1249     1  0.0000000  1.6024720  3
    586    592   1228   1219     1  180.0000771  0.4184000  2
    586    592   1228   1219     1  0.0000000  1.6024720  3
    592   1228   1219   1210     1  180.0000771  0.4184000  2
    592   1228   1219   1210     1  0.0000000  1.6024720  3
    595   1258   1249   1240     1  180.0000771  0.4184000  2
    595   1258   1249   1240     1  0.0000000  1.6024720  3
    600    601    613    625     1  0.0000000  0.6508444  3
    600    604    616    622     1  0.0000000  0.6508444  3
    600    607    610    619     1  0.0000000  0.6508444  3
    601    600    604    616     1  0.0000000  0.6508444  3
    601    600    607    610     1  0.0000000  0.6508444  3
    601    613    625   1318     1  0.0000000  0.6508444  3
    604    600    601    613     1  0.0000000  0.6508444  3
    604    600    607    610     1  0.0000000  0.6508444  3
    604    616    622   1288     1  0.0000000  0.6508444  3
    607    600    601    613     1  0.0000000  0.6508444  3
    607    600    604    616     1  0.0000000  0.6508444  3
    607    610    619    628     1  0.0000000  0.6508444  3
    613    625   1318   1309     1  180.0000771  0.4184000  2
    613    625   1318   1309     1  0.0000000  1.6024720  3
    616    622   1288   1279     1  180.0000771  0.4184000  2
    616    622   1288   1279     1  0.0000000  1.6024720  3
    622   1288   1279   1270     1  180.0000771  0.4184000  2
    622   1288   1279   1270     1  0.0000000  1.6024720  3
    625   1318   1309   1300     1  180.0000771  0.4184000  2
    625   1318   1309   1300     1  0.0000000  1.6024720  3
    630    631    643    655     1  0.0000000  0.6508444  3
    630    634    646    652     1  0.0000000  0.6508444  3
    630    637    640    649     1  0.0000000  0.6508444  3
    631    630    634    646     1  0.0000000  0.6508444  3
    631    630    637    640     1  0.0000000  0.6508444  3
    631    643    655   1378     1  0.0000000  0.6508444  3
    634    630    631    643     1  0.0000000  0.6508444  3
    634    630    637    640     1  0.0000000  0.6508444  3
    634    646    652   1348     1  0.0000000  0.6508444  3
    637    630    631    643     1  0.0000000  0.6508444  3
    637    630    634    646     1  0.0000000  0.6508444  3
    637    640    649    658     1  0.0000000  0.6508444  3
    643    655   1378   1369     1  180.0000771  0.4184000  2
    643    655   1378   1369     1  0.0000000  1.6024720  3
    646    652   1348   1339     1  180.0000771  0.4184000  2
    646    652   1348   1339     1  0.0000000  1.6024720  3
    652   1348   1339   1330     1  180.0000771  0.4184000  2
    652   1348   1339   1330     1  0.0000000  1.6024720  3
    655   1378   1369   1360     1  180.0000771  0.4184000  2
    655   1378   1369   1360     1  0.0000000  1.6024720  3
    660    661    673    685     1  0.0000000  0.6508444  3
    660    664    676    682     1  0.0000000  0.6508444  3
    660    667    670    679     1  0.0000000  0.6508444  3
    661    660    664    676     1  0.0000000  0.6508444  3
    661    660    667    670     1  0.0000000  0.6508444  3
    661    673    685   1438     1  0.0000000  0.6508444  3
    664    660    661    673     1  0.0000000  0.6508444  3
    664    660    667    670     1  0.0000000  0.6508444  3
    664    676    682   1408     1  0.0000000  0.6508444  3
    667    660    661    673     1  0.0000000  0.6508444  3
    667    660    664    676     1  0.0000000  0.6508444  3
    667    670    679    688     1  0.0000000  0.6508444  3
    673    685   1438   1429     1  180.0000771  0.4184000  2
    673    685   1438   1429     1  0.0000000  1.6024720  3
    676    682   1408   1399     1  180.0000771  0.4184000  2
    676    682   1408   1399     1  0.0000000  1.6024720  3
    682   1408   1399   1390     1  180.0000771  0.4184000  2
    682   1408   1399   1390     1  0.0000000  1.6024720  3
    685   1438   1429   1420     1  180.0000771  0.4184000  2
    685   1438   1429   1420     1  0.0000000  1.6024720  3
    690    691    703    715     1  0.0000000  0.6508444  3
    690    694    706    712     1  0.0000000  0.6508444  3
    690    697    700    709     1  0.0000000  0.6508444  3
    691    690    694    706     1  0.0000000  0.6508444  3
    691    690    697    700     1  0.0000000  0.6508444  3
    691    703    715   1498     1  0.0000000  0.6508444  3
    694    690    691    703     1  0.0000000  0.6508444  3
    694    690    697    700     1  0.0000000  0.6508444  3
    694    706    712   1468     1  0.0000000  0.6508444  3
    697    690    691    703     1  0.0000000  0.6508444  3
    697    690    694    706     1  0.0000000  0.6508444  3
    697    700    709    718     1  0.0000000  0.6508444  3
    703    715   1498   1489     1  180.0000771  0.4184000  2
    703    715   1498   1489     1  0.0000000  1.6024720  3
    706    712   1468   1459     1  180.0000771  0.4184000  2
    706    712   1468   1459     1  0.0000000  1.6024720  3
    712   1468   1459   1450     1  180.0000771  0.4184000  2
    712   1468   1459   1450     1  0.0000000  1.6024720  3
    715   1498   1489   1480     1  180.0000771  0.4184000  2
    715   1498   1489   1480     1  0.0000000  1.6024720  3
    720    721    733    745     1  0.0000000  0.6508444  3
    720    724    736    742     1  0.0000000  0.6508444  3
    720    727    730    739     1  0.0000000  0.6508444  3
    721    720    724    736     1  0.0000000  0.6508444  3
    721    720    727    730     1  0.0000000  0.6508444  3
    721    733    745   1558     1  0.0000000  0.6508444  3
    724    720    721    733     1  0.0000000  0.6508444  3
    724    720    727    730     1  0.0000000  0.6508444  3
    724    736    742   1528     1  0.0000000  0.6508444  3
    727    720    721    733     1  0.0000000  0.6508444  3
    727    720    724    736     1  0.0000000  0.6508444  3
    727    730    739    748     1  0.0000000  0.6508444  3
    733    745   1558   1549     1  180.0000771  0.4184000  2
    733    745   1558   1549     1  0.0000000  1.6024720  3
    736    742   1528   1519     1  180.0000771  0.4184000  2
    736    742   1528   1519     1  0.0000000  1.6024720  3
    742   1528   1519   1510     1  180.0000771  0.4184000  2
    742   1528   1519   1510     1  0.0000000  1.6024720  3
    745   1558   1549   1540     1  180.0000771  0.4184000  2
    745   1558   1549   1540     1  0.0000000  1.6024720  3
    750    751    763    775     1  0.0000000  0.6508444  3
    750    754    766    772     1  0.0000000  0.6508444  3
    750    757    760    769     1  0.0000000  0.6508444  3
    751    750    754    766     1  0.0000000  0.6508444  3
    751    750    757    760     1  0.0000000  0.6508444  3
    751    763    775   1618     1  0.0000000  0.6508444  3
    754    750    751    763     1  0.0000000  0.6508444  3
    754    750    757    760     1  0.0000000  0.6508444  3
    754    766    772   1588     1  0.0000000  0.6508444  3
    757    750    751    763     1  0.0000000  0.6508444  3
    757    750    754    766     1  0.0000000  0.6508444  3
    757    760    769    778     1  0.0000000  0.6508444  3
    763    775   1618   1609     1  180.0000771  0.4184000  2
    763    775   1618   1609     1  0.0000000  1.6024720  3
    766    772   1588   1579     1  180.0000771  0.4184000  2
    766    772   1588   1579     1  0.0000000  1.6024720  3
    772   1588   1579   1570     1  180.0000771  0.4184000  2
    772   1588   1579   1570     1  0.0000000  1.6024720  3
    775   1618   1609   1600     1  180.0000771  0.4184000  2
    775   1618   1609   1600     1  0.0000000  1.6024720  3
    780    781    793    805     1  0.0000000  0.6508444  3
    780    784    796    802     1  0.0000000  0.6508444  3
    780    787    790    799     1  0.0000000  0.6508444  3
    781    780    784    796     1  0.0000000  0.6508444  3
    781    780    787    790     1  0.0000000  0.6508444  3
    781    793    805   1678     1  0.0000000  0.6508444  3
    784    780    781    793     1  0.0000000  0.6508444  3
    784    780    787    790     1  0.0000000  0.6508444  3
    784    796    802   1648     1  0.0000000  0.6508444  3
    787    780    781    793     1  0.0000000  0.6508444  3
    787    780    784    796     1  0.0000000  0.6508444  3
    787    790    799    808     1  0.0000000  0.6508444  3
    793    805   1678   1669     1  180.0000771  0.4184000  2
    793    805   1678   1669     1  0.0000000  1.6024720  3
    796    802   1648   1639     1  180.0000771  0.4184000  2
    796    802   1648   1639     1  0.0000000  1.6024720  3
    802   1648   1639   1630     1  180.0000771  0.4184000  2
    802   1648   1639   1630     1  0.0000000  1.6024720  3
    805   1678   1669   1660     1  180.0000771  0.4184000  2
    805   1678   1669   1660     1  0.0000000  1.6024720  3
    810    811    823    835     1  0.0000000  0.6508444  3
    810    814    826    832     1  0.0000000  0.6508444  3
    810    817    820    829     1  0.0000000  0.6508444  3
    811    810    814    826     1  0.0000000  0.6508444  3
    811    810    817    820     1  0.0000000  0.6508444  3
    811    823    835   1738     1  0.0000000  0.6508444  3
    814    810    811    823     1  0.0000000  0.6508444  3
    814    810    817    820     1  0.0000000  0.6508444  3
    814    826    832   1708     1  0.0000000  0.6508444  3
    817    810    811    823     1  0.0000000  0.6508444  3
    817    810    814    826     1  0.0000000  0.6508444  3
    817    820    829    838     1  0.0000000  0.6508444  3
    823    835   1738   1729     1  180.0000771  0.4184000  2
    823    835   1738   1729     1  0.0000000  1.6024720  3
    826    832   1708   1699     1  180.0000771  0.4184000  2
    826    832   1708   1699     1  0.0000000  1.6024720  3
    832   1708   1699   1690     1  180.0000771  0.4184000  2
    832   1708   1699   1690     1  0.0000000  1.6024720  3
    835   1738   1729   1720     1  180.0000771  0.4184000  2
    835   1738   1729   1720     1  0.0000000  1.6024720  3
    840    841    853    865     1  0.0000000  0.6508444  3
    840    844    856    862     1  0.0000000  0.6508444  3
    840    847    850    859     1  0.0000000  0.6508444  3
    841    840    844    856     1  0.0000000  0.6508444  3
    841    840    847    850     1  0.0000000  0.6508444  3
    841    853    865   1798     1  0.0000000  0.6508444  3
    844    840    841    853     1  0.0000000  0.6508444  3
    844    840    847    850     1  0.0000000  0.6508444  3
    844    856    862   1768     1  0.0000000  0.6508444  3
    847    840    841    853     1  0.0000000  0.6508444  3
    847    840    844    856     1  0.0000000  0.6508444  3
    847    850    859    868     1  0.0000000  0.6508444  3
    853    865   1798   1789     1  180.0000771  0.4184000  2
    853    865   1798   1789     1  0.0000000  1.6024720  3
    856    862   1768   1759     1  180.0000771  0.4184000  2
    856    862   1768   1759     1  0.0000000  1.6024720  3
    862   1768   1759   1750     1  180.0000771  0.4184000  2
    862   1768   1759   1750     1  0.0000000  1.6024720  3
    865   1798   1789   1780     1  180.0000771  0.4184000  2
    865   1798   1789   1780     1  0.0000000  1.6024720  3
    870    871    883    895     1  0.0000000  0.6508444  3
    870    874    886    892     1  0.0000000  0.6508444  3
    870    877    880    889     1  0.0000000  0.6508444  3
    871    870    874    886     1  0.0000000  0.6508444  3
    871    870    877    880     1  0.0000000  0.6508444  3
    871    883    895   1858     1  0.0000000  0.6508444  3
    874    870    871    883     1  0.0000000  0.6508444  3
    874    870    877    880     1  0.0000000  0.6508444  3
    874    886    892   1828     1  0.0000000  0.6508444  3
    877    870    871    883     1  0.0000000  0.6508444  3
    877    870    874    886     1  0.0000000  0.6508444  3
    877    880    889    898     1  0.0000000  0.6508444  3
    883    895   1858   1849     1  180.0000771  0.4184000  2
    883    895   1858   1849     1  0.0000000  1.6024720  3
    886    892   1828   1819     1  180.0000771  0.4184000  2
    886    892   1828   1819     1  0.0000000  1.6024720  3
    892   1828   1819   1810     1  180.0000771  0.4184000  2
    892   1828   1819   1810     1  0.0000000  1.6024720  3
    895   1858   1849   1840     1  180.0000771  0.4184000  2
    895   1858   1849   1840     1  0.0000000  1.6024720  3
    900    901    913    925     1  0.0000000  0.6508444  3
    900    904    916    922     1  0.0000000  0.6508444  3
    900    907    910    919     1  0.0000000  0.6508444  3
    901    900    904    916     1  0.0000000  0.6508444  3
    901    900    907    910     1  0.0000000  0.6508444  3
    901    913    925   1918     1  0.0000000  0.6508444  3
    904    900    901    913     1  0.0000000  0.6508444  3
    904    900    907    910     1  0.0000000  0.6508444  3
    904    916    922   1888     1  0.0000000  0.6508444  3
    907    900    901    913     1  0.0000000  0.6508444  3
    907    900    904    916     1  0.0000000  0.6508444  3
    907    910    919    928     1  0.0000000  0.6508444  3
    913    925   1918   1909     1  180.0000771  0.4184000  2
    913    925   1918   1909     1  0.0000000  1.6024720  3
    916    922   1888   1879     1  180.0000771  0.4184000  2
    916    922   1888   1879     1  0.0000000  1.6024720  3
    922   1888   1879   1870     1  180.0000771  0.4184000  2
    922   1888   1879   1870     1  0.0000000  1.6024720  3
    925   1918   1909   1900     1  180.0000771  0.4184000  2
    925   1918   1909   1900     1  0.0000000  1.6024720  3
    930    931    943    955     1  0.0000000  0.6508444  3
    930    934    946    952     1  0.0000000  0.6508444  3
    930    937    940    949     1  0.0000000  0.6508444  3
    931    930    934    946     1  0.0000000  0.6508444  3
    931    930    937    940     1  0.0000000  0.6508444  3
    931    943    955   1978     1  0.0000000  0.6508444  3
    934    930    931    943     1  0.0000000  0.6508444  3
    934    930    937    940     1  0.0000000  0.6508444  3
    934    946    952   1948     1  0.0000000  0.6508444  3
    937    930    931    943     1  0.0000000  0.6508444  3
    937    930    934    946     1  0.0000000  0.6508444  3
    937    940    949    958     1  0.0000000  0.6508444  3
    943    955   1978   1969     1  180.0000771  0.4184000  2
    943    955   1978   1969     1  0.0000000  1.6024720  3
    946    952   1948   1939     1  180.0000771  0.4184000  2
    946    952   1948   1939     1  0.0000000  1.6024720  3
    952   1948   1939   1930     1  180.0000771  0.4184000  2
    952   1948   1939   1930     1  0.0000000  1.6024720  3
    955   1978   1969   1960     1  180.0000771  0.4184000  2
    955   1978   1969   1960     1  0.0000000  1.6024720  3
    960    961    973    985     1  0.0000000  0.6508444  3
    960    964    976    982     1  0.0000000  0.6508444  3
    960    967    970    979     1  0.0000000  0.6508444  3
    961    960    964    976     1  0.0000000  0.6508444  3
    961    960    967    970     1  0.0000000  0.6508444  3
    961    973    985   2038     1  0.0000000  0.6508444  3
    964    960    961    973     1  0.0000000  0.6508444  3
    964    960    967    970     1  0.0000000  0.6508444  3
    964    976    982   2008     1  0.0000000  0.6508444  3
    967    960    961    973     1  0.0000000  0.6508444  3
    967    960    964    976     1  0.0000000  0.6508444  3
    967    970    979    988     1  0.0000000  0.6508444  3
    973    985   2038   2029     1  180.0000771  0.4184000  2
    973    985   2038   2029     1  0.0000000  1.6024720  3
    976    982   2008   1999     1  180.0000771  0.4184000  2
    976    982   2008   1999     1  0.0000000  1.6024720  3
    982   2008   1999   1990     1  180.0000771  0.4184000  2
    982   2008   1999   1990     1  0.0000000  1.6024720  3
    985   2038   2029   2020     1  180.0000771  0.4184000  2
    985   2038   2029   2020     1  0.0000000  1.6024720  3
    990    991   1003   1015     1  0.0000000  0.6508444  3
    990    994   1006   1012     1  0.0000000  0.6508444  3
    990    997   1000   1009     1  0.0000000  0.6508444  3
    991    990    994   1006     1  0.0000000  0.6508444  3
    991    990    997   1000     1  0.0000000  0.6508444  3
    991   1003   1015   2098     1  0.0000000  0.6508444  3
    994    990    991   1003     1  0.0000000  0.6508444  3
    994    990    997   1000     1  0.0000000  0.6508444  3
    994   1006   1012   2068     1  0.0000000  0.6508444  3
    997    990    991   1003     1  0.0000000  0.6508444  3
    997    990    994   1006     1  0.0000000  0.6508444  3
    997   1000   1009   1018     1  0.0000000  0.6508444  3
   1003   1015   2098   2089     1  180.0000771  0.4184000  2
   1003   1015   2098   2089     1  0.0000000  1.6024720  3
   1006   1012   2068   2059     1  180.0000771  0.4184000  2
   1006   1012   2068   2059     1  0.0000000  1.6024720  3
   1012   2068   2059   2050     1  180.0000771  0.4184000  2
   1012   2068   2059   2050     1  0.0000000  1.6024720  3
   1015   2098   2089   2080     1  180.0000771  0.4184000  2
   1015   2098   2089   2080     1  0.0000000  1.6024720  3
   1020   1021   1033   1045     1  0.0000000  0.6508444  3
   1020   1024   1036   1042     1  0.0000000  0.6508444  3
   1020   1027   1030   1039     1  0.0000000  0.6508444  3
   1021   1020   1024   1036     1  0.0000000  0.6508444  3
   1021   1020   1027   1030     1  0.0000000  0.6508444  3
   1021   1033   1045   2158     1  0.0000000  0.6508444  3
   1024   1020   1021   1033     1  0.0000000  0.6508444  3
   1024   1020   1027   1030     1  0.0000000  0.6508444  3
   1024   1036   1042   2128     1  0.0000000  0.6508444  3
   1027   1020   1021   1033     1  0.0000000  0.6508444  3
   1027   1020   1024   1036     1  0.0000000  0.6508444  3
   1027   1030   1039   1048     1  0.0000000  0.6508444  3
   1033   1045   2158   2149     1  180.0000771  0.4184000  2
   1033   1045   2158   2149     1  0.0000000  1.6024720  3
   1036   1042   2128   2119     1  180.0000771  0.4184000  2
   1036   1042   2128   2119     1  0.0000000  1.6024720  3
   1042   2128   2119   2110     1  180.0000771  0.4184000  2
   1042   2128   2119   2110     1  0.0000000  1.6024720  3
   1045   2158   2149   2140     1  180.0000771  0.4184000  2
   1045   2158   2149   2140     1  0.0000000  1.6024720  3
   1050   1051   1063   1075     1  0.0000000  0.6508444  3
   1050   1054   1066   1072     1  0.0000000  0.6508444  3
   1050   1057   1060   1069     1  0.0000000  0.6508444  3
   1051   1050   1054   1066     1  0.0000000  0.6508444  3
   1051   1050   1057   1060     1  0.0000000  0.6508444  3
   1051   1063   1075   2218     1  0.0000000  0.6508444  3
   1054   1050   1051   1063     1  0.0000000  0.6508444  3
   1054   1050   1057   1060     1  0.0000000  0.6508444  3
   1054   1066   1072   2188     1  0.0000000  0.6508444  3
   1057   1050   1051   1063     1  0.0000000  0.6508444  3
   1057   1050   1054   1066     1  0.0000000  0.6508444  3
   1057   1060   1069   1078     1  0.0000000  0.6508444  3
   1063   1075   2218   2209     1  180.0000771  0.4184000  2
   1063   1075   2218   2209     1  0.0000000  1.6024720  3
   1066   1072   2188   2179     1  180.0000771  0.4184000  2
   1066   1072   2188   2179     1  0.0000000  1.6024720  3
   1072   2188   2179   2170     1  180.0000771  0.4184000  2
   1072   2188   2179   2170     1  0.0000000  1.6024720  3
   1075   2218   2209   2200     1  180.0000771  0.4184000  2
   1075   2218   2209   2200     1  0.0000000  1.6024720  3
   1080   1081   1093   1105     1  0.0000000  0.6508444  3
   1080   1084   1096   1102     1  0.0000000  0.6508444  3
   1080   1087   1090   1099     1  0.0000000  0.6508444  3
   1081   1080   1084   1096     1  0.0000000  0.6508444  3
   1081   1080   1087   1090     1  0.0000000  0.6508444  3
   1081   1093   1105   2278     1  0.0000000  0.6508444  3
   1084   1080   1081   1093     1  0.0000000  0.6508444  3
   1084   1080   1087   1090     1  0.0000000  0.6508444  3
   1084   1096   1102   2248     1  0.0000000  0.6508444  3
   1087   1080   1081   1093     1  0.0000000  0.6508444  3
   1087   1080   1084   1096     1  0.0000000  0.6508444  3
   1087   1090   1099   1108     1  0.0000000  0.6508444  3
   1093   1105   2278   2269     1  180.0000771  0.4184000  2
   1093   1105   2278   2269     1  0.0000000  1.6024720  3
   1096   1102   2248   2239     1  180.0000771  0.4184000  2
   1096   1102   2248   2239     1  0.0000000  1.6024720  3
   1102   2248   2239   2230     1  180.0000771  0.4184000  2
   1102   2248   2239   2230     1  0.0000000  1.6024720  3
   1105   2278   2269   2260     1  180.0000771  0.4184000  2
   1105   2278   2269   2260     1  0.0000000  1.6024720  3
   1110   1111   1123   1135     1  0.0000000  0.6508444  3
   1110   1114   1126   1132     1  0.0000000  0.6508444  3
   1110   1117   1120   1129     1  0.0000000  0.6508444  3
   1111   1110   1114   1126     1  0.0000000  0.6508444  3
   1111   1110   1117   1120     1  0.0000000  0.6508444  3
   1111   1123   1135   2338     1  0.0000000  0.6508444  3
   1114   1110   1111   1123     1  0.0000000  0.6508444  3
   1114   1110   1117   1120     1  0.0000000  0.6508444  3
   1114   1126   1132   2308     1  0.0000000  0.6508444  3
   1117   1110   1111   1123     1  0.0000000  0.6508444  3
   1117   1110   1114   1126     1  0.0000000  0.6508444  3
   1117   1120   1129   1138     1  0.0000000  0.6508444  3
   1123   1135   2338   2329     1  180.0000771  0.4184000  2
   1123   1135   2338   2329     1  0.0000000  1.6024720  3
   1126   1132   2308   2299     1  180.0000771  0.4184000  2
   1126   1132   2308   2299     1  0.0000000  1.6024720  3
   1132   2308   2299   2290     1  180.0000771  0.4184000  2
   1132   2308   2299   2290     1  0.0000000  1.6024720  3
   1135   2338   2329   2320     1  180.0000771  0.4184000  2
   1135   2338   2329   2320     1  0.0000000  1.6024720  3
   1140   1141   1153   1165     1  0.0000000  0.6508444  3
   1140   1144   1156   1162     1  0.0000000  0.6508444  3
   1140   1147   1150   1159     1  0.0000000  0.6508444  3
   1141   1140   1144   1156     1  0.0000000  0.6508444  3
   1141   1140   1147   1150     1  0.0000000  0.6508444  3
   1141   1153   1165   2398     1  0.0000000  0.6508444  3
   1144   1140   1141   1153     1  0.0000000  0.6508444  3
   1144   1140   1147   1150     1  0.0000000  0.6508444  3
   1144   1156   1162   2368     1  0.0000000  0.6508444  3
   1147   1140   1141   1153     1  0.0000000  0.6508444  3
   1147   1140   1144   1156     1  0.0000000  0.6508444  3
   1147   1150   1159   1168     1  0.0000000  0.6508444  3
   1153   1165   2398   2389     1  180.0000771  0.4184000  2
   1153   1165   2398   2389     1  0.0000000  1.6024720  3
   1156   1162   2368   2359     1  180.0000771  0.4184000  2
   1156   1162   2368   2359     1  0.0000000  1.6024720  3
   1162   2368   2359   2350     1  180.0000771  0.4184000  2
   1162   2368   2359   2350     1  0.0000000  1.6024720  3
   1165   2398   2389   2380     1  180.0000771  0.4184000  2
   1165   2398   2389   2380     1  0.0000000  1.6024720  3
   1170   1171   1183   1195     1  0.0000000  0.6508444  3
   1170   1174   1186   1192     1  0.0000000  0.6508444  3
   1170   1177   1180   1189     1  0.0000000  0.6508444  3
   1171   1170   1174   1186     1  0.0000000  0.6508444  3
   1171   1170   1177   1180     1  0.0000000  0.6508444  3
   1171   1183   1195   2458     1  0.0000000  0.6508444  3
   1174   1170   1171   1183     1  0.0000000  0.6508444  3
   1174   1170   1177   1180     1  0.0000000  0.6508444  3
   1174   1186   1192   2428     1  0.0000000  0.6508444  3
   1177   1170   1171   1183     1  0.0000000  0.6508444  3
   1177   1170   1174   1186     1  0.0000000  0.6508444  3
   1177   1180   1189   1198     1  0.0000000  0.6508444  3
   1183   1195   2458   2449     1  180.0000771  0.4184000  2
   1183   1195   2458   2449     1  0.0000000  1.6024720  3
   1186   1192   2428   2419     1  180.0000771  0.4184000  2
   1186   1192   2428   2419     1  0.0000000  1.6024720  3
   1192   2428   2419   2410     1  180.0000771  0.4184000  2
   1192   2428   2419   2410     1  0.0000000  1.6024720  3
   1195   2458   2449   2440     1  180.0000771  0.4184000  2
   1195   2458   2449   2440     1  0.0000000  1.6024720  3
   1200   1201   1213   1225     1  0.0000000  0.6508444  3
   1200   1204   1216   1222     1  0.0000000  0.6508444  3
   1200   1207   1210   1219     1  0.0000000  0.6508444  3
   1201   1200   1204   1216     1  0.0000000  0.6508444  3
   1201   1200   1207   1210     1  0.0000000  0.6508444  3
   1201   1213   1225   2518     1  0.0000000  0.6508444  3
   1204   1200   1201   1213     1  0.0000000  0.6508444  3
   1204   1200   1207   1210     1  0.0000000  0.6508444  3
   1204   1216   1222   2488     1  0.0000000  0.6508444  3
   1207   1200   1201   1213     1  0.0000000  0.6508444  3
   1207   1200   1204   1216     1  0.0000000  0.6508444  3
   1207   1210   1219   1228     1  0.0000000  0.6508444  3
   1213   1225   2518   2509     1  180.0000771  0.4184000  2
   1213   1225   2518   2509     1  0.0000000  1.6024720  3
   1216   1222   2488   2479     1  180.0000771  0.4184000  2
   1216   1222   2488   2479     1  0.0000000  1.6024720  3
   1222   2488   2479   2470     1  180.0000771  0.4184000  2
   1222   2488   2479   2470     1  0.0000000  1.6024720  3
   1225   2518   2509   2500     1  180.0000771  0.4184000  2
   1225   2518   2509   2500     1  0.0000000  1.6024720  3
   1230   1231   1243   1255     1  0.0000000  0.6508444  3
   1230   1234   1246   1252     1  0.0000000  0.6508444  3
   1230   1237   1240   1249     1  0.0000000  0.6508444  3
   1231   1230   1234   1246     1  0.0000000  0.6508444  3
   1231   1230   1237   1240     1  0.0000000  0.6508444  3
   1231   1243   1255   2578     1  0.0000000  0.6508444  3
   1234   1230   1231   1243     1  0.0000000  0.6508444  3
   1234   1230   1237   1240     1  0.0000000  0.6508444  3
   1234   1246   1252   2548     1  0.0000000  0.6508444  3
   1237   1230   1231   1243     1  0.0000000  0.6508444  3
   1237   1230   1234   1246     1  0.0000000  0.6508444  3
   1237   1240   1249   1258     1  0.0000000  0.6508444  3
   1243   1255   2578   2569     1  180.0000771  0.4184000  2
   1243   1255   2578   2569     1  0.0000000  1.6024720  3
   1246   1252   2548   2539     1  180.0000771  0.4184000  2
   1246   1252   2548   2539     1  0.0000000  1.6024720  3
   1252   2548   2539   2530     1  180.0000771  0.4184000  2
   1252   2548   2539   2530     1  0.0000000  1.6024720  3
   1255   2578   2569   2560     1  180.0000771  0.4184000  2
   1255   2578   2569   2560     1  0.0000000  1.6024720  3
   1260   1261   1273   1285     1  0.0000000  0.6508444  3
   1260   1264   1276   1282     1  0.0000000  0.6508444  3
   1260   1267   1270   1279     1  0.0000000  0.6508444  3
   1261   1260   1264   1276     1  0.0000000  0.6508444  3
   1261   1260   1267   1270     1  0.0000000  0.6508444  3
   1261   1273   1285   2638     1  0.0000000  0.6508444  3
   1264   1260   1261   1273     1  0.0000000  0.6508444  3
   1264   1260   1267   1270     1  0.0000000  0.6508444  3
   1264   1276   1282   2608     1  0.0000000  0.6508444  3
   1267   1260   1261   1273     1  0.0000000  0.6508444  3
   1267   1260   1264   1276     1  0.0000000  0.6508444  3
   1267   1270   1279   1288     1  0.0000000  0.6508444  3
   1273   1285   2638   2629     1  180.0000771  0.4184000  2
   1273   1285   2638   2629     1  0.0000000  1.6024720  3
   1276   1282   2608   2599     1  180.0000771  0.4184000  2
   1276   1282   2608   2599     1  0.0000000  1.6024720  3
   1282   2608   2599   2590     1  180.0000771  0.4184000  2
   1282   2608   2599   2590     1  0.0000000  1.6024720  3
   1285   2638   2629   2620     1  180.0000771  0.4184000  2
   1285   2638   2629   2620     1  0.0000000  1.6024720  3
   1290   1291   1303   1315     1  0.0000000  0.6508444  3
   1290   1294   1306   1312     1  0.0000000  0.6508444  3
   1290   1297   1300   1309     1  0.0000000  0.6508444  3
   1291   1290   1294   1306     1  0.0000000  0.6508444  3
   1291   1290   1297   1300     1  0.0000000  0.6508444  3
   1291   1303   1315   2698     1  0.0000000  0.6508444  3
   1294   1290   1291   1303     1  0.0000000  0.6508444  3
   1294   1290   1297   1300     1  0.0000000  0.6508444  3
   1294   1306   1312   2668     1  0.0000000  0.6508444  3
   1297   1290   1291   1303     1  0.0000000  0.6508444  3
   1297   1290   1294   1306     1  0.0000000  0.6508444  3
   1297   1300   1309   1318     1  0.0000000  0.6508444  3
   1303   1315   2698   2689     1  180.0000771  0.4184000  2
   1303   1315   2698   2689     1  0.0000000  1.6024720  3
   1306   1312   2668   2659     1  180.0000771  0.4184000  2
   1306   1312   2668   2659     1  0.0000000  1.6024720  3
   1312   2668   2659   2650     1  180.0000771  0.4184000  2
   1312   2668   2659   2650     1  0.0000000  1.6024720  3
   1315   2698   2689   2680     1  180.0000771  0.4184000  2
   1315   2698   2689   2680     1  0.0000000  1.6024720  3
   1320   1321   1333   1345     1  0.0000000  0.6508444  3
   1320   1324   1336   1342     1  0.0000000  0.6508444  3
   1320   1327   1330   1339     1  0.0000000  0.6508444  3
   1321   1320   1324   1336     1  0.0000000  0.6508444  3
   1321   1320   1327   1330     1  0.0000000  0.6508444  3
   1321   1333   1345   2758     1  0.0000000  0.6508444  3
   1324   1320   1321   1333     1  0.0000000  0.6508444  3
   1324   1320   1327   1330     1  0.0000000  0.6508444  3
   1324   1336   1342   2728     1  0.0000000  0.6508444  3
   1327   1320   1321   1333     1  0.0000000  0.6508444  3
   1327   1320   1324   1336     1  0.0000000  0.6508444  3
   1327   1330   1339   1348     1  0.0000000  0.6508444  3
   1333   1345   2758   2749     1  180.0000771  0.4184000  2
   1333   1345   2758   2749     1  0.0000000  1.6024720  3
   1336   1342   2728   2719     1  180.0000771  0.4184000  2
   1336   1342   2728   2719     1  0.0000000  1.6024720  3
   1342   2728   2719   2710     1  180.0000771  0.4184000  2
   1342   2728   2719   2710     1  0.0000000  1.6024720  3
   1345   2758   2749   2740     1  180.0000771  0.4184000  2
   1345   2758   2749   2740     1  0.0000000  1.6024720  3
   1350   1351   1363   1375     1  0.0000000  0.6508444  3
   1350   1354   1366   1372     1  0.0000000  0.6508444  3
   1350   1357   1360   1369     1  0.0000000  0.6508444  3
   1351   1350   1354   1366     1  0.0000000  0.6508444  3
   1351   1350   1357   1360     1  0.0000000  0.6508444  3
   1351   1363   1375   2818     1  0.0000000  0.6508444  3
   1354   1350   1351   1363     1  0.0000000  0.6508444  3
   1354   1350   1357   1360     1  0.0000000  0.6508444  3
   1354   1366   1372   2788     1  0.0000000  0.6508444  3
   1357   1350   1351   1363     1  0.0000000  0.6508444  3
   1357   1350   1354   1366     1  0.0000000  0.6508444  3
   1357   1360   1369   1378     1  0.0000000  0.6508444  3
   1363   1375   2818   2809     1  180.0000771  0.4184000  2
   1363   1375   2818   2809     1  0.0000000  1.6024720  3
   1366   1372   2788   2779     1  180.0000771  0.4184000  2
   1366   1372   2788   2779     1  0.0000000  1.6024720  3
   1372   2788   2779   2770     1  180.0000771  0.4184000  2
   1372   2788   2779   2770     1  0.0000000  1.6024720  3
   1375   2818   2809   2800     1  180.0000771  0.4184000  2
   1375   2818   2809   2800     1  0.0000000  1.6024720  3
   1380   1381   1393   1405     1  0.0000000  0.6508444  3
   1380   1384   1396   1402     1  0.0000000  0.6508444  3
   1380   1387   1390   1399     1  0.0000000  0.6508444  3
   1381   1380   1384   1396     1  0.0000000  0.6508444  3
   1381   1380   1387   1390     1  0.0000000  0.6508444  3
   1381   1393   1405   2853     1  0.0000000  0.6508444  3
   1384   1380   1381   1393     1  0.0000000  0.6508444  3
   1384   1380   1387   1390     1  0.0000000  0.6508444  3
   1384   1396   1402   2830     1  0.0000000  0.6508444  3
   1387   1380   1381   1393     1  0.0000000  0.6508444  3
   1387   1380   1384   1396     1  0.0000000  0.6508444  3
   1387   1390   1399   1408     1  0.0000000  0.6508444  3
   1393   1405   2853   2849     1  180.0000771  0.4184000  2
   1393   1405   2853   2849     1  0.0000000  1.6024720  3
   1396   1402   2830   2826     1  180.0000771  0.4184000  2
   1396   1402   2830   2826     1  0.0000000  1.6024720  3
   1402   2830   2826   2825     1  180.0000771  0.4184000  2
   1402   2830   2826   2825     1  0.0000000  1.6024720  3
   1402   2830   2826   2842     1  180.0000771  5.6484000  1
   1402   2830   2826   2842     1  180.0000771  3.5564000  2
   1402   2830   2826   2842     1  0.0000000  0.4184000  3
   1405   2853   2849   2865     1  180.0000771  5.6484000  1
   1405   2853   2849   2865     1  180.0000771  3.5564000  2
   1405   2853   2849   2865     1  0.0000000  0.4184000  3
   1405   2853   2849   2848     1  180.0000771  0.4184000  2
   1405   2853   2849   2848     1  0.0000000  1.6024720  3
   1410   1411   1423   1435     1  0.0000000  0.6508444  3
   1410   1414   1426   1432     1  0.0000000  0.6508444  3
   1410   1417   1420   1429     1  0.0000000  0.6508444  3
   1411   1410   1414   1426     1  0.0000000  0.6508444  3
   1411   1410   1417   1420     1  0.0000000  0.6508444  3
   1411   1423   1435   2899     1  0.0000000  0.6508444  3
   1414   1410   1411   1423     1  0.0000000  0.6508444  3
   1414   1410   1417   1420     1  0.0000000  0.6508444  3
   1414   1426   1432   2876     1  0.0000000  0.6508444  3
   1417   1410   1411   1423     1  0.0000000  0.6508444  3
   1417   1410   1414   1426     1  0.0000000  0.6508444  3
   1417   1420   1429   1438     1  0.0000000  0.6508444  3
   1423   1435   2899   2895     1  180.0000771  0.4184000  2
   1423   1435   2899   2895     1  0.0000000  1.6024720  3
   1426   1432   2876   2872     1  180.0000771  0.4184000  2
   1426   1432   2876   2872     1  0.0000000  1.6024720  3
   1432   2876   2872   2871     1  180.0000771  0.4184000  2
   1432   2876   2872   2871     1  0.0000000  1.6024720  3
   1432   2876   2872   2888     1  180.0000771  5.6484000  1
   1432   2876   2872   2888     1  180.0000771  3.5564000  2
   1432   2876   2872   2888     1  0.0000000  0.4184000  3
   1435   2899   2895   2911     1  180.0000771  5.6484000  1
   1435   2899   2895   2911     1  180.0000771  3.5564000  2
   1435   2899   2895   2911     1  0.0000000  0.4184000  3
   1435   2899   2895   2894     1  180.0000771  0.4184000  2
   1435   2899   2895   2894     1  0.0000000  1.6024720  3
   1440   1441   1453   1465     1  0.0000000  0.6508444  3
   1440   1444   1456   1462     1  0.0000000  0.6508444  3
   1440   1447   1450   1459     1  0.0000000  0.6508444  3
   1441   1440   1444   1456     1  0.0000000  0.6508444  3
   1441   1440   1447   1450     1  0.0000000  0.6508444  3
   1441   1453   1465   2945     1  0.0000000  0.6508444  3
   1444   1440   1441   1453     1  0.0000000  0.6508444  3
   1444   1440   1447   1450     1  0.0000000  0.6508444  3
   1444   1456   1462   2922     1  0.0000000  0.6508444  3
   1447   1440   1441   1453     1  0.0000000  0.6508444  3
   1447   1440   1444   1456     1  0.0000000  0.6508444  3
   1447   1450   1459   1468     1  0.0000000  0.6508444  3
   1453   1465   2945   2941     1  180.0000771  0.4184000  2
   1453   1465   2945   2941     1  0.0000000  1.6024720  3
   1456   1462   2922   2918     1  180.0000771  0.4184000  2
   1456   1462   2922   2918     1  0.0000000  1.6024720  3
   1462   2922   2918   2917     1  180.0000771  0.4184000  2
   1462   2922   2918   2917     1  0.0000000  1.6024720  3
   1462   2922   2918   2934     1  180.0000771  5.6484000  1
   1462   2922   2918   2934     1  180.0000771  3.5564000  2
   1462   2922   2918   2934     1  0.0000000  0.4184000  3
   1465   2945   2941   2957     1  180.0000771  5.6484000  1
   1465   2945   2941   2957     1  180.0000771  3.5564000  2
   1465   2945   2941   2957     1  0.0000000  0.4184000  3
   1465   2945   2941   2940     1  180.0000771  0.4184000  2
   1465   2945   2941   2940     1  0.0000000  1.6024720  3
   1470   1471   1483   1495     1  0.0000000  0.6508444  3
   1470   1474   1486   1492     1  0.0000000  0.6508444  3
   1470   1477   1480   1489     1  0.0000000  0.6508444  3
   1471   1470   1474   1486     1  0.0000000  0.6508444  3
   1471   1470   1477   1480     1  0.0000000  0.6508444  3
   1471   1483   1495   2991     1  0.0000000  0.6508444  3
   1474   1470   1471   1483     1  0.0000000  0.6508444  3
   1474   1470   1477   1480     1  0.0000000  0.6508444  3
   1474   1486   1492   2968     1  0.0000000  0.6508444  3
   1477   1470   1471   1483     1  0.0000000  0.6508444  3
   1477   1470   1474   1486     1  0.0000000  0.6508444  3
   1477   1480   1489   1498     1  0.0000000  0.6508444  3
   1483   1495   2991   2987     1  180.0000771  0.4184000  2
   1483   1495   2991   2987     1  0.0000000  1.6024720  3
   1486   1492   2968   2964     1  180.0000771  0.4184000  2
   1486   1492   2968   2964     1  0.0000000  1.6024720  3
   1492   2968   2964   2963     1  180.0000771  0.4184000  2
   1492   2968   2964   2963     1  0.0000000  1.6024720  3
   1492   2968   2964   2980     1  180.0000771  5.6484000  1
   1492   2968   2964   2980     1  180.0000771  3.5564000  2
   1492   2968   2964   2980     1  0.0000000  0.4184000  3
   1495   2991   2987   3003     1  180.0000771  5.6484000  1
   1495   2991   2987   3003     1  180.0000771  3.5564000  2
   1495   2991   2987   3003     1  0.0000000  0.4184000  3
   1495   2991   2987   2986     1  180.0000771  0.4184000  2
   1495   2991   2987   2986     1  0.0000000  1.6024720  3
   1500   1501   1513   1525     1  0.0000000  0.6508444  3
   1500   1504   1516   1522     1  0.0000000  0.6508444  3
   1500   1507   1510   1519     1  0.0000000  0.6508444  3
   1501   1500   1504   1516     1  0.0000000  0.6508444  3
   1501   1500   1507   1510     1  0.0000000  0.6508444  3
   1501   1513   1525   3037     1  0.0000000  0.6508444  3
   1504   1500   1501   1513     1  0.0000000  0.6508444  3
   1504   1500   1507   1510     1  0.0000000  0.6508444  3
   1504   1516   1522   3014     1  0.0000000  0.6508444  3
   1507   1500   1501   1513     1  0.0000000  0.6508444  3
   1507   1500   1504   1516     1  0.0000000  0.6508444  3
   1507   1510   1519   1528     1  0.0000000  0.6508444  3
   1513   1525   3037   3033     1  180.0000771  0.4184000  2
   1513   1525   3037   3033     1  0.0000000  1.6024720  3
   1516   1522   3014   3010     1  180.0000771  0.4184000  2
   1516   1522   3014   3010     1  0.0000000  1.6024720  3
   1522   3014   3010   3009     1  180.0000771  0.4184000  2
   1522   3014   3010   3009     1  0.0000000  1.6024720  3
   1522   3014   3010   3026     1  180.0000771  5.6484000  1
   1522   3014   3010   3026     1  180.0000771  3.5564000  2
   1522   3014   3010   3026     1  0.0000000  0.4184000  3
   1525   3037   3033   3049     1  180.0000771  5.6484000  1
   1525   3037   3033   3049     1  180.0000771  3.5564000  2
   1525   3037   3033   3049     1  0.0000000  0.4184000  3
   1525   3037   3033   3032     1  180.0000771  0.4184000  2
   1525   3037   3033   3032     1  0.0000000  1.6024720  3
   1530   1531   1543   1555     1  0.0000000  0.6508444  3
   1530   1534   1546   1552     1  0.0000000  0.6508444  3
   1530   1537   1540   1549     1  0.0000000  0.6508444  3
   1531   1530   1534   1546     1  0.0000000  0.6508444  3
   1531   1530   1537   1540     1  0.0000000  0.6508444  3
   1531   1543   1555   3083     1  0.0000000  0.6508444  3
   1534   1530   1531   1543     1  0.0000000  0.6508444  3
   1534   1530   1537   1540     1  0.0000000  0.6508444  3
   1534   1546   1552   3060     1  0.0000000  0.6508444  3
   1537   1530   1531   1543     1  0.0000000  0.6508444  3
   1537   1530   1534   1546     1  0.0000000  0.6508444  3
   1537   1540   1549   1558     1  0.0000000  0.6508444  3
   1543   1555   3083   3079     1  180.0000771  0.4184000  2
   1543   1555   3083   3079     1  0.0000000  1.6024720  3
   1546   1552   3060   3056     1  180.0000771  0.4184000  2
   1546   1552   3060   3056     1  0.0000000  1.6024720  3
   1552   3060   3056   3055     1  180.0000771  0.4184000  2
   1552   3060   3056   3055     1  0.0000000  1.6024720  3
   1552   3060   3056   3072     1  180.0000771  5.6484000  1
   1552   3060   3056   3072     1  180.0000771  3.5564000  2
   1552   3060   3056   3072     1  0.0000000  0.4184000  3
   1555   3083   3079   3095     1  180.0000771  5.6484000  1
   1555   3083   3079   3095     1  180.0000771  3.5564000  2
   1555   3083   3079   3095     1  0.0000000  0.4184000  3
   1555   3083   3079   3078     1  180.0000771  0.4184000  2
   1555   3083   3079   3078     1  0.0000000  1.6024720  3
   1560   1561   1573   1585     1  0.0000000  0.6508444  3
   1560   1564   1576   1582     1  0.0000000  0.6508444  3
   1560   1567   1570   1579     1  0.0000000  0.6508444  3
   1561   1560   1564   1576     1  0.0000000  0.6508444  3
   1561   1560   1567   1570     1  0.0000000  0.6508444  3
   1561   1573   1585   3129     1  0.0000000  0.6508444  3
   1564   1560   1561   1573     1  0.0000000  0.6508444  3
   1564   1560   1567   1570     1  0.0000000  0.6508444  3
   1564   1576   1582   3106     1  0.0000000  0.6508444  3
   1567   1560   1561   1573     1  0.0000000  0.6508444  3
   1567   1560   1564   1576     1  0.0000000  0.6508444  3
   1567   1570   1579   1588     1  0.0000000  0.6508444  3
   1573   1585   3129   3125     1  180.0000771  0.4184000  2
   1573   1585   3129   3125     1  0.0000000  1.6024720  3
   1576   1582   3106   3102     1  180.0000771  0.4184000  2
   1576   1582   3106   3102     1  0.0000000  1.6024720  3
   1582   3106   3102   3101     1  180.0000771  0.4184000  2
   1582   3106   3102   3101     1  0.0000000  1.6024720  3
   1582   3106   3102   3118     1  180.0000771  5.6484000  1
   1582   3106   3102   3118     1  180.0000771  3.5564000  2
   1582   3106   3102   3118     1  0.0000000  0.4184000  3
   1585   3129   3125   3141     1  180.0000771  5.6484000  1
   1585   3129   3125   3141     1  180.0000771  3.5564000  2
   1585   3129   3125   3141     1  0.0000000  0.4184000  3
   1585   3129   3125   3124     1  180.0000771  0.4184000  2
   1585   3129   3125   3124     1  0.0000000  1.6024720  3
   1590   1591   1603   1615     1  0.0000000  0.6508444  3
   1590   1594   1606   1612     1  0.0000000  0.6508444  3
   1590   1597   1600   1609     1  0.0000000  0.6508444  3
   1591   1590   1594   1606     1  0.0000000  0.6508444  3
   1591   1590   1597   1600     1  0.0000000  0.6508444  3
   1591   1603   1615   3175     1  0.0000000  0.6508444  3
   1594   1590   1591   1603     1  0.0000000  0.6508444  3
   1594   1590   1597   1600     1  0.0000000  0.6508444  3
   1594   1606   1612   3152     1  0.0000000  0.6508444  3
   1597   1590   1591   1603     1  0.0000000  0.6508444  3
   1597   1590   1594   1606     1  0.0000000  0.6508444  3
   1597   1600   1609   1618     1  0.0000000  0.6508444  3
   1603   1615   3175   3171     1  180.0000771  0.4184000  2
   1603   1615   3175   3171     1  0.0000000  1.6024720  3
   1606   1612   3152   3148     1  180.0000771  0.4184000  2
   1606   1612   3152   3148     1  0.0000000  1.6024720  3
   1612   3152   3148   3147     1  180.0000771  0.4184000  2
   1612   3152   3148   3147     1  0.0000000  1.6024720  3
   1612   3152   3148   3164     1  180.0000771  5.6484000  1
   1612   3152   3148   3164     1  180.0000771  3.5564000  2
   1612   3152   3148   3164     1  0.0000000  0.4184000  3
   1615   3175   3171   3187     1  180.0000771  5.6484000  1
   1615   3175   3171   3187     1  180.0000771  3.5564000  2
   1615   3175   3171   3187     1  0.0000000  0.4184000  3
   1615   3175   3171   3170     1  180.0000771  0.4184000  2
   1615   3175   3171   3170     1  0.0000000  1.6024720  3
   1620   1621   1633   1645     1  0.0000000  0.6508444  3
   1620   1624   1636   1642     1  0.0000000  0.6508444  3
   1620   1627   1630   1639     1  0.0000000  0.6508444  3
   1621   1620   1624   1636     1  0.0000000  0.6508444  3
   1621   1620   1627   1630     1  0.0000000  0.6508444  3
   1621   1633   1645   3221     1  0.0000000  0.6508444  3
   1624   1620   1621   1633     1  0.0000000  0.6508444  3
   1624   1620   1627   1630     1  0.0000000  0.6508444  3
   1624   1636   1642   3198     1  0.0000000  0.6508444  3
   1627   1620   1621   1633     1  0.0000000  0.6508444  3
   1627   1620   1624   1636     1  0.0000000  0.6508444  3
   1627   1630   1639   1648     1  0.0000000  0.6508444  3
   1633   1645   3221   3217     1  180.0000771  0.4184000  2
   1633   1645   3221   3217     1  0.0000000  1.6024720  3
   1636   1642   3198   3194     1  180.0000771  0.4184000  2
   1636   1642   3198   3194     1  0.0000000  1.6024720  3
   1642   3198   3194   3193     1  180.0000771  0.4184000  2
   1642   3198   3194   3193     1  0.0000000  1.6024720  3
   1642   3198   3194   3210     1  180.0000771  5.6484000  1
   1642   3198   3194   3210     1  180.0000771  3.5564000  2
   1642   3198   3194   3210     1  0.0000000  0.4184000  3
   1645   3221   3217   3233     1  180.0000771  5.6484000  1
   1645   3221   3217   3233     1  180.0000771  3.5564000  2
   1645   3221   3217   3233     1  0.0000000  0.4184000  3
   1645   3221   3217   3216     1  180.0000771  0.4184000  2
   1645   3221   3217   3216     1  0.0000000  1.6024720  3
   1650   1651   1663   1675     1  0.0000000  0.6508444  3
   1650   1654   1666   1672     1  0.0000000  0.6508444  3
   1650   1657   1660   1669     1  0.0000000  0.6508444  3
   1651   1650   1654   1666     1  0.0000000  0.6508444  3
   1651   1650   1657   1660     1  0.0000000  0.6508444  3
   1651   1663   1675   3267     1  0.0000000  0.6508444  3
   1654   1650   1651   1663     1  0.0000000  0.6508444  3
   1654   1650   1657   1660     1  0.0000000  0.6508444  3
   1654   1666   1672   3244     1  0.0000000  0.6508444  3
   1657   1650   1651   1663     1  0.0000000  0.6508444  3
   1657   1650   1654   1666     1  0.0000000  0.6508444  3
   1657   1660   1669   1678     1  0.0000000  0.6508444  3
   1663   1675   3267   3263     1  180.0000771  0.4184000  2
   1663   1675   3267   3263     1  0.0000000  1.6024720  3
   1666   1672   3244   3240     1  180.0000771  0.4184000  2
   1666   1672   3244   3240     1  0.0000000  1.6024720  3
   1672   3244   3240   3239     1  180.0000771  0.4184000  2
   1672   3244   3240   3239     1  0.0000000  1.6024720  3
   1672   3244   3240   3256     1  180.0000771  5.6484000  1
   1672   3244   3240   3256     1  180.0000771  3.5564000  2
   1672   3244   3240   3256     1  0.0000000  0.4184000  3
   1675   3267   3263   3279     1  180.0000771  5.6484000  1
   1675   3267   3263   3279     1  180.0000771  3.5564000  2
   1675   3267   3263   3279     1  0.0000000  0.4184000  3
   1675   3267   3263   3262     1  180.0000771  0.4184000  2
   1675   3267   3263   3262     1  0.0000000  1.6024720  3
   1680   1681   1693   1705     1  0.0000000  0.6508444  3
   1680   1684   1696   1702     1  0.0000000  0.6508444  3
   1680   1687   1690   1699     1  0.0000000  0.6508444  3
   1681   1680   1684   1696     1  0.0000000  0.6508444  3
   1681   1680   1687   1690     1  0.0000000  0.6508444  3
   1681   1693   1705   3313     1  0.0000000  0.6508444  3
   1684   1680   1681   1693     1  0.0000000  0.6508444  3
   1684   1680   1687   1690     1  0.0000000  0.6508444  3
   1684   1696   1702   3290     1  0.0000000  0.6508444  3
   1687   1680   1681   1693     1  0.0000000  0.6508444  3
   1687   1680   1684   1696     1  0.0000000  0.6508444  3
   1687   1690   1699   1708     1  0.0000000  0.6508444  3
   1693   1705   3313   3309     1  180.0000771  0.4184000  2
   1693   1705   3313   3309     1  0.0000000  1.6024720  3
   1696   1702   3290   3286     1  180.0000771  0.4184000  2
   1696   1702   3290   3286     1  0.0000000  1.6024720  3
   1702   3290   3286   3285     1  180.0000771  0.4184000  2
   1702   3290   3286   3285     1  0.0000000  1.6024720  3
   1702   3290   3286   3302     1  180.0000771  5.6484000  1
   1702   3290   3286   3302     1  180.0000771  3.5564000  2
   1702   3290   3286   3302     1  0.0000000  0.4184000  3
   1705   3313   3309   3325     1  180.0000771  5.6484000  1
   1705   3313   3309   3325     1  180.0000771  3.5564000  2
   1705   3313   3309   3325     1  0.0000000  0.4184000  3
   1705   3313   3309   3308     1  180.0000771  0.4184000  2
   1705   3313   3309   3308     1  0.0000000  1.6024720  3
   1710   1711   1723   1735     1  0.0000000  0.6508444  3
   1710   1714   1726   1732     1  0.0000000  0.6508444  3
   1710   1717   1720   1729     1  0.0000000  0.6508444  3
   1711   1710   1714   1726     1  0.0000000  0.6508444  3
   1711   1710   1717   1720     1  0.0000000  0.6508444  3
   1711   1723   1735   3359     1  0.0000000  0.6508444  3
   1714   1710   1711   1723     1  0.0000000  0.6508444  3
   1714   1710   1717   1720     1  0.0000000  0.6508444  3
   1714   1726   1732   3336     1  0.0000000  0.6508444  3
   1717   1710   1711   1723     1  0.0000000  0.6508444  3
   1717   1710   1714   1726     1  0.0000000  0.6508444  3
   1717   1720   1729   1738     1  0.0000000  0.6508444  3
   1723   1735   3359   3355     1  180.0000771  0.4184000  2
   1723   1735   3359   3355     1  0.0000000  1.6024720  3
   1726   1732   3336   3332     1  180.0000771  0.4184000  2
   1726   1732   3336   3332     1  0.0000000  1.6024720  3
   1732   3336   3332   3331     1  180.0000771  0.4184000  2
   1732   3336   3332   3331     1  0.0000000  1.6024720  3
   1732   3336   3332   3348     1  180.0000771  5.6484000  1
   1732   3336   3332   3348     1  180.0000771  3.5564000  2
   1732   3336   3332   3348     1  0.0000000  0.4184000  3
   1735   3359   3355   3371     1  180.0000771  5.6484000  1
   1735   3359   3355   3371     1  180.0000771  3.5564000  2
   1735   3359   3355   3371     1  0.0000000  0.4184000  3
   1735   3359   3355   3354     1  180.0000771  0.4184000  2
   1735   3359   3355   3354     1  0.0000000  1.6024720  3
   1740   1741   1753   1765     1  0.0000000  0.6508444  3
   1740   1744   1756   1762     1  0.0000000  0.6508444  3
   1740   1747   1750   1759     1  0.0000000  0.6508444  3
   1741   1740   1744   1756     1  0.0000000  0.6508444  3
   1741   1740   1747   1750     1  0.0000000  0.6508444  3
   1741   1753   1765   3405     1  0.0000000  0.6508444  3
   1744   1740   1741   1753     1  0.0000000  0.6508444  3
   1744   1740   1747   1750     1  0.0000000  0.6508444  3
   1744   1756   1762   3382     1  0.0000000  0.6508444  3
   1747   1740   1741   1753     1  0.0000000  0.6508444  3
   1747   1740   1744   1756     1  0.0000000  0.6508444  3
   1747   1750   1759   1768     1  0.0000000  0.6508444  3
   1753   1765   3405   3401     1  180.0000771  0.4184000  2
   1753   1765   3405   3401     1  0.0000000  1.6024720  3
   1756   1762   3382   3378     1  180.0000771  0.4184000  2
   1756   1762   3382   3378     1  0.0000000  1.6024720  3
   1762   3382   3378   3377     1  180.0000771  0.4184000  2
   1762   3382   3378   3377     1  0.0000000  1.6024720  3
   1762   3382   3378   3394     1  180.0000771  5.6484000  1
   1762   3382   3378   3394     1  180.0000771  3.5564000  2
   1762   3382   3378   3394     1  0.0000000  0.4184000  3
   1765   3405   3401   3417     1  180.0000771  5.6484000  1
   1765   3405   3401   3417     1  180.0000771  3.5564000  2
   1765   3405   3401   3417     1  0.0000000  0.4184000  3
   1765   3405   3401   3400     1  180.0000771  0.4184000  2
   1765   3405   3401   3400     1  0.0000000  1.6024720  3
   1770   1771   1783   1795     1  0.0000000  0.6508444  3
   1770   1774   1786   1792     1  0.0000000  0.6508444  3
   1770   1777   1780   1789     1  0.0000000  0.6508444  3
   1771   1770   1774   1786     1  0.0000000  0.6508444  3
   1771   1770   1777   1780     1  0.0000000  0.6508444  3
   1771   1783   1795   3451     1  0.0000000  0.6508444  3
   1774   1770   1771   1783     1  0.0000000  0.6508444  3
   1774   1770   1777   1780     1  0.0000000  0.6508444  3
   1774   1786   1792   3428     1  0.0000000  0.6508444  3
   1777   1770   1771   1783     1  0.0000000  0.6508444  3
   1777   1770   1774   1786     1  0.0000000  0.6508444  3
   1777   1780   1789   1798     1  0.0000000  0.6508444  3
   1783   1795   3451   3447     1  180.0000771  0.4184000  2
   1783   1795   3451   3447     1  0.0000000  1.6024720  3
   1786   1792   3428   3424     1  180.0000771  0.4184000  2
   1786   1792   3428   3424     1  0.0000000  1.6024720  3
   1792   3428   3424   3423     1  180.0000771  0.4184000  2
   1792   3428   3424   3423     1  0.0000000  1.6024720  3
   1792   3428   3424   3440     1  180.0000771  5.6484000  1
   1792   3428   3424   3440     1  180.0000771  3.5564000  2
   1792   3428   3424   3440     1  0.0000000  0.4184000  3
   1795   3451   3447   3463     1  180.0000771  5.6484000  1
   1795   3451   3447   3463     1  180.0000771  3.5564000  2
   1795   3451   3447   3463     1  0.0000000  0.4184000  3
   1795   3451   3447   3446     1  180.0000771  0.4184000  2
   1795   3451   3447   3446     1  0.0000000  1.6024720  3
   1800   1801   1813   1825     1  0.0000000  0.6508444  3
   1800   1804   1816   1822     1  0.0000000  0.6508444  3
   1800   1807   1810   1819     1  0.0000000  0.6508444  3
   1801   1800   1804   1816     1  0.0000000  0.6508444  3
   1801   1800   1807   1810     1  0.0000000  0.6508444  3
   1801   1813   1825   3497     1  0.0000000  0.6508444  3
   1804   1800   1801   1813     1  0.0000000  0.6508444  3
   1804   1800   1807   1810     1  0.0000000  0.6508444  3
   1804   1816   1822   3474     1  0.0000000  0.6508444  3
   1807   1800   1801   1813     1  0.0000000  0.6508444  3
   1807   1800   1804   1816     1  0.0000000  0.6508444  3
   1807   1810   1819   1828     1  0.0000000  0.6508444  3
   1813   1825   3497   3493     1  180.0000771  0.4184000  2
   1813   1825   3497   3493     1  0.0000000  1.6024720  3
   1816   1822   3474   3470     1  180.0000771  0.4184000  2
   1816   1822   3474   3470     1  0.0000000  1.6024720  3
   1822   3474   3470   3469     1  180.0000771  0.4184000  2
   1822   3474   3470   3469     1  0.0000000  1.6024720  3
   1822   3474   3470   3486     1  180.0000771  5.6484000  1
   1822   3474   3470   3486     1  180.0000771  3.5564000  2
   1822   3474   3470   3486     1  0.0000000  0.4184000  3
   1825   3497   3493   3509     1  180.0000771  5.6484000  1
   1825   3497   3493   3509     1  180.0000771  3.5564000  2
   1825   3497   3493   3509     1  0.0000000  0.4184000  3
   1825   3497   3493   3492     1  180.0000771  0.4184000  2
   1825   3497   3493   3492     1  0.0000000  1.6024720  3
   1830   1831   1843   1855     1  0.0000000  0.6508444  3
   1830   1834   1846   1852     1  0.0000000  0.6508444  3
   1830   1837   1840   1849     1  0.0000000  0.6508444  3
   1831   1830   1834   1846     1  0.0000000  0.6508444  3
   1831   1830   1837   1840     1  0.0000000  0.6508444  3
   1831   1843   1855   3543     1  0.0000000  0.6508444  3
   1834   1830   1831   1843     1  0.0000000  0.6508444  3
   1834   1830   1837   1840     1  0.0000000  0.6508444  3
   1834   1846   1852   3520     1  0.0000000  0.6508444  3
   1837   1830   1831   1843     1  0.0000000  0.6508444  3
   1837   1830   1834   1846     1  0.0000000  0.6508444  3
   1837   1840   1849   1858     1  0.0000000  0.6508444  3
   1843   1855   3543   3539     1  180.0000771  0.4184000  2
   1843   1855   3543   3539     1  0.0000000  1.6024720  3
   1846   1852   3520   3516     1  180.0000771  0.4184000  2
   1846   1852   3520   3516     1  0.0000000  1.6024720  3
   1852   3520   3516   3515     1  180.0000771  0.4184000  2
   1852   3520   3516   3515     1  0.0000000  1.6024720  3
   1852   3520   3516   3532     1  180.0000771  5.6484000  1
   1852   3520   3516   3532     1  180.0000771  3.5564000  2
   1852   3520   3516   3532     1  0.0000000  0.4184000  3
   1855   3543   3539   3555     1  180.0000771  5.6484000  1
   1855   3543   3539   3555     1  180.0000771  3.5564000  2
   1855   3543   3539   3555     1  0.0000000  0.4184000  3
   1855   3543   3539   3538     1  180.0000771  0.4184000  2
   1855   3543   3539   3538     1  0.0000000  1.6024720  3
   1860   1861   1873   1885     1  0.0000000  0.6508444  3
   1860   1864   1876   1882     1  0.0000000  0.6508444  3
   1860   1867   1870   1879     1  0.0000000  0.6508444  3
   1861   1860   1864   1876     1  0.0000000  0.6508444  3
   1861   1860   1867   1870     1  0.0000000  0.6508444  3
   1861   1873   1885   3589     1  0.0000000  0.6508444  3
   1864   1860   1861   1873     1  0.0000000  0.6508444  3
   1864   1860   1867   1870     1  0.0000000  0.6508444  3
   1864   1876   1882   3566     1  0.0000000  0.6508444  3
   1867   1860   1861   1873     1  0.0000000  0.6508444  3
   1867   1860   1864   1876     1  0.0000000  0.6508444  3
   1867   1870   1879   1888     1  0.0000000  0.6508444  3
   1873   1885   3589   3585     1  180.0000771  0.4184000  2
   1873   1885   3589   3585     1  0.0000000  1.6024720  3
   1876   1882   3566   3562     1  180.0000771  0.4184000  2
   1876   1882   3566   3562     1  0.0000000  1.6024720  3
   1882   3566   3562   3561     1  180.0000771  0.4184000  2
   1882   3566   3562   3561     1  0.0000000  1.6024720  3
   1882   3566   3562   3578     1  180.0000771  5.6484000  1
   1882   3566   3562   3578     1  180.0000771  3.5564000  2
   1882   3566   3562   3578     1  0.0000000  0.4184000  3
   1885   3589   3585   3601     1  180.0000771  5.6484000  1
   1885   3589   3585   3601     1  180.0000771  3.5564000  2
   1885   3589   3585   3601     1  0.0000000  0.4184000  3
   1885   3589   3585   3584     1  180.0000771  0.4184000  2
   1885   3589   3585   3584     1  0.0000000  1.6024720  3
   1890   1891   1903   1915     1  0.0000000  0.6508444  3
   1890   1894   1906   1912     1  0.0000000  0.6508444  3
   1890   1897   1900   1909     1  0.0000000  0.6508444  3
   1891   1890   1894   1906     1  0.0000000  0.6508444  3
   1891   1890   1897   1900     1  0.0000000  0.6508444  3
   1891   1903   1915   3635     1  0.0000000  0.6508444  3
   1894   1890   1891   1903     1  0.0000000  0.6508444  3
   1894   1890   1897   1900     1  0.0000000  0.6508444  3
   1894   1906   1912   3612     1  0.0000000  0.6508444  3
   1897   1890   1891   1903     1  0.0000000  0.6508444  3
   1897   1890   1894   1906     1  0.0000000  0.6508444  3
   1897   1900   1909   1918     1  0.0000000  0.6508444  3
   1903   1915   3635   3631     1  180.0000771  0.4184000  2
   1903   1915   3635   3631     1  0.0000000  1.6024720  3
   1906   1912   3612   3608     1  180.0000771  0.4184000  2
   1906   1912   3612   3608     1  0.0000000  1.6024720  3
   1912   3612   3608   3607     1  180.0000771  0.4184000  2
   1912   3612   3608   3607     1  0.0000000  1.6024720  3
   1912   3612   3608   3624     1  180.0000771  5.6484000  1
   1912   3612   3608   3624     1  180.0000771  3.5564000  2
   1912   3612   3608   3624     1  0.0000000  0.4184000  3
   1915   3635   3631   3647     1  180.0000771  5.6484000  1
   1915   3635   3631   3647     1  180.0000771  3.5564000  2
   1915   3635   3631   3647     1  0.0000000  0.4184000  3
   1915   3635   3631   3630     1  180.0000771  0.4184000  2
   1915   3635   3631   3630     1  0.0000000  1.6024720  3
   1920   1921   1933   1945     1  0.0000000  0.6508444  3
   1920   1924   1936   1942     1  0.0000000  0.6508444  3
   1920   1927   1930   1939     1  0.0000000  0.6508444  3
   1921   1920   1924   1936     1  0.0000000  0.6508444  3
   1921   1920   1927   1930     1  0.0000000  0.6508444  3
   1921   1933   1945   3681     1  0.0000000  0.6508444  3
   1924   1920   1921   1933     1  0.0000000  0.6508444  3
   1924   1920   1927   1930     1  0.0000000  0.6508444  3
   1924   1936   1942   3658     1  0.0000000  0.6508444  3
   1927   1920   1921   1933     1  0.0000000  0.6508444  3
   1927   1920   1924   1936     1  0.0000000  0.6508444  3
   1927   1930   1939   1948     1  0.0000000  0.6508444  3
   1933   1945   3681   3677     1  180.0000771  0.4184000  2
   1933   1945   3681   3677     1  0.0000000  1.6024720  3
   1936   1942   3658   3654     1  180.0000771  0.4184000  2
   1936   1942   3658   3654     1  0.0000000  1.6024720  3
   1942   3658   3654   3653     1  180.0000771  0.4184000  2
   1942   3658   3654   3653     1  0.0000000  1.6024720  3
   1942   3658   3654   3670     1  180.0000771  5.6484000  1
   1942   3658   3654   3670     1  180.0000771  3.5564000  2
   1942   3658   3654   3670     1  0.0000000  0.4184000  3
   1945   3681   3677   3693     1  180.0000771  5.6484000  1
   1945   3681   3677   3693     1  180.0000771  3.5564000  2
   1945   3681   3677   3693     1  0.0000000  0.4184000  3
   1945   3681   3677   3676     1  180.0000771  0.4184000  2
   1945   3681   3677   3676     1  0.0000000  1.6024720  3
   1950   1951   1963   1975     1  0.0000000  0.6508444  3
   1950   1954   1966   1972     1  0.0000000  0.6508444  3
   1950   1957   1960   1969     1  0.0000000  0.6508444  3
   1951   1950   1954   1966     1  0.0000000  0.6508444  3
   1951   1950   1957   1960     1  0.0000000  0.6508444  3
   1951   1963   1975   3727     1  0.0000000  0.6508444  3
   1954   1950   1951   1963     1  0.0000000  0.6508444  3
   1954   1950   1957   1960     1  0.0000000  0.6508444  3
   1954   1966   1972   3704     1  0.0000000  0.6508444  3
   1957   1950   1951   1963     1  0.0000000  0.6508444  3
   1957   1950   1954   1966     1  0.0000000  0.6508444  3
   1957   1960   1969   1978     1  0.0000000  0.6508444  3
   1963   1975   3727   3723     1  180.0000771  0.4184000  2
   1963   1975   3727   3723     1  0.0000000  1.6024720  3
   1966   1972   3704   3700     1  180.0000771  0.4184000  2
   1966   1972   3704   3700     1  0.0000000  1.6024720  3
   1972   3704   3700   3699     1  180.0000771  0.4184000  2
   1972   3704   3700   3699     1  0.0000000  1.6024720  3
   1972   3704   3700   3716     1  180.0000771  5.6484000  1
   1972   3704   3700   3716     1  180.0000771  3.5564000  2
   1972   3704   3700   3716     1  0.0000000  0.4184000  3
   1975   3727   3723   3739     1  180.0000771  5.6484000  1
   1975   3727   3723   3739     1  180.0000771  3.5564000  2
   1975   3727   3723   3739     1  0.0000000  0.4184000  3
   1975   3727   3723   3722     1  180.0000771  0.4184000  2
   1975   3727   3723   3722     1  0.0000000  1.6024720  3
   1980   1981   1993   2005     1  0.0000000  0.6508444  3
   1980   1984   1996   2002     1  0.0000000  0.6508444  3
   1980   1987   1990   1999     1  0.0000000  0.6508444  3
   1981   1980   1984   1996     1  0.0000000  0.6508444  3
   1981   1980   1987   1990     1  0.0000000  0.6508444  3
   1981   1993   2005   3773     1  0.0000000  0.6508444  3
   1984   1980   1981   1993     1  0.0000000  0.6508444  3
   1984   1980   1987   1990     1  0.0000000  0.6508444  3
   1984   1996   2002   3750     1  0.0000000  0.6508444  3
   1987   1980   1981   1993     1  0.0000000  0.6508444  3
   1987   1980   1984   1996     1  0.0000000  0.6508444  3
   1987   1990   1999   2008     1  0.0000000  0.6508444  3
   1993   2005   3773   3769     1  180.0000771  0.4184000  2
   1993   2005   3773   3769     1  0.0000000  1.6024720  3
   1996   2002   3750   3746     1  180.0000771  0.4184000  2
   1996   2002   3750   3746     1  0.0000000  1.6024720  3
   2002   3750   3746   3745     1  180.0000771  0.4184000  2
   2002   3750   3746   3745     1  0.0000000  1.6024720  3
   2002   3750   3746   3762     1  180.0000771  5.6484000  1
   2002   3750   3746   3762     1  180.0000771  3.5564000  2
   2002   3750   3746   3762     1  0.0000000  0.4184000  3
   2005   3773   3769   3785     1  180.0000771  5.6484000  1
   2005   3773   3769   3785     1  180.0000771  3.5564000  2
   2005   3773   3769   3785     1  0.0000000  0.4184000  3
   2005   3773   3769   3768     1  180.0000771  0.4184000  2
   2005   3773   3769   3768     1  0.0000000  1.6024720  3
   2010   2011   2023   2035     1  0.0000000  0.6508444  3
   2010   2014   2026   2032     1  0.0000000  0.6508444  3
   2010   2017   2020   2029     1  0.0000000  0.6508444  3
   2011   2010   2014   2026     1  0.0000000  0.6508444  3
   2011   2010   2017   2020     1  0.0000000  0.6508444  3
   2011   2023   2035   3819     1  0.0000000  0.6508444  3
   2014   2010   2011   2023     1  0.0000000  0.6508444  3
   2014   2010   2017   2020     1  0.0000000  0.6508444  3
   2014   2026   2032   3796     1  0.0000000  0.6508444  3
   2017   2010   2011   2023     1  0.0000000  0.6508444  3
   2017   2010   2014   2026     1  0.0000000  0.6508444  3
   2017   2020   2029   2038     1  0.0000000  0.6508444  3
   2023   2035   3819   3815     1  180.0000771  0.4184000  2
   2023   2035   3819   3815     1  0.0000000  1.6024720  3
   2026   2032   3796   3792     1  180.0000771  0.4184000  2
   2026   2032   3796   3792     1  0.0000000  1.6024720  3
   2032   3796   3792   3791     1  180.0000771  0.4184000  2
   2032   3796   3792   3791     1  0.0000000  1.6024720  3
   2032   3796   3792   3808     1  180.0000771  5.6484000  1
   2032   3796   3792   3808     1  180.0000771  3.5564000  2
   2032   3796   3792   3808     1  0.0000000  0.4184000  3
   2035   3819   3815   3831     1  180.0000771  5.6484000  1
   2035   3819   3815   3831     1  180.0000771  3.5564000  2
   2035   3819   3815   3831     1  0.0000000  0.4184000  3
   2035   3819   3815   3814     1  180.0000771  0.4184000  2
   2035   3819   3815   3814     1  0.0000000  1.6024720  3
   2040   2041   2053   2065     1  0.0000000  0.6508444  3
   2040   2044   2056   2062     1  0.0000000  0.6508444  3
   2040   2047   2050   2059     1  0.0000000  0.6508444  3
   2041   2040   2044   2056     1  0.0000000  0.6508444  3
   2041   2040   2047   2050     1  0.0000000  0.6508444  3
   2041   2053   2065   3865     1  0.0000000  0.6508444  3
   2044   2040   2041   2053     1  0.0000000  0.6508444  3
   2044   2040   2047   2050     1  0.0000000  0.6508444  3
   2044   2056   2062   3842     1  0.0000000  0.6508444  3
   2047   2040   2041   2053     1  0.0000000  0.6508444  3
   2047   2040   2044   2056     1  0.0000000  0.6508444  3
   2047   2050   2059   2068     1  0.0000000  0.6508444  3
   2053   2065   3865   3861     1  180.0000771  0.4184000  2
   2053   2065   3865   3861     1  0.0000000  1.6024720  3
   2056   2062   3842   3838     1  180.0000771  0.4184000  2
   2056   2062   3842   3838     1  0.0000000  1.6024720  3
   2062   3842   3838   3837     1  180.0000771  0.4184000  2
   2062   3842   3838   3837     1  0.0000000  1.6024720  3
   2062   3842   3838   3854     1  180.0000771  5.6484000  1
   2062   3842   3838   3854     1  180.0000771  3.5564000  2
   2062   3842   3838   3854     1  0.0000000  0.4184000  3
   2065   3865   3861   3877     1  180.0000771  5.6484000  1
   2065   3865   3861   3877     1  180.0000771  3.5564000  2
   2065   3865   3861   3877     1  0.0000000  0.4184000  3
   2065   3865   3861   3860     1  180.0000771  0.4184000  2
   2065   3865   3861   3860     1  0.0000000  1.6024720  3
   2070   2071   2083   2095     1  0.0000000  0.6508444  3
   2070   2074   2086   2092     1  0.0000000  0.6508444  3
   2070   2077   2080   2089     1  0.0000000  0.6508444  3
   2071   2070   2074   2086     1  0.0000000  0.6508444  3
   2071   2070   2077   2080     1  0.0000000  0.6508444  3
   2071   2083   2095   3911     1  0.0000000  0.6508444  3
   2074   2070   2071   2083     1  0.0000000  0.6508444  3
   2074   2070   2077   2080     1  0.0000000  0.6508444  3
   2074   2086   2092   3888     1  0.0000000  0.6508444  3
   2077   2070   2071   2083     1  0.0000000  0.6508444  3
   2077   2070   2074   2086     1  0.0000000  0.6508444  3
   2077   2080   2089   2098     1  0.0000000  0.6508444  3
   2083   2095   3911   3907     1  180.0000771  0.4184000  2
   2083   2095   3911   3907     1  0.0000000  1.6024720  3
   2086   2092   3888   3884     1  180.0000771  0.4184000  2
   2086   2092   3888   3884     1  0.0000000  1.6024720  3
   2092   3888   3884   3883     1  180.0000771  0.4184000  2
   2092   3888   3884   3883     1  0.0000000  1.6024720  3
   2092   3888   3884   3900     1  180.0000771  5.6484000  1
   2092   3888   3884   3900     1  180.0000771  3.5564000  2
   2092   3888   3884   3900     1  0.0000000  0.4184000  3
   2095   3911   3907   3923     1  180.0000771  5.6484000  1
   2095   3911   3907   3923     1  180.0000771  3.5564000  2
   2095   3911   3907   3923     1  0.0000000  0.4184000  3
   2095   3911   3907   3906     1  180.0000771  0.4184000  2
   2095   3911   3907   3906     1  0.0000000  1.6024720  3
   2100   2101   2113   2125     1  0.0000000  0.6508444  3
   2100   2104   2116   2122     1  0.0000000  0.6508444  3
   2100   2107   2110   2119     1  0.0000000  0.6508444  3
   2101   2100   2104   2116     1  0.0000000  0.6508444  3
   2101   2100   2107   2110     1  0.0000000  0.6508444  3
   2101   2113   2125   3957     1  0.0000000  0.6508444  3
   2104   2100   2101   2113     1  0.0000000  0.6508444  3
   2104   2100   2107   2110     1  0.0000000  0.6508444  3
   2104   2116   2122   3934     1  0.0000000  0.6508444  3
   2107   2100   2101   2113     1  0.0000000  0.6508444  3
   2107   2100   2104   2116     1  0.0000000  0.6508444  3
   2107   2110   2119   2128     1  0.0000000  0.6508444  3
   2113   2125   3957   3953     1  180.0000771  0.4184000  2
   2113   2125   3957   3953     1  0.0000000  1.6024720  3
   2116   2122   3934   3930     1  180.0000771  0.4184000  2
   2116   2122   3934   3930     1  0.0000000  1.6024720  3
   2122   3934   3930   3929     1  180.0000771  0.4184000  2
   2122   3934   3930   3929     1  0.0000000  1.6024720  3
   2122   3934   3930   3946     1  180.0000771  5.6484000  1
   2122   3934   3930   3946     1  180.0000771  3.5564000  2
   2122   3934   3930   3946     1  0.0000000  0.4184000  3
   2125   3957   3953   3969     1  180.0000771  5.6484000  1
   2125   3957   3953   3969     1  180.0000771  3.5564000  2
   2125   3957   3953   3969     1  0.0000000  0.4184000  3
   2125   3957   3953   3952     1  180.0000771  0.4184000  2
   2125   3957   3953   3952     1  0.0000000  1.6024720  3
   2130   2131   2143   2155     1  0.0000000  0.6508444  3
   2130   2134   2146   2152     1  0.0000000  0.6508444  3
   2130   2137   2140   2149     1  0.0000000  0.6508444  3
   2131   2130   2134   2146     1  0.0000000  0.6508444  3
   2131   2130   2137   2140     1  0.0000000  0.6508444  3
   2131   2143   2155   4003     1  0.0000000  0.6508444  3
   2134   2130   2131   2143     1  0.0000000  0.6508444  3
   2134   2130   2137   2140     1  0.0000000  0.6508444  3
   2134   2146   2152   3980     1  0.0000000  0.6508444  3
   2137   2130   2131   2143     1  0.0000000  0.6508444  3
   2137   2130   2134   2146     1  0.0000000  0.6508444  3
   2137   2140   2149   2158     1  0.0000000  0.6508444  3
   2143   2155   4003   3999     1  180.0000771  0.4184000  2
   2143   2155   4003   3999     1  0.0000000  1.6024720  3
   2146   2152   3980   3976     1  180.0000771  0.4184000  2
   2146   2152   3980   3976     1  0.0000000  1.6024720  3
   2152   3980   3976   3975     1  180.0000771  0.4184000  2
   2152   3980   3976   3975     1  0.0000000  1.6024720  3
   2152   3980   3976   3992     1  180.0000771  5.6484000  1
   2152   3980   3976   3992     1  180.0000771  3.5564000  2
   2152   3980   3976   3992     1  0.0000000  0.4184000  3
   2155   4003   3999   4015     1  180.0000771  5.6484000  1
   2155   4003   3999   4015     1  180.0000771  3.5564000  2
   2155   4003   3999   4015     1  0.0000000  0.4184000  3
   2155   4003   3999   3998     1  180.0000771  0.4184000  2
   2155   4003   3999   3998     1  0.0000000  1.6024720  3
   2160   2161   2173   2185     1  0.0000000  0.6508444  3
   2160   2164   2176   2182     1  0.0000000  0.6508444  3
   2160   2167   2170   2179     1  0.0000000  0.6508444  3
   2161   2160   2164   2176     1  0.0000000  0.6508444  3
   2161   2160   2167   2170     1  0.0000000  0.6508444  3
   2161   2173   2185   4049     1  0.0000000  0.6508444  3
   2164   2160   2161   2173     1  0.0000000  0.6508444  3
   2164   2160   2167   2170     1  0.0000000  0.6508444  3
   2164   2176   2182   4026     1  0.0000000  0.6508444  3
   2167   2160   2161   2173     1  0.0000000  0.6508444  3
   2167   2160   2164   2176     1  0.0000000  0.6508444  3
   2167   2170   2179   2188     1  0.0000000  0.6508444  3
   2173   2185   4049   4045     1  180.0000771  0.4184000  2
   2173   2185   4049   4045     1  0.0000000  1.6024720  3
   2176   2182   4026   4022     1  180.0000771  0.4184000  2
   2176   2182   4026   4022     1  0.0000000  1.6024720  3
   2182   4026   4022   4021     1  180.0000771  0.4184000  2
   2182   4026   4022   4021     1  0.0000000  1.6024720  3
   2182   4026   4022   4038     1  180.0000771  5.6484000  1
   2182   4026   4022   4038     1  180.0000771  3.5564000  2
   2182   4026   4022   4038     1  0.0000000  0.4184000  3
   2185   4049   4045   4061     1  180.0000771  5.6484000  1
   2185   4049   4045   4061     1  180.0000771  3.5564000  2
   2185   4049   4045   4061     1  0.0000000  0.4184000  3
   2185   4049   4045   4044     1  180.0000771  0.4184000  2
   2185   4049   4045   4044     1  0.0000000  1.6024720  3
   2190   2191   2203   2215     1  0.0000000  0.6508444  3
   2190   2194   2206   2212     1  0.0000000  0.6508444  3
   2190   2197   2200   2209     1  0.0000000  0.6508444  3
   2191   2190   2194   2206     1  0.0000000  0.6508444  3
   2191   2190   2197   2200     1  0.0000000  0.6508444  3
   2191   2203   2215   4095     1  0.0000000  0.6508444  3
   2194   2190   2191   2203     1  0.0000000  0.6508444  3
   2194   2190   2197   2200     1  0.0000000  0.6508444  3
   2194   2206   2212   4072     1  0.0000000  0.6508444  3
   2197   2190   2191   2203     1  0.0000000  0.6508444  3
   2197   2190   2194   2206     1  0.0000000  0.6508444  3
   2197   2200   2209   2218     1  0.0000000  0.6508444  3
   2203   2215   4095   4091     1  180.0000771  0.4184000  2
   2203   2215   4095   4091     1  0.0000000  1.6024720  3
   2206   2212   4072   4068     1  180.0000771  0.4184000  2
   2206   2212   4072   4068     1  0.0000000  1.6024720  3
   2212   4072   4068   4067     1  180.0000771  0.4184000  2
   2212   4072   4068   4067     1  0.0000000  1.6024720  3
   2212   4072   4068   4084     1  180.0000771  5.6484000  1
   2212   4072   4068   4084     1  180.0000771  3.5564000  2
   2212   4072   4068   4084     1  0.0000000  0.4184000  3
   2215   4095   4091   4107     1  180.0000771  5.6484000  1
   2215   4095   4091   4107     1  180.0000771  3.5564000  2
   2215   4095   4091   4107     1  0.0000000  0.4184000  3
   2215   4095   4091   4090     1  180.0000771  0.4184000  2
   2215   4095   4091   4090     1  0.0000000  1.6024720  3
   2220   2221   2233   2245     1  0.0000000  0.6508444  3
   2220   2224   2236   2242     1  0.0000000  0.6508444  3
   2220   2227   2230   2239     1  0.0000000  0.6508444  3
   2221   2220   2224   2236     1  0.0000000  0.6508444  3
   2221   2220   2227   2230     1  0.0000000  0.6508444  3
   2221   2233   2245   4141     1  0.0000000  0.6508444  3
   2224   2220   2221   2233     1  0.0000000  0.6508444  3
   2224   2220   2227   2230     1  0.0000000  0.6508444  3
   2224   2236   2242   4118     1  0.0000000  0.6508444  3
   2227   2220   2221   2233     1  0.0000000  0.6508444  3
   2227   2220   2224   2236     1  0.0000000  0.6508444  3
   2227   2230   2239   2248     1  0.0000000  0.6508444  3
   2233   2245   4141   4137     1  180.0000771  0.4184000  2
   2233   2245   4141   4137     1  0.0000000  1.6024720  3
   2236   2242   4118   4114     1  180.0000771  0.4184000  2
   2236   2242   4118   4114     1  0.0000000  1.6024720  3
   2242   4118   4114   4113     1  180.0000771  0.4184000  2
   2242   4118   4114   4113     1  0.0000000  1.6024720  3
   2242   4118   4114   4130     1  180.0000771  5.6484000  1
   2242   4118   4114   4130     1  180.0000771  3.5564000  2
   2242   4118   4114   4130     1  0.0000000  0.4184000  3
   2245   4141   4137   4153     1  180.0000771  5.6484000  1
   2245   4141   4137   4153     1  180.0000771  3.5564000  2
   2245   4141   4137   4153     1  0.0000000  0.4184000  3
   2245   4141   4137   4136     1  180.0000771  0.4184000  2
   2245   4141   4137   4136     1  0.0000000  1.6024720  3
   2250   2251   2263   2275     1  0.0000000  0.6508444  3
   2250   2254   2266   2272     1  0.0000000  0.6508444  3
   2250   2257   2260   2269     1  0.0000000  0.6508444  3
   2251   2250   2254   2266     1  0.0000000  0.6508444  3
   2251   2250   2257   2260     1  0.0000000  0.6508444  3
   2251   2263   2275   4187     1  0.0000000  0.6508444  3
   2254   2250   2251   2263     1  0.0000000  0.6508444  3
   2254   2250   2257   2260     1  0.0000000  0.6508444  3
   2254   2266   2272   4164     1  0.0000000  0.6508444  3
   2257   2250   2251   2263     1  0.0000000  0.6508444  3
   2257   2250   2254   2266     1  0.0000000  0.6508444  3
   2257   2260   2269   2278     1  0.0000000  0.6508444  3
   2263   2275   4187   4183     1  180.0000771  0.4184000  2
   2263   2275   4187   4183     1  0.0000000  1.6024720  3
   2266   2272   4164   4160     1  180.0000771  0.4184000  2
   2266   2272   4164   4160     1  0.0000000  1.6024720  3
   2272   4164   4160   4159     1  180.0000771  0.4184000  2
   2272   4164   4160   4159     1  0.0000000  1.6024720  3
   2272   4164   4160   4176     1  180.0000771  5.6484000  1
   2272   4164   4160   4176     1  180.0000771  3.5564000  2
   2272   4164   4160   4176     1  0.0000000  0.4184000  3
   2275   4187   4183   4199     1  180.0000771  5.6484000  1
   2275   4187   4183   4199     1  180.0000771  3.5564000  2
   2275   4187   4183   4199     1  0.0000000  0.4184000  3
   2275   4187   4183   4182     1  180.0000771  0.4184000  2
   2275   4187   4183   4182     1  0.0000000  1.6024720  3
   2280   2281   2293   2305     1  0.0000000  0.6508444  3
   2280   2284   2296   2302     1  0.0000000  0.6508444  3
   2280   2287   2290   2299     1  0.0000000  0.6508444  3
   2281   2280   2284   2296     1  0.0000000  0.6508444  3
   2281   2280   2287   2290     1  0.0000000  0.6508444  3
   2281   2293   2305   4233     1  0.0000000  0.6508444  3
   2284   2280   2281   2293     1  0.0000000  0.6508444  3
   2284   2280   2287   2290     1  0.0000000  0.6508444  3
   2284   2296   2302   4210     1  0.0000000  0.6508444  3
   2287   2280   2281   2293     1  0.0000000  0.6508444  3
   2287   2280   2284   2296     1  0.0000000  0.6508444  3
   2287   2290   2299   2308     1  0.0000000  0.6508444  3
   2293   2305   4233   4229     1  180.0000771  0.4184000  2
   2293   2305   4233   4229     1  0.0000000  1.6024720  3
   2296   2302   4210   4206     1  180.0000771  0.4184000  2
   2296   2302   4210   4206     1  0.0000000  1.6024720  3
   2302   4210   4206   4205     1  180.0000771  0.4184000  2
   2302   4210   4206   4205     1  0.0000000  1.6024720  3
   2302   4210   4206   4222     1  180.0000771  5.6484000  1
   2302   4210   4206   4222     1  180.0000771  3.5564000  2
   2302   4210   4206   4222     1  0.0000000  0.4184000  3
   2305   4233   4229   4245     1  180.0000771  5.6484000  1
   2305   4233   4229   4245     1  180.0000771  3.5564000  2
   2305   4233   4229   4245     1  0.0000000  0.4184000  3
   2305   4233   4229   4228     1  180.0000771  0.4184000  2
   2305   4233   4229   4228     1  0.0000000  1.6024720  3
   2310   2311   2323   2335     1  0.0000000  0.6508444  3
   2310   2314   2326   2332     1  0.0000000  0.6508444  3
   2310   2317   2320   2329     1  0.0000000  0.6508444  3
   2311   2310   2314   2326     1  0.0000000  0.6508444  3
   2311   2310   2317   2320     1  0.0000000  0.6508444  3
   2311   2323   2335   4279     1  0.0000000  0.6508444  3
   2314   2310   2311   2323     1  0.0000000  0.6508444  3
   2314   2310   2317   2320     1  0.0000000  0.6508444  3
   2314   2326   2332   4256     1  0.0000000  0.6508444  3
   2317   2310   2311   2323     1  0.0000000  0.6508444  3
   2317   2310   2314   2326     1  0.0000000  0.6508444  3
   2317   2320   2329   2338     1  0.0000000  0.6508444  3
   2323   2335   4279   4275     1  180.0000771  0.4184000  2
   2323   2335   4279   4275     1  0.0000000  1.6024720  3
   2326   2332   4256   4252     1  180.0000771  0.4184000  2
   2326   2332   4256   4252     1  0.0000000  1.6024720  3
   2332   4256   4252   4251     1  180.0000771  0.4184000  2
   2332   4256   4252   4251     1  0.0000000  1.6024720  3
   2332   4256   4252   4268     1  180.0000771  5.6484000  1
   2332   4256   4252   4268     1  180.0000771  3.5564000  2
   2332   4256   4252   4268     1  0.0000000  0.4184000  3
   2335   4279   4275   4291     1  180.0000771  5.6484000  1
   2335   4279   4275   4291     1  180.0000771  3.5564000  2
   2335   4279   4275   4291     1  0.0000000  0.4184000  3
   2335   4279   4275   4274     1  180.0000771  0.4184000  2
   2335   4279   4275   4274     1  0.0000000  1.6024720  3
   2340   2341   2353   2365     1  0.0000000  0.6508444  3
   2340   2344   2356   2362     1  0.0000000  0.6508444  3
   2340   2347   2350   2359     1  0.0000000  0.6508444  3
   2341   2340   2344   2356     1  0.0000000  0.6508444  3
   2341   2340   2347   2350     1  0.0000000  0.6508444  3
   2341   2353   2365   4325     1  0.0000000  0.6508444  3
   2344   2340   2341   2353     1  0.0000000  0.6508444  3
   2344   2340   2347   2350     1  0.0000000  0.6508444  3
   2344   2356   2362   4302     1  0.0000000  0.6508444  3
   2347   2340   2341   2353     1  0.0000000  0.6508444  3
   2347   2340   2344   2356     1  0.0000000  0.6508444  3
   2347   2350   2359   2368     1  0.0000000  0.6508444  3
   2353   2365   4325   4321     1  180.0000771  0.4184000  2
   2353   2365   4325   4321     1  0.0000000  1.6024720  3
   2356   2362   4302   4298     1  180.0000771  0.4184000  2
   2356   2362   4302   4298     1  0.0000000  1.6024720  3
   2362   4302   4298   4297     1  180.0000771  0.4184000  2
   2362   4302   4298   4297     1  0.0000000  1.6024720  3
   2362   4302   4298   4314     1  180.0000771  5.6484000  1
   2362   4302   4298   4314     1  180.0000771  3.5564000  2
   2362   4302   4298   4314     1  0.0000000  0.4184000  3
   2365   4325   4321   4337     1  180.0000771  5.6484000  1
   2365   4325   4321   4337     1  180.0000771  3.5564000  2
   2365   4325   4321   4337     1  0.0000000  0.4184000  3
   2365   4325   4321   4320     1  180.0000771  0.4184000  2
   2365   4325   4321   4320     1  0.0000000  1.6024720  3
   2370   2371   2383   2395     1  0.0000000  0.6508444  3
   2370   2374   2386   2392     1  0.0000000  0.6508444  3
   2370   2377   2380   2389     1  0.0000000  0.6508444  3
   2371   2370   2374   2386     1  0.0000000  0.6508444  3
   2371   2370   2377   2380     1  0.0000000  0.6508444  3
   2371   2383   2395   4371     1  0.0000000  0.6508444  3
   2374   2370   2371   2383     1  0.0000000  0.6508444  3
   2374   2370   2377   2380     1  0.0000000  0.6508444  3
   2374   2386   2392   4348     1  0.0000000  0.6508444  3
   2377   2370   2371   2383     1  0.0000000  0.6508444  3
   2377   2370   2374   2386     1  0.0000000  0.6508444  3
   2377   2380   2389   2398     1  0.0000000  0.6508444  3
   2383   2395   4371   4367     1  180.0000771  0.4184000  2
   2383   2395   4371   4367     1  0.0000000  1.6024720  3
   2386   2392   4348   4344     1  180.0000771  0.4184000  2
   2386   2392   4348   4344     1  0.0000000  1.6024720  3
   2392   4348   4344   4343     1  180.0000771  0.4184000  2
   2392   4348   4344   4343     1  0.0000000  1.6024720  3
   2392   4348   4344   4360     1  180.0000771  5.6484000  1
   2392   4348   4344   4360     1  180.0000771  3.5564000  2
   2392   4348   4344   4360     1  0.0000000  0.4184000  3
   2395   4371   4367   4383     1  180.0000771  5.6484000  1
   2395   4371   4367   4383     1  180.0000771  3.5564000  2
   2395   4371   4367   4383     1  0.0000000  0.4184000  3
   2395   4371   4367   4366     1  180.0000771  0.4184000  2
   2395   4371   4367   4366     1  0.0000000  1.6024720  3
   2400   2401   2413   2425     1  0.0000000  0.6508444  3
   2400   2404   2416   2422     1  0.0000000  0.6508444  3
   2400   2407   2410   2419     1  0.0000000  0.6508444  3
   2401   2400   2404   2416     1  0.0000000  0.6508444  3
   2401   2400   2407   2410     1  0.0000000  0.6508444  3
   2401   2413   2425   4417     1  0.0000000  0.6508444  3
   2404   2400   2401   2413     1  0.0000000  0.6508444  3
   2404   2400   2407   2410     1  0.0000000  0.6508444  3
   2404   2416   2422   4394     1  0.0000000  0.6508444  3
   2407   2400   2401   2413     1  0.0000000  0.6508444  3
   2407   2400   2404   2416     1  0.0000000  0.6508444  3
   2407   2410   2419   2428     1  0.0000000  0.6508444  3
   2413   2425   4417   4413     1  180.0000771  0.4184000  2
   2413   2425   4417   4413     1  0.0000000  1.6024720  3
   2416   2422   4394   4390     1  180.0000771  0.4184000  2
   2416   2422   4394   4390     1  0.0000000  1.6024720  3
   2422   4394   4390   4389     1  180.0000771  0.4184000  2
   2422   4394   4390   4389     1  0.0000000  1.6024720  3
   2422   4394   4390   4406     1  180.0000771  5.6484000  1
   2422   4394   4390   4406     1  180.0000771  3.5564000  2
   2422   4394   4390   4406     1  0.0000000  0.4184000  3
   2425   4417   4413   4429     1  180.0000771  5.6484000  1
   2425   4417   4413   4429     1  180.0000771  3.5564000  2
   2425   4417   4413   4429     1  0.0000000  0.4184000  3
   2425   4417   4413   4412     1  180.0000771  0.4184000  2
   2425   4417   4413   4412     1  0.0000000  1.6024720  3
   2430   2431   2443   2455     1  0.0000000  0.6508444  3
   2430   2434   2446   2452     1  0.0000000  0.6508444  3
   2430   2437   2440   2449     1  0.0000000  0.6508444  3
   2431   2430   2434   2446     1  0.0000000  0.6508444  3
   2431   2430   2437   2440     1  0.0000000  0.6508444  3
   2431   2443   2455   4463     1  0.0000000  0.6508444  3
   2434   2430   2431   2443     1  0.0000000  0.6508444  3
   2434   2430   2437   2440     1  0.0000000  0.6508444  3
   2434   2446   2452   4440     1  0.0000000  0.6508444  3
   2437   2430   2431   2443     1  0.0000000  0.6508444  3
   2437   2430   2434   2446     1  0.0000000  0.6508444  3
   2437   2440   2449   2458     1  0.0000000  0.6508444  3
   2443   2455   4463   4459     1  180.0000771  0.4184000  2
   2443   2455   4463   4459     1  0.0000000  1.6024720  3
   2446   2452   4440   4436     1  180.0000771  0.4184000  2
   2446   2452   4440   4436     1  0.0000000  1.6024720  3
   2452   4440   4436   4435     1  180.0000771  0.4184000  2
   2452   4440   4436   4435     1  0.0000000  1.6024720  3
   2452   4440   4436   4452     1  180.0000771  5.6484000  1
   2452   4440   4436   4452     1  180.0000771  3.5564000  2
   2452   4440   4436   4452     1  0.0000000  0.4184000  3
   2455   4463   4459   4475     1  180.0000771  5.6484000  1
   2455   4463   4459   4475     1  180.0000771  3.5564000  2
   2455   4463   4459   4475     1  0.0000000  0.4184000  3
   2455   4463   4459   4458     1  180.0000771  0.4184000  2
   2455   4463   4459   4458     1  0.0000000  1.6024720  3
   2460   2461   2473   2485     1  0.0000000  0.6508444  3
   2460   2464   2476   2482     1  0.0000000  0.6508444  3
   2460   2467   2470   2479     1  0.0000000  0.6508444  3
   2461   2460   2464   2476     1  0.0000000  0.6508444  3
   2461   2460   2467   2470     1  0.0000000  0.6508444  3
   2461   2473   2485   4509     1  0.0000000  0.6508444  3
   2464   2460   2461   2473     1  0.0000000  0.6508444  3
   2464   2460   2467   2470     1  0.0000000  0.6508444  3
   2464   2476   2482   4486     1  0.0000000  0.6508444  3
   2467   2460   2461   2473     1  0.0000000  0.6508444  3
   2467   2460   2464   2476     1  0.0000000  0.6508444  3
   2467   2470   2479   2488     1  0.0000000  0.6508444  3
   2473   2485   4509   4505     1  180.0000771  0.4184000  2
   2473   2485   4509   4505     1  0.0000000  1.6024720  3
   2476   2482   4486   4482     1  180.0000771  0.4184000  2
   2476   2482   4486   4482     1  0.0000000  1.6024720  3
   2482   4486   4482   4481     1  180.0000771  0.4184000  2
   2482   4486   4482   4481     1  0.0000000  1.6024720  3
   2482   4486   4482   4498     1  180.0000771  5.6484000  1
   2482   4486   4482   4498     1  180.0000771  3.5564000  2
   2482   4486   4482   4498     1  0.0000000  0.4184000  3
   2485   4509   4505   4521     1  180.0000771  5.6484000  1
   2485   4509   4505   4521     1  180.0000771  3.5564000  2
   2485   4509   4505   4521     1  0.0000000  0.4184000  3
   2485   4509   4505   4504     1  180.0000771  0.4184000  2
   2485   4509   4505   4504     1  0.0000000  1.6024720  3
   2490   2491   2503   2515     1  0.0000000  0.6508444  3
   2490   2494   2506   2512     1  0.0000000  0.6508444  3
   2490   2497   2500   2509     1  0.0000000  0.6508444  3
   2491   2490   2494   2506     1  0.0000000  0.6508444  3
   2491   2490   2497   2500     1  0.0000000  0.6508444  3
   2491   2503   2515   4555     1  0.0000000  0.6508444  3
   2494   2490   2491   2503     1  0.0000000  0.6508444  3
   2494   2490   2497   2500     1  0.0000000  0.6508444  3
   2494   2506   2512   4532     1  0.0000000  0.6508444  3
   2497   2490   2491   2503     1  0.0000000  0.6508444  3
   2497   2490   2494   2506     1  0.0000000  0.6508444  3
   2497   2500   2509   2518     1  0.0000000  0.6508444  3
   2503   2515   4555   4551     1  180.0000771  0.4184000  2
   2503   2515   4555   4551     1  0.0000000  1.6024720  3
   2506   2512   4532   4528     1  180.0000771  0.4184000  2
   2506   2512   4532   4528     1  0.0000000  1.6024720  3
   2512   4532   4528   4527     1  180.0000771  0.4184000  2
   2512   4532   4528   4527     1  0.0000000  1.6024720  3
   2512   4532   4528   4544     1  180.0000771  5.6484000  1
   2512   4532   4528   4544     1  180.0000771  3.5564000  2
   2512   4532   4528   4544     1  0.0000000  0.4184000  3
   2515   4555   4551   4567     1  180.0000771  5.6484000  1
   2515   4555   4551   4567     1  180.0000771  3.5564000  2
   2515   4555   4551   4567     1  0.0000000  0.4184000  3
   2515   4555   4551   4550     1  180.0000771  0.4184000  2
   2515   4555   4551   4550     1  0.0000000  1.6024720  3
   2520   2521   2533   2545     1  0.0000000  0.6508444  3
   2520   2524   2536   2542     1  0.0000000  0.6508444  3
   2520   2527   2530   2539     1  0.0000000  0.6508444  3
   2521   2520   2524   2536     1  0.0000000  0.6508444  3
   2521   2520   2527   2530     1  0.0000000  0.6508444  3
   2521   2533   2545   4601     1  0.0000000  0.6508444  3
   2524   2520   2521   2533     1  0.0000000  0.6508444  3
   2524   2520   2527   2530     1  0.0000000  0.6508444  3
   2524   2536   2542   4578     1  0.0000000  0.6508444  3
   2527   2520   2521   2533     1  0.0000000  0.6508444  3
   2527   2520   2524   2536     1  0.0000000  0.6508444  3
   2527   2530   2539   2548     1  0.0000000  0.6508444  3
   2533   2545   4601   4597     1  180.0000771  0.4184000  2
   2533   2545   4601   4597     1  0.0000000  1.6024720  3
   2536   2542   4578   4574     1  180.0000771  0.4184000  2
   2536   2542   4578   4574     1  0.0000000  1.6024720  3
   2542   4578   4574   4573     1  180.0000771  0.4184000  2
   2542   4578   4574   4573     1  0.0000000  1.6024720  3
   2542   4578   4574   4590     1  180.0000771  5.6484000  1
   2542   4578   4574   4590     1  180.0000771  3.5564000  2
   2542   4578   4574   4590     1  0.0000000  0.4184000  3
   2545   4601   4597   4613     1  180.0000771  5.6484000  1
   2545   4601   4597   4613     1  180.0000771  3.5564000  2
   2545   4601   4597   4613     1  0.0000000  0.4184000  3
   2545   4601   4597   4596     1  180.0000771  0.4184000  2
   2545   4601   4597   4596     1  0.0000000  1.6024720  3
   2550   2551   2563   2575     1  0.0000000  0.6508444  3
   2550   2554   2566   2572     1  0.0000000  0.6508444  3
   2550   2557   2560   2569     1  0.0000000  0.6508444  3
   2551   2550   2554   2566     1  0.0000000  0.6508444  3
   2551   2550   2557   2560     1  0.0000000  0.6508444  3
   2551   2563   2575   4647     1  0.0000000  0.6508444  3
   2554   2550   2551   2563     1  0.0000000  0.6508444  3
   2554   2550   2557   2560     1  0.0000000  0.6508444  3
   2554   2566   2572   4624     1  0.0000000  0.6508444  3
   2557   2550   2551   2563     1  0.0000000  0.6508444  3
   2557   2550   2554   2566     1  0.0000000  0.6508444  3
   2557   2560   2569   2578     1  0.0000000  0.6508444  3
   2563   2575   4647   4643     1  180.0000771  0.4184000  2
   2563   2575   4647   4643     1  0.0000000  1.6024720  3
   2566   2572   4624   4620     1  180.0000771  0.4184000  2
   2566   2572   4624   4620     1  0.0000000  1.6024720  3
   2572   4624   4620   4619     1  180.0000771  0.4184000  2
   2572   4624   4620   4619     1  0.0000000  1.6024720  3
   2572   4624   4620   4636     1  180.0000771  5.6484000  1
   2572   4624   4620   4636     1  180.0000771  3.5564000  2
   2572   4624   4620   4636     1  0.0000000  0.4184000  3
   2575   4647   4643   4659     1  180.0000771  5.6484000  1
   2575   4647   4643   4659     1  180.0000771  3.5564000  2
   2575   4647   4643   4659     1  0.0000000  0.4184000  3
   2575   4647   4643   4642     1  180.0000771  0.4184000  2
   2575   4647   4643   4642     1  0.0000000  1.6024720  3
   2580   2581   2593   2605     1  0.0000000  0.6508444  3
   2580   2584   2596   2602     1  0.0000000  0.6508444  3
   2580   2587   2590   2599     1  0.0000000  0.6508444  3
   2581   2580   2584   2596     1  0.0000000  0.6508444  3
   2581   2580   2587   2590     1  0.0000000  0.6508444  3
   2581   2593   2605   4693     1  0.0000000  0.6508444  3
   2584   2580   2581   2593     1  0.0000000  0.6508444  3
   2584   2580   2587   2590     1  0.0000000  0.6508444  3
   2584   2596   2602   4670     1  0.0000000  0.6508444  3
   2587   2580   2581   2593     1  0.0000000  0.6508444  3
   2587   2580   2584   2596     1  0.0000000  0.6508444  3
   2587   2590   2599   2608     1  0.0000000  0.6508444  3
   2593   2605   4693   4689     1  180.0000771  0.4184000  2
   2593   2605   4693   4689     1  0.0000000  1.6024720  3
   2596   2602   4670   4666     1  180.0000771  0.4184000  2
   2596   2602   4670   4666     1  0.0000000  1.6024720  3
   2602   4670   4666   4665     1  180.0000771  0.4184000  2
   2602   4670   4666   4665     1  0.0000000  1.6024720  3
   2602   4670   4666   4682     1  180.0000771  5.6484000  1
   2602   4670   4666   4682     1  180.0000771  3.5564000  2
   2602   4670   4666   4682     1  0.0000000  0.4184000  3
   2605   4693   4689   4705     1  180.0000771  5.6484000  1
   2605   4693   4689   4705     1  180.0000771  3.5564000  2
   2605   4693   4689   4705     1  0.0000000  0.4184000  3
   2605   4693   4689   4688     1  180.0000771  0.4184000  2
   2605   4693   4689   4688     1  0.0000000  1.6024720  3
   2610   2611   2623   2635     1  0.0000000  0.6508444  3
   2610   2614   2626   2632     1  0.0000000  0.6508444  3
   2610   2617   2620   2629     1  0.0000000  0.6508444  3
   2611   2610   2614   2626     1  0.0000000  0.6508444  3
   2611   2610   2617   2620     1  0.0000000  0.6508444  3
   2611   2623   2635   4739     1  0.0000000  0.6508444  3
   2614   2610   2611   2623     1  0.0000000  0.6508444  3
   2614   2610   2617   2620     1  0.0000000  0.6508444  3
   2614   2626   2632   4716     1  0.0000000  0.6508444  3
   2617   2610   2611   2623     1  0.0000000  0.6508444  3
   2617   2610   2614   2626     1  0.0000000  0.6508444  3
   2617   2620   2629   2638     1  0.0000000  0.6508444  3
   2623   2635   4739   4735     1  180.0000771  0.4184000  2
   2623   2635   4739   4735     1  0.0000000  1.6024720  3
   2626   2632   4716   4712     1  180.0000771  0.4184000  2
   2626   2632   4716   4712     1  0.0000000  1.6024720  3
   2632   4716   4712   4711     1  180.0000771  0.4184000  2
   2632   4716   4712   4711     1  0.0000000  1.6024720  3
   2632   4716   4712   4728     1  180.0000771  5.6484000  1
   2632   4716   4712   4728     1  180.0000771  3.5564000  2
   2632   4716   4712   4728     1  0.0000000  0.4184000  3
   2635   4739   4735   4751     1  180.0000771  5.6484000  1
   2635   4739   4735   4751     1  180.0000771  3.5564000  2
   2635   4739   4735   4751     1  0.0000000  0.4184000  3
   2635   4739   4735   4734     1  180.0000771  0.4184000  2
   2635   4739   4735   4734     1  0.0000000  1.6024720  3
   2640   2641   2653   2665     1  0.0000000  0.6508444  3
   2640   2644   2656   2662     1  0.0000000  0.6508444  3
   2640   2647   2650   2659     1  0.0000000  0.6508444  3
   2641   2640   2644   2656     1  0.0000000  0.6508444  3
   2641   2640   2647   2650     1  0.0000000  0.6508444  3
   2641   2653   2665   4785     1  0.0000000  0.6508444  3
   2644   2640   2641   2653     1  0.0000000  0.6508444  3
   2644   2640   2647   2650     1  0.0000000  0.6508444  3
   2644   2656   2662   4762     1  0.0000000  0.6508444  3
   2647   2640   2641   2653     1  0.0000000  0.6508444  3
   2647   2640   2644   2656     1  0.0000000  0.6508444  3
   2647   2650   2659   2668     1  0.0000000  0.6508444  3
   2653   2665   4785   4781     1  180.0000771  0.4184000  2
   2653   2665   4785   4781     1  0.0000000  1.6024720  3
   2656   2662   4762   4758     1  180.0000771  0.4184000  2
   2656   2662   4762   4758     1  0.0000000  1.6024720  3
   2662   4762   4758   4757     1  180.0000771  0.4184000  2
   2662   4762   4758   4757     1  0.0000000  1.6024720  3
   2662   4762   4758   4774     1  180.0000771  5.6484000  1
   2662   4762   4758   4774     1  180.0000771  3.5564000  2
   2662   4762   4758   4774     1  0.0000000  0.4184000  3
   2665   4785   4781   4797     1  180.0000771  5.6484000  1
   2665   4785   4781   4797     1  180.0000771  3.5564000  2
   2665   4785   4781   4797     1  0.0000000  0.4184000  3
   2665   4785   4781   4780     1  180.0000771  0.4184000  2
   2665   4785   4781   4780     1  0.0000000  1.6024720  3
   2670   2671   2683   2695     1  0.0000000  0.6508444  3
   2670   2674   2686   2692     1  0.0000000  0.6508444  3
   2670   2677   2680   2689     1  0.0000000  0.6508444  3
   2671   2670   2674   2686     1  0.0000000  0.6508444  3
   2671   2670   2677   2680     1  0.0000000  0.6508444  3
   2671   2683   2695   4831     1  0.0000000  0.6508444  3
   2674   2670   2671   2683     1  0.0000000  0.6508444  3
   2674   2670   2677   2680     1  0.0000000  0.6508444  3
   2674   2686   2692   4808     1  0.0000000  0.6508444  3
   2677   2670   2671   2683     1  0.0000000  0.6508444  3
   2677   2670   2674   2686     1  0.0000000  0.6508444  3
   2677   2680   2689   2698     1  0.0000000  0.6508444  3
   2683   2695   4831   4827     1  180.0000771  0.4184000  2
   2683   2695   4831   4827     1  0.0000000  1.6024720  3
   2686   2692   4808   4804     1  180.0000771  0.4184000  2
   2686   2692   4808   4804     1  0.0000000  1.6024720  3
   2692   4808   4804   4803     1  180.0000771  0.4184000  2
   2692   4808   4804   4803     1  0.0000000  1.6024720  3
   2692   4808   4804   4820     1  180.0000771  5.6484000  1
   2692   4808   4804   4820     1  180.0000771  3.5564000  2
   2692   4808   4804   4820     1  0.0000000  0.4184000  3
   2695   4831   4827   4843     1  180.0000771  5.6484000  1
   2695   4831   4827   4843     1  180.0000771  3.5564000  2
   2695   4831   4827   4843     1  0.0000000  0.4184000  3
   2695   4831   4827   4826     1  180.0000771  0.4184000  2
   2695   4831   4827   4826     1  0.0000000  1.6024720  3
   2700   2701   2713   2725     1  0.0000000  0.6508444  3
   2700   2704   2716   2722     1  0.0000000  0.6508444  3
   2700   2707   2710   2719     1  0.0000000  0.6508444  3
   2701   2700   2704   2716     1  0.0000000  0.6508444  3
   2701   2700   2707   2710     1  0.0000000  0.6508444  3
   2701   2713   2725   4877     1  0.0000000  0.6508444  3
   2704   2700   2701   2713     1  0.0000000  0.6508444  3
   2704   2700   2707   2710     1  0.0000000  0.6508444  3
   2704   2716   2722   4854     1  0.0000000  0.6508444  3
   2707   2700   2701   2713     1  0.0000000  0.6508444  3
   2707   2700   2704   2716     1  0.0000000  0.6508444  3
   2707   2710   2719   2728     1  0.0000000  0.6508444  3
   2713   2725   4877   4873     1  180.0000771  0.4184000  2
   2713   2725   4877   4873     1  0.0000000  1.6024720  3
   2716   2722   4854   4850     1  180.0000771  0.4184000  2
   2716   2722   4854   4850     1  0.0000000  1.6024720  3
   2722   4854   4850   4849     1  180.0000771  0.4184000  2
   2722   4854   4850   4849     1  0.0000000  1.6024720  3
   2722   4854   4850   4866     1  180.0000771  5.6484000  1
   2722   4854   4850   4866     1  180.0000771  3.5564000  2
   2722   4854   4850   4866     1  0.0000000  0.4184000  3
   2725   4877   4873   4889     1  180.0000771  5.6484000  1
   2725   4877   4873   4889     1  180.0000771  3.5564000  2
   2725   4877   4873   4889     1  0.0000000  0.4184000  3
   2725   4877   4873   4872     1  180.0000771  0.4184000  2
   2725   4877   4873   4872     1  0.0000000  1.6024720  3
   2730   2731   2743   2755     1  0.0000000  0.6508444  3
   2730   2734   2746   2752     1  0.0000000  0.6508444  3
   2730   2737   2740   2749     1  0.0000000  0.6508444  3
   2731   2730   2734   2746     1  0.0000000  0.6508444  3
   2731   2730   2737   2740     1  0.0000000  0.6508444  3
   2731   2743   2755   4923     1  0.0000000  0.6508444  3
   2734   2730   2731   2743     1  0.0000000  0.6508444  3
   2734   2730   2737   2740     1  0.0000000  0.6508444  3
   2734   2746   2752   4900     1  0.0000000  0.6508444  3
   2737   2730   2731   2743     1  0.0000000  0.6508444  3
   2737   2730   2734   2746     1  0.0000000  0.6508444  3
   2737   2740   2749   2758     1  0.0000000  0.6508444  3
   2743   2755   4923   4919     1  180.0000771  0.4184000  2
   2743   2755   4923   4919     1  0.0000000  1.6024720  3
   2746   2752   4900   4896     1  180.0000771  0.4184000  2
   2746   2752   4900   4896     1  0.0000000  1.6024720  3
   2752   4900   4896   4895     1  180.0000771  0.4184000  2
   2752   4900   4896   4895     1  0.0000000  1.6024720  3
   2752   4900   4896   4912     1  180.0000771  5.6484000  1
   2752   4900   4896   4912     1  180.0000771  3.5564000  2
   2752   4900   4896   4912     1  0.0000000  0.4184000  3
   2755   4923   4919   4935     1  180.0000771  5.6484000  1
   2755   4923   4919   4935     1  180.0000771  3.5564000  2
   2755   4923   4919   4935     1  0.0000000  0.4184000  3
   2755   4923   4919   4918     1  180.0000771  0.4184000  2
   2755   4923   4919   4918     1  0.0000000  1.6024720  3
   2760   2761   2773   2785     1  0.0000000  0.6508444  3
   2760   2764   2776   2782     1  0.0000000  0.6508444  3
   2760   2767   2770   2779     1  0.0000000  0.6508444  3
   2761   2760   2764   2776     1  0.0000000  0.6508444  3
   2761   2760   2767   2770     1  0.0000000  0.6508444  3
   2761   2773   2785   4969     1  0.0000000  0.6508444  3
   2764   2760   2761   2773     1  0.0000000  0.6508444  3
   2764   2760   2767   2770     1  0.0000000  0.6508444  3
   2764   2776   2782   4946     1  0.0000000  0.6508444  3
   2767   2760   2761   2773     1  0.0000000  0.6508444  3
   2767   2760   2764   2776     1  0.0000000  0.6508444  3
   2767   2770   2779   2788     1  0.0000000  0.6508444  3
   2773   2785   4969   4965     1  180.0000771  0.4184000  2
   2773   2785   4969   4965     1  0.0000000  1.6024720  3
   2776   2782   4946   4942     1  180.0000771  0.4184000  2
   2776   2782   4946   4942     1  0.0000000  1.6024720  3
   2782   4946   4942   4941     1  180.0000771  0.4184000  2
   2782   4946   4942   4941     1  0.0000000  1.6024720  3
   2782   4946   4942   4958     1  180.0000771  5.6484000  1
   2782   4946   4942   4958     1  180.0000771  3.5564000  2
   2782   4946   4942   4958     1  0.0000000  0.4184000  3
   2785   4969   4965   4981     1  180.0000771  5.6484000  1
   2785   4969   4965   4981     1  180.0000771  3.5564000  2
   2785   4969   4965   4981     1  0.0000000  0.4184000  3
   2785   4969   4965   4964     1  180.0000771  0.4184000  2
   2785   4969   4965   4964     1  0.0000000  1.6024720  3
   2790   2791   2803   2815     1  0.0000000  0.6508444  3
   2790   2794   2806   2812     1  0.0000000  0.6508444  3
   2790   2797   2800   2809     1  0.0000000  0.6508444  3
   2791   2790   2794   2806     1  0.0000000  0.6508444  3
   2791   2790   2797   2800     1  0.0000000  0.6508444  3
   2791   2803   2815   5015     1  0.0000000  0.6508444  3
   2794   2790   2791   2803     1  0.0000000  0.6508444  3
   2794   2790   2797   2800     1  0.0000000  0.6508444  3
   2794   2806   2812   4992     1  0.0000000  0.6508444  3
   2797   2790   2791   2803     1  0.0000000  0.6508444  3
   2797   2790   2794   2806     1  0.0000000  0.6508444  3
   2797   2800   2809   2818     1  0.0000000  0.6508444  3
   2803   2815   5015   5011     1  180.0000771  0.4184000  2
   2803   2815   5015   5011     1  0.0000000  1.6024720  3
   2806   2812   4992   4988     1  180.0000771  0.4184000  2
   2806   2812   4992   4988     1  0.0000000  1.6024720  3
   2812   4992   4988   4987     1  180.0000771  0.4184000  2
   2812   4992   4988   4987     1  0.0000000  1.6024720  3
   2812   4992   4988   5004     1  180.0000771  5.6484000  1
   2812   4992   4988   5004     1  180.0000771  3.5564000  2
   2812   4992   4988   5004     1  0.0000000  0.4184000  3
   2815   5015   5011   5027     1  180.0000771  5.6484000  1
   2815   5015   5011   5027     1  180.0000771  3.5564000  2
   2815   5015   5011   5027     1  0.0000000  0.4184000  3
   2815   5015   5011   5010     1  180.0000771  0.4184000  2
   2815   5015   5011   5010     1  0.0000000  1.6024720  3
   2820   2821   2824   2825     1  180.0000771  0.8368000  1
   2820   2821   2824   2825     1  180.0000771  1.0460000  2
   2820   2821   2824   2825     1  0.0000000  0.7531200  3
   2820   2821   2824   2832     1  0.0000000  0.6508444  3
   2820   2842   2826   2825     1  180.0000771  0.4184000  2
   2820   2842   2826   2825     1  0.0000000  1.6024720  3
   2820   2842   2826   2830     1  180.0000771  5.6484000  1
   2820   2842   2826   2830     1  180.0000771  3.5564000  2
   2820   2842   2826   2830     1  0.0000000  0.4184000  3
   2821   2820   2834   2840     1  0.0000000  0.6508444  3
   2821   2820   2842   2826     1  180.0000771  0.4184000  2
   2821   2820   2842   2826     1  0.0000000  1.6024720  3
   2821   2824   2825   2826     1  180.0000771  0.8368000  1
   2821   2824   2825   2826     1  180.0000771  1.0460000  2
   2821   2824   2825   2826     1  0.0000000  0.7531200  3
   2821   2824   2825   2831     1  0.0000000  0.6508444  3
   2824   2821   2820   2834     1  180.0000771  0.8368000  1
   2824   2821   2820   2834     1  180.0000771  1.0460000  2
   2824   2821   2820   2834     1  0.0000000  0.7531200  3
   2824   2821   2820   2842     1  0.0000000  0.6508444  3
   2824   2825   2826   2830     1  0.0000000  0.6508444  3
   2824   2825   2826   2842     1  0.0000000  0.6508444  3
   2825   2824   2821   2833     1  0.0000000  0.6508444  3
   2826   2825   2824   2832     1  0.0000000  0.6508444  3
   2826   2842   2820   2834     1  180.0000771  0.4184000  2
   2826   2842   2820   2834     1  0.0000000  1.6024720  3
   2830   2826   2825   2831     1  0.0000000  4.9162000  2
   2830   2826   2825   2831     1  0.0000000  0.6024960  3
   2831   2825   2824   2832     1  0.0000000  4.9162000  2
   2831   2825   2824   2832     1  0.0000000  0.6024960  3
   2831   2825   2826   2842     1  0.0000000  4.9162000  2
   2831   2825   2826   2842     1  0.0000000  0.6024960  3
   2832   2824   2821   2833     1  0.0000000  4.9162000  2
   2832   2824   2821   2833     1  0.0000000  0.6024960  3
   2833   2821   2820   2834     1  0.0000000  0.6508444  3
   2833   2821   2820   2842     1  0.0000000  4.9162000  2
   2833   2821   2820   2842     1  0.0000000  0.6024960  3
   2840   2834   2820   2842     1  0.0000000  4.9162000  2
   2840   2834   2820   2842     1  0.0000000  0.6024960  3
   2843   2844   2847   2848     1  180.0000771  0.8368000  1
   2843   2844   2847   2848     1  180.0000771  1.0460000  2
   2843   2844   2847   2848     1  0.0000000  0.7531200  3
   2843   2844   2847   2855     1  0.0000000  0.6508444  3
   2843   2865   2849   2853     1  180.0000771  5.6484000  1
   2843   2865   2849   2853     1  180.0000771  3.5564000  2
   2843   2865   2849   2853     1  0.0000000  0.4184000  3
   2843   2865   2849   2848     1  180.0000771  0.4184000  2
   2843   2865   2849   2848     1  0.0000000  1.6024720  3
   2844   2847   2848   2849     1  180.0000771  0.8368000  1
   2844   2847   2848   2849     1  180.0000771  1.0460000  2
   2844   2847   2848   2849     1  0.0000000  0.7531200  3
   2844   2847   2848   2854     1  0.0000000  0.6508444  3
   2844   2843   2857   2863     1  0.0000000  0.6508444  3
   2844   2843   2865   2849     1  180.0000771  0.4184000  2
   2844   2843   2865   2849     1  0.0000000  1.6024720  3
   2847   2848   2849   2853     1  0.0000000  0.6508444  3
   2847   2848   2849   2865     1  0.0000000  0.6508444  3
   2847   2844   2843   2857     1  180.0000771  0.8368000  1
   2847   2844   2843   2857     1  180.0000771  1.0460000  2
   2847   2844   2843   2857     1  0.0000000  0.7531200  3
   2847   2844   2843   2865     1  0.0000000  0.6508444  3
   2848   2847   2844   2856     1  0.0000000  0.6508444  3
   2849   2865   2843   2857     1  180.0000771  0.4184000  2
   2849   2865   2843   2857     1  0.0000000  1.6024720  3
   2849   2848   2847   2855     1  0.0000000  0.6508444  3
   2853   2849   2848   2854     1  0.0000000  4.9162000  2
   2853   2849   2848   2854     1  0.0000000  0.6024960  3
   2854   2848   2849   2865     1  0.0000000  4.9162000  2
   2854   2848   2849   2865     1  0.0000000  0.6024960  3
   2854   2848   2847   2855     1  0.0000000  4.9162000  2
   2854   2848   2847   2855     1  0.0000000  0.6024960  3
   2855   2847   2844   2856     1  0.0000000  4.9162000  2
   2855   2847   2844   2856     1  0.0000000  0.6024960  3
   2856   2844   2843   2857     1  0.0000000  0.6508444  3
   2856   2844   2843   2865     1  0.0000000  4.9162000  2
   2856   2844   2843   2865     1  0.0000000  0.6024960  3
   2863   2857   2843   2865     1  0.0000000  4.9162000  2
   2863   2857   2843   2865     1  0.0000000  0.6024960  3
   2866   2867   2870   2871     1  180.0000771  0.8368000  1
   2866   2867   2870   2871     1  180.0000771  1.0460000  2
   2866   2867   2870   2871     1  0.0000000  0.7531200  3
   2866   2867   2870   2878     1  0.0000000  0.6508444  3
   2866   2888   2872   2871     1  180.0000771  0.4184000  2
   2866   2888   2872   2871     1  0.0000000  1.6024720  3
   2866   2888   2872   2876     1  180.0000771  5.6484000  1
   2866   2888   2872   2876     1  180.0000771  3.5564000  2
   2866   2888   2872   2876     1  0.0000000  0.4184000  3
   2867   2866   2880   2886     1  0.0000000  0.6508444  3
   2867   2866   2888   2872     1  180.0000771  0.4184000  2
   2867   2866   2888   2872     1  0.0000000  1.6024720  3
   2867   2870   2871   2872     1  180.0000771  0.8368000  1
   2867   2870   2871   2872     1  180.0000771  1.0460000  2
   2867   2870   2871   2872     1  0.0000000  0.7531200  3
   2867   2870   2871   2877     1  0.0000000  0.6508444  3
   2870   2867   2866   2880     1  180.0000771  0.8368000  1
   2870   2867   2866   2880     1  180.0000771  1.0460000  2
   2870   2867   2866   2880     1  0.0000000  0.7531200  3
   2870   2867   2866   2888     1  0.0000000  0.6508444  3
   2870   2871   2872   2876     1  0.0000000  0.6508444  3
   2870   2871   2872   2888     1  0.0000000  0.6508444  3
   2871   2870   2867   2879     1  0.0000000  0.6508444  3
   2872   2871   2870   2878     1  0.0000000  0.6508444  3
   2872   2888   2866   2880     1  180.0000771  0.4184000  2
   2872   2888   2866   2880     1  0.0000000  1.6024720  3
   2876   2872   2871   2877     1  0.0000000  4.9162000  2
   2876   2872   2871   2877     1  0.0000000  0.6024960  3
   2877   2871   2870   2878     1  0.0000000  4.9162000  2
   2877   2871   2870   2878     1  0.0000000  0.6024960  3
   2877   2871   2872   2888     1  0.0000000  4.9162000  2
   2877   2871   2872   2888     1  0.0000000  0.6024960  3
   2878   2870   2867   2879     1  0.0000000  4.9162000  2
   2878   2870   2867   2879     1  0.0000000  0.6024960  3
   2879   2867   2866   2880     1  0.0000000  0.6508444  3
   2879   2867   2866   2888     1  0.0000000  4.9162000  2
   2879   2867   2866   2888     1  0.0000000  0.6024960  3
   2886   2880   2866   2888     1  0.0000000  4.9162000  2
   2886   2880   2866   2888     1  0.0000000  0.6024960  3
   2889   2890   2893   2894     1  180.0000771  0.8368000  1
   2889   2890   2893   2894     1  180.0000771  1.0460000  2
   2889   2890   2893   2894     1  0.0000000  0.7531200  3
   2889   2890   2893   2901     1  0.0000000  0.6508444  3
   2889   2911   2895   2899     1  180.0000771  5.6484000  1
   2889   2911   2895   2899     1  180.0000771  3.5564000  2
   2889   2911   2895   2899     1  0.0000000  0.4184000  3
   2889   2911   2895   2894     1  180.0000771  0.4184000  2
   2889   2911   2895   2894     1  0.0000000  1.6024720  3
   2890   2893   2894   2895     1  180.0000771  0.8368000  1
   2890   2893   2894   2895     1  180.0000771  1.0460000  2
   2890   2893   2894   2895     1  0.0000000  0.7531200  3
   2890   2893   2894   2900     1  0.0000000  0.6508444  3
   2890   2889   2903   2909     1  0.0000000  0.6508444  3
   2890   2889   2911   2895     1  180.0000771  0.4184000  2
   2890   2889   2911   2895     1  0.0000000  1.6024720  3
   2893   2894   2895   2899     1  0.0000000  0.6508444  3
   2893   2894   2895   2911     1  0.0000000  0.6508444  3
   2893   2890   2889   2903     1  180.0000771  0.8368000  1
   2893   2890   2889   2903     1  180.0000771  1.0460000  2
   2893   2890   2889   2903     1  0.0000000  0.7531200  3
   2893   2890   2889   2911     1  0.0000000  0.6508444  3
   2894   2893   2890   2902     1  0.0000000  0.6508444  3
   2895   2911   2889   2903     1  180.0000771  0.4184000  2
   2895   2911   2889   2903     1  0.0000000  1.6024720  3
   2895   2894   2893   2901     1  0.0000000  0.6508444  3
   2899   2895   2894   2900     1  0.0000000  4.9162000  2
   2899   2895   2894   2900     1  0.0000000  0.6024960  3
   2900   2894   2895   2911     1  0.0000000  4.9162000  2
   2900   2894   2895   2911     1  0.0000000  0.6024960  3
   2900   2894   2893   2901     1  0.0000000  4.9162000  2
   2900   2894   2893   2901     1  0.0000000  0.6024960  3
   2901   2893   2890   2902     1  0.0000000  4.9162000  2
   2901   2893   2890   2902     1  0.0000000  0.6024960  3
   2902   2890   2889   2903     1  0.0000000  0.6508444  3
   2902   2890   2889   2911     1  0.0000000  4.9162000  2
   2902   2890   2889   2911     1  0.0000000  0.6024960  3
   2909   2903   2889   2911     1  0.0000000  4.9162000  2
   2909   2903   2889   2911     1  0.0000000  0.6024960  3
   2912   2913   2916   2917     1  180.0000771  0.8368000  1
   2912   2913   2916   2917     1  180.0000771  1.0460000  2
   2912   2913   2916   2917     1  0.0000000  0.7531200  3
   2912   2913   2916   2924     1  0.0000000  0.6508444  3
   2912   2934   2918   2917     1  180.0000771  0.4184000  2
   2912   2934   2918   2917     1  0.0000000  1.6024720  3
   2912   2934   2918   2922     1  180.0000771  5.6484000  1
   2912   2934   2918   2922     1  180.0000771  3.5564000  2
   2912   2934   2918   2922     1  0.0000000  0.4184000  3
   2913   2912   2926   2932     1  0.0000000  0.6508444  3
   2913   2912   2934   2918     1  180.0000771  0.4184000  2
   2913   2912   2934   2918     1  0.0000000  1.6024720  3
   2913   2916   2917   2918     1  180.0000771  0.8368000  1
   2913   2916   2917   2918     1  180.0000771  1.0460000  2
   2913   2916   2917   2918     1  0.0000000  0.7531200  3
   2913   2916   2917   2923     1  0.0000000  0.6508444  3
   2916   2913   2912   2926     1  180.0000771  0.8368000  1
   2916   2913   2912   2926     1  180.0000771  1.0460000  2
   2916   2913   2912   2926     1  0.0000000  0.7531200  3
   2916   2913   2912   2934     1  0.0000000  0.6508444  3
   2916   2917   2918   2922     1  0.0000000  0.6508444  3
   2916   2917   2918   2934     1  0.0000000  0.6508444  3
   2917   2916   2913   2925     1  0.0000000  0.6508444  3
   2918   2917   2916   2924     1  0.0000000  0.6508444  3
   2918   2934   2912   2926     1  180.0000771  0.4184000  2
   2918   2934   2912   2926     1  0.0000000  1.6024720  3
   2922   2918   2917   2923     1  0.0000000  4.9162000  2
   2922   2918   2917   2923     1  0.0000000  0.6024960  3
   2923   2917   2916   2924     1  0.0000000  4.9162000  2
   2923   2917   2916   2924     1  0.0000000  0.6024960  3
   2923   2917   2918   2934     1  0.0000000  4.9162000  2
   2923   2917   2918   2934     1  0.0000000  0.6024960  3
   2924   2916   2913   2925     1  0.0000000  4.9162000  2
   2924   2916   2913   2925     1  0.0000000  0.6024960  3
   2925   2913   2912   2926     1  0.0000000  0.6508444  3
   2925   2913   2912   2934     1  0.0000000  4.9162000  2
   2925   2913   2912   2934     1  0.0000000  0.6024960  3
   2932   2926   2912   2934     1  0.0000000  4.9162000  2
   2932   2926   2912   2934     1  0.0000000  0.6024960  3
   2935   2936   2939   2940     1  180.0000771  0.8368000  1
   2935   2936   2939   2940     1  180.0000771  1.0460000  2
   2935   2936   2939   2940     1  0.0000000  0.7531200  3
   2935   2936   2939   2947     1  0.0000000  0.6508444  3
   2935   2957   2941   2945     1  180.0000771  5.6484000  1
   2935   2957   2941   2945     1  180.0000771  3.5564000  2
   2935   2957   2941   2945     1  0.0000000  0.4184000  3
   2935   2957   2941   2940     1  180.0000771  0.4184000  2
   2935   2957   2941   2940     1  0.0000000  1.6024720  3
   2936   2939   2940   2941     1  180.0000771  0.8368000  1
   2936   2939   2940   2941     1  180.0000771  1.0460000  2
   2936   2939   2940   2941     1  0.0000000  0.7531200  3
   2936   2939   2940   2946     1  0.0000000  0.6508444  3
   2936   2935   2949   2955     1  0.0000000  0.6508444  3
   2936   2935   2957   2941     1  180.0000771  0.4184000  2
   2936   2935   2957   2941     1  0.0000000  1.6024720  3
   2939   2940   2941   2945     1  0.0000000  0.6508444  3
   2939   2940   2941   2957     1  0.0000000  0.6508444  3
   2939   2936   2935   2949     1  180.0000771  0.8368000  1
   2939   2936   2935   2949     1  180.0000771  1.0460000  2
   2939   2936   2935   2949     1  0.0000000  0.7531200  3
   2939   2936   2935   2957     1  0.0000000  0.6508444  3
   2940   2939   2936   2948     1  0.0000000  0.6508444  3
   2941   2957   2935   2949     1  180.0000771  0.4184000  2
   2941   2957   2935   2949     1  0.0000000  1.6024720  3
   2941   2940   2939   2947     1  0.0000000  0.6508444  3
   2945   2941   2940   2946     1  0.0000000  4.9162000  2
   2945   2941   2940   2946     1  0.0000000  0.6024960  3
   2946   2940   2941   2957     1  0.0000000  4.9162000  2
   2946   2940   2941   2957     1  0.0000000  0.6024960  3
   2946   2940   2939   2947     1  0.0000000  4.9162000  2
   2946   2940   2939   2947     1  0.0000000  0.6024960  3
   2947   2939   2936   2948     1  0.0000000  4.9162000  2
   2947   2939   2936   2948     1  0.0000000  0.6024960  3
   2948   2936   2935   2949     1  0.0000000  0.6508444  3
   2948   2936   2935   2957     1  0.0000000  4.9162000  2
   2948   2936   2935   2957     1  0.0000000  0.6024960  3
   2955   2949   2935   2957     1  0.0000000  4.9162000  2
   2955   2949   2935   2957     1  0.0000000  0.6024960  3
   2958   2959   2962   2963     1  180.0000771  0.8368000  1
   2958   2959   2962   2963     1  180.0000771  1.0460000  2
   2958   2959   2962   2963     1  0.0000000  0.7531200  3
   2958   2959   2962   2970     1  0.0000000  0.6508444  3
   2958   2980   2964   2963     1  180.0000771  0.4184000  2
   2958   2980   2964   2963     1  0.0000000  1.6024720  3
   2958   2980   2964   2968     1  180.0000771  5.6484000  1
   2958   2980   2964   2968     1  180.0000771  3.5564000  2
   2958   2980   2964   2968     1  0.0000000  0.4184000  3
   2959   2958   2972   2978     1  0.0000000  0.6508444  3
   2959   2958   2980   2964     1  180.0000771  0.4184000  2
   2959   2958   2980   2964     1  0.0000000  1.6024720  3
   2959   2962   2963   2964     1  180.0000771  0.8368000  1
   2959   2962   2963   2964     1  180.0000771  1.0460000  2
   2959   2962   2963   2964     1  0.0000000  0.7531200  3
   2959   2962   2963   2969     1  0.0000000  0.6508444  3
   2962   2959   2958   2972     1  180.0000771  0.8368000  1
   2962   2959   2958   2972     1  180.0000771  1.0460000  2
   2962   2959   2958   2972     1  0.0000000  0.7531200  3
   2962   2959   2958   2980     1  0.0000000  0.6508444  3
   2962   2963   2964   2968     1  0.0000000  0.6508444  3
   2962   2963   2964   2980     1  0.0000000  0.6508444  3
   2963   2962   2959   2971     1  0.0000000  0.6508444  3
   2964   2963   2962   2970     1  0.0000000  0.6508444  3
   2964   2980   2958   2972     1  180.0000771  0.4184000  2
   2964   2980   2958   2972     1  0.0000000  1.6024720  3
   2968   2964   2963   2969     1  0.0000000  4.9162000  2
   2968   2964   2963   2969     1  0.0000000  0.6024960  3
   2969   2963   2962   2970     1  0.0000000  4.9162000  2
   2969   2963   2962   2970     1  0.0000000  0.6024960  3
   2969   2963   2964   2980     1  0.0000000  4.9162000  2
   2969   2963   2964   2980     1  0.0000000  0.6024960  3
   2970   2962   2959   2971     1  0.0000000  4.9162000  2
   2970   2962   2959   2971     1  0.0000000  0.6024960  3
   2971   2959   2958   2972     1  0.0000000  0.6508444  3
   2971   2959   2958   2980     1  0.0000000  4.9162000  2
   2971   2959   2958   2980     1  0.0000000  0.6024960  3
   2978   2972   2958   2980     1  0.0000000  4.9162000  2
   2978   2972   2958   2980     1  0.0000000  0.6024960  3
   2981   2982   2985   2986     1  180.0000771  0.8368000  1
   2981   2982   2985   2986     1  180.0000771  1.0460000  2
   2981   2982   2985   2986     1  0.0000000  0.7531200  3
   2981   2982   2985   2993     1  0.0000000  0.6508444  3
   2981   3003   2987   2991     1  180.0000771  5.6484000  1
   2981   3003   2987   2991     1  180.0000771  3.5564000  2
   2981   3003   2987   2991     1  0.0000000  0.4184000  3
   2981   3003   2987   2986     1  180.0000771  0.4184000  2
   2981   3003   2987   2986     1  0.0000000  1.6024720  3
   2982   2985   2986   2987     1  180.0000771  0.8368000  1
   2982   2985   2986   2987     1  180.0000771  1.0460000  2
   2982   2985   2986   2987     1  0.0000000  0.7531200  3
   2982   2985   2986   2992     1  0.0000000  0.6508444  3
   2982   2981   2995   3001     1  0.0000000  0.6508444  3
   2982   2981   3003   2987     1  180.0000771  0.4184000  2
   2982   2981   3003   2987     1  0.0000000  1.6024720  3
   2985   2986   2987   2991     1  0.0000000  0.6508444  3
   2985   2986   2987   3003     1  0.0000000  0.6508444  3
   2985   2982   2981   2995     1  180.0000771  0.8368000  1
   2985   2982   2981   2995     1  180.0000771  1.0460000  2
   2985   2982   2981   2995     1  0.0000000  0.7531200  3
   2985   2982   2981   3003     1  0.0000000  0.6508444  3
   2986   2985   2982   2994     1  0.0000000  0.6508444  3
   2987   3003   2981   2995     1  180.0000771  0.4184000  2
   2987   3003   2981   2995     1  0.0000000  1.6024720  3
   2987   2986   2985   2993     1  0.0000000  0.6508444  3
   2991   2987   2986   2992     1  0.0000000  4.9162000  2
   2991   2987   2986   2992     1  0.0000000  0.6024960  3
   2992   2986   2987   3003     1  0.0000000  4.9162000  2
   2992   2986   2987   3003     1  0.0000000  0.6024960  3
   2992   2986   2985   2993     1  0.0000000  4.9162000  2
   2992   2986   2985   2993     1  0.0000000  0.6024960  3
   2993   2985   2982   2994     1  0.0000000  4.9162000  2
   2993   2985   2982   2994     1  0.0000000  0.6024960  3
   2994   2982   2981   2995     1  0.0000000  0.6508444  3
   2994   2982   2981   3003     1  0.0000000  4.9162000  2
   2994   2982   2981   3003     1  0.0000000  0.6024960  3
   3001   2995   2981   3003     1  0.0000000  4.9162000  2
   3001   2995   2981   3003     1  0.0000000  0.6024960  3
   3004   3005   3008   3009     1  180.0000771  0.8368000  1
   3004   3005   3008   3009     1  180.0000771  1.0460000  2
   3004   3005   3008   3009     1  0.0000000  0.7531200  3
   3004   3005   3008   3016     1  0.0000000  0.6508444  3
   3004   3026   3010   3009     1  180.0000771  0.4184000  2
   3004   3026   3010   3009     1  0.0000000  1.6024720  3
   3004   3026   3010   3014     1  180.0000771  5.6484000  1
   3004   3026   3010   3014     1  180.0000771  3.5564000  2
   3004   3026   3010   3014     1  0.0000000  0.4184000  3
   3005   3004   3018   3024     1  0.0000000  0.6508444  3
   3005   3004   3026   3010     1  180.0000771  0.4184000  2
   3005   3004   3026   3010     1  0.0000000  1.6024720  3
   3005   3008   3009   3010     1  180.0000771  0.8368000  1
   3005   3008   3009   3010     1  180.0000771  1.0460000  2
   3005   3008   3009   3010     1  0.0000000  0.7531200  3
   3005   3008   3009   3015     1  0.0000000  0.6508444  3
   3008   3005   3004   3018     1  180.0000771  0.8368000  1
   3008   3005   3004   3018     1  180.0000771  1.0460000  2
   3008   3005   3004   3018     1  0.0000000  0.7531200  3
   3008   3005   3004   3026     1  0.0000000  0.6508444  3
   3008   3009   3010   3014     1  0.0000000  0.6508444  3
   3008   3009   3010   3026     1  0.0000000  0.6508444  3
   3009   3008   3005   3017     1  0.0000000  0.6508444  3
   3010   3009   3008   3016     1  0.0000000  0.6508444  3
   3010   3026   3004   3018     1  180.0000771  0.4184000  2
   3010   3026   3004   3018     1  0.0000000  1.6024720  3
   3014   3010   3009   3015     1  0.0000000  4.9162000  2
   3014   3010   3009   3015     1  0.0000000  0.6024960  3
   3015   3009   3008   3016     1  0.0000000  4.9162000  2
   3015   3009   3008   3016     1  0.0000000  0.6024960  3
   3015   3009   3010   3026     1  0.0000000  4.9162000  2
   3015   3009   3010   3026     1  0.0000000  0.6024960  3
   3016   3008   3005   3017     1  0.0000000  4.9162000  2
   3016   3008   3005   3017     1  0.0000000  0.6024960  3
   3017   3005   3004   3018     1  0.0000000  0.6508444  3
   3017   3005   3004   3026     1  0.0000000  4.9162000  2
   3017   3005   3004   3026     1  0.0000000  0.6024960  3
   3024   3018   3004   3026     1  0.0000000  4.9162000  2
   3024   3018   3004   3026     1  0.0000000  0.6024960  3
   3027   3028   3031   3032     1  180.0000771  0.8368000  1
   3027   3028   3031   3032     1  180.0000771  1.0460000  2
   3027   3028   3031   3032     1  0.0000000  0.7531200  3
   3027   3028   3031   3039     1  0.0000000  0.6508444  3
   3027   3049   3033   3037     1  180.0000771  5.6484000  1
   3027   3049   3033   3037     1  180.0000771  3.5564000  2
   3027   3049   3033   3037     1  0.0000000  0.4184000  3
   3027   3049   3033   3032     1  180.0000771  0.4184000  2
   3027   3049   3033   3032     1  0.0000000  1.6024720  3
   3028   3031   3032   3033     1  180.0000771  0.8368000  1
   3028   3031   3032   3033     1  180.0000771  1.0460000  2
   3028   3031   3032   3033     1  0.0000000  0.7531200  3
   3028   3031   3032   3038     1  0.0000000  0.6508444  3
   3028   3027   3041   3047     1  0.0000000  0.6508444  3
   3028   3027   3049   3033     1  180.0000771  0.4184000  2
   3028   3027   3049   3033     1  0.0000000  1.6024720  3
   3031   3032   3033   3037     1  0.0000000  0.6508444  3
   3031   3032   3033   3049     1  0.0000000  0.6508444  3
   3031   3028   3027   3041     1  180.0000771  0.8368000  1
   3031   3028   3027   3041     1  180.0000771  1.0460000  2
   3031   3028   3027   3041     1  0.0000000  0.7531200  3
   3031   3028   3027   3049     1  0.0000000  0.6508444  3
   3032   3031   3028   3040     1  0.0000000  0.6508444  3
   3033   3049   3027   3041     1  180.0000771  0.4184000  2
   3033   3049   3027   3041     1  0.0000000  1.6024720  3
   3033   3032   3031   3039     1  0.0000000  0.6508444  3
   3037   3033   3032   3038     1  0.0000000  4.9162000  2
   3037   3033   3032   3038     1  0.0000000  0.6024960  3
   3038   3032   3033   3049     1  0.0000000  4.9162000  2
   3038   3032   3033   3049     1  0.0000000  0.6024960  3
   3038   3032   3031   3039     1  0.0000000  4.9162000  2
   3038   3032   3031   3039     1  0.0000000  0.6024960  3
   3039   3031   3028   3040     1  0.0000000  4.9162000  2
   3039   3031   3028   3040     1  0.0000000  0.6024960  3
   3040   3028   3027   3041     1  0.0000000  0.6508444  3
   3040   3028   3027   3049     1  0.0000000  4.9162000  2
   3040   3028   3027   3049     1  0.0000000  0.6024960  3
   3047   3041   3027   3049     1  0.0000000  4.9162000  2
   3047   3041   3027   3049     1  0.0000000  0.6024960  3
   3050   3051   3054   3055     1  180.0000771  0.8368000  1
   3050   3051   3054   3055     1  180.0000771  1.0460000  2
   3050   3051   3054   3055     1  0.0000000  0.7531200  3
   3050   3051   3054   3062     1  0.0000000  0.6508444  3
   3050   3072   3056   3055     1  180.0000771  0.4184000  2
   3050   3072   3056   3055     1  0.0000000  1.6024720  3
   3050   3072   3056   3060     1  180.0000771  5.6484000  1
   3050   3072   3056   3060     1  180.0000771  3.5564000  2
   3050   3072   3056   3060     1  0.0000000  0.4184000  3
   3051   3050   3064   3070     1  0.0000000  0.6508444  3
   3051   3050   3072   3056     1  180.0000771  0.4184000  2
   3051   3050   3072   3056     1  0.0000000  1.6024720  3
   3051   3054   3055   3056     1  180.0000771  0.8368000  1
   3051   3054   3055   3056     1  180.0000771  1.0460000  2
   3051   3054   3055   3056     1  0.0000000  0.7531200  3
   3051   3054   3055   3061     1  0.0000000  0.6508444  3
   3054   3051   3050   3064     1  180.0000771  0.8368000  1
   3054   3051   3050   3064     1  180.0000771  1.0460000  2
   3054   3051   3050   3064     1  0.0000000  0.7531200  3
   3054   3051   3050   3072     1  0.0000000  0.6508444  3
   3054   3055   3056   3060     1  0.0000000  0.6508444  3
   3054   3055   3056   3072     1  0.0000000  0.6508444  3
   3055   3054   3051   3063     1  0.0000000  0.6508444  3
   3056   3055   3054   3062     1  0.0000000  0.6508444  3
   3056   3072   3050   3064     1  180.0000771  0.4184000  2
   3056   3072   3050   3064     1  0.0000000  1.6024720  3
   3060   3056   3055   3061     1  0.0000000  4.9162000  2
   3060   3056   3055   3061     1  0.0000000  0.6024960  3
   3061   3055   3054   3062     1  0.0000000  4.9162000  2
   3061   3055   3054   3062     1  0.0000000  0.6024960  3
   3061   3055   3056   3072     1  0.0000000  4.9162000  2
   3061   3055   3056   3072     1  0.0000000  0.6024960  3
   3062   3054   3051   3063     1  0.0000000  4.9162000  2
   3062   3054   3051   3063     1  0.0000000  0.6024960  3
   3063   3051   3050   3064     1  0.0000000  0.6508444  3
   3063   3051   3050   3072     1  0.0000000  4.9162000  2
   3063   3051   3050   3072     1  0.0000000  0.6024960  3
   3070   3064   3050   3072     1  0.0000000  4.9162000  2
   3070   3064   3050   3072     1  0.0000000  0.6024960  3
   3073   3074   3077   3078     1  180.0000771  0.8368000  1
   3073   3074   3077   3078     1  180.0000771  1.0460000  2
   3073   3074   3077   3078     1  0.0000000  0.7531200  3
   3073   3074   3077   3085     1  0.0000000  0.6508444  3
   3073   3095   3079   3083     1  180.0000771  5.6484000  1
   3073   3095   3079   3083     1  180.0000771  3.5564000  2
   3073   3095   3079   3083     1  0.0000000  0.4184000  3
   3073   3095   3079   3078     1  180.0000771  0.4184000  2
   3073   3095   3079   3078     1  0.0000000  1.6024720  3
   3074   3077   3078   3079     1  180.0000771  0.8368000  1
   3074   3077   3078   3079     1  180.0000771  1.0460000  2
   3074   3077   3078   3079     1  0.0000000  0.7531200  3
   3074   3077   3078   3084     1  0.0000000  0.6508444  3
   3074   3073   3087   3093     1  0.0000000  0.6508444  3
   3074   3073   3095   3079     1  180.0000771  0.4184000  2
   3074   3073   3095   3079     1  0.0000000  1.6024720  3
   3077   3078   3079   3083     1  0.0000000  0.6508444  3
   3077   3078   3079   3095     1  0.0000000  0.6508444  3
   3077   3074   3073   3087     1  180.0000771  0.8368000  1
   3077   3074   3073   3087     1  180.0000771  1.0460000  2
   3077   3074   3073   3087     1  0.0000000  0.7531200  3
   3077   3074   3073   3095     1  0.0000000  0.6508444  3
   3078   3077   3074   3086     1  0.0000000  0.6508444  3
   3079   3095   3073   3087     1  180.0000771  0.4184000  2
   3079   3095   3073   3087     1  0.0000000  1.6024720  3
   3079   3078   3077   3085     1  0.0000000  0.6508444  3
   3083   3079   3078   3084     1  0.0000000  4.9162000  2
   3083   3079   3078   3084     1  0.0000000  0.6024960  3
   3084   3078   3079   3095     1  0.0000000  4.9162000  2
   3084   3078   3079   3095     1  0.0000000  0.6024960  3
   3084   3078   3077   3085     1  0.0000000  4.9162000  2
   3084   3078   3077   3085     1  0.0000000  0.6024960  3
   3085   3077   3074   3086     1  0.0000000  4.9162000  2
   3085   3077   3074   3086     1  0.0000000  0.6024960  3
   3086   3074   3073   3087     1  0.0000000  0.6508444  3
   3086   3074   3073   3095     1  0.0000000  4.9162000  2
   3086   3074   3073   3095     1  0.0000000  0.6024960  3
   3093   3087   3073   3095     1  0.0000000  4.9162000  2
   3093   3087   3073   3095     1  0.0000000  0.6024960  3
   3096   3097   3100   3101     1  180.0000771  0.8368000  1
   3096   3097   3100   3101     1  180.0000771  1.0460000  2
   3096   3097   3100   3101     1  0.0000000  0.7531200  3
   3096   3097   3100   3108     1  0.0000000  0.6508444  3
   3096   3118   3102   3101     1  180.0000771  0.4184000  2
   3096   3118   3102   3101     1  0.0000000  1.6024720  3
   3096   3118   3102   3106     1  180.0000771  5.6484000  1
   3096   3118   3102   3106     1  180.0000771  3.5564000  2
   3096   3118   3102   3106     1  0.0000000  0.4184000  3
   3097   3096   3110   3116     1  0.0000000  0.6508444  3
   3097   3096   3118   3102     1  180.0000771  0.4184000  2
   3097   3096   3118   3102     1  0.0000000  1.6024720  3
   3097   3100   3101   3102     1  180.0000771  0.8368000  1
   3097   3100   3101   3102     1  180.0000771  1.0460000  2
   3097   3100   3101   3102     1  0.0000000  0.7531200  3
   3097   3100   3101   3107     1  0.0000000  0.6508444  3
   3100   3097   3096   3110     1  180.0000771  0.8368000  1
   3100   3097   3096   3110     1  180.0000771  1.0460000  2
   3100   3097   3096   3110     1  0.0000000  0.7531200  3
   3100   3097   3096   3118     1  0.0000000  0.6508444  3
   3100   3101   3102   3106     1  0.0000000  0.6508444  3
   3100   3101   3102   3118     1  0.0000000  0.6508444  3
   3101   3100   3097   3109     1  0.0000000  0.6508444  3
   3102   3101   3100   3108     1  0.0000000  0.6508444  3
   3102   3118   3096   3110     1  180.0000771  0.4184000  2
   3102   3118   3096   3110     1  0.0000000  1.6024720  3
   3106   3102   3101   3107     1  0.0000000  4.9162000  2
   3106   3102   3101   3107     1  0.0000000  0.6024960  3
   3107   3101   3100   3108     1  0.0000000  4.9162000  2
   3107   3101   3100   3108     1  0.0000000  0.6024960  3
   3107   3101   3102   3118     1  0.0000000  4.9162000  2
   3107   3101   3102   3118     1  0.0000000  0.6024960  3
   3108   3100   3097   3109     1  0.0000000  4.9162000  2
   3108   3100   3097   3109     1  0.0000000  0.6024960  3
   3109   3097   3096   3110     1  0.0000000  0.6508444  3
   3109   3097   3096   3118     1  0.0000000  4.9162000  2
   3109   3097   3096   3118     1  0.0000000  0.6024960  3
   3116   3110   3096   3118     1  0.0000000  4.9162000  2
   3116   3110   3096   3118     1  0.0000000  0.6024960  3
   3119   3120   3123   3124     1  180.0000771  0.8368000  1
   3119   3120   3123   3124     1  180.0000771  1.0460000  2
   3119   3120   3123   3124     1  0.0000000  0.7531200  3
   3119   3120   3123   3131     1  0.0000000  0.6508444  3
   3119   3141   3125   3129     1  180.0000771  5.6484000  1
   3119   3141   3125   3129     1  180.0000771  3.5564000  2
   3119   3141   3125   3129     1  0.0000000  0.4184000  3
   3119   3141   3125   3124     1  180.0000771  0.4184000  2
   3119   3141   3125   3124     1  0.0000000  1.6024720  3
   3120   3123   3124   3125     1  180.0000771  0.8368000  1
   3120   3123   3124   3125     1  180.0000771  1.0460000  2
   3120   3123   3124   3125     1  0.0000000  0.7531200  3
   3120   3123   3124   3130     1  0.0000000  0.6508444  3
   3120   3119   3133   3139     1  0.0000000  0.6508444  3
   3120   3119   3141   3125     1  180.0000771  0.4184000  2
   3120   3119   3141   3125     1  0.0000000  1.6024720  3
   3123   3124   3125   3129     1  0.0000000  0.6508444  3
   3123   3124   3125   3141     1  0.0000000  0.6508444  3
   3123   3120   3119   3133     1  180.0000771  0.8368000  1
   3123   3120   3119   3133     1  180.0000771  1.0460000  2
   3123   3120   3119   3133     1  0.0000000  0.7531200  3
   3123   3120   3119   3141     1  0.0000000  0.6508444  3
   3124   3123   3120   3132     1  0.0000000  0.6508444  3
   3125   3141   3119   3133     1  180.0000771  0.4184000  2
   3125   3141   3119   3133     1  0.0000000  1.6024720  3
   3125   3124   3123   3131     1  0.0000000  0.6508444  3
   3129   3125   3124   3130     1  0.0000000  4.9162000  2
   3129   3125   3124   3130     1  0.0000000  0.6024960  3
   3130   3124   3125   3141     1  0.0000000  4.9162000  2
   3130   3124   3125   3141     1  0.0000000  0.6024960  3
   3130   3124   3123   3131     1  0.0000000  4.9162000  2
   3130   3124   3123   3131     1  0.0000000  0.6024960  3
   3131   3123   3120   3132     1  0.0000000  4.9162000  2
   3131   3123   3120   3132     1  0.0000000  0.6024960  3
   3132   3120   3119   3133     1  0.0000000  0.6508444  3
   3132   3120   3119   3141     1  0.0000000  4.9162000  2
   3132   3120   3119   3141     1  0.0000000  0.6024960  3
   3139   3133   3119   3141     1  0.0000000  4.9162000  2
   3139   3133   3119   3141     1  0.0000000  0.6024960  3
   3142   3143   3146   3147     1  180.0000771  0.8368000  1
   3142   3143   3146   3147     1  180.0000771  1.0460000  2
   3142   3143   3146   3147     1  0.0000000  0.7531200  3
   3142   3143   3146   3154     1  0.0000000  0.6508444  3
   3142   3164   3148   3147     1  180.0000771  0.4184000  2
   3142   3164   3148   3147     1  0.0000000  1.6024720  3
   3142   3164   3148   3152     1  180.0000771  5.6484000  1
   3142   3164   3148   3152     1  180.0000771  3.5564000  2
   3142   3164   3148   3152     1  0.0000000  0.4184000  3
   3143   3142   3156   3162     1  0.0000000  0.6508444  3
   3143   3142   3164   3148     1  180.0000771  0.4184000  2
   3143   3142   3164   3148     1  0.0000000  1.6024720  3
   3143   3146   3147   3148     1  180.0000771  0.8368000  1
   3143   3146   3147   3148     1  180.0000771  1.0460000  2
   3143   3146   3147   3148     1  0.0000000  0.7531200  3
   3143   3146   3147   3153     1  0.0000000  0.6508444  3
   3146   3143   3142   3156     1  180.0000771  0.8368000  1
   3146   3143   3142   3156     1  180.0000771  1.0460000  2
   3146   3143   3142   3156     1  0.0000000  0.7531200  3
   3146   3143   3142   3164     1  0.0000000  0.6508444  3
   3146   3147   3148   3152     1  0.0000000  0.6508444  3
   3146   3147   3148   3164     1  0.0000000  0.6508444  3
   3147   3146   3143   3155     1  0.0000000  0.6508444  3
   3148   3147   3146   3154     1  0.0000000  0.6508444  3
   3148   3164   3142   3156     1  180.0000771  0.4184000  2
   3148   3164   3142   3156     1  0.0000000  1.6024720  3
   3152   3148   3147   3153     1  0.0000000  4.9162000  2
   3152   3148   3147   3153     1  0.0000000  0.6024960  3
   3153   3147   3146   3154     1  0.0000000  4.9162000  2
   3153   3147   3146   3154     1  0.0000000  0.6024960  3
   3153   3147   3148   3164     1  0.0000000  4.9162000  2
   3153   3147   3148   3164     1  0.0000000  0.6024960  3
   3154   3146   3143   3155     1  0.0000000  4.9162000  2
   3154   3146   3143   3155     1  0.0000000  0.6024960  3
   3155   3143   3142   3156     1  0.0000000  0.6508444  3
   3155   3143   3142   3164     1  0.0000000  4.9162000  2
   3155   3143   3142   3164     1  0.0000000  0.6024960  3
   3162   3156   3142   3164     1  0.0000000  4.9162000  2
   3162   3156   3142   3164     1  0.0000000  0.6024960  3
   3165   3166   3169   3170     1  180.0000771  0.8368000  1
   3165   3166   3169   3170     1  180.0000771  1.0460000  2
   3165   3166   3169   3170     1  0.0000000  0.7531200  3
   3165   3166   3169   3177     1  0.0000000  0.6508444  3
   3165   3187   3171   3175     1  180.0000771  5.6484000  1
   3165   3187   3171   3175     1  180.0000771  3.5564000  2
   3165   3187   3171   3175     1  0.0000000  0.4184000  3
   3165   3187   3171   3170     1  180.0000771  0.4184000  2
   3165   3187   3171   3170     1  0.0000000  1.6024720  3
   3166   3169   3170   3171     1  180.0000771  0.8368000  1
   3166   3169   3170   3171     1  180.0000771  1.0460000  2
   3166   3169   3170   3171     1  0.0000000  0.7531200  3
   3166   3169   3170   3176     1  0.0000000  0.6508444  3
   3166   3165   3179   3185     1  0.0000000  0.6508444  3
   3166   3165   3187   3171     1  180.0000771  0.4184000  2
   3166   3165   3187   3171     1  0.0000000  1.6024720  3
   3169   3170   3171   3175     1  0.0000000  0.6508444  3
   3169   3170   3171   3187     1  0.0000000  0.6508444  3
   3169   3166   3165   3179     1  180.0000771  0.8368000  1
   3169   3166   3165   3179     1  180.0000771  1.0460000  2
   3169   3166   3165   3179     1  0.0000000  0.7531200  3
   3169   3166   3165   3187     1  0.0000000  0.6508444  3
   3170   3169   3166   3178     1  0.0000000  0.6508444  3
   3171   3187   3165   3179     1  180.0000771  0.4184000  2
   3171   3187   3165   3179     1  0.0000000  1.6024720  3
   3171   3170   3169   3177     1  0.0000000  0.6508444  3
   3175   3171   3170   3176     1  0.0000000  4.9162000  2
   3175   3171   3170   3176     1  0.0000000  0.6024960  3
   3176   3170   3171   3187     1  0.0000000  4.9162000  2
   3176   3170   3171   3187     1  0.0000000  0.6024960  3
   3176   3170   3169   3177     1  0.0000000  4.9162000  2
   3176   3170   3169   3177     1  0.0000000  0.6024960  3
   3177   3169   3166   3178     1  0.0000000  4.9162000  2
   3177   3169   3166   3178     1  0.0000000  0.6024960  3
   3178   3166   3165   3179     1  0.0000000  0.6508444  3
   3178   3166   3165   3187     1  0.0000000  4.9162000  2
   3178   3166   3165   3187     1  0.0000000  0.6024960  3
   3185   3179   3165   3187     1  0.0000000  4.9162000  2
   3185   3179   3165   3187     1  0.0000000  0.6024960  3
   3188   3189   3192   3193     1  180.0000771  0.8368000  1
   3188   3189   3192   3193     1  180.0000771  1.0460000  2
   3188   3189   3192   3193     1  0.0000000  0.7531200  3
   3188   3189   3192   3200     1  0.0000000  0.6508444  3
   3188   3210   3194   3193     1  180.0000771  0.4184000  2
   3188   3210   3194   3193     1  0.0000000  1.6024720  3
   3188   3210   3194   3198     1  180.0000771  5.6484000  1
   3188   3210   3194   3198     1  180.0000771  3.5564000  2
   3188   3210   3194   3198     1  0.0000000  0.4184000  3
   3189   3188   3202   3208     1  0.0000000  0.6508444  3
   3189   3188   3210   3194     1  180.0000771  0.4184000  2
   3189   3188   3210   3194     1  0.0000000  1.6024720  3
   3189   3192   3193   3194     1  180.0000771  0.8368000  1
   3189   3192   3193   3194     1  180.0000771  1.0460000  2
   3189   3192   3193   3194     1  0.0000000  0.7531200  3
   3189   3192   3193   3199     1  0.0000000  0.6508444  3
   3192   3189   3188   3202     1  180.0000771  0.8368000  1
   3192   3189   3188   3202     1  180.0000771  1.0460000  2
   3192   3189   3188   3202     1  0.0000000  0.7531200  3
   3192   3189   3188   3210     1  0.0000000  0.6508444  3
   3192   3193   3194   3198     1  0.0000000  0.6508444  3
   3192   3193   3194   3210     1  0.0000000  0.6508444  3
   3193   3192   3189   3201     1  0.0000000  0.6508444  3
   3194   3193   3192   3200     1  0.0000000  0.6508444  3
   3194   3210   3188   3202     1  180.0000771  0.4184000  2
   3194   3210   3188   3202     1  0.0000000  1.6024720  3
   3198   3194   3193   3199     1  0.0000000  4.9162000  2
   3198   3194   3193   3199     1  0.0000000  0.6024960  3
   3199   3193   3192   3200     1  0.0000000  4.9162000  2
   3199   3193   3192   3200     1  0.0000000  0.6024960  3
   3199   3193   3194   3210     1  0.0000000  4.9162000  2
   3199   3193   3194   3210     1  0.0000000  0.6024960  3
   3200   3192   3189   3201     1  0.0000000  4.9162000  2
   3200   3192   3189   3201     1  0.0000000  0.6024960  3
   3201   3189   3188   3202     1  0.0000000  0.6508444  3
   3201   3189   3188   3210     1  0.0000000  4.9162000  2
   3201   3189   3188   3210     1  0.0000000  0.6024960  3
   3208   3202   3188   3210     1  0.0000000  4.9162000  2
   3208   3202   3188   3210     1  0.0000000  0.6024960  3
   3211   3212   3215   3216     1  180.0000771  0.8368000  1
   3211   3212   3215   3216     1  180.0000771  1.0460000  2
   3211   3212   3215   3216     1  0.0000000  0.7531200  3
   3211   3212   3215   3223     1  0.0000000  0.6508444  3
   3211   3233   3217   3221     1  180.0000771  5.6484000  1
   3211   3233   3217   3221     1  180.0000771  3.5564000  2
   3211   3233   3217   3221     1  0.0000000  0.4184000  3
   3211   3233   3217   3216     1  180.0000771  0.4184000  2
   3211   3233   3217   3216     1  0.0000000  1.6024720  3
   3212   3215   3216   3217     1  180.0000771  0.8368000  1
   3212   3215   3216   3217     1  180.0000771  1.0460000  2
   3212   3215   3216   3217     1  0.0000000  0.7531200  3
   3212   3215   3216   3222     1  0.0000000  0.6508444  3
   3212   3211   3225   3231     1  0.0000000  0.6508444  3
   3212   3211   3233   3217     1  180.0000771  0.4184000  2
   3212   3211   3233   3217     1  0.0000000  1.6024720  3
   3215   3216   3217   3221     1  0.0000000  0.6508444  3
   3215   3216   3217   3233     1  0.0000000  0.6508444  3
   3215   3212   3211   3225     1  180.0000771  0.8368000  1
   3215   3212   3211   3225     1  180.0000771  1.0460000  2
   3215   3212   3211   3225     1  0.0000000  0.7531200  3
   3215   3212   3211   3233     1  0.0000000  0.6508444  3
   3216   3215   3212   3224     1  0.0000000  0.6508444  3
   3217   3233   3211   3225     1  180.0000771  0.4184000  2
   3217   3233   3211   3225     1  0.0000000  1.6024720  3
   3217   3216   3215   3223     1  0.0000000  0.6508444  3
   3221   3217   3216   3222     1  0.0000000  4.9162000  2
   3221   3217   3216   3222     1  0.0000000  0.6024960  3
   3222   3216   3217   3233     1  0.0000000  4.9162000  2
   3222   3216   3217   3233     1  0.0000000  0.6024960  3
   3222   3216   3215   3223     1  0.0000000  4.9162000  2
   3222   3216   3215   3223     1  0.0000000  0.6024960  3
   3223   3215   3212   3224     1  0.0000000  4.9162000  2
   3223   3215   3212   3224     1  0.0000000  0.6024960  3
   3224   3212   3211   3225     1  0.0000000  0.6508444  3
   3224   3212   3211   3233     1  0.0000000  4.9162000  2
   3224   3212   3211   3233     1  0.0000000  0.6024960  3
   3231   3225   3211   3233     1  0.0000000  4.9162000  2
   3231   3225   3211   3233     1  0.0000000  0.6024960  3
   3234   3235   3238   3239     1  180.0000771  0.8368000  1
   3234   3235   3238   3239     1  180.0000771  1.0460000  2
   3234   3235   3238   3239     1  0.0000000  0.7531200  3
   3234   3235   3238   3246     1  0.0000000  0.6508444  3
   3234   3256   3240   3239     1  180.0000771  0.4184000  2
   3234   3256   3240   3239     1  0.0000000  1.6024720  3
   3234   3256   3240   3244     1  180.0000771  5.6484000  1
   3234   3256   3240   3244     1  180.0000771  3.5564000  2
   3234   3256   3240   3244     1  0.0000000  0.4184000  3
   3235   3234   3248   3254     1  0.0000000  0.6508444  3
   3235   3234   3256   3240     1  180.0000771  0.4184000  2
   3235   3234   3256   3240     1  0.0000000  1.6024720  3
   3235   3238   3239   3240     1  180.0000771  0.8368000  1
   3235   3238   3239   3240     1  180.0000771  1.0460000  2
   3235   3238   3239   3240     1  0.0000000  0.7531200  3
   3235   3238   3239   3245     1  0.0000000  0.6508444  3
   3238   3235   3234   3248     1  180.0000771  0.8368000  1
   3238   3235   3234   3248     1  180.0000771  1.0460000  2
   3238   3235   3234   3248     1  0.0000000  0.7531200  3
   3238   3235   3234   3256     1  0.0000000  0.6508444  3
   3238   3239   3240   3244     1  0.0000000  0.6508444  3
   3238   3239   3240   3256     1  0.0000000  0.6508444  3
   3239   3238   3235   3247     1  0.0000000  0.6508444  3
   3240   3239   3238   3246     1  0.0000000  0.6508444  3
   3240   3256   3234   3248     1  180.0000771  0.4184000  2
   3240   3256   3234   3248     1  0.0000000  1.6024720  3
   3244   3240   3239   3245     1  0.0000000  4.9162000  2
   3244   3240   3239   3245     1  0.0000000  0.6024960  3
   3245   3239   3238   3246     1  0.0000000  4.9162000  2
   3245   3239   3238   3246     1  0.0000000  0.6024960  3
   3245   3239   3240   3256     1  0.0000000  4.9162000  2
   3245   3239   3240   3256     1  0.0000000  0.6024960  3
   3246   3238   3235   3247     1  0.0000000  4.9162000  2
   3246   3238   3235   3247     1  0.0000000  0.6024960  3
   3247   3235   3234   3248     1  0.0000000  0.6508444  3
   3247   3235   3234   3256     1  0.0000000  4.9162000  2
   3247   3235   3234   3256     1  0.0000000  0.6024960  3
   3254   3248   3234   3256     1  0.0000000  4.9162000  2
   3254   3248   3234   3256     1  0.0000000  0.6024960  3
   3257   3258   3261   3262     1  180.0000771  0.8368000  1
   3257   3258   3261   3262     1  180.0000771  1.0460000  2
   3257   3258   3261   3262     1  0.0000000  0.7531200  3
   3257   3258   3261   3269     1  0.0000000  0.6508444  3
   3257   3279   3263   3267     1  180.0000771  5.6484000  1
   3257   3279   3263   3267     1  180.0000771  3.5564000  2
   3257   3279   3263   3267     1  0.0000000  0.4184000  3
   3257   3279   3263   3262     1  180.0000771  0.4184000  2
   3257   3279   3263   3262     1  0.0000000  1.6024720  3
   3258   3261   3262   3263     1  180.0000771  0.8368000  1
   3258   3261   3262   3263     1  180.0000771  1.0460000  2
   3258   3261   3262   3263     1  0.0000000  0.7531200  3
   3258   3261   3262   3268     1  0.0000000  0.6508444  3
   3258   3257   3271   3277     1  0.0000000  0.6508444  3
   3258   3257   3279   3263     1  180.0000771  0.4184000  2
   3258   3257   3279   3263     1  0.0000000  1.6024720  3
   3261   3262   3263   3267     1  0.0000000  0.6508444  3
   3261   3262   3263   3279     1  0.0000000  0.6508444  3
   3261   3258   3257   3271     1  180.0000771  0.8368000  1
   3261   3258   3257   3271     1  180.0000771  1.0460000  2
   3261   3258   3257   3271     1  0.0000000  0.7531200  3
   3261   3258   3257   3279     1  0.0000000  0.6508444  3
   3262   3261   3258   3270     1  0.0000000  0.6508444  3
   3263   3279   3257   3271     1  180.0000771  0.4184000  2
   3263   3279   3257   3271     1  0.0000000  1.6024720  3
   3263   3262   3261   3269     1  0.0000000  0.6508444  3
   3267   3263   3262   3268     1  0.0000000  4.9162000  2
   3267   3263   3262   3268     1  0.0000000  0.6024960  3
   3268   3262   3263   3279     1  0.0000000  4.9162000  2
   3268   3262   3263   3279     1  0.0000000  0.6024960  3
   3268   3262   3261   3269     1  0.0000000  4.9162000  2
   3268   3262   3261   3269     1  0.0000000  0.6024960  3
   3269   3261   3258   3270     1  0.0000000  4.9162000  2
   3269   3261   3258   3270     1  0.0000000  0.6024960  3
   3270   3258   3257   3271     1  0.0000000  0.6508444  3
   3270   3258   3257   3279     1  0.0000000  4.9162000  2
   3270   3258   3257   3279     1  0.0000000  0.6024960  3
   3277   3271   3257   3279     1  0.0000000  4.9162000  2
   3277   3271   3257   3279     1  0.0000000  0.6024960  3
   3280   3281   3284   3285     1  180.0000771  0.8368000  1
   3280   3281   3284   3285     1  180.0000771  1.0460000  2
   3280   3281   3284   3285     1  0.0000000  0.7531200  3
   3280   3281   3284   3292     1  0.0000000  0.6508444  3
   3280   3302   3286   3285     1  180.0000771  0.4184000  2
   3280   3302   3286   3285     1  0.0000000  1.6024720  3
   3280   3302   3286   3290     1  180.0000771  5.6484000  1
   3280   3302   3286   3290     1  180.0000771  3.5564000  2
   3280   3302   3286   3290     1  0.0000000  0.4184000  3
   3281   3280   3294   3300     1  0.0000000  0.6508444  3
   3281   3280   3302   3286     1  180.0000771  0.4184000  2
   3281   3280   3302   3286     1  0.0000000  1.6024720  3
   3281   3284   3285   3286     1  180.0000771  0.8368000  1
   3281   3284   3285   3286     1  180.0000771  1.0460000  2
   3281   3284   3285   3286     1  0.0000000  0.7531200  3
   3281   3284   3285   3291     1  0.0000000  0.6508444  3
   3284   3281   3280   3294     1  180.0000771  0.8368000  1
   3284   3281   3280   3294     1  180.0000771  1.0460000  2
   3284   3281   3280   3294     1  0.0000000  0.7531200  3
   3284   3281   3280   3302     1  0.0000000  0.6508444  3
   3284   3285   3286   3290     1  0.0000000  0.6508444  3
   3284   3285   3286   3302     1  0.0000000  0.6508444  3
   3285   3284   3281   3293     1  0.0000000  0.6508444  3
   3286   3285   3284   3292     1  0.0000000  0.6508444  3
   3286   3302   3280   3294     1  180.0000771  0.4184000  2
   3286   3302   3280   3294     1  0.0000000  1.6024720  3
   3290   3286   3285   3291     1  0.0000000  4.9162000  2
   3290   3286   3285   3291     1  0.0000000  0.6024960  3
   3291   3285   3284   3292     1  0.0000000  4.9162000  2
   3291   3285   3284   3292     1  0.0000000  0.6024960  3
   3291   3285   3286   3302     1  0.0000000  4.9162000  2
   3291   3285   3286   3302     1  0.0000000  0.6024960  3
   3292   3284   3281   3293     1  0.0000000  4.9162000  2
   3292   3284   3281   3293     1  0.0000000  0.6024960  3
   3293   3281   3280   3294     1  0.0000000  0.6508444  3
   3293   3281   3280   3302     1  0.0000000  4.9162000  2
   3293   3281   3280   3302     1  0.0000000  0.6024960  3
   3300   3294   3280   3302     1  0.0000000  4.9162000  2
   3300   3294   3280   3302     1  0.0000000  0.6024960  3
   3303   3304   3307   3308     1  180.0000771  0.8368000  1
   3303   3304   3307   3308     1  180.0000771  1.0460000  2
   3303   3304   3307   3308     1  0.0000000  0.7531200  3
   3303   3304   3307   3315     1  0.0000000  0.6508444  3
   3303   3325   3309   3313     1  180.0000771  5.6484000  1
   3303   3325   3309   3313     1  180.0000771  3.5564000  2
   3303   3325   3309   3313     1  0.0000000  0.4184000  3
   3303   3325   3309   3308     1  180.0000771  0.4184000  2
   3303   3325   3309   3308     1  0.0000000  1.6024720  3
   3304   3307   3308   3309     1  180.0000771  0.8368000  1
   3304   3307   3308   3309     1  180.0000771  1.0460000  2
   3304   3307   3308   3309     1  0.0000000  0.7531200  3
   3304   3307   3308   3314     1  0.0000000  0.6508444  3
   3304   3303   3317   3323     1  0.0000000  0.6508444  3
   3304   3303   3325   3309     1  180.0000771  0.4184000  2
   3304   3303   3325   3309     1  0.0000000  1.6024720  3
   3307   3308   3309   3313     1  0.0000000  0.6508444  3
   3307   3308   3309   3325     1  0.0000000  0.6508444  3
   3307   3304   3303   3317     1  180.0000771  0.8368000  1
   3307   3304   3303   3317     1  180.0000771  1.0460000  2
   3307   3304   3303   3317     1  0.0000000  0.7531200  3
   3307   3304   3303   3325     1  0.0000000  0.6508444  3
   3308   3307   3304   3316     1  0.0000000  0.6508444  3
   3309   3325   3303   3317     1  180.0000771  0.4184000  2
   3309   3325   3303   3317     1  0.0000000  1.6024720  3
   3309   3308   3307   3315     1  0.0000000  0.6508444  3
   3313   3309   3308   3314     1  0.0000000  4.9162000  2
   3313   3309   3308   3314     1  0.0000000  0.6024960  3
   3314   3308   3309   3325     1  0.0000000  4.9162000  2
   3314   3308   3309   3325     1  0.0000000  0.6024960  3
   3314   3308   3307   3315     1  0.0000000  4.9162000  2
   3314   3308   3307   3315     1  0.0000000  0.6024960  3
   3315   3307   3304   3316     1  0.0000000  4.9162000  2
   3315   3307   3304   3316     1  0.0000000  0.6024960  3
   3316   3304   3303   3317     1  0.0000000  0.6508444  3
   3316   3304   3303   3325     1  0.0000000  4.9162000  2
   3316   3304   3303   3325     1  0.0000000  0.6024960  3
   3323   3317   3303   3325     1  0.0000000  4.9162000  2
   3323   3317   3303   3325     1  0.0000000  0.6024960  3
   3326   3327   3330   3331     1  180.0000771  0.8368000  1
   3326   3327   3330   3331     1  180.0000771  1.0460000  2
   3326   3327   3330   3331     1  0.0000000  0.7531200  3
   3326   3327   3330   3338     1  0.0000000  0.6508444  3
   3326   3348   3332   3331     1  180.0000771  0.4184000  2
   3326   3348   3332   3331     1  0.0000000  1.6024720  3
   3326   3348   3332   3336     1  180.0000771  5.6484000  1
   3326   3348   3332   3336     1  180.0000771  3.5564000  2
   3326   3348   3332   3336     1  0.0000000  0.4184000  3
   3327   3326   3340   3346     1  0.0000000  0.6508444  3
   3327   3326   3348   3332     1  180.0000771  0.4184000  2
   3327   3326   3348   3332     1  0.0000000  1.6024720  3
   3327   3330   3331   3332     1  180.0000771  0.8368000  1
   3327   3330   3331   3332     1  180.0000771  1.0460000  2
   3327   3330   3331   3332     1  0.0000000  0.7531200  3
   3327   3330   3331   3337     1  0.0000000  0.6508444  3
   3330   3327   3326   3340     1  180.0000771  0.8368000  1
   3330   3327   3326   3340     1  180.0000771  1.0460000  2
   3330   3327   3326   3340     1  0.0000000  0.7531200  3
   3330   3327   3326   3348     1  0.0000000  0.6508444  3
   3330   3331   3332   3336     1  0.0000000  0.6508444  3
   3330   3331   3332   3348     1  0.0000000  0.6508444  3
   3331   3330   3327   3339     1  0.0000000  0.6508444  3
   3332   3331   3330   3338     1  0.0000000  0.6508444  3
   3332   3348   3326   3340     1  180.0000771  0.4184000  2
   3332   3348   3326   3340     1  0.0000000  1.6024720  3
   3336   3332   3331   3337     1  0.0000000  4.9162000  2
   3336   3332   3331   3337     1  0.0000000  0.6024960  3
   3337   3331   3330   3338     1  0.0000000  4.9162000  2
   3337   3331   3330   3338     1  0.0000000  0.6024960  3
   3337   3331   3332   3348     1  0.0000000  4.9162000  2
   3337   3331   3332   3348     1  0.0000000  0.6024960  3
   3338   3330   3327   3339     1  0.0000000  4.9162000  2
   3338   3330   3327   3339     1  0.0000000  0.6024960  3
   3339   3327   3326   3340     1  0.0000000  0.6508444  3
   3339   3327   3326   3348     1  0.0000000  4.9162000  2
   3339   3327   3326   3348     1  0.0000000  0.6024960  3
   3346   3340   3326   3348     1  0.0000000  4.9162000  2
   3346   3340   3326   3348     1  0.0000000  0.6024960  3
   3349   3350   3353   3354     1  180.0000771  0.8368000  1
   3349   3350   3353   3354     1  180.0000771  1.0460000  2
   3349   3350   3353   3354     1  0.0000000  0.7531200  3
   3349   3350   3353   3361     1  0.0000000  0.6508444  3
   3349   3371   3355   3359     1  180.0000771  5.6484000  1
   3349   3371   3355   3359     1  180.0000771  3.5564000  2
   3349   3371   3355   3359     1  0.0000000  0.4184000  3
   3349   3371   3355   3354     1  180.0000771  0.4184000  2
   3349   3371   3355   3354     1  0.0000000  1.6024720  3
   3350   3353   3354   3355     1  180.0000771  0.8368000  1
   3350   3353   3354   3355     1  180.0000771  1.0460000  2
   3350   3353   3354   3355     1  0.0000000  0.7531200  3
   3350   3353   3354   3360     1  0.0000000  0.6508444  3
   3350   3349   3363   3369     1  0.0000000  0.6508444  3
   3350   3349   3371   3355     1  180.0000771  0.4184000  2
   3350   3349   3371   3355     1  0.0000000  1.6024720  3
   3353   3354   3355   3359     1  0.0000000  0.6508444  3
   3353   3354   3355   3371     1  0.0000000  0.6508444  3
   3353   3350   3349   3363     1  180.0000771  0.8368000  1
   3353   3350   3349   3363     1  180.0000771  1.0460000  2
   3353   3350   3349   3363     1  0.0000000  0.7531200  3
   3353   3350   3349   3371     1  0.0000000  0.6508444  3
   3354   3353   3350   3362     1  0.0000000  0.6508444  3
   3355   3371   3349   3363     1  180.0000771  0.4184000  2
   3355   3371   3349   3363     1  0.0000000  1.6024720  3
   3355   3354   3353   3361     1  0.0000000  0.6508444  3
   3359   3355   3354   3360     1  0.0000000  4.9162000  2
   3359   3355   3354   3360     1  0.0000000  0.6024960  3
   3360   3354   3355   3371     1  0.0000000  4.9162000  2
   3360   3354   3355   3371     1  0.0000000  0.6024960  3
   3360   3354   3353   3361     1  0.0000000  4.9162000  2
   3360   3354   3353   3361     1  0.0000000  0.6024960  3
   3361   3353   3350   3362     1  0.0000000  4.9162000  2
   3361   3353   3350   3362     1  0.0000000  0.6024960  3
   3362   3350   3349   3363     1  0.0000000  0.6508444  3
   3362   3350   3349   3371     1  0.0000000  4.9162000  2
   3362   3350   3349   3371     1  0.0000000  0.6024960  3
   3369   3363   3349   3371     1  0.0000000  4.9162000  2
   3369   3363   3349   3371     1  0.0000000  0.6024960  3
   3372   3373   3376   3377     1  180.0000771  0.8368000  1
   3372   3373   3376   3377     1  180.0000771  1.0460000  2
   3372   3373   3376   3377     1  0.0000000  0.7531200  3
   3372   3373   3376   3384     1  0.0000000  0.6508444  3
   3372   3394   3378   3377     1  180.0000771  0.4184000  2
   3372   3394   3378   3377     1  0.0000000  1.6024720  3
   3372   3394   3378   3382     1  180.0000771  5.6484000  1
   3372   3394   3378   3382     1  180.0000771  3.5564000  2
   3372   3394   3378   3382     1  0.0000000  0.4184000  3
   3373   3372   3386   3392     1  0.0000000  0.6508444  3
   3373   3372   3394   3378     1  180.0000771  0.4184000  2
   3373   3372   3394   3378     1  0.0000000  1.6024720  3
   3373   3376   3377   3378     1  180.0000771  0.8368000  1
   3373   3376   3377   3378     1  180.0000771  1.0460000  2
   3373   3376   3377   3378     1  0.0000000  0.7531200  3
   3373   3376   3377   3383     1  0.0000000  0.6508444  3
   3376   3373   3372   3386     1  180.0000771  0.8368000  1
   3376   3373   3372   3386     1  180.0000771  1.0460000  2
   3376   3373   3372   3386     1  0.0000000  0.7531200  3
   3376   3373   3372   3394     1  0.0000000  0.6508444  3
   3376   3377   3378   3382     1  0.0000000  0.6508444  3
   3376   3377   3378   3394     1  0.0000000  0.6508444  3
   3377   3376   3373   3385     1  0.0000000  0.6508444  3
   3378   3377   3376   3384     1  0.0000000  0.6508444  3
   3378   3394   3372   3386     1  180.0000771  0.4184000  2
   3378   3394   3372   3386     1  0.0000000  1.6024720  3
   3382   3378   3377   3383     1  0.0000000  4.9162000  2
   3382   3378   3377   3383     1  0.0000000  0.6024960  3
   3383   3377   3376   3384     1  0.0000000  4.9162000  2
   3383   3377   3376   3384     1  0.0000000  0.6024960  3
   3383   3377   3378   3394     1  0.0000000  4.9162000  2
   3383   3377   3378   3394     1  0.0000000  0.6024960  3
   3384   3376   3373   3385     1  0.0000000  4.9162000  2
   3384   3376   3373   3385     1  0.0000000  0.6024960  3
   3385   3373   3372   3386     1  0.0000000  0.6508444  3
   3385   3373   3372   3394     1  0.0000000  4.9162000  2
   3385   3373   3372   3394     1  0.0000000  0.6024960  3
   3392   3386   3372   3394     1  0.0000000  4.9162000  2
   3392   3386   3372   3394     1  0.0000000  0.6024960  3
   3395   3396   3399   3400     1  180.0000771  0.8368000  1
   3395   3396   3399   3400     1  180.0000771  1.0460000  2
   3395   3396   3399   3400     1  0.0000000  0.7531200  3
   3395   3396   3399   3407     1  0.0000000  0.6508444  3
   3395   3417   3401   3405     1  180.0000771  5.6484000  1
   3395   3417   3401   3405     1  180.0000771  3.5564000  2
   3395   3417   3401   3405     1  0.0000000  0.4184000  3
   3395   3417   3401   3400     1  180.0000771  0.4184000  2
   3395   3417   3401   3400     1  0.0000000  1.6024720  3
   3396   3399   3400   3401     1  180.0000771  0.8368000  1
   3396   3399   3400   3401     1  180.0000771  1.0460000  2
   3396   3399   3400   3401     1  0.0000000  0.7531200  3
   3396   3399   3400   3406     1  0.0000000  0.6508444  3
   3396   3395   3409   3415     1  0.0000000  0.6508444  3
   3396   3395   3417   3401     1  180.0000771  0.4184000  2
   3396   3395   3417   3401     1  0.0000000  1.6024720  3
   3399   3400   3401   3405     1  0.0000000  0.6508444  3
   3399   3400   3401   3417     1  0.0000000  0.6508444  3
   3399   3396   3395   3409     1  180.0000771  0.8368000  1
   3399   3396   3395   3409     1  180.0000771  1.0460000  2
   3399   3396   3395   3409     1  0.0000000  0.7531200  3
   3399   3396   3395   3417     1  0.0000000  0.6508444  3
   3400   3399   3396   3408     1  0.0000000  0.6508444  3
   3401   3417   3395   3409     1  180.0000771  0.4184000  2
   3401   3417   3395   3409     1  0.0000000  1.6024720  3
   3401   3400   3399   3407     1  0.0000000  0.6508444  3
   3405   3401   3400   3406     1  0.0000000  4.9162000  2
   3405   3401   3400   3406     1  0.0000000  0.6024960  3
   3406   3400   3401   3417     1  0.0000000  4.9162000  2
   3406   3400   3401   3417     1  0.0000000  0.6024960  3
   3406   3400   3399   3407     1  0.0000000  4.9162000  2
   3406   3400   3399   3407     1  0.0000000  0.6024960  3
   3407   3399   3396   3408     1  0.0000000  4.9162000  2
   3407   3399   3396   3408     1  0.0000000  0.6024960  3
   3408   3396   3395   3409     1  0.0000000  0.6508444  3
   3408   3396   3395   3417     1  0.0000000  4.9162000  2
   3408   3396   3395   3417     1  0.0000000  0.6024960  3
   3415   3409   3395   3417     1  0.0000000  4.9162000  2
   3415   3409   3395   3417     1  0.0000000  0.6024960  3
   3418   3419   3422   3423     1  180.0000771  0.8368000  1
   3418   3419   3422   3423     1  180.0000771  1.0460000  2
   3418   3419   3422   3423     1  0.0000000  0.7531200  3
   3418   3419   3422   3430     1  0.0000000  0.6508444  3
   3418   3440   3424   3423     1  180.0000771  0.4184000  2
   3418   3440   3424   3423     1  0.0000000  1.6024720  3
   3418   3440   3424   3428     1  180.0000771  5.6484000  1
   3418   3440   3424   3428     1  180.0000771  3.5564000  2
   3418   3440   3424   3428     1  0.0000000  0.4184000  3
   3419   3418   3432   3438     1  0.0000000  0.6508444  3
   3419   3418   3440   3424     1  180.0000771  0.4184000  2
   3419   3418   3440   3424     1  0.0000000  1.6024720  3
   3419   3422   3423   3424     1  180.0000771  0.8368000  1
   3419   3422   3423   3424     1  180.0000771  1.0460000  2
   3419   3422   3423   3424     1  0.0000000  0.7531200  3
   3419   3422   3423   3429     1  0.0000000  0.6508444  3
   3422   3419   3418   3432     1  180.0000771  0.8368000  1
   3422   3419   3418   3432     1  180.0000771  1.0460000  2
   3422   3419   3418   3432     1  0.0000000  0.7531200  3
   3422   3419   3418   3440     1  0.0000000  0.6508444  3
   3422   3423   3424   3428     1  0.0000000  0.6508444  3
   3422   3423   3424   3440     1  0.0000000  0.6508444  3
   3423   3422   3419   3431     1  0.0000000  0.6508444  3
   3424   3423   3422   3430     1  0.0000000  0.6508444  3
   3424   3440   3418   3432     1  180.0000771  0.4184000  2
   3424   3440   3418   3432     1  0.0000000  1.6024720  3
   3428   3424   3423   3429     1  0.0000000  4.9162000  2
   3428   3424   3423   3429     1  0.0000000  0.6024960  3
   3429   3423   3422   3430     1  0.0000000  4.9162000  2
   3429   3423   3422   3430     1  0.0000000  0.6024960  3
   3429   3423   3424   3440     1  0.0000000  4.9162000  2
   3429   3423   3424   3440     1  0.0000000  0.6024960  3
   3430   3422   3419   3431     1  0.0000000  4.9162000  2
   3430   3422   3419   3431     1  0.0000000  0.6024960  3
   3431   3419   3418   3432     1  0.0000000  0.6508444  3
   3431   3419   3418   3440     1  0.0000000  4.9162000  2
   3431   3419   3418   3440     1  0.0000000  0.6024960  3
   3438   3432   3418   3440     1  0.0000000  4.9162000  2
   3438   3432   3418   3440     1  0.0000000  0.6024960  3
   3441   3442   3445   3446     1  180.0000771  0.8368000  1
   3441   3442   3445   3446     1  180.0000771  1.0460000  2
   3441   3442   3445   3446     1  0.0000000  0.7531200  3
   3441   3442   3445   3453     1  0.0000000  0.6508444  3
   3441   3463   3447   3451     1  180.0000771  5.6484000  1
   3441   3463   3447   3451     1  180.0000771  3.5564000  2
   3441   3463   3447   3451     1  0.0000000  0.4184000  3
   3441   3463   3447   3446     1  180.0000771  0.4184000  2
   3441   3463   3447   3446     1  0.0000000  1.6024720  3
   3442   3445   3446   3447     1  180.0000771  0.8368000  1
   3442   3445   3446   3447     1  180.0000771  1.0460000  2
   3442   3445   3446   3447     1  0.0000000  0.7531200  3
   3442   3445   3446   3452     1  0.0000000  0.6508444  3
   3442   3441   3455   3461     1  0.0000000  0.6508444  3
   3442   3441   3463   3447     1  180.0000771  0.4184000  2
   3442   3441   3463   3447     1  0.0000000  1.6024720  3
   3445   3446   3447   3451     1  0.0000000  0.6508444  3
   3445   3446   3447   3463     1  0.0000000  0.6508444  3
   3445   3442   3441   3455     1  180.0000771  0.8368000  1
   3445   3442   3441   3455     1  180.0000771  1.0460000  2
   3445   3442   3441   3455     1  0.0000000  0.7531200  3
   3445   3442   3441   3463     1  0.0000000  0.6508444  3
   3446   3445   3442   3454     1  0.0000000  0.6508444  3
   3447   3463   3441   3455     1  180.0000771  0.4184000  2
   3447   3463   3441   3455     1  0.0000000  1.6024720  3
   3447   3446   3445   3453     1  0.0000000  0.6508444  3
   3451   3447   3446   3452     1  0.0000000  4.9162000  2
   3451   3447   3446   3452     1  0.0000000  0.6024960  3
   3452   3446   3447   3463     1  0.0000000  4.9162000  2
   3452   3446   3447   3463     1  0.0000000  0.6024960  3
   3452   3446   3445   3453     1  0.0000000  4.9162000  2
   3452   3446   3445   3453     1  0.0000000  0.6024960  3
   3453   3445   3442   3454     1  0.0000000  4.9162000  2
   3453   3445   3442   3454     1  0.0000000  0.6024960  3
   3454   3442   3441   3455     1  0.0000000  0.6508444  3
   3454   3442   3441   3463     1  0.0000000  4.9162000  2
   3454   3442   3441   3463     1  0.0000000  0.6024960  3
   3461   3455   3441   3463     1  0.0000000  4.9162000  2
   3461   3455   3441   3463     1  0.0000000  0.6024960  3
   3464   3465   3468   3469     1  180.0000771  0.8368000  1
   3464   3465   3468   3469     1  180.0000771  1.0460000  2
   3464   3465   3468   3469     1  0.0000000  0.7531200  3
   3464   3465   3468   3476     1  0.0000000  0.6508444  3
   3464   3486   3470   3469     1  180.0000771  0.4184000  2
   3464   3486   3470   3469     1  0.0000000  1.6024720  3
   3464   3486   3470   3474     1  180.0000771  5.6484000  1
   3464   3486   3470   3474     1  180.0000771  3.5564000  2
   3464   3486   3470   3474     1  0.0000000  0.4184000  3
   3465   3464   3478   3484     1  0.0000000  0.6508444  3
   3465   3464   3486   3470     1  180.0000771  0.4184000  2
   3465   3464   3486   3470     1  0.0000000  1.6024720  3
   3465   3468   3469   3470     1  180.0000771  0.8368000  1
   3465   3468   3469   3470     1  180.0000771  1.0460000  2
   3465   3468   3469   3470     1  0.0000000  0.7531200  3
   3465   3468   3469   3475     1  0.0000000  0.6508444  3
   3468   3465   3464   3478     1  180.0000771  0.8368000  1
   3468   3465   3464   3478     1  180.0000771  1.0460000  2
   3468   3465   3464   3478     1  0.0000000  0.7531200  3
   3468   3465   3464   3486     1  0.0000000  0.6508444  3
   3468   3469   3470   3474     1  0.0000000  0.6508444  3
   3468   3469   3470   3486     1  0.0000000  0.6508444  3
   3469   3468   3465   3477     1  0.0000000  0.6508444  3
   3470   3469   3468   3476     1  0.0000000  0.6508444  3
   3470   3486   3464   3478     1  180.0000771  0.4184000  2
   3470   3486   3464   3478     1  0.0000000  1.6024720  3
   3474   3470   3469   3475     1  0.0000000  4.9162000  2
   3474   3470   3469   3475     1  0.0000000  0.6024960  3
   3475   3469   3468   3476     1  0.0000000  4.9162000  2
   3475   3469   3468   3476     1  0.0000000  0.6024960  3
   3475   3469   3470   3486     1  0.0000000  4.9162000  2
   3475   3469   3470   3486     1  0.0000000  0.6024960  3
   3476   3468   3465   3477     1  0.0000000  4.9162000  2
   3476   3468   3465   3477     1  0.0000000  0.6024960  3
   3477   3465   3464   3478     1  0.0000000  0.6508444  3
   3477   3465   3464   3486     1  0.0000000  4.9162000  2
   3477   3465   3464   3486     1  0.0000000  0.6024960  3
   3484   3478   3464   3486     1  0.0000000  4.9162000  2
   3484   3478   3464   3486     1  0.0000000  0.6024960  3
   3487   3488   3491   3492     1  180.0000771  0.8368000  1
   3487   3488   3491   3492     1  180.0000771  1.0460000  2
   3487   3488   3491   3492     1  0.0000000  0.7531200  3
   3487   3488   3491   3499     1  0.0000000  0.6508444  3
   3487   3509   3493   3497     1  180.0000771  5.6484000  1
   3487   3509   3493   3497     1  180.0000771  3.5564000  2
   3487   3509   3493   3497     1  0.0000000  0.4184000  3
   3487   3509   3493   3492     1  180.0000771  0.4184000  2
   3487   3509   3493   3492     1  0.0000000  1.6024720  3
   3488   3491   3492   3493     1  180.0000771  0.8368000  1
   3488   3491   3492   3493     1  180.0000771  1.0460000  2
   3488   3491   3492   3493     1  0.0000000  0.7531200  3
   3488   3491   3492   3498     1  0.0000000  0.6508444  3
   3488   3487   3501   3507     1  0.0000000  0.6508444  3
   3488   3487   3509   3493     1  180.0000771  0.4184000  2
   3488   3487   3509   3493     1  0.0000000  1.6024720  3
   3491   3492   3493   3497     1  0.0000000  0.6508444  3
   3491   3492   3493   3509     1  0.0000000  0.6508444  3
   3491   3488   3487   3501     1  180.0000771  0.8368000  1
   3491   3488   3487   3501     1  180.0000771  1.0460000  2
   3491   3488   3487   3501     1  0.0000000  0.7531200  3
   3491   3488   3487   3509     1  0.0000000  0.6508444  3
   3492   3491   3488   3500     1  0.0000000  0.6508444  3
   3493   3509   3487   3501     1  180.0000771  0.4184000  2
   3493   3509   3487   3501     1  0.0000000  1.6024720  3
   3493   3492   3491   3499     1  0.0000000  0.6508444  3
   3497   3493   3492   3498     1  0.0000000  4.9162000  2
   3497   3493   3492   3498     1  0.0000000  0.6024960  3
   3498   3492   3493   3509     1  0.0000000  4.9162000  2
   3498   3492   3493   3509     1  0.0000000  0.6024960  3
   3498   3492   3491   3499     1  0.0000000  4.9162000  2
   3498   3492   3491   3499     1  0.0000000  0.6024960  3
   3499   3491   3488   3500     1  0.0000000  4.9162000  2
   3499   3491   3488   3500     1  0.0000000  0.6024960  3
   3500   3488   3487   3501     1  0.0000000  0.6508444  3
   3500   3488   3487   3509     1  0.0000000  4.9162000  2
   3500   3488   3487   3509     1  0.0000000  0.6024960  3
   3507   3501   3487   3509     1  0.0000000  4.9162000  2
   3507   3501   3487   3509     1  0.0000000  0.6024960  3
   3510   3511   3514   3515     1  180.0000771  0.8368000  1
   3510   3511   3514   3515     1  180.0000771  1.0460000  2
   3510   3511   3514   3515     1  0.0000000  0.7531200  3
   3510   3511   3514   3522     1  0.0000000  0.6508444  3
   3510   3532   3516   3515     1  180.0000771  0.4184000  2
   3510   3532   3516   3515     1  0.0000000  1.6024720  3
   3510   3532   3516   3520     1  180.0000771  5.6484000  1
   3510   3532   3516   3520     1  180.0000771  3.5564000  2
   3510   3532   3516   3520     1  0.0000000  0.4184000  3
   3511   3510   3524   3530     1  0.0000000  0.6508444  3
   3511   3510   3532   3516     1  180.0000771  0.4184000  2
   3511   3510   3532   3516     1  0.0000000  1.6024720  3
   3511   3514   3515   3516     1  180.0000771  0.8368000  1
   3511   3514   3515   3516     1  180.0000771  1.0460000  2
   3511   3514   3515   3516     1  0.0000000  0.7531200  3
   3511   3514   3515   3521     1  0.0000000  0.6508444  3
   3514   3511   3510   3524     1  180.0000771  0.8368000  1
   3514   3511   3510   3524     1  180.0000771  1.0460000  2
   3514   3511   3510   3524     1  0.0000000  0.7531200  3
   3514   3511   3510   3532     1  0.0000000  0.6508444  3
   3514   3515   3516   3520     1  0.0000000  0.6508444  3
   3514   3515   3516   3532     1  0.0000000  0.6508444  3
   3515   3514   3511   3523     1  0.0000000  0.6508444  3
   3516   3515   3514   3522     1  0.0000000  0.6508444  3
   3516   3532   3510   3524     1  180.0000771  0.4184000  2
   3516   3532   3510   3524     1  0.0000000  1.6024720  3
   3520   3516   3515   3521     1  0.0000000  4.9162000  2
   3520   3516   3515   3521     1  0.0000000  0.6024960  3
   3521   3515   3514   3522     1  0.0000000  4.9162000  2
   3521   3515   3514   3522     1  0.0000000  0.6024960  3
   3521   3515   3516   3532     1  0.0000000  4.9162000  2
   3521   3515   3516   3532     1  0.0000000  0.6024960  3
   3522   3514   3511   3523     1  0.0000000  4.9162000  2
   3522   3514   3511   3523     1  0.0000000  0.6024960  3
   3523   3511   3510   3524     1  0.0000000  0.6508444  3
   3523   3511   3510   3532     1  0.0000000  4.9162000  2
   3523   3511   3510   3532     1  0.0000000  0.6024960  3
   3530   3524   3510   3532     1  0.0000000  4.9162000  2
   3530   3524   3510   3532     1  0.0000000  0.6024960  3
   3533   3534   3537   3538     1  180.0000771  0.8368000  1
   3533   3534   3537   3538     1  180.0000771  1.0460000  2
   3533   3534   3537   3538     1  0.0000000  0.7531200  3
   3533   3534   3537   3545     1  0.0000000  0.6508444  3
   3533   3555   3539   3543     1  180.0000771  5.6484000  1
   3533   3555   3539   3543     1  180.0000771  3.5564000  2
   3533   3555   3539   3543     1  0.0000000  0.4184000  3
   3533   3555   3539   3538     1  180.0000771  0.4184000  2
   3533   3555   3539   3538     1  0.0000000  1.6024720  3
   3534   3537   3538   3539     1  180.0000771  0.8368000  1
   3534   3537   3538   3539     1  180.0000771  1.0460000  2
   3534   3537   3538   3539     1  0.0000000  0.7531200  3
   3534   3537   3538   3544     1  0.0000000  0.6508444  3
   3534   3533   3547   3553     1  0.0000000  0.6508444  3
   3534   3533   3555   3539     1  180.0000771  0.4184000  2
   3534   3533   3555   3539     1  0.0000000  1.6024720  3
   3537   3538   3539   3543     1  0.0000000  0.6508444  3
   3537   3538   3539   3555     1  0.0000000  0.6508444  3
   3537   3534   3533   3547     1  180.0000771  0.8368000  1
   3537   3534   3533   3547     1  180.0000771  1.0460000  2
   3537   3534   3533   3547     1  0.0000000  0.7531200  3
   3537   3534   3533   3555     1  0.0000000  0.6508444  3
   3538   3537   3534   3546     1  0.0000000  0.6508444  3
   3539   3555   3533   3547     1  180.0000771  0.4184000  2
   3539   3555   3533   3547     1  0.0000000  1.6024720  3
   3539   3538   3537   3545     1  0.0000000  0.6508444  3
   3543   3539   3538   3544     1  0.0000000  4.9162000  2
   3543   3539   3538   3544     1  0.0000000  0.6024960  3
   3544   3538   3539   3555     1  0.0000000  4.9162000  2
   3544   3538   3539   3555     1  0.0000000  0.6024960  3
   3544   3538   3537   3545     1  0.0000000  4.9162000  2
   3544   3538   3537   3545     1  0.0000000  0.6024960  3
   3545   3537   3534   3546     1  0.0000000  4.9162000  2
   3545   3537   3534   3546     1  0.0000000  0.6024960  3
   3546   3534   3533   3547     1  0.0000000  0.6508444  3
   3546   3534   3533   3555     1  0.0000000  4.9162000  2
   3546   3534   3533   3555     1  0.0000000  0.6024960  3
   3553   3547   3533   3555     1  0.0000000  4.9162000  2
   3553   3547   3533   3555     1  0.0000000  0.6024960  3
   3556   3557   3560   3561     1  180.0000771  0.8368000  1
   3556   3557   3560   3561     1  180.0000771  1.0460000  2
   3556   3557   3560   3561     1  0.0000000  0.7531200  3
   3556   3557   3560   3568     1  0.0000000  0.6508444  3
   3556   3578   3562   3561     1  180.0000771  0.4184000  2
   3556   3578   3562   3561     1  0.0000000  1.6024720  3
   3556   3578   3562   3566     1  180.0000771  5.6484000  1
   3556   3578   3562   3566     1  180.0000771  3.5564000  2
   3556   3578   3562   3566     1  0.0000000  0.4184000  3
   3557   3556   3570   3576     1  0.0000000  0.6508444  3
   3557   3556   3578   3562     1  180.0000771  0.4184000  2
   3557   3556   3578   3562     1  0.0000000  1.6024720  3
   3557   3560   3561   3562     1  180.0000771  0.8368000  1
   3557   3560   3561   3562     1  180.0000771  1.0460000  2
   3557   3560   3561   3562     1  0.0000000  0.7531200  3
   3557   3560   3561   3567     1  0.0000000  0.6508444  3
   3560   3557   3556   3570     1  180.0000771  0.8368000  1
   3560   3557   3556   3570     1  180.0000771  1.0460000  2
   3560   3557   3556   3570     1  0.0000000  0.7531200  3
   3560   3557   3556   3578     1  0.0000000  0.6508444  3
   3560   3561   3562   3566     1  0.0000000  0.6508444  3
   3560   3561   3562   3578     1  0.0000000  0.6508444  3
   3561   3560   3557   3569     1  0.0000000  0.6508444  3
   3562   3561   3560   3568     1  0.0000000  0.6508444  3
   3562   3578   3556   3570     1  180.0000771  0.4184000  2
   3562   3578   3556   3570     1  0.0000000  1.6024720  3
   3566   3562   3561   3567     1  0.0000000  4.9162000  2
   3566   3562   3561   3567     1  0.0000000  0.6024960  3
   3567   3561   3560   3568     1  0.0000000  4.9162000  2
   3567   3561   3560   3568     1  0.0000000  0.6024960  3
   3567   3561   3562   3578     1  0.0000000  4.9162000  2
   3567   3561   3562   3578     1  0.0000000  0.6024960  3
   3568   3560   3557   3569     1  0.0000000  4.9162000  2
   3568   3560   3557   3569     1  0.0000000  0.6024960  3
   3569   3557   3556   3570     1  0.0000000  0.6508444  3
   3569   3557   3556   3578     1  0.0000000  4.9162000  2
   3569   3557   3556   3578     1  0.0000000  0.6024960  3
   3576   3570   3556   3578     1  0.0000000  4.9162000  2
   3576   3570   3556   3578     1  0.0000000  0.6024960  3
   3579   3580   3583   3584     1  180.0000771  0.8368000  1
   3579   3580   3583   3584     1  180.0000771  1.0460000  2
   3579   3580   3583   3584     1  0.0000000  0.7531200  3
   3579   3580   3583   3591     1  0.0000000  0.6508444  3
   3579   3601   3585   3589     1  180.0000771  5.6484000  1
   3579   3601   3585   3589     1  180.0000771  3.5564000  2
   3579   3601   3585   3589     1  0.0000000  0.4184000  3
   3579   3601   3585   3584     1  180.0000771  0.4184000  2
   3579   3601   3585   3584     1  0.0000000  1.6024720  3
   3580   3583   3584   3585     1  180.0000771  0.8368000  1
   3580   3583   3584   3585     1  180.0000771  1.0460000  2
   3580   3583   3584   3585     1  0.0000000  0.7531200  3
   3580   3583   3584   3590     1  0.0000000  0.6508444  3
   3580   3579   3593   3599     1  0.0000000  0.6508444  3
   3580   3579   3601   3585     1  180.0000771  0.4184000  2
   3580   3579   3601   3585     1  0.0000000  1.6024720  3
   3583   3584   3585   3589     1  0.0000000  0.6508444  3
   3583   3584   3585   3601     1  0.0000000  0.6508444  3
   3583   3580   3579   3593     1  180.0000771  0.8368000  1
   3583   3580   3579   3593     1  180.0000771  1.0460000  2
   3583   3580   3579   3593     1  0.0000000  0.7531200  3
   3583   3580   3579   3601     1  0.0000000  0.6508444  3
   3584   3583   3580   3592     1  0.0000000  0.6508444  3
   3585   3601   3579   3593     1  180.0000771  0.4184000  2
   3585   3601   3579   3593     1  0.0000000  1.6024720  3
   3585   3584   3583   3591     1  0.0000000  0.6508444  3
   3589   3585   3584   3590     1  0.0000000  4.9162000  2
   3589   3585   3584   3590     1  0.0000000  0.6024960  3
   3590   3584   3585   3601     1  0.0000000  4.9162000  2
   3590   3584   3585   3601     1  0.0000000  0.6024960  3
   3590   3584   3583   3591     1  0.0000000  4.9162000  2
   3590   3584   3583   3591     1  0.0000000  0.6024960  3
   3591   3583   3580   3592     1  0.0000000  4.9162000  2
   3591   3583   3580   3592     1  0.0000000  0.6024960  3
   3592   3580   3579   3593     1  0.0000000  0.6508444  3
   3592   3580   3579   3601     1  0.0000000  4.9162000  2
   3592   3580   3579   3601     1  0.0000000  0.6024960  3
   3599   3593   3579   3601     1  0.0000000  4.9162000  2
   3599   3593   3579   3601     1  0.0000000  0.6024960  3
   3602   3603   3606   3607     1  180.0000771  0.8368000  1
   3602   3603   3606   3607     1  180.0000771  1.0460000  2
   3602   3603   3606   3607     1  0.0000000  0.7531200  3
   3602   3603   3606   3614     1  0.0000000  0.6508444  3
   3602   3624   3608   3607     1  180.0000771  0.4184000  2
   3602   3624   3608   3607     1  0.0000000  1.6024720  3
   3602   3624   3608   3612     1  180.0000771  5.6484000  1
   3602   3624   3608   3612     1  180.0000771  3.5564000  2
   3602   3624   3608   3612     1  0.0000000  0.4184000  3
   3603   3602   3616   3622     1  0.0000000  0.6508444  3
   3603   3602   3624   3608     1  180.0000771  0.4184000  2
   3603   3602   3624   3608     1  0.0000000  1.6024720  3
   3603   3606   3607   3608     1  180.0000771  0.8368000  1
   3603   3606   3607   3608     1  180.0000771  1.0460000  2
   3603   3606   3607   3608     1  0.0000000  0.7531200  3
   3603   3606   3607   3613     1  0.0000000  0.6508444  3
   3606   3603   3602   3616     1  180.0000771  0.8368000  1
   3606   3603   3602   3616     1  180.0000771  1.0460000  2
   3606   3603   3602   3616     1  0.0000000  0.7531200  3
   3606   3603   3602   3624     1  0.0000000  0.6508444  3
   3606   3607   3608   3612     1  0.0000000  0.6508444  3
   3606   3607   3608   3624     1  0.0000000  0.6508444  3
   3607   3606   3603   3615     1  0.0000000  0.6508444  3
   3608   3607   3606   3614     1  0.0000000  0.6508444  3
   3608   3624   3602   3616     1  180.0000771  0.4184000  2
   3608   3624   3602   3616     1  0.0000000  1.6024720  3
   3612   3608   3607   3613     1  0.0000000  4.9162000  2
   3612   3608   3607   3613     1  0.0000000  0.6024960  3
   3613   3607   3606   3614     1  0.0000000  4.9162000  2
   3613   3607   3606   3614     1  0.0000000  0.6024960  3
   3613   3607   3608   3624     1  0.0000000  4.9162000  2
   3613   3607   3608   3624     1  0.0000000  0.6024960  3
   3614   3606   3603   3615     1  0.0000000  4.9162000  2
   3614   3606   3603   3615     1  0.0000000  0.6024960  3
   3615   3603   3602   3616     1  0.0000000  0.6508444  3
   3615   3603   3602   3624     1  0.0000000  4.9162000  2
   3615   3603   3602   3624     1  0.0000000  0.6024960  3
   3622   3616   3602   3624     1  0.0000000  4.9162000  2
   3622   3616   3602   3624     1  0.0000000  0.6024960  3
   3625   3626   3629   3630     1  180.0000771  0.8368000  1
   3625   3626   3629   3630     1  180.0000771  1.0460000  2
   3625   3626   3629   3630     1  0.0000000  0.7531200  3
   3625   3626   3629   3637     1  0.0000000  0.6508444  3
   3625   3647   3631   3635     1  180.0000771  5.6484000  1
   3625   3647   3631   3635     1  180.0000771  3.5564000  2
   3625   3647   3631   3635     1  0.0000000  0.4184000  3
   3625   3647   3631   3630     1  180.0000771  0.4184000  2
   3625   3647   3631   3630     1  0.0000000  1.6024720  3
   3626   3629   3630   3631     1  180.0000771  0.8368000  1
   3626   3629   3630   3631     1  180.0000771  1.0460000  2
   3626   3629   3630   3631     1  0.0000000  0.7531200  3
   3626   3629   3630   3636     1  0.0000000  0.6508444  3
   3626   3625   3639   3645     1  0.0000000  0.6508444  3
   3626   3625   3647   3631     1  180.0000771  0.4184000  2
   3626   3625   3647   3631     1  0.0000000  1.6024720  3
   3629   3630   3631   3635     1  0.0000000  0.6508444  3
   3629   3630   3631   3647     1  0.0000000  0.6508444  3
   3629   3626   3625   3639     1  180.0000771  0.8368000  1
   3629   3626   3625   3639     1  180.0000771  1.0460000  2
   3629   3626   3625   3639     1  0.0000000  0.7531200  3
   3629   3626   3625   3647     1  0.0000000  0.6508444  3
   3630   3629   3626   3638     1  0.0000000  0.6508444  3
   3631   3647   3625   3639     1  180.0000771  0.4184000  2
   3631   3647   3625   3639     1  0.0000000  1.6024720  3
   3631   3630   3629   3637     1  0.0000000  0.6508444  3
   3635   3631   3630   3636     1  0.0000000  4.9162000  2
   3635   3631   3630   3636     1  0.0000000  0.6024960  3
   3636   3630   3631   3647     1  0.0000000  4.9162000  2
   3636   3630   3631   3647     1  0.0000000  0.6024960  3
   3636   3630   3629   3637     1  0.0000000  4.9162000  2
   3636   3630   3629   3637     1  0.0000000  0.6024960  3
   3637   3629   3626   3638     1  0.0000000  4.9162000  2
   3637   3629   3626   3638     1  0.0000000  0.6024960  3
   3638   3626   3625   3639     1  0.0000000  0.6508444  3
   3638   3626   3625   3647     1  0.0000000  4.9162000  2
   3638   3626   3625   3647     1  0.0000000  0.6024960  3
   3645   3639   3625   3647     1  0.0000000  4.9162000  2
   3645   3639   3625   3647     1  0.0000000  0.6024960  3
   3648   3649   3652   3653     1  180.0000771  0.8368000  1
   3648   3649   3652   3653     1  180.0000771  1.0460000  2
   3648   3649   3652   3653     1  0.0000000  0.7531200  3
   3648   3649   3652   3660     1  0.0000000  0.6508444  3
   3648   3670   3654   3653     1  180.0000771  0.4184000  2
   3648   3670   3654   3653     1  0.0000000  1.6024720  3
   3648   3670   3654   3658     1  180.0000771  5.6484000  1
   3648   3670   3654   3658     1  180.0000771  3.5564000  2
   3648   3670   3654   3658     1  0.0000000  0.4184000  3
   3649   3648   3662   3668     1  0.0000000  0.6508444  3
   3649   3648   3670   3654     1  180.0000771  0.4184000  2
   3649   3648   3670   3654     1  0.0000000  1.6024720  3
   3649   3652   3653   3654     1  180.0000771  0.8368000  1
   3649   3652   3653   3654     1  180.0000771  1.0460000  2
   3649   3652   3653   3654     1  0.0000000  0.7531200  3
   3649   3652   3653   3659     1  0.0000000  0.6508444  3
   3652   3649   3648   3662     1  180.0000771  0.8368000  1
   3652   3649   3648   3662     1  180.0000771  1.0460000  2
   3652   3649   3648   3662     1  0.0000000  0.7531200  3
   3652   3649   3648   3670     1  0.0000000  0.6508444  3
   3652   3653   3654   3658     1  0.0000000  0.6508444  3
   3652   3653   3654   3670     1  0.0000000  0.6508444  3
   3653   3652   3649   3661     1  0.0000000  0.6508444  3
   3654   3653   3652   3660     1  0.0000000  0.6508444  3
   3654   3670   3648   3662     1  180.0000771  0.4184000  2
   3654   3670   3648   3662     1  0.0000000  1.6024720  3
   3658   3654   3653   3659     1  0.0000000  4.9162000  2
   3658   3654   3653   3659     1  0.0000000  0.6024960  3
   3659   3653   3652   3660     1  0.0000000  4.9162000  2
   3659   3653   3652   3660     1  0.0000000  0.6024960  3
   3659   3653   3654   3670     1  0.0000000  4.9162000  2
   3659   3653   3654   3670     1  0.0000000  0.6024960  3
   3660   3652   3649   3661     1  0.0000000  4.9162000  2
   3660   3652   3649   3661     1  0.0000000  0.6024960  3
   3661   3649   3648   3662     1  0.0000000  0.6508444  3
   3661   3649   3648   3670     1  0.0000000  4.9162000  2
   3661   3649   3648   3670     1  0.0000000  0.6024960  3
   3668   3662   3648   3670     1  0.0000000  4.9162000  2
   3668   3662   3648   3670     1  0.0000000  0.6024960  3
   3671   3672   3675   3676     1  180.0000771  0.8368000  1
   3671   3672   3675   3676     1  180.0000771  1.0460000  2
   3671   3672   3675   3676     1  0.0000000  0.7531200  3
   3671   3672   3675   3683     1  0.0000000  0.6508444  3
   3671   3693   3677   3681     1  180.0000771  5.6484000  1
   3671   3693   3677   3681     1  180.0000771  3.5564000  2
   3671   3693   3677   3681     1  0.0000000  0.4184000  3
   3671   3693   3677   3676     1  180.0000771  0.4184000  2
   3671   3693   3677   3676     1  0.0000000  1.6024720  3
   3672   3675   3676   3677     1  180.0000771  0.8368000  1
   3672   3675   3676   3677     1  180.0000771  1.0460000  2
   3672   3675   3676   3677     1  0.0000000  0.7531200  3
   3672   3675   3676   3682     1  0.0000000  0.6508444  3
   3672   3671   3685   3691     1  0.0000000  0.6508444  3
   3672   3671   3693   3677     1  180.0000771  0.4184000  2
   3672   3671   3693   3677     1  0.0000000  1.6024720  3
   3675   3676   3677   3681     1  0.0000000  0.6508444  3
   3675   3676   3677   3693     1  0.0000000  0.6508444  3
   3675   3672   3671   3685     1  180.0000771  0.8368000  1
   3675   3672   3671   3685     1  180.0000771  1.0460000  2
   3675   3672   3671   3685     1  0.0000000  0.7531200  3
   3675   3672   3671   3693     1  0.0000000  0.6508444  3
   3676   3675   3672   3684     1  0.0000000  0.6508444  3
   3677   3693   3671   3685     1  180.0000771  0.4184000  2
   3677   3693   3671   3685     1  0.0000000  1.6024720  3
   3677   3676   3675   3683     1  0.0000000  0.6508444  3
   3681   3677   3676   3682     1  0.0000000  4.9162000  2
   3681   3677   3676   3682     1  0.0000000  0.6024960  3
   3682   3676   3677   3693     1  0.0000000  4.9162000  2
   3682   3676   3677   3693     1  0.0000000  0.6024960  3
   3682   3676   3675   3683     1  0.0000000  4.9162000  2
   3682   3676   3675   3683     1  0.0000000  0.6024960  3
   3683   3675   3672   3684     1  0.0000000  4.9162000  2
   3683   3675   3672   3684     1  0.0000000  0.6024960  3
   3684   3672   3671   3685     1  0.0000000  0.6508444  3
   3684   3672   3671   3693     1  0.0000000  4.9162000  2
   3684   3672   3671   3693     1  0.0000000  0.6024960  3
   3691   3685   3671   3693     1  0.0000000  4.9162000  2
   3691   3685   3671   3693     1  0.0000000  0.6024960  3
   3694   3695   3698   3699     1  180.0000771  0.8368000  1
   3694   3695   3698   3699     1  180.0000771  1.0460000  2
   3694   3695   3698   3699     1  0.0000000  0.7531200  3
   3694   3695   3698   3706     1  0.0000000  0.6508444  3
   3694   3716   3700   3699     1  180.0000771  0.4184000  2
   3694   3716   3700   3699     1  0.0000000  1.6024720  3
   3694   3716   3700   3704     1  180.0000771  5.6484000  1
   3694   3716   3700   3704     1  180.0000771  3.5564000  2
   3694   3716   3700   3704     1  0.0000000  0.4184000  3
   3695   3694   3708   3714     1  0.0000000  0.6508444  3
   3695   3694   3716   3700     1  180.0000771  0.4184000  2
   3695   3694   3716   3700     1  0.0000000  1.6024720  3
   3695   3698   3699   3700     1  180.0000771  0.8368000  1
   3695   3698   3699   3700     1  180.0000771  1.0460000  2
   3695   3698   3699   3700     1  0.0000000  0.7531200  3
   3695   3698   3699   3705     1  0.0000000  0.6508444  3
   3698   3695   3694   3708     1  180.0000771  0.8368000  1
   3698   3695   3694   3708     1  180.0000771  1.0460000  2
   3698   3695   3694   3708     1  0.0000000  0.7531200  3
   3698   3695   3694   3716     1  0.0000000  0.6508444  3
   3698   3699   3700   3704     1  0.0000000  0.6508444  3
   3698   3699   3700   3716     1  0.0000000  0.6508444  3
   3699   3698   3695   3707     1  0.0000000  0.6508444  3
   3700   3699   3698   3706     1  0.0000000  0.6508444  3
   3700   3716   3694   3708     1  180.0000771  0.4184000  2
   3700   3716   3694   3708     1  0.0000000  1.6024720  3
   3704   3700   3699   3705     1  0.0000000  4.9162000  2
   3704   3700   3699   3705     1  0.0000000  0.6024960  3
   3705   3699   3698   3706     1  0.0000000  4.9162000  2
   3705   3699   3698   3706     1  0.0000000  0.6024960  3
   3705   3699   3700   3716     1  0.0000000  4.9162000  2
   3705   3699   3700   3716     1  0.0000000  0.6024960  3
   3706   3698   3695   3707     1  0.0000000  4.9162000  2
   3706   3698   3695   3707     1  0.0000000  0.6024960  3
   3707   3695   3694   3708     1  0.0000000  0.6508444  3
   3707   3695   3694   3716     1  0.0000000  4.9162000  2
   3707   3695   3694   3716     1  0.0000000  0.6024960  3
   3714   3708   3694   3716     1  0.0000000  4.9162000  2
   3714   3708   3694   3716     1  0.0000000  0.6024960  3
   3717   3718   3721   3722     1  180.0000771  0.8368000  1
   3717   3718   3721   3722     1  180.0000771  1.0460000  2
   3717   3718   3721   3722     1  0.0000000  0.7531200  3
   3717   3718   3721   3729     1  0.0000000  0.6508444  3
   3717   3739   3723   3727     1  180.0000771  5.6484000  1
   3717   3739   3723   3727     1  180.0000771  3.5564000  2
   3717   3739   3723   3727     1  0.0000000  0.4184000  3
   3717   3739   3723   3722     1  180.0000771  0.4184000  2
   3717   3739   3723   3722     1  0.0000000  1.6024720  3
   3718   3721   3722   3723     1  180.0000771  0.8368000  1
   3718   3721   3722   3723     1  180.0000771  1.0460000  2
   3718   3721   3722   3723     1  0.0000000  0.7531200  3
   3718   3721   3722   3728     1  0.0000000  0.6508444  3
   3718   3717   3731   3737     1  0.0000000  0.6508444  3
   3718   3717   3739   3723     1  180.0000771  0.4184000  2
   3718   3717   3739   3723     1  0.0000000  1.6024720  3
   3721   3722   3723   3727     1  0.0000000  0.6508444  3
   3721   3722   3723   3739     1  0.0000000  0.6508444  3
   3721   3718   3717   3731     1  180.0000771  0.8368000  1
   3721   3718   3717   3731     1  180.0000771  1.0460000  2
   3721   3718   3717   3731     1  0.0000000  0.7531200  3
   3721   3718   3717   3739     1  0.0000000  0.6508444  3
   3722   3721   3718   3730     1  0.0000000  0.6508444  3
   3723   3739   3717   3731     1  180.0000771  0.4184000  2
   3723   3739   3717   3731     1  0.0000000  1.6024720  3
   3723   3722   3721   3729     1  0.0000000  0.6508444  3
   3727   3723   3722   3728     1  0.0000000  4.9162000  2
   3727   3723   3722   3728     1  0.0000000  0.6024960  3
   3728   3722   3723   3739     1  0.0000000  4.9162000  2
   3728   3722   3723   3739     1  0.0000000  0.6024960  3
   3728   3722   3721   3729     1  0.0000000  4.9162000  2
   3728   3722   3721   3729     1  0.0000000  0.6024960  3
   3729   3721   3718   3730     1  0.0000000  4.9162000  2
   3729   3721   3718   3730     1  0.0000000  0.6024960  3
   3730   3718   3717   3731     1  0.0000000  0.6508444  3
   3730   3718   3717   3739     1  0.0000000  4.9162000  2
   3730   3718   3717   3739     1  0.0000000  0.6024960  3
   3737   3731   3717   3739     1  0.0000000  4.9162000  2
   3737   3731   3717   3739     1  0.0000000  0.6024960  3
   3740   3741   3744   3745     1  180.0000771  0.8368000  1
   3740   3741   3744   3745     1  180.0000771  1.0460000  2
   3740   3741   3744   3745     1  0.0000000  0.7531200  3
   3740   3741   3744   3752     1  0.0000000  0.6508444  3
   3740   3762   3746   3745     1  180.0000771  0.4184000  2
   3740   3762   3746   3745     1  0.0000000  1.6024720  3
   3740   3762   3746   3750     1  180.0000771  5.6484000  1
   3740   3762   3746   3750     1  180.0000771  3.5564000  2
   3740   3762   3746   3750     1  0.0000000  0.4184000  3
   3741   3740   3754   3760     1  0.0000000  0.6508444  3
   3741   3740   3762   3746     1  180.0000771  0.4184000  2
   3741   3740   3762   3746     1  0.0000000  1.6024720  3
   3741   3744   3745   3746     1  180.0000771  0.8368000  1
   3741   3744   3745   3746     1  180.0000771  1.0460000  2
   3741   3744   3745   3746     1  0.0000000  0.7531200  3
   3741   3744   3745   3751     1  0.0000000  0.6508444  3
   3744   3741   3740   3754     1  180.0000771  0.8368000  1
   3744   3741   3740   3754     1  180.0000771  1.0460000  2
   3744   3741   3740   3754     1  0.0000000  0.7531200  3
   3744   3741   3740   3762     1  0.0000000  0.6508444  3
   3744   3745   3746   3750     1  0.0000000  0.6508444  3
   3744   3745   3746   3762     1  0.0000000  0.6508444  3
   3745   3744   3741   3753     1  0.0000000  0.6508444  3
   3746   3745   3744   3752     1  0.0000000  0.6508444  3
   3746   3762   3740   3754     1  180.0000771  0.4184000  2
   3746   3762   3740   3754     1  0.0000000  1.6024720  3
   3750   3746   3745   3751     1  0.0000000  4.9162000  2
   3750   3746   3745   3751     1  0.0000000  0.6024960  3
   3751   3745   3744   3752     1  0.0000000  4.9162000  2
   3751   3745   3744   3752     1  0.0000000  0.6024960  3
   3751   3745   3746   3762     1  0.0000000  4.9162000  2
   3751   3745   3746   3762     1  0.0000000  0.6024960  3
   3752   3744   3741   3753     1  0.0000000  4.9162000  2
   3752   3744   3741   3753     1  0.0000000  0.6024960  3
   3753   3741   3740   3754     1  0.0000000  0.6508444  3
   3753   3741   3740   3762     1  0.0000000  4.9162000  2
   3753   3741   3740   3762     1  0.0000000  0.6024960  3
   3760   3754   3740   3762     1  0.0000000  4.9162000  2
   3760   3754   3740   3762     1  0.0000000  0.6024960  3
   3763   3764   3767   3768     1  180.0000771  0.8368000  1
   3763   3764   3767   3768     1  180.0000771  1.0460000  2
   3763   3764   3767   3768     1  0.0000000  0.7531200  3
   3763   3764   3767   3775     1  0.0000000  0.6508444  3
   3763   3785   3769   3773     1  180.0000771  5.6484000  1
   3763   3785   3769   3773     1  180.0000771  3.5564000  2
   3763   3785   3769   3773     1  0.0000000  0.4184000  3
   3763   3785   3769   3768     1  180.0000771  0.4184000  2
   3763   3785   3769   3768     1  0.0000000  1.6024720  3
   3764   3767   3768   3769     1  180.0000771  0.8368000  1
   3764   3767   3768   3769     1  180.0000771  1.0460000  2
   3764   3767   3768   3769     1  0.0000000  0.7531200  3
   3764   3767   3768   3774     1  0.0000000  0.6508444  3
   3764   3763   3777   3783     1  0.0000000  0.6508444  3
   3764   3763   3785   3769     1  180.0000771  0.4184000  2
   3764   3763   3785   3769     1  0.0000000  1.6024720  3
   3767   3768   3769   3773     1  0.0000000  0.6508444  3
   3767   3768   3769   3785     1  0.0000000  0.6508444  3
   3767   3764   3763   3777     1  180.0000771  0.8368000  1
   3767   3764   3763   3777     1  180.0000771  1.0460000  2
   3767   3764   3763   3777     1  0.0000000  0.7531200  3
   3767   3764   3763   3785     1  0.0000000  0.6508444  3
   3768   3767   3764   3776     1  0.0000000  0.6508444  3
   3769   3785   3763   3777     1  180.0000771  0.4184000  2
   3769   3785   3763   3777     1  0.0000000  1.6024720  3
   3769   3768   3767   3775     1  0.0000000  0.6508444  3
   3773   3769   3768   3774     1  0.0000000  4.9162000  2
   3773   3769   3768   3774     1  0.0000000  0.6024960  3
   3774   3768   3769   3785     1  0.0000000  4.9162000  2
   3774   3768   3769   3785     1  0.0000000  0.6024960  3
   3774   3768   3767   3775     1  0.0000000  4.9162000  2
   3774   3768   3767   3775     1  0.0000000  0.6024960  3
   3775   3767   3764   3776     1  0.0000000  4.9162000  2
   3775   3767   3764   3776     1  0.0000000  0.6024960  3
   3776   3764   3763   3777     1  0.0000000  0.6508444  3
   3776   3764   3763   3785     1  0.0000000  4.9162000  2
   3776   3764   3763   3785     1  0.0000000  0.6024960  3
   3783   3777   3763   3785     1  0.0000000  4.9162000  2
   3783   3777   3763   3785     1  0.0000000  0.6024960  3
   3786   3787   3790   3791     1  180.0000771  0.8368000  1
   3786   3787   3790   3791     1  180.0000771  1.0460000  2
   3786   3787   3790   3791     1  0.0000000  0.7531200  3
   3786   3787   3790   3798     1  0.0000000  0.6508444  3
   3786   3808   3792   3791     1  180.0000771  0.4184000  2
   3786   3808   3792   3791     1  0.0000000  1.6024720  3
   3786   3808   3792   3796     1  180.0000771  5.6484000  1
   3786   3808   3792   3796     1  180.0000771  3.5564000  2
   3786   3808   3792   3796     1  0.0000000  0.4184000  3
   3787   3786   3800   3806     1  0.0000000  0.6508444  3
   3787   3786   3808   3792     1  180.0000771  0.4184000  2
   3787   3786   3808   3792     1  0.0000000  1.6024720  3
   3787   3790   3791   3792     1  180.0000771  0.8368000  1
   3787   3790   3791   3792     1  180.0000771  1.0460000  2
   3787   3790   3791   3792     1  0.0000000  0.7531200  3
   3787   3790   3791   3797     1  0.0000000  0.6508444  3
   3790   3787   3786   3800     1  180.0000771  0.8368000  1
   3790   3787   3786   3800     1  180.0000771  1.0460000  2
   3790   3787   3786   3800     1  0.0000000  0.7531200  3
   3790   3787   3786   3808     1  0.0000000  0.6508444  3
   3790   3791   3792   3796     1  0.0000000  0.6508444  3
   3790   3791   3792   3808     1  0.0000000  0.6508444  3
   3791   3790   3787   3799     1  0.0000000  0.6508444  3
   3792   3791   3790   3798     1  0.0000000  0.6508444  3
   3792   3808   3786   3800     1  180.0000771  0.4184000  2
   3792   3808   3786   3800     1  0.0000000  1.6024720  3
   3796   3792   3791   3797     1  0.0000000  4.9162000  2
   3796   3792   3791   3797     1  0.0000000  0.6024960  3
   3797   3791   3790   3798     1  0.0000000  4.9162000  2
   3797   3791   3790   3798     1  0.0000000  0.6024960  3
   3797   3791   3792   3808     1  0.0000000  4.9162000  2
   3797   3791   3792   3808     1  0.0000000  0.6024960  3
   3798   3790   3787   3799     1  0.0000000  4.9162000  2
   3798   3790   3787   3799     1  0.0000000  0.6024960  3
   3799   3787   3786   3800     1  0.0000000  0.6508444  3
   3799   3787   3786   3808     1  0.0000000  4.9162000  2
   3799   3787   3786   3808     1  0.0000000  0.6024960  3
   3806   3800   3786   3808     1  0.0000000  4.9162000  2
   3806   3800   3786   3808     1  0.0000000  0.6024960  3
   3809   3810   3813   3814     1  180.0000771  0.8368000  1
   3809   3810   3813   3814     1  180.0000771  1.0460000  2
   3809   3810   3813   3814     1  0.0000000  0.7531200  3
   3809   3810   3813   3821     1  0.0000000  0.6508444  3
   3809   3831   3815   3819     1  180.0000771  5.6484000  1
   3809   3831   3815   3819     1  180.0000771  3.5564000  2
   3809   3831   3815   3819     1  0.0000000  0.4184000  3
   3809   3831   3815   3814     1  180.0000771  0.4184000  2
   3809   3831   3815   3814     1  0.0000000  1.6024720  3
   3810   3813   3814   3815     1  180.0000771  0.8368000  1
   3810   3813   3814   3815     1  180.0000771  1.0460000  2
   3810   3813   3814   3815     1  0.0000000  0.7531200  3
   3810   3813   3814   3820     1  0.0000000  0.6508444  3
   3810   3809   3823   3829     1  0.0000000  0.6508444  3
   3810   3809   3831   3815     1  180.0000771  0.4184000  2
   3810   3809   3831   3815     1  0.0000000  1.6024720  3
   3813   3814   3815   3819     1  0.0000000  0.6508444  3
   3813   3814   3815   3831     1  0.0000000  0.6508444  3
   3813   3810   3809   3823     1  180.0000771  0.8368000  1
   3813   3810   3809   3823     1  180.0000771  1.0460000  2
   3813   3810   3809   3823     1  0.0000000  0.7531200  3
   3813   3810   3809   3831     1  0.0000000  0.6508444  3
   3814   3813   3810   3822     1  0.0000000  0.6508444  3
   3815   3831   3809   3823     1  180.0000771  0.4184000  2
   3815   3831   3809   3823     1  0.0000000  1.6024720  3
   3815   3814   3813   3821     1  0.0000000  0.6508444  3
   3819   3815   3814   3820     1  0.0000000  4.9162000  2
   3819   3815   3814   3820     1  0.0000000  0.6024960  3
   3820   3814   3815   3831     1  0.0000000  4.9162000  2
   3820   3814   3815   3831     1  0.0000000  0.6024960  3
   3820   3814   3813   3821     1  0.0000000  4.9162000  2
   3820   3814   3813   3821     1  0.0000000  0.6024960  3
   3821   3813   3810   3822     1  0.0000000  4.9162000  2
   3821   3813   3810   3822     1  0.0000000  0.6024960  3
   3822   3810   3809   3823     1  0.0000000  0.6508444  3
   3822   3810   3809   3831     1  0.0000000  4.9162000  2
   3822   3810   3809   3831     1  0.0000000  0.6024960  3
   3829   3823   3809   3831     1  0.0000000  4.9162000  2
   3829   3823   3809   3831     1  0.0000000  0.6024960  3
   3832   3833   3836   3837     1  180.0000771  0.8368000  1
   3832   3833   3836   3837     1  180.0000771  1.0460000  2
   3832   3833   3836   3837     1  0.0000000  0.7531200  3
   3832   3833   3836   3844     1  0.0000000  0.6508444  3
   3832   3854   3838   3837     1  180.0000771  0.4184000  2
   3832   3854   3838   3837     1  0.0000000  1.6024720  3
   3832   3854   3838   3842     1  180.0000771  5.6484000  1
   3832   3854   3838   3842     1  180.0000771  3.5564000  2
   3832   3854   3838   3842     1  0.0000000  0.4184000  3
   3833   3832   3846   3852     1  0.0000000  0.6508444  3
   3833   3832   3854   3838     1  180.0000771  0.4184000  2
   3833   3832   3854   3838     1  0.0000000  1.6024720  3
   3833   3836   3837   3838     1  180.0000771  0.8368000  1
   3833   3836   3837   3838     1  180.0000771  1.0460000  2
   3833   3836   3837   3838     1  0.0000000  0.7531200  3
   3833   3836   3837   3843     1  0.0000000  0.6508444  3
   3836   3833   3832   3846     1  180.0000771  0.8368000  1
   3836   3833   3832   3846     1  180.0000771  1.0460000  2
   3836   3833   3832   3846     1  0.0000000  0.7531200  3
   3836   3833   3832   3854     1  0.0000000  0.6508444  3
   3836   3837   3838   3842     1  0.0000000  0.6508444  3
   3836   3837   3838   3854     1  0.0000000  0.6508444  3
   3837   3836   3833   3845     1  0.0000000  0.6508444  3
   3838   3837   3836   3844     1  0.0000000  0.6508444  3
   3838   3854   3832   3846     1  180.0000771  0.4184000  2
   3838   3854   3832   3846     1  0.0000000  1.6024720  3
   3842   3838   3837   3843     1  0.0000000  4.9162000  2
   3842   3838   3837   3843     1  0.0000000  0.6024960  3
   3843   3837   3836   3844     1  0.0000000  4.9162000  2
   3843   3837   3836   3844     1  0.0000000  0.6024960  3
   3843   3837   3838   3854     1  0.0000000  4.9162000  2
   3843   3837   3838   3854     1  0.0000000  0.6024960  3
   3844   3836   3833   3845     1  0.0000000  4.9162000  2
   3844   3836   3833   3845     1  0.0000000  0.6024960  3
   3845   3833   3832   3846     1  0.0000000  0.6508444  3
   3845   3833   3832   3854     1  0.0000000  4.9162000  2
   3845   3833   3832   3854     1  0.0000000  0.6024960  3
   3852   3846   3832   3854     1  0.0000000  4.9162000  2
   3852   3846   3832   3854     1  0.0000000  0.6024960  3
   3855   3856   3859   3860     1  180.0000771  0.8368000  1
   3855   3856   3859   3860     1  180.0000771  1.0460000  2
   3855   3856   3859   3860     1  0.0000000  0.7531200  3
   3855   3856   3859   3867     1  0.0000000  0.6508444  3
   3855   3877   3861   3865     1  180.0000771  5.6484000  1
   3855   3877   3861   3865     1  180.0000771  3.5564000  2
   3855   3877   3861   3865     1  0.0000000  0.4184000  3
   3855   3877   3861   3860     1  180.0000771  0.4184000  2
   3855   3877   3861   3860     1  0.0000000  1.6024720  3
   3856   3859   3860   3861     1  180.0000771  0.8368000  1
   3856   3859   3860   3861     1  180.0000771  1.0460000  2
   3856   3859   3860   3861     1  0.0000000  0.7531200  3
   3856   3859   3860   3866     1  0.0000000  0.6508444  3
   3856   3855   3869   3875     1  0.0000000  0.6508444  3
   3856   3855   3877   3861     1  180.0000771  0.4184000  2
   3856   3855   3877   3861     1  0.0000000  1.6024720  3
   3859   3860   3861   3865     1  0.0000000  0.6508444  3
   3859   3860   3861   3877     1  0.0000000  0.6508444  3
   3859   3856   3855   3869     1  180.0000771  0.8368000  1
   3859   3856   3855   3869     1  180.0000771  1.0460000  2
   3859   3856   3855   3869     1  0.0000000  0.7531200  3
   3859   3856   3855   3877     1  0.0000000  0.6508444  3
   3860   3859   3856   3868     1  0.0000000  0.6508444  3
   3861   3877   3855   3869     1  180.0000771  0.4184000  2
   3861   3877   3855   3869     1  0.0000000  1.6024720  3
   3861   3860   3859   3867     1  0.0000000  0.6508444  3
   3865   3861   3860   3866     1  0.0000000  4.9162000  2
   3865   3861   3860   3866     1  0.0000000  0.6024960  3
   3866   3860   3861   3877     1  0.0000000  4.9162000  2
   3866   3860   3861   3877     1  0.0000000  0.6024960  3
   3866   3860   3859   3867     1  0.0000000  4.9162000  2
   3866   3860   3859   3867     1  0.0000000  0.6024960  3
   3867   3859   3856   3868     1  0.0000000  4.9162000  2
   3867   3859   3856   3868     1  0.0000000  0.6024960  3
   3868   3856   3855   3869     1  0.0000000  0.6508444  3
   3868   3856   3855   3877     1  0.0000000  4.9162000  2
   3868   3856   3855   3877     1  0.0000000  0.6024960  3
   3875   3869   3855   3877     1  0.0000000  4.9162000  2
   3875   3869   3855   3877     1  0.0000000  0.6024960  3
   3878   3879   3882   3883     1  180.0000771  0.8368000  1
   3878   3879   3882   3883     1  180.0000771  1.0460000  2
   3878   3879   3882   3883     1  0.0000000  0.7531200  3
   3878   3879   3882   3890     1  0.0000000  0.6508444  3
   3878   3900   3884   3883     1  180.0000771  0.4184000  2
   3878   3900   3884   3883     1  0.0000000  1.6024720  3
   3878   3900   3884   3888     1  180.0000771  5.6484000  1
   3878   3900   3884   3888     1  180.0000771  3.5564000  2
   3878   3900   3884   3888     1  0.0000000  0.4184000  3
   3879   3878   3892   3898     1  0.0000000  0.6508444  3
   3879   3878   3900   3884     1  180.0000771  0.4184000  2
   3879   3878   3900   3884     1  0.0000000  1.6024720  3
   3879   3882   3883   3884     1  180.0000771  0.8368000  1
   3879   3882   3883   3884     1  180.0000771  1.0460000  2
   3879   3882   3883   3884     1  0.0000000  0.7531200  3
   3879   3882   3883   3889     1  0.0000000  0.6508444  3
   3882   3879   3878   3892     1  180.0000771  0.8368000  1
   3882   3879   3878   3892     1  180.0000771  1.0460000  2
   3882   3879   3878   3892     1  0.0000000  0.7531200  3
   3882   3879   3878   3900     1  0.0000000  0.6508444  3
   3882   3883   3884   3888     1  0.0000000  0.6508444  3
   3882   3883   3884   3900     1  0.0000000  0.6508444  3
   3883   3882   3879   3891     1  0.0000000  0.6508444  3
   3884   3883   3882   3890     1  0.0000000  0.6508444  3
   3884   3900   3878   3892     1  180.0000771  0.4184000  2
   3884   3900   3878   3892     1  0.0000000  1.6024720  3
   3888   3884   3883   3889     1  0.0000000  4.9162000  2
   3888   3884   3883   3889     1  0.0000000  0.6024960  3
   3889   3883   3882   3890     1  0.0000000  4.9162000  2
   3889   3883   3882   3890     1  0.0000000  0.6024960  3
   3889   3883   3884   3900     1  0.0000000  4.9162000  2
   3889   3883   3884   3900     1  0.0000000  0.6024960  3
   3890   3882   3879   3891     1  0.0000000  4.9162000  2
   3890   3882   3879   3891     1  0.0000000  0.6024960  3
   3891   3879   3878   3892     1  0.0000000  0.6508444  3
   3891   3879   3878   3900     1  0.0000000  4.9162000  2
   3891   3879   3878   3900     1  0.0000000  0.6024960  3
   3898   3892   3878   3900     1  0.0000000  4.9162000  2
   3898   3892   3878   3900     1  0.0000000  0.6024960  3
   3901   3902   3905   3906     1  180.0000771  0.8368000  1
   3901   3902   3905   3906     1  180.0000771  1.0460000  2
   3901   3902   3905   3906     1  0.0000000  0.7531200  3
   3901   3902   3905   3913     1  0.0000000  0.6508444  3
   3901   3923   3907   3911     1  180.0000771  5.6484000  1
   3901   3923   3907   3911     1  180.0000771  3.5564000  2
   3901   3923   3907   3911     1  0.0000000  0.4184000  3
   3901   3923   3907   3906     1  180.0000771  0.4184000  2
   3901   3923   3907   3906     1  0.0000000  1.6024720  3
   3902   3905   3906   3907     1  180.0000771  0.8368000  1
   3902   3905   3906   3907     1  180.0000771  1.0460000  2
   3902   3905   3906   3907     1  0.0000000  0.7531200  3
   3902   3905   3906   3912     1  0.0000000  0.6508444  3
   3902   3901   3915   3921     1  0.0000000  0.6508444  3
   3902   3901   3923   3907     1  180.0000771  0.4184000  2
   3902   3901   3923   3907     1  0.0000000  1.6024720  3
   3905   3906   3907   3911     1  0.0000000  0.6508444  3
   3905   3906   3907   3923     1  0.0000000  0.6508444  3
   3905   3902   3901   3915     1  180.0000771  0.8368000  1
   3905   3902   3901   3915     1  180.0000771  1.0460000  2
   3905   3902   3901   3915     1  0.0000000  0.7531200  3
   3905   3902   3901   3923     1  0.0000000  0.6508444  3
   3906   3905   3902   3914     1  0.0000000  0.6508444  3
   3907   3923   3901   3915     1  180.0000771  0.4184000  2
   3907   3923   3901   3915     1  0.0000000  1.6024720  3
   3907   3906   3905   3913     1  0.0000000  0.6508444  3
   3911   3907   3906   3912     1  0.0000000  4.9162000  2
   3911   3907   3906   3912     1  0.0000000  0.6024960  3
   3912   3906   3907   3923     1  0.0000000  4.9162000  2
   3912   3906   3907   3923     1  0.0000000  0.6024960  3
   3912   3906   3905   3913     1  0.0000000  4.9162000  2
   3912   3906   3905   3913     1  0.0000000  0.6024960  3
   3913   3905   3902   3914     1  0.0000000  4.9162000  2
   3913   3905   3902   3914     1  0.0000000  0.6024960  3
   3914   3902   3901   3915     1  0.0000000  0.6508444  3
   3914   3902   3901   3923     1  0.0000000  4.9162000  2
   3914   3902   3901   3923     1  0.0000000  0.6024960  3
   3921   3915   3901   3923     1  0.0000000  4.9162000  2
   3921   3915   3901   3923     1  0.0000000  0.6024960  3
   3924   3925   3928   3929     1  180.0000771  0.8368000  1
   3924   3925   3928   3929     1  180.0000771  1.0460000  2
   3924   3925   3928   3929     1  0.0000000  0.7531200  3
   3924   3925   3928   3936     1  0.0000000  0.6508444  3
   3924   3946   3930   3929     1  180.0000771  0.4184000  2
   3924   3946   3930   3929     1  0.0000000  1.6024720  3
   3924   3946   3930   3934     1  180.0000771  5.6484000  1
   3924   3946   3930   3934     1  180.0000771  3.5564000  2
   3924   3946   3930   3934     1  0.0000000  0.4184000  3
   3925   3924   3938   3944     1  0.0000000  0.6508444  3
   3925   3924   3946   3930     1  180.0000771  0.4184000  2
   3925   3924   3946   3930     1  0.0000000  1.6024720  3
   3925   3928   3929   3930     1  180.0000771  0.8368000  1
   3925   3928   3929   3930     1  180.0000771  1.0460000  2
   3925   3928   3929   3930     1  0.0000000  0.7531200  3
   3925   3928   3929   3935     1  0.0000000  0.6508444  3
   3928   3925   3924   3938     1  180.0000771  0.8368000  1
   3928   3925   3924   3938     1  180.0000771  1.0460000  2
   3928   3925   3924   3938     1  0.0000000  0.7531200  3
   3928   3925   3924   3946     1  0.0000000  0.6508444  3
   3928   3929   3930   3934     1  0.0000000  0.6508444  3
   3928   3929   3930   3946     1  0.0000000  0.6508444  3
   3929   3928   3925   3937     1  0.0000000  0.6508444  3
   3930   3929   3928   3936     1  0.0000000  0.6508444  3
   3930   3946   3924   3938     1  180.0000771  0.4184000  2
   3930   3946   3924   3938     1  0.0000000  1.6024720  3
   3934   3930   3929   3935     1  0.0000000  4.9162000  2
   3934   3930   3929   3935     1  0.0000000  0.6024960  3
   3935   3929   3928   3936     1  0.0000000  4.9162000  2
   3935   3929   3928   3936     1  0.0000000  0.6024960  3
   3935   3929   3930   3946     1  0.0000000  4.9162000  2
   3935   3929   3930   3946     1  0.0000000  0.6024960  3
   3936   3928   3925   3937     1  0.0000000  4.9162000  2
   3936   3928   3925   3937     1  0.0000000  0.6024960  3
   3937   3925   3924   3938     1  0.0000000  0.6508444  3
   3937   3925   3924   3946     1  0.0000000  4.9162000  2
   3937   3925   3924   3946     1  0.0000000  0.6024960  3
   3944   3938   3924   3946     1  0.0000000  4.9162000  2
   3944   3938   3924   3946     1  0.0000000  0.6024960  3
   3947   3948   3951   3952     1  180.0000771  0.8368000  1
   3947   3948   3951   3952     1  180.0000771  1.0460000  2
   3947   3948   3951   3952     1  0.0000000  0.7531200  3
   3947   3948   3951   3959     1  0.0000000  0.6508444  3
   3947   3969   3953   3957     1  180.0000771  5.6484000  1
   3947   3969   3953   3957     1  180.0000771  3.5564000  2
   3947   3969   3953   3957     1  0.0000000  0.4184000  3
   3947   3969   3953   3952     1  180.0000771  0.4184000  2
   3947   3969   3953   3952     1  0.0000000  1.6024720  3
   3948   3951   3952   3953     1  180.0000771  0.8368000  1
   3948   3951   3952   3953     1  180.0000771  1.0460000  2
   3948   3951   3952   3953     1  0.0000000  0.7531200  3
   3948   3951   3952   3958     1  0.0000000  0.6508444  3
   3948   3947   3961   3967     1  0.0000000  0.6508444  3
   3948   3947   3969   3953     1  180.0000771  0.4184000  2
   3948   3947   3969   3953     1  0.0000000  1.6024720  3
   3951   3952   3953   3957     1  0.0000000  0.6508444  3
   3951   3952   3953   3969     1  0.0000000  0.6508444  3
   3951   3948   3947   3961     1  180.0000771  0.8368000  1
   3951   3948   3947   3961     1  180.0000771  1.0460000  2
   3951   3948   3947   3961     1  0.0000000  0.7531200  3
   3951   3948   3947   3969     1  0.0000000  0.6508444  3
   3952   3951   3948   3960     1  0.0000000  0.6508444  3
   3953   3969   3947   3961     1  180.0000771  0.4184000  2
   3953   3969   3947   3961     1  0.0000000  1.6024720  3
   3953   3952   3951   3959     1  0.0000000  0.6508444  3
   3957   3953   3952   3958     1  0.0000000  4.9162000  2
   3957   3953   3952   3958     1  0.0000000  0.6024960  3
   3958   3952   3953   3969     1  0.0000000  4.9162000  2
   3958   3952   3953   3969     1  0.0000000  0.6024960  3
   3958   3952   3951   3959     1  0.0000000  4.9162000  2
   3958   3952   3951   3959     1  0.0000000  0.6024960  3
   3959   3951   3948   3960     1  0.0000000  4.9162000  2
   3959   3951   3948   3960     1  0.0000000  0.6024960  3
   3960   3948   3947   3961     1  0.0000000  0.6508444  3
   3960   3948   3947   3969     1  0.0000000  4.9162000  2
   3960   3948   3947   3969     1  0.0000000  0.6024960  3
   3967   3961   3947   3969     1  0.0000000  4.9162000  2
   3967   3961   3947   3969     1  0.0000000  0.6024960  3
   3970   3971   3974   3975     1  180.0000771  0.8368000  1
   3970   3971   3974   3975     1  180.0000771  1.0460000  2
   3970   3971   3974   3975     1  0.0000000  0.7531200  3
   3970   3971   3974   3982     1  0.0000000  0.6508444  3
   3970   3992   3976   3975     1  180.0000771  0.4184000  2
   3970   3992   3976   3975     1  0.0000000  1.6024720  3
   3970   3992   3976   3980     1  180.0000771  5.6484000  1
   3970   3992   3976   3980     1  180.0000771  3.5564000  2
   3970   3992   3976   3980     1  0.0000000  0.4184000  3
   3971   3970   3984   3990     1  0.0000000  0.6508444  3
   3971   3970   3992   3976     1  180.0000771  0.4184000  2
   3971   3970   3992   3976     1  0.0000000  1.6024720  3
   3971   3974   3975   3976     1  180.0000771  0.8368000  1
   3971   3974   3975   3976     1  180.0000771  1.0460000  2
   3971   3974   3975   3976     1  0.0000000  0.7531200  3
   3971   3974   3975   3981     1  0.0000000  0.6508444  3
   3974   3971   3970   3984     1  180.0000771  0.8368000  1
   3974   3971   3970   3984     1  180.0000771  1.0460000  2
   3974   3971   3970   3984     1  0.0000000  0.7531200  3
   3974   3971   3970   3992     1  0.0000000  0.6508444  3
   3974   3975   3976   3980     1  0.0000000  0.6508444  3
   3974   3975   3976   3992     1  0.0000000  0.6508444  3
   3975   3974   3971   3983     1  0.0000000  0.6508444  3
   3976   3975   3974   3982     1  0.0000000  0.6508444  3
   3976   3992   3970   3984     1  180.0000771  0.4184000  2
   3976   3992   3970   3984     1  0.0000000  1.6024720  3
   3980   3976   3975   3981     1  0.0000000  4.9162000  2
   3980   3976   3975   3981     1  0.0000000  0.6024960  3
   3981   3975   3974   3982     1  0.0000000  4.9162000  2
   3981   3975   3974   3982     1  0.0000000  0.6024960  3
   3981   3975   3976   3992     1  0.0000000  4.9162000  2
   3981   3975   3976   3992     1  0.0000000  0.6024960  3
   3982   3974   3971   3983     1  0.0000000  4.9162000  2
   3982   3974   3971   3983     1  0.0000000  0.6024960  3
   3983   3971   3970   3984     1  0.0000000  0.6508444  3
   3983   3971   3970   3992     1  0.0000000  4.9162000  2
   3983   3971   3970   3992     1  0.0000000  0.6024960  3
   3990   3984   3970   3992     1  0.0000000  4.9162000  2
   3990   3984   3970   3992     1  0.0000000  0.6024960  3
   3993   3994   3997   3998     1  180.0000771  0.8368000  1
   3993   3994   3997   3998     1  180.0000771  1.0460000  2
   3993   3994   3997   3998     1  0.0000000  0.7531200  3
   3993   3994   3997   4005     1  0.0000000  0.6508444  3
   3993   4015   3999   4003     1  180.0000771  5.6484000  1
   3993   4015   3999   4003     1  180.0000771  3.5564000  2
   3993   4015   3999   4003     1  0.0000000  0.4184000  3
   3993   4015   3999   3998     1  180.0000771  0.4184000  2
   3993   4015   3999   3998     1  0.0000000  1.6024720  3
   3994   3997   3998   3999     1  180.0000771  0.8368000  1
   3994   3997   3998   3999     1  180.0000771  1.0460000  2
   3994   3997   3998   3999     1  0.0000000  0.7531200  3
   3994   3997   3998   4004     1  0.0000000  0.6508444  3
   3994   3993   4007   4013     1  0.0000000  0.6508444  3
   3994   3993   4015   3999     1  180.0000771  0.4184000  2
   3994   3993   4015   3999     1  0.0000000  1.6024720  3
   3997   3998   3999   4003     1  0.0000000  0.6508444  3
   3997   3998   3999   4015     1  0.0000000  0.6508444  3
   3997   3994   3993   4007     1  180.0000771  0.8368000  1
   3997   3994   3993   4007     1  180.0000771  1.0460000  2
   3997   3994   3993   4007     1  0.0000000  0.7531200  3
   3997   3994   3993   4015     1  0.0000000  0.6508444  3
   3998   3997   3994   4006     1  0.0000000  0.6508444  3
   3999   4015   3993   4007     1  180.0000771  0.4184000  2
   3999   4015   3993   4007     1  0.0000000  1.6024720  3
   3999   3998   3997   4005     1  0.0000000  0.6508444  3
   4003   3999   3998   4004     1  0.0000000  4.9162000  2
   4003   3999   3998   4004     1  0.0000000  0.6024960  3
   4004   3998   3999   4015     1  0.0000000  4.9162000  2
   4004   3998   3999   4015     1  0.0000000  0.6024960  3
   4004   3998   3997   4005     1  0.0000000  4.9162000  2
   4004   3998   3997   4005     1  0.0000000  0.6024960  3
   4005   3997   3994   4006     1  0.0000000  4.9162000  2
   4005   3997   3994   4006     1  0.0000000  0.6024960  3
   4006   3994   3993   4007     1  0.0000000  0.6508444  3
   4006   3994   3993   4015     1  0.0000000  4.9162000  2
   4006   3994   3993   4015     1  0.0000000  0.6024960  3
   4013   4007   3993   4015     1  0.0000000  4.9162000  2
   4013   4007   3993   4015     1  0.0000000  0.6024960  3
   4016   4017   4020   4021     1  180.0000771  0.8368000  1
   4016   4017   4020   4021     1  180.0000771  1.0460000  2
   4016   4017   4020   4021     1  0.0000000  0.7531200  3
   4016   4017   4020   4028     1  0.0000000  0.6508444  3
   4016   4038   4022   4021     1  180.0000771  0.4184000  2
   4016   4038   4022   4021     1  0.0000000  1.6024720  3
   4016   4038   4022   4026     1  180.0000771  5.6484000  1
   4016   4038   4022   4026     1  180.0000771  3.5564000  2
   4016   4038   4022   4026     1  0.0000000  0.4184000  3
   4017   4016   4030   4036     1  0.0000000  0.6508444  3
   4017   4016   4038   4022     1  180.0000771  0.4184000  2
   4017   4016   4038   4022     1  0.0000000  1.6024720  3
   4017   4020   4021   4022     1  180.0000771  0.8368000  1
   4017   4020   4021   4022     1  180.0000771  1.0460000  2
   4017   4020   4021   4022     1  0.0000000  0.7531200  3
   4017   4020   4021   4027     1  0.0000000  0.6508444  3
   4020   4017   4016   4030     1  180.0000771  0.8368000  1
   4020   4017   4016   4030     1  180.0000771  1.0460000  2
   4020   4017   4016   4030     1  0.0000000  0.7531200  3
   4020   4017   4016   4038     1  0.0000000  0.6508444  3
   4020   4021   4022   4026     1  0.0000000  0.6508444  3
   4020   4021   4022   4038     1  0.0000000  0.6508444  3
   4021   4020   4017   4029     1  0.0000000  0.6508444  3
   4022   4021   4020   4028     1  0.0000000  0.6508444  3
   4022   4038   4016   4030     1  180.0000771  0.4184000  2
   4022   4038   4016   4030     1  0.0000000  1.6024720  3
   4026   4022   4021   4027     1  0.0000000  4.9162000  2
   4026   4022   4021   4027     1  0.0000000  0.6024960  3
   4027   4021   4020   4028     1  0.0000000  4.9162000  2
   4027   4021   4020   4028     1  0.0000000  0.6024960  3
   4027   4021   4022   4038     1  0.0000000  4.9162000  2
   4027   4021   4022   4038     1  0.0000000  0.6024960  3
   4028   4020   4017   4029     1  0.0000000  4.9162000  2
   4028   4020   4017   4029     1  0.0000000  0.6024960  3
   4029   4017   4016   4030     1  0.0000000  0.6508444  3
   4029   4017   4016   4038     1  0.0000000  4.9162000  2
   4029   4017   4016   4038     1  0.0000000  0.6024960  3
   4036   4030   4016   4038     1  0.0000000  4.9162000  2
   4036   4030   4016   4038     1  0.0000000  0.6024960  3
   4039   4040   4043   4044     1  180.0000771  0.8368000  1
   4039   4040   4043   4044     1  180.0000771  1.0460000  2
   4039   4040   4043   4044     1  0.0000000  0.7531200  3
   4039   4040   4043   4051     1  0.0000000  0.6508444  3
   4039   4061   4045   4049     1  180.0000771  5.6484000  1
   4039   4061   4045   4049     1  180.0000771  3.5564000  2
   4039   4061   4045   4049     1  0.0000000  0.4184000  3
   4039   4061   4045   4044     1  180.0000771  0.4184000  2
   4039   4061   4045   4044     1  0.0000000  1.6024720  3
   4040   4043   4044   4045     1  180.0000771  0.8368000  1
   4040   4043   4044   4045     1  180.0000771  1.0460000  2
   4040   4043   4044   4045     1  0.0000000  0.7531200  3
   4040   4043   4044   4050     1  0.0000000  0.6508444  3
   4040   4039   4053   4059     1  0.0000000  0.6508444  3
   4040   4039   4061   4045     1  180.0000771  0.4184000  2
   4040   4039   4061   4045     1  0.0000000  1.6024720  3
   4043   4044   4045   4049     1  0.0000000  0.6508444  3
   4043   4044   4045   4061     1  0.0000000  0.6508444  3
   4043   4040   4039   4053     1  180.0000771  0.8368000  1
   4043   4040   4039   4053     1  180.0000771  1.0460000  2
   4043   4040   4039   4053     1  0.0000000  0.7531200  3
   4043   4040   4039   4061     1  0.0000000  0.6508444  3
   4044   4043   4040   4052     1  0.0000000  0.6508444  3
   4045   4061   4039   4053     1  180.0000771  0.4184000  2
   4045   4061   4039   4053     1  0.0000000  1.6024720  3
   4045   4044   4043   4051     1  0.0000000  0.6508444  3
   4049   4045   4044   4050     1  0.0000000  4.9162000  2
   4049   4045   4044   4050     1  0.0000000  0.6024960  3
   4050   4044   4045   4061     1  0.0000000  4.9162000  2
   4050   4044   4045   4061     1  0.0000000  0.6024960  3
   4050   4044   4043   4051     1  0.0000000  4.9162000  2
   4050   4044   4043   4051     1  0.0000000  0.6024960  3
   4051   4043   4040   4052     1  0.0000000  4.9162000  2
   4051   4043   4040   4052     1  0.0000000  0.6024960  3
   4052   4040   4039   4053     1  0.0000000  0.6508444  3
   4052   4040   4039   4061     1  0.0000000  4.9162000  2
   4052   4040   4039   4061     1  0.0000000  0.6024960  3
   4059   4053   4039   4061     1  0.0000000  4.9162000  2
   4059   4053   4039   4061     1  0.0000000  0.6024960  3
   4062   4063   4066   4067     1  180.0000771  0.8368000  1
   4062   4063   4066   4067     1  180.0000771  1.0460000  2
   4062   4063   4066   4067     1  0.0000000  0.7531200  3
   4062   4063   4066   4074     1  0.0000000  0.6508444  3
   4062   4084   4068   4067     1  180.0000771  0.4184000  2
   4062   4084   4068   4067     1  0.0000000  1.6024720  3
   4062   4084   4068   4072     1  180.0000771  5.6484000  1
   4062   4084   4068   4072     1  180.0000771  3.5564000  2
   4062   4084   4068   4072     1  0.0000000  0.4184000  3
   4063   4062   4076   4082     1  0.0000000  0.6508444  3
   4063   4062   4084   4068     1  180.0000771  0.4184000  2
   4063   4062   4084   4068     1  0.0000000  1.6024720  3
   4063   4066   4067   4068     1  180.0000771  0.8368000  1
   4063   4066   4067   4068     1  180.0000771  1.0460000  2
   4063   4066   4067   4068     1  0.0000000  0.7531200  3
   4063   4066   4067   4073     1  0.0000000  0.6508444  3
   4066   4063   4062   4076     1  180.0000771  0.8368000  1
   4066   4063   4062   4076     1  180.0000771  1.0460000  2
   4066   4063   4062   4076     1  0.0000000  0.7531200  3
   4066   4063   4062   4084     1  0.0000000  0.6508444  3
   4066   4067   4068   4072     1  0.0000000  0.6508444  3
   4066   4067   4068   4084     1  0.0000000  0.6508444  3
   4067   4066   4063   4075     1  0.0000000  0.6508444  3
   4068   4067   4066   4074     1  0.0000000  0.6508444  3
   4068   4084   4062   4076     1  180.0000771  0.4184000  2
   4068   4084   4062   4076     1  0.0000000  1.6024720  3
   4072   4068   4067   4073     1  0.0000000  4.9162000  2
   4072   4068   4067   4073     1  0.0000000  0.6024960  3
   4073   4067   4066   4074     1  0.0000000  4.9162000  2
   4073   4067   4066   4074     1  0.0000000  0.6024960  3
   4073   4067   4068   4084     1  0.0000000  4.9162000  2
   4073   4067   4068   4084     1  0.0000000  0.6024960  3
   4074   4066   4063   4075     1  0.0000000  4.9162000  2
   4074   4066   4063   4075     1  0.0000000  0.6024960  3
   4075   4063   4062   4076     1  0.0000000  0.6508444  3
   4075   4063   4062   4084     1  0.0000000  4.9162000  2
   4075   4063   4062   4084     1  0.0000000  0.6024960  3
   4082   4076   4062   4084     1  0.0000000  4.9162000  2
   4082   4076   4062   4084     1  0.0000000  0.6024960  3
   4085   4086   4089   4090     1  180.0000771  0.8368000  1
   4085   4086   4089   4090     1  180.0000771  1.0460000  2
   4085   4086   4089   4090     1  0.0000000  0.7531200  3
   4085   4086   4089   4097     1  0.0000000  0.6508444  3
   4085   4107   4091   4095     1  180.0000771  5.6484000  1
   4085   4107   4091   4095     1  180.0000771  3.5564000  2
   4085   4107   4091   4095     1  0.0000000  0.4184000  3
   4085   4107   4091   4090     1  180.0000771  0.4184000  2
   4085   4107   4091   4090     1  0.0000000  1.6024720  3
   4086   4089   4090   4091     1  180.0000771  0.8368000  1
   4086   4089   4090   4091     1  180.0000771  1.0460000  2
   4086   4089   4090   4091     1  0.0000000  0.7531200  3
   4086   4089   4090   4096     1  0.0000000  0.6508444  3
   4086   4085   4099   4105     1  0.0000000  0.6508444  3
   4086   4085   4107   4091     1  180.0000771  0.4184000  2
   4086   4085   4107   4091     1  0.0000000  1.6024720  3
   4089   4090   4091   4095     1  0.0000000  0.6508444  3
   4089   4090   4091   4107     1  0.0000000  0.6508444  3
   4089   4086   4085   4099     1  180.0000771  0.8368000  1
   4089   4086   4085   4099     1  180.0000771  1.0460000  2
   4089   4086   4085   4099     1  0.0000000  0.7531200  3
   4089   4086   4085   4107     1  0.0000000  0.6508444  3
   4090   4089   4086   4098     1  0.0000000  0.6508444  3
   4091   4107   4085   4099     1  180.0000771  0.4184000  2
   4091   4107   4085   4099     1  0.0000000  1.6024720  3
   4091   4090   4089   4097     1  0.0000000  0.6508444  3
   4095   4091   4090   4096     1  0.0000000  4.9162000  2
   4095   4091   4090   4096     1  0.0000000  0.6024960  3
   4096   4090   4091   4107     1  0.0000000  4.9162000  2
   4096   4090   4091   4107     1  0.0000000  0.6024960  3
   4096   4090   4089   4097     1  0.0000000  4.9162000  2
   4096   4090   4089   4097     1  0.0000000  0.6024960  3
   4097   4089   4086   4098     1  0.0000000  4.9162000  2
   4097   4089   4086   4098     1  0.0000000  0.6024960  3
   4098   4086   4085   4099     1  0.0000000  0.6508444  3
   4098   4086   4085   4107     1  0.0000000  4.9162000  2
   4098   4086   4085   4107     1  0.0000000  0.6024960  3
   4105   4099   4085   4107     1  0.0000000  4.9162000  2
   4105   4099   4085   4107     1  0.0000000  0.6024960  3
   4108   4109   4112   4113     1  180.0000771  0.8368000  1
   4108   4109   4112   4113     1  180.0000771  1.0460000  2
   4108   4109   4112   4113     1  0.0000000  0.7531200  3
   4108   4109   4112   4120     1  0.0000000  0.6508444  3
   4108   4130   4114   4113     1  180.0000771  0.4184000  2
   4108   4130   4114   4113     1  0.0000000  1.6024720  3
   4108   4130   4114   4118     1  180.0000771  5.6484000  1
   4108   4130   4114   4118     1  180.0000771  3.5564000  2
   4108   4130   4114   4118     1  0.0000000  0.4184000  3
   4109   4108   4122   4128     1  0.0000000  0.6508444  3
   4109   4108   4130   4114     1  180.0000771  0.4184000  2
   4109   4108   4130   4114     1  0.0000000  1.6024720  3
   4109   4112   4113   4114     1  180.0000771  0.8368000  1
   4109   4112   4113   4114     1  180.0000771  1.0460000  2
   4109   4112   4113   4114     1  0.0000000  0.7531200  3
   4109   4112   4113   4119     1  0.0000000  0.6508444  3
   4112   4109   4108   4122     1  180.0000771  0.8368000  1
   4112   4109   4108   4122     1  180.0000771  1.0460000  2
   4112   4109   4108   4122     1  0.0000000  0.7531200  3
   4112   4109   4108   4130     1  0.0000000  0.6508444  3
   4112   4113   4114   4118     1  0.0000000  0.6508444  3
   4112   4113   4114   4130     1  0.0000000  0.6508444  3
   4113   4112   4109   4121     1  0.0000000  0.6508444  3
   4114   4113   4112   4120     1  0.0000000  0.6508444  3
   4114   4130   4108   4122     1  180.0000771  0.4184000  2
   4114   4130   4108   4122     1  0.0000000  1.6024720  3
   4118   4114   4113   4119     1  0.0000000  4.9162000  2
   4118   4114   4113   4119     1  0.0000000  0.6024960  3
   4119   4113   4112   4120     1  0.0000000  4.9162000  2
   4119   4113   4112   4120     1  0.0000000  0.6024960  3
   4119   4113   4114   4130     1  0.0000000  4.9162000  2
   4119   4113   4114   4130     1  0.0000000  0.6024960  3
   4120   4112   4109   4121     1  0.0000000  4.9162000  2
   4120   4112   4109   4121     1  0.0000000  0.6024960  3
   4121   4109   4108   4122     1  0.0000000  0.6508444  3
   4121   4109   4108   4130     1  0.0000000  4.9162000  2
   4121   4109   4108   4130     1  0.0000000  0.6024960  3
   4128   4122   4108   4130     1  0.0000000  4.9162000  2
   4128   4122   4108   4130     1  0.0000000  0.6024960  3
   4131   4132   4135   4136     1  180.0000771  0.8368000  1
   4131   4132   4135   4136     1  180.0000771  1.0460000  2
   4131   4132   4135   4136     1  0.0000000  0.7531200  3
   4131   4132   4135   4143     1  0.0000000  0.6508444  3
   4131   4153   4137   4141     1  180.0000771  5.6484000  1
   4131   4153   4137   4141     1  180.0000771  3.5564000  2
   4131   4153   4137   4141     1  0.0000000  0.4184000  3
   4131   4153   4137   4136     1  180.0000771  0.4184000  2
   4131   4153   4137   4136     1  0.0000000  1.6024720  3
   4132   4135   4136   4137     1  180.0000771  0.8368000  1
   4132   4135   4136   4137     1  180.0000771  1.0460000  2
   4132   4135   4136   4137     1  0.0000000  0.7531200  3
   4132   4135   4136   4142     1  0.0000000  0.6508444  3
   4132   4131   4145   4151     1  0.0000000  0.6508444  3
   4132   4131   4153   4137     1  180.0000771  0.4184000  2
   4132   4131   4153   4137     1  0.0000000  1.6024720  3
   4135   4136   4137   4141     1  0.0000000  0.6508444  3
   4135   4136   4137   4153     1  0.0000000  0.6508444  3
   4135   4132   4131   4145     1  180.0000771  0.8368000  1
   4135   4132   4131   4145     1  180.0000771  1.0460000  2
   4135   4132   4131   4145     1  0.0000000  0.7531200  3
   4135   4132   4131   4153     1  0.0000000  0.6508444  3
   4136   4135   4132   4144     1  0.0000000  0.6508444  3
   4137   4153   4131   4145     1  180.0000771  0.4184000  2
   4137   4153   4131   4145     1  0.0000000  1.6024720  3
   4137   4136   4135   4143     1  0.0000000  0.6508444  3
   4141   4137   4136   4142     1  0.0000000  4.9162000  2
   4141   4137   4136   4142     1  0.0000000  0.6024960  3
   4142   4136   4137   4153     1  0.0000000  4.9162000  2
   4142   4136   4137   4153     1  0.0000000  0.6024960  3
   4142   4136   4135   4143     1  0.0000000  4.9162000  2
   4142   4136   4135   4143     1  0.0000000  0.6024960  3
   4143   4135   4132   4144     1  0.0000000  4.9162000  2
   4143   4135   4132   4144     1  0.0000000  0.6024960  3
   4144   4132   4131   4145     1  0.0000000  0.6508444  3
   4144   4132   4131   4153     1  0.0000000  4.9162000  2
   4144   4132   4131   4153     1  0.0000000  0.6024960  3
   4151   4145   4131   4153     1  0.0000000  4.9162000  2
   4151   4145   4131   4153     1  0.0000000  0.6024960  3
   4154   4155   4158   4159     1  180.0000771  0.8368000  1
   4154   4155   4158   4159     1  180.0000771  1.0460000  2
   4154   4155   4158   4159     1  0.0000000  0.7531200  3
   4154   4155   4158   4166     1  0.0000000  0.6508444  3
   4154   4176   4160   4159     1  180.0000771  0.4184000  2
   4154   4176   4160   4159     1  0.0000000  1.6024720  3
   4154   4176   4160   4164     1  180.0000771  5.6484000  1
   4154   4176   4160   4164     1  180.0000771  3.5564000  2
   4154   4176   4160   4164     1  0.0000000  0.4184000  3
   4155   4154   4168   4174     1  0.0000000  0.6508444  3
   4155   4154   4176   4160     1  180.0000771  0.4184000  2
   4155   4154   4176   4160     1  0.0000000  1.6024720  3
   4155   4158   4159   4160     1  180.0000771  0.8368000  1
   4155   4158   4159   4160     1  180.0000771  1.0460000  2
   4155   4158   4159   4160     1  0.0000000  0.7531200  3
   4155   4158   4159   4165     1  0.0000000  0.6508444  3
   4158   4155   4154   4168     1  180.0000771  0.8368000  1
   4158   4155   4154   4168     1  180.0000771  1.0460000  2
   4158   4155   4154   4168     1  0.0000000  0.7531200  3
   4158   4155   4154   4176     1  0.0000000  0.6508444  3
   4158   4159   4160   4164     1  0.0000000  0.6508444  3
   4158   4159   4160   4176     1  0.0000000  0.6508444  3
   4159   4158   4155   4167     1  0.0000000  0.6508444  3
   4160   4159   4158   4166     1  0.0000000  0.6508444  3
   4160   4176   4154   4168     1  180.0000771  0.4184000  2
   4160   4176   4154   4168     1  0.0000000  1.6024720  3
   4164   4160   4159   4165     1  0.0000000  4.9162000  2
   4164   4160   4159   4165     1  0.0000000  0.6024960  3
   4165   4159   4158   4166     1  0.0000000  4.9162000  2
   4165   4159   4158   4166     1  0.0000000  0.6024960  3
   4165   4159   4160   4176     1  0.0000000  4.9162000  2
   4165   4159   4160   4176     1  0.0000000  0.6024960  3
   4166   4158   4155   4167     1  0.0000000  4.9162000  2
   4166   4158   4155   4167     1  0.0000000  0.6024960  3
   4167   4155   4154   4168     1  0.0000000  0.6508444  3
   4167   4155   4154   4176     1  0.0000000  4.9162000  2
   4167   4155   4154   4176     1  0.0000000  0.6024960  3
   4174   4168   4154   4176     1  0.0000000  4.9162000  2
   4174   4168   4154   4176     1  0.0000000  0.6024960  3
   4177   4178   4181   4182     1  180.0000771  0.8368000  1
   4177   4178   4181   4182     1  180.0000771  1.0460000  2
   4177   4178   4181   4182     1  0.0000000  0.7531200  3
   4177   4178   4181   4189     1  0.0000000  0.6508444  3
   4177   4199   4183   4187     1  180.0000771  5.6484000  1
   4177   4199   4183   4187     1  180.0000771  3.5564000  2
   4177   4199   4183   4187     1  0.0000000  0.4184000  3
   4177   4199   4183   4182     1  180.0000771  0.4184000  2
   4177   4199   4183   4182     1  0.0000000  1.6024720  3
   4178   4181   4182   4183     1  180.0000771  0.8368000  1
   4178   4181   4182   4183     1  180.0000771  1.0460000  2
   4178   4181   4182   4183     1  0.0000000  0.7531200  3
   4178   4181   4182   4188     1  0.0000000  0.6508444  3
   4178   4177   4191   4197     1  0.0000000  0.6508444  3
   4178   4177   4199   4183     1  180.0000771  0.4184000  2
   4178   4177   4199   4183     1  0.0000000  1.6024720  3
   4181   4182   4183   4187     1  0.0000000  0.6508444  3
   4181   4182   4183   4199     1  0.0000000  0.6508444  3
   4181   4178   4177   4191     1  180.0000771  0.8368000  1
   4181   4178   4177   4191     1  180.0000771  1.0460000  2
   4181   4178   4177   4191     1  0.0000000  0.7531200  3
   4181   4178   4177   4199     1  0.0000000  0.6508444  3
   4182   4181   4178   4190     1  0.0000000  0.6508444  3
   4183   4199   4177   4191     1  180.0000771  0.4184000  2
   4183   4199   4177   4191     1  0.0000000  1.6024720  3
   4183   4182   4181   4189     1  0.0000000  0.6508444  3
   4187   4183   4182   4188     1  0.0000000  4.9162000  2
   4187   4183   4182   4188     1  0.0000000  0.6024960  3
   4188   4182   4183   4199     1  0.0000000  4.9162000  2
   4188   4182   4183   4199     1  0.0000000  0.6024960  3
   4188   4182   4181   4189     1  0.0000000  4.9162000  2
   4188   4182   4181   4189     1  0.0000000  0.6024960  3
   4189   4181   4178   4190     1  0.0000000  4.9162000  2
   4189   4181   4178   4190     1  0.0000000  0.6024960  3
   4190   4178   4177   4191     1  0.0000000  0.6508444  3
   4190   4178   4177   4199     1  0.0000000  4.9162000  2
   4190   4178   4177   4199     1  0.0000000  0.6024960  3
   4197   4191   4177   4199     1  0.0000000  4.9162000  2
   4197   4191   4177   4199     1  0.0000000  0.6024960  3
   4200   4201   4204   4205     1  180.0000771  0.8368000  1
   4200   4201   4204   4205     1  180.0000771  1.0460000  2
   4200   4201   4204   4205     1  0.0000000  0.7531200  3
   4200   4201   4204   4212     1  0.0000000  0.6508444  3
   4200   4222   4206   4205     1  180.0000771  0.4184000  2
   4200   4222   4206   4205     1  0.0000000  1.6024720  3
   4200   4222   4206   4210     1  180.0000771  5.6484000  1
   4200   4222   4206   4210     1  180.0000771  3.5564000  2
   4200   4222   4206   4210     1  0.0000000  0.4184000  3
   4201   4200   4214   4220     1  0.0000000  0.6508444  3
   4201   4200   4222   4206     1  180.0000771  0.4184000  2
   4201   4200   4222   4206     1  0.0000000  1.6024720  3
   4201   4204   4205   4206     1  180.0000771  0.8368000  1
   4201   4204   4205   4206     1  180.0000771  1.0460000  2
   4201   4204   4205   4206     1  0.0000000  0.7531200  3
   4201   4204   4205   4211     1  0.0000000  0.6508444  3
   4204   4201   4200   4214     1  180.0000771  0.8368000  1
   4204   4201   4200   4214     1  180.0000771  1.0460000  2
   4204   4201   4200   4214     1  0.0000000  0.7531200  3
   4204   4201   4200   4222     1  0.0000000  0.6508444  3
   4204   4205   4206   4210     1  0.0000000  0.6508444  3
   4204   4205   4206   4222     1  0.0000000  0.6508444  3
   4205   4204   4201   4213     1  0.0000000  0.6508444  3
   4206   4205   4204   4212     1  0.0000000  0.6508444  3
   4206   4222   4200   4214     1  180.0000771  0.4184000  2
   4206   4222   4200   4214     1  0.0000000  1.6024720  3
   4210   4206   4205   4211     1  0.0000000  4.9162000  2
   4210   4206   4205   4211     1  0.0000000  0.6024960  3
   4211   4205   4204   4212     1  0.0000000  4.9162000  2
   4211   4205   4204   4212     1  0.0000000  0.6024960  3
   4211   4205   4206   4222     1  0.0000000  4.9162000  2
   4211   4205   4206   4222     1  0.0000000  0.6024960  3
   4212   4204   4201   4213     1  0.0000000  4.9162000  2
   4212   4204   4201   4213     1  0.0000000  0.6024960  3
   4213   4201   4200   4214     1  0.0000000  0.6508444  3
   4213   4201   4200   4222     1  0.0000000  4.9162000  2
   4213   4201   4200   4222     1  0.0000000  0.6024960  3
   4220   4214   4200   4222     1  0.0000000  4.9162000  2
   4220   4214   4200   4222     1  0.0000000  0.6024960  3
   4223   4224   4227   4228     1  180.0000771  0.8368000  1
   4223   4224   4227   4228     1  180.0000771  1.0460000  2
   4223   4224   4227   4228     1  0.0000000  0.7531200  3
   4223   4224   4227   4235     1  0.0000000  0.6508444  3
   4223   4245   4229   4233     1  180.0000771  5.6484000  1
   4223   4245   4229   4233     1  180.0000771  3.5564000  2
   4223   4245   4229   4233     1  0.0000000  0.4184000  3
   4223   4245   4229   4228     1  180.0000771  0.4184000  2
   4223   4245   4229   4228     1  0.0000000  1.6024720  3
   4224   4227   4228   4229     1  180.0000771  0.8368000  1
   4224   4227   4228   4229     1  180.0000771  1.0460000  2
   4224   4227   4228   4229     1  0.0000000  0.7531200  3
   4224   4227   4228   4234     1  0.0000000  0.6508444  3
   4224   4223   4237   4243     1  0.0000000  0.6508444  3
   4224   4223   4245   4229     1  180.0000771  0.4184000  2
   4224   4223   4245   4229     1  0.0000000  1.6024720  3
   4227   4228   4229   4233     1  0.0000000  0.6508444  3
   4227   4228   4229   4245     1  0.0000000  0.6508444  3
   4227   4224   4223   4237     1  180.0000771  0.8368000  1
   4227   4224   4223   4237     1  180.0000771  1.0460000  2
   4227   4224   4223   4237     1  0.0000000  0.7531200  3
   4227   4224   4223   4245     1  0.0000000  0.6508444  3
   4228   4227   4224   4236     1  0.0000000  0.6508444  3
   4229   4245   4223   4237     1  180.0000771  0.4184000  2
   4229   4245   4223   4237     1  0.0000000  1.6024720  3
   4229   4228   4227   4235     1  0.0000000  0.6508444  3
   4233   4229   4228   4234     1  0.0000000  4.9162000  2
   4233   4229   4228   4234     1  0.0000000  0.6024960  3
   4234   4228   4229   4245     1  0.0000000  4.9162000  2
   4234   4228   4229   4245     1  0.0000000  0.6024960  3
   4234   4228   4227   4235     1  0.0000000  4.9162000  2
   4234   4228   4227   4235     1  0.0000000  0.6024960  3
   4235   4227   4224   4236     1  0.0000000  4.9162000  2
   4235   4227   4224   4236     1  0.0000000  0.6024960  3
   4236   4224   4223   4237     1  0.0000000  0.6508444  3
   4236   4224   4223   4245     1  0.0000000  4.9162000  2
   4236   4224   4223   4245     1  0.0000000  0.6024960  3
   4243   4237   4223   4245     1  0.0000000  4.9162000  2
   4243   4237   4223   4245     1  0.0000000  0.6024960  3
   4246   4247   4250   4251     1  180.0000771  0.8368000  1
   4246   4247   4250   4251     1  180.0000771  1.0460000  2
   4246   4247   4250   4251     1  0.0000000  0.7531200  3
   4246   4247   4250   4258     1  0.0000000  0.6508444  3
   4246   4268   4252   4251     1  180.0000771  0.4184000  2
   4246   4268   4252   4251     1  0.0000000  1.6024720  3
   4246   4268   4252   4256     1  180.0000771  5.6484000  1
   4246   4268   4252   4256     1  180.0000771  3.5564000  2
   4246   4268   4252   4256     1  0.0000000  0.4184000  3
   4247   4246   4260   4266     1  0.0000000  0.6508444  3
   4247   4246   4268   4252     1  180.0000771  0.4184000  2
   4247   4246   4268   4252     1  0.0000000  1.6024720  3
   4247   4250   4251   4252     1  180.0000771  0.8368000  1
   4247   4250   4251   4252     1  180.0000771  1.0460000  2
   4247   4250   4251   4252     1  0.0000000  0.7531200  3
   4247   4250   4251   4257     1  0.0000000  0.6508444  3
   4250   4247   4246   4260     1  180.0000771  0.8368000  1
   4250   4247   4246   4260     1  180.0000771  1.0460000  2
   4250   4247   4246   4260     1  0.0000000  0.7531200  3
   4250   4247   4246   4268     1  0.0000000  0.6508444  3
   4250   4251   4252   4256     1  0.0000000  0.6508444  3
   4250   4251   4252   4268     1  0.0000000  0.6508444  3
   4251   4250   4247   4259     1  0.0000000  0.6508444  3
   4252   4251   4250   4258     1  0.0000000  0.6508444  3
   4252   4268   4246   4260     1  180.0000771  0.4184000  2
   4252   4268   4246   4260     1  0.0000000  1.6024720  3
   4256   4252   4251   4257     1  0.0000000  4.9162000  2
   4256   4252   4251   4257     1  0.0000000  0.6024960  3
   4257   4251   4250   4258     1  0.0000000  4.9162000  2
   4257   4251   4250   4258     1  0.0000000  0.6024960  3
   4257   4251   4252   4268     1  0.0000000  4.9162000  2
   4257   4251   4252   4268     1  0.0000000  0.6024960  3
   4258   4250   4247   4259     1  0.0000000  4.9162000  2
   4258   4250   4247   4259     1  0.0000000  0.6024960  3
   4259   4247   4246   4260     1  0.0000000  0.6508444  3
   4259   4247   4246   4268     1  0.0000000  4.9162000  2
   4259   4247   4246   4268     1  0.0000000  0.6024960  3
   4266   4260   4246   4268     1  0.0000000  4.9162000  2
   4266   4260   4246   4268     1  0.0000000  0.6024960  3
   4269   4270   4273   4274     1  180.0000771  0.8368000  1
   4269   4270   4273   4274     1  180.0000771  1.0460000  2
   4269   4270   4273   4274     1  0.0000000  0.7531200  3
   4269   4270   4273   4281     1  0.0000000  0.6508444  3
   4269   4291   4275   4279     1  180.0000771  5.6484000  1
   4269   4291   4275   4279     1  180.0000771  3.5564000  2
   4269   4291   4275   4279     1  0.0000000  0.4184000  3
   4269   4291   4275   4274     1  180.0000771  0.4184000  2
   4269   4291   4275   4274     1  0.0000000  1.6024720  3
   4270   4273   4274   4275     1  180.0000771  0.8368000  1
   4270   4273   4274   4275     1  180.0000771  1.0460000  2
   4270   4273   4274   4275     1  0.0000000  0.7531200  3
   4270   4273   4274   4280     1  0.0000000  0.6508444  3
   4270   4269   4283   4289     1  0.0000000  0.6508444  3
   4270   4269   4291   4275     1  180.0000771  0.4184000  2
   4270   4269   4291   4275     1  0.0000000  1.6024720  3
   4273   4274   4275   4279     1  0.0000000  0.6508444  3
   4273   4274   4275   4291     1  0.0000000  0.6508444  3
   4273   4270   4269   4283     1  180.0000771  0.8368000  1
   4273   4270   4269   4283     1  180.0000771  1.0460000  2
   4273   4270   4269   4283     1  0.0000000  0.7531200  3
   4273   4270   4269   4291     1  0.0000000  0.6508444  3
   4274   4273   4270   4282     1  0.0000000  0.6508444  3
   4275   4291   4269   4283     1  180.0000771  0.4184000  2
   4275   4291   4269   4283     1  0.0000000  1.6024720  3
   4275   4274   4273   4281     1  0.0000000  0.6508444  3
   4279   4275   4274   4280     1  0.0000000  4.9162000  2
   4279   4275   4274   4280     1  0.0000000  0.6024960  3
   4280   4274   4275   4291     1  0.0000000  4.9162000  2
   4280   4274   4275   4291     1  0.0000000  0.6024960  3
   4280   4274   4273   4281     1  0.0000000  4.9162000  2
   4280   4274   4273   4281     1  0.0000000  0.6024960  3
   4281   4273   4270   4282     1  0.0000000  4.9162000  2
   4281   4273   4270   4282     1  0.0000000  0.6024960  3
   4282   4270   4269   4283     1  0.0000000  0.6508444  3
   4282   4270   4269   4291     1  0.0000000  4.9162000  2
   4282   4270   4269   4291     1  0.0000000  0.6024960  3
   4289   4283   4269   4291     1  0.0000000  4.9162000  2
   4289   4283   4269   4291     1  0.0000000  0.6024960  3
   4292   4293   4296   4297     1  180.0000771  0.8368000  1
   4292   4293   4296   4297     1  180.0000771  1.0460000  2
   4292   4293   4296   4297     1  0.0000000  0.7531200  3
   4292   4293   4296   4304     1  0.0000000  0.6508444  3
   4292   4314   4298   4297     1  180.0000771  0.4184000  2
   4292   4314   4298   4297     1  0.0000000  1.6024720  3
   4292   4314   4298   4302     1  180.0000771  5.6484000  1
   4292   4314   4298   4302     1  180.0000771  3.5564000  2
   4292   4314   4298   4302     1  0.0000000  0.4184000  3
   4293   4292   4306   4312     1  0.0000000  0.6508444  3
   4293   4292   4314   4298     1  180.0000771  0.4184000  2
   4293   4292   4314   4298     1  0.0000000  1.6024720  3
   4293   4296   4297   4298     1  180.0000771  0.8368000  1
   4293   4296   4297   4298     1  180.0000771  1.0460000  2
   4293   4296   4297   4298     1  0.0000000  0.7531200  3
   4293   4296   4297   4303     1  0.0000000  0.6508444  3
   4296   4293   4292   4306     1  180.0000771  0.8368000  1
   4296   4293   4292   4306     1  180.0000771  1.0460000  2
   4296   4293   4292   4306     1  0.0000000  0.7531200  3
   4296   4293   4292   4314     1  0.0000000  0.6508444  3
   4296   4297   4298   4302     1  0.0000000  0.6508444  3
   4296   4297   4298   4314     1  0.0000000  0.6508444  3
   4297   4296   4293   4305     1  0.0000000  0.6508444  3
   4298   4297   4296   4304     1  0.0000000  0.6508444  3
   4298   4314   4292   4306     1  180.0000771  0.4184000  2
   4298   4314   4292   4306     1  0.0000000  1.6024720  3
   4302   4298   4297   4303     1  0.0000000  4.9162000  2
   4302   4298   4297   4303     1  0.0000000  0.6024960  3
   4303   4297   4296   4304     1  0.0000000  4.9162000  2
   4303   4297   4296   4304     1  0.0000000  0.6024960  3
   4303   4297   4298   4314     1  0.0000000  4.9162000  2
   4303   4297   4298   4314     1  0.0000000  0.6024960  3
   4304   4296   4293   4305     1  0.0000000  4.9162000  2
   4304   4296   4293   4305     1  0.0000000  0.6024960  3
   4305   4293   4292   4306     1  0.0000000  0.6508444  3
   4305   4293   4292   4314     1  0.0000000  4.9162000  2
   4305   4293   4292   4314     1  0.0000000  0.6024960  3
   4312   4306   4292   4314     1  0.0000000  4.9162000  2
   4312   4306   4292   4314     1  0.0000000  0.6024960  3
   4315   4316   4319   4320     1  180.0000771  0.8368000  1
   4315   4316   4319   4320     1  180.0000771  1.0460000  2
   4315   4316   4319   4320     1  0.0000000  0.7531200  3
   4315   4316   4319   4327     1  0.0000000  0.6508444  3
   4315   4337   4321   4325     1  180.0000771  5.6484000  1
   4315   4337   4321   4325     1  180.0000771  3.5564000  2
   4315   4337   4321   4325     1  0.0000000  0.4184000  3
   4315   4337   4321   4320     1  180.0000771  0.4184000  2
   4315   4337   4321   4320     1  0.0000000  1.6024720  3
   4316   4319   4320   4321     1  180.0000771  0.8368000  1
   4316   4319   4320   4321     1  180.0000771  1.0460000  2
   4316   4319   4320   4321     1  0.0000000  0.7531200  3
   4316   4319   4320   4326     1  0.0000000  0.6508444  3
   4316   4315   4329   4335     1  0.0000000  0.6508444  3
   4316   4315   4337   4321     1  180.0000771  0.4184000  2
   4316   4315   4337   4321     1  0.0000000  1.6024720  3
   4319   4320   4321   4325     1  0.0000000  0.6508444  3
   4319   4320   4321   4337     1  0.0000000  0.6508444  3
   4319   4316   4315   4329     1  180.0000771  0.8368000  1
   4319   4316   4315   4329     1  180.0000771  1.0460000  2
   4319   4316   4315   4329     1  0.0000000  0.7531200  3
   4319   4316   4315   4337     1  0.0000000  0.6508444  3
   4320   4319   4316   4328     1  0.0000000  0.6508444  3
   4321   4337   4315   4329     1  180.0000771  0.4184000  2
   4321   4337   4315   4329     1  0.0000000  1.6024720  3
   4321   4320   4319   4327     1  0.0000000  0.6508444  3
   4325   4321   4320   4326     1  0.0000000  4.9162000  2
   4325   4321   4320   4326     1  0.0000000  0.6024960  3
   4326   4320   4321   4337     1  0.0000000  4.9162000  2
   4326   4320   4321   4337     1  0.0000000  0.6024960  3
   4326   4320   4319   4327     1  0.0000000  4.9162000  2
   4326   4320   4319   4327     1  0.0000000  0.6024960  3
   4327   4319   4316   4328     1  0.0000000  4.9162000  2
   4327   4319   4316   4328     1  0.0000000  0.6024960  3
   4328   4316   4315   4329     1  0.0000000  0.6508444  3
   4328   4316   4315   4337     1  0.0000000  4.9162000  2
   4328   4316   4315   4337     1  0.0000000  0.6024960  3
   4335   4329   4315   4337     1  0.0000000  4.9162000  2
   4335   4329   4315   4337     1  0.0000000  0.6024960  3
   4338   4339   4342   4343     1  180.0000771  0.8368000  1
   4338   4339   4342   4343     1  180.0000771  1.0460000  2
   4338   4339   4342   4343     1  0.0000000  0.7531200  3
   4338   4339   4342   4350     1  0.0000000  0.6508444  3
   4338   4360   4344   4343     1  180.0000771  0.4184000  2
   4338   4360   4344   4343     1  0.0000000  1.6024720  3
   4338   4360   4344   4348     1  180.0000771  5.6484000  1
   4338   4360   4344   4348     1  180.0000771  3.5564000  2
   4338   4360   4344   4348     1  0.0000000  0.4184000  3
   4339   4338   4352   4358     1  0.0000000  0.6508444  3
   4339   4338   4360   4344     1  180.0000771  0.4184000  2
   4339   4338   4360   4344     1  0.0000000  1.6024720  3
   4339   4342   4343   4344     1  180.0000771  0.8368000  1
   4339   4342   4343   4344     1  180.0000771  1.0460000  2
   4339   4342   4343   4344     1  0.0000000  0.7531200  3
   4339   4342   4343   4349     1  0.0000000  0.6508444  3
   4342   4339   4338   4352     1  180.0000771  0.8368000  1
   4342   4339   4338   4352     1  180.0000771  1.0460000  2
   4342   4339   4338   4352     1  0.0000000  0.7531200  3
   4342   4339   4338   4360     1  0.0000000  0.6508444  3
   4342   4343   4344   4348     1  0.0000000  0.6508444  3
   4342   4343   4344   4360     1  0.0000000  0.6508444  3
   4343   4342   4339   4351     1  0.0000000  0.6508444  3
   4344   4343   4342   4350     1  0.0000000  0.6508444  3
   4344   4360   4338   4352     1  180.0000771  0.4184000  2
   4344   4360   4338   4352     1  0.0000000  1.6024720  3
   4348   4344   4343   4349     1  0.0000000  4.9162000  2
   4348   4344   4343   4349     1  0.0000000  0.6024960  3
   4349   4343   4342   4350     1  0.0000000  4.9162000  2
   4349   4343   4342   4350     1  0.0000000  0.6024960  3
   4349   4343   4344   4360     1  0.0000000  4.9162000  2
   4349   4343   4344   4360     1  0.0000000  0.6024960  3
   4350   4342   4339   4351     1  0.0000000  4.9162000  2
   4350   4342   4339   4351     1  0.0000000  0.6024960  3
   4351   4339   4338   4352     1  0.0000000  0.6508444  3
   4351   4339   4338   4360     1  0.0000000  4.9162000  2
   4351   4339   4338   4360     1  0.0000000  0.6024960  3
   4358   4352   4338   4360     1  0.0000000  4.9162000  2
   4358   4352   4338   4360     1  0.0000000  0.6024960  3
   4361   4362   4365   4366     1  180.0000771  0.8368000  1
   4361   4362   4365   4366     1  180.0000771  1.0460000  2
   4361   4362   4365   4366     1  0.0000000  0.7531200  3
   4361   4362   4365   4373     1  0.0000000  0.6508444  3
   4361   4383   4367   4371     1  180.0000771  5.6484000  1
   4361   4383   4367   4371     1  180.0000771  3.5564000  2
   4361   4383   4367   4371     1  0.0000000  0.4184000  3
   4361   4383   4367   4366     1  180.0000771  0.4184000  2
   4361   4383   4367   4366     1  0.0000000  1.6024720  3
   4362   4365   4366   4367     1  180.0000771  0.8368000  1
   4362   4365   4366   4367     1  180.0000771  1.0460000  2
   4362   4365   4366   4367     1  0.0000000  0.7531200  3
   4362   4365   4366   4372     1  0.0000000  0.6508444  3
   4362   4361   4375   4381     1  0.0000000  0.6508444  3
   4362   4361   4383   4367     1  180.0000771  0.4184000  2
   4362   4361   4383   4367     1  0.0000000  1.6024720  3
   4365   4366   4367   4371     1  0.0000000  0.6508444  3
   4365   4366   4367   4383     1  0.0000000  0.6508444  3
   4365   4362   4361   4375     1  180.0000771  0.8368000  1
   4365   4362   4361   4375     1  180.0000771  1.0460000  2
   4365   4362   4361   4375     1  0.0000000  0.7531200  3
   4365   4362   4361   4383     1  0.0000000  0.6508444  3
   4366   4365   4362   4374     1  0.0000000  0.6508444  3
   4367   4383   4361   4375     1  180.0000771  0.4184000  2
   4367   4383   4361   4375     1  0.0000000  1.6024720  3
   4367   4366   4365   4373     1  0.0000000  0.6508444  3
   4371   4367   4366   4372     1  0.0000000  4.9162000  2
   4371   4367   4366   4372     1  0.0000000  0.6024960  3
   4372   4366   4367   4383     1  0.0000000  4.9162000  2
   4372   4366   4367   4383     1  0.0000000  0.6024960  3
   4372   4366   4365   4373     1  0.0000000  4.9162000  2
   4372   4366   4365   4373     1  0.0000000  0.6024960  3
   4373   4365   4362   4374     1  0.0000000  4.9162000  2
   4373   4365   4362   4374     1  0.0000000  0.6024960  3
   4374   4362   4361   4375     1  0.0000000  0.6508444  3
   4374   4362   4361   4383     1  0.0000000  4.9162000  2
   4374   4362   4361   4383     1  0.0000000  0.6024960  3
   4381   4375   4361   4383     1  0.0000000  4.9162000  2
   4381   4375   4361   4383     1  0.0000000  0.6024960  3
   4384   4385   4388   4389     1  180.0000771  0.8368000  1
   4384   4385   4388   4389     1  180.0000771  1.0460000  2
   4384   4385   4388   4389     1  0.0000000  0.7531200  3
   4384   4385   4388   4396     1  0.0000000  0.6508444  3
   4384   4406   4390   4389     1  180.0000771  0.4184000  2
   4384   4406   4390   4389     1  0.0000000  1.6024720  3
   4384   4406   4390   4394     1  180.0000771  5.6484000  1
   4384   4406   4390   4394     1  180.0000771  3.5564000  2
   4384   4406   4390   4394     1  0.0000000  0.4184000  3
   4385   4384   4398   4404     1  0.0000000  0.6508444  3
   4385   4384   4406   4390     1  180.0000771  0.4184000  2
   4385   4384   4406   4390     1  0.0000000  1.6024720  3
   4385   4388   4389   4390     1  180.0000771  0.8368000  1
   4385   4388   4389   4390     1  180.0000771  1.0460000  2
   4385   4388   4389   4390     1  0.0000000  0.7531200  3
   4385   4388   4389   4395     1  0.0000000  0.6508444  3
   4388   4385   4384   4398     1  180.0000771  0.8368000  1
   4388   4385   4384   4398     1  180.0000771  1.0460000  2
   4388   4385   4384   4398     1  0.0000000  0.7531200  3
   4388   4385   4384   4406     1  0.0000000  0.6508444  3
   4388   4389   4390   4394     1  0.0000000  0.6508444  3
   4388   4389   4390   4406     1  0.0000000  0.6508444  3
   4389   4388   4385   4397     1  0.0000000  0.6508444  3
   4390   4389   4388   4396     1  0.0000000  0.6508444  3
   4390   4406   4384   4398     1  180.0000771  0.4184000  2
   4390   4406   4384   4398     1  0.0000000  1.6024720  3
   4394   4390   4389   4395     1  0.0000000  4.9162000  2
   4394   4390   4389   4395     1  0.0000000  0.6024960  3
   4395   4389   4388   4396     1  0.0000000  4.9162000  2
   4395   4389   4388   4396     1  0.0000000  0.6024960  3
   4395   4389   4390   4406     1  0.0000000  4.9162000  2
   4395   4389   4390   4406     1  0.0000000  0.6024960  3
   4396   4388   4385   4397     1  0.0000000  4.9162000  2
   4396   4388   4385   4397     1  0.0000000  0.6024960  3
   4397   4385   4384   4398     1  0.0000000  0.6508444  3
   4397   4385   4384   4406     1  0.0000000  4.9162000  2
   4397   4385   4384   4406     1  0.0000000  0.6024960  3
   4404   4398   4384   4406     1  0.0000000  4.9162000  2
   4404   4398   4384   4406     1  0.0000000  0.6024960  3
   4407   4408   4411   4412     1  180.0000771  0.8368000  1
   4407   4408   4411   4412     1  180.0000771  1.0460000  2
   4407   4408   4411   4412     1  0.0000000  0.7531200  3
   4407   4408   4411   4419     1  0.0000000  0.6508444  3
   4407   4429   4413   4417     1  180.0000771  5.6484000  1
   4407   4429   4413   4417     1  180.0000771  3.5564000  2
   4407   4429   4413   4417     1  0.0000000  0.4184000  3
   4407   4429   4413   4412     1  180.0000771  0.4184000  2
   4407   4429   4413   4412     1  0.0000000  1.6024720  3
   4408   4411   4412   4413     1  180.0000771  0.8368000  1
   4408   4411   4412   4413     1  180.0000771  1.0460000  2
   4408   4411   4412   4413     1  0.0000000  0.7531200  3
   4408   4411   4412   4418     1  0.0000000  0.6508444  3
   4408   4407   4421   4427     1  0.0000000  0.6508444  3
   4408   4407   4429   4413     1  180.0000771  0.4184000  2
   4408   4407   4429   4413     1  0.0000000  1.6024720  3
   4411   4412   4413   4417     1  0.0000000  0.6508444  3
   4411   4412   4413   4429     1  0.0000000  0.6508444  3
   4411   4408   4407   4421     1  180.0000771  0.8368000  1
   4411   4408   4407   4421     1  180.0000771  1.0460000  2
   4411   4408   4407   4421     1  0.0000000  0.7531200  3
   4411   4408   4407   4429     1  0.0000000  0.6508444  3
   4412   4411   4408   4420     1  0.0000000  0.6508444  3
   4413   4429   4407   4421     1  180.0000771  0.4184000  2
   4413   4429   4407   4421     1  0.0000000  1.6024720  3
   4413   4412   4411   4419     1  0.0000000  0.6508444  3
   4417   4413   4412   4418     1  0.0000000  4.9162000  2
   4417   4413   4412   4418     1  0.0000000  0.6024960  3
   4418   4412   4413   4429     1  0.0000000  4.9162000  2
   4418   4412   4413   4429     1  0.0000000  0.6024960  3
   4418   4412   4411   4419     1  0.0000000  4.9162000  2
   4418   4412   4411   4419     1  0.0000000  0.6024960  3
   4419   4411   4408   4420     1  0.0000000  4.9162000  2
   4419   4411   4408   4420     1  0.0000000  0.6024960  3
   4420   4408   4407   4421     1  0.0000000  0.6508444  3
   4420   4408   4407   4429     1  0.0000000  4.9162000  2
   4420   4408   4407   4429     1  0.0000000  0.6024960  3
   4427   4421   4407   4429     1  0.0000000  4.9162000  2
   4427   4421   4407   4429     1  0.0000000  0.6024960  3
   4430   4431   4434   4435     1  180.0000771  0.8368000  1
   4430   4431   4434   4435     1  180.0000771  1.0460000  2
   4430   4431   4434   4435     1  0.0000000  0.7531200  3
   4430   4431   4434   4442     1  0.0000000  0.6508444  3
   4430   4452   4436   4435     1  180.0000771  0.4184000  2
   4430   4452   4436   4435     1  0.0000000  1.6024720  3
   4430   4452   4436   4440     1  180.0000771  5.6484000  1
   4430   4452   4436   4440     1  180.0000771  3.5564000  2
   4430   4452   4436   4440     1  0.0000000  0.4184000  3
   4431   4430   4444   4450     1  0.0000000  0.6508444  3
   4431   4430   4452   4436     1  180.0000771  0.4184000  2
   4431   4430   4452   4436     1  0.0000000  1.6024720  3
   4431   4434   4435   4436     1  180.0000771  0.8368000  1
   4431   4434   4435   4436     1  180.0000771  1.0460000  2
   4431   4434   4435   4436     1  0.0000000  0.7531200  3
   4431   4434   4435   4441     1  0.0000000  0.6508444  3
   4434   4431   4430   4444     1  180.0000771  0.8368000  1
   4434   4431   4430   4444     1  180.0000771  1.0460000  2
   4434   4431   4430   4444     1  0.0000000  0.7531200  3
   4434   4431   4430   4452     1  0.0000000  0.6508444  3
   4434   4435   4436   4440     1  0.0000000  0.6508444  3
   4434   4435   4436   4452     1  0.0000000  0.6508444  3
   4435   4434   4431   4443     1  0.0000000  0.6508444  3
   4436   4435   4434   4442     1  0.0000000  0.6508444  3
   4436   4452   4430   4444     1  180.0000771  0.4184000  2
   4436   4452   4430   4444     1  0.0000000  1.6024720  3
   4440   4436   4435   4441     1  0.0000000  4.9162000  2
   4440   4436   4435   4441     1  0.0000000  0.6024960  3
   4441   4435   4434   4442     1  0.0000000  4.9162000  2
   4441   4435   4434   4442     1  0.0000000  0.6024960  3
   4441   4435   4436   4452     1  0.0000000  4.9162000  2
   4441   4435   4436   4452     1  0.0000000  0.6024960  3
   4442   4434   4431   4443     1  0.0000000  4.9162000  2
   4442   4434   4431   4443     1  0.0000000  0.6024960  3
   4443   4431   4430   4444     1  0.0000000  0.6508444  3
   4443   4431   4430   4452     1  0.0000000  4.9162000  2
   4443   4431   4430   4452     1  0.0000000  0.6024960  3
   4450   4444   4430   4452     1  0.0000000  4.9162000  2
   4450   4444   4430   4452     1  0.0000000  0.6024960  3
   4453   4454   4457   4458     1  180.0000771  0.8368000  1
   4453   4454   4457   4458     1  180.0000771  1.0460000  2
   4453   4454   4457   4458     1  0.0000000  0.7531200  3
   4453   4454   4457   4465     1  0.0000000  0.6508444  3
   4453   4475   4459   4463     1  180.0000771  5.6484000  1
   4453   4475   4459   4463     1  180.0000771  3.5564000  2
   4453   4475   4459   4463     1  0.0000000  0.4184000  3
   4453   4475   4459   4458     1  180.0000771  0.4184000  2
   4453   4475   4459   4458     1  0.0000000  1.6024720  3
   4454   4457   4458   4459     1  180.0000771  0.8368000  1
   4454   4457   4458   4459     1  180.0000771  1.0460000  2
   4454   4457   4458   4459     1  0.0000000  0.7531200  3
   4454   4457   4458   4464     1  0.0000000  0.6508444  3
   4454   4453   4467   4473     1  0.0000000  0.6508444  3
   4454   4453   4475   4459     1  180.0000771  0.4184000  2
   4454   4453   4475   4459     1  0.0000000  1.6024720  3
   4457   4458   4459   4463     1  0.0000000  0.6508444  3
   4457   4458   4459   4475     1  0.0000000  0.6508444  3
   4457   4454   4453   4467     1  180.0000771  0.8368000  1
   4457   4454   4453   4467     1  180.0000771  1.0460000  2
   4457   4454   4453   4467     1  0.0000000  0.7531200  3
   4457   4454   4453   4475     1  0.0000000  0.6508444  3
   4458   4457   4454   4466     1  0.0000000  0.6508444  3
   4459   4475   4453   4467     1  180.0000771  0.4184000  2
   4459   4475   4453   4467     1  0.0000000  1.6024720  3
   4459   4458   4457   4465     1  0.0000000  0.6508444  3
   4463   4459   4458   4464     1  0.0000000  4.9162000  2
   4463   4459   4458   4464     1  0.0000000  0.6024960  3
   4464   4458   4459   4475     1  0.0000000  4.9162000  2
   4464   4458   4459   4475     1  0.0000000  0.6024960  3
   4464   4458   4457   4465     1  0.0000000  4.9162000  2
   4464   4458   4457   4465     1  0.0000000  0.6024960  3
   4465   4457   4454   4466     1  0.0000000  4.9162000  2
   4465   4457   4454   4466     1  0.0000000  0.6024960  3
   4466   4454   4453   4467     1  0.0000000  0.6508444  3
   4466   4454   4453   4475     1  0.0000000  4.9162000  2
   4466   4454   4453   4475     1  0.0000000  0.6024960  3
   4473   4467   4453   4475     1  0.0000000  4.9162000  2
   4473   4467   4453   4475     1  0.0000000  0.6024960  3
   4476   4477   4480   4481     1  180.0000771  0.8368000  1
   4476   4477   4480   4481     1  180.0000771  1.0460000  2
   4476   4477   4480   4481     1  0.0000000  0.7531200  3
   4476   4477   4480   4488     1  0.0000000  0.6508444  3
   4476   4498   4482   4481     1  180.0000771  0.4184000  2
   4476   4498   4482   4481     1  0.0000000  1.6024720  3
   4476   4498   4482   4486     1  180.0000771  5.6484000  1
   4476   4498   4482   4486     1  180.0000771  3.5564000  2
   4476   4498   4482   4486     1  0.0000000  0.4184000  3
   4477   4476   4490   4496     1  0.0000000  0.6508444  3
   4477   4476   4498   4482     1  180.0000771  0.4184000  2
   4477   4476   4498   4482     1  0.0000000  1.6024720  3
   4477   4480   4481   4482     1  180.0000771  0.8368000  1
   4477   4480   4481   4482     1  180.0000771  1.0460000  2
   4477   4480   4481   4482     1  0.0000000  0.7531200  3
   4477   4480   4481   4487     1  0.0000000  0.6508444  3
   4480   4477   4476   4490     1  180.0000771  0.8368000  1
   4480   4477   4476   4490     1  180.0000771  1.0460000  2
   4480   4477   4476   4490     1  0.0000000  0.7531200  3
   4480   4477   4476   4498     1  0.0000000  0.6508444  3
   4480   4481   4482   4486     1  0.0000000  0.6508444  3
   4480   4481   4482   4498     1  0.0000000  0.6508444  3
   4481   4480   4477   4489     1  0.0000000  0.6508444  3
   4482   4481   4480   4488     1  0.0000000  0.6508444  3
   4482   4498   4476   4490     1  180.0000771  0.4184000  2
   4482   4498   4476   4490     1  0.0000000  1.6024720  3
   4486   4482   4481   4487     1  0.0000000  4.9162000  2
   4486   4482   4481   4487     1  0.0000000  0.6024960  3
   4487   4481   4480   4488     1  0.0000000  4.9162000  2
   4487   4481   4480   4488     1  0.0000000  0.6024960  3
   4487   4481   4482   4498     1  0.0000000  4.9162000  2
   4487   4481   4482   4498     1  0.0000000  0.6024960  3
   4488   4480   4477   4489     1  0.0000000  4.9162000  2
   4488   4480   4477   4489     1  0.0000000  0.6024960  3
   4489   4477   4476   4490     1  0.0000000  0.6508444  3
   4489   4477   4476   4498     1  0.0000000  4.9162000  2
   4489   4477   4476   4498     1  0.0000000  0.6024960  3
   4496   4490   4476   4498     1  0.0000000  4.9162000  2
   4496   4490   4476   4498     1  0.0000000  0.6024960  3
   4499   4500   4503   4504     1  180.0000771  0.8368000  1
   4499   4500   4503   4504     1  180.0000771  1.0460000  2
   4499   4500   4503   4504     1  0.0000000  0.7531200  3
   4499   4500   4503   4511     1  0.0000000  0.6508444  3
   4499   4521   4505   4509     1  180.0000771  5.6484000  1
   4499   4521   4505   4509     1  180.0000771  3.5564000  2
   4499   4521   4505   4509     1  0.0000000  0.4184000  3
   4499   4521   4505   4504     1  180.0000771  0.4184000  2
   4499   4521   4505   4504     1  0.0000000  1.6024720  3
   4500   4503   4504   4505     1  180.0000771  0.8368000  1
   4500   4503   4504   4505     1  180.0000771  1.0460000  2
   4500   4503   4504   4505     1  0.0000000  0.7531200  3
   4500   4503   4504   4510     1  0.0000000  0.6508444  3
   4500   4499   4513   4519     1  0.0000000  0.6508444  3
   4500   4499   4521   4505     1  180.0000771  0.4184000  2
   4500   4499   4521   4505     1  0.0000000  1.6024720  3
   4503   4504   4505   4509     1  0.0000000  0.6508444  3
   4503   4504   4505   4521     1  0.0000000  0.6508444  3
   4503   4500   4499   4513     1  180.0000771  0.8368000  1
   4503   4500   4499   4513     1  180.0000771  1.0460000  2
   4503   4500   4499   4513     1  0.0000000  0.7531200  3
   4503   4500   4499   4521     1  0.0000000  0.6508444  3
   4504   4503   4500   4512     1  0.0000000  0.6508444  3
   4505   4521   4499   4513     1  180.0000771  0.4184000  2
   4505   4521   4499   4513     1  0.0000000  1.6024720  3
   4505   4504   4503   4511     1  0.0000000  0.6508444  3
   4509   4505   4504   4510     1  0.0000000  4.9162000  2
   4509   4505   4504   4510     1  0.0000000  0.6024960  3
   4510   4504   4505   4521     1  0.0000000  4.9162000  2
   4510   4504   4505   4521     1  0.0000000  0.6024960  3
   4510   4504   4503   4511     1  0.0000000  4.9162000  2
   4510   4504   4503   4511     1  0.0000000  0.6024960  3
   4511   4503   4500   4512     1  0.0000000  4.9162000  2
   4511   4503   4500   4512     1  0.0000000  0.6024960  3
   4512   4500   4499   4513     1  0.0000000  0.6508444  3
   4512   4500   4499   4521     1  0.0000000  4.9162000  2
   4512   4500   4499   4521     1  0.0000000  0.6024960  3
   4519   4513   4499   4521     1  0.0000000  4.9162000  2
   4519   4513   4499   4521     1  0.0000000  0.6024960  3
   4522   4523   4526   4527     1  180.0000771  0.8368000  1
   4522   4523   4526   4527     1  180.0000771  1.0460000  2
   4522   4523   4526   4527     1  0.0000000  0.7531200  3
   4522   4523   4526   4534     1  0.0000000  0.6508444  3
   4522   4544   4528   4527     1  180.0000771  0.4184000  2
   4522   4544   4528   4527     1  0.0000000  1.6024720  3
   4522   4544   4528   4532     1  180.0000771  5.6484000  1
   4522   4544   4528   4532     1  180.0000771  3.5564000  2
   4522   4544   4528   4532     1  0.0000000  0.4184000  3
   4523   4522   4536   4542     1  0.0000000  0.6508444  3
   4523   4522   4544   4528     1  180.0000771  0.4184000  2
   4523   4522   4544   4528     1  0.0000000  1.6024720  3
   4523   4526   4527   4528     1  180.0000771  0.8368000  1
   4523   4526   4527   4528     1  180.0000771  1.0460000  2
   4523   4526   4527   4528     1  0.0000000  0.7531200  3
   4523   4526   4527   4533     1  0.0000000  0.6508444  3
   4526   4523   4522   4536     1  180.0000771  0.8368000  1
   4526   4523   4522   4536     1  180.0000771  1.0460000  2
   4526   4523   4522   4536     1  0.0000000  0.7531200  3
   4526   4523   4522   4544     1  0.0000000  0.6508444  3
   4526   4527   4528   4532     1  0.0000000  0.6508444  3
   4526   4527   4528   4544     1  0.0000000  0.6508444  3
   4527   4526   4523   4535     1  0.0000000  0.6508444  3
   4528   4527   4526   4534     1  0.0000000  0.6508444  3
   4528   4544   4522   4536     1  180.0000771  0.4184000  2
   4528   4544   4522   4536     1  0.0000000  1.6024720  3
   4532   4528   4527   4533     1  0.0000000  4.9162000  2
   4532   4528   4527   4533     1  0.0000000  0.6024960  3
   4533   4527   4526   4534     1  0.0000000  4.9162000  2
   4533   4527   4526   4534     1  0.0000000  0.6024960  3
   4533   4527   4528   4544     1  0.0000000  4.9162000  2
   4533   4527   4528   4544     1  0.0000000  0.6024960  3
   4534   4526   4523   4535     1  0.0000000  4.9162000  2
   4534   4526   4523   4535     1  0.0000000  0.6024960  3
   4535   4523   4522   4536     1  0.0000000  0.6508444  3
   4535   4523   4522   4544     1  0.0000000  4.9162000  2
   4535   4523   4522   4544     1  0.0000000  0.6024960  3
   4542   4536   4522   4544     1  0.0000000  4.9162000  2
   4542   4536   4522   4544     1  0.0000000  0.6024960  3
   4545   4546   4549   4550     1  180.0000771  0.8368000  1
   4545   4546   4549   4550     1  180.0000771  1.0460000  2
   4545   4546   4549   4550     1  0.0000000  0.7531200  3
   4545   4546   4549   4557     1  0.0000000  0.6508444  3
   4545   4567   4551   4555     1  180.0000771  5.6484000  1
   4545   4567   4551   4555     1  180.0000771  3.5564000  2
   4545   4567   4551   4555     1  0.0000000  0.4184000  3
   4545   4567   4551   4550     1  180.0000771  0.4184000  2
   4545   4567   4551   4550     1  0.0000000  1.6024720  3
   4546   4549   4550   4551     1  180.0000771  0.8368000  1
   4546   4549   4550   4551     1  180.0000771  1.0460000  2
   4546   4549   4550   4551     1  0.0000000  0.7531200  3
   4546   4549   4550   4556     1  0.0000000  0.6508444  3
   4546   4545   4559   4565     1  0.0000000  0.6508444  3
   4546   4545   4567   4551     1  180.0000771  0.4184000  2
   4546   4545   4567   4551     1  0.0000000  1.6024720  3
   4549   4550   4551   4555     1  0.0000000  0.6508444  3
   4549   4550   4551   4567     1  0.0000000  0.6508444  3
   4549   4546   4545   4559     1  180.0000771  0.8368000  1
   4549   4546   4545   4559     1  180.0000771  1.0460000  2
   4549   4546   4545   4559     1  0.0000000  0.7531200  3
   4549   4546   4545   4567     1  0.0000000  0.6508444  3
   4550   4549   4546   4558     1  0.0000000  0.6508444  3
   4551   4567   4545   4559     1  180.0000771  0.4184000  2
   4551   4567   4545   4559     1  0.0000000  1.6024720  3
   4551   4550   4549   4557     1  0.0000000  0.6508444  3
   4555   4551   4550   4556     1  0.0000000  4.9162000  2
   4555   4551   4550   4556     1  0.0000000  0.6024960  3
   4556   4550   4551   4567     1  0.0000000  4.9162000  2
   4556   4550   4551   4567     1  0.0000000  0.6024960  3
   4556   4550   4549   4557     1  0.0000000  4.9162000  2
   4556   4550   4549   4557     1  0.0000000  0.6024960  3
   4557   4549   4546   4558     1  0.0000000  4.9162000  2
   4557   4549   4546   4558     1  0.0000000  0.6024960  3
   4558   4546   4545   4559     1  0.0000000  0.6508444  3
   4558   4546   4545   4567     1  0.0000000  4.9162000  2
   4558   4546   4545   4567     1  0.0000000  0.6024960  3
   4565   4559   4545   4567     1  0.0000000  4.9162000  2
   4565   4559   4545   4567     1  0.0000000  0.6024960  3
   4568   4569   4572   4573     1  180.0000771  0.8368000  1
   4568   4569   4572   4573     1  180.0000771  1.0460000  2
   4568   4569   4572   4573     1  0.0000000  0.7531200  3
   4568   4569   4572   4580     1  0.0000000  0.6508444  3
   4568   4590   4574   4573     1  180.0000771  0.4184000  2
   4568   4590   4574   4573     1  0.0000000  1.6024720  3
   4568   4590   4574   4578     1  180.0000771  5.6484000  1
   4568   4590   4574   4578     1  180.0000771  3.5564000  2
   4568   4590   4574   4578     1  0.0000000  0.4184000  3
   4569   4568   4582   4588     1  0.0000000  0.6508444  3
   4569   4568   4590   4574     1  180.0000771  0.4184000  2
   4569   4568   4590   4574     1  0.0000000  1.6024720  3
   4569   4572   4573   4574     1  180.0000771  0.8368000  1
   4569   4572   4573   4574     1  180.0000771  1.0460000  2
   4569   4572   4573   4574     1  0.0000000  0.7531200  3
   4569   4572   4573   4579     1  0.0000000  0.6508444  3
   4572   4569   4568   4582     1  180.0000771  0.8368000  1
   4572   4569   4568   4582     1  180.0000771  1.0460000  2
   4572   4569   4568   4582     1  0.0000000  0.7531200  3
   4572   4569   4568   4590     1  0.0000000  0.6508444  3
   4572   4573   4574   4578     1  0.0000000  0.6508444  3
   4572   4573   4574   4590     1  0.0000000  0.6508444  3
   4573   4572   4569   4581     1  0.0000000  0.6508444  3
   4574   4573   4572   4580     1  0.0000000  0.6508444  3
   4574   4590   4568   4582     1  180.0000771  0.4184000  2
   4574   4590   4568   4582     1  0.0000000  1.6024720  3
   4578   4574   4573   4579     1  0.0000000  4.9162000  2
   4578   4574   4573   4579     1  0.0000000  0.6024960  3
   4579   4573   4572   4580     1  0.0000000  4.9162000  2
   4579   4573   4572   4580     1  0.0000000  0.6024960  3
   4579   4573   4574   4590     1  0.0000000  4.9162000  2
   4579   4573   4574   4590     1  0.0000000  0.6024960  3
   4580   4572   4569   4581     1  0.0000000  4.9162000  2
   4580   4572   4569   4581     1  0.0000000  0.6024960  3
   4581   4569   4568   4582     1  0.0000000  0.6508444  3
   4581   4569   4568   4590     1  0.0000000  4.9162000  2
   4581   4569   4568   4590     1  0.0000000  0.6024960  3
   4588   4582   4568   4590     1  0.0000000  4.9162000  2
   4588   4582   4568   4590     1  0.0000000  0.6024960  3
   4591   4592   4595   4596     1  180.0000771  0.8368000  1
   4591   4592   4595   4596     1  180.0000771  1.0460000  2
   4591   4592   4595   4596     1  0.0000000  0.7531200  3
   4591   4592   4595   4603     1  0.0000000  0.6508444  3
   4591   4613   4597   4601     1  180.0000771  5.6484000  1
   4591   4613   4597   4601     1  180.0000771  3.5564000  2
   4591   4613   4597   4601     1  0.0000000  0.4184000  3
   4591   4613   4597   4596     1  180.0000771  0.4184000  2
   4591   4613   4597   4596     1  0.0000000  1.6024720  3
   4592   4595   4596   4597     1  180.0000771  0.8368000  1
   4592   4595   4596   4597     1  180.0000771  1.0460000  2
   4592   4595   4596   4597     1  0.0000000  0.7531200  3
   4592   4595   4596   4602     1  0.0000000  0.6508444  3
   4592   4591   4605   4611     1  0.0000000  0.6508444  3
   4592   4591   4613   4597     1  180.0000771  0.4184000  2
   4592   4591   4613   4597     1  0.0000000  1.6024720  3
   4595   4596   4597   4601     1  0.0000000  0.6508444  3
   4595   4596   4597   4613     1  0.0000000  0.6508444  3
   4595   4592   4591   4605     1  180.0000771  0.8368000  1
   4595   4592   4591   4605     1  180.0000771  1.0460000  2
   4595   4592   4591   4605     1  0.0000000  0.7531200  3
   4595   4592   4591   4613     1  0.0000000  0.6508444  3
   4596   4595   4592   4604     1  0.0000000  0.6508444  3
   4597   4613   4591   4605     1  180.0000771  0.4184000  2
   4597   4613   4591   4605     1  0.0000000  1.6024720  3
   4597   4596   4595   4603     1  0.0000000  0.6508444  3
   4601   4597   4596   4602     1  0.0000000  4.9162000  2
   4601   4597   4596   4602     1  0.0000000  0.6024960  3
   4602   4596   4597   4613     1  0.0000000  4.9162000  2
   4602   4596   4597   4613     1  0.0000000  0.6024960  3
   4602   4596   4595   4603     1  0.0000000  4.9162000  2
   4602   4596   4595   4603     1  0.0000000  0.6024960  3
   4603   4595   4592   4604     1  0.0000000  4.9162000  2
   4603   4595   4592   4604     1  0.0000000  0.6024960  3
   4604   4592   4591   4605     1  0.0000000  0.6508444  3
   4604   4592   4591   4613     1  0.0000000  4.9162000  2
   4604   4592   4591   4613     1  0.0000000  0.6024960  3
   4611   4605   4591   4613     1  0.0000000  4.9162000  2
   4611   4605   4591   4613     1  0.0000000  0.6024960  3
   4614   4615   4618   4619     1  180.0000771  0.8368000  1
   4614   4615   4618   4619     1  180.0000771  1.0460000  2
   4614   4615   4618   4619     1  0.0000000  0.7531200  3
   4614   4615   4618   4626     1  0.0000000  0.6508444  3
   4614   4636   4620   4619     1  180.0000771  0.4184000  2
   4614   4636   4620   4619     1  0.0000000  1.6024720  3
   4614   4636   4620   4624     1  180.0000771  5.6484000  1
   4614   4636   4620   4624     1  180.0000771  3.5564000  2
   4614   4636   4620   4624     1  0.0000000  0.4184000  3
   4615   4614   4628   4634     1  0.0000000  0.6508444  3
   4615   4614   4636   4620     1  180.0000771  0.4184000  2
   4615   4614   4636   4620     1  0.0000000  1.6024720  3
   4615   4618   4619   4620     1  180.0000771  0.8368000  1
   4615   4618   4619   4620     1  180.0000771  1.0460000  2
   4615   4618   4619   4620     1  0.0000000  0.7531200  3
   4615   4618   4619   4625     1  0.0000000  0.6508444  3
   4618   4615   4614   4628     1  180.0000771  0.8368000  1
   4618   4615   4614   4628     1  180.0000771  1.0460000  2
   4618   4615   4614   4628     1  0.0000000  0.7531200  3
   4618   4615   4614   4636     1  0.0000000  0.6508444  3
   4618   4619   4620   4624     1  0.0000000  0.6508444  3
   4618   4619   4620   4636     1  0.0000000  0.6508444  3
   4619   4618   4615   4627     1  0.0000000  0.6508444  3
   4620   4619   4618   4626     1  0.0000000  0.6508444  3
   4620   4636   4614   4628     1  180.0000771  0.4184000  2
   4620   4636   4614   4628     1  0.0000000  1.6024720  3
   4624   4620   4619   4625     1  0.0000000  4.9162000  2
   4624   4620   4619   4625     1  0.0000000  0.6024960  3
   4625   4619   4618   4626     1  0.0000000  4.9162000  2
   4625   4619   4618   4626     1  0.0000000  0.6024960  3
   4625   4619   4620   4636     1  0.0000000  4.9162000  2
   4625   4619   4620   4636     1  0.0000000  0.6024960  3
   4626   4618   4615   4627     1  0.0000000  4.9162000  2
   4626   4618   4615   4627     1  0.0000000  0.6024960  3
   4627   4615   4614   4628     1  0.0000000  0.6508444  3
   4627   4615   4614   4636     1  0.0000000  4.9162000  2
   4627   4615   4614   4636     1  0.0000000  0.6024960  3
   4634   4628   4614   4636     1  0.0000000  4.9162000  2
   4634   4628   4614   4636     1  0.0000000  0.6024960  3
   4637   4638   4641   4642     1  180.0000771  0.8368000  1
   4637   4638   4641   4642     1  180.0000771  1.0460000  2
   4637   4638   4641   4642     1  0.0000000  0.7531200  3
   4637   4638   4641   4649     1  0.0000000  0.6508444  3
   4637   4659   4643   4647     1  180.0000771  5.6484000  1
   4637   4659   4643   4647     1  180.0000771  3.5564000  2
   4637   4659   4643   4647     1  0.0000000  0.4184000  3
   4637   4659   4643   4642     1  180.0000771  0.4184000  2
   4637   4659   4643   4642     1  0.0000000  1.6024720  3
   4638   4641   4642   4643     1  180.0000771  0.8368000  1
   4638   4641   4642   4643     1  180.0000771  1.0460000  2
   4638   4641   4642   4643     1  0.0000000  0.7531200  3
   4638   4641   4642   4648     1  0.0000000  0.6508444  3
   4638   4637   4651   4657     1  0.0000000  0.6508444  3
   4638   4637   4659   4643     1  180.0000771  0.4184000  2
   4638   4637   4659   4643     1  0.0000000  1.6024720  3
   4641   4642   4643   4647     1  0.0000000  0.6508444  3
   4641   4642   4643   4659     1  0.0000000  0.6508444  3
   4641   4638   4637   4651     1  180.0000771  0.8368000  1
   4641   4638   4637   4651     1  180.0000771  1.0460000  2
   4641   4638   4637   4651     1  0.0000000  0.7531200  3
   4641   4638   4637   4659     1  0.0000000  0.6508444  3
   4642   4641   4638   4650     1  0.0000000  0.6508444  3
   4643   4659   4637   4651     1  180.0000771  0.4184000  2
   4643   4659   4637   4651     1  0.0000000  1.6024720  3
   4643   4642   4641   4649     1  0.0000000  0.6508444  3
   4647   4643   4642   4648     1  0.0000000  4.9162000  2
   4647   4643   4642   4648     1  0.0000000  0.6024960  3
   4648   4642   4643   4659     1  0.0000000  4.9162000  2
   4648   4642   4643   4659     1  0.0000000  0.6024960  3
   4648   4642   4641   4649     1  0.0000000  4.9162000  2
   4648   4642   4641   4649     1  0.0000000  0.6024960  3
   4649   4641   4638   4650     1  0.0000000  4.9162000  2
   4649   4641   4638   4650     1  0.0000000  0.6024960  3
   4650   4638   4637   4651     1  0.0000000  0.6508444  3
   4650   4638   4637   4659     1  0.0000000  4.9162000  2
   4650   4638   4637   4659     1  0.0000000  0.6024960  3
   4657   4651   4637   4659     1  0.0000000  4.9162000  2
   4657   4651   4637   4659     1  0.0000000  0.6024960  3
   4660   4661   4664   4665     1  180.0000771  0.8368000  1
   4660   4661   4664   4665     1  180.0000771  1.0460000  2
   4660   4661   4664   4665     1  0.0000000  0.7531200  3
   4660   4661   4664   4672     1  0.0000000  0.6508444  3
   4660   4682   4666   4665     1  180.0000771  0.4184000  2
   4660   4682   4666   4665     1  0.0000000  1.6024720  3
   4660   4682   4666   4670     1  180.0000771  5.6484000  1
   4660   4682   4666   4670     1  180.0000771  3.5564000  2
   4660   4682   4666   4670     1  0.0000000  0.4184000  3
   4661   4660   4674   4680     1  0.0000000  0.6508444  3
   4661   4660   4682   4666     1  180.0000771  0.4184000  2
   4661   4660   4682   4666     1  0.0000000  1.6024720  3
   4661   4664   4665   4666     1  180.0000771  0.8368000  1
   4661   4664   4665   4666     1  180.0000771  1.0460000  2
   4661   4664   4665   4666     1  0.0000000  0.7531200  3
   4661   4664   4665   4671     1  0.0000000  0.6508444  3
   4664   4661   4660   4674     1  180.0000771  0.8368000  1
   4664   4661   4660   4674     1  180.0000771  1.0460000  2
   4664   4661   4660   4674     1  0.0000000  0.7531200  3
   4664   4661   4660   4682     1  0.0000000  0.6508444  3
   4664   4665   4666   4670     1  0.0000000  0.6508444  3
   4664   4665   4666   4682     1  0.0000000  0.6508444  3
   4665   4664   4661   4673     1  0.0000000  0.6508444  3
   4666   4665   4664   4672     1  0.0000000  0.6508444  3
   4666   4682   4660   4674     1  180.0000771  0.4184000  2
   4666   4682   4660   4674     1  0.0000000  1.6024720  3
   4670   4666   4665   4671     1  0.0000000  4.9162000  2
   4670   4666   4665   4671     1  0.0000000  0.6024960  3
   4671   4665   4664   4672     1  0.0000000  4.9162000  2
   4671   4665   4664   4672     1  0.0000000  0.6024960  3
   4671   4665   4666   4682     1  0.0000000  4.9162000  2
   4671   4665   4666   4682     1  0.0000000  0.6024960  3
   4672   4664   4661   4673     1  0.0000000  4.9162000  2
   4672   4664   4661   4673     1  0.0000000  0.6024960  3
   4673   4661   4660   4674     1  0.0000000  0.6508444  3
   4673   4661   4660   4682     1  0.0000000  4.9162000  2
   4673   4661   4660   4682     1  0.0000000  0.6024960  3
   4680   4674   4660   4682     1  0.0000000  4.9162000  2
   4680   4674   4660   4682     1  0.0000000  0.6024960  3
   4683   4684   4687   4688     1  180.0000771  0.8368000  1
   4683   4684   4687   4688     1  180.0000771  1.0460000  2
   4683   4684   4687   4688     1  0.0000000  0.7531200  3
   4683   4684   4687   4695     1  0.0000000  0.6508444  3
   4683   4705   4689   4693     1  180.0000771  5.6484000  1
   4683   4705   4689   4693     1  180.0000771  3.5564000  2
   4683   4705   4689   4693     1  0.0000000  0.4184000  3
   4683   4705   4689   4688     1  180.0000771  0.4184000  2
   4683   4705   4689   4688     1  0.0000000  1.6024720  3
   4684   4687   4688   4689     1  180.0000771  0.8368000  1
   4684   4687   4688   4689     1  180.0000771  1.0460000  2
   4684   4687   4688   4689     1  0.0000000  0.7531200  3
   4684   4687   4688   4694     1  0.0000000  0.6508444  3
   4684   4683   4697   4703     1  0.0000000  0.6508444  3
   4684   4683   4705   4689     1  180.0000771  0.4184000  2
   4684   4683   4705   4689     1  0.0000000  1.6024720  3
   4687   4688   4689   4693     1  0.0000000  0.6508444  3
   4687   4688   4689   4705     1  0.0000000  0.6508444  3
   4687   4684   4683   4697     1  180.0000771  0.8368000  1
   4687   4684   4683   4697     1  180.0000771  1.0460000  2
   4687   4684   4683   4697     1  0.0000000  0.7531200  3
   4687   4684   4683   4705     1  0.0000000  0.6508444  3
   4688   4687   4684   4696     1  0.0000000  0.6508444  3
   4689   4705   4683   4697     1  180.0000771  0.4184000  2
   4689   4705   4683   4697     1  0.0000000  1.6024720  3
   4689   4688   4687   4695     1  0.0000000  0.6508444  3
   4693   4689   4688   4694     1  0.0000000  4.9162000  2
   4693   4689   4688   4694     1  0.0000000  0.6024960  3
   4694   4688   4689   4705     1  0.0000000  4.9162000  2
   4694   4688   4689   4705     1  0.0000000  0.6024960  3
   4694   4688   4687   4695     1  0.0000000  4.9162000  2
   4694   4688   4687   4695     1  0.0000000  0.6024960  3
   4695   4687   4684   4696     1  0.0000000  4.9162000  2
   4695   4687   4684   4696     1  0.0000000  0.6024960  3
   4696   4684   4683   4697     1  0.0000000  0.6508444  3
   4696   4684   4683   4705     1  0.0000000  4.9162000  2
   4696   4684   4683   4705     1  0.0000000  0.6024960  3
   4703   4697   4683   4705     1  0.0000000  4.9162000  2
   4703   4697   4683   4705     1  0.0000000  0.6024960  3
   4706   4707   4710   4711     1  180.0000771  0.8368000  1
   4706   4707   4710   4711     1  180.0000771  1.0460000  2
   4706   4707   4710   4711     1  0.0000000  0.7531200  3
   4706   4707   4710   4718     1  0.0000000  0.6508444  3
   4706   4728   4712   4711     1  180.0000771  0.4184000  2
   4706   4728   4712   4711     1  0.0000000  1.6024720  3
   4706   4728   4712   4716     1  180.0000771  5.6484000  1
   4706   4728   4712   4716     1  180.0000771  3.5564000  2
   4706   4728   4712   4716     1  0.0000000  0.4184000  3
   4707   4706   4720   4726     1  0.0000000  0.6508444  3
   4707   4706   4728   4712     1  180.0000771  0.4184000  2
   4707   4706   4728   4712     1  0.0000000  1.6024720  3
   4707   4710   4711   4712     1  180.0000771  0.8368000  1
   4707   4710   4711   4712     1  180.0000771  1.0460000  2
   4707   4710   4711   4712     1  0.0000000  0.7531200  3
   4707   4710   4711   4717     1  0.0000000  0.6508444  3
   4710   4707   4706   4720     1  180.0000771  0.8368000  1
   4710   4707   4706   4720     1  180.0000771  1.0460000  2
   4710   4707   4706   4720     1  0.0000000  0.7531200  3
   4710   4707   4706   4728     1  0.0000000  0.6508444  3
   4710   4711   4712   4716     1  0.0000000  0.6508444  3
   4710   4711   4712   4728     1  0.0000000  0.6508444  3
   4711   4710   4707   4719     1  0.0000000  0.6508444  3
   4712   4711   4710   4718     1  0.0000000  0.6508444  3
   4712   4728   4706   4720     1  180.0000771  0.4184000  2
   4712   4728   4706   4720     1  0.0000000  1.6024720  3
   4716   4712   4711   4717     1  0.0000000  4.9162000  2
   4716   4712   4711   4717     1  0.0000000  0.6024960  3
   4717   4711   4710   4718     1  0.0000000  4.9162000  2
   4717   4711   4710   4718     1  0.0000000  0.6024960  3
   4717   4711   4712   4728     1  0.0000000  4.9162000  2
   4717   4711   4712   4728     1  0.0000000  0.6024960  3
   4718   4710   4707   4719     1  0.0000000  4.9162000  2
   4718   4710   4707   4719     1  0.0000000  0.6024960  3
   4719   4707   4706   4720     1  0.0000000  0.6508444  3
   4719   4707   4706   4728     1  0.0000000  4.9162000  2
   4719   4707   4706   4728     1  0.0000000  0.6024960  3
   4726   4720   4706   4728     1  0.0000000  4.9162000  2
   4726   4720   4706   4728     1  0.0000000  0.6024960  3
   4729   4730   4733   4734     1  180.0000771  0.8368000  1
   4729   4730   4733   4734     1  180.0000771  1.0460000  2
   4729   4730   4733   4734     1  0.0000000  0.7531200  3
   4729   4730   4733   4741     1  0.0000000  0.6508444  3
   4729   4751   4735   4739     1  180.0000771  5.6484000  1
   4729   4751   4735   4739     1  180.0000771  3.5564000  2
   4729   4751   4735   4739     1  0.0000000  0.4184000  3
   4729   4751   4735   4734     1  180.0000771  0.4184000  2
   4729   4751   4735   4734     1  0.0000000  1.6024720  3
   4730   4733   4734   4735     1  180.0000771  0.8368000  1
   4730   4733   4734   4735     1  180.0000771  1.0460000  2
   4730   4733   4734   4735     1  0.0000000  0.7531200  3
   4730   4733   4734   4740     1  0.0000000  0.6508444  3
   4730   4729   4743   4749     1  0.0000000  0.6508444  3
   4730   4729   4751   4735     1  180.0000771  0.4184000  2
   4730   4729   4751   4735     1  0.0000000  1.6024720  3
   4733   4734   4735   4739     1  0.0000000  0.6508444  3
   4733   4734   4735   4751     1  0.0000000  0.6508444  3
   4733   4730   4729   4743     1  180.0000771  0.8368000  1
   4733   4730   4729   4743     1  180.0000771  1.0460000  2
   4733   4730   4729   4743     1  0.0000000  0.7531200  3
   4733   4730   4729   4751     1  0.0000000  0.6508444  3
   4734   4733   4730   4742     1  0.0000000  0.6508444  3
   4735   4751   4729   4743     1  180.0000771  0.4184000  2
   4735   4751   4729   4743     1  0.0000000  1.6024720  3
   4735   4734   4733   4741     1  0.0000000  0.6508444  3
   4739   4735   4734   4740     1  0.0000000  4.9162000  2
   4739   4735   4734   4740     1  0.0000000  0.6024960  3
   4740   4734   4735   4751     1  0.0000000  4.9162000  2
   4740   4734   4735   4751     1  0.0000000  0.6024960  3
   4740   4734   4733   4741     1  0.0000000  4.9162000  2
   4740   4734   4733   4741     1  0.0000000  0.6024960  3
   4741   4733   4730   4742     1  0.0000000  4.9162000  2
   4741   4733   4730   4742     1  0.0000000  0.6024960  3
   4742   4730   4729   4743     1  0.0000000  0.6508444  3
   4742   4730   4729   4751     1  0.0000000  4.9162000  2
   4742   4730   4729   4751     1  0.0000000  0.6024960  3
   4749   4743   4729   4751     1  0.0000000  4.9162000  2
   4749   4743   4729   4751     1  0.0000000  0.6024960  3
   4752   4753   4756   4757     1  180.0000771  0.8368000  1
   4752   4753   4756   4757     1  180.0000771  1.0460000  2
   4752   4753   4756   4757     1  0.0000000  0.7531200  3
   4752   4753   4756   4764     1  0.0000000  0.6508444  3
   4752   4774   4758   4757     1  180.0000771  0.4184000  2
   4752   4774   4758   4757     1  0.0000000  1.6024720  3
   4752   4774   4758   4762     1  180.0000771  5.6484000  1
   4752   4774   4758   4762     1  180.0000771  3.5564000  2
   4752   4774   4758   4762     1  0.0000000  0.4184000  3
   4753   4752   4766   4772     1  0.0000000  0.6508444  3
   4753   4752   4774   4758     1  180.0000771  0.4184000  2
   4753   4752   4774   4758     1  0.0000000  1.6024720  3
   4753   4756   4757   4758     1  180.0000771  0.8368000  1
   4753   4756   4757   4758     1  180.0000771  1.0460000  2
   4753   4756   4757   4758     1  0.0000000  0.7531200  3
   4753   4756   4757   4763     1  0.0000000  0.6508444  3
   4756   4753   4752   4766     1  180.0000771  0.8368000  1
   4756   4753   4752   4766     1  180.0000771  1.0460000  2
   4756   4753   4752   4766     1  0.0000000  0.7531200  3
   4756   4753   4752   4774     1  0.0000000  0.6508444  3
   4756   4757   4758   4762     1  0.0000000  0.6508444  3
   4756   4757   4758   4774     1  0.0000000  0.6508444  3
   4757   4756   4753   4765     1  0.0000000  0.6508444  3
   4758   4757   4756   4764     1  0.0000000  0.6508444  3
   4758   4774   4752   4766     1  180.0000771  0.4184000  2
   4758   4774   4752   4766     1  0.0000000  1.6024720  3
   4762   4758   4757   4763     1  0.0000000  4.9162000  2
   4762   4758   4757   4763     1  0.0000000  0.6024960  3
   4763   4757   4756   4764     1  0.0000000  4.9162000  2
   4763   4757   4756   4764     1  0.0000000  0.6024960  3
   4763   4757   4758   4774     1  0.0000000  4.9162000  2
   4763   4757   4758   4774     1  0.0000000  0.6024960  3
   4764   4756   4753   4765     1  0.0000000  4.9162000  2
   4764   4756   4753   4765     1  0.0000000  0.6024960  3
   4765   4753   4752   4766     1  0.0000000  0.6508444  3
   4765   4753   4752   4774     1  0.0000000  4.9162000  2
   4765   4753   4752   4774     1  0.0000000  0.6024960  3
   4772   4766   4752   4774     1  0.0000000  4.9162000  2
   4772   4766   4752   4774     1  0.0000000  0.6024960  3
   4775   4776   4779   4780     1  180.0000771  0.8368000  1
   4775   4776   4779   4780     1  180.0000771  1.0460000  2
   4775   4776   4779   4780     1  0.0000000  0.7531200  3
   4775   4776   4779   4787     1  0.0000000  0.6508444  3
   4775   4797   4781   4785     1  180.0000771  5.6484000  1
   4775   4797   4781   4785     1  180.0000771  3.5564000  2
   4775   4797   4781   4785     1  0.0000000  0.4184000  3
   4775   4797   4781   4780     1  180.0000771  0.4184000  2
   4775   4797   4781   4780     1  0.0000000  1.6024720  3
   4776   4779   4780   4781     1  180.0000771  0.8368000  1
   4776   4779   4780   4781     1  180.0000771  1.0460000  2
   4776   4779   4780   4781     1  0.0000000  0.7531200  3
   4776   4779   4780   4786     1  0.0000000  0.6508444  3
   4776   4775   4789   4795     1  0.0000000  0.6508444  3
   4776   4775   4797   4781     1  180.0000771  0.4184000  2
   4776   4775   4797   4781     1  0.0000000  1.6024720  3
   4779   4780   4781   4785     1  0.0000000  0.6508444  3
   4779   4780   4781   4797     1  0.0000000  0.6508444  3
   4779   4776   4775   4789     1  180.0000771  0.8368000  1
   4779   4776   4775   4789     1  180.0000771  1.0460000  2
   4779   4776   4775   4789     1  0.0000000  0.7531200  3
   4779   4776   4775   4797     1  0.0000000  0.6508444  3
   4780   4779   4776   4788     1  0.0000000  0.6508444  3
   4781   4797   4775   4789     1  180.0000771  0.4184000  2
   4781   4797   4775   4789     1  0.0000000  1.6024720  3
   4781   4780   4779   4787     1  0.0000000  0.6508444  3
   4785   4781   4780   4786     1  0.0000000  4.9162000  2
   4785   4781   4780   4786     1  0.0000000  0.6024960  3
   4786   4780   4781   4797     1  0.0000000  4.9162000  2
   4786   4780   4781   4797     1  0.0000000  0.6024960  3
   4786   4780   4779   4787     1  0.0000000  4.9162000  2
   4786   4780   4779   4787     1  0.0000000  0.6024960  3
   4787   4779   4776   4788     1  0.0000000  4.9162000  2
   4787   4779   4776   4788     1  0.0000000  0.6024960  3
   4788   4776   4775   4789     1  0.0000000  0.6508444  3
   4788   4776   4775   4797     1  0.0000000  4.9162000  2
   4788   4776   4775   4797     1  0.0000000  0.6024960  3
   4795   4789   4775   4797     1  0.0000000  4.9162000  2
   4795   4789   4775   4797     1  0.0000000  0.6024960  3
   4798   4799   4802   4803     1  180.0000771  0.8368000  1
   4798   4799   4802   4803     1  180.0000771  1.0460000  2
   4798   4799   4802   4803     1  0.0000000  0.7531200  3
   4798   4799   4802   4810     1  0.0000000  0.6508444  3
   4798   4820   4804   4803     1  180.0000771  0.4184000  2
   4798   4820   4804   4803     1  0.0000000  1.6024720  3
   4798   4820   4804   4808     1  180.0000771  5.6484000  1
   4798   4820   4804   4808     1  180.0000771  3.5564000  2
   4798   4820   4804   4808     1  0.0000000  0.4184000  3
   4799   4798   4812   4818     1  0.0000000  0.6508444  3
   4799   4798   4820   4804     1  180.0000771  0.4184000  2
   4799   4798   4820   4804     1  0.0000000  1.6024720  3
   4799   4802   4803   4804     1  180.0000771  0.8368000  1
   4799   4802   4803   4804     1  180.0000771  1.0460000  2
   4799   4802   4803   4804     1  0.0000000  0.7531200  3
   4799   4802   4803   4809     1  0.0000000  0.6508444  3
   4802   4799   4798   4812     1  180.0000771  0.8368000  1
   4802   4799   4798   4812     1  180.0000771  1.0460000  2
   4802   4799   4798   4812     1  0.0000000  0.7531200  3
   4802   4799   4798   4820     1  0.0000000  0.6508444  3
   4802   4803   4804   4808     1  0.0000000  0.6508444  3
   4802   4803   4804   4820     1  0.0000000  0.6508444  3
   4803   4802   4799   4811     1  0.0000000  0.6508444  3
   4804   4803   4802   4810     1  0.0000000  0.6508444  3
   4804   4820   4798   4812     1  180.0000771  0.4184000  2
   4804   4820   4798   4812     1  0.0000000  1.6024720  3
   4808   4804   4803   4809     1  0.0000000  4.9162000  2
   4808   4804   4803   4809     1  0.0000000  0.6024960  3
   4809   4803   4802   4810     1  0.0000000  4.9162000  2
   4809   4803   4802   4810     1  0.0000000  0.6024960  3
   4809   4803   4804   4820     1  0.0000000  4.9162000  2
   4809   4803   4804   4820     1  0.0000000  0.6024960  3
   4810   4802   4799   4811     1  0.0000000  4.9162000  2
   4810   4802   4799   4811     1  0.0000000  0.6024960  3
   4811   4799   4798   4812     1  0.0000000  0.6508444  3
   4811   4799   4798   4820     1  0.0000000  4.9162000  2
   4811   4799   4798   4820     1  0.0000000  0.6024960  3
   4818   4812   4798   4820     1  0.0000000  4.9162000  2
   4818   4812   4798   4820     1  0.0000000  0.6024960  3
   4821   4822   4825   4826     1  180.0000771  0.8368000  1
   4821   4822   4825   4826     1  180.0000771  1.0460000  2
   4821   4822   4825   4826     1  0.0000000  0.7531200  3
   4821   4822   4825   4833     1  0.0000000  0.6508444  3
   4821   4843   4827   4831     1  180.0000771  5.6484000  1
   4821   4843   4827   4831     1  180.0000771  3.5564000  2
   4821   4843   4827   4831     1  0.0000000  0.4184000  3
   4821   4843   4827   4826     1  180.0000771  0.4184000  2
   4821   4843   4827   4826     1  0.0000000  1.6024720  3
   4822   4825   4826   4827     1  180.0000771  0.8368000  1
   4822   4825   4826   4827     1  180.0000771  1.0460000  2
   4822   4825   4826   4827     1  0.0000000  0.7531200  3
   4822   4825   4826   4832     1  0.0000000  0.6508444  3
   4822   4821   4835   4841     1  0.0000000  0.6508444  3
   4822   4821   4843   4827     1  180.0000771  0.4184000  2
   4822   4821   4843   4827     1  0.0000000  1.6024720  3
   4825   4826   4827   4831     1  0.0000000  0.6508444  3
   4825   4826   4827   4843     1  0.0000000  0.6508444  3
   4825   4822   4821   4835     1  180.0000771  0.8368000  1
   4825   4822   4821   4835     1  180.0000771  1.0460000  2
   4825   4822   4821   4835     1  0.0000000  0.7531200  3
   4825   4822   4821   4843     1  0.0000000  0.6508444  3
   4826   4825   4822   4834     1  0.0000000  0.6508444  3
   4827   4843   4821   4835     1  180.0000771  0.4184000  2
   4827   4843   4821   4835     1  0.0000000  1.6024720  3
   4827   4826   4825   4833     1  0.0000000  0.6508444  3
   4831   4827   4826   4832     1  0.0000000  4.9162000  2
   4831   4827   4826   4832     1  0.0000000  0.6024960  3
   4832   4826   4827   4843     1  0.0000000  4.9162000  2
   4832   4826   4827   4843     1  0.0000000  0.6024960  3
   4832   4826   4825   4833     1  0.0000000  4.9162000  2
   4832   4826   4825   4833     1  0.0000000  0.6024960  3
   4833   4825   4822   4834     1  0.0000000  4.9162000  2
   4833   4825   4822   4834     1  0.0000000  0.6024960  3
   4834   4822   4821   4835     1  0.0000000  0.6508444  3
   4834   4822   4821   4843     1  0.0000000  4.9162000  2
   4834   4822   4821   4843     1  0.0000000  0.6024960  3
   4841   4835   4821   4843     1  0.0000000  4.9162000  2
   4841   4835   4821   4843     1  0.0000000  0.6024960  3
   4844   4845   4848   4849     1  180.0000771  0.8368000  1
   4844   4845   4848   4849     1  180.0000771  1.0460000  2
   4844   4845   4848   4849     1  0.0000000  0.7531200  3
   4844   4845   4848   4856     1  0.0000000  0.6508444  3
   4844   4866   4850   4849     1  180.0000771  0.4184000  2
   4844   4866   4850   4849     1  0.0000000  1.6024720  3
   4844   4866   4850   4854     1  180.0000771  5.6484000  1
   4844   4866   4850   4854     1  180.0000771  3.5564000  2
   4844   4866   4850   4854     1  0.0000000  0.4184000  3
   4845   4844   4858   4864     1  0.0000000  0.6508444  3
   4845   4844   4866   4850     1  180.0000771  0.4184000  2
   4845   4844   4866   4850     1  0.0000000  1.6024720  3
   4845   4848   4849   4850     1  180.0000771  0.8368000  1
   4845   4848   4849   4850     1  180.0000771  1.0460000  2
   4845   4848   4849   4850     1  0.0000000  0.7531200  3
   4845   4848   4849   4855     1  0.0000000  0.6508444  3
   4848   4845   4844   4858     1  180.0000771  0.8368000  1
   4848   4845   4844   4858     1  180.0000771  1.0460000  2
   4848   4845   4844   4858     1  0.0000000  0.7531200  3
   4848   4845   4844   4866     1  0.0000000  0.6508444  3
   4848   4849   4850   4854     1  0.0000000  0.6508444  3
   4848   4849   4850   4866     1  0.0000000  0.6508444  3
   4849   4848   4845   4857     1  0.0000000  0.6508444  3
   4850   4849   4848   4856     1  0.0000000  0.6508444  3
   4850   4866   4844   4858     1  180.0000771  0.4184000  2
   4850   4866   4844   4858     1  0.0000000  1.6024720  3
   4854   4850   4849   4855     1  0.0000000  4.9162000  2
   4854   4850   4849   4855     1  0.0000000  0.6024960  3
   4855   4849   4848   4856     1  0.0000000  4.9162000  2
   4855   4849   4848   4856     1  0.0000000  0.6024960  3
   4855   4849   4850   4866     1  0.0000000  4.9162000  2
   4855   4849   4850   4866     1  0.0000000  0.6024960  3
   4856   4848   4845   4857     1  0.0000000  4.9162000  2
   4856   4848   4845   4857     1  0.0000000  0.6024960  3
   4857   4845   4844   4858     1  0.0000000  0.6508444  3
   4857   4845   4844   4866     1  0.0000000  4.9162000  2
   4857   4845   4844   4866     1  0.0000000  0.6024960  3
   4864   4858   4844   4866     1  0.0000000  4.9162000  2
   4864   4858   4844   4866     1  0.0000000  0.6024960  3
   4867   4868   4871   4872     1  180.0000771  0.8368000  1
   4867   4868   4871   4872     1  180.0000771  1.0460000  2
   4867   4868   4871   4872     1  0.0000000  0.7531200  3
   4867   4868   4871   4879     1  0.0000000  0.6508444  3
   4867   4889   4873   4877     1  180.0000771  5.6484000  1
   4867   4889   4873   4877     1  180.0000771  3.5564000  2
   4867   4889   4873   4877     1  0.0000000  0.4184000  3
   4867   4889   4873   4872     1  180.0000771  0.4184000  2
   4867   4889   4873   4872     1  0.0000000  1.6024720  3
   4868   4871   4872   4873     1  180.0000771  0.8368000  1
   4868   4871   4872   4873     1  180.0000771  1.0460000  2
   4868   4871   4872   4873     1  0.0000000  0.7531200  3
   4868   4871   4872   4878     1  0.0000000  0.6508444  3
   4868   4867   4881   4887     1  0.0000000  0.6508444  3
   4868   4867   4889   4873     1  180.0000771  0.4184000  2
   4868   4867   4889   4873     1  0.0000000  1.6024720  3
   4871   4872   4873   4877     1  0.0000000  0.6508444  3
   4871   4872   4873   4889     1  0.0000000  0.6508444  3
   4871   4868   4867   4881     1  180.0000771  0.8368000  1
   4871   4868   4867   4881     1  180.0000771  1.0460000  2
   4871   4868   4867   4881     1  0.0000000  0.7531200  3
   4871   4868   4867   4889     1  0.0000000  0.6508444  3
   4872   4871   4868   4880     1  0.0000000  0.6508444  3
   4873   4889   4867   4881     1  180.0000771  0.4184000  2
   4873   4889   4867   4881     1  0.0000000  1.6024720  3
   4873   4872   4871   4879     1  0.0000000  0.6508444  3
   4877   4873   4872   4878     1  0.0000000  4.9162000  2
   4877   4873   4872   4878     1  0.0000000  0.6024960  3
   4878   4872   4873   4889     1  0.0000000  4.9162000  2
   4878   4872   4873   4889     1  0.0000000  0.6024960  3
   4878   4872   4871   4879     1  0.0000000  4.9162000  2
   4878   4872   4871   4879     1  0.0000000  0.6024960  3
   4879   4871   4868   4880     1  0.0000000  4.9162000  2
   4879   4871   4868   4880     1  0.0000000  0.6024960  3
   4880   4868   4867   4881     1  0.0000000  0.6508444  3
   4880   4868   4867   4889     1  0.0000000  4.9162000  2
   4880   4868   4867   4889     1  0.0000000  0.6024960  3
   4887   4881   4867   4889     1  0.0000000  4.9162000  2
   4887   4881   4867   4889     1  0.0000000  0.6024960  3
   4890   4891   4894   4895     1  180.0000771  0.8368000  1
   4890   4891   4894   4895     1  180.0000771  1.0460000  2
   4890   4891   4894   4895     1  0.0000000  0.7531200  3
   4890   4891   4894   4902     1  0.0000000  0.6508444  3
   4890   4912   4896   4895     1  180.0000771  0.4184000  2
   4890   4912   4896   4895     1  0.0000000  1.6024720  3
   4890   4912   4896   4900     1  180.0000771  5.6484000  1
   4890   4912   4896   4900     1  180.0000771  3.5564000  2
   4890   4912   4896   4900     1  0.0000000  0.4184000  3
   4891   4890   4904   4910     1  0.0000000  0.6508444  3
   4891   4890   4912   4896     1  180.0000771  0.4184000  2
   4891   4890   4912   4896     1  0.0000000  1.6024720  3
   4891   4894   4895   4896     1  180.0000771  0.8368000  1
   4891   4894   4895   4896     1  180.0000771  1.0460000  2
   4891   4894   4895   4896     1  0.0000000  0.7531200  3
   4891   4894   4895   4901     1  0.0000000  0.6508444  3
   4894   4891   4890   4904     1  180.0000771  0.8368000  1
   4894   4891   4890   4904     1  180.0000771  1.0460000  2
   4894   4891   4890   4904     1  0.0000000  0.7531200  3
   4894   4891   4890   4912     1  0.0000000  0.6508444  3
   4894   4895   4896   4900     1  0.0000000  0.6508444  3
   4894   4895   4896   4912     1  0.0000000  0.6508444  3
   4895   4894   4891   4903     1  0.0000000  0.6508444  3
   4896   4895   4894   4902     1  0.0000000  0.6508444  3
   4896   4912   4890   4904     1  180.0000771  0.4184000  2
   4896   4912   4890   4904     1  0.0000000  1.6024720  3
   4900   4896   4895   4901     1  0.0000000  4.9162000  2
   4900   4896   4895   4901     1  0.0000000  0.6024960  3
   4901   4895   4894   4902     1  0.0000000  4.9162000  2
   4901   4895   4894   4902     1  0.0000000  0.6024960  3
   4901   4895   4896   4912     1  0.0000000  4.9162000  2
   4901   4895   4896   4912     1  0.0000000  0.6024960  3
   4902   4894   4891   4903     1  0.0000000  4.9162000  2
   4902   4894   4891   4903     1  0.0000000  0.6024960  3
   4903   4891   4890   4904     1  0.0000000  0.6508444  3
   4903   4891   4890   4912     1  0.0000000  4.9162000  2
   4903   4891   4890   4912     1  0.0000000  0.6024960  3
   4910   4904   4890   4912     1  0.0000000  4.9162000  2
   4910   4904   4890   4912     1  0.0000000  0.6024960  3
   4913   4914   4917   4918     1  180.0000771  0.8368000  1
   4913   4914   4917   4918     1  180.0000771  1.0460000  2
   4913   4914   4917   4918     1  0.0000000  0.7531200  3
   4913   4914   4917   4925     1  0.0000000  0.6508444  3
   4913   4935   4919   4923     1  180.0000771  5.6484000  1
   4913   4935   4919   4923     1  180.0000771  3.5564000  2
   4913   4935   4919   4923     1  0.0000000  0.4184000  3
   4913   4935   4919   4918     1  180.0000771  0.4184000  2
   4913   4935   4919   4918     1  0.0000000  1.6024720  3
   4914   4917   4918   4919     1  180.0000771  0.8368000  1
   4914   4917   4918   4919     1  180.0000771  1.0460000  2
   4914   4917   4918   4919     1  0.0000000  0.7531200  3
   4914   4917   4918   4924     1  0.0000000  0.6508444  3
   4914   4913   4927   4933     1  0.0000000  0.6508444  3
   4914   4913   4935   4919     1  180.0000771  0.4184000  2
   4914   4913   4935   4919     1  0.0000000  1.6024720  3
   4917   4918   4919   4923     1  0.0000000  0.6508444  3
   4917   4918   4919   4935     1  0.0000000  0.6508444  3
   4917   4914   4913   4927     1  180.0000771  0.8368000  1
   4917   4914   4913   4927     1  180.0000771  1.0460000  2
   4917   4914   4913   4927     1  0.0000000  0.7531200  3
   4917   4914   4913   4935     1  0.0000000  0.6508444  3
   4918   4917   4914   4926     1  0.0000000  0.6508444  3
   4919   4935   4913   4927     1  180.0000771  0.4184000  2
   4919   4935   4913   4927     1  0.0000000  1.6024720  3
   4919   4918   4917   4925     1  0.0000000  0.6508444  3
   4923   4919   4918   4924     1  0.0000000  4.9162000  2
   4923   4919   4918   4924     1  0.0000000  0.6024960  3
   4924   4918   4919   4935     1  0.0000000  4.9162000  2
   4924   4918   4919   4935     1  0.0000000  0.6024960  3
   4924   4918   4917   4925     1  0.0000000  4.9162000  2
   4924   4918   4917   4925     1  0.0000000  0.6024960  3
   4925   4917   4914   4926     1  0.0000000  4.9162000  2
   4925   4917   4914   4926     1  0.0000000  0.6024960  3
   4926   4914   4913   4927     1  0.0000000  0.6508444  3
   4926   4914   4913   4935     1  0.0000000  4.9162000  2
   4926   4914   4913   4935     1  0.0000000  0.6024960  3
   4933   4927   4913   4935     1  0.0000000  4.9162000  2
   4933   4927   4913   4935     1  0.0000000  0.6024960  3
   4936   4937   4940   4941     1  180.0000771  0.8368000  1
   4936   4937   4940   4941     1  180.0000771  1.0460000  2
   4936   4937   4940   4941     1  0.0000000  0.7531200  3
   4936   4937   4940   4948     1  0.0000000  0.6508444  3
   4936   4958   4942   4941     1  180.0000771  0.4184000  2
   4936   4958   4942   4941     1  0.0000000  1.6024720  3
   4936   4958   4942   4946     1  180.0000771  5.6484000  1
   4936   4958   4942   4946     1  180.0000771  3.5564000  2
   4936   4958   4942   4946     1  0.0000000  0.4184000  3
   4937   4936   4950   4956     1  0.0000000  0.6508444  3
   4937   4936   4958   4942     1  180.0000771  0.4184000  2
   4937   4936   4958   4942     1  0.0000000  1.6024720  3
   4937   4940   4941   4942     1  180.0000771  0.8368000  1
   4937   4940   4941   4942     1  180.0000771  1.0460000  2
   4937   4940   4941   4942     1  0.0000000  0.7531200  3
   4937   4940   4941   4947     1  0.0000000  0.6508444  3
   4940   4937   4936   4950     1  180.0000771  0.8368000  1
   4940   4937   4936   4950     1  180.0000771  1.0460000  2
   4940   4937   4936   4950     1  0.0000000  0.7531200  3
   4940   4937   4936   4958     1  0.0000000  0.6508444  3
   4940   4941   4942   4946     1  0.0000000  0.6508444  3
   4940   4941   4942   4958     1  0.0000000  0.6508444  3
   4941   4940   4937   4949     1  0.0000000  0.6508444  3
   4942   4941   4940   4948     1  0.0000000  0.6508444  3
   4942   4958   4936   4950     1  180.0000771  0.4184000  2
   4942   4958   4936   4950     1  0.0000000  1.6024720  3
   4946   4942   4941   4947     1  0.0000000  4.9162000  2
   4946   4942   4941   4947     1  0.0000000  0.6024960  3
   4947   4941   4940   4948     1  0.0000000  4.9162000  2
   4947   4941   4940   4948     1  0.0000000  0.6024960  3
   4947   4941   4942   4958     1  0.0000000  4.9162000  2
   4947   4941   4942   4958     1  0.0000000  0.6024960  3
   4948   4940   4937   4949     1  0.0000000  4.9162000  2
   4948   4940   4937   4949     1  0.0000000  0.6024960  3
   4949   4937   4936   4950     1  0.0000000  0.6508444  3
   4949   4937   4936   4958     1  0.0000000  4.9162000  2
   4949   4937   4936   4958     1  0.0000000  0.6024960  3
   4956   4950   4936   4958     1  0.0000000  4.9162000  2
   4956   4950   4936   4958     1  0.0000000  0.6024960  3
   4959   4960   4963   4964     1  180.0000771  0.8368000  1
   4959   4960   4963   4964     1  180.0000771  1.0460000  2
   4959   4960   4963   4964     1  0.0000000  0.7531200  3
   4959   4960   4963   4971     1  0.0000000  0.6508444  3
   4959   4981   4965   4969     1  180.0000771  5.6484000  1
   4959   4981   4965   4969     1  180.0000771  3.5564000  2
   4959   4981   4965   4969     1  0.0000000  0.4184000  3
   4959   4981   4965   4964     1  180.0000771  0.4184000  2
   4959   4981   4965   4964     1  0.0000000  1.6024720  3
   4960   4963   4964   4965     1  180.0000771  0.8368000  1
   4960   4963   4964   4965     1  180.0000771  1.0460000  2
   4960   4963   4964   4965     1  0.0000000  0.7531200  3
   4960   4963   4964   4970     1  0.0000000  0.6508444  3
   4960   4959   4973   4979     1  0.0000000  0.6508444  3
   4960   4959   4981   4965     1  180.0000771  0.4184000  2
   4960   4959   4981   4965     1  0.0000000  1.6024720  3
   4963   4964   4965   4969     1  0.0000000  0.6508444  3
   4963   4964   4965   4981     1  0.0000000  0.6508444  3
   4963   4960   4959   4973     1  180.0000771  0.8368000  1
   4963   4960   4959   4973     1  180.0000771  1.0460000  2
   4963   4960   4959   4973     1  0.0000000  0.7531200  3
   4963   4960   4959   4981     1  0.0000000  0.6508444  3
   4964   4963   4960   4972     1  0.0000000  0.6508444  3
   4965   4981   4959   4973     1  180.0000771  0.4184000  2
   4965   4981   4959   4973     1  0.0000000  1.6024720  3
   4965   4964   4963   4971     1  0.0000000  0.6508444  3
   4969   4965   4964   4970     1  0.0000000  4.9162000  2
   4969   4965   4964   4970     1  0.0000000  0.6024960  3
   4970   4964   4965   4981     1  0.0000000  4.9162000  2
   4970   4964   4965   4981     1  0.0000000  0.6024960  3
   4970   4964   4963   4971     1  0.0000000  4.9162000  2
   4970   4964   4963   4971     1  0.0000000  0.6024960  3
   4971   4963   4960   4972     1  0.0000000  4.9162000  2
   4971   4963   4960   4972     1  0.0000000  0.6024960  3
   4972   4960   4959   4973     1  0.0000000  0.6508444  3
   4972   4960   4959   4981     1  0.0000000  4.9162000  2
   4972   4960   4959   4981     1  0.0000000  0.6024960  3
   4979   4973   4959   4981     1  0.0000000  4.9162000  2
   4979   4973   4959   4981     1  0.0000000  0.6024960  3
   4982   4983   4986   4987     1  180.0000771  0.8368000  1
   4982   4983   4986   4987     1  180.0000771  1.0460000  2
   4982   4983   4986   4987     1  0.0000000  0.7531200  3
   4982   4983   4986   4994     1  0.0000000  0.6508444  3
   4982   5004   4988   4987     1  180.0000771  0.4184000  2
   4982   5004   4988   4987     1  0.0000000  1.6024720  3
   4982   5004   4988   4992     1  180.0000771  5.6484000  1
   4982   5004   4988   4992     1  180.0000771  3.5564000  2
   4982   5004   4988   4992     1  0.0000000  0.4184000  3
   4983   4982   4996   5002     1  0.0000000  0.6508444  3
   4983   4982   5004   4988     1  180.0000771  0.4184000  2
   4983   4982   5004   4988     1  0.0000000  1.6024720  3
   4983   4986   4987   4988     1  180.0000771  0.8368000  1
   4983   4986   4987   4988     1  180.0000771  1.0460000  2
   4983   4986   4987   4988     1  0.0000000  0.7531200  3
   4983   4986   4987   4993     1  0.0000000  0.6508444  3
   4986   4983   4982   4996     1  180.0000771  0.8368000  1
   4986   4983   4982   4996     1  180.0000771  1.0460000  2
   4986   4983   4982   4996     1  0.0000000  0.7531200  3
   4986   4983   4982   5004     1  0.0000000  0.6508444  3
   4986   4987   4988   4992     1  0.0000000  0.6508444  3
   4986   4987   4988   5004     1  0.0000000  0.6508444  3
   4987   4986   4983   4995     1  0.0000000  0.6508444  3
   4988   4987   4986   4994     1  0.0000000  0.6508444  3
   4988   5004   4982   4996     1  180.0000771  0.4184000  2
   4988   5004   4982   4996     1  0.0000000  1.6024720  3
   4992   4988   4987   4993     1  0.0000000  4.9162000  2
   4992   4988   4987   4993     1  0.0000000  0.6024960  3
   4993   4987   4986   4994     1  0.0000000  4.9162000  2
   4993   4987   4986   4994     1  0.0000000  0.6024960  3
   4993   4987   4988   5004     1  0.0000000  4.9162000  2
   4993   4987   4988   5004     1  0.0000000  0.6024960  3
   4994   4986   4983   4995     1  0.0000000  4.9162000  2
   4994   4986   4983   4995     1  0.0000000  0.6024960  3
   4995   4983   4982   4996     1  0.0000000  0.6508444  3
   4995   4983   4982   5004     1  0.0000000  4.9162000  2
   4995   4983   4982   5004     1  0.0000000  0.6024960  3
   5002   4996   4982   5004     1  0.0000000  4.9162000  2
   5002   4996   4982   5004     1  0.0000000  0.6024960  3
   5005   5006   5009   5010     1  180.0000771  0.8368000  1
   5005   5006   5009   5010     1  180.0000771  1.0460000  2
   5005   5006   5009   5010     1  0.0000000  0.7531200  3
   5005   5006   5009   5017     1  0.0000000  0.6508444  3
   5005   5027   5011   5015     1  180.0000771  5.6484000  1
   5005   5027   5011   5015     1  180.0000771  3.5564000  2
   5005   5027   5011   5015     1  0.0000000  0.4184000  3
   5005   5027   5011   5010     1  180.0000771  0.4184000  2
   5005   5027   5011   5010     1  0.0000000  1.6024720  3
   5006   5009   5010   5011     1  180.0000771  0.8368000  1
   5006   5009   5010   5011     1  180.0000771  1.0460000  2
   5006   5009   5010   5011     1  0.0000000  0.7531200  3
   5006   5009   5010   5016     1  0.0000000  0.6508444  3
   5006   5005   5019   5025     1  0.0000000  0.6508444  3
   5006   5005   5027   5011     1  180.0000771  0.4184000  2
   5006   5005   5027   5011     1  0.0000000  1.6024720  3
   5009   5010   5011   5015     1  0.0000000  0.6508444  3
   5009   5010   5011   5027     1  0.0000000  0.6508444  3
   5009   5006   5005   5019     1  180.0000771  0.8368000  1
   5009   5006   5005   5019     1  180.0000771  1.0460000  2
   5009   5006   5005   5019     1  0.0000000  0.7531200  3
   5009   5006   5005   5027     1  0.0000000  0.6508444  3
   5010   5009   5006   5018     1  0.0000000  0.6508444  3
   5011   5027   5005   5019     1  180.0000771  0.4184000  2
   5011   5027   5005   5019     1  0.0000000  1.6024720  3
   5011   5010   5009   5017     1  0.0000000  0.6508444  3
   5015   5011   5010   5016     1  0.0000000  4.9162000  2
   5015   5011   5010   5016     1  0.0000000  0.6024960  3
   5016   5010   5011   5027     1  0.0000000  4.9162000  2
   5016   5010   5011   5027     1  0.0000000  0.6024960  3
   5016   5010   5009   5017     1  0.0000000  4.9162000  2
   5016   5010   5009   5017     1  0.0000000  0.6024960  3
   5017   5009   5006   5018     1  0.0000000  4.9162000  2
   5017   5009   5006   5018     1  0.0000000  0.6024960  3
   5018   5006   5005   5019     1  0.0000000  0.6508444  3
   5018   5006   5005   5027     1  0.0000000  4.9162000  2
   5018   5006   5005   5027     1  0.0000000  0.6024960  3
   5025   5019   5005   5027     1  0.0000000  4.9162000  2
   5025   5019   5005   5027     1  0.0000000  0.6024960  3
      1      2     14     15     1  0.0000000  0.6508444  3
      1      2     14     16     1  0.0000000  0.6508444  3
      1      5     17     18     1  0.0000000  0.6508444  3
      1      5     17     19     1  0.0000000  0.6508444  3
      1      8     11     12     1  0.0000000  0.6508444  3
      1      8     11     13     1  0.0000000  0.6508444  3
      2      1      5      6     1  0.0000000  0.6508444  3
      2      1      5      7     1  0.0000000  0.6508444  3
      2      1      8      9     1  0.0000000  0.6508444  3
      2      1      8     10     1  0.0000000  0.6508444  3
      2     14     26     27     1  0.0000000  0.6508444  3
      2     14     26     28     1  0.0000000  0.6508444  3
      5      1      2      3     1  0.0000000  0.6508444  3
      8      1      2      3     1  0.0000000  0.6508444  3
     29      1      2      3     1  0.0000000  0.6508444  3
      3      2     14     26     1  0.0000000  0.6508444  3
      3      2     14     15     1  0.0000000  0.6508444  3
      3      2     14     16     1  0.0000000  0.6508444  3
      5      1      2      4     1  0.0000000  0.6508444  3
      8      1      2      4     1  0.0000000  0.6508444  3
     29      1      2      4     1  0.0000000  0.6508444  3
      4      2     14     26     1  0.0000000  0.6508444  3
      4      2     14     15     1  0.0000000  0.6508444  3
      4      2     14     16     1  0.0000000  0.6508444  3
      5      1      8      9     1  0.0000000  0.6508444  3
      5      1      8     10     1  0.0000000  0.6508444  3
      5     17     20     21     1  0.0000000  0.6508444  3
      5     17     20     22     1  0.0000000  0.6508444  3
      8      1      5      6     1  0.0000000  0.6508444  3
     29      1      5      6     1  0.0000000  0.6508444  3
      6      5     17     20     1  0.0000000  0.6508444  3
      6      5     17     18     1  0.0000000  0.6508444  3
      6      5     17     19     1  0.0000000  0.6508444  3
      8      1      5      7     1  0.0000000  0.6508444  3
     29      1      5      7     1  0.0000000  0.6508444  3
      7      5     17     20     1  0.0000000  0.6508444  3
      7      5     17     18     1  0.0000000  0.6508444  3
      7      5     17     19     1  0.0000000  0.6508444  3
      8     11     23     24     1  0.0000000  0.6508444  3
      8     11     23     25     1  0.0000000  0.6508444  3
     29      1      8      9     1  0.0000000  0.6508444  3
      9      8     11     23     1  0.0000000  0.6508444  3
      9      8     11     12     1  0.0000000  0.6508444  3
      9      8     11     13     1  0.0000000  0.6508444  3
     29      1      8     10     1  0.0000000  0.6508444  3
     10      8     11     23     1  0.0000000  0.6508444  3
     10      8     11     12     1  0.0000000  0.6508444  3
     10      8     11     13     1  0.0000000  0.6508444  3
     29      1      8     11     1  0.0000000  0.6508444  3
     12     11     23     88     1  0.0000000  1.0460000  1
     12     11     23     88     1  0.0000000  0.0000000  3
     12     11     23     24     1  0.0000000  0.6508444  3
     12     11     23     25     1  0.0000000  0.6508444  3
     13     11     23     88     1  0.0000000  1.0460000  1
     13     11     23     88     1  0.0000000  0.0000000  3
     13     11     23     24     1  0.0000000  0.6508444  3
     13     11     23     25     1  0.0000000  0.6508444  3
     29      1      2     14     1  0.0000000  0.6508444  3
     15     14     26    118     1  0.0000000  1.0460000  1
     15     14     26    118     1  0.0000000  0.0000000  3
     15     14     26     27     1  0.0000000  0.6508444  3
     15     14     26     28     1  0.0000000  0.6508444  3
     16     14     26    118     1  0.0000000  1.0460000  1
     16     14     26    118     1  0.0000000  0.0000000  3
     16     14     26     27     1  0.0000000  0.6508444  3
     16     14     26     28     1  0.0000000  0.6508444  3
     29      1      5     17     1  0.0000000  0.6508444  3
     18     17     20     58     1  0.0000000  1.0460000  1
     18     17     20     58     1  0.0000000  0.0000000  3
     18     17     20     21     1  0.0000000  0.6508444  3
     18     17     20     22     1  0.0000000  0.6508444  3
     19     17     20     58     1  0.0000000  1.0460000  1
     19     17     20     58     1  0.0000000  0.0000000  3
     19     17     20     21     1  0.0000000  0.6508444  3
     19     17     20     22     1  0.0000000  0.6508444  3
     20     58     49     50     1  0.0000000  1.6038667  3
     20     58     49     51     1  0.0000000  1.6038667  3
     21     20     58     49     1  0.0000000  1.6038667  3
     22     20     58     49     1  0.0000000  1.6038667  3
     23     88     79     80     1  0.0000000  1.6038667  3
     23     88     79     81     1  0.0000000  1.6038667  3
     24     23     88     79     1  0.0000000  1.6038667  3
     25     23     88     79     1  0.0000000  1.6038667  3
     26    118    109    110     1  0.0000000  1.6038667  3
     26    118    109    111     1  0.0000000  1.6038667  3
     27     26    118    109     1  0.0000000  1.6038667  3
     28     26    118    109     1  0.0000000  1.6038667  3
     30     31     43     44     1  0.0000000  0.6508444  3
     30     31     43     45     1  0.0000000  0.6508444  3
     30     34     46     47     1  0.0000000  0.6508444  3
     30     34     46     48     1  0.0000000  0.6508444  3
     30     37     40     41     1  0.0000000  0.6508444  3
     30     37     40     42     1  0.0000000  0.6508444  3
     31     30     34     35     1  0.0000000  0.6508444  3
     31     30     34     36     1  0.0000000  0.6508444  3
     31     30     37     38     1  0.0000000  0.6508444  3
     31     30     37     39     1  0.0000000  0.6508444  3
     31     43     55     56     1  0.0000000  0.6508444  3
     31     43     55     57     1  0.0000000  0.6508444  3
     32     31     30     34     1  0.0000000  0.6508444  3
     32     31     30     37     1  0.0000000  0.6508444  3
     32     31     30     59     1  0.0000000  0.6508444  3
     32     31     43     55     1  0.0000000  0.6508444  3
     32     31     43     44     1  0.0000000  0.6508444  3
     32     31     43     45     1  0.0000000  0.6508444  3
     33     31     30     34     1  0.0000000  0.6508444  3
     33     31     30     37     1  0.0000000  0.6508444  3
     33     31     30     59     1  0.0000000  0.6508444  3
     33     31     43     55     1  0.0000000  0.6508444  3
     33     31     43     44     1  0.0000000  0.6508444  3
     33     31     43     45     1  0.0000000  0.6508444  3
     34     30     37     38     1  0.0000000  0.6508444  3
     34     30     37     39     1  0.0000000  0.6508444  3
     34     46     52     53     1  0.0000000  0.6508444  3
     34     46     52     54     1  0.0000000  0.6508444  3
     35     34     30     37     1  0.0000000  0.6508444  3
     35     34     30     59     1  0.0000000  0.6508444  3
     35     34     46     52     1  0.0000000  0.6508444  3
     35     34     46     47     1  0.0000000  0.6508444  3
     35     34     46     48     1  0.0000000  0.6508444  3
     36     34     30     37     1  0.0000000  0.6508444  3
     36     34     30     59     1  0.0000000  0.6508444  3
     36     34     46     52     1  0.0000000  0.6508444  3
     36     34     46     47     1  0.0000000  0.6508444  3
     36     34     46     48     1  0.0000000  0.6508444  3
     37     40     49     50     1  0.0000000  0.6508444  3
     37     40     49     51     1  0.0000000  0.6508444  3
     38     37     30     59     1  0.0000000  0.6508444  3
     38     37     40     49     1  0.0000000  0.6508444  3
     38     37     40     41     1  0.0000000  0.6508444  3
     38     37     40     42     1  0.0000000  0.6508444  3
     39     37     30     59     1  0.0000000  0.6508444  3
     39     37     40     49     1  0.0000000  0.6508444  3
     39     37     40     41     1  0.0000000  0.6508444  3
     39     37     40     42     1  0.0000000  0.6508444  3
     40     37     30     59     1  0.0000000  0.6508444  3
     41     40     49     58     1  0.0000000  1.0460000  1
     41     40     49     58     1  0.0000000  0.0000000  3
     41     40     49     50     1  0.0000000  0.6508444  3
     41     40     49     51     1  0.0000000  0.6508444  3
     42     40     49     58     1  0.0000000  1.0460000  1
     42     40     49     58     1  0.0000000  0.0000000  3
     42     40     49     50     1  0.0000000  0.6508444  3
     42     40     49     51     1  0.0000000  0.6508444  3
     43     31     30     59     1  0.0000000  0.6508444  3
     44     43     55    178     1  0.0000000  1.0460000  1
     44     43     55    178     1  0.0000000  0.0000000  3
     44     43     55     56     1  0.0000000  0.6508444  3
     44     43     55     57     1  0.0000000  0.6508444  3
     45     43     55    178     1  0.0000000  1.0460000  1
     45     43     55    178     1  0.0000000  0.0000000  3
     45     43     55     56     1  0.0000000  0.6508444  3
     45     43     55     57     1  0.0000000  0.6508444  3
     46     34     30     59     1  0.0000000  0.6508444  3
     47     46     52    148     1  0.0000000  1.0460000  1
     47     46     52    148     1  0.0000000  0.0000000  3
     47     46     52     53     1  0.0000000  0.6508444  3
     47     46     52     54     1  0.0000000  0.6508444  3
     48     46     52    148     1  0.0000000  1.0460000  1
     48     46     52    148     1  0.0000000  0.0000000  3
     48     46     52     53     1  0.0000000  0.6508444  3
     48     46     52     54     1  0.0000000  0.6508444  3
     52    148    139    140     1  0.0000000  1.6038667  3
     52    148    139    141     1  0.0000000  1.6038667  3
     53     52    148    139     1  0.0000000  1.6038667  3
     54     52    148    139     1  0.0000000  1.6038667  3
     55    178    169    170     1  0.0000000  1.6038667  3
     55    178    169    171     1  0.0000000  1.6038667  3
     56     55    178    169     1  0.0000000  1.6038667  3
     57     55    178    169     1  0.0000000  1.6038667  3
     60     61     73     74     1  0.0000000  0.6508444  3
     60     61     73     75     1  0.0000000  0.6508444  3
     60     64     76     77     1  0.0000000  0.6508444  3
     60     64     76     78     1  0.0000000  0.6508444  3
     60     67     70     71     1  0.0000000  0.6508444  3
     60     67     70     72     1  0.0000000  0.6508444  3
     61     60     64     65     1  0.0000000  0.6508444  3
     61     60     64     66     1  0.0000000  0.6508444  3
     61     60     67     68     1  0.0000000  0.6508444  3
     61     60     67     69     1  0.0000000  0.6508444  3
     61     73     85     86     1  0.0000000  0.6508444  3
     61     73     85     87     1  0.0000000  0.6508444  3
     62     61     60     64     1  0.0000000  0.6508444  3
     62     61     60     67     1  0.0000000  0.6508444  3
     62     61     60     89     1  0.0000000  0.6508444  3
     62     61     73     85     1  0.0000000  0.6508444  3
     62     61     73     74     1  0.0000000  0.6508444  3
     62     61     73     75     1  0.0000000  0.6508444  3
     63     61     60     64     1  0.0000000  0.6508444  3
     63     61     60     67     1  0.0000000  0.6508444  3
     63     61     60     89     1  0.0000000  0.6508444  3
     63     61     73     85     1  0.0000000  0.6508444  3
     63     61     73     74     1  0.0000000  0.6508444  3
     63     61     73     75     1  0.0000000  0.6508444  3
     64     60     67     68     1  0.0000000  0.6508444  3
     64     60     67     69     1  0.0000000  0.6508444  3
     64     76     82     83     1  0.0000000  0.6508444  3
     64     76     82     84     1  0.0000000  0.6508444  3
     65     64     60     67     1  0.0000000  0.6508444  3
     65     64     60     89     1  0.0000000  0.6508444  3
     65     64     76     82     1  0.0000000  0.6508444  3
     65     64     76     77     1  0.0000000  0.6508444  3
     65     64     76     78     1  0.0000000  0.6508444  3
     66     64     60     67     1  0.0000000  0.6508444  3
     66     64     60     89     1  0.0000000  0.6508444  3
     66     64     76     82     1  0.0000000  0.6508444  3
     66     64     76     77     1  0.0000000  0.6508444  3
     66     64     76     78     1  0.0000000  0.6508444  3
     67     70     79     80     1  0.0000000  0.6508444  3
     67     70     79     81     1  0.0000000  0.6508444  3
     68     67     60     89     1  0.0000000  0.6508444  3
     68     67     70     79     1  0.0000000  0.6508444  3
     68     67     70     71     1  0.0000000  0.6508444  3
     68     67     70     72     1  0.0000000  0.6508444  3
     69     67     60     89     1  0.0000000  0.6508444  3
     69     67     70     79     1  0.0000000  0.6508444  3
     69     67     70     71     1  0.0000000  0.6508444  3
     69     67     70     72     1  0.0000000  0.6508444  3
     70     67     60     89     1  0.0000000  0.6508444  3
     71     70     79     88     1  0.0000000  1.0460000  1
     71     70     79     88     1  0.0000000  0.0000000  3
     71     70     79     80     1  0.0000000  0.6508444  3
     71     70     79     81     1  0.0000000  0.6508444  3
     72     70     79     88     1  0.0000000  1.0460000  1
     72     70     79     88     1  0.0000000  0.0000000  3
     72     70     79     80     1  0.0000000  0.6508444  3
     72     70     79     81     1  0.0000000  0.6508444  3
     73     61     60     89     1  0.0000000  0.6508444  3
     74     73     85    238     1  0.0000000  1.0460000  1
     74     73     85    238     1  0.0000000  0.0000000  3
     74     73     85     86     1  0.0000000  0.6508444  3
     74     73     85     87     1  0.0000000  0.6508444  3
     75     73     85    238     1  0.0000000  1.0460000  1
     75     73     85    238     1  0.0000000  0.0000000  3
     75     73     85     86     1  0.0000000  0.6508444  3
     75     73     85     87     1  0.0000000  0.6508444  3
     76     64     60     89     1  0.0000000  0.6508444  3
     77     76     82    208     1  0.0000000  1.0460000  1
     77     76     82    208     1  0.0000000  0.0000000  3
     77     76     82     83     1  0.0000000  0.6508444  3
     77     76     82     84     1  0.0000000  0.6508444  3
     78     76     82    208     1  0.0000000  1.0460000  1
     78     76     82    208     1  0.0000000  0.0000000  3
     78     76     82     83     1  0.0000000  0.6508444  3
     78     76     82     84     1  0.0000000  0.6508444  3
     82    208    199    200     1  0.0000000  1.6038667  3
     82    208    199    201     1  0.0000000  1.6038667  3
     83     82    208    199     1  0.0000000  1.6038667  3
     84     82    208    199     1  0.0000000  1.6038667  3
     85    238    229    230     1  0.0000000  1.6038667  3
     85    238    229    231     1  0.0000000  1.6038667  3
     86     85    238    229     1  0.0000000  1.6038667  3
     87     85    238    229     1  0.0000000  1.6038667  3
     90     91    103    104     1  0.0000000  0.6508444  3
     90     91    103    105     1  0.0000000  0.6508444  3
     90     94    106    107     1  0.0000000  0.6508444  3
     90     94    106    108     1  0.0000000  0.6508444  3
     90     97    100    101     1  0.0000000  0.6508444  3
     90     97    100    102     1  0.0000000  0.6508444  3
     91     90     94     95     1  0.0000000  0.6508444  3
     91     90     94     96     1  0.0000000  0.6508444  3
     91     90     97     98     1  0.0000000  0.6508444  3
     91     90     97     99     1  0.0000000  0.6508444  3
     91    103    115    116     1  0.0000000  0.6508444  3
     91    103    115    117     1  0.0000000  0.6508444  3
     92     91     90     94     1  0.0000000  0.6508444  3
     92     91     90     97     1  0.0000000  0.6508444  3
     92     91     90    119     1  0.0000000  0.6508444  3
     92     91    103    115     1  0.0000000  0.6508444  3
     92     91    103    104     1  0.0000000  0.6508444  3
     92     91    103    105     1  0.0000000  0.6508444  3
     93     91     90     94     1  0.0000000  0.6508444  3
     93     91     90     97     1  0.0000000  0.6508444  3
     93     91     90    119     1  0.0000000  0.6508444  3
     93     91    103    115     1  0.0000000  0.6508444  3
     93     91    103    104     1  0.0000000  0.6508444  3
     93     91    103    105     1  0.0000000  0.6508444  3
     94     90     97     98     1  0.0000000  0.6508444  3
     94     90     97     99     1  0.0000000  0.6508444  3
     94    106    112    113     1  0.0000000  0.6508444  3
     94    106    112    114     1  0.0000000  0.6508444  3
     95     94     90     97     1  0.0000000  0.6508444  3
     95     94     90    119     1  0.0000000  0.6508444  3
     95     94    106    112     1  0.0000000  0.6508444  3
     95     94    106    107     1  0.0000000  0.6508444  3
     95     94    106    108     1  0.0000000  0.6508444  3
     96     94     90     97     1  0.0000000  0.6508444  3
     96     94     90    119     1  0.0000000  0.6508444  3
     96     94    106    112     1  0.0000000  0.6508444  3
     96     94    106    107     1  0.0000000  0.6508444  3
     96     94    106    108     1  0.0000000  0.6508444  3
     97    100    109    110     1  0.0000000  0.6508444  3
     97    100    109    111     1  0.0000000  0.6508444  3
     98     97     90    119     1  0.0000000  0.6508444  3
     98     97    100    109     1  0.0000000  0.6508444  3
     98     97    100    101     1  0.0000000  0.6508444  3
     98     97    100    102     1  0.0000000  0.6508444  3
     99     97     90    119     1  0.0000000  0.6508444  3
     99     97    100    109     1  0.0000000  0.6508444  3
     99     97    100    101     1  0.0000000  0.6508444  3
     99     97    100    102     1  0.0000000  0.6508444  3
    100     97     90    119     1  0.0000000  0.6508444  3
    101    100    109    118     1  0.0000000  1.0460000  1
    101    100    109    118     1  0.0000000  0.0000000  3
    101    100    109    110     1  0.0000000  0.6508444  3
    101    100    109    111     1  0.0000000  0.6508444  3
    102    100    109    118     1  0.0000000  1.0460000  1
    102    100    109    118     1  0.0000000  0.0000000  3
    102    100    109    110     1  0.0000000  0.6508444  3
    102    100    109    111     1  0.0000000  0.6508444  3
    103     91     90    119     1  0.0000000  0.6508444  3
    104    103    115    298     1  0.0000000  1.0460000  1
    104    103    115    298     1  0.0000000  0.0000000  3
    104    103    115    116     1  0.0000000  0.6508444  3
    104    103    115    117     1  0.0000000  0.6508444  3
    105    103    115    298     1  0.0000000  1.0460000  1
    105    103    115    298     1  0.0000000  0.0000000  3
    105    103    115    116     1  0.0000000  0.6508444  3
    105    103    115    117     1  0.0000000  0.6508444  3
    106     94     90    119     1  0.0000000  0.6508444  3
    107    106    112    268     1  0.0000000  1.0460000  1
    107    106    112    268     1  0.0000000  0.0000000  3
    107    106    112    113     1  0.0000000  0.6508444  3
    107    106    112    114     1  0.0000000  0.6508444  3
    108    106    112    268     1  0.0000000  1.0460000  1
    108    106    112    268     1  0.0000000  0.0000000  3
    108    106    112    113     1  0.0000000  0.6508444  3
    108    106    112    114     1  0.0000000  0.6508444  3
    112    268    259    260     1  0.0000000  1.6038667  3
    112    268    259    261     1  0.0000000  1.6038667  3
    113    112    268    259     1  0.0000000  1.6038667  3
    114    112    268    259     1  0.0000000  1.6038667  3
    115    298    289    290     1  0.0000000  1.6038667  3
    115    298    289    291     1  0.0000000  1.6038667  3
    116    115    298    289     1  0.0000000  1.6038667  3
    117    115    298    289     1  0.0000000  1.6038667  3
    120    121    133    134     1  0.0000000  0.6508444  3
    120    121    133    135     1  0.0000000  0.6508444  3
    120    124    136    137     1  0.0000000  0.6508444  3
    120    124    136    138     1  0.0000000  0.6508444  3
    120    127    130    131     1  0.0000000  0.6508444  3
    120    127    130    132     1  0.0000000  0.6508444  3
    121    120    124    125     1  0.0000000  0.6508444  3
    121    120    124    126     1  0.0000000  0.6508444  3
    121    120    127    128     1  0.0000000  0.6508444  3
    121    120    127    129     1  0.0000000  0.6508444  3
    121    133    145    146     1  0.0000000  0.6508444  3
    121    133    145    147     1  0.0000000  0.6508444  3
    122    121    120    124     1  0.0000000  0.6508444  3
    122    121    120    127     1  0.0000000  0.6508444  3
    122    121    120    149     1  0.0000000  0.6508444  3
    122    121    133    145     1  0.0000000  0.6508444  3
    122    121    133    134     1  0.0000000  0.6508444  3
    122    121    133    135     1  0.0000000  0.6508444  3
    123    121    120    124     1  0.0000000  0.6508444  3
    123    121    120    127     1  0.0000000  0.6508444  3
    123    121    120    149     1  0.0000000  0.6508444  3
    123    121    133    145     1  0.0000000  0.6508444  3
    123    121    133    134     1  0.0000000  0.6508444  3
    123    121    133    135     1  0.0000000  0.6508444  3
    124    120    127    128     1  0.0000000  0.6508444  3
    124    120    127    129     1  0.0000000  0.6508444  3
    124    136    142    143     1  0.0000000  0.6508444  3
    124    136    142    144     1  0.0000000  0.6508444  3
    125    124    120    127     1  0.0000000  0.6508444  3
    125    124    120    149     1  0.0000000  0.6508444  3
    125    124    136    142     1  0.0000000  0.6508444  3
    125    124    136    137     1  0.0000000  0.6508444  3
    125    124    136    138     1  0.0000000  0.6508444  3
    126    124    120    127     1  0.0000000  0.6508444  3
    126    124    120    149     1  0.0000000  0.6508444  3
    126    124    136    142     1  0.0000000  0.6508444  3
    126    124    136    137     1  0.0000000  0.6508444  3
    126    124    136    138     1  0.0000000  0.6508444  3
    127    130    139    140     1  0.0000000  0.6508444  3
    127    130    139    141     1  0.0000000  0.6508444  3
    128    127    120    149     1  0.0000000  0.6508444  3
    128    127    130    139     1  0.0000000  0.6508444  3
    128    127    130    131     1  0.0000000  0.6508444  3
    128    127    130    132     1  0.0000000  0.6508444  3
    129    127    120    149     1  0.0000000  0.6508444  3
    129    127    130    139     1  0.0000000  0.6508444  3
    129    127    130    131     1  0.0000000  0.6508444  3
    129    127    130    132     1  0.0000000  0.6508444  3
    130    127    120    149     1  0.0000000  0.6508444  3
    131    130    139    148     1  0.0000000  1.0460000  1
    131    130    139    148     1  0.0000000  0.0000000  3
    131    130    139    140     1  0.0000000  0.6508444  3
    131    130    139    141     1  0.0000000  0.6508444  3
    132    130    139    148     1  0.0000000  1.0460000  1
    132    130    139    148     1  0.0000000  0.0000000  3
    132    130    139    140     1  0.0000000  0.6508444  3
    132    130    139    141     1  0.0000000  0.6508444  3
    133    121    120    149     1  0.0000000  0.6508444  3
    134    133    145    358     1  0.0000000  1.0460000  1
    134    133    145    358     1  0.0000000  0.0000000  3
    134    133    145    146     1  0.0000000  0.6508444  3
    134    133    145    147     1  0.0000000  0.6508444  3
    135    133    145    358     1  0.0000000  1.0460000  1
    135    133    145    358     1  0.0000000  0.0000000  3
    135    133    145    146     1  0.0000000  0.6508444  3
    135    133    145    147     1  0.0000000  0.6508444  3
    136    124    120    149     1  0.0000000  0.6508444  3
    137    136    142    328     1  0.0000000  1.0460000  1
    137    136    142    328     1  0.0000000  0.0000000  3
    137    136    142    143     1  0.0000000  0.6508444  3
    137    136    142    144     1  0.0000000  0.6508444  3
    138    136    142    328     1  0.0000000  1.0460000  1
    138    136    142    328     1  0.0000000  0.0000000  3
    138    136    142    143     1  0.0000000  0.6508444  3
    138    136    142    144     1  0.0000000  0.6508444  3
    142    328    319    320     1  0.0000000  1.6038667  3
    142    328    319    321     1  0.0000000  1.6038667  3
    143    142    328    319     1  0.0000000  1.6038667  3
    144    142    328    319     1  0.0000000  1.6038667  3
    145    358    349    350     1  0.0000000  1.6038667  3
    145    358    349    351     1  0.0000000  1.6038667  3
    146    145    358    349     1  0.0000000  1.6038667  3
    147    145    358    349     1  0.0000000  1.6038667  3
    150    151    163    164     1  0.0000000  0.6508444  3
    150    151    163    165     1  0.0000000  0.6508444  3
    150    154    166    167     1  0.0000000  0.6508444  3
    150    154    166    168     1  0.0000000  0.6508444  3
    150    157    160    161     1  0.0000000  0.6508444  3
    150    157    160    162     1  0.0000000  0.6508444  3
    151    150    154    155     1  0.0000000  0.6508444  3
    151    150    154    156     1  0.0000000  0.6508444  3
    151    150    157    158     1  0.0000000  0.6508444  3
    151    150    157    159     1  0.0000000  0.6508444  3
    151    163    175    176     1  0.0000000  0.6508444  3
    151    163    175    177     1  0.0000000  0.6508444  3
    152    151    150    154     1  0.0000000  0.6508444  3
    152    151    150    157     1  0.0000000  0.6508444  3
    152    151    150    179     1  0.0000000  0.6508444  3
    152    151    163    175     1  0.0000000  0.6508444  3
    152    151    163    164     1  0.0000000  0.6508444  3
    152    151    163    165     1  0.0000000  0.6508444  3
    153    151    150    154     1  0.0000000  0.6508444  3
    153    151    150    157     1  0.0000000  0.6508444  3
    153    151    150    179     1  0.0000000  0.6508444  3
    153    151    163    175     1  0.0000000  0.6508444  3
    153    151    163    164     1  0.0000000  0.6508444  3
    153    151    163    165     1  0.0000000  0.6508444  3
    154    150    157    158     1  0.0000000  0.6508444  3
    154    150    157    159     1  0.0000000  0.6508444  3
    154    166    172    173     1  0.0000000  0.6508444  3
    154    166    172    174     1  0.0000000  0.6508444  3
    155    154    150    157     1  0.0000000  0.6508444  3
    155    154    150    179     1  0.0000000  0.6508444  3
    155    154    166    172     1  0.0000000  0.6508444  3
    155    154    166    167     1  0.0000000  0.6508444  3
    155    154    166    168     1  0.0000000  0.6508444  3
    156    154    150    157     1  0.0000000  0.6508444  3
    156    154    150    179     1  0.0000000  0.6508444  3
    156    154    166    172     1  0.0000000  0.6508444  3
    156    154    166    167     1  0.0000000  0.6508444  3
    156    154    166    168     1  0.0000000  0.6508444  3
    157    160    169    170     1  0.0000000  0.6508444  3
    157    160    169    171     1  0.0000000  0.6508444  3
    158    157    150    179     1  0.0000000  0.6508444  3
    158    157    160    169     1  0.0000000  0.6508444  3
    158    157    160    161     1  0.0000000  0.6508444  3
    158    157    160    162     1  0.0000000  0.6508444  3
    159    157    150    179     1  0.0000000  0.6508444  3
    159    157    160    169     1  0.0000000  0.6508444  3
    159    157    160    161     1  0.0000000  0.6508444  3
    159    157    160    162     1  0.0000000  0.6508444  3
    160    157    150    179     1  0.0000000  0.6508444  3
    161    160    169    178     1  0.0000000  1.0460000  1
    161    160    169    178     1  0.0000000  0.0000000  3
    161    160    169    170     1  0.0000000  0.6508444  3
    161    160    169    171     1  0.0000000  0.6508444  3
    162    160    169    178     1  0.0000000  1.0460000  1
    162    160    169    178     1  0.0000000  0.0000000  3
    162    160    169    170     1  0.0000000  0.6508444  3
    162    160    169    171     1  0.0000000  0.6508444  3
    163    151    150    179     1  0.0000000  0.6508444  3
    164    163    175    418     1  0.0000000  1.0460000  1
    164    163    175    418     1  0.0000000  0.0000000  3
    164    163    175    176     1  0.0000000  0.6508444  3
    164    163    175    177     1  0.0000000  0.6508444  3
    165    163    175    418     1  0.0000000  1.0460000  1
    165    163    175    418     1  0.0000000  0.0000000  3
    165    163    175    176     1  0.0000000  0.6508444  3
    165    163    175    177     1  0.0000000  0.6508444  3
    166    154    150    179     1  0.0000000  0.6508444  3
    167    166    172    388     1  0.0000000  1.0460000  1
    167    166    172    388     1  0.0000000  0.0000000  3
    167    166    172    173     1  0.0000000  0.6508444  3
    167    166    172    174     1  0.0000000  0.6508444  3
    168    166    172    388     1  0.0000000  1.0460000  1
    168    166    172    388     1  0.0000000  0.0000000  3
    168    166    172    173     1  0.0000000  0.6508444  3
    168    166    172    174     1  0.0000000  0.6508444  3
    172    388    379    380     1  0.0000000  1.6038667  3
    172    388    379    381     1  0.0000000  1.6038667  3
    173    172    388    379     1  0.0000000  1.6038667  3
    174    172    388    379     1  0.0000000  1.6038667  3
    175    418    409    410     1  0.0000000  1.6038667  3
    175    418    409    411     1  0.0000000  1.6038667  3
    176    175    418    409     1  0.0000000  1.6038667  3
    177    175    418    409     1  0.0000000  1.6038667  3
    180    181    193    194     1  0.0000000  0.6508444  3
    180    181    193    195     1  0.0000000  0.6508444  3
    180    184    196    197     1  0.0000000  0.6508444  3
    180    184    196    198     1  0.0000000  0.6508444  3
    180    187    190    191     1  0.0000000  0.6508444  3
    180    187    190    192     1  0.0000000  0.6508444  3
    181    180    184    185     1  0.0000000  0.6508444  3
    181    180    184    186     1  0.0000000  0.6508444  3
    181    180    187    188     1  0.0000000  0.6508444  3
    181    180    187    189     1  0.0000000  0.6508444  3
    181    193    205    206     1  0.0000000  0.6508444  3
    181    193    205    207     1  0.0000000  0.6508444  3
    182    181    180    184     1  0.0000000  0.6508444  3
    182    181    180    187     1  0.0000000  0.6508444  3
    182    181    180    209     1  0.0000000  0.6508444  3
    182    181    193    205     1  0.0000000  0.6508444  3
    182    181    193    194     1  0.0000000  0.6508444  3
    182    181    193    195     1  0.0000000  0.6508444  3
    183    181    180    184     1  0.0000000  0.6508444  3
    183    181    180    187     1  0.0000000  0.6508444  3
    183    181    180    209     1  0.0000000  0.6508444  3
    183    181    193    205     1  0.0000000  0.6508444  3
    183    181    193    194     1  0.0000000  0.6508444  3
    183    181    193    195     1  0.0000000  0.6508444  3
    184    180    187    188     1  0.0000000  0.6508444  3
    184    180    187    189     1  0.0000000  0.6508444  3
    184    196    202    203     1  0.0000000  0.6508444  3
    184    196    202    204     1  0.0000000  0.6508444  3
    185    184    180    187     1  0.0000000  0.6508444  3
    185    184    180    209     1  0.0000000  0.6508444  3
    185    184    196    202     1  0.0000000  0.6508444  3
    185    184    196    197     1  0.0000000  0.6508444  3
    185    184    196    198     1  0.0000000  0.6508444  3
    186    184    180    187     1  0.0000000  0.6508444  3
    186    184    180    209     1  0.0000000  0.6508444  3
    186    184    196    202     1  0.0000000  0.6508444  3
    186    184    196    197     1  0.0000000  0.6508444  3
    186    184    196    198     1  0.0000000  0.6508444  3
    187    190    199    200     1  0.0000000  0.6508444  3
    187    190    199    201     1  0.0000000  0.6508444  3
    188    187    180    209     1  0.0000000  0.6508444  3
    188    187    190    199     1  0.0000000  0.6508444  3
    188    187    190    191     1  0.0000000  0.6508444  3
    188    187    190    192     1  0.0000000  0.6508444  3
    189    187    180    209     1  0.0000000  0.6508444  3
    189    187    190    199     1  0.0000000  0.6508444  3
    189    187    190    191     1  0.0000000  0.6508444  3
    189    187    190    192     1  0.0000000  0.6508444  3
    190    187    180    209     1  0.0000000  0.6508444  3
    191    190    199    208     1  0.0000000  1.0460000  1
    191    190    199    208     1  0.0000000  0.0000000  3
    191    190    199    200     1  0.0000000  0.6508444  3
    191    190    199    201     1  0.0000000  0.6508444  3
    192    190    199    208     1  0.0000000  1.0460000  1
    192    190    199    208     1  0.0000000  0.0000000  3
    192    190    199    200     1  0.0000000  0.6508444  3
    192    190    199    201     1  0.0000000  0.6508444  3
    193    181    180    209     1  0.0000000  0.6508444  3
    194    193    205    478     1  0.0000000  1.0460000  1
    194    193    205    478     1  0.0000000  0.0000000  3
    194    193    205    206     1  0.0000000  0.6508444  3
    194    193    205    207     1  0.0000000  0.6508444  3
    195    193    205    478     1  0.0000000  1.0460000  1
    195    193    205    478     1  0.0000000  0.0000000  3
    195    193    205    206     1  0.0000000  0.6508444  3
    195    193    205    207     1  0.0000000  0.6508444  3
    196    184    180    209     1  0.0000000  0.6508444  3
    197    196    202    448     1  0.0000000  1.0460000  1
    197    196    202    448     1  0.0000000  0.0000000  3
    197    196    202    203     1  0.0000000  0.6508444  3
    197    196    202    204     1  0.0000000  0.6508444  3
    198    196    202    448     1  0.0000000  1.0460000  1
    198    196    202    448     1  0.0000000  0.0000000  3
    198    196    202    203     1  0.0000000  0.6508444  3
    198    196    202    204     1  0.0000000  0.6508444  3
    202    448    439    440     1  0.0000000  1.6038667  3
    202    448    439    441     1  0.0000000  1.6038667  3
    203    202    448    439     1  0.0000000  1.6038667  3
    204    202    448    439     1  0.0000000  1.6038667  3
    205    478    469    470     1  0.0000000  1.6038667  3
    205    478    469    471     1  0.0000000  1.6038667  3
    206    205    478    469     1  0.0000000  1.6038667  3
    207    205    478    469     1  0.0000000  1.6038667  3
    210    211    223    224     1  0.0000000  0.6508444  3
    210    211    223    225     1  0.0000000  0.6508444  3
    210    214    226    227     1  0.0000000  0.6508444  3
    210    214    226    228     1  0.0000000  0.6508444  3
    210    217    220    221     1  0.0000000  0.6508444  3
    210    217    220    222     1  0.0000000  0.6508444  3
    211    210    214    215     1  0.0000000  0.6508444  3
    211    210    214    216     1  0.0000000  0.6508444  3
    211    210    217    218     1  0.0000000  0.6508444  3
    211    210    217    219     1  0.0000000  0.6508444  3
    211    223    235    236     1  0.0000000  0.6508444  3
    211    223    235    237     1  0.0000000  0.6508444  3
    212    211    210    214     1  0.0000000  0.6508444  3
    212    211    210    217     1  0.0000000  0.6508444  3
    212    211    210    239     1  0.0000000  0.6508444  3
    212    211    223    235     1  0.0000000  0.6508444  3
    212    211    223    224     1  0.0000000  0.6508444  3
    212    211    223    225     1  0.0000000  0.6508444  3
    213    211    210    214     1  0.0000000  0.6508444  3
    213    211    210    217     1  0.0000000  0.6508444  3
    213    211    210    239     1  0.0000000  0.6508444  3
    213    211    223    235     1  0.0000000  0.6508444  3
    213    211    223    224     1  0.0000000  0.6508444  3
    213    211    223    225     1  0.0000000  0.6508444  3
    214    210    217    218     1  0.0000000  0.6508444  3
    214    210    217    219     1  0.0000000  0.6508444  3
    214    226    232    233     1  0.0000000  0.6508444  3
    214    226    232    234     1  0.0000000  0.6508444  3
    215    214    210    217     1  0.0000000  0.6508444  3
    215    214    210    239     1  0.0000000  0.6508444  3
    215    214    226    232     1  0.0000000  0.6508444  3
    215    214    226    227     1  0.0000000  0.6508444  3
    215    214    226    228     1  0.0000000  0.6508444  3
    216    214    210    217     1  0.0000000  0.6508444  3
    216    214    210    239     1  0.0000000  0.6508444  3
    216    214    226    232     1  0.0000000  0.6508444  3
    216    214    226    227     1  0.0000000  0.6508444  3
    216    214    226    228     1  0.0000000  0.6508444  3
    217    220    229    230     1  0.0000000  0.6508444  3
    217    220    229    231     1  0.0000000  0.6508444  3
    218    217    210    239     1  0.0000000  0.6508444  3
    218    217    220    229     1  0.0000000  0.6508444  3
    218    217    220    221     1  0.0000000  0.6508444  3
    218    217    220    222     1  0.0000000  0.6508444  3
    219    217    210    239     1  0.0000000  0.6508444  3
    219    217    220    229     1  0.0000000  0.6508444  3
    219    217    220    221     1  0.0000000  0.6508444  3
    219    217    220    222     1  0.0000000  0.6508444  3
    220    217    210    239     1  0.0000000  0.6508444  3
    221    220    229    238     1  0.0000000  1.0460000  1
    221    220    229    238     1  0.0000000  0.0000000  3
    221    220    229    230     1  0.0000000  0.6508444  3
    221    220    229    231     1  0.0000000  0.6508444  3
    222    220    229    238     1  0.0000000  1.0460000  1
    222    220    229    238     1  0.0000000  0.0000000  3
    222    220    229    230     1  0.0000000  0.6508444  3
    222    220    229    231     1  0.0000000  0.6508444  3
    223    211    210    239     1  0.0000000  0.6508444  3
    224    223    235    538     1  0.0000000  1.0460000  1
    224    223    235    538     1  0.0000000  0.0000000  3
    224    223    235    236     1  0.0000000  0.6508444  3
    224    223    235    237     1  0.0000000  0.6508444  3
    225    223    235    538     1  0.0000000  1.0460000  1
    225    223    235    538     1  0.0000000  0.0000000  3
    225    223    235    236     1  0.0000000  0.6508444  3
    225    223    235    237     1  0.0000000  0.6508444  3
    226    214    210    239     1  0.0000000  0.6508444  3
    227    226    232    508     1  0.0000000  1.0460000  1
    227    226    232    508     1  0.0000000  0.0000000  3
    227    226    232    233     1  0.0000000  0.6508444  3
    227    226    232    234     1  0.0000000  0.6508444  3
    228    226    232    508     1  0.0000000  1.0460000  1
    228    226    232    508     1  0.0000000  0.0000000  3
    228    226    232    233     1  0.0000000  0.6508444  3
    228    226    232    234     1  0.0000000  0.6508444  3
    232    508    499    500     1  0.0000000  1.6038667  3
    232    508    499    501     1  0.0000000  1.6038667  3
    233    232    508    499     1  0.0000000  1.6038667  3
    234    232    508    499     1  0.0000000  1.6038667  3
    235    538    529    530     1  0.0000000  1.6038667  3
    235    538    529    531     1  0.0000000  1.6038667  3
    236    235    538    529     1  0.0000000  1.6038667  3
    237    235    538    529     1  0.0000000  1.6038667  3
    240    241    253    254     1  0.0000000  0.6508444  3
    240    241    253    255     1  0.0000000  0.6508444  3
    240    244    256    257     1  0.0000000  0.6508444  3
    240    244    256    258     1  0.0000000  0.6508444  3
    240    247    250    251     1  0.0000000  0.6508444  3
    240    247    250    252     1  0.0000000  0.6508444  3
    241    240    244    245     1  0.0000000  0.6508444  3
    241    240    244    246     1  0.0000000  0.6508444  3
    241    240    247    248     1  0.0000000  0.6508444  3
    241    240    247    249     1  0.0000000  0.6508444  3
    241    253    265    266     1  0.0000000  0.6508444  3
    241    253    265    267     1  0.0000000  0.6508444  3
    242    241    240    244     1  0.0000000  0.6508444  3
    242    241    240    247     1  0.0000000  0.6508444  3
    242    241    240    269     1  0.0000000  0.6508444  3
    242    241    253    265     1  0.0000000  0.6508444  3
    242    241    253    254     1  0.0000000  0.6508444  3
    242    241    253    255     1  0.0000000  0.6508444  3
    243    241    240    244     1  0.0000000  0.6508444  3
    243    241    240    247     1  0.0000000  0.6508444  3
    243    241    240    269     1  0.0000000  0.6508444  3
    243    241    253    265     1  0.0000000  0.6508444  3
    243    241    253    254     1  0.0000000  0.6508444  3
    243    241    253    255     1  0.0000000  0.6508444  3
    244    240    247    248     1  0.0000000  0.6508444  3
    244    240    247    249     1  0.0000000  0.6508444  3
    244    256    262    263     1  0.0000000  0.6508444  3
    244    256    262    264     1  0.0000000  0.6508444  3
    245    244    240    247     1  0.0000000  0.6508444  3
    245    244    240    269     1  0.0000000  0.6508444  3
    245    244    256    262     1  0.0000000  0.6508444  3
    245    244    256    257     1  0.0000000  0.6508444  3
    245    244    256    258     1  0.0000000  0.6508444  3
    246    244    240    247     1  0.0000000  0.6508444  3
    246    244    240    269     1  0.0000000  0.6508444  3
    246    244    256    262     1  0.0000000  0.6508444  3
    246    244    256    257     1  0.0000000  0.6508444  3
    246    244    256    258     1  0.0000000  0.6508444  3
    247    250    259    260     1  0.0000000  0.6508444  3
    247    250    259    261     1  0.0000000  0.6508444  3
    248    247    240    269     1  0.0000000  0.6508444  3
    248    247    250    259     1  0.0000000  0.6508444  3
    248    247    250    251     1  0.0000000  0.6508444  3
    248    247    250    252     1  0.0000000  0.6508444  3
    249    247    240    269     1  0.0000000  0.6508444  3
    249    247    250    259     1  0.0000000  0.6508444  3
    249    247    250    251     1  0.0000000  0.6508444  3
    249    247    250    252     1  0.0000000  0.6508444  3
    250    247    240    269     1  0.0000000  0.6508444  3
    251    250    259    268     1  0.0000000  1.0460000  1
    251    250    259    268     1  0.0000000  0.0000000  3
    251    250    259    260     1  0.0000000  0.6508444  3
    251    250    259    261     1  0.0000000  0.6508444  3
    252    250    259    268     1  0.0000000  1.0460000  1
    252    250    259    268     1  0.0000000  0.0000000  3
    252    250    259    260     1  0.0000000  0.6508444  3
    252    250    259    261     1  0.0000000  0.6508444  3
    253    241    240    269     1  0.0000000  0.6508444  3
    254    253    265    598     1  0.0000000  1.0460000  1
    254    253    265    598     1  0.0000000  0.0000000  3
    254    253    265    266     1  0.0000000  0.6508444  3
    254    253    265    267     1  0.0000000  0.6508444  3
    255    253    265    598     1  0.0000000  1.0460000  1
    255    253    265    598     1  0.0000000  0.0000000  3
    255    253    265    266     1  0.0000000  0.6508444  3
    255    253    265    267     1  0.0000000  0.6508444  3
    256    244    240    269     1  0.0000000  0.6508444  3
    257    256    262    568     1  0.0000000  1.0460000  1
    257    256    262    568     1  0.0000000  0.0000000  3
    257    256    262    263     1  0.0000000  0.6508444  3
    257    256    262    264     1  0.0000000  0.6508444  3
    258    256    262    568     1  0.0000000  1.0460000  1
    258    256    262    568     1  0.0000000  0.0000000  3
    258    256    262    263     1  0.0000000  0.6508444  3
    258    256    262    264     1  0.0000000  0.6508444  3
    262    568    559    560     1  0.0000000  1.6038667  3
    262    568    559    561     1  0.0000000  1.6038667  3
    263    262    568    559     1  0.0000000  1.6038667  3
    264    262    568    559     1  0.0000000  1.6038667  3
    265    598    589    590     1  0.0000000  1.6038667  3
    265    598    589    591     1  0.0000000  1.6038667  3
    266    265    598    589     1  0.0000000  1.6038667  3
    267    265    598    589     1  0.0000000  1.6038667  3
    270    271    283    284     1  0.0000000  0.6508444  3
    270    271    283    285     1  0.0000000  0.6508444  3
    270    274    286    287     1  0.0000000  0.6508444  3
    270    274    286    288     1  0.0000000  0.6508444  3
    270    277    280    281     1  0.0000000  0.6508444  3
    270    277    280    282     1  0.0000000  0.6508444  3
    271    270    274    275     1  0.0000000  0.6508444  3
    271    270    274    276     1  0.0000000  0.6508444  3
    271    270    277    278     1  0.0000000  0.6508444  3
    271    270    277    279     1  0.0000000  0.6508444  3
    271    283    295    296     1  0.0000000  0.6508444  3
    271    283    295    297     1  0.0000000  0.6508444  3
    272    271    270    274     1  0.0000000  0.6508444  3
    272    271    270    277     1  0.0000000  0.6508444  3
    272    271    270    299     1  0.0000000  0.6508444  3
    272    271    283    295     1  0.0000000  0.6508444  3
    272    271    283    284     1  0.0000000  0.6508444  3
    272    271    283    285     1  0.0000000  0.6508444  3
    273    271    270    274     1  0.0000000  0.6508444  3
    273    271    270    277     1  0.0000000  0.6508444  3
    273    271    270    299     1  0.0000000  0.6508444  3
    273    271    283    295     1  0.0000000  0.6508444  3
    273    271    283    284     1  0.0000000  0.6508444  3
    273    271    283    285     1  0.0000000  0.6508444  3
    274    270    277    278     1  0.0000000  0.6508444  3
    274    270    277    279     1  0.0000000  0.6508444  3
    274    286    292    293     1  0.0000000  0.6508444  3
    274    286    292    294     1  0.0000000  0.6508444  3
    275    274    270    277     1  0.0000000  0.6508444  3
    275    274    270    299     1  0.0000000  0.6508444  3
    275    274    286    292     1  0.0000000  0.6508444  3
    275    274    286    287     1  0.0000000  0.6508444  3
    275    274    286    288     1  0.0000000  0.6508444  3
    276    274    270    277     1  0.0000000  0.6508444  3
    276    274    270    299     1  0.0000000  0.6508444  3
    276    274    286    292     1  0.0000000  0.6508444  3
    276    274    286    287     1  0.0000000  0.6508444  3
    276    274    286    288     1  0.0000000  0.6508444  3
    277    280    289    290     1  0.0000000  0.6508444  3
    277    280    289    291     1  0.0000000  0.6508444  3
    278    277    270    299     1  0.0000000  0.6508444  3
    278    277    280    289     1  0.0000000  0.6508444  3
    278    277    280    281     1  0.0000000  0.6508444  3
    278    277    280    282     1  0.0000000  0.6508444  3
    279    277    270    299     1  0.0000000  0.6508444  3
    279    277    280    289     1  0.0000000  0.6508444  3
    279    277    280    281     1  0.0000000  0.6508444  3
    279    277    280    282     1  0.0000000  0.6508444  3
    280    277    270    299     1  0.0000000  0.6508444  3
    281    280    289    298     1  0.0000000  1.0460000  1
    281    280    289    298     1  0.0000000  0.0000000  3
    281    280    289    290     1  0.0000000  0.6508444  3
    281    280    289    291     1  0.0000000  0.6508444  3
    282    280    289    298     1  0.0000000  1.0460000  1
    282    280    289    298     1  0.0000000  0.0000000  3
    282    280    289    290     1  0.0000000  0.6508444  3
    282    280    289    291     1  0.0000000  0.6508444  3
    283    271    270    299     1  0.0000000  0.6508444  3
    284    283    295    658     1  0.0000000  1.0460000  1
    284    283    295    658     1  0.0000000  0.0000000  3
    284    283    295    296     1  0.0000000  0.6508444  3
    284    283    295    297     1  0.0000000  0.6508444  3
    285    283    295    658     1  0.0000000  1.0460000  1
    285    283    295    658     1  0.0000000  0.0000000  3
    285    283    295    296     1  0.0000000  0.6508444  3
    285    283    295    297     1  0.0000000  0.6508444  3
    286    274    270    299     1  0.0000000  0.6508444  3
    287    286    292    628     1  0.0000000  1.0460000  1
    287    286    292    628     1  0.0000000  0.0000000  3
    287    286    292    293     1  0.0000000  0.6508444  3
    287    286    292    294     1  0.0000000  0.6508444  3
    288    286    292    628     1  0.0000000  1.0460000  1
    288    286    292    628     1  0.0000000  0.0000000  3
    288    286    292    293     1  0.0000000  0.6508444  3
    288    286    292    294     1  0.0000000  0.6508444  3
    292    628    619    620     1  0.0000000  1.6038667  3
    292    628    619    621     1  0.0000000  1.6038667  3
    293    292    628    619     1  0.0000000  1.6038667  3
    294    292    628    619     1  0.0000000  1.6038667  3
    295    658    649    650     1  0.0000000  1.6038667  3
    295    658    649    651     1  0.0000000  1.6038667  3
    296    295    658    649     1  0.0000000  1.6038667  3
    297    295    658    649     1  0.0000000  1.6038667  3
    300    301    313    314     1  0.0000000  0.6508444  3
    300    301    313    315     1  0.0000000  0.6508444  3
    300    304    316    317     1  0.0000000  0.6508444  3
    300    304    316    318     1  0.0000000  0.6508444  3
    300    307    310    311     1  0.0000000  0.6508444  3
    300    307    310    312     1  0.0000000  0.6508444  3
    301    300    304    305     1  0.0000000  0.6508444  3
    301    300    304    306     1  0.0000000  0.6508444  3
    301    300    307    308     1  0.0000000  0.6508444  3
    301    300    307    309     1  0.0000000  0.6508444  3
    301    313    325    326     1  0.0000000  0.6508444  3
    301    313    325    327     1  0.0000000  0.6508444  3
    302    301    300    304     1  0.0000000  0.6508444  3
    302    301    300    307     1  0.0000000  0.6508444  3
    302    301    300    329     1  0.0000000  0.6508444  3
    302    301    313    325     1  0.0000000  0.6508444  3
    302    301    313    314     1  0.0000000  0.6508444  3
    302    301    313    315     1  0.0000000  0.6508444  3
    303    301    300    304     1  0.0000000  0.6508444  3
    303    301    300    307     1  0.0000000  0.6508444  3
    303    301    300    329     1  0.0000000  0.6508444  3
    303    301    313    325     1  0.0000000  0.6508444  3
    303    301    313    314     1  0.0000000  0.6508444  3
    303    301    313    315     1  0.0000000  0.6508444  3
    304    300    307    308     1  0.0000000  0.6508444  3
    304    300    307    309     1  0.0000000  0.6508444  3
    304    316    322    323     1  0.0000000  0.6508444  3
    304    316    322    324     1  0.0000000  0.6508444  3
    305    304    300    307     1  0.0000000  0.6508444  3
    305    304    300    329     1  0.0000000  0.6508444  3
    305    304    316    322     1  0.0000000  0.6508444  3
    305    304    316    317     1  0.0000000  0.6508444  3
    305    304    316    318     1  0.0000000  0.6508444  3
    306    304    300    307     1  0.0000000  0.6508444  3
    306    304    300    329     1  0.0000000  0.6508444  3
    306    304    316    322     1  0.0000000  0.6508444  3
    306    304    316    317     1  0.0000000  0.6508444  3
    306    304    316    318     1  0.0000000  0.6508444  3
    307    310    319    320     1  0.0000000  0.6508444  3
    307    310    319    321     1  0.0000000  0.6508444  3
    308    307    300    329     1  0.0000000  0.6508444  3
    308    307    310    319     1  0.0000000  0.6508444  3
    308    307    310    311     1  0.0000000  0.6508444  3
    308    307    310    312     1  0.0000000  0.6508444  3
    309    307    300    329     1  0.0000000  0.6508444  3
    309    307    310    319     1  0.0000000  0.6508444  3
    309    307    310    311     1  0.0000000  0.6508444  3
    309    307    310    312     1  0.0000000  0.6508444  3
    310    307    300    329     1  0.0000000  0.6508444  3
    311    310    319    328     1  0.0000000  1.0460000  1
    311    310    319    328     1  0.0000000  0.0000000  3
    311    310    319    320     1  0.0000000  0.6508444  3
    311    310    319    321     1  0.0000000  0.6508444  3
    312    310    319    328     1  0.0000000  1.0460000  1
    312    310    319    328     1  0.0000000  0.0000000  3
    312    310    319    320     1  0.0000000  0.6508444  3
    312    310    319    321     1  0.0000000  0.6508444  3
    313    301    300    329     1  0.0000000  0.6508444  3
    314    313    325    718     1  0.0000000  1.0460000  1
    314    313    325    718     1  0.0000000  0.0000000  3
    314    313    325    326     1  0.0000000  0.6508444  3
    314    313    325    327     1  0.0000000  0.6508444  3
    315    313    325    718     1  0.0000000  1.0460000  1
    315    313    325    718     1  0.0000000  0.0000000  3
    315    313    325    326     1  0.0000000  0.6508444  3
    315    313    325    327     1  0.0000000  0.6508444  3
    316    304    300    329     1  0.0000000  0.6508444  3
    317    316    322    688     1  0.0000000  1.0460000  1
    317    316    322    688     1  0.0000000  0.0000000  3
    317    316    322    323     1  0.0000000  0.6508444  3
    317    316    322    324     1  0.0000000  0.6508444  3
    318    316    322    688     1  0.0000000  1.0460000  1
    318    316    322    688     1  0.0000000  0.0000000  3
    318    316    322    323     1  0.0000000  0.6508444  3
    318    316    322    324     1  0.0000000  0.6508444  3
    322    688    679    680     1  0.0000000  1.6038667  3
    322    688    679    681     1  0.0000000  1.6038667  3
    323    322    688    679     1  0.0000000  1.6038667  3
    324    322    688    679     1  0.0000000  1.6038667  3
    325    718    709    710     1  0.0000000  1.6038667  3
    325    718    709    711     1  0.0000000  1.6038667  3
    326    325    718    709     1  0.0000000  1.6038667  3
    327    325    718    709     1  0.0000000  1.6038667  3
    330    331    343    344     1  0.0000000  0.6508444  3
    330    331    343    345     1  0.0000000  0.6508444  3
    330    334    346    347     1  0.0000000  0.6508444  3
    330    334    346    348     1  0.0000000  0.6508444  3
    330    337    340    341     1  0.0000000  0.6508444  3
    330    337    340    342     1  0.0000000  0.6508444  3
    331    330    334    335     1  0.0000000  0.6508444  3
    331    330    334    336     1  0.0000000  0.6508444  3
    331    330    337    338     1  0.0000000  0.6508444  3
    331    330    337    339     1  0.0000000  0.6508444  3
    331    343    355    356     1  0.0000000  0.6508444  3
    331    343    355    357     1  0.0000000  0.6508444  3
    332    331    330    334     1  0.0000000  0.6508444  3
    332    331    330    337     1  0.0000000  0.6508444  3
    332    331    330    359     1  0.0000000  0.6508444  3
    332    331    343    355     1  0.0000000  0.6508444  3
    332    331    343    344     1  0.0000000  0.6508444  3
    332    331    343    345     1  0.0000000  0.6508444  3
    333    331    330    334     1  0.0000000  0.6508444  3
    333    331    330    337     1  0.0000000  0.6508444  3
    333    331    330    359     1  0.0000000  0.6508444  3
    333    331    343    355     1  0.0000000  0.6508444  3
    333    331    343    344     1  0.0000000  0.6508444  3
    333    331    343    345     1  0.0000000  0.6508444  3
    334    330    337    338     1  0.0000000  0.6508444  3
    334    330    337    339     1  0.0000000  0.6508444  3
    334    346    352    353     1  0.0000000  0.6508444  3
    334    346    352    354     1  0.0000000  0.6508444  3
    335    334    330    337     1  0.0000000  0.6508444  3
    335    334    330    359     1  0.0000000  0.6508444  3
    335    334    346    352     1  0.0000000  0.6508444  3
    335    334    346    347     1  0.0000000  0.6508444  3
    335    334    346    348     1  0.0000000  0.6508444  3
    336    334    330    337     1  0.0000000  0.6508444  3
    336    334    330    359     1  0.0000000  0.6508444  3
    336    334    346    352     1  0.0000000  0.6508444  3
    336    334    346    347     1  0.0000000  0.6508444  3
    336    334    346    348     1  0.0000000  0.6508444  3
    337    340    349    350     1  0.0000000  0.6508444  3
    337    340    349    351     1  0.0000000  0.6508444  3
    338    337    330    359     1  0.0000000  0.6508444  3
    338    337    340    349     1  0.0000000  0.6508444  3
    338    337    340    341     1  0.0000000  0.6508444  3
    338    337    340    342     1  0.0000000  0.6508444  3
    339    337    330    359     1  0.0000000  0.6508444  3
    339    337    340    349     1  0.0000000  0.6508444  3
    339    337    340    341     1  0.0000000  0.6508444  3
    339    337    340    342     1  0.0000000  0.6508444  3
    340    337    330    359     1  0.0000000  0.6508444  3
    341    340    349    358     1  0.0000000  1.0460000  1
    341    340    349    358     1  0.0000000  0.0000000  3
    341    340    349    350     1  0.0000000  0.6508444  3
    341    340    349    351     1  0.0000000  0.6508444  3
    342    340    349    358     1  0.0000000  1.0460000  1
    342    340    349    358     1  0.0000000  0.0000000  3
    342    340    349    350     1  0.0000000  0.6508444  3
    342    340    349    351     1  0.0000000  0.6508444  3
    343    331    330    359     1  0.0000000  0.6508444  3
    344    343    355    778     1  0.0000000  1.0460000  1
    344    343    355    778     1  0.0000000  0.0000000  3
    344    343    355    356     1  0.0000000  0.6508444  3
    344    343    355    357     1  0.0000000  0.6508444  3
    345    343    355    778     1  0.0000000  1.0460000  1
    345    343    355    778     1  0.0000000  0.0000000  3
    345    343    355    356     1  0.0000000  0.6508444  3
    345    343    355    357     1  0.0000000  0.6508444  3
    346    334    330    359     1  0.0000000  0.6508444  3
    347    346    352    748     1  0.0000000  1.0460000  1
    347    346    352    748     1  0.0000000  0.0000000  3
    347    346    352    353     1  0.0000000  0.6508444  3
    347    346    352    354     1  0.0000000  0.6508444  3
    348    346    352    748     1  0.0000000  1.0460000  1
    348    346    352    748     1  0.0000000  0.0000000  3
    348    346    352    353     1  0.0000000  0.6508444  3
    348    346    352    354     1  0.0000000  0.6508444  3
    352    748    739    740     1  0.0000000  1.6038667  3
    352    748    739    741     1  0.0000000  1.6038667  3
    353    352    748    739     1  0.0000000  1.6038667  3
    354    352    748    739     1  0.0000000  1.6038667  3
    355    778    769    770     1  0.0000000  1.6038667  3
    355    778    769    771     1  0.0000000  1.6038667  3
    356    355    778    769     1  0.0000000  1.6038667  3
    357    355    778    769     1  0.0000000  1.6038667  3
    360    361    373    374     1  0.0000000  0.6508444  3
    360    361    373    375     1  0.0000000  0.6508444  3
    360    364    376    377     1  0.0000000  0.6508444  3
    360    364    376    378     1  0.0000000  0.6508444  3
    360    367    370    371     1  0.0000000  0.6508444  3
    360    367    370    372     1  0.0000000  0.6508444  3
    361    360    364    365     1  0.0000000  0.6508444  3
    361    360    364    366     1  0.0000000  0.6508444  3
    361    360    367    368     1  0.0000000  0.6508444  3
    361    360    367    369     1  0.0000000  0.6508444  3
    361    373    385    386     1  0.0000000  0.6508444  3
    361    373    385    387     1  0.0000000  0.6508444  3
    362    361    360    364     1  0.0000000  0.6508444  3
    362    361    360    367     1  0.0000000  0.6508444  3
    362    361    360    389     1  0.0000000  0.6508444  3
    362    361    373    385     1  0.0000000  0.6508444  3
    362    361    373    374     1  0.0000000  0.6508444  3
    362    361    373    375     1  0.0000000  0.6508444  3
    363    361    360    364     1  0.0000000  0.6508444  3
    363    361    360    367     1  0.0000000  0.6508444  3
    363    361    360    389     1  0.0000000  0.6508444  3
    363    361    373    385     1  0.0000000  0.6508444  3
    363    361    373    374     1  0.0000000  0.6508444  3
    363    361    373    375     1  0.0000000  0.6508444  3
    364    360    367    368     1  0.0000000  0.6508444  3
    364    360    367    369     1  0.0000000  0.6508444  3
    364    376    382    383     1  0.0000000  0.6508444  3
    364    376    382    384     1  0.0000000  0.6508444  3
    365    364    360    367     1  0.0000000  0.6508444  3
    365    364    360    389     1  0.0000000  0.6508444  3
    365    364    376    382     1  0.0000000  0.6508444  3
    365    364    376    377     1  0.0000000  0.6508444  3
    365    364    376    378     1  0.0000000  0.6508444  3
    366    364    360    367     1  0.0000000  0.6508444  3
    366    364    360    389     1  0.0000000  0.6508444  3
    366    364    376    382     1  0.0000000  0.6508444  3
    366    364    376    377     1  0.0000000  0.6508444  3
    366    364    376    378     1  0.0000000  0.6508444  3
    367    370    379    380     1  0.0000000  0.6508444  3
    367    370    379    381     1  0.0000000  0.6508444  3
    368    367    360    389     1  0.0000000  0.6508444  3
    368    367    370    379     1  0.0000000  0.6508444  3
    368    367    370    371     1  0.0000000  0.6508444  3
    368    367    370    372     1  0.0000000  0.6508444  3
    369    367    360    389     1  0.0000000  0.6508444  3
    369    367    370    379     1  0.0000000  0.6508444  3
    369    367    370    371     1  0.0000000  0.6508444  3
    369    367    370    372     1  0.0000000  0.6508444  3
    370    367    360    389     1  0.0000000  0.6508444  3
    371    370    379    388     1  0.0000000  1.0460000  1
    371    370    379    388     1  0.0000000  0.0000000  3
    371    370    379    380     1  0.0000000  0.6508444  3
    371    370    379    381     1  0.0000000  0.6508444  3
    372    370    379    388     1  0.0000000  1.0460000  1
    372    370    379    388     1  0.0000000  0.0000000  3
    372    370    379    380     1  0.0000000  0.6508444  3
    372    370    379    381     1  0.0000000  0.6508444  3
    373    361    360    389     1  0.0000000  0.6508444  3
    374    373    385    838     1  0.0000000  1.0460000  1
    374    373    385    838     1  0.0000000  0.0000000  3
    374    373    385    386     1  0.0000000  0.6508444  3
    374    373    385    387     1  0.0000000  0.6508444  3
    375    373    385    838     1  0.0000000  1.0460000  1
    375    373    385    838     1  0.0000000  0.0000000  3
    375    373    385    386     1  0.0000000  0.6508444  3
    375    373    385    387     1  0.0000000  0.6508444  3
    376    364    360    389     1  0.0000000  0.6508444  3
    377    376    382    808     1  0.0000000  1.0460000  1
    377    376    382    808     1  0.0000000  0.0000000  3
    377    376    382    383     1  0.0000000  0.6508444  3
    377    376    382    384     1  0.0000000  0.6508444  3
    378    376    382    808     1  0.0000000  1.0460000  1
    378    376    382    808     1  0.0000000  0.0000000  3
    378    376    382    383     1  0.0000000  0.6508444  3
    378    376    382    384     1  0.0000000  0.6508444  3
    382    808    799    800     1  0.0000000  1.6038667  3
    382    808    799    801     1  0.0000000  1.6038667  3
    383    382    808    799     1  0.0000000  1.6038667  3
    384    382    808    799     1  0.0000000  1.6038667  3
    385    838    829    830     1  0.0000000  1.6038667  3
    385    838    829    831     1  0.0000000  1.6038667  3
    386    385    838    829     1  0.0000000  1.6038667  3
    387    385    838    829     1  0.0000000  1.6038667  3
    390    391    403    404     1  0.0000000  0.6508444  3
    390    391    403    405     1  0.0000000  0.6508444  3
    390    394    406    407     1  0.0000000  0.6508444  3
    390    394    406    408     1  0.0000000  0.6508444  3
    390    397    400    401     1  0.0000000  0.6508444  3
    390    397    400    402     1  0.0000000  0.6508444  3
    391    390    394    395     1  0.0000000  0.6508444  3
    391    390    394    396     1  0.0000000  0.6508444  3
    391    390    397    398     1  0.0000000  0.6508444  3
    391    390    397    399     1  0.0000000  0.6508444  3
    391    403    415    416     1  0.0000000  0.6508444  3
    391    403    415    417     1  0.0000000  0.6508444  3
    392    391    390    394     1  0.0000000  0.6508444  3
    392    391    390    397     1  0.0000000  0.6508444  3
    392    391    390    419     1  0.0000000  0.6508444  3
    392    391    403    415     1  0.0000000  0.6508444  3
    392    391    403    404     1  0.0000000  0.6508444  3
    392    391    403    405     1  0.0000000  0.6508444  3
    393    391    390    394     1  0.0000000  0.6508444  3
    393    391    390    397     1  0.0000000  0.6508444  3
    393    391    390    419     1  0.0000000  0.6508444  3
    393    391    403    415     1  0.0000000  0.6508444  3
    393    391    403    404     1  0.0000000  0.6508444  3
    393    391    403    405     1  0.0000000  0.6508444  3
    394    390    397    398     1  0.0000000  0.6508444  3
    394    390    397    399     1  0.0000000  0.6508444  3
    394    406    412    413     1  0.0000000  0.6508444  3
    394    406    412    414     1  0.0000000  0.6508444  3
    395    394    390    397     1  0.0000000  0.6508444  3
    395    394    390    419     1  0.0000000  0.6508444  3
    395    394    406    412     1  0.0000000  0.6508444  3
    395    394    406    407     1  0.0000000  0.6508444  3
    395    394    406    408     1  0.0000000  0.6508444  3
    396    394    390    397     1  0.0000000  0.6508444  3
    396    394    390    419     1  0.0000000  0.6508444  3
    396    394    406    412     1  0.0000000  0.6508444  3
    396    394    406    407     1  0.0000000  0.6508444  3
    396    394    406    408     1  0.0000000  0.6508444  3
    397    400    409    410     1  0.0000000  0.6508444  3
    397    400    409    411     1  0.0000000  0.6508444  3
    398    397    390    419     1  0.0000000  0.6508444  3
    398    397    400    409     1  0.0000000  0.6508444  3
    398    397    400    401     1  0.0000000  0.6508444  3
    398    397    400    402     1  0.0000000  0.6508444  3
    399    397    390    419     1  0.0000000  0.6508444  3
    399    397    400    409     1  0.0000000  0.6508444  3
    399    397    400    401     1  0.0000000  0.6508444  3
    399    397    400    402     1  0.0000000  0.6508444  3
    400    397    390    419     1  0.0000000  0.6508444  3
    401    400    409    418     1  0.0000000  1.0460000  1
    401    400    409    418     1  0.0000000  0.0000000  3
    401    400    409    410     1  0.0000000  0.6508444  3
    401    400    409    411     1  0.0000000  0.6508444  3
    402    400    409    418     1  0.0000000  1.0460000  1
    402    400    409    418     1  0.0000000  0.0000000  3
    402    400    409    410     1  0.0000000  0.6508444  3
    402    400    409    411     1  0.0000000  0.6508444  3
    403    391    390    419     1  0.0000000  0.6508444  3
    404    403    415    898     1  0.0000000  1.0460000  1
    404    403    415    898     1  0.0000000  0.0000000  3
    404    403    415    416     1  0.0000000  0.6508444  3
    404    403    415    417     1  0.0000000  0.6508444  3
    405    403    415    898     1  0.0000000  1.0460000  1
    405    403    415    898     1  0.0000000  0.0000000  3
    405    403    415    416     1  0.0000000  0.6508444  3
    405    403    415    417     1  0.0000000  0.6508444  3
    406    394    390    419     1  0.0000000  0.6508444  3
    407    406    412    868     1  0.0000000  1.0460000  1
    407    406    412    868     1  0.0000000  0.0000000  3
    407    406    412    413     1  0.0000000  0.6508444  3
    407    406    412    414     1  0.0000000  0.6508444  3
    408    406    412    868     1  0.0000000  1.0460000  1
    408    406    412    868     1  0.0000000  0.0000000  3
    408    406    412    413     1  0.0000000  0.6508444  3
    408    406    412    414     1  0.0000000  0.6508444  3
    412    868    859    860     1  0.0000000  1.6038667  3
    412    868    859    861     1  0.0000000  1.6038667  3
    413    412    868    859     1  0.0000000  1.6038667  3
    414    412    868    859     1  0.0000000  1.6038667  3
    415    898    889    890     1  0.0000000  1.6038667  3
    415    898    889    891     1  0.0000000  1.6038667  3
    416    415    898    889     1  0.0000000  1.6038667  3
    417    415    898    889     1  0.0000000  1.6038667  3
    420    421    433    434     1  0.0000000  0.6508444  3
    420    421    433    435     1  0.0000000  0.6508444  3
    420    424    436    437     1  0.0000000  0.6508444  3
    420    424    436    438     1  0.0000000  0.6508444  3
    420    427    430    431     1  0.0000000  0.6508444  3
    420    427    430    432     1  0.0000000  0.6508444  3
    421    420    424    425     1  0.0000000  0.6508444  3
    421    420    424    426     1  0.0000000  0.6508444  3
    421    420    427    428     1  0.0000000  0.6508444  3
    421    420    427    429     1  0.0000000  0.6508444  3
    421    433    445    446     1  0.0000000  0.6508444  3
    421    433    445    447     1  0.0000000  0.6508444  3
    422    421    420    424     1  0.0000000  0.6508444  3
    422    421    420    427     1  0.0000000  0.6508444  3
    422    421    420    449     1  0.0000000  0.6508444  3
    422    421    433    445     1  0.0000000  0.6508444  3
    422    421    433    434     1  0.0000000  0.6508444  3
    422    421    433    435     1  0.0000000  0.6508444  3
    423    421    420    424     1  0.0000000  0.6508444  3
    423    421    420    427     1  0.0000000  0.6508444  3
    423    421    420    449     1  0.0000000  0.6508444  3
    423    421    433    445     1  0.0000000  0.6508444  3
    423    421    433    434     1  0.0000000  0.6508444  3
    423    421    433    435     1  0.0000000  0.6508444  3
    424    420    427    428     1  0.0000000  0.6508444  3
    424    420    427    429     1  0.0000000  0.6508444  3
    424    436    442    443     1  0.0000000  0.6508444  3
    424    436    442    444     1  0.0000000  0.6508444  3
    425    424    420    427     1  0.0000000  0.6508444  3
    425    424    420    449     1  0.0000000  0.6508444  3
    425    424    436    442     1  0.0000000  0.6508444  3
    425    424    436    437     1  0.0000000  0.6508444  3
    425    424    436    438     1  0.0000000  0.6508444  3
    426    424    420    427     1  0.0000000  0.6508444  3
    426    424    420    449     1  0.0000000  0.6508444  3
    426    424    436    442     1  0.0000000  0.6508444  3
    426    424    436    437     1  0.0000000  0.6508444  3
    426    424    436    438     1  0.0000000  0.6508444  3
    427    430    439    440     1  0.0000000  0.6508444  3
    427    430    439    441     1  0.0000000  0.6508444  3
    428    427    420    449     1  0.0000000  0.6508444  3
    428    427    430    439     1  0.0000000  0.6508444  3
    428    427    430    431     1  0.0000000  0.6508444  3
    428    427    430    432     1  0.0000000  0.6508444  3
    429    427    420    449     1  0.0000000  0.6508444  3
    429    427    430    439     1  0.0000000  0.6508444  3
    429    427    430    431     1  0.0000000  0.6508444  3
    429    427    430    432     1  0.0000000  0.6508444  3
    430    427    420    449     1  0.0000000  0.6508444  3
    431    430    439    448     1  0.0000000  1.0460000  1
    431    430    439    448     1  0.0000000  0.0000000  3
    431    430    439    440     1  0.0000000  0.6508444  3
    431    430    439    441     1  0.0000000  0.6508444  3
    432    430    439    448     1  0.0000000  1.0460000  1
    432    430    439    448     1  0.0000000  0.0000000  3
    432    430    439    440     1  0.0000000  0.6508444  3
    432    430    439    441     1  0.0000000  0.6508444  3
    433    421    420    449     1  0.0000000  0.6508444  3
    434    433    445    958     1  0.0000000  1.0460000  1
    434    433    445    958     1  0.0000000  0.0000000  3
    434    433    445    446     1  0.0000000  0.6508444  3
    434    433    445    447     1  0.0000000  0.6508444  3
    435    433    445    958     1  0.0000000  1.0460000  1
    435    433    445    958     1  0.0000000  0.0000000  3
    435    433    445    446     1  0.0000000  0.6508444  3
    435    433    445    447     1  0.0000000  0.6508444  3
    436    424    420    449     1  0.0000000  0.6508444  3
    437    436    442    928     1  0.0000000  1.0460000  1
    437    436    442    928     1  0.0000000  0.0000000  3
    437    436    442    443     1  0.0000000  0.6508444  3
    437    436    442    444     1  0.0000000  0.6508444  3
    438    436    442    928     1  0.0000000  1.0460000  1
    438    436    442    928     1  0.0000000  0.0000000  3
    438    436    442    443     1  0.0000000  0.6508444  3
    438    436    442    444     1  0.0000000  0.6508444  3
    442    928    919    920     1  0.0000000  1.6038667  3
    442    928    919    921     1  0.0000000  1.6038667  3
    443    442    928    919     1  0.0000000  1.6038667  3
    444    442    928    919     1  0.0000000  1.6038667  3
    445    958    949    950     1  0.0000000  1.6038667  3
    445    958    949    951     1  0.0000000  1.6038667  3
    446    445    958    949     1  0.0000000  1.6038667  3
    447    445    958    949     1  0.0000000  1.6038667  3
    450    451    463    464     1  0.0000000  0.6508444  3
    450    451    463    465     1  0.0000000  0.6508444  3
    450    454    466    467     1  0.0000000  0.6508444  3
    450    454    466    468     1  0.0000000  0.6508444  3
    450    457    460    461     1  0.0000000  0.6508444  3
    450    457    460    462     1  0.0000000  0.6508444  3
    451    450    454    455     1  0.0000000  0.6508444  3
    451    450    454    456     1  0.0000000  0.6508444  3
    451    450    457    458     1  0.0000000  0.6508444  3
    451    450    457    459     1  0.0000000  0.6508444  3
    451    463    475    476     1  0.0000000  0.6508444  3
    451    463    475    477     1  0.0000000  0.6508444  3
    452    451    450    454     1  0.0000000  0.6508444  3
    452    451    450    457     1  0.0000000  0.6508444  3
    452    451    450    479     1  0.0000000  0.6508444  3
    452    451    463    475     1  0.0000000  0.6508444  3
    452    451    463    464     1  0.0000000  0.6508444  3
    452    451    463    465     1  0.0000000  0.6508444  3
    453    451    450    454     1  0.0000000  0.6508444  3
    453    451    450    457     1  0.0000000  0.6508444  3
    453    451    450    479     1  0.0000000  0.6508444  3
    453    451    463    475     1  0.0000000  0.6508444  3
    453    451    463    464     1  0.0000000  0.6508444  3
    453    451    463    465     1  0.0000000  0.6508444  3
    454    450    457    458     1  0.0000000  0.6508444  3
    454    450    457    459     1  0.0000000  0.6508444  3
    454    466    472    473     1  0.0000000  0.6508444  3
    454    466    472    474     1  0.0000000  0.6508444  3
    455    454    450    457     1  0.0000000  0.6508444  3
    455    454    450    479     1  0.0000000  0.6508444  3
    455    454    466    472     1  0.0000000  0.6508444  3
    455    454    466    467     1  0.0000000  0.6508444  3
    455    454    466    468     1  0.0000000  0.6508444  3
    456    454    450    457     1  0.0000000  0.6508444  3
    456    454    450    479     1  0.0000000  0.6508444  3
    456    454    466    472     1  0.0000000  0.6508444  3
    456    454    466    467     1  0.0000000  0.6508444  3
    456    454    466    468     1  0.0000000  0.6508444  3
    457    460    469    470     1  0.0000000  0.6508444  3
    457    460    469    471     1  0.0000000  0.6508444  3
    458    457    450    479     1  0.0000000  0.6508444  3
    458    457    460    469     1  0.0000000  0.6508444  3
    458    457    460    461     1  0.0000000  0.6508444  3
    458    457    460    462     1  0.0000000  0.6508444  3
    459    457    450    479     1  0.0000000  0.6508444  3
    459    457    460    469     1  0.0000000  0.6508444  3
    459    457    460    461     1  0.0000000  0.6508444  3
    459    457    460    462     1  0.0000000  0.6508444  3
    460    457    450    479     1  0.0000000  0.6508444  3
    461    460    469    478     1  0.0000000  1.0460000  1
    461    460    469    478     1  0.0000000  0.0000000  3
    461    460    469    470     1  0.0000000  0.6508444  3
    461    460    469    471     1  0.0000000  0.6508444  3
    462    460    469    478     1  0.0000000  1.0460000  1
    462    460    469    478     1  0.0000000  0.0000000  3
    462    460    469    470     1  0.0000000  0.6508444  3
    462    460    469    471     1  0.0000000  0.6508444  3
    463    451    450    479     1  0.0000000  0.6508444  3
    464    463    475   1018     1  0.0000000  1.0460000  1
    464    463    475   1018     1  0.0000000  0.0000000  3
    464    463    475    476     1  0.0000000  0.6508444  3
    464    463    475    477     1  0.0000000  0.6508444  3
    465    463    475   1018     1  0.0000000  1.0460000  1
    465    463    475   1018     1  0.0000000  0.0000000  3
    465    463    475    476     1  0.0000000  0.6508444  3
    465    463    475    477     1  0.0000000  0.6508444  3
    466    454    450    479     1  0.0000000  0.6508444  3
    467    466    472    988     1  0.0000000  1.0460000  1
    467    466    472    988     1  0.0000000  0.0000000  3
    467    466    472    473     1  0.0000000  0.6508444  3
    467    466    472    474     1  0.0000000  0.6508444  3
    468    466    472    988     1  0.0000000  1.0460000  1
    468    466    472    988     1  0.0000000  0.0000000  3
    468    466    472    473     1  0.0000000  0.6508444  3
    468    466    472    474     1  0.0000000  0.6508444  3
    472    988    979    980     1  0.0000000  1.6038667  3
    472    988    979    981     1  0.0000000  1.6038667  3
    473    472    988    979     1  0.0000000  1.6038667  3
    474    472    988    979     1  0.0000000  1.6038667  3
    475   1018   1009   1010     1  0.0000000  1.6038667  3
    475   1018   1009   1011     1  0.0000000  1.6038667  3
    476    475   1018   1009     1  0.0000000  1.6038667  3
    477    475   1018   1009     1  0.0000000  1.6038667  3
    480    481    493    494     1  0.0000000  0.6508444  3
    480    481    493    495     1  0.0000000  0.6508444  3
    480    484    496    497     1  0.0000000  0.6508444  3
    480    484    496    498     1  0.0000000  0.6508444  3
    480    487    490    491     1  0.0000000  0.6508444  3
    480    487    490    492     1  0.0000000  0.6508444  3
    481    480    484    485     1  0.0000000  0.6508444  3
    481    480    484    486     1  0.0000000  0.6508444  3
    481    480    487    488     1  0.0000000  0.6508444  3
    481    480    487    489     1  0.0000000  0.6508444  3
    481    493    505    506     1  0.0000000  0.6508444  3
    481    493    505    507     1  0.0000000  0.6508444  3
    482    481    480    484     1  0.0000000  0.6508444  3
    482    481    480    487     1  0.0000000  0.6508444  3
    482    481    480    509     1  0.0000000  0.6508444  3
    482    481    493    505     1  0.0000000  0.6508444  3
    482    481    493    494     1  0.0000000  0.6508444  3
    482    481    493    495     1  0.0000000  0.6508444  3
    483    481    480    484     1  0.0000000  0.6508444  3
    483    481    480    487     1  0.0000000  0.6508444  3
    483    481    480    509     1  0.0000000  0.6508444  3
    483    481    493    505     1  0.0000000  0.6508444  3
    483    481    493    494     1  0.0000000  0.6508444  3
    483    481    493    495     1  0.0000000  0.6508444  3
    484    480    487    488     1  0.0000000  0.6508444  3
    484    480    487    489     1  0.0000000  0.6508444  3
    484    496    502    503     1  0.0000000  0.6508444  3
    484    496    502    504     1  0.0000000  0.6508444  3
    485    484    480    487     1  0.0000000  0.6508444  3
    485    484    480    509     1  0.0000000  0.6508444  3
    485    484    496    502     1  0.0000000  0.6508444  3
    485    484    496    497     1  0.0000000  0.6508444  3
    485    484    496    498     1  0.0000000  0.6508444  3
    486    484    480    487     1  0.0000000  0.6508444  3
    486    484    480    509     1  0.0000000  0.6508444  3
    486    484    496    502     1  0.0000000  0.6508444  3
    486    484    496    497     1  0.0000000  0.6508444  3
    486    484    496    498     1  0.0000000  0.6508444  3
    487    490    499    500     1  0.0000000  0.6508444  3
    487    490    499    501     1  0.0000000  0.6508444  3
    488    487    480    509     1  0.0000000  0.6508444  3
    488    487    490    499     1  0.0000000  0.6508444  3
    488    487    490    491     1  0.0000000  0.6508444  3
    488    487    490    492     1  0.0000000  0.6508444  3
    489    487    480    509     1  0.0000000  0.6508444  3
    489    487    490    499     1  0.0000000  0.6508444  3
    489    487    490    491     1  0.0000000  0.6508444  3
    489    487    490    492     1  0.0000000  0.6508444  3
    490    487    480    509     1  0.0000000  0.6508444  3
    491    490    499    508     1  0.0000000  1.0460000  1
    491    490    499    508     1  0.0000000  0.0000000  3
    491    490    499    500     1  0.0000000  0.6508444  3
    491    490    499    501     1  0.0000000  0.6508444  3
    492    490    499    508     1  0.0000000  1.0460000  1
    492    490    499    508     1  0.0000000  0.0000000  3
    492    490    499    500     1  0.0000000  0.6508444  3
    492    490    499    501     1  0.0000000  0.6508444  3
    493    481    480    509     1  0.0000000  0.6508444  3
    494    493    505   1078     1  0.0000000  1.0460000  1
    494    493    505   1078     1  0.0000000  0.0000000  3
    494    493    505    506     1  0.0000000  0.6508444  3
    494    493    505    507     1  0.0000000  0.6508444  3
    495    493    505   1078     1  0.0000000  1.0460000  1
    495    493    505   1078     1  0.0000000  0.0000000  3
    495    493    505    506     1  0.0000000  0.6508444  3
    495    493    505    507     1  0.0000000  0.6508444  3
    496    484    480    509     1  0.0000000  0.6508444  3
    497    496    502   1048     1  0.0000000  1.0460000  1
    497    496    502   1048     1  0.0000000  0.0000000  3
    497    496    502    503     1  0.0000000  0.6508444  3
    497    496    502    504     1  0.0000000  0.6508444  3
    498    496    502   1048     1  0.0000000  1.0460000  1
    498    496    502   1048     1  0.0000000  0.0000000  3
    498    496    502    503     1  0.0000000  0.6508444  3
    498    496    502    504     1  0.0000000  0.6508444  3
    502   1048   1039   1040     1  0.0000000  1.6038667  3
    502   1048   1039   1041     1  0.0000000  1.6038667  3
    503    502   1048   1039     1  0.0000000  1.6038667  3
    504    502   1048   1039     1  0.0000000  1.6038667  3
    505   1078   1069   1070     1  0.0000000  1.6038667  3
    505   1078   1069   1071     1  0.0000000  1.6038667  3
    506    505   1078   1069     1  0.0000000  1.6038667  3
    507    505   1078   1069     1  0.0000000  1.6038667  3
    510    511    523    524     1  0.0000000  0.6508444  3
    510    511    523    525     1  0.0000000  0.6508444  3
    510    514    526    527     1  0.0000000  0.6508444  3
    510    514    526    528     1  0.0000000  0.6508444  3
    510    517    520    521     1  0.0000000  0.6508444  3
    510    517    520    522     1  0.0000000  0.6508444  3
    511    510    514    515     1  0.0000000  0.6508444  3
    511    510    514    516     1  0.0000000  0.6508444  3
    511    510    517    518     1  0.0000000  0.6508444  3
    511    510    517    519     1  0.0000000  0.6508444  3
    511    523    535    536     1  0.0000000  0.6508444  3
    511    523    535    537     1  0.0000000  0.6508444  3
    512    511    510    514     1  0.0000000  0.6508444  3
    512    511    510    517     1  0.0000000  0.6508444  3
    512    511    510    539     1  0.0000000  0.6508444  3
    512    511    523    535     1  0.0000000  0.6508444  3
    512    511    523    524     1  0.0000000  0.6508444  3
    512    511    523    525     1  0.0000000  0.6508444  3
    513    511    510    514     1  0.0000000  0.6508444  3
    513    511    510    517     1  0.0000000  0.6508444  3
    513    511    510    539     1  0.0000000  0.6508444  3
    513    511    523    535     1  0.0000000  0.6508444  3
    513    511    523    524     1  0.0000000  0.6508444  3
    513    511    523    525     1  0.0000000  0.6508444  3
    514    510    517    518     1  0.0000000  0.6508444  3
    514    510    517    519     1  0.0000000  0.6508444  3
    514    526    532    533     1  0.0000000  0.6508444  3
    514    526    532    534     1  0.0000000  0.6508444  3
    515    514    510    517     1  0.0000000  0.6508444  3
    515    514    510    539     1  0.0000000  0.6508444  3
    515    514    526    532     1  0.0000000  0.6508444  3
    515    514    526    527     1  0.0000000  0.6508444  3
    515    514    526    528     1  0.0000000  0.6508444  3
    516    514    510    517     1  0.0000000  0.6508444  3
    516    514    510    539     1  0.0000000  0.6508444  3
    516    514    526    532     1  0.0000000  0.6508444  3
    516    514    526    527     1  0.0000000  0.6508444  3
    516    514    526    528     1  0.0000000  0.6508444  3
    517    520    529    530     1  0.0000000  0.6508444  3
    517    520    529    531     1  0.0000000  0.6508444  3
    518    517    510    539     1  0.0000000  0.6508444  3
    518    517    520    529     1  0.0000000  0.6508444  3
    518    517    520    521     1  0.0000000  0.6508444  3
    518    517    520    522     1  0.0000000  0.6508444  3
    519    517    510    539     1  0.0000000  0.6508444  3
    519    517    520    529     1  0.0000000  0.6508444  3
    519    517    520    521     1  0.0000000  0.6508444  3
    519    517    520    522     1  0.0000000  0.6508444  3
    520    517    510    539     1  0.0000000  0.6508444  3
    521    520    529    538     1  0.0000000  1.0460000  1
    521    520    529    538     1  0.0000000  0.0000000  3
    521    520    529    530     1  0.0000000  0.6508444  3
    521    520    529    531     1  0.0000000  0.6508444  3
    522    520    529    538     1  0.0000000  1.0460000  1
    522    520    529    538     1  0.0000000  0.0000000  3
    522    520    529    530     1  0.0000000  0.6508444  3
    522    520    529    531     1  0.0000000  0.6508444  3
    523    511    510    539     1  0.0000000  0.6508444  3
    524    523    535   1138     1  0.0000000  1.0460000  1
    524    523    535   1138     1  0.0000000  0.0000000  3
    524    523    535    536     1  0.0000000  0.6508444  3
    524    523    535    537     1  0.0000000  0.6508444  3
    525    523    535   1138     1  0.0000000  1.0460000  1
    525    523    535   1138     1  0.0000000  0.0000000  3
    525    523    535    536     1  0.0000000  0.6508444  3
    525    523    535    537     1  0.0000000  0.6508444  3
    526    514    510    539     1  0.0000000  0.6508444  3
    527    526    532   1108     1  0.0000000  1.0460000  1
    527    526    532   1108     1  0.0000000  0.0000000  3
    527    526    532    533     1  0.0000000  0.6508444  3
    527    526    532    534     1  0.0000000  0.6508444  3
    528    526    532   1108     1  0.0000000  1.0460000  1
    528    526    532   1108     1  0.0000000  0.0000000  3
    528    526    532    533     1  0.0000000  0.6508444  3
    528    526    532    534     1  0.0000000  0.6508444  3
    532   1108   1099   1100     1  0.0000000  1.6038667  3
    532   1108   1099   1101     1  0.0000000  1.6038667  3
    533    532   1108   1099     1  0.0000000  1.6038667  3
    534    532   1108   1099     1  0.0000000  1.6038667  3
    535   1138   1129   1130     1  0.0000000  1.6038667  3
    535   1138   1129   1131     1  0.0000000  1.6038667  3
    536    535   1138   1129     1  0.0000000  1.6038667  3
    537    535   1138   1129     1  0.0000000  1.6038667  3
    540    541    553    554     1  0.0000000  0.6508444  3
    540    541    553    555     1  0.0000000  0.6508444  3
    540    544    556    557     1  0.0000000  0.6508444  3
    540    544    556    558     1  0.0000000  0.6508444  3
    540    547    550    551     1  0.0000000  0.6508444  3
    540    547    550    552     1  0.0000000  0.6508444  3
    541    540    544    545     1  0.0000000  0.6508444  3
    541    540    544    546     1  0.0000000  0.6508444  3
    541    540    547    548     1  0.0000000  0.6508444  3
    541    540    547    549     1  0.0000000  0.6508444  3
    541    553    565    566     1  0.0000000  0.6508444  3
    541    553    565    567     1  0.0000000  0.6508444  3
    542    541    540    544     1  0.0000000  0.6508444  3
    542    541    540    547     1  0.0000000  0.6508444  3
    542    541    540    569     1  0.0000000  0.6508444  3
    542    541    553    565     1  0.0000000  0.6508444  3
    542    541    553    554     1  0.0000000  0.6508444  3
    542    541    553    555     1  0.0000000  0.6508444  3
    543    541    540    544     1  0.0000000  0.6508444  3
    543    541    540    547     1  0.0000000  0.6508444  3
    543    541    540    569     1  0.0000000  0.6508444  3
    543    541    553    565     1  0.0000000  0.6508444  3
    543    541    553    554     1  0.0000000  0.6508444  3
    543    541    553    555     1  0.0000000  0.6508444  3
    544    540    547    548     1  0.0000000  0.6508444  3
    544    540    547    549     1  0.0000000  0.6508444  3
    544    556    562    563     1  0.0000000  0.6508444  3
    544    556    562    564     1  0.0000000  0.6508444  3
    545    544    540    547     1  0.0000000  0.6508444  3
    545    544    540    569     1  0.0000000  0.6508444  3
    545    544    556    562     1  0.0000000  0.6508444  3
    545    544    556    557     1  0.0000000  0.6508444  3
    545    544    556    558     1  0.0000000  0.6508444  3
    546    544    540    547     1  0.0000000  0.6508444  3
    546    544    540    569     1  0.0000000  0.6508444  3
    546    544    556    562     1  0.0000000  0.6508444  3
    546    544    556    557     1  0.0000000  0.6508444  3
    546    544    556    558     1  0.0000000  0.6508444  3
    547    550    559    560     1  0.0000000  0.6508444  3
    547    550    559    561     1  0.0000000  0.6508444  3
    548    547    540    569     1  0.0000000  0.6508444  3
    548    547    550    559     1  0.0000000  0.6508444  3
    548    547    550    551     1  0.0000000  0.6508444  3
    548    547    550    552     1  0.0000000  0.6508444  3
    549    547    540    569     1  0.0000000  0.6508444  3
    549    547    550    559     1  0.0000000  0.6508444  3
    549    547    550    551     1  0.0000000  0.6508444  3
    549    547    550    552     1  0.0000000  0.6508444  3
    550    547    540    569     1  0.0000000  0.6508444  3
    551    550    559    568     1  0.0000000  1.0460000  1
    551    550    559    568     1  0.0000000  0.0000000  3
    551    550    559    560     1  0.0000000  0.6508444  3
    551    550    559    561     1  0.0000000  0.6508444  3
    552    550    559    568     1  0.0000000  1.0460000  1
    552    550    559    568     1  0.0000000  0.0000000  3
    552    550    559    560     1  0.0000000  0.6508444  3
    552    550    559    561     1  0.0000000  0.6508444  3
    553    541    540    569     1  0.0000000  0.6508444  3
    554    553    565   1198     1  0.0000000  1.0460000  1
    554    553    565   1198     1  0.0000000  0.0000000  3
    554    553    565    566     1  0.0000000  0.6508444  3
    554    553    565    567     1  0.0000000  0.6508444  3
    555    553    565   1198     1  0.0000000  1.0460000  1
    555    553    565   1198     1  0.0000000  0.0000000  3
    555    553    565    566     1  0.0000000  0.6508444  3
    555    553    565    567     1  0.0000000  0.6508444  3
    556    544    540    569     1  0.0000000  0.6508444  3
    557    556    562   1168     1  0.0000000  1.0460000  1
    557    556    562   1168     1  0.0000000  0.0000000  3
    557    556    562    563     1  0.0000000  0.6508444  3
    557    556    562    564     1  0.0000000  0.6508444  3
    558    556    562   1168     1  0.0000000  1.0460000  1
    558    556    562   1168     1  0.0000000  0.0000000  3
    558    556    562    563     1  0.0000000  0.6508444  3
    558    556    562    564     1  0.0000000  0.6508444  3
    562   1168   1159   1160     1  0.0000000  1.6038667  3
    562   1168   1159   1161     1  0.0000000  1.6038667  3
    563    562   1168   1159     1  0.0000000  1.6038667  3
    564    562   1168   1159     1  0.0000000  1.6038667  3
    565   1198   1189   1190     1  0.0000000  1.6038667  3
    565   1198   1189   1191     1  0.0000000  1.6038667  3
    566    565   1198   1189     1  0.0000000  1.6038667  3
    567    565   1198   1189     1  0.0000000  1.6038667  3
    570    571    583    584     1  0.0000000  0.6508444  3
    570    571    583    585     1  0.0000000  0.6508444  3
    570    574    586    587     1  0.0000000  0.6508444  3
    570    574    586    588     1  0.0000000  0.6508444  3
    570    577    580    581     1  0.0000000  0.6508444  3
    570    577    580    582     1  0.0000000  0.6508444  3
    571    570    574    575     1  0.0000000  0.6508444  3
    571    570    574    576     1  0.0000000  0.6508444  3
    571    570    577    578     1  0.0000000  0.6508444  3
    571    570    577    579     1  0.0000000  0.6508444  3
    571    583    595    596     1  0.0000000  0.6508444  3
    571    583    595    597     1  0.0000000  0.6508444  3
    572    571    570    574     1  0.0000000  0.6508444  3
    572    571    570    577     1  0.0000000  0.6508444  3
    572    571    570    599     1  0.0000000  0.6508444  3
    572    571    583    595     1  0.0000000  0.6508444  3
    572    571    583    584     1  0.0000000  0.6508444  3
    572    571    583    585     1  0.0000000  0.6508444  3
    573    571    570    574     1  0.0000000  0.6508444  3
    573    571    570    577     1  0.0000000  0.6508444  3
    573    571    570    599     1  0.0000000  0.6508444  3
    573    571    583    595     1  0.0000000  0.6508444  3
    573    571    583    584     1  0.0000000  0.6508444  3
    573    571    583    585     1  0.0000000  0.6508444  3
    574    570    577    578     1  0.0000000  0.6508444  3
    574    570    577    579     1  0.0000000  0.6508444  3
    574    586    592    593     1  0.0000000  0.6508444  3
    574    586    592    594     1  0.0000000  0.6508444  3
    575    574    570    577     1  0.0000000  0.6508444  3
    575    574    570    599     1  0.0000000  0.6508444  3
    575    574    586    592     1  0.0000000  0.6508444  3
    575    574    586    587     1  0.0000000  0.6508444  3
    575    574    586    588     1  0.0000000  0.6508444  3
    576    574    570    577     1  0.0000000  0.6508444  3
    576    574    570    599     1  0.0000000  0.6508444  3
    576    574    586    592     1  0.0000000  0.6508444  3
    576    574    586    587     1  0.0000000  0.6508444  3
    576    574    586    588     1  0.0000000  0.6508444  3
    577    580    589    590     1  0.0000000  0.6508444  3
    577    580    589    591     1  0.0000000  0.6508444  3
    578    577    570    599     1  0.0000000  0.6508444  3
    578    577    580    589     1  0.0000000  0.6508444  3
    578    577    580    581     1  0.0000000  0.6508444  3
    578    577    580    582     1  0.0000000  0.6508444  3
    579    577    570    599     1  0.0000000  0.6508444  3
    579    577    580    589     1  0.0000000  0.6508444  3
    579    577    580    581     1  0.0000000  0.6508444  3
    579    577    580    582     1  0.0000000  0.6508444  3
    580    577    570    599     1  0.0000000  0.6508444  3
    581    580    589    598     1  0.0000000  1.0460000  1
    581    580    589    598     1  0.0000000  0.0000000  3
    581    580    589    590     1  0.0000000  0.6508444  3
    581    580    589    591     1  0.0000000  0.6508444  3
    582    580    589    598     1  0.0000000  1.0460000  1
    582    580    589    598     1  0.0000000  0.0000000  3
    582    580    589    590     1  0.0000000  0.6508444  3
    582    580    589    591     1  0.0000000  0.6508444  3
    583    571    570    599     1  0.0000000  0.6508444  3
    584    583    595   1258     1  0.0000000  1.0460000  1
    584    583    595   1258     1  0.0000000  0.0000000  3
    584    583    595    596     1  0.0000000  0.6508444  3
    584    583    595    597     1  0.0000000  0.6508444  3
    585    583    595   1258     1  0.0000000  1.0460000  1
    585    583    595   1258     1  0.0000000  0.0000000  3
    585    583    595    596     1  0.0000000  0.6508444  3
    585    583    595    597     1  0.0000000  0.6508444  3
    586    574    570    599     1  0.0000000  0.6508444  3
    587    586    592   1228     1  0.0000000  1.0460000  1
    587    586    592   1228     1  0.0000000  0.0000000  3
    587    586    592    593     1  0.0000000  0.6508444  3
    587    586    592    594     1  0.0000000  0.6508444  3
    588    586    592   1228     1  0.0000000  1.0460000  1
    588    586    592   1228     1  0.0000000  0.0000000  3
    588    586    592    593     1  0.0000000  0.6508444  3
    588    586    592    594     1  0.0000000  0.6508444  3
    592   1228   1219   1220     1  0.0000000  1.6038667  3
    592   1228   1219   1221     1  0.0000000  1.6038667  3
    593    592   1228   1219     1  0.0000000  1.6038667  3
    594    592   1228   1219     1  0.0000000  1.6038667  3
    595   1258   1249   1250     1  0.0000000  1.6038667  3
    595   1258   1249   1251     1  0.0000000  1.6038667  3
    596    595   1258   1249     1  0.0000000  1.6038667  3
    597    595   1258   1249     1  0.0000000  1.6038667  3
    600    601    613    614     1  0.0000000  0.6508444  3
    600    601    613    615     1  0.0000000  0.6508444  3
    600    604    616    617     1  0.0000000  0.6508444  3
    600    604    616    618     1  0.0000000  0.6508444  3
    600    607    610    611     1  0.0000000  0.6508444  3
    600    607    610    612     1  0.0000000  0.6508444  3
    601    600    604    605     1  0.0000000  0.6508444  3
    601    600    604    606     1  0.0000000  0.6508444  3
    601    600    607    608     1  0.0000000  0.6508444  3
    601    600    607    609     1  0.0000000  0.6508444  3
    601    613    625    626     1  0.0000000  0.6508444  3
    601    613    625    627     1  0.0000000  0.6508444  3
    602    601    600    604     1  0.0000000  0.6508444  3
    602    601    600    607     1  0.0000000  0.6508444  3
    602    601    600    629     1  0.0000000  0.6508444  3
    602    601    613    625     1  0.0000000  0.6508444  3
    602    601    613    614     1  0.0000000  0.6508444  3
    602    601    613    615     1  0.0000000  0.6508444  3
    603    601    600    604     1  0.0000000  0.6508444  3
    603    601    600    607     1  0.0000000  0.6508444  3
    603    601    600    629     1  0.0000000  0.6508444  3
    603    601    613    625     1  0.0000000  0.6508444  3
    603    601    613    614     1  0.0000000  0.6508444  3
    603    601    613    615     1  0.0000000  0.6508444  3
    604    600    607    608     1  0.0000000  0.6508444  3
    604    600    607    609     1  0.0000000  0.6508444  3
    604    616    622    623     1  0.0000000  0.6508444  3
    604    616    622    624     1  0.0000000  0.6508444  3
    605    604    600    607     1  0.0000000  0.6508444  3
    605    604    600    629     1  0.0000000  0.6508444  3
    605    604    616    622     1  0.0000000  0.6508444  3
    605    604    616    617     1  0.0000000  0.6508444  3
    605    604    616    618     1  0.0000000  0.6508444  3
    606    604    600    607     1  0.0000000  0.6508444  3
    606    604    600    629     1  0.0000000  0.6508444  3
    606    604    616    622     1  0.0000000  0.6508444  3
    606    604    616    617     1  0.0000000  0.6508444  3
    606    604    616    618     1  0.0000000  0.6508444  3
    607    610    619    620     1  0.0000000  0.6508444  3
    607    610    619    621     1  0.0000000  0.6508444  3
    608    607    600    629     1  0.0000000  0.6508444  3
    608    607    610    619     1  0.0000000  0.6508444  3
    608    607    610    611     1  0.0000000  0.6508444  3
    608    607    610    612     1  0.0000000  0.6508444  3
    609    607    600    629     1  0.0000000  0.6508444  3
    609    607    610    619     1  0.0000000  0.6508444  3
    609    607    610    611     1  0.0000000  0.6508444  3
    609    607    610    612     1  0.0000000  0.6508444  3
    610    607    600    629     1  0.0000000  0.6508444  3
    611    610    619    628     1  0.0000000  1.0460000  1
    611    610    619    628     1  0.0000000  0.0000000  3
    611    610    619    620     1  0.0000000  0.6508444  3
    611    610    619    621     1  0.0000000  0.6508444  3
    612    610    619    628     1  0.0000000  1.0460000  1
    612    610    619    628     1  0.0000000  0.0000000  3
    612    610    619    620     1  0.0000000  0.6508444  3
    612    610    619    621     1  0.0000000  0.6508444  3
    613    601    600    629     1  0.0000000  0.6508444  3
    614    613    625   1318     1  0.0000000  1.0460000  1
    614    613    625   1318     1  0.0000000  0.0000000  3
    614    613    625    626     1  0.0000000  0.6508444  3
    614    613    625    627     1  0.0000000  0.6508444  3
    615    613    625   1318     1  0.0000000  1.0460000  1
    615    613    625   1318     1  0.0000000  0.0000000  3
    615    613    625    626     1  0.0000000  0.6508444  3
    615    613    625    627     1  0.0000000  0.6508444  3
    616    604    600    629     1  0.0000000  0.6508444  3
    617    616    622   1288     1  0.0000000  1.0460000  1
    617    616    622   1288     1  0.0000000  0.0000000  3
    617    616    622    623     1  0.0000000  0.6508444  3
    617    616    622    624     1  0.0000000  0.6508444  3
    618    616    622   1288     1  0.0000000  1.0460000  1
    618    616    622   1288     1  0.0000000  0.0000000  3
    618    616    622    623     1  0.0000000  0.6508444  3
    618    616    622    624     1  0.0000000  0.6508444  3
    622   1288   1279   1280     1  0.0000000  1.6038667  3
    622   1288   1279   1281     1  0.0000000  1.6038667  3
    623    622   1288   1279     1  0.0000000  1.6038667  3
    624    622   1288   1279     1  0.0000000  1.6038667  3
    625   1318   1309   1310     1  0.0000000  1.6038667  3
    625   1318   1309   1311     1  0.0000000  1.6038667  3
    626    625   1318   1309     1  0.0000000  1.6038667  3
    627    625   1318   1309     1  0.0000000  1.6038667  3
    630    631    643    644     1  0.0000000  0.6508444  3
    630    631    643    645     1  0.0000000  0.6508444  3
    630    634    646    647     1  0.0000000  0.6508444  3
    630    634    646    648     1  0.0000000  0.6508444  3
    630    637    640    641     1  0.0000000  0.6508444  3
    630    637    640    642     1  0.0000000  0.6508444  3
    631    630    634    635     1  0.0000000  0.6508444  3
    631    630    634    636     1  0.0000000  0.6508444  3
    631    630    637    638     1  0.0000000  0.6508444  3
    631    630    637    639     1  0.0000000  0.6508444  3
    631    643    655    656     1  0.0000000  0.6508444  3
    631    643    655    657     1  0.0000000  0.6508444  3
    632    631    630    634     1  0.0000000  0.6508444  3
    632    631    630    637     1  0.0000000  0.6508444  3
    632    631    630    659     1  0.0000000  0.6508444  3
    632    631    643    655     1  0.0000000  0.6508444  3
    632    631    643    644     1  0.0000000  0.6508444  3
    632    631    643    645     1  0.0000000  0.6508444  3
    633    631    630    634     1  0.0000000  0.6508444  3
    633    631    630    637     1  0.0000000  0.6508444  3
    633    631    630    659     1  0.0000000  0.6508444  3
    633    631    643    655     1  0.0000000  0.6508444  3
    633    631    643    644     1  0.0000000  0.6508444  3
    633    631    643    645     1  0.0000000  0.6508444  3
    634    630    637    638     1  0.0000000  0.6508444  3
    634    630    637    639     1  0.0000000  0.6508444  3
    634    646    652    653     1  0.0000000  0.6508444  3
    634    646    652    654     1  0.0000000  0.6508444  3
    635    634    630    637     1  0.0000000  0.6508444  3
    635    634    630    659     1  0.0000000  0.6508444  3
    635    634    646    652     1  0.0000000  0.6508444  3
    635    634    646    647     1  0.0000000  0.6508444  3
    635    634    646    648     1  0.0000000  0.6508444  3
    636    634    630    637     1  0.0000000  0.6508444  3
    636    634    630    659     1  0.0000000  0.6508444  3
    636    634    646    652     1  0.0000000  0.6508444  3
    636    634    646    647     1  0.0000000  0.6508444  3
    636    634    646    648     1  0.0000000  0.6508444  3
    637    640    649    650     1  0.0000000  0.6508444  3
    637    640    649    651     1  0.0000000  0.6508444  3
    638    637    630    659     1  0.0000000  0.6508444  3
    638    637    640    649     1  0.0000000  0.6508444  3
    638    637    640    641     1  0.0000000  0.6508444  3
    638    637    640    642     1  0.0000000  0.6508444  3
    639    637    630    659     1  0.0000000  0.6508444  3
    639    637    640    649     1  0.0000000  0.6508444  3
    639    637    640    641     1  0.0000000  0.6508444  3
    639    637    640    642     1  0.0000000  0.6508444  3
    640    637    630    659     1  0.0000000  0.6508444  3
    641    640    649    658     1  0.0000000  1.0460000  1
    641    640    649    658     1  0.0000000  0.0000000  3
    641    640    649    650     1  0.0000000  0.6508444  3
    641    640    649    651     1  0.0000000  0.6508444  3
    642    640    649    658     1  0.0000000  1.0460000  1
    642    640    649    658     1  0.0000000  0.0000000  3
    642    640    649    650     1  0.0000000  0.6508444  3
    642    640    649    651     1  0.0000000  0.6508444  3
    643    631    630    659     1  0.0000000  0.6508444  3
    644    643    655   1378     1  0.0000000  1.0460000  1
    644    643    655   1378     1  0.0000000  0.0000000  3
    644    643    655    656     1  0.0000000  0.6508444  3
    644    643    655    657     1  0.0000000  0.6508444  3
    645    643    655   1378     1  0.0000000  1.0460000  1
    645    643    655   1378     1  0.0000000  0.0000000  3
    645    643    655    656     1  0.0000000  0.6508444  3
    645    643    655    657     1  0.0000000  0.6508444  3
    646    634    630    659     1  0.0000000  0.6508444  3
    647    646    652   1348     1  0.0000000  1.0460000  1
    647    646    652   1348     1  0.0000000  0.0000000  3
    647    646    652    653     1  0.0000000  0.6508444  3
    647    646    652    654     1  0.0000000  0.6508444  3
    648    646    652   1348     1  0.0000000  1.0460000  1
    648    646    652   1348     1  0.0000000  0.0000000  3
    648    646    652    653     1  0.0000000  0.6508444  3
    648    646    652    654     1  0.0000000  0.6508444  3
    652   1348   1339   1340     1  0.0000000  1.6038667  3
    652   1348   1339   1341     1  0.0000000  1.6038667  3
    653    652   1348   1339     1  0.0000000  1.6038667  3
    654    652   1348   1339     1  0.0000000  1.6038667  3
    655   1378   1369   1370     1  0.0000000  1.6038667  3
    655   1378   1369   1371     1  0.0000000  1.6038667  3
    656    655   1378   1369     1  0.0000000  1.6038667  3
    657    655   1378   1369     1  0.0000000  1.6038667  3
    660    661    673    674     1  0.0000000  0.6508444  3
    660    661    673    675     1  0.0000000  0.6508444  3
    660    664    676    677     1  0.0000000  0.6508444  3
    660    664    676    678     1  0.0000000  0.6508444  3
    660    667    670    671     1  0.0000000  0.6508444  3
    660    667    670    672     1  0.0000000  0.6508444  3
    661    660    664    665     1  0.0000000  0.6508444  3
    661    660    664    666     1  0.0000000  0.6508444  3
    661    660    667    668     1  0.0000000  0.6508444  3
    661    660    667    669     1  0.0000000  0.6508444  3
    661    673    685    686     1  0.0000000  0.6508444  3
    661    673    685    687     1  0.0000000  0.6508444  3
    662    661    660    664     1  0.0000000  0.6508444  3
    662    661    660    667     1  0.0000000  0.6508444  3
    662    661    660    689     1  0.0000000  0.6508444  3
    662    661    673    685     1  0.0000000  0.6508444  3
    662    661    673    674     1  0.0000000  0.6508444  3
    662    661    673    675     1  0.0000000  0.6508444  3
    663    661    660    664     1  0.0000000  0.6508444  3
    663    661    660    667     1  0.0000000  0.6508444  3
    663    661    660    689     1  0.0000000  0.6508444  3
    663    661    673    685     1  0.0000000  0.6508444  3
    663    661    673    674     1  0.0000000  0.6508444  3
    663    661    673    675     1  0.0000000  0.6508444  3
    664    660    667    668     1  0.0000000  0.6508444  3
    664    660    667    669     1  0.0000000  0.6508444  3
    664    676    682    683     1  0.0000000  0.6508444  3
    664    676    682    684     1  0.0000000  0.6508444  3
    665    664    660    667     1  0.0000000  0.6508444  3
    665    664    660    689     1  0.0000000  0.6508444  3
    665    664    676    682     1  0.0000000  0.6508444  3
    665    664    676    677     1  0.0000000  0.6508444  3
    665    664    676    678     1  0.0000000  0.6508444  3
    666    664    660    667     1  0.0000000  0.6508444  3
    666    664    660    689     1  0.0000000  0.6508444  3
    666    664    676    682     1  0.0000000  0.6508444  3
    666    664    676    677     1  0.0000000  0.6508444  3
    666    664    676    678     1  0.0000000  0.6508444  3
    667    670    679    680     1  0.0000000  0.6508444  3
    667    670    679    681     1  0.0000000  0.6508444  3
    668    667    660    689     1  0.0000000  0.6508444  3
    668    667    670    679     1  0.0000000  0.6508444  3
    668    667    670    671     1  0.0000000  0.6508444  3
    668    667    670    672     1  0.0000000  0.6508444  3
    669    667    660    689     1  0.0000000  0.6508444  3
    669    667    670    679     1  0.0000000  0.6508444  3
    669    667    670    671     1  0.0000000  0.6508444  3
    669    667    670    672     1  0.0000000  0.6508444  3
    670    667    660    689     1  0.0000000  0.6508444  3
    671    670    679    688     1  0.0000000  1.0460000  1
    671    670    679    688     1  0.0000000  0.0000000  3
    671    670    679    680     1  0.0000000  0.6508444  3
    671    670    679    681     1  0.0000000  0.6508444  3
    672    670    679    688     1  0.0000000  1.0460000  1
    672    670    679    688     1  0.0000000  0.0000000  3
    672    670    679    680     1  0.0000000  0.6508444  3
    672    670    679    681     1  0.0000000  0.6508444  3
    673    661    660    689     1  0.0000000  0.6508444  3
    674    673    685   1438     1  0.0000000  1.0460000  1
    674    673    685   1438     1  0.0000000  0.0000000  3
    674    673    685    686     1  0.0000000  0.6508444  3
    674    673    685    687     1  0.0000000  0.6508444  3
    675    673    685   1438     1  0.0000000  1.0460000  1
    675    673    685   1438     1  0.0000000  0.0000000  3
    675    673    685    686     1  0.0000000  0.6508444  3
    675    673    685    687     1  0.0000000  0.6508444  3
    676    664    660    689     1  0.0000000  0.6508444  3
    677    676    682   1408     1  0.0000000  1.0460000  1
    677    676    682   1408     1  0.0000000  0.0000000  3
    677    676    682    683     1  0.0000000  0.6508444  3
    677    676    682    684     1  0.0000000  0.6508444  3
    678    676    682   1408     1  0.0000000  1.0460000  1
    678    676    682   1408     1  0.0000000  0.0000000  3
    678    676    682    683     1  0.0000000  0.6508444  3
    678    676    682    684     1  0.0000000  0.6508444  3
    682   1408   1399   1400     1  0.0000000  1.6038667  3
    682   1408   1399   1401     1  0.0000000  1.6038667  3
    683    682   1408   1399     1  0.0000000  1.6038667  3
    684    682   1408   1399     1  0.0000000  1.6038667  3
    685   1438   1429   1430     1  0.0000000  1.6038667  3
    685   1438   1429   1431     1  0.0000000  1.6038667  3
    686    685   1438   1429     1  0.0000000  1.6038667  3
    687    685   1438   1429     1  0.0000000  1.6038667  3
    690    691    703    704     1  0.0000000  0.6508444  3
    690    691    703    705     1  0.0000000  0.6508444  3
    690    694    706    707     1  0.0000000  0.6508444  3
    690    694    706    708     1  0.0000000  0.6508444  3
    690    697    700    701     1  0.0000000  0.6508444  3
    690    697    700    702     1  0.0000000  0.6508444  3
    691    690    694    695     1  0.0000000  0.6508444  3
    691    690    694    696     1  0.0000000  0.6508444  3
    691    690    697    698     1  0.0000000  0.6508444  3
    691    690    697    699     1  0.0000000  0.6508444  3
    691    703    715    716     1  0.0000000  0.6508444  3
    691    703    715    717     1  0.0000000  0.6508444  3
    692    691    690    694     1  0.0000000  0.6508444  3
    692    691    690    697     1  0.0000000  0.6508444  3
    692    691    690    719     1  0.0000000  0.6508444  3
    692    691    703    715     1  0.0000000  0.6508444  3
    692    691    703    704     1  0.0000000  0.6508444  3
    692    691    703    705     1  0.0000000  0.6508444  3
    693    691    690    694     1  0.0000000  0.6508444  3
    693    691    690    697     1  0.0000000  0.6508444  3
    693    691    690    719     1  0.0000000  0.6508444  3
    693    691    703    715     1  0.0000000  0.6508444  3
    693    691    703    704     1  0.0000000  0.6508444  3
    693    691    703    705     1  0.0000000  0.6508444  3
    694    690    697    698     1  0.0000000  0.6508444  3
    694    690    697    699     1  0.0000000  0.6508444  3
    694    706    712    713     1  0.0000000  0.6508444  3
    694    706    712    714     1  0.0000000  0.6508444  3
    695    694    690    697     1  0.0000000  0.6508444  3
    695    694    690    719     1  0.0000000  0.6508444  3
    695    694    706    712     1  0.0000000  0.6508444  3
    695    694    706    707     1  0.0000000  0.6508444  3
    695    694    706    708     1  0.0000000  0.6508444  3
    696    694    690    697     1  0.0000000  0.6508444  3
    696    694    690    719     1  0.0000000  0.6508444  3
    696    694    706    712     1  0.0000000  0.6508444  3
    696    694    706    707     1  0.0000000  0.6508444  3
    696    694    706    708     1  0.0000000  0.6508444  3
    697    700    709    710     1  0.0000000  0.6508444  3
    697    700    709    711     1  0.0000000  0.6508444  3
    698    697    690    719     1  0.0000000  0.6508444  3
    698    697    700    709     1  0.0000000  0.6508444  3
    698    697    700    701     1  0.0000000  0.6508444  3
    698    697    700    702     1  0.0000000  0.6508444  3
    699    697    690    719     1  0.0000000  0.6508444  3
    699    697    700    709     1  0.0000000  0.6508444  3
    699    697    700    701     1  0.0000000  0.6508444  3
    699    697    700    702     1  0.0000000  0.6508444  3
    700    697    690    719     1  0.0000000  0.6508444  3
    701    700    709    718     1  0.0000000  1.0460000  1
    701    700    709    718     1  0.0000000  0.0000000  3
    701    700    709    710     1  0.0000000  0.6508444  3
    701    700    709    711     1  0.0000000  0.6508444  3
    702    700    709    718     1  0.0000000  1.0460000  1
    702    700    709    718     1  0.0000000  0.0000000  3
    702    700    709    710     1  0.0000000  0.6508444  3
    702    700    709    711     1  0.0000000  0.6508444  3
    703    691    690    719     1  0.0000000  0.6508444  3
    704    703    715   1498     1  0.0000000  1.0460000  1
    704    703    715   1498     1  0.0000000  0.0000000  3
    704    703    715    716     1  0.0000000  0.6508444  3
    704    703    715    717     1  0.0000000  0.6508444  3
    705    703    715   1498     1  0.0000000  1.0460000  1
    705    703    715   1498     1  0.0000000  0.0000000  3
    705    703    715    716     1  0.0000000  0.6508444  3
    705    703    715    717     1  0.0000000  0.6508444  3
    706    694    690    719     1  0.0000000  0.6508444  3
    707    706    712   1468     1  0.0000000  1.0460000  1
    707    706    712   1468     1  0.0000000  0.0000000  3
    707    706    712    713     1  0.0000000  0.6508444  3
    707    706    712    714     1  0.0000000  0.6508444  3
    708    706    712   1468     1  0.0000000  1.0460000  1
    708    706    712   1468     1  0.0000000  0.0000000  3
    708    706    712    713     1  0.0000000  0.6508444  3
    708    706    712    714     1  0.0000000  0.6508444  3
    712   1468   1459   1460     1  0.0000000  1.6038667  3
    712   1468   1459   1461     1  0.0000000  1.6038667  3
    713    712   1468   1459     1  0.0000000  1.6038667  3
    714    712   1468   1459     1  0.0000000  1.6038667  3
    715   1498   1489   1490     1  0.0000000  1.6038667  3
    715   1498   1489   1491     1  0.0000000  1.6038667  3
    716    715   1498   1489     1  0.0000000  1.6038667  3
    717    715   1498   1489     1  0.0000000  1.6038667  3
    720    721    733    734     1  0.0000000  0.6508444  3
    720    721    733    735     1  0.0000000  0.6508444  3
    720    724    736    737     1  0.0000000  0.6508444  3
    720    724    736    738     1  0.0000000  0.6508444  3
    720    727    730    731     1  0.0000000  0.6508444  3
    720    727    730    732     1  0.0000000  0.6508444  3
    721    720    724    725     1  0.0000000  0.6508444  3
    721    720    724    726     1  0.0000000  0.6508444  3
    721    720    727    728     1  0.0000000  0.6508444  3
    721    720    727    729     1  0.0000000  0.6508444  3
    721    733    745    746     1  0.0000000  0.6508444  3
    721    733    745    747     1  0.0000000  0.6508444  3
    722    721    720    724     1  0.0000000  0.6508444  3
    722    721    720    727     1  0.0000000  0.6508444  3
    722    721    720    749     1  0.0000000  0.6508444  3
    722    721    733    745     1  0.0000000  0.6508444  3
    722    721    733    734     1  0.0000000  0.6508444  3
    722    721    733    735     1  0.0000000  0.6508444  3
    723    721    720    724     1  0.0000000  0.6508444  3
    723    721    720    727     1  0.0000000  0.6508444  3
    723    721    720    749     1  0.0000000  0.6508444  3
    723    721    733    745     1  0.0000000  0.6508444  3
    723    721    733    734     1  0.0000000  0.6508444  3
    723    721    733    735     1  0.0000000  0.6508444  3
    724    720    727    728     1  0.0000000  0.6508444  3
    724    720    727    729     1  0.0000000  0.6508444  3
    724    736    742    743     1  0.0000000  0.6508444  3
    724    736    742    744     1  0.0000000  0.6508444  3
    725    724    720    727     1  0.0000000  0.6508444  3
    725    724    720    749     1  0.0000000  0.6508444  3
    725    724    736    742     1  0.0000000  0.6508444  3
    725    724    736    737     1  0.0000000  0.6508444  3
    725    724    736    738     1  0.0000000  0.6508444  3
    726    724    720    727     1  0.0000000  0.6508444  3
    726    724    720    749     1  0.0000000  0.6508444  3
    726    724    736    742     1  0.0000000  0.6508444  3
    726    724    736    737     1  0.0000000  0.6508444  3
    726    724    736    738     1  0.0000000  0.6508444  3
    727    730    739    740     1  0.0000000  0.6508444  3
    727    730    739    741     1  0.0000000  0.6508444  3
    728    727    720    749     1  0.0000000  0.6508444  3
    728    727    730    739     1  0.0000000  0.6508444  3
    728    727    730    731     1  0.0000000  0.6508444  3
    728    727    730    732     1  0.0000000  0.6508444  3
    729    727    720    749     1  0.0000000  0.6508444  3
    729    727    730    739     1  0.0000000  0.6508444  3
    729    727    730    731     1  0.0000000  0.6508444  3
    729    727    730    732     1  0.0000000  0.6508444  3
    730    727    720    749     1  0.0000000  0.6508444  3
    731    730    739    748     1  0.0000000  1.0460000  1
    731    730    739    748     1  0.0000000  0.0000000  3
    731    730    739    740     1  0.0000000  0.6508444  3
    731    730    739    741     1  0.0000000  0.6508444  3
    732    730    739    748     1  0.0000000  1.0460000  1
    732    730    739    748     1  0.0000000  0.0000000  3
    732    730    739    740     1  0.0000000  0.6508444  3
    732    730    739    741     1  0.0000000  0.6508444  3
    733    721    720    749     1  0.0000000  0.6508444  3
    734    733    745   1558     1  0.0000000  1.0460000  1
    734    733    745   1558     1  0.0000000  0.0000000  3
    734    733    745    746     1  0.0000000  0.6508444  3
    734    733    745    747     1  0.0000000  0.6508444  3
    735    733    745   1558     1  0.0000000  1.0460000  1
    735    733    745   1558     1  0.0000000  0.0000000  3
    735    733    745    746     1  0.0000000  0.6508444  3
    735    733    745    747     1  0.0000000  0.6508444  3
    736    724    720    749     1  0.0000000  0.6508444  3
    737    736    742   1528     1  0.0000000  1.0460000  1
    737    736    742   1528     1  0.0000000  0.0000000  3
    737    736    742    743     1  0.0000000  0.6508444  3
    737    736    742    744     1  0.0000000  0.6508444  3
    738    736    742   1528     1  0.0000000  1.0460000  1
    738    736    742   1528     1  0.0000000  0.0000000  3
    738    736    742    743     1  0.0000000  0.6508444  3
    738    736    742    744     1  0.0000000  0.6508444  3
    742   1528   1519   1520     1  0.0000000  1.6038667  3
    742   1528   1519   1521     1  0.0000000  1.6038667  3
    743    742   1528   1519     1  0.0000000  1.6038667  3
    744    742   1528   1519     1  0.0000000  1.6038667  3
    745   1558   1549   1550     1  0.0000000  1.6038667  3
    745   1558   1549   1551     1  0.0000000  1.6038667  3
    746    745   1558   1549     1  0.0000000  1.6038667  3
    747    745   1558   1549     1  0.0000000  1.6038667  3
    750    751    763    764     1  0.0000000  0.6508444  3
    750    751    763    765     1  0.0000000  0.6508444  3
    750    754    766    767     1  0.0000000  0.6508444  3
    750    754    766    768     1  0.0000000  0.6508444  3
    750    757    760    761     1  0.0000000  0.6508444  3
    750    757    760    762     1  0.0000000  0.6508444  3
    751    750    754    755     1  0.0000000  0.6508444  3
    751    750    754    756     1  0.0000000  0.6508444  3
    751    750    757    758     1  0.0000000  0.6508444  3
    751    750    757    759     1  0.0000000  0.6508444  3
    751    763    775    776     1  0.0000000  0.6508444  3
    751    763    775    777     1  0.0000000  0.6508444  3
    752    751    750    754     1  0.0000000  0.6508444  3
    752    751    750    757     1  0.0000000  0.6508444  3
    752    751    750    779     1  0.0000000  0.6508444  3
    752    751    763    775     1  0.0000000  0.6508444  3
    752    751    763    764     1  0.0000000  0.6508444  3
    752    751    763    765     1  0.0000000  0.6508444  3
    753    751    750    754     1  0.0000000  0.6508444  3
    753    751    750    757     1  0.0000000  0.6508444  3
    753    751    750    779     1  0.0000000  0.6508444  3
    753    751    763    775     1  0.0000000  0.6508444  3
    753    751    763    764     1  0.0000000  0.6508444  3
    753    751    763    765     1  0.0000000  0.6508444  3
    754    750    757    758     1  0.0000000  0.6508444  3
    754    750    757    759     1  0.0000000  0.6508444  3
    754    766    772    773     1  0.0000000  0.6508444  3
    754    766    772    774     1  0.0000000  0.6508444  3
    755    754    750    757     1  0.0000000  0.6508444  3
    755    754    750    779     1  0.0000000  0.6508444  3
    755    754    766    772     1  0.0000000  0.6508444  3
    755    754    766    767     1  0.0000000  0.6508444  3
    755    754    766    768     1  0.0000000  0.6508444  3
    756    754    750    757     1  0.0000000  0.6508444  3
    756    754    750    779     1  0.0000000  0.6508444  3
    756    754    766    772     1  0.0000000  0.6508444  3
    756    754    766    767     1  0.0000000  0.6508444  3
    756    754    766    768     1  0.0000000  0.6508444  3
    757    760    769    770     1  0.0000000  0.6508444  3
    757    760    769    771     1  0.0000000  0.6508444  3
    758    757    750    779     1  0.0000000  0.6508444  3
    758    757    760    769     1  0.0000000  0.6508444  3
    758    757    760    761     1  0.0000000  0.6508444  3
    758    757    760    762     1  0.0000000  0.6508444  3
    759    757    750    779     1  0.0000000  0.6508444  3
    759    757    760    769     1  0.0000000  0.6508444  3
    759    757    760    761     1  0.0000000  0.6508444  3
    759    757    760    762     1  0.0000000  0.6508444  3
    760    757    750    779     1  0.0000000  0.6508444  3
    761    760    769    778     1  0.0000000  1.0460000  1
    761    760    769    778     1  0.0000000  0.0000000  3
    761    760    769    770     1  0.0000000  0.6508444  3
    761    760    769    771     1  0.0000000  0.6508444  3
    762    760    769    778     1  0.0000000  1.0460000  1
    762    760    769    778     1  0.0000000  0.0000000  3
    762    760    769    770     1  0.0000000  0.6508444  3
    762    760    769    771     1  0.0000000  0.6508444  3
    763    751    750    779     1  0.0000000  0.6508444  3
    764    763    775   1618     1  0.0000000  1.0460000  1
    764    763    775   1618     1  0.0000000  0.0000000  3
    764    763    775    776     1  0.0000000  0.6508444  3
    764    763    775    777     1  0.0000000  0.6508444  3
    765    763    775   1618     1  0.0000000  1.0460000  1
    765    763    775   1618     1  0.0000000  0.0000000  3
    765    763    775    776     1  0.0000000  0.6508444  3
    765    763    775    777     1  0.0000000  0.6508444  3
    766    754    750    779     1  0.0000000  0.6508444  3
    767    766    772   1588     1  0.0000000  1.0460000  1
    767    766    772   1588     1  0.0000000  0.0000000  3
    767    766    772    773     1  0.0000000  0.6508444  3
    767    766    772    774     1  0.0000000  0.6508444  3
    768    766    772   1588     1  0.0000000  1.0460000  1
    768    766    772   1588     1  0.0000000  0.0000000  3
    768    766    772    773     1  0.0000000  0.6508444  3
    768    766    772    774     1  0.0000000  0.6508444  3
    772   1588   1579   1580     1  0.0000000  1.6038667  3
    772   1588   1579   1581     1  0.0000000  1.6038667  3
    773    772   1588   1579     1  0.0000000  1.6038667  3
    774    772   1588   1579     1  0.0000000  1.6038667  3
    775   1618   1609   1610     1  0.0000000  1.6038667  3
    775   1618   1609   1611     1  0.0000000  1.6038667  3
    776    775   1618   1609     1  0.0000000  1.6038667  3
    777    775   1618   1609     1  0.0000000  1.6038667  3
    780    781    793    794     1  0.0000000  0.6508444  3
    780    781    793    795     1  0.0000000  0.6508444  3
    780    784    796    797     1  0.0000000  0.6508444  3
    780    784    796    798     1  0.0000000  0.6508444  3
    780    787    790    791     1  0.0000000  0.6508444  3
    780    787    790    792     1  0.0000000  0.6508444  3
    781    780    784    785     1  0.0000000  0.6508444  3
    781    780    784    786     1  0.0000000  0.6508444  3
    781    780    787    788     1  0.0000000  0.6508444  3
    781    780    787    789     1  0.0000000  0.6508444  3
    781    793    805    806     1  0.0000000  0.6508444  3
    781    793    805    807     1  0.0000000  0.6508444  3
    782    781    780    784     1  0.0000000  0.6508444  3
    782    781    780    787     1  0.0000000  0.6508444  3
    782    781    780    809     1  0.0000000  0.6508444  3
    782    781    793    805     1  0.0000000  0.6508444  3
    782    781    793    794     1  0.0000000  0.6508444  3
    782    781    793    795     1  0.0000000  0.6508444  3
    783    781    780    784     1  0.0000000  0.6508444  3
    783    781    780    787     1  0.0000000  0.6508444  3
    783    781    780    809     1  0.0000000  0.6508444  3
    783    781    793    805     1  0.0000000  0.6508444  3
    783    781    793    794     1  0.0000000  0.6508444  3
    783    781    793    795     1  0.0000000  0.6508444  3
    784    780    787    788     1  0.0000000  0.6508444  3
    784    780    787    789     1  0.0000000  0.6508444  3
    784    796    802    803     1  0.0000000  0.6508444  3
    784    796    802    804     1  0.0000000  0.6508444  3
    785    784    780    787     1  0.0000000  0.6508444  3
    785    784    780    809     1  0.0000000  0.6508444  3
    785    784    796    802     1  0.0000000  0.6508444  3
    785    784    796    797     1  0.0000000  0.6508444  3
    785    784    796    798     1  0.0000000  0.6508444  3
    786    784    780    787     1  0.0000000  0.6508444  3
    786    784    780    809     1  0.0000000  0.6508444  3
    786    784    796    802     1  0.0000000  0.6508444  3
    786    784    796    797     1  0.0000000  0.6508444  3
    786    784    796    798     1  0.0000000  0.6508444  3
    787    790    799    800     1  0.0000000  0.6508444  3
    787    790    799    801     1  0.0000000  0.6508444  3
    788    787    780    809     1  0.0000000  0.6508444  3
    788    787    790    799     1  0.0000000  0.6508444  3
    788    787    790    791     1  0.0000000  0.6508444  3
    788    787    790    792     1  0.0000000  0.6508444  3
    789    787    780    809     1  0.0000000  0.6508444  3
    789    787    790    799     1  0.0000000  0.6508444  3
    789    787    790    791     1  0.0000000  0.6508444  3
    789    787    790    792     1  0.0000000  0.6508444  3
    790    787    780    809     1  0.0000000  0.6508444  3
    791    790    799    808     1  0.0000000  1.0460000  1
    791    790    799    808     1  0.0000000  0.0000000  3
    791    790    799    800     1  0.0000000  0.6508444  3
    791    790    799    801     1  0.0000000  0.6508444  3
    792    790    799    808     1  0.0000000  1.0460000  1
    792    790    799    808     1  0.0000000  0.0000000  3
    792    790    799    800     1  0.0000000  0.6508444  3
    792    790    799    801     1  0.0000000  0.6508444  3
    793    781    780    809     1  0.0000000  0.6508444  3
    794    793    805   1678     1  0.0000000  1.0460000  1
    794    793    805   1678     1  0.0000000  0.0000000  3
    794    793    805    806     1  0.0000000  0.6508444  3
    794    793    805    807     1  0.0000000  0.6508444  3
    795    793    805   1678     1  0.0000000  1.0460000  1
    795    793    805   1678     1  0.0000000  0.0000000  3
    795    793    805    806     1  0.0000000  0.6508444  3
    795    793    805    807     1  0.0000000  0.6508444  3
    796    784    780    809     1  0.0000000  0.6508444  3
    797    796    802   1648     1  0.0000000  1.0460000  1
    797    796    802   1648     1  0.0000000  0.0000000  3
    797    796    802    803     1  0.0000000  0.6508444  3
    797    796    802    804     1  0.0000000  0.6508444  3
    798    796    802   1648     1  0.0000000  1.0460000  1
    798    796    802   1648     1  0.0000000  0.0000000  3
    798    796    802    803     1  0.0000000  0.6508444  3
    798    796    802    804     1  0.0000000  0.6508444  3
    802   1648   1639   1640     1  0.0000000  1.6038667  3
    802   1648   1639   1641     1  0.0000000  1.6038667  3
    803    802   1648   1639     1  0.0000000  1.6038667  3
    804    802   1648   1639     1  0.0000000  1.6038667  3
    805   1678   1669   1670     1  0.0000000  1.6038667  3
    805   1678   1669   1671     1  0.0000000  1.6038667  3
    806    805   1678   1669     1  0.0000000  1.6038667  3
    807    805   1678   1669     1  0.0000000  1.6038667  3
    810    811    823    824     1  0.0000000  0.6508444  3
    810    811    823    825     1  0.0000000  0.6508444  3
    810    814    826    827     1  0.0000000  0.6508444  3
    810    814    826    828     1  0.0000000  0.6508444  3
    810    817    820    821     1  0.0000000  0.6508444  3
    810    817    820    822     1  0.0000000  0.6508444  3
    811    810    814    815     1  0.0000000  0.6508444  3
    811    810    814    816     1  0.0000000  0.6508444  3
    811    810    817    818     1  0.0000000  0.6508444  3
    811    810    817    819     1  0.0000000  0.6508444  3
    811    823    835    836     1  0.0000000  0.6508444  3
    811    823    835    837     1  0.0000000  0.6508444  3
    812    811    810    814     1  0.0000000  0.6508444  3
    812    811    810    817     1  0.0000000  0.6508444  3
    812    811    810    839     1  0.0000000  0.6508444  3
    812    811    823    835     1  0.0000000  0.6508444  3
    812    811    823    824     1  0.0000000  0.6508444  3
    812    811    823    825     1  0.0000000  0.6508444  3
    813    811    810    814     1  0.0000000  0.6508444  3
    813    811    810    817     1  0.0000000  0.6508444  3
    813    811    810    839     1  0.0000000  0.6508444  3
    813    811    823    835     1  0.0000000  0.6508444  3
    813    811    823    824     1  0.0000000  0.6508444  3
    813    811    823    825     1  0.0000000  0.6508444  3
    814    810    817    818     1  0.0000000  0.6508444  3
    814    810    817    819     1  0.0000000  0.6508444  3
    814    826    832    833     1  0.0000000  0.6508444  3
    814    826    832    834     1  0.0000000  0.6508444  3
    815    814    810    817     1  0.0000000  0.6508444  3
    815    814    810    839     1  0.0000000  0.6508444  3
    815    814    826    832     1  0.0000000  0.6508444  3
    815    814    826    827     1  0.0000000  0.6508444  3
    815    814    826    828     1  0.0000000  0.6508444  3
    816    814    810    817     1  0.0000000  0.6508444  3
    816    814    810    839     1  0.0000000  0.6508444  3
    816    814    826    832     1  0.0000000  0.6508444  3
    816    814    826    827     1  0.0000000  0.6508444  3
    816    814    826    828     1  0.0000000  0.6508444  3
    817    820    829    830     1  0.0000000  0.6508444  3
    817    820    829    831     1  0.0000000  0.6508444  3
    818    817    810    839     1  0.0000000  0.6508444  3
    818    817    820    829     1  0.0000000  0.6508444  3
    818    817    820    821     1  0.0000000  0.6508444  3
    818    817    820    822     1  0.0000000  0.6508444  3
    819    817    810    839     1  0.0000000  0.6508444  3
    819    817    820    829     1  0.0000000  0.6508444  3
    819    817    820    821     1  0.0000000  0.6508444  3
    819    817    820    822     1  0.0000000  0.6508444  3
    820    817    810    839     1  0.0000000  0.6508444  3
    821    820    829    838     1  0.0000000  1.0460000  1
    821    820    829    838     1  0.0000000  0.0000000  3
    821    820    829    830     1  0.0000000  0.6508444  3
    821    820    829    831     1  0.0000000  0.6508444  3
    822    820    829    838     1  0.0000000  1.0460000  1
    822    820    829    838     1  0.0000000  0.0000000  3
    822    820    829    830     1  0.0000000  0.6508444  3
    822    820    829    831     1  0.0000000  0.6508444  3
    823    811    810    839     1  0.0000000  0.6508444  3
    824    823    835   1738     1  0.0000000  1.0460000  1
    824    823    835   1738     1  0.0000000  0.0000000  3
    824    823    835    836     1  0.0000000  0.6508444  3
    824    823    835    837     1  0.0000000  0.6508444  3
    825    823    835   1738     1  0.0000000  1.0460000  1
    825    823    835   1738     1  0.0000000  0.0000000  3
    825    823    835    836     1  0.0000000  0.6508444  3
    825    823    835    837     1  0.0000000  0.6508444  3
    826    814    810    839     1  0.0000000  0.6508444  3
    827    826    832   1708     1  0.0000000  1.0460000  1
    827    826    832   1708     1  0.0000000  0.0000000  3
    827    826    832    833     1  0.0000000  0.6508444  3
    827    826    832    834     1  0.0000000  0.6508444  3
    828    826    832   1708     1  0.0000000  1.0460000  1
    828    826    832   1708     1  0.0000000  0.0000000  3
    828    826    832    833     1  0.0000000  0.6508444  3
    828    826    832    834     1  0.0000000  0.6508444  3
    832   1708   1699   1700     1  0.0000000  1.6038667  3
    832   1708   1699   1701     1  0.0000000  1.6038667  3
    833    832   1708   1699     1  0.0000000  1.6038667  3
    834    832   1708   1699     1  0.0000000  1.6038667  3
    835   1738   1729   1730     1  0.0000000  1.6038667  3
    835   1738   1729   1731     1  0.0000000  1.6038667  3
    836    835   1738   1729     1  0.0000000  1.6038667  3
    837    835   1738   1729     1  0.0000000  1.6038667  3
    840    841    853    854     1  0.0000000  0.6508444  3
    840    841    853    855     1  0.0000000  0.6508444  3
    840    844    856    857     1  0.0000000  0.6508444  3
    840    844    856    858     1  0.0000000  0.6508444  3
    840    847    850    851     1  0.0000000  0.6508444  3
    840    847    850    852     1  0.0000000  0.6508444  3
    841    840    844    845     1  0.0000000  0.6508444  3
    841    840    844    846     1  0.0000000  0.6508444  3
    841    840    847    848     1  0.0000000  0.6508444  3
    841    840    847    849     1  0.0000000  0.6508444  3
    841    853    865    866     1  0.0000000  0.6508444  3
    841    853    865    867     1  0.0000000  0.6508444  3
    842    841    840    844     1  0.0000000  0.6508444  3
    842    841    840    847     1  0.0000000  0.6508444  3
    842    841    840    869     1  0.0000000  0.6508444  3
    842    841    853    865     1  0.0000000  0.6508444  3
    842    841    853    854     1  0.0000000  0.6508444  3
    842    841    853    855     1  0.0000000  0.6508444  3
    843    841    840    844     1  0.0000000  0.6508444  3
    843    841    840    847     1  0.0000000  0.6508444  3
    843    841    840    869     1  0.0000000  0.6508444  3
    843    841    853    865     1  0.0000000  0.6508444  3
    843    841    853    854     1  0.0000000  0.6508444  3
    843    841    853    855     1  0.0000000  0.6508444  3
    844    840    847    848     1  0.0000000  0.6508444  3
    844    840    847    849     1  0.0000000  0.6508444  3
    844    856    862    863     1  0.0000000  0.6508444  3
    844    856    862    864     1  0.0000000  0.6508444  3
    845    844    840    847     1  0.0000000  0.6508444  3
    845    844    840    869     1  0.0000000  0.6508444  3
    845    844    856    862     1  0.0000000  0.6508444  3
    845    844    856    857     1  0.0000000  0.6508444  3
    845    844    856    858     1  0.0000000  0.6508444  3
    846    844    840    847     1  0.0000000  0.6508444  3
    846    844    840    869     1  0.0000000  0.6508444  3
    846    844    856    862     1  0.0000000  0.6508444  3
    846    844    856    857     1  0.0000000  0.6508444  3
    846    844    856    858     1  0.0000000  0.6508444  3
    847    850    859    860     1  0.0000000  0.6508444  3
    847    850    859    861     1  0.0000000  0.6508444  3
    848    847    840    869     1  0.0000000  0.6508444  3
    848    847    850    859     1  0.0000000  0.6508444  3
    848    847    850    851     1  0.0000000  0.6508444  3
    848    847    850    852     1  0.0000000  0.6508444  3
    849    847    840    869     1  0.0000000  0.6508444  3
    849    847    850    859     1  0.0000000  0.6508444  3
    849    847    850    851     1  0.0000000  0.6508444  3
    849    847    850    852     1  0.0000000  0.6508444  3
    850    847    840    869     1  0.0000000  0.6508444  3
    851    850    859    868     1  0.0000000  1.0460000  1
    851    850    859    868     1  0.0000000  0.0000000  3
    851    850    859    860     1  0.0000000  0.6508444  3
    851    850    859    861     1  0.0000000  0.6508444  3
    852    850    859    868     1  0.0000000  1.0460000  1
    852    850    859    868     1  0.0000000  0.0000000  3
    852    850    859    860     1  0.0000000  0.6508444  3
    852    850    859    861     1  0.0000000  0.6508444  3
    853    841    840    869     1  0.0000000  0.6508444  3
    854    853    865   1798     1  0.0000000  1.0460000  1
    854    853    865   1798     1  0.0000000  0.0000000  3
    854    853    865    866     1  0.0000000  0.6508444  3
    854    853    865    867     1  0.0000000  0.6508444  3
    855    853    865   1798     1  0.0000000  1.0460000  1
    855    853    865   1798     1  0.0000000  0.0000000  3
    855    853    865    866     1  0.0000000  0.6508444  3
    855    853    865    867     1  0.0000000  0.6508444  3
    856    844    840    869     1  0.0000000  0.6508444  3
    857    856    862   1768     1  0.0000000  1.0460000  1
    857    856    862   1768     1  0.0000000  0.0000000  3
    857    856    862    863     1  0.0000000  0.6508444  3
    857    856    862    864     1  0.0000000  0.6508444  3
    858    856    862   1768     1  0.0000000  1.0460000  1
    858    856    862   1768     1  0.0000000  0.0000000  3
    858    856    862    863     1  0.0000000  0.6508444  3
    858    856    862    864     1  0.0000000  0.6508444  3
    862   1768   1759   1760     1  0.0000000  1.6038667  3
    862   1768   1759   1761     1  0.0000000  1.6038667  3
    863    862   1768   1759     1  0.0000000  1.6038667  3
    864    862   1768   1759     1  0.0000000  1.6038667  3
    865   1798   1789   1790     1  0.0000000  1.6038667  3
    865   1798   1789   1791     1  0.0000000  1.6038667  3
    866    865   1798   1789     1  0.0000000  1.6038667  3
    867    865   1798   1789     1  0.0000000  1.6038667  3
    870    871    883    884     1  0.0000000  0.6508444  3
    870    871    883    885     1  0.0000000  0.6508444  3
    870    874    886    887     1  0.0000000  0.6508444  3
    870    874    886    888     1  0.0000000  0.6508444  3
    870    877    880    881     1  0.0000000  0.6508444  3
    870    877    880    882     1  0.0000000  0.6508444  3
    871    870    874    875     1  0.0000000  0.6508444  3
    871    870    874    876     1  0.0000000  0.6508444  3
    871    870    877    878     1  0.0000000  0.6508444  3
    871    870    877    879     1  0.0000000  0.6508444  3
    871    883    895    896     1  0.0000000  0.6508444  3
    871    883    895    897     1  0.0000000  0.6508444  3
    872    871    870    874     1  0.0000000  0.6508444  3
    872    871    870    877     1  0.0000000  0.6508444  3
    872    871    870    899     1  0.0000000  0.6508444  3
    872    871    883    895     1  0.0000000  0.6508444  3
    872    871    883    884     1  0.0000000  0.6508444  3
    872    871    883    885     1  0.0000000  0.6508444  3
    873    871    870    874     1  0.0000000  0.6508444  3
    873    871    870    877     1  0.0000000  0.6508444  3
    873    871    870    899     1  0.0000000  0.6508444  3
    873    871    883    895     1  0.0000000  0.6508444  3
    873    871    883    884     1  0.0000000  0.6508444  3
    873    871    883    885     1  0.0000000  0.6508444  3
    874    870    877    878     1  0.0000000  0.6508444  3
    874    870    877    879     1  0.0000000  0.6508444  3
    874    886    892    893     1  0.0000000  0.6508444  3
    874    886    892    894     1  0.0000000  0.6508444  3
    875    874    870    877     1  0.0000000  0.6508444  3
    875    874    870    899     1  0.0000000  0.6508444  3
    875    874    886    892     1  0.0000000  0.6508444  3
    875    874    886    887     1  0.0000000  0.6508444  3
    875    874    886    888     1  0.0000000  0.6508444  3
    876    874    870    877     1  0.0000000  0.6508444  3
    876    874    870    899     1  0.0000000  0.6508444  3
    876    874    886    892     1  0.0000000  0.6508444  3
    876    874    886    887     1  0.0000000  0.6508444  3
    876    874    886    888     1  0.0000000  0.6508444  3
    877    880    889    890     1  0.0000000  0.6508444  3
    877    880    889    891     1  0.0000000  0.6508444  3
    878    877    870    899     1  0.0000000  0.6508444  3
    878    877    880    889     1  0.0000000  0.6508444  3
    878    877    880    881     1  0.0000000  0.6508444  3
    878    877    880    882     1  0.0000000  0.6508444  3
    879    877    870    899     1  0.0000000  0.6508444  3
    879    877    880    889     1  0.0000000  0.6508444  3
    879    877    880    881     1  0.0000000  0.6508444  3
    879    877    880    882     1  0.0000000  0.6508444  3
    880    877    870    899     1  0.0000000  0.6508444  3
    881    880    889    898     1  0.0000000  1.0460000  1
    881    880    889    898     1  0.0000000  0.0000000  3
    881    880    889    890     1  0.0000000  0.6508444  3
    881    880    889    891     1  0.0000000  0.6508444  3
    882    880    889    898     1  0.0000000  1.0460000  1
    882    880    889    898     1  0.0000000  0.0000000  3
    882    880    889    890     1  0.0000000  0.6508444  3
    882    880    889    891     1  0.0000000  0.6508444  3
    883    871    870    899     1  0.0000000  0.6508444  3
    884    883    895   1858     1  0.0000000  1.0460000  1
    884    883    895   1858     1  0.0000000  0.0000000  3
    884    883    895    896     1  0.0000000  0.6508444  3
    884    883    895    897     1  0.0000000  0.6508444  3
    885    883    895   1858     1  0.0000000  1.0460000  1
    885    883    895   1858     1  0.0000000  0.0000000  3
    885    883    895    896     1  0.0000000  0.6508444  3
    885    883    895    897     1  0.0000000  0.6508444  3
    886    874    870    899     1  0.0000000  0.6508444  3
    887    886    892   1828     1  0.0000000  1.0460000  1
    887    886    892   1828     1  0.0000000  0.0000000  3
    887    886    892    893     1  0.0000000  0.6508444  3
    887    886    892    894     1  0.0000000  0.6508444  3
    888    886    892   1828     1  0.0000000  1.0460000  1
    888    886    892   1828     1  0.0000000  0.0000000  3
    888    886    892    893     1  0.0000000  0.6508444  3
    888    886    892    894     1  0.0000000  0.6508444  3
    892   1828   1819   1820     1  0.0000000  1.6038667  3
    892   1828   1819   1821     1  0.0000000  1.6038667  3
    893    892   1828   1819     1  0.0000000  1.6038667  3
    894    892   1828   1819     1  0.0000000  1.6038667  3
    895   1858   1849   1850     1  0.0000000  1.6038667  3
    895   1858   1849   1851     1  0.0000000  1.6038667  3
    896    895   1858   1849     1  0.0000000  1.6038667  3
    897    895   1858   1849     1  0.0000000  1.6038667  3
    900    901    913    914     1  0.0000000  0.6508444  3
    900    901    913    915     1  0.0000000  0.6508444  3
    900    904    916    917     1  0.0000000  0.6508444  3
    900    904    916    918     1  0.0000000  0.6508444  3
    900    907    910    911     1  0.0000000  0.6508444  3
    900    907    910    912     1  0.0000000  0.6508444  3
    901    900    904    905     1  0.0000000  0.6508444  3
    901    900    904    906     1  0.0000000  0.6508444  3
    901    900    907    908     1  0.0000000  0.6508444  3
    901    900    907    909     1  0.0000000  0.6508444  3
    901    913    925    926     1  0.0000000  0.6508444  3
    901    913    925    927     1  0.0000000  0.6508444  3
    902    901    900    904     1  0.0000000  0.6508444  3
    902    901    900    907     1  0.0000000  0.6508444  3
    902    901    900    929     1  0.0000000  0.6508444  3
    902    901    913    925     1  0.0000000  0.6508444  3
    902    901    913    914     1  0.0000000  0.6508444  3
    902    901    913    915     1  0.0000000  0.6508444  3
    903    901    900    904     1  0.0000000  0.6508444  3
    903    901    900    907     1  0.0000000  0.6508444  3
    903    901    900    929     1  0.0000000  0.6508444  3
    903    901    913    925     1  0.0000000  0.6508444  3
    903    901    913    914     1  0.0000000  0.6508444  3
    903    901    913    915     1  0.0000000  0.6508444  3
    904    900    907    908     1  0.0000000  0.6508444  3
    904    900    907    909     1  0.0000000  0.6508444  3
    904    916    922    923     1  0.0000000  0.6508444  3
    904    916    922    924     1  0.0000000  0.6508444  3
    905    904    900    907     1  0.0000000  0.6508444  3
    905    904    900    929     1  0.0000000  0.6508444  3
    905    904    916    922     1  0.0000000  0.6508444  3
    905    904    916    917     1  0.0000000  0.6508444  3
    905    904    916    918     1  0.0000000  0.6508444  3
    906    904    900    907     1  0.0000000  0.6508444  3
    906    904    900    929     1  0.0000000  0.6508444  3
    906    904    916    922     1  0.0000000  0.6508444  3
    906    904    916    917     1  0.0000000  0.6508444  3
    906    904    916    918     1  0.0000000  0.6508444  3
    907    910    919    920     1  0.0000000  0.6508444  3
    907    910    919    921     1  0.0000000  0.6508444  3
    908    907    900    929     1  0.0000000  0.6508444  3
    908    907    910    919     1  0.0000000  0.6508444  3
    908    907    910    911     1  0.0000000  0.6508444  3
    908    907    910    912     1  0.0000000  0.6508444  3
    909    907    900    929     1  0.0000000  0.6508444  3
    909    907    910    919     1  0.0000000  0.6508444  3
    909    907    910    911     1  0.0000000  0.6508444  3
    909    907    910    912     1  0.0000000  0.6508444  3
    910    907    900    929     1  0.0000000  0.6508444  3
    911    910    919    928     1  0.0000000  1.0460000  1
    911    910    919    928     1  0.0000000  0.0000000  3
    911    910    919    920     1  0.0000000  0.6508444  3
    911    910    919    921     1  0.0000000  0.6508444  3
    912    910    919    928     1  0.0000000  1.0460000  1
    912    910    919    928     1  0.0000000  0.0000000  3
    912    910    919    920     1  0.0000000  0.6508444  3
    912    910    919    921     1  0.0000000  0.6508444  3
    913    901    900    929     1  0.0000000  0.6508444  3
    914    913    925   1918     1  0.0000000  1.0460000  1
    914    913    925   1918     1  0.0000000  0.0000000  3
    914    913    925    926     1  0.0000000  0.6508444  3
    914    913    925    927     1  0.0000000  0.6508444  3
    915    913    925   1918     1  0.0000000  1.0460000  1
    915    913    925   1918     1  0.0000000  0.0000000  3
    915    913    925    926     1  0.0000000  0.6508444  3
    915    913    925    927     1  0.0000000  0.6508444  3
    916    904    900    929     1  0.0000000  0.6508444  3
    917    916    922   1888     1  0.0000000  1.0460000  1
    917    916    922   1888     1  0.0000000  0.0000000  3
    917    916    922    923     1  0.0000000  0.6508444  3
    917    916    922    924     1  0.0000000  0.6508444  3
    918    916    922   1888     1  0.0000000  1.0460000  1
    918    916    922   1888     1  0.0000000  0.0000000  3
    918    916    922    923     1  0.0000000  0.6508444  3
    918    916    922    924     1  0.0000000  0.6508444  3
    922   1888   1879   1880     1  0.0000000  1.6038667  3
    922   1888   1879   1881     1  0.0000000  1.6038667  3
    923    922   1888   1879     1  0.0000000  1.6038667  3
    924    922   1888   1879     1  0.0000000  1.6038667  3
    925   1918   1909   1910     1  0.0000000  1.6038667  3
    925   1918   1909   1911     1  0.0000000  1.6038667  3
    926    925   1918   1909     1  0.0000000  1.6038667  3
    927    925   1918   1909     1  0.0000000  1.6038667  3
    930    931    943    944     1  0.0000000  0.6508444  3
    930    931    943    945     1  0.0000000  0.6508444  3
    930    934    946    947     1  0.0000000  0.6508444  3
    930    934    946    948     1  0.0000000  0.6508444  3
    930    937    940    941     1  0.0000000  0.6508444  3
    930    937    940    942     1  0.0000000  0.6508444  3
    931    930    934    935     1  0.0000000  0.6508444  3
    931    930    934    936     1  0.0000000  0.6508444  3
    931    930    937    938     1  0.0000000  0.6508444  3
    931    930    937    939     1  0.0000000  0.6508444  3
    931    943    955    956     1  0.0000000  0.6508444  3
    931    943    955    957     1  0.0000000  0.6508444  3
    932    931    930    934     1  0.0000000  0.6508444  3
    932    931    930    937     1  0.0000000  0.6508444  3
    932    931    930    959     1  0.0000000  0.6508444  3
    932    931    943    955     1  0.0000000  0.6508444  3
    932    931    943    944     1  0.0000000  0.6508444  3
    932    931    943    945     1  0.0000000  0.6508444  3
    933    931    930    934     1  0.0000000  0.6508444  3
    933    931    930    937     1  0.0000000  0.6508444  3
    933    931    930    959     1  0.0000000  0.6508444  3
    933    931    943    955     1  0.0000000  0.6508444  3
    933    931    943    944     1  0.0000000  0.6508444  3
    933    931    943    945     1  0.0000000  0.6508444  3
    934    930    937    938     1  0.0000000  0.6508444  3
    934    930    937    939     1  0.0000000  0.6508444  3
    934    946    952    953     1  0.0000000  0.6508444  3
    934    946    952    954     1  0.0000000  0.6508444  3
    935    934    930    937     1  0.0000000  0.6508444  3
    935    934    930    959     1  0.0000000  0.6508444  3
    935    934    946    952     1  0.0000000  0.6508444  3
    935    934    946    947     1  0.0000000  0.6508444  3
    935    934    946    948     1  0.0000000  0.6508444  3
    936    934    930    937     1  0.0000000  0.6508444  3
    936    934    930    959     1  0.0000000  0.6508444  3
    936    934    946    952     1  0.0000000  0.6508444  3
    936    934    946    947     1  0.0000000  0.6508444  3
    936    934    946    948     1  0.0000000  0.6508444  3
    937    940    949    950     1  0.0000000  0.6508444  3
    937    940    949    951     1  0.0000000  0.6508444  3
    938    937    930    959     1  0.0000000  0.6508444  3
    938    937    940    949     1  0.0000000  0.6508444  3
    938    937    940    941     1  0.0000000  0.6508444  3
    938    937    940    942     1  0.0000000  0.6508444  3
    939    937    930    959     1  0.0000000  0.6508444  3
    939    937    940    949     1  0.0000000  0.6508444  3
    939    937    940    941     1  0.0000000  0.6508444  3
    939    937    940    942     1  0.0000000  0.6508444  3
    940    937    930    959     1  0.0000000  0.6508444  3
    941    940    949    958     1  0.0000000  1.0460000  1
    941    940    949    958     1  0.0000000  0.0000000  3
    941    940    949    950     1  0.0000000  0.6508444  3
    941    940    949    951     1  0.0000000  0.6508444  3
    942    940    949    958     1  0.0000000  1.0460000  1
    942    940    949    958     1  0.0000000  0.0000000  3
    942    940    949    950     1  0.0000000  0.6508444  3
    942    940    949    951     1  0.0000000  0.6508444  3
    943    931    930    959     1  0.0000000  0.6508444  3
    944    943    955   1978     1  0.0000000  1.0460000  1
    944    943    955   1978     1  0.0000000  0.0000000  3
    944    943    955    956     1  0.0000000  0.6508444  3
    944    943    955    957     1  0.0000000  0.6508444  3
    945    943    955   1978     1  0.0000000  1.0460000  1
    945    943    955   1978     1  0.0000000  0.0000000  3
    945    943    955    956     1  0.0000000  0.6508444  3
    945    943    955    957     1  0.0000000  0.6508444  3
    946    934    930    959     1  0.0000000  0.6508444  3
    947    946    952   1948     1  0.0000000  1.0460000  1
    947    946    952   1948     1  0.0000000  0.0000000  3
    947    946    952    953     1  0.0000000  0.6508444  3
    947    946    952    954     1  0.0000000  0.6508444  3
    948    946    952   1948     1  0.0000000  1.0460000  1
    948    946    952   1948     1  0.0000000  0.0000000  3
    948    946    952    953     1  0.0000000  0.6508444  3
    948    946    952    954     1  0.0000000  0.6508444  3
    952   1948   1939   1940     1  0.0000000  1.6038667  3
    952   1948   1939   1941     1  0.0000000  1.6038667  3
    953    952   1948   1939     1  0.0000000  1.6038667  3
    954    952   1948   1939     1  0.0000000  1.6038667  3
    955   1978   1969   1970     1  0.0000000  1.6038667  3
    955   1978   1969   1971     1  0.0000000  1.6038667  3
    956    955   1978   1969     1  0.0000000  1.6038667  3
    957    955   1978   1969     1  0.0000000  1.6038667  3
    960    961    973    974     1  0.0000000  0.6508444  3
    960    961    973    975     1  0.0000000  0.6508444  3
    960    964    976    977     1  0.0000000  0.6508444  3
    960    964    976    978     1  0.0000000  0.6508444  3
    960    967    970    971     1  0.0000000  0.6508444  3
    960    967    970    972     1  0.0000000  0.6508444  3
    961    960    964    965     1  0.0000000  0.6508444  3
    961    960    964    966     1  0.0000000  0.6508444  3
    961    960    967    968     1  0.0000000  0.6508444  3
    961    960    967    969     1  0.0000000  0.6508444  3
    961    973    985    986     1  0.0000000  0.6508444  3
    961    973    985    987     1  0.0000000  0.6508444  3
    962    961    960    964     1  0.0000000  0.6508444  3
    962    961    960    967     1  0.0000000  0.6508444  3
    962    961    960    989     1  0.0000000  0.6508444  3
    962    961    973    985     1  0.0000000  0.6508444  3
    962    961    973    974     1  0.0000000  0.6508444  3
    962    961    973    975     1  0.0000000  0.6508444  3
    963    961    960    964     1  0.0000000  0.6508444  3
    963    961    960    967     1  0.0000000  0.6508444  3
    963    961    960    989     1  0.0000000  0.6508444  3
    963    961    973    985     1  0.0000000  0.6508444  3
    963    961    973    974     1  0.0000000  0.6508444  3
    963    961    973    975     1  0.0000000  0.6508444  3
    964    960    967    968     1  0.0000000  0.6508444  3
    964    960    967    969     1  0.0000000  0.6508444  3
    964    976    982    983     1  0.0000000  0.6508444  3
    964    976    982    984     1  0.0000000  0.6508444  3
    965    964    960    967     1  0.0000000  0.6508444  3
    965    964    960    989     1  0.0000000  0.6508444  3
    965    964    976    982     1  0.0000000  0.6508444  3
    965    964    976    977     1  0.0000000  0.6508444  3
    965    964    976    978     1  0.0000000  0.6508444  3
    966    964    960    967     1  0.0000000  0.6508444  3
    966    964    960    989     1  0.0000000  0.6508444  3
    966    964    976    982     1  0.0000000  0.6508444  3
    966    964    976    977     1  0.0000000  0.6508444  3
    966    964    976    978     1  0.0000000  0.6508444  3
    967    970    979    980     1  0.0000000  0.6508444  3
    967    970    979    981     1  0.0000000  0.6508444  3
    968    967    960    989     1  0.0000000  0.6508444  3
    968    967    970    979     1  0.0000000  0.6508444  3
    968    967    970    971     1  0.0000000  0.6508444  3
    968    967    970    972     1  0.0000000  0.6508444  3
    969    967    960    989     1  0.0000000  0.6508444  3
    969    967    970    979     1  0.0000000  0.6508444  3
    969    967    970    971     1  0.0000000  0.6508444  3
    969    967    970    972     1  0.0000000  0.6508444  3
    970    967    960    989     1  0.0000000  0.6508444  3
    971    970    979    988     1  0.0000000  1.0460000  1
    971    970    979    988     1  0.0000000  0.0000000  3
    971    970    979    980     1  0.0000000  0.6508444  3
    971    970    979    981     1  0.0000000  0.6508444  3
    972    970    979    988     1  0.0000000  1.0460000  1
    972    970    979    988     1  0.0000000  0.0000000  3
    972    970    979    980     1  0.0000000  0.6508444  3
    972    970    979    981     1  0.0000000  0.6508444  3
    973    961    960    989     1  0.0000000  0.6508444  3
    974    973    985   2038     1  0.0000000  1.0460000  1
    974    973    985   2038     1  0.0000000  0.0000000  3
    974    973    985    986     1  0.0000000  0.6508444  3
    974    973    985    987     1  0.0000000  0.6508444  3
    975    973    985   2038     1  0.0000000  1.0460000  1
    975    973    985   2038     1  0.0000000  0.0000000  3
    975    973    985    986     1  0.0000000  0.6508444  3
    975    973    985    987     1  0.0000000  0.6508444  3
    976    964    960    989     1  0.0000000  0.6508444  3
    977    976    982   2008     1  0.0000000  1.0460000  1
    977    976    982   2008     1  0.0000000  0.0000000  3
    977    976    982    983     1  0.0000000  0.6508444  3
    977    976    982    984     1  0.0000000  0.6508444  3
    978    976    982   2008     1  0.0000000  1.0460000  1
    978    976    982   2008     1  0.0000000  0.0000000  3
    978    976    982    983     1  0.0000000  0.6508444  3
    978    976    982    984     1  0.0000000  0.6508444  3
    982   2008   1999   2000     1  0.0000000  1.6038667  3
    982   2008   1999   2001     1  0.0000000  1.6038667  3
    983    982   2008   1999     1  0.0000000  1.6038667  3
    984    982   2008   1999     1  0.0000000  1.6038667  3
    985   2038   2029   2030     1  0.0000000  1.6038667  3
    985   2038   2029   2031     1  0.0000000  1.6038667  3
    986    985   2038   2029     1  0.0000000  1.6038667  3
    987    985   2038   2029     1  0.0000000  1.6038667  3
    990    991   1003   1004     1  0.0000000  0.6508444  3
    990    991   1003   1005     1  0.0000000  0.6508444  3
    990    994   1006   1007     1  0.0000000  0.6508444  3
    990    994   1006   1008     1  0.0000000  0.6508444  3
    990    997   1000   1001     1  0.0000000  0.6508444  3
    990    997   1000   1002     1  0.0000000  0.6508444  3
    991    990    994    995     1  0.0000000  0.6508444  3
    991    990    994    996     1  0.0000000  0.6508444  3
    991    990    997    998     1  0.0000000  0.6508444  3
    991    990    997    999     1  0.0000000  0.6508444  3
    991   1003   1015   1016     1  0.0000000  0.6508444  3
    991   1003   1015   1017     1  0.0000000  0.6508444  3
    992    991    990    994     1  0.0000000  0.6508444  3
    992    991    990    997     1  0.0000000  0.6508444  3
    992    991    990   1019     1  0.0000000  0.6508444  3
    992    991   1003   1015     1  0.0000000  0.6508444  3
    992    991   1003   1004     1  0.0000000  0.6508444  3
    992    991   1003   1005     1  0.0000000  0.6508444  3
    993    991    990    994     1  0.0000000  0.6508444  3
    993    991    990    997     1  0.0000000  0.6508444  3
    993    991    990   1019     1  0.0000000  0.6508444  3
    993    991   1003   1015     1  0.0000000  0.6508444  3
    993    991   1003   1004     1  0.0000000  0.6508444  3
    993    991   1003   1005     1  0.0000000  0.6508444  3
    994    990    997    998     1  0.0000000  0.6508444  3
    994    990    997    999     1  0.0000000  0.6508444  3
    994   1006   1012   1013     1  0.0000000  0.6508444  3
    994   1006   1012   1014     1  0.0000000  0.6508444  3
    995    994    990    997     1  0.0000000  0.6508444  3
    995    994    990   1019     1  0.0000000  0.6508444  3
    995    994   1006   1012     1  0.0000000  0.6508444  3
    995    994   1006   1007     1  0.0000000  0.6508444  3
    995    994   1006   1008     1  0.0000000  0.6508444  3
    996    994    990    997     1  0.0000000  0.6508444  3
    996    994    990   1019     1  0.0000000  0.6508444  3
    996    994   1006   1012     1  0.0000000  0.6508444  3
    996    994   1006   1007     1  0.0000000  0.6508444  3
    996    994   1006   1008     1  0.0000000  0.6508444  3
    997   1000   1009   1010     1  0.0000000  0.6508444  3
    997   1000   1009   1011     1  0.0000000  0.6508444  3
    998    997    990   1019     1  0.0000000  0.6508444  3
    998    997   1000   1009     1  0.0000000  0.6508444  3
    998    997   1000   1001     1  0.0000000  0.6508444  3
    998    997   1000   1002     1  0.0000000  0.6508444  3
    999    997    990   1019     1  0.0000000  0.6508444  3
    999    997   1000   1009     1  0.0000000  0.6508444  3
    999    997   1000   1001     1  0.0000000  0.6508444  3
    999    997   1000   1002     1  0.0000000  0.6508444  3
   1000    997    990   1019     1  0.0000000  0.6508444  3
   1001   1000   1009   1018     1  0.0000000  1.0460000  1
   1001   1000   1009   1018     1  0.0000000  0.0000000  3
   1001   1000   1009   1010     1  0.0000000  0.6508444  3
   1001   1000   1009   1011     1  0.0000000  0.6508444  3
   1002   1000   1009   1018     1  0.0000000  1.0460000  1
   1002   1000   1009   1018     1  0.0000000  0.0000000  3
   1002   1000   1009   1010     1  0.0000000  0.6508444  3
   1002   1000   1009   1011     1  0.0000000  0.6508444  3
   1003    991    990   1019     1  0.0000000  0.6508444  3
   1004   1003   1015   2098     1  0.0000000  1.0460000  1
   1004   1003   1015   2098     1  0.0000000  0.0000000  3
   1004   1003   1015   1016     1  0.0000000  0.6508444  3
   1004   1003   1015   1017     1  0.0000000  0.6508444  3
   1005   1003   1015   2098     1  0.0000000  1.0460000  1
   1005   1003   1015   2098     1  0.0000000  0.0000000  3
   1005   1003   1015   1016     1  0.0000000  0.6508444  3
   1005   1003   1015   1017     1  0.0000000  0.6508444  3
   1006    994    990   1019     1  0.0000000  0.6508444  3
   1007   1006   1012   2068     1  0.0000000  1.0460000  1
   1007   1006   1012   2068     1  0.0000000  0.0000000  3
   1007   1006   1012   1013     1  0.0000000  0.6508444  3
   1007   1006   1012   1014     1  0.0000000  0.6508444  3
   1008   1006   1012   2068     1  0.0000000  1.0460000  1
   1008   1006   1012   2068     1  0.0000000  0.0000000  3
   1008   1006   1012   1013     1  0.0000000  0.6508444  3
   1008   1006   1012   1014     1  0.0000000  0.6508444  3
   1012   2068   2059   2060     1  0.0000000  1.6038667  3
   1012   2068   2059   2061     1  0.0000000  1.6038667  3
   1013   1012   2068   2059     1  0.0000000  1.6038667  3
   1014   1012   2068   2059     1  0.0000000  1.6038667  3
   1015   2098   2089   2090     1  0.0000000  1.6038667  3
   1015   2098   2089   2091     1  0.0000000  1.6038667  3
   1016   1015   2098   2089     1  0.0000000  1.6038667  3
   1017   1015   2098   2089     1  0.0000000  1.6038667  3
   1020   1021   1033   1034     1  0.0000000  0.6508444  3
   1020   1021   1033   1035     1  0.0000000  0.6508444  3
   1020   1024   1036   1037     1  0.0000000  0.6508444  3
   1020   1024   1036   1038     1  0.0000000  0.6508444  3
   1020   1027   1030   1031     1  0.0000000  0.6508444  3
   1020   1027   1030   1032     1  0.0000000  0.6508444  3
   1021   1020   1024   1025     1  0.0000000  0.6508444  3
   1021   1020   1024   1026     1  0.0000000  0.6508444  3
   1021   1020   1027   1028     1  0.0000000  0.6508444  3
   1021   1020   1027   1029     1  0.0000000  0.6508444  3
   1021   1033   1045   1046     1  0.0000000  0.6508444  3
   1021   1033   1045   1047     1  0.0000000  0.6508444  3
   1022   1021   1020   1024     1  0.0000000  0.6508444  3
   1022   1021   1020   1027     1  0.0000000  0.6508444  3
   1022   1021   1020   1049     1  0.0000000  0.6508444  3
   1022   1021   1033   1045     1  0.0000000  0.6508444  3
   1022   1021   1033   1034     1  0.0000000  0.6508444  3
   1022   1021   1033   1035     1  0.0000000  0.6508444  3
   1023   1021   1020   1024     1  0.0000000  0.6508444  3
   1023   1021   1020   1027     1  0.0000000  0.6508444  3
   1023   1021   1020   1049     1  0.0000000  0.6508444  3
   1023   1021   1033   1045     1  0.0000000  0.6508444  3
   1023   1021   1033   1034     1  0.0000000  0.6508444  3
   1023   1021   1033   1035     1  0.0000000  0.6508444  3
   1024   1020   1027   1028     1  0.0000000  0.6508444  3
   1024   1020   1027   1029     1  0.0000000  0.6508444  3
   1024   1036   1042   1043     1  0.0000000  0.6508444  3
   1024   1036   1042   1044     1  0.0000000  0.6508444  3
   1025   1024   1020   1027     1  0.0000000  0.6508444  3
   1025   1024   1020   1049     1  0.0000000  0.6508444  3
   1025   1024   1036   1042     1  0.0000000  0.6508444  3
   1025   1024   1036   1037     1  0.0000000  0.6508444  3
   1025   1024   1036   1038     1  0.0000000  0.6508444  3
   1026   1024   1020   1027     1  0.0000000  0.6508444  3
   1026   1024   1020   1049     1  0.0000000  0.6508444  3
   1026   1024   1036   1042     1  0.0000000  0.6508444  3
   1026   1024   1036   1037     1  0.0000000  0.6508444  3
   1026   1024   1036   1038     1  0.0000000  0.6508444  3
   1027   1030   1039   1040     1  0.0000000  0.6508444  3
   1027   1030   1039   1041     1  0.0000000  0.6508444  3
   1028   1027   1020   1049     1  0.0000000  0.6508444  3
   1028   1027   1030   1039     1  0.0000000  0.6508444  3
   1028   1027   1030   1031     1  0.0000000  0.6508444  3
   1028   1027   1030   1032     1  0.0000000  0.6508444  3
   1029   1027   1020   1049     1  0.0000000  0.6508444  3
   1029   1027   1030   1039     1  0.0000000  0.6508444  3
   1029   1027   1030   1031     1  0.0000000  0.6508444  3
   1029   1027   1030   1032     1  0.0000000  0.6508444  3
   1030   1027   1020   1049     1  0.0000000  0.6508444  3
   1031   1030   1039   1048     1  0.0000000  1.0460000  1
   1031   1030   1039   1048     1  0.0000000  0.0000000  3
   1031   1030   1039   1040     1  0.0000000  0.6508444  3
   1031   1030   1039   1041     1  0.0000000  0.6508444  3
   1032   1030   1039   1048     1  0.0000000  1.0460000  1
   1032   1030   1039   1048     1  0.0000000  0.0000000  3
   1032   1030   1039   1040     1  0.0000000  0.6508444  3
   1032   1030   1039   1041     1  0.0000000  0.6508444  3
   1033   1021   1020   1049     1  0.0000000  0.6508444  3
   1034   1033   1045   2158     1  0.0000000  1.0460000  1
   1034   1033   1045   2158     1  0.0000000  0.0000000  3
   1034   1033   1045   1046     1  0.0000000  0.6508444  3
   1034   1033   1045   1047     1  0.0000000  0.6508444  3
   1035   1033   1045   2158     1  0.0000000  1.0460000  1
   1035   1033   1045   2158     1  0.0000000  0.0000000  3
   1035   1033   1045   1046     1  0.0000000  0.6508444  3
   1035   1033   1045   1047     1  0.0000000  0.6508444  3
   1036   1024   1020   1049     1  0.0000000  0.6508444  3
   1037   1036   1042   2128     1  0.0000000  1.0460000  1
   1037   1036   1042   2128     1  0.0000000  0.0000000  3
   1037   1036   1042   1043     1  0.0000000  0.6508444  3
   1037   1036   1042   1044     1  0.0000000  0.6508444  3
   1038   1036   1042   2128     1  0.0000000  1.0460000  1
   1038   1036   1042   2128     1  0.0000000  0.0000000  3
   1038   1036   1042   1043     1  0.0000000  0.6508444  3
   1038   1036   1042   1044     1  0.0000000  0.6508444  3
   1042   2128   2119   2120     1  0.0000000  1.6038667  3
   1042   2128   2119   2121     1  0.0000000  1.6038667  3
   1043   1042   2128   2119     1  0.0000000  1.6038667  3
   1044   1042   2128   2119     1  0.0000000  1.6038667  3
   1045   2158   2149   2150     1  0.0000000  1.6038667  3
   1045   2158   2149   2151     1  0.0000000  1.6038667  3
   1046   1045   2158   2149     1  0.0000000  1.6038667  3
   1047   1045   2158   2149     1  0.0000000  1.6038667  3
   1050   1051   1063   1064     1  0.0000000  0.6508444  3
   1050   1051   1063   1065     1  0.0000000  0.6508444  3
   1050   1054   1066   1067     1  0.0000000  0.6508444  3
   1050   1054   1066   1068     1  0.0000000  0.6508444  3
   1050   1057   1060   1061     1  0.0000000  0.6508444  3
   1050   1057   1060   1062     1  0.0000000  0.6508444  3
   1051   1050   1054   1055     1  0.0000000  0.6508444  3
   1051   1050   1054   1056     1  0.0000000  0.6508444  3
   1051   1050   1057   1058     1  0.0000000  0.6508444  3
   1051   1050   1057   1059     1  0.0000000  0.6508444  3
   1051   1063   1075   1076     1  0.0000000  0.6508444  3
   1051   1063   1075   1077     1  0.0000000  0.6508444  3
   1052   1051   1050   1054     1  0.0000000  0.6508444  3
   1052   1051   1050   1057     1  0.0000000  0.6508444  3
   1052   1051   1050   1079     1  0.0000000  0.6508444  3
   1052   1051   1063   1075     1  0.0000000  0.6508444  3
   1052   1051   1063   1064     1  0.0000000  0.6508444  3
   1052   1051   1063   1065     1  0.0000000  0.6508444  3
   1053   1051   1050   1054     1  0.0000000  0.6508444  3
   1053   1051   1050   1057     1  0.0000000  0.6508444  3
   1053   1051   1050   1079     1  0.0000000  0.6508444  3
   1053   1051   1063   1075     1  0.0000000  0.6508444  3
   1053   1051   1063   1064     1  0.0000000  0.6508444  3
   1053   1051   1063   1065     1  0.0000000  0.6508444  3
   1054   1050   1057   1058     1  0.0000000  0.6508444  3
   1054   1050   1057   1059     1  0.0000000  0.6508444  3
   1054   1066   1072   1073     1  0.0000000  0.6508444  3
   1054   1066   1072   1074     1  0.0000000  0.6508444  3
   1055   1054   1050   1057     1  0.0000000  0.6508444  3
   1055   1054   1050   1079     1  0.0000000  0.6508444  3
   1055   1054   1066   1072     1  0.0000000  0.6508444  3
   1055   1054   1066   1067     1  0.0000000  0.6508444  3
   1055   1054   1066   1068     1  0.0000000  0.6508444  3
   1056   1054   1050   1057     1  0.0000000  0.6508444  3
   1056   1054   1050   1079     1  0.0000000  0.6508444  3
   1056   1054   1066   1072     1  0.0000000  0.6508444  3
   1056   1054   1066   1067     1  0.0000000  0.6508444  3
   1056   1054   1066   1068     1  0.0000000  0.6508444  3
   1057   1060   1069   1070     1  0.0000000  0.6508444  3
   1057   1060   1069   1071     1  0.0000000  0.6508444  3
   1058   1057   1050   1079     1  0.0000000  0.6508444  3
   1058   1057   1060   1069     1  0.0000000  0.6508444  3
   1058   1057   1060   1061     1  0.0000000  0.6508444  3
   1058   1057   1060   1062     1  0.0000000  0.6508444  3
   1059   1057   1050   1079     1  0.0000000  0.6508444  3
   1059   1057   1060   1069     1  0.0000000  0.6508444  3
   1059   1057   1060   1061     1  0.0000000  0.6508444  3
   1059   1057   1060   1062     1  0.0000000  0.6508444  3
   1060   1057   1050   1079     1  0.0000000  0.6508444  3
   1061   1060   1069   1078     1  0.0000000  1.0460000  1
   1061   1060   1069   1078     1  0.0000000  0.0000000  3
   1061   1060   1069   1070     1  0.0000000  0.6508444  3
   1061   1060   1069   1071     1  0.0000000  0.6508444  3
   1062   1060   1069   1078     1  0.0000000  1.0460000  1
   1062   1060   1069   1078     1  0.0000000  0.0000000  3
   1062   1060   1069   1070     1  0.0000000  0.6508444  3
   1062   1060   1069   1071     1  0.0000000  0.6508444  3
   1063   1051   1050   1079     1  0.0000000  0.6508444  3
   1064   1063   1075   2218     1  0.0000000  1.0460000  1
   1064   1063   1075   2218     1  0.0000000  0.0000000  3
   1064   1063   1075   1076     1  0.0000000  0.6508444  3
   1064   1063   1075   1077     1  0.0000000  0.6508444  3
   1065   1063   1075   2218     1  0.0000000  1.0460000  1
   1065   1063   1075   2218     1  0.0000000  0.0000000  3
   1065   1063   1075   1076     1  0.0000000  0.6508444  3
   1065   1063   1075   1077     1  0.0000000  0.6508444  3
   1066   1054   1050   1079     1  0.0000000  0.6508444  3
   1067   1066   1072   2188     1  0.0000000  1.0460000  1
   1067   1066   1072   2188     1  0.0000000  0.0000000  3
   1067   1066   1072   1073     1  0.0000000  0.6508444  3
   1067   1066   1072   1074     1  0.0000000  0.6508444  3
   1068   1066   1072   2188     1  0.0000000  1.0460000  1
   1068   1066   1072   2188     1  0.0000000  0.0000000  3
   1068   1066   1072   1073     1  0.0000000  0.6508444  3
   1068   1066   1072   1074     1  0.0000000  0.6508444  3
   1072   2188   2179   2180     1  0.0000000  1.6038667  3
   1072   2188   2179   2181     1  0.0000000  1.6038667  3
   1073   1072   2188   2179     1  0.0000000  1.6038667  3
   1074   1072   2188   2179     1  0.0000000  1.6038667  3
   1075   2218   2209   2210     1  0.0000000  1.6038667  3
   1075   2218   2209   2211     1  0.0000000  1.6038667  3
   1076   1075   2218   2209     1  0.0000000  1.6038667  3
   1077   1075   2218   2209     1  0.0000000  1.6038667  3
   1080   1081   1093   1094     1  0.0000000  0.6508444  3
   1080   1081   1093   1095     1  0.0000000  0.6508444  3
   1080   1084   1096   1097     1  0.0000000  0.6508444  3
   1080   1084   1096   1098     1  0.0000000  0.6508444  3
   1080   1087   1090   1091     1  0.0000000  0.6508444  3
   1080   1087   1090   1092     1  0.0000000  0.6508444  3
   1081   1080   1084   1085     1  0.0000000  0.6508444  3
   1081   1080   1084   1086     1  0.0000000  0.6508444  3
   1081   1080   1087   1088     1  0.0000000  0.6508444  3
   1081   1080   1087   1089     1  0.0000000  0.6508444  3
   1081   1093   1105   1106     1  0.0000000  0.6508444  3
   1081   1093   1105   1107     1  0.0000000  0.6508444  3
   1082   1081   1080   1084     1  0.0000000  0.6508444  3
   1082   1081   1080   1087     1  0.0000000  0.6508444  3
   1082   1081   1080   1109     1  0.0000000  0.6508444  3
   1082   1081   1093   1105     1  0.0000000  0.6508444  3
   1082   1081   1093   1094     1  0.0000000  0.6508444  3
   1082   1081   1093   1095     1  0.0000000  0.6508444  3
   1083   1081   1080   1084     1  0.0000000  0.6508444  3
   1083   1081   1080   1087     1  0.0000000  0.6508444  3
   1083   1081   1080   1109     1  0.0000000  0.6508444  3
   1083   1081   1093   1105     1  0.0000000  0.6508444  3
   1083   1081   1093   1094     1  0.0000000  0.6508444  3
   1083   1081   1093   1095     1  0.0000000  0.6508444  3
   1084   1080   1087   1088     1  0.0000000  0.6508444  3
   1084   1080   1087   1089     1  0.0000000  0.6508444  3
   1084   1096   1102   1103     1  0.0000000  0.6508444  3
   1084   1096   1102   1104     1  0.0000000  0.6508444  3
   1085   1084   1080   1087     1  0.0000000  0.6508444  3
   1085   1084   1080   1109     1  0.0000000  0.6508444  3
   1085   1084   1096   1102     1  0.0000000  0.6508444  3
   1085   1084   1096   1097     1  0.0000000  0.6508444  3
   1085   1084   1096   1098     1  0.0000000  0.6508444  3
   1086   1084   1080   1087     1  0.0000000  0.6508444  3
   1086   1084   1080   1109     1  0.0000000  0.6508444  3
   1086   1084   1096   1102     1  0.0000000  0.6508444  3
   1086   1084   1096   1097     1  0.0000000  0.6508444  3
   1086   1084   1096   1098     1  0.0000000  0.6508444  3
   1087   1090   1099   1100     1  0.0000000  0.6508444  3
   1087   1090   1099   1101     1  0.0000000  0.6508444  3
   1088   1087   1080   1109     1  0.0000000  0.6508444  3
   1088   1087   1090   1099     1  0.0000000  0.6508444  3
   1088   1087   1090   1091     1  0.0000000  0.6508444  3
   1088   1087   1090   1092     1  0.0000000  0.6508444  3
   1089   1087   1080   1109     1  0.0000000  0.6508444  3
   1089   1087   1090   1099     1  0.0000000  0.6508444  3
   1089   1087   1090   1091     1  0.0000000  0.6508444  3
   1089   1087   1090   1092     1  0.0000000  0.6508444  3
   1090   1087   1080   1109     1  0.0000000  0.6508444  3
   1091   1090   1099   1108     1  0.0000000  1.0460000  1
   1091   1090   1099   1108     1  0.0000000  0.0000000  3
   1091   1090   1099   1100     1  0.0000000  0.6508444  3
   1091   1090   1099   1101     1  0.0000000  0.6508444  3
   1092   1090   1099   1108     1  0.0000000  1.0460000  1
   1092   1090   1099   1108     1  0.0000000  0.0000000  3
   1092   1090   1099   1100     1  0.0000000  0.6508444  3
   1092   1090   1099   1101     1  0.0000000  0.6508444  3
   1093   1081   1080   1109     1  0.0000000  0.6508444  3
   1094   1093   1105   2278     1  0.0000000  1.0460000  1
   1094   1093   1105   2278     1  0.0000000  0.0000000  3
   1094   1093   1105   1106     1  0.0000000  0.6508444  3
   1094   1093   1105   1107     1  0.0000000  0.6508444  3
   1095   1093   1105   2278     1  0.0000000  1.0460000  1
   1095   1093   1105   2278     1  0.0000000  0.0000000  3
   1095   1093   1105   1106     1  0.0000000  0.6508444  3
   1095   1093   1105   1107     1  0.0000000  0.6508444  3
   1096   1084   1080   1109     1  0.0000000  0.6508444  3
   1097   1096   1102   2248     1  0.0000000  1.0460000  1
   1097   1096   1102   2248     1  0.0000000  0.0000000  3
   1097   1096   1102   1103     1  0.0000000  0.6508444  3
   1097   1096   1102   1104     1  0.0000000  0.6508444  3
   1098   1096   1102   2248     1  0.0000000  1.0460000  1
   1098   1096   1102   2248     1  0.0000000  0.0000000  3
   1098   1096   1102   1103     1  0.0000000  0.6508444  3
   1098   1096   1102   1104     1  0.0000000  0.6508444  3
   1102   2248   2239   2240     1  0.0000000  1.6038667  3
   1102   2248   2239   2241     1  0.0000000  1.6038667  3
   1103   1102   2248   2239     1  0.0000000  1.6038667  3
   1104   1102   2248   2239     1  0.0000000  1.6038667  3
   1105   2278   2269   2270     1  0.0000000  1.6038667  3
   1105   2278   2269   2271     1  0.0000000  1.6038667  3
   1106   1105   2278   2269     1  0.0000000  1.6038667  3
   1107   1105   2278   2269     1  0.0000000  1.6038667  3
   1110   1111   1123   1124     1  0.0000000  0.6508444  3
   1110   1111   1123   1125     1  0.0000000  0.6508444  3
   1110   1114   1126   1127     1  0.0000000  0.6508444  3
   1110   1114   1126   1128     1  0.0000000  0.6508444  3
   1110   1117   1120   1121     1  0.0000000  0.6508444  3
   1110   1117   1120   1122     1  0.0000000  0.6508444  3
   1111   1110   1114   1115     1  0.0000000  0.6508444  3
   1111   1110   1114   1116     1  0.0000000  0.6508444  3
   1111   1110   1117   1118     1  0.0000000  0.6508444  3
   1111   1110   1117   1119     1  0.0000000  0.6508444  3
   1111   1123   1135   1136     1  0.0000000  0.6508444  3
   1111   1123   1135   1137     1  0.0000000  0.6508444  3
   1112   1111   1110   1114     1  0.0000000  0.6508444  3
   1112   1111   1110   1117     1  0.0000000  0.6508444  3
   1112   1111   1110   1139     1  0.0000000  0.6508444  3
   1112   1111   1123   1135     1  0.0000000  0.6508444  3
   1112   1111   1123   1124     1  0.0000000  0.6508444  3
   1112   1111   1123   1125     1  0.0000000  0.6508444  3
   1113   1111   1110   1114     1  0.0000000  0.6508444  3
   1113   1111   1110   1117     1  0.0000000  0.6508444  3
   1113   1111   1110   1139     1  0.0000000  0.6508444  3
   1113   1111   1123   1135     1  0.0000000  0.6508444  3
   1113   1111   1123   1124     1  0.0000000  0.6508444  3
   1113   1111   1123   1125     1  0.0000000  0.6508444  3
   1114   1110   1117   1118     1  0.0000000  0.6508444  3
   1114   1110   1117   1119     1  0.0000000  0.6508444  3
   1114   1126   1132   1133     1  0.0000000  0.6508444  3
   1114   1126   1132   1134     1  0.0000000  0.6508444  3
   1115   1114   1110   1117     1  0.0000000  0.6508444  3
   1115   1114   1110   1139     1  0.0000000  0.6508444  3
   1115   1114   1126   1132     1  0.0000000  0.6508444  3
   1115   1114   1126   1127     1  0.0000000  0.6508444  3
   1115   1114   1126   1128     1  0.0000000  0.6508444  3
   1116   1114   1110   1117     1  0.0000000  0.6508444  3
   1116   1114   1110   1139     1  0.0000000  0.6508444  3
   1116   1114   1126   1132     1  0.0000000  0.6508444  3
   1116   1114   1126   1127     1  0.0000000  0.6508444  3
   1116   1114   1126   1128     1  0.0000000  0.6508444  3
   1117   1120   1129   1130     1  0.0000000  0.6508444  3
   1117   1120   1129   1131     1  0.0000000  0.6508444  3
   1118   1117   1110   1139     1  0.0000000  0.6508444  3
   1118   1117   1120   1129     1  0.0000000  0.6508444  3
   1118   1117   1120   1121     1  0.0000000  0.6508444  3
   1118   1117   1120   1122     1  0.0000000  0.6508444  3
   1119   1117   1110   1139     1  0.0000000  0.6508444  3
   1119   1117   1120   1129     1  0.0000000  0.6508444  3
   1119   1117   1120   1121     1  0.0000000  0.6508444  3
   1119   1117   1120   1122     1  0.0000000  0.6508444  3
   1120   1117   1110   1139     1  0.0000000  0.6508444  3
   1121   1120   1129   1138     1  0.0000000  1.0460000  1
   1121   1120   1129   1138     1  0.0000000  0.0000000  3
   1121   1120   1129   1130     1  0.0000000  0.6508444  3
   1121   1120   1129   1131     1  0.0000000  0.6508444  3
   1122   1120   1129   1138     1  0.0000000  1.0460000  1
   1122   1120   1129   1138     1  0.0000000  0.0000000  3
   1122   1120   1129   1130     1  0.0000000  0.6508444  3
   1122   1120   1129   1131     1  0.0000000  0.6508444  3
   1123   1111   1110   1139     1  0.0000000  0.6508444  3
   1124   1123   1135   2338     1  0.0000000  1.0460000  1
   1124   1123   1135   2338     1  0.0000000  0.0000000  3
   1124   1123   1135   1136     1  0.0000000  0.6508444  3
   1124   1123   1135   1137     1  0.0000000  0.6508444  3
   1125   1123   1135   2338     1  0.0000000  1.0460000  1
   1125   1123   1135   2338     1  0.0000000  0.0000000  3
   1125   1123   1135   1136     1  0.0000000  0.6508444  3
   1125   1123   1135   1137     1  0.0000000  0.6508444  3
   1126   1114   1110   1139     1  0.0000000  0.6508444  3
   1127   1126   1132   2308     1  0.0000000  1.0460000  1
   1127   1126   1132   2308     1  0.0000000  0.0000000  3
   1127   1126   1132   1133     1  0.0000000  0.6508444  3
   1127   1126   1132   1134     1  0.0000000  0.6508444  3
   1128   1126   1132   2308     1  0.0000000  1.0460000  1
   1128   1126   1132   2308     1  0.0000000  0.0000000  3
   1128   1126   1132   1133     1  0.0000000  0.6508444  3
   1128   1126   1132   1134     1  0.0000000  0.6508444  3
   1132   2308   2299   2300     1  0.0000000  1.6038667  3
   1132   2308   2299   2301     1  0.0000000  1.6038667  3
   1133   1132   2308   2299     1  0.0000000  1.6038667  3
   1134   1132   2308   2299     1  0.0000000  1.6038667  3
   1135   2338   2329   2330     1  0.0000000  1.6038667  3
   1135   2338   2329   2331     1  0.0000000  1.6038667  3
   1136   1135   2338   2329     1  0.0000000  1.6038667  3
   1137   1135   2338   2329     1  0.0000000  1.6038667  3
   1140   1141   1153   1154     1  0.0000000  0.6508444  3
   1140   1141   1153   1155     1  0.0000000  0.6508444  3
   1140   1144   1156   1157     1  0.0000000  0.6508444  3
   1140   1144   1156   1158     1  0.0000000  0.6508444  3
   1140   1147   1150   1151     1  0.0000000  0.6508444  3
   1140   1147   1150   1152     1  0.0000000  0.6508444  3
   1141   1140   1144   1145     1  0.0000000  0.6508444  3
   1141   1140   1144   1146     1  0.0000000  0.6508444  3
   1141   1140   1147   1148     1  0.0000000  0.6508444  3
   1141   1140   1147   1149     1  0.0000000  0.6508444  3
   1141   1153   1165   1166     1  0.0000000  0.6508444  3
   1141   1153   1165   1167     1  0.0000000  0.6508444  3
   1142   1141   1140   1144     1  0.0000000  0.6508444  3
   1142   1141   1140   1147     1  0.0000000  0.6508444  3
   1142   1141   1140   1169     1  0.0000000  0.6508444  3
   1142   1141   1153   1165     1  0.0000000  0.6508444  3
   1142   1141   1153   1154     1  0.0000000  0.6508444  3
   1142   1141   1153   1155     1  0.0000000  0.6508444  3
   1143   1141   1140   1144     1  0.0000000  0.6508444  3
   1143   1141   1140   1147     1  0.0000000  0.6508444  3
   1143   1141   1140   1169     1  0.0000000  0.6508444  3
   1143   1141   1153   1165     1  0.0000000  0.6508444  3
   1143   1141   1153   1154     1  0.0000000  0.6508444  3
   1143   1141   1153   1155     1  0.0000000  0.6508444  3
   1144   1140   1147   1148     1  0.0000000  0.6508444  3
   1144   1140   1147   1149     1  0.0000000  0.6508444  3
   1144   1156   1162   1163     1  0.0000000  0.6508444  3
   1144   1156   1162   1164     1  0.0000000  0.6508444  3
   1145   1144   1140   1147     1  0.0000000  0.6508444  3
   1145   1144   1140   1169     1  0.0000000  0.6508444  3
   1145   1144   1156   1162     1  0.0000000  0.6508444  3
   1145   1144   1156   1157     1  0.0000000  0.6508444  3
   1145   1144   1156   1158     1  0.0000000  0.6508444  3
   1146   1144   1140   1147     1  0.0000000  0.6508444  3
   1146   1144   1140   1169     1  0.0000000  0.6508444  3
   1146   1144   1156   1162     1  0.0000000  0.6508444  3
   1146   1144   1156   1157     1  0.0000000  0.6508444  3
   1146   1144   1156   1158     1  0.0000000  0.6508444  3
   1147   1150   1159   1160     1  0.0000000  0.6508444  3
   1147   1150   1159   1161     1  0.0000000  0.6508444  3
   1148   1147   1140   1169     1  0.0000000  0.6508444  3
   1148   1147   1150   1159     1  0.0000000  0.6508444  3
   1148   1147   1150   1151     1  0.0000000  0.6508444  3
   1148   1147   1150   1152     1  0.0000000  0.6508444  3
   1149   1147   1140   1169     1  0.0000000  0.6508444  3
   1149   1147   1150   1159     1  0.0000000  0.6508444  3
   1149   1147   1150   1151     1  0.0000000  0.6508444  3
   1149   1147   1150   1152     1  0.0000000  0.6508444  3
   1150   1147   1140   1169     1  0.0000000  0.6508444  3
   1151   1150   1159   1168     1  0.0000000  1.0460000  1
   1151   1150   1159   1168     1  0.0000000  0.0000000  3
   1151   1150   1159   1160     1  0.0000000  0.6508444  3
   1151   1150   1159   1161     1  0.0000000  0.6508444  3
   1152   1150   1159   1168     1  0.0000000  1.0460000  1
   1152   1150   1159   1168     1  0.0000000  0.0000000  3
   1152   1150   1159   1160     1  0.0000000  0.6508444  3
   1152   1150   1159   1161     1  0.0000000  0.6508444  3
   1153   1141   1140   1169     1  0.0000000  0.6508444  3
   1154   1153   1165   2398     1  0.0000000  1.0460000  1
   1154   1153   1165   2398     1  0.0000000  0.0000000  3
   1154   1153   1165   1166     1  0.0000000  0.6508444  3
   1154   1153   1165   1167     1  0.0000000  0.6508444  3
   1155   1153   1165   2398     1  0.0000000  1.0460000  1
   1155   1153   1165   2398     1  0.0000000  0.0000000  3
   1155   1153   1165   1166     1  0.0000000  0.6508444  3
   1155   1153   1165   1167     1  0.0000000  0.6508444  3
   1156   1144   1140   1169     1  0.0000000  0.6508444  3
   1157   1156   1162   2368     1  0.0000000  1.0460000  1
   1157   1156   1162   2368     1  0.0000000  0.0000000  3
   1157   1156   1162   1163     1  0.0000000  0.6508444  3
   1157   1156   1162   1164     1  0.0000000  0.6508444  3
   1158   1156   1162   2368     1  0.0000000  1.0460000  1
   1158   1156   1162   2368     1  0.0000000  0.0000000  3
   1158   1156   1162   1163     1  0.0000000  0.6508444  3
   1158   1156   1162   1164     1  0.0000000  0.6508444  3
   1162   2368   2359   2360     1  0.0000000  1.6038667  3
   1162   2368   2359   2361     1  0.0000000  1.6038667  3
   1163   1162   2368   2359     1  0.0000000  1.6038667  3
   1164   1162   2368   2359     1  0.0000000  1.6038667  3
   1165   2398   2389   2390     1  0.0000000  1.6038667  3
   1165   2398   2389   2391     1  0.0000000  1.6038667  3
   1166   1165   2398   2389     1  0.0000000  1.6038667  3
   1167   1165   2398   2389     1  0.0000000  1.6038667  3
   1170   1171   1183   1184     1  0.0000000  0.6508444  3
   1170   1171   1183   1185     1  0.0000000  0.6508444  3
   1170   1174   1186   1187     1  0.0000000  0.6508444  3
   1170   1174   1186   1188     1  0.0000000  0.6508444  3
   1170   1177   1180   1181     1  0.0000000  0.6508444  3
   1170   1177   1180   1182     1  0.0000000  0.6508444  3
   1171   1170   1174   1175     1  0.0000000  0.6508444  3
   1171   1170   1174   1176     1  0.0000000  0.6508444  3
   1171   1170   1177   1178     1  0.0000000  0.6508444  3
   1171   1170   1177   1179     1  0.0000000  0.6508444  3
   1171   1183   1195   1196     1  0.0000000  0.6508444  3
   1171   1183   1195   1197     1  0.0000000  0.6508444  3
   1172   1171   1170   1174     1  0.0000000  0.6508444  3
   1172   1171   1170   1177     1  0.0000000  0.6508444  3
   1172   1171   1170   1199     1  0.0000000  0.6508444  3
   1172   1171   1183   1195     1  0.0000000  0.6508444  3
   1172   1171   1183   1184     1  0.0000000  0.6508444  3
   1172   1171   1183   1185     1  0.0000000  0.6508444  3
   1173   1171   1170   1174     1  0.0000000  0.6508444  3
   1173   1171   1170   1177     1  0.0000000  0.6508444  3
   1173   1171   1170   1199     1  0.0000000  0.6508444  3
   1173   1171   1183   1195     1  0.0000000  0.6508444  3
   1173   1171   1183   1184     1  0.0000000  0.6508444  3
   1173   1171   1183   1185     1  0.0000000  0.6508444  3
   1174   1170   1177   1178     1  0.0000000  0.6508444  3
   1174   1170   1177   1179     1  0.0000000  0.6508444  3
   1174   1186   1192   1193     1  0.0000000  0.6508444  3
   1174   1186   1192   1194     1  0.0000000  0.6508444  3
   1175   1174   1170   1177     1  0.0000000  0.6508444  3
   1175   1174   1170   1199     1  0.0000000  0.6508444  3
   1175   1174   1186   1192     1  0.0000000  0.6508444  3
   1175   1174   1186   1187     1  0.0000000  0.6508444  3
   1175   1174   1186   1188     1  0.0000000  0.6508444  3
   1176   1174   1170   1177     1  0.0000000  0.6508444  3
   1176   1174   1170   1199     1  0.0000000  0.6508444  3
   1176   1174   1186   1192     1  0.0000000  0.6508444  3
   1176   1174   1186   1187     1  0.0000000  0.6508444  3
   1176   1174   1186   1188     1  0.0000000  0.6508444  3
   1177   1180   1189   1190     1  0.0000000  0.6508444  3
   1177   1180   1189   1191     1  0.0000000  0.6508444  3
   1178   1177   1170   1199     1  0.0000000  0.6508444  3
   1178   1177   1180   1189     1  0.0000000  0.6508444  3
   1178   1177   1180   1181     1  0.0000000  0.6508444  3
   1178   1177   1180   1182     1  0.0000000  0.6508444  3
   1179   1177   1170   1199     1  0.0000000  0.6508444  3
   1179   1177   1180   1189     1  0.0000000  0.6508444  3
   1179   1177   1180   1181     1  0.0000000  0.6508444  3
   1179   1177   1180   1182     1  0.0000000  0.6508444  3
   1180   1177   1170   1199     1  0.0000000  0.6508444  3
   1181   1180   1189   1198     1  0.0000000  1.0460000  1
   1181   1180   1189   1198     1  0.0000000  0.0000000  3
   1181   1180   1189   1190     1  0.0000000  0.6508444  3
   1181   1180   1189   1191     1  0.0000000  0.6508444  3
   1182   1180   1189   1198     1  0.0000000  1.0460000  1
   1182   1180   1189   1198     1  0.0000000  0.0000000  3
   1182   1180   1189   1190     1  0.0000000  0.6508444  3
   1182   1180   1189   1191     1  0.0000000  0.6508444  3
   1183   1171   1170   1199     1  0.0000000  0.6508444  3
   1184   1183   1195   2458     1  0.0000000  1.0460000  1
   1184   1183   1195   2458     1  0.0000000  0.0000000  3
   1184   1183   1195   1196     1  0.0000000  0.6508444  3
   1184   1183   1195   1197     1  0.0000000  0.6508444  3
   1185   1183   1195   2458     1  0.0000000  1.0460000  1
   1185   1183   1195   2458     1  0.0000000  0.0000000  3
   1185   1183   1195   1196     1  0.0000000  0.6508444  3
   1185   1183   1195   1197     1  0.0000000  0.6508444  3
   1186   1174   1170   1199     1  0.0000000  0.6508444  3
   1187   1186   1192   2428     1  0.0000000  1.0460000  1
   1187   1186   1192   2428     1  0.0000000  0.0000000  3
   1187   1186   1192   1193     1  0.0000000  0.6508444  3
   1187   1186   1192   1194     1  0.0000000  0.6508444  3
   1188   1186   1192   2428     1  0.0000000  1.0460000  1
   1188   1186   1192   2428     1  0.0000000  0.0000000  3
   1188   1186   1192   1193     1  0.0000000  0.6508444  3
   1188   1186   1192   1194     1  0.0000000  0.6508444  3
   1192   2428   2419   2420     1  0.0000000  1.6038667  3
   1192   2428   2419   2421     1  0.0000000  1.6038667  3
   1193   1192   2428   2419     1  0.0000000  1.6038667  3
   1194   1192   2428   2419     1  0.0000000  1.6038667  3
   1195   2458   2449   2450     1  0.0000000  1.6038667  3
   1195   2458   2449   2451     1  0.0000000  1.6038667  3
   1196   1195   2458   2449     1  0.0000000  1.6038667  3
   1197   1195   2458   2449     1  0.0000000  1.6038667  3
   1200   1201   1213   1214     1  0.0000000  0.6508444  3
   1200   1201   1213   1215     1  0.0000000  0.6508444  3
   1200   1204   1216   1217     1  0.0000000  0.6508444  3
   1200   1204   1216   1218     1  0.0000000  0.6508444  3
   1200   1207   1210   1211     1  0.0000000  0.6508444  3
   1200   1207   1210   1212     1  0.0000000  0.6508444  3
   1201   1200   1204   1205     1  0.0000000  0.6508444  3
   1201   1200   1204   1206     1  0.0000000  0.6508444  3
   1201   1200   1207   1208     1  0.0000000  0.6508444  3
   1201   1200   1207   1209     1  0.0000000  0.6508444  3
   1201   1213   1225   1226     1  0.0000000  0.6508444  3
   1201   1213   1225   1227     1  0.0000000  0.6508444  3
   1202   1201   1200   1204     1  0.0000000  0.6508444  3
   1202   1201   1200   1207     1  0.0000000  0.6508444  3
   1202   1201   1200   1229     1  0.0000000  0.6508444  3
   1202   1201   1213   1225     1  0.0000000  0.6508444  3
   1202   1201   1213   1214     1  0.0000000  0.6508444  3
   1202   1201   1213   1215     1  0.0000000  0.6508444  3
   1203   1201   1200   1204     1  0.0000000  0.6508444  3
   1203   1201   1200   1207     1  0.0000000  0.6508444  3
   1203   1201   1200   1229     1  0.0000000  0.6508444  3
   1203   1201   1213   1225     1  0.0000000  0.6508444  3
   1203   1201   1213   1214     1  0.0000000  0.6508444  3
   1203   1201   1213   1215     1  0.0000000  0.6508444  3
   1204   1200   1207   1208     1  0.0000000  0.6508444  3
   1204   1200   1207   1209     1  0.0000000  0.6508444  3
   1204   1216   1222   1223     1  0.0000000  0.6508444  3
   1204   1216   1222   1224     1  0.0000000  0.6508444  3
   1205   1204   1200   1207     1  0.0000000  0.6508444  3
   1205   1204   1200   1229     1  0.0000000  0.6508444  3
   1205   1204   1216   1222     1  0.0000000  0.6508444  3
   1205   1204   1216   1217     1  0.0000000  0.6508444  3
   1205   1204   1216   1218     1  0.0000000  0.6508444  3
   1206   1204   1200   1207     1  0.0000000  0.6508444  3
   1206   1204   1200   1229     1  0.0000000  0.6508444  3
   1206   1204   1216   1222     1  0.0000000  0.6508444  3
   1206   1204   1216   1217     1  0.0000000  0.6508444  3
   1206   1204   1216   1218     1  0.0000000  0.6508444  3
   1207   1210   1219   1220     1  0.0000000  0.6508444  3
   1207   1210   1219   1221     1  0.0000000  0.6508444  3
   1208   1207   1200   1229     1  0.0000000  0.6508444  3
   1208   1207   1210   1219     1  0.0000000  0.6508444  3
   1208   1207   1210   1211     1  0.0000000  0.6508444  3
   1208   1207   1210   1212     1  0.0000000  0.6508444  3
   1209   1207   1200   1229     1  0.0000000  0.6508444  3
   1209   1207   1210   1219     1  0.0000000  0.6508444  3
   1209   1207   1210   1211     1  0.0000000  0.6508444  3
   1209   1207   1210   1212     1  0.0000000  0.6508444  3
   1210   1207   1200   1229     1  0.0000000  0.6508444  3
   1211   1210   1219   1228     1  0.0000000  1.0460000  1
   1211   1210   1219   1228     1  0.0000000  0.0000000  3
   1211   1210   1219   1220     1  0.0000000  0.6508444  3
   1211   1210   1219   1221     1  0.0000000  0.6508444  3
   1212   1210   1219   1228     1  0.0000000  1.0460000  1
   1212   1210   1219   1228     1  0.0000000  0.0000000  3
   1212   1210   1219   1220     1  0.0000000  0.6508444  3
   1212   1210   1219   1221     1  0.0000000  0.6508444  3
   1213   1201   1200   1229     1  0.0000000  0.6508444  3
   1214   1213   1225   2518     1  0.0000000  1.0460000  1
   1214   1213   1225   2518     1  0.0000000  0.0000000  3
   1214   1213   1225   1226     1  0.0000000  0.6508444  3
   1214   1213   1225   1227     1  0.0000000  0.6508444  3
   1215   1213   1225   2518     1  0.0000000  1.0460000  1
   1215   1213   1225   2518     1  0.0000000  0.0000000  3
   1215   1213   1225   1226     1  0.0000000  0.6508444  3
   1215   1213   1225   1227     1  0.0000000  0.6508444  3
   1216   1204   1200   1229     1  0.0000000  0.6508444  3
   1217   1216   1222   2488     1  0.0000000  1.0460000  1
   1217   1216   1222   2488     1  0.0000000  0.0000000  3
   1217   1216   1222   1223     1  0.0000000  0.6508444  3
   1217   1216   1222   1224     1  0.0000000  0.6508444  3
   1218   1216   1222   2488     1  0.0000000  1.0460000  1
   1218   1216   1222   2488     1  0.0000000  0.0000000  3
   1218   1216   1222   1223     1  0.0000000  0.6508444  3
   1218   1216   1222   1224     1  0.0000000  0.6508444  3
   1222   2488   2479   2480     1  0.0000000  1.6038667  3
   1222   2488   2479   2481     1  0.0000000  1.6038667  3
   1223   1222   2488   2479     1  0.0000000  1.6038667  3
   1224   1222   2488   2479     1  0.0000000  1.6038667  3
   1225   2518   2509   2510     1  0.0000000  1.6038667  3
   1225   2518   2509   2511     1  0.0000000  1.6038667  3
   1226   1225   2518   2509     1  0.0000000  1.6038667  3
   1227   1225   2518   2509     1  0.0000000  1.6038667  3
   1230   1231   1243   1244     1  0.0000000  0.6508444  3
   1230   1231   1243   1245     1  0.0000000  0.6508444  3
   1230   1234   1246   1247     1  0.0000000  0.6508444  3
   1230   1234   1246   1248     1  0.0000000  0.6508444  3
   1230   1237   1240   1241     1  0.0000000  0.6508444  3
   1230   1237   1240   1242     1  0.0000000  0.6508444  3
   1231   1230   1234   1235     1  0.0000000  0.6508444  3
   1231   1230   1234   1236     1  0.0000000  0.6508444  3
   1231   1230   1237   1238     1  0.0000000  0.6508444  3
   1231   1230   1237   1239     1  0.0000000  0.6508444  3
   1231   1243   1255   1256     1  0.0000000  0.6508444  3
   1231   1243   1255   1257     1  0.0000000  0.6508444  3
   1232   1231   1230   1234     1  0.0000000  0.6508444  3
   1232   1231   1230   1237     1  0.0000000  0.6508444  3
   1232   1231   1230   1259     1  0.0000000  0.6508444  3
   1232   1231   1243   1255     1  0.0000000  0.6508444  3
   1232   1231   1243   1244     1  0.0000000  0.6508444  3
   1232   1231   1243   1245     1  0.0000000  0.6508444  3
   1233   1231   1230   1234     1  0.0000000  0.6508444  3
   1233   1231   1230   1237     1  0.0000000  0.6508444  3
   1233   1231   1230   1259     1  0.0000000  0.6508444  3
   1233   1231   1243   1255     1  0.0000000  0.6508444  3
   1233   1231   1243   1244     1  0.0000000  0.6508444  3
   1233   1231   1243   1245     1  0.0000000  0.6508444  3
   1234   1230   1237   1238     1  0.0000000  0.6508444  3
   1234   1230   1237   1239     1  0.0000000  0.6508444  3
   1234   1246   1252   1253     1  0.0000000  0.6508444  3
   1234   1246   1252   1254     1  0.0000000  0.6508444  3
   1235   1234   1230   1237     1  0.0000000  0.6508444  3
   1235   1234   1230   1259     1  0.0000000  0.6508444  3
   1235   1234   1246   1252     1  0.0000000  0.6508444  3
   1235   1234   1246   1247     1  0.0000000  0.6508444  3
   1235   1234   1246   1248     1  0.0000000  0.6508444  3
   1236   1234   1230   1237     1  0.0000000  0.6508444  3
   1236   1234   1230   1259     1  0.0000000  0.6508444  3
   1236   1234   1246   1252     1  0.0000000  0.6508444  3
   1236   1234   1246   1247     1  0.0000000  0.6508444  3
   1236   1234   1246   1248     1  0.0000000  0.6508444  3
   1237   1240   1249   1250     1  0.0000000  0.6508444  3
   1237   1240   1249   1251     1  0.0000000  0.6508444  3
   1238   1237   1230   1259     1  0.0000000  0.6508444  3
   1238   1237   1240   1249     1  0.0000000  0.6508444  3
   1238   1237   1240   1241     1  0.0000000  0.6508444  3
   1238   1237   1240   1242     1  0.0000000  0.6508444  3
   1239   1237   1230   1259     1  0.0000000  0.6508444  3
   1239   1237   1240   1249     1  0.0000000  0.6508444  3
   1239   1237   1240   1241     1  0.0000000  0.6508444  3
   1239   1237   1240   1242     1  0.0000000  0.6508444  3
   1240   1237   1230   1259     1  0.0000000  0.6508444  3
   1241   1240   1249   1258     1  0.0000000  1.0460000  1
   1241   1240   1249   1258     1  0.0000000  0.0000000  3
   1241   1240   1249   1250     1  0.0000000  0.6508444  3
   1241   1240   1249   1251     1  0.0000000  0.6508444  3
   1242   1240   1249   1258     1  0.0000000  1.0460000  1
   1242   1240   1249   1258     1  0.0000000  0.0000000  3
   1242   1240   1249   1250     1  0.0000000  0.6508444  3
   1242   1240   1249   1251     1  0.0000000  0.6508444  3
   1243   1231   1230   1259     1  0.0000000  0.6508444  3
   1244   1243   1255   2578     1  0.0000000  1.0460000  1
   1244   1243   1255   2578     1  0.0000000  0.0000000  3
   1244   1243   1255   1256     1  0.0000000  0.6508444  3
   1244   1243   1255   1257     1  0.0000000  0.6508444  3
   1245   1243   1255   2578     1  0.0000000  1.0460000  1
   1245   1243   1255   2578     1  0.0000000  0.0000000  3
   1245   1243   1255   1256     1  0.0000000  0.6508444  3
   1245   1243   1255   1257     1  0.0000000  0.6508444  3
   1246   1234   1230   1259     1  0.0000000  0.6508444  3
   1247   1246   1252   2548     1  0.0000000  1.0460000  1
   1247   1246   1252   2548     1  0.0000000  0.0000000  3
   1247   1246   1252   1253     1  0.0000000  0.6508444  3
   1247   1246   1252   1254     1  0.0000000  0.6508444  3
   1248   1246   1252   2548     1  0.0000000  1.0460000  1
   1248   1246   1252   2548     1  0.0000000  0.0000000  3
   1248   1246   1252   1253     1  0.0000000  0.6508444  3
   1248   1246   1252   1254     1  0.0000000  0.6508444  3
   1252   2548   2539   2540     1  0.0000000  1.6038667  3
   1252   2548   2539   2541     1  0.0000000  1.6038667  3
   1253   1252   2548   2539     1  0.0000000  1.6038667  3
   1254   1252   2548   2539     1  0.0000000  1.6038667  3
   1255   2578   2569   2570     1  0.0000000  1.6038667  3
   1255   2578   2569   2571     1  0.0000000  1.6038667  3
   1256   1255   2578   2569     1  0.0000000  1.6038667  3
   1257   1255   2578   2569     1  0.0000000  1.6038667  3
   1260   1261   1273   1274     1  0.0000000  0.6508444  3
   1260   1261   1273   1275     1  0.0000000  0.6508444  3
   1260   1264   1276   1277     1  0.0000000  0.6508444  3
   1260   1264   1276   1278     1  0.0000000  0.6508444  3
   1260   1267   1270   1271     1  0.0000000  0.6508444  3
   1260   1267   1270   1272     1  0.0000000  0.6508444  3
   1261   1260   1264   1265     1  0.0000000  0.6508444  3
   1261   1260   1264   1266     1  0.0000000  0.6508444  3
   1261   1260   1267   1268     1  0.0000000  0.6508444  3
   1261   1260   1267   1269     1  0.0000000  0.6508444  3
   1261   1273   1285   1286     1  0.0000000  0.6508444  3
   1261   1273   1285   1287     1  0.0000000  0.6508444  3
   1262   1261   1260   1264     1  0.0000000  0.6508444  3
   1262   1261   1260   1267     1  0.0000000  0.6508444  3
   1262   1261   1260   1289     1  0.0000000  0.6508444  3
   1262   1261   1273   1285     1  0.0000000  0.6508444  3
   1262   1261   1273   1274     1  0.0000000  0.6508444  3
   1262   1261   1273   1275     1  0.0000000  0.6508444  3
   1263   1261   1260   1264     1  0.0000000  0.6508444  3
   1263   1261   1260   1267     1  0.0000000  0.6508444  3
   1263   1261   1260   1289     1  0.0000000  0.6508444  3
   1263   1261   1273   1285     1  0.0000000  0.6508444  3
   1263   1261   1273   1274     1  0.0000000  0.6508444  3
   1263   1261   1273   1275     1  0.0000000  0.6508444  3
   1264   1260   1267   1268     1  0.0000000  0.6508444  3
   1264   1260   1267   1269     1  0.0000000  0.6508444  3
   1264   1276   1282   1283     1  0.0000000  0.6508444  3
   1264   1276   1282   1284     1  0.0000000  0.6508444  3
   1265   1264   1260   1267     1  0.0000000  0.6508444  3
   1265   1264   1260   1289     1  0.0000000  0.6508444  3
   1265   1264   1276   1282     1  0.0000000  0.6508444  3
   1265   1264   1276   1277     1  0.0000000  0.6508444  3
   1265   1264   1276   1278     1  0.0000000  0.6508444  3
   1266   1264   1260   1267     1  0.0000000  0.6508444  3
   1266   1264   1260   1289     1  0.0000000  0.6508444  3
   1266   1264   1276   1282     1  0.0000000  0.6508444  3
   1266   1264   1276   1277     1  0.0000000  0.6508444  3
   1266   1264   1276   1278     1  0.0000000  0.6508444  3
   1267   1270   1279   1280     1  0.0000000  0.6508444  3
   1267   1270   1279   1281     1  0.0000000  0.6508444  3
   1268   1267   1260   1289     1  0.0000000  0.6508444  3
   1268   1267   1270   1279     1  0.0000000  0.6508444  3
   1268   1267   1270   1271     1  0.0000000  0.6508444  3
   1268   1267   1270   1272     1  0.0000000  0.6508444  3
   1269   1267   1260   1289     1  0.0000000  0.6508444  3
   1269   1267   1270   1279     1  0.0000000  0.6508444  3
   1269   1267   1270   1271     1  0.0000000  0.6508444  3
   1269   1267   1270   1272     1  0.0000000  0.6508444  3
   1270   1267   1260   1289     1  0.0000000  0.6508444  3
   1271   1270   1279   1288     1  0.0000000  1.0460000  1
   1271   1270   1279   1288     1  0.0000000  0.0000000  3
   1271   1270   1279   1280     1  0.0000000  0.6508444  3
   1271   1270   1279   1281     1  0.0000000  0.6508444  3
   1272   1270   1279   1288     1  0.0000000  1.0460000  1
   1272   1270   1279   1288     1  0.0000000  0.0000000  3
   1272   1270   1279   1280     1  0.0000000  0.6508444  3
   1272   1270   1279   1281     1  0.0000000  0.6508444  3
   1273   1261   1260   1289     1  0.0000000  0.6508444  3
   1274   1273   1285   2638     1  0.0000000  1.0460000  1
   1274   1273   1285   2638     1  0.0000000  0.0000000  3
   1274   1273   1285   1286     1  0.0000000  0.6508444  3
   1274   1273   1285   1287     1  0.0000000  0.6508444  3
   1275   1273   1285   2638     1  0.0000000  1.0460000  1
   1275   1273   1285   2638     1  0.0000000  0.0000000  3
   1275   1273   1285   1286     1  0.0000000  0.6508444  3
   1275   1273   1285   1287     1  0.0000000  0.6508444  3
   1276   1264   1260   1289     1  0.0000000  0.6508444  3
   1277   1276   1282   2608     1  0.0000000  1.0460000  1
   1277   1276   1282   2608     1  0.0000000  0.0000000  3
   1277   1276   1282   1283     1  0.0000000  0.6508444  3
   1277   1276   1282   1284     1  0.0000000  0.6508444  3
   1278   1276   1282   2608     1  0.0000000  1.0460000  1
   1278   1276   1282   2608     1  0.0000000  0.0000000  3
   1278   1276   1282   1283     1  0.0000000  0.6508444  3
   1278   1276   1282   1284     1  0.0000000  0.6508444  3
   1282   2608   2599   2600     1  0.0000000  1.6038667  3
   1282   2608   2599   2601     1  0.0000000  1.6038667  3
   1283   1282   2608   2599     1  0.0000000  1.6038667  3
   1284   1282   2608   2599     1  0.0000000  1.6038667  3
   1285   2638   2629   2630     1  0.0000000  1.6038667  3
   1285   2638   2629   2631     1  0.0000000  1.6038667  3
   1286   1285   2638   2629     1  0.0000000  1.6038667  3
   1287   1285   2638   2629     1  0.0000000  1.6038667  3
   1290   1291   1303   1304     1  0.0000000  0.6508444  3
   1290   1291   1303   1305     1  0.0000000  0.6508444  3
   1290   1294   1306   1307     1  0.0000000  0.6508444  3
   1290   1294   1306   1308     1  0.0000000  0.6508444  3
   1290   1297   1300   1301     1  0.0000000  0.6508444  3
   1290   1297   1300   1302     1  0.0000000  0.6508444  3
   1291   1290   1294   1295     1  0.0000000  0.6508444  3
   1291   1290   1294   1296     1  0.0000000  0.6508444  3
   1291   1290   1297   1298     1  0.0000000  0.6508444  3
   1291   1290   1297   1299     1  0.0000000  0.6508444  3
   1291   1303   1315   1316     1  0.0000000  0.6508444  3
   1291   1303   1315   1317     1  0.0000000  0.6508444  3
   1292   1291   1290   1294     1  0.0000000  0.6508444  3
   1292   1291   1290   1297     1  0.0000000  0.6508444  3
   1292   1291   1290   1319     1  0.0000000  0.6508444  3
   1292   1291   1303   1315     1  0.0000000  0.6508444  3
   1292   1291   1303   1304     1  0.0000000  0.6508444  3
   1292   1291   1303   1305     1  0.0000000  0.6508444  3
   1293   1291   1290   1294     1  0.0000000  0.6508444  3
   1293   1291   1290   1297     1  0.0000000  0.6508444  3
   1293   1291   1290   1319     1  0.0000000  0.6508444  3
   1293   1291   1303   1315     1  0.0000000  0.6508444  3
   1293   1291   1303   1304     1  0.0000000  0.6508444  3
   1293   1291   1303   1305     1  0.0000000  0.6508444  3
   1294   1290   1297   1298     1  0.0000000  0.6508444  3
   1294   1290   1297   1299     1  0.0000000  0.6508444  3
   1294   1306   1312   1313     1  0.0000000  0.6508444  3
   1294   1306   1312   1314     1  0.0000000  0.6508444  3
   1295   1294   1290   1297     1  0.0000000  0.6508444  3
   1295   1294   1290   1319     1  0.0000000  0.6508444  3
   1295   1294   1306   1312     1  0.0000000  0.6508444  3
   1295   1294   1306   1307     1  0.0000000  0.6508444  3
   1295   1294   1306   1308     1  0.0000000  0.6508444  3
   1296   1294   1290   1297     1  0.0000000  0.6508444  3
   1296   1294   1290   1319     1  0.0000000  0.6508444  3
   1296   1294   1306   1312     1  0.0000000  0.6508444  3
   1296   1294   1306   1307     1  0.0000000  0.6508444  3
   1296   1294   1306   1308     1  0.0000000  0.6508444  3
   1297   1300   1309   1310     1  0.0000000  0.6508444  3
   1297   1300   1309   1311     1  0.0000000  0.6508444  3
   1298   1297   1290   1319     1  0.0000000  0.6508444  3
   1298   1297   1300   1309     1  0.0000000  0.6508444  3
   1298   1297   1300   1301     1  0.0000000  0.6508444  3
   1298   1297   1300   1302     1  0.0000000  0.6508444  3
   1299   1297   1290   1319     1  0.0000000  0.6508444  3
   1299   1297   1300   1309     1  0.0000000  0.6508444  3
   1299   1297   1300   1301     1  0.0000000  0.6508444  3
   1299   1297   1300   1302     1  0.0000000  0.6508444  3
   1300   1297   1290   1319     1  0.0000000  0.6508444  3
   1301   1300   1309   1318     1  0.0000000  1.0460000  1
   1301   1300   1309   1318     1  0.0000000  0.0000000  3
   1301   1300   1309   1310     1  0.0000000  0.6508444  3
   1301   1300   1309   1311     1  0.0000000  0.6508444  3
   1302   1300   1309   1318     1  0.0000000  1.0460000  1
   1302   1300   1309   1318     1  0.0000000  0.0000000  3
   1302   1300   1309   1310     1  0.0000000  0.6508444  3
   1302   1300   1309   1311     1  0.0000000  0.6508444  3
   1303   1291   1290   1319     1  0.0000000  0.6508444  3
   1304   1303   1315   2698     1  0.0000000  1.0460000  1
   1304   1303   1315   2698     1  0.0000000  0.0000000  3
   1304   1303   1315   1316     1  0.0000000  0.6508444  3
   1304   1303   1315   1317     1  0.0000000  0.6508444  3
   1305   1303   1315   2698     1  0.0000000  1.0460000  1
   1305   1303   1315   2698     1  0.0000000  0.0000000  3
   1305   1303   1315   1316     1  0.0000000  0.6508444  3
   1305   1303   1315   1317     1  0.0000000  0.6508444  3
   1306   1294   1290   1319     1  0.0000000  0.6508444  3
   1307   1306   1312   2668     1  0.0000000  1.0460000  1
   1307   1306   1312   2668     1  0.0000000  0.0000000  3
   1307   1306   1312   1313     1  0.0000000  0.6508444  3
   1307   1306   1312   1314     1  0.0000000  0.6508444  3
   1308   1306   1312   2668     1  0.0000000  1.0460000  1
   1308   1306   1312   2668     1  0.0000000  0.0000000  3
   1308   1306   1312   1313     1  0.0000000  0.6508444  3
   1308   1306   1312   1314     1  0.0000000  0.6508444  3
   1312   2668   2659   2660     1  0.0000000  1.6038667  3
   1312   2668   2659   2661     1  0.0000000  1.6038667  3
   1313   1312   2668   2659     1  0.0000000  1.6038667  3
   1314   1312   2668   2659     1  0.0000000  1.6038667  3
   1315   2698   2689   2690     1  0.0000000  1.6038667  3
   1315   2698   2689   2691     1  0.0000000  1.6038667  3
   1316   1315   2698   2689     1  0.0000000  1.6038667  3
   1317   1315   2698   2689     1  0.0000000  1.6038667  3
   1320   1321   1333   1334     1  0.0000000  0.6508444  3
   1320   1321   1333   1335     1  0.0000000  0.6508444  3
   1320   1324   1336   1337     1  0.0000000  0.6508444  3
   1320   1324   1336   1338     1  0.0000000  0.6508444  3
   1320   1327   1330   1331     1  0.0000000  0.6508444  3
   1320   1327   1330   1332     1  0.0000000  0.6508444  3
   1321   1320   1324   1325     1  0.0000000  0.6508444  3
   1321   1320   1324   1326     1  0.0000000  0.6508444  3
   1321   1320   1327   1328     1  0.0000000  0.6508444  3
   1321   1320   1327   1329     1  0.0000000  0.6508444  3
   1321   1333   1345   1346     1  0.0000000  0.6508444  3
   1321   1333   1345   1347     1  0.0000000  0.6508444  3
   1322   1321   1320   1324     1  0.0000000  0.6508444  3
   1322   1321   1320   1327     1  0.0000000  0.6508444  3
   1322   1321   1320   1349     1  0.0000000  0.6508444  3
   1322   1321   1333   1345     1  0.0000000  0.6508444  3
   1322   1321   1333   1334     1  0.0000000  0.6508444  3
   1322   1321   1333   1335     1  0.0000000  0.6508444  3
   1323   1321   1320   1324     1  0.0000000  0.6508444  3
   1323   1321   1320   1327     1  0.0000000  0.6508444  3
   1323   1321   1320   1349     1  0.0000000  0.6508444  3
   1323   1321   1333   1345     1  0.0000000  0.6508444  3
   1323   1321   1333   1334     1  0.0000000  0.6508444  3
   1323   1321   1333   1335     1  0.0000000  0.6508444  3
   1324   1320   1327   1328     1  0.0000000  0.6508444  3
   1324   1320   1327   1329     1  0.0000000  0.6508444  3
   1324   1336   1342   1343     1  0.0000000  0.6508444  3
   1324   1336   1342   1344     1  0.0000000  0.6508444  3
   1325   1324   1320   1327     1  0.0000000  0.6508444  3
   1325   1324   1320   1349     1  0.0000000  0.6508444  3
   1325   1324   1336   1342     1  0.0000000  0.6508444  3
   1325   1324   1336   1337     1  0.0000000  0.6508444  3
   1325   1324   1336   1338     1  0.0000000  0.6508444  3
   1326   1324   1320   1327     1  0.0000000  0.6508444  3
   1326   1324   1320   1349     1  0.0000000  0.6508444  3
   1326   1324   1336   1342     1  0.0000000  0.6508444  3
   1326   1324   1336   1337     1  0.0000000  0.6508444  3
   1326   1324   1336   1338     1  0.0000000  0.6508444  3
   1327   1330   1339   1340     1  0.0000000  0.6508444  3
   1327   1330   1339   1341     1  0.0000000  0.6508444  3
   1328   1327   1320   1349     1  0.0000000  0.6508444  3
   1328   1327   1330   1339     1  0.0000000  0.6508444  3
   1328   1327   1330   1331     1  0.0000000  0.6508444  3
   1328   1327   1330   1332     1  0.0000000  0.6508444  3
   1329   1327   1320   1349     1  0.0000000  0.6508444  3
   1329   1327   1330   1339     1  0.0000000  0.6508444  3
   1329   1327   1330   1331     1  0.0000000  0.6508444  3
   1329   1327   1330   1332     1  0.0000000  0.6508444  3
   1330   1327   1320   1349     1  0.0000000  0.6508444  3
   1331   1330   1339   1348     1  0.0000000  1.0460000  1
   1331   1330   1339   1348     1  0.0000000  0.0000000  3
   1331   1330   1339   1340     1  0.0000000  0.6508444  3
   1331   1330   1339   1341     1  0.0000000  0.6508444  3
   1332   1330   1339   1348     1  0.0000000  1.0460000  1
   1332   1330   1339   1348     1  0.0000000  0.0000000  3
   1332   1330   1339   1340     1  0.0000000  0.6508444  3
   1332   1330   1339   1341     1  0.0000000  0.6508444  3
   1333   1321   1320   1349     1  0.0000000  0.6508444  3
   1334   1333   1345   2758     1  0.0000000  1.0460000  1
   1334   1333   1345   2758     1  0.0000000  0.0000000  3
   1334   1333   1345   1346     1  0.0000000  0.6508444  3
   1334   1333   1345   1347     1  0.0000000  0.6508444  3
   1335   1333   1345   2758     1  0.0000000  1.0460000  1
   1335   1333   1345   2758     1  0.0000000  0.0000000  3
   1335   1333   1345   1346     1  0.0000000  0.6508444  3
   1335   1333   1345   1347     1  0.0000000  0.6508444  3
   1336   1324   1320   1349     1  0.0000000  0.6508444  3
   1337   1336   1342   2728     1  0.0000000  1.0460000  1
   1337   1336   1342   2728     1  0.0000000  0.0000000  3
   1337   1336   1342   1343     1  0.0000000  0.6508444  3
   1337   1336   1342   1344     1  0.0000000  0.6508444  3
   1338   1336   1342   2728     1  0.0000000  1.0460000  1
   1338   1336   1342   2728     1  0.0000000  0.0000000  3
   1338   1336   1342   1343     1  0.0000000  0.6508444  3
   1338   1336   1342   1344     1  0.0000000  0.6508444  3
   1342   2728   2719   2720     1  0.0000000  1.6038667  3
   1342   2728   2719   2721     1  0.0000000  1.6038667  3
   1343   1342   2728   2719     1  0.0000000  1.6038667  3
   1344   1342   2728   2719     1  0.0000000  1.6038667  3
   1345   2758   2749   2750     1  0.0000000  1.6038667  3
   1345   2758   2749   2751     1  0.0000000  1.6038667  3
   1346   1345   2758   2749     1  0.0000000  1.6038667  3
   1347   1345   2758   2749     1  0.0000000  1.6038667  3
   1350   1351   1363   1364     1  0.0000000  0.6508444  3
   1350   1351   1363   1365     1  0.0000000  0.6508444  3
   1350   1354   1366   1367     1  0.0000000  0.6508444  3
   1350   1354   1366   1368     1  0.0000000  0.6508444  3
   1350   1357   1360   1361     1  0.0000000  0.6508444  3
   1350   1357   1360   1362     1  0.0000000  0.6508444  3
   1351   1350   1354   1355     1  0.0000000  0.6508444  3
   1351   1350   1354   1356     1  0.0000000  0.6508444  3
   1351   1350   1357   1358     1  0.0000000  0.6508444  3
   1351   1350   1357   1359     1  0.0000000  0.6508444  3
   1351   1363   1375   1376     1  0.0000000  0.6508444  3
   1351   1363   1375   1377     1  0.0000000  0.6508444  3
   1352   1351   1350   1354     1  0.0000000  0.6508444  3
   1352   1351   1350   1357     1  0.0000000  0.6508444  3
   1352   1351   1350   1379     1  0.0000000  0.6508444  3
   1352   1351   1363   1375     1  0.0000000  0.6508444  3
   1352   1351   1363   1364     1  0.0000000  0.6508444  3
   1352   1351   1363   1365     1  0.0000000  0.6508444  3
   1353   1351   1350   1354     1  0.0000000  0.6508444  3
   1353   1351   1350   1357     1  0.0000000  0.6508444  3
   1353   1351   1350   1379     1  0.0000000  0.6508444  3
   1353   1351   1363   1375     1  0.0000000  0.6508444  3
   1353   1351   1363   1364     1  0.0000000  0.6508444  3
   1353   1351   1363   1365     1  0.0000000  0.6508444  3
   1354   1350   1357   1358     1  0.0000000  0.6508444  3
   1354   1350   1357   1359     1  0.0000000  0.6508444  3
   1354   1366   1372   1373     1  0.0000000  0.6508444  3
   1354   1366   1372   1374     1  0.0000000  0.6508444  3
   1355   1354   1350   1357     1  0.0000000  0.6508444  3
   1355   1354   1350   1379     1  0.0000000  0.6508444  3
   1355   1354   1366   1372     1  0.0000000  0.6508444  3
   1355   1354   1366   1367     1  0.0000000  0.6508444  3
   1355   1354   1366   1368     1  0.0000000  0.6508444  3
   1356   1354   1350   1357     1  0.0000000  0.6508444  3
   1356   1354   1350   1379     1  0.0000000  0.6508444  3
   1356   1354   1366   1372     1  0.0000000  0.6508444  3
   1356   1354   1366   1367     1  0.0000000  0.6508444  3
   1356   1354   1366   1368     1  0.0000000  0.6508444  3
   1357   1360   1369   1370     1  0.0000000  0.6508444  3
   1357   1360   1369   1371     1  0.0000000  0.6508444  3
   1358   1357   1350   1379     1  0.0000000  0.6508444  3
   1358   1357   1360   1369     1  0.0000000  0.6508444  3
   1358   1357   1360   1361     1  0.0000000  0.6508444  3
   1358   1357   1360   1362     1  0.0000000  0.6508444  3
   1359   1357   1350   1379     1  0.0000000  0.6508444  3
   1359   1357   1360   1369     1  0.0000000  0.6508444  3
   1359   1357   1360   1361     1  0.0000000  0.6508444  3
   1359   1357   1360   1362     1  0.0000000  0.6508444  3
   1360   1357   1350   1379     1  0.0000000  0.6508444  3
   1361   1360   1369   1378     1  0.0000000  1.0460000  1
   1361   1360   1369   1378     1  0.0000000  0.0000000  3
   1361   1360   1369   1370     1  0.0000000  0.6508444  3
   1361   1360   1369   1371     1  0.0000000  0.6508444  3
   1362   1360   1369   1378     1  0.0000000  1.0460000  1
   1362   1360   1369   1378     1  0.0000000  0.0000000  3
   1362   1360   1369   1370     1  0.0000000  0.6508444  3
   1362   1360   1369   1371     1  0.0000000  0.6508444  3
   1363   1351   1350   1379     1  0.0000000  0.6508444  3
   1364   1363   1375   2818     1  0.0000000  1.0460000  1
   1364   1363   1375   2818     1  0.0000000  0.0000000  3
   1364   1363   1375   1376     1  0.0000000  0.6508444  3
   1364   1363   1375   1377     1  0.0000000  0.6508444  3
   1365   1363   1375   2818     1  0.0000000  1.0460000  1
   1365   1363   1375   2818     1  0.0000000  0.0000000  3
   1365   1363   1375   1376     1  0.0000000  0.6508444  3
   1365   1363   1375   1377     1  0.0000000  0.6508444  3
   1366   1354   1350   1379     1  0.0000000  0.6508444  3
   1367   1366   1372   2788     1  0.0000000  1.0460000  1
   1367   1366   1372   2788     1  0.0000000  0.0000000  3
   1367   1366   1372   1373     1  0.0000000  0.6508444  3
   1367   1366   1372   1374     1  0.0000000  0.6508444  3
   1368   1366   1372   2788     1  0.0000000  1.0460000  1
   1368   1366   1372   2788     1  0.0000000  0.0000000  3
   1368   1366   1372   1373     1  0.0000000  0.6508444  3
   1368   1366   1372   1374     1  0.0000000  0.6508444  3
   1372   2788   2779   2780     1  0.0000000  1.6038667  3
   1372   2788   2779   2781     1  0.0000000  1.6038667  3
   1373   1372   2788   2779     1  0.0000000  1.6038667  3
   1374   1372   2788   2779     1  0.0000000  1.6038667  3
   1375   2818   2809   2810     1  0.0000000  1.6038667  3
   1375   2818   2809   2811     1  0.0000000  1.6038667  3
   1376   1375   2818   2809     1  0.0000000  1.6038667  3
   1377   1375   2818   2809     1  0.0000000  1.6038667  3
   1380   1381   1393   1394     1  0.0000000  0.6508444  3
   1380   1381   1393   1395     1  0.0000000  0.6508444  3
   1380   1384   1396   1397     1  0.0000000  0.6508444  3
   1380   1384   1396   1398     1  0.0000000  0.6508444  3
   1380   1387   1390   1391     1  0.0000000  0.6508444  3
   1380   1387   1390   1392     1  0.0000000  0.6508444  3
   1381   1380   1384   1385     1  0.0000000  0.6508444  3
   1381   1380   1384   1386     1  0.0000000  0.6508444  3
   1381   1380   1387   1388     1  0.0000000  0.6508444  3
   1381   1380   1387   1389     1  0.0000000  0.6508444  3
   1381   1393   1405   1406     1  0.0000000  0.6508444  3
   1381   1393   1405   1407     1  0.0000000  0.6508444  3
   1382   1381   1380   1384     1  0.0000000  0.6508444  3
   1382   1381   1380   1387     1  0.0000000  0.6508444  3
   1382   1381   1380   1409     1  0.0000000  0.6508444  3
   1382   1381   1393   1405     1  0.0000000  0.6508444  3
   1382   1381   1393   1394     1  0.0000000  0.6508444  3
   1382   1381   1393   1395     1  0.0000000  0.6508444  3
   1383   1381   1380   1384     1  0.0000000  0.6508444  3
   1383   1381   1380   1387     1  0.0000000  0.6508444  3
   1383   1381   1380   1409     1  0.0000000  0.6508444  3
   1383   1381   1393   1405     1  0.0000000  0.6508444  3
   1383   1381   1393   1394     1  0.0000000  0.6508444  3
   1383   1381   1393   1395     1  0.0000000  0.6508444  3
   1384   1380   1387   1388     1  0.0000000  0.6508444  3
   1384   1380   1387   1389     1  0.0000000  0.6508444  3
   1384   1396   1402   1403     1  0.0000000  0.6508444  3
   1384   1396   1402   1404     1  0.0000000  0.6508444  3
   1385   1384   1380   1387     1  0.0000000  0.6508444  3
   1385   1384   1380   1409     1  0.0000000  0.6508444  3
   1385   1384   1396   1402     1  0.0000000  0.6508444  3
   1385   1384   1396   1397     1  0.0000000  0.6508444  3
   1385   1384   1396   1398     1  0.0000000  0.6508444  3
   1386   1384   1380   1387     1  0.0000000  0.6508444  3
   1386   1384   1380   1409     1  0.0000000  0.6508444  3
   1386   1384   1396   1402     1  0.0000000  0.6508444  3
   1386   1384   1396   1397     1  0.0000000  0.6508444  3
   1386   1384   1396   1398     1  0.0000000  0.6508444  3
   1387   1390   1399   1400     1  0.0000000  0.6508444  3
   1387   1390   1399   1401     1  0.0000000  0.6508444  3
   1388   1387   1380   1409     1  0.0000000  0.6508444  3
   1388   1387   1390   1399     1  0.0000000  0.6508444  3
   1388   1387   1390   1391     1  0.0000000  0.6508444  3
   1388   1387   1390   1392     1  0.0000000  0.6508444  3
   1389   1387   1380   1409     1  0.0000000  0.6508444  3
   1389   1387   1390   1399     1  0.0000000  0.6508444  3
   1389   1387   1390   1391     1  0.0000000  0.6508444  3
   1389   1387   1390   1392     1  0.0000000  0.6508444  3
   1390   1387   1380   1409     1  0.0000000  0.6508444  3
   1391   1390   1399   1408     1  0.0000000  1.0460000  1
   1391   1390   1399   1408     1  0.0000000  0.0000000  3
   1391   1390   1399   1400     1  0.0000000  0.6508444  3
   1391   1390   1399   1401     1  0.0000000  0.6508444  3
   1392   1390   1399   1408     1  0.0000000  1.0460000  1
   1392   1390   1399   1408     1  0.0000000  0.0000000  3
   1392   1390   1399   1400     1  0.0000000  0.6508444  3
   1392   1390   1399   1401     1  0.0000000  0.6508444  3
   1393   1381   1380   1409     1  0.0000000  0.6508444  3
   1394   1393   1405   2853     1  0.0000000  1.0460000  1
   1394   1393   1405   2853     1  0.0000000  0.0000000  3
   1394   1393   1405   1406     1  0.0000000  0.6508444  3
   1394   1393   1405   1407     1  0.0000000  0.6508444  3
   1395   1393   1405   2853     1  0.0000000  1.0460000  1
   1395   1393   1405   2853     1  0.0000000  0.0000000  3
   1395   1393   1405   1406     1  0.0000000  0.6508444  3
   1395   1393   1405   1407     1  0.0000000  0.6508444  3
   1396   1384   1380   1409     1  0.0000000  0.6508444  3
   1397   1396   1402   2830     1  0.0000000  1.0460000  1
   1397   1396   1402   2830     1  0.0000000  0.0000000  3
   1397   1396   1402   1403     1  0.0000000  0.6508444  3
   1397   1396   1402   1404     1  0.0000000  0.6508444  3
   1398   1396   1402   2830     1  0.0000000  1.0460000  1
   1398   1396   1402   2830     1  0.0000000  0.0000000  3
   1398   1396   1402   1403     1  0.0000000  0.6508444  3
   1398   1396   1402   1404     1  0.0000000  0.6508444  3
   1402   2830   2826   2829     1  0.0000000  1.6038667  3
   1403   1402   2830   2826     1  0.0000000  1.6038667  3
   1404   1402   2830   2826     1  0.0000000  1.6038667  3
   1405   2853   2849   2852     1  0.0000000  1.6038667  3
   1406   1405   2853   2849     1  0.0000000  1.6038667  3
   1407   1405   2853   2849     1  0.0000000  1.6038667  3
   1410   1411   1423   1424     1  0.0000000  0.6508444  3
   1410   1411   1423   1425     1  0.0000000  0.6508444  3
   1410   1414   1426   1427     1  0.0000000  0.6508444  3
   1410   1414   1426   1428     1  0.0000000  0.6508444  3
   1410   1417   1420   1421     1  0.0000000  0.6508444  3
   1410   1417   1420   1422     1  0.0000000  0.6508444  3
   1411   1410   1414   1415     1  0.0000000  0.6508444  3
   1411   1410   1414   1416     1  0.0000000  0.6508444  3
   1411   1410   1417   1418     1  0.0000000  0.6508444  3
   1411   1410   1417   1419     1  0.0000000  0.6508444  3
   1411   1423   1435   1436     1  0.0000000  0.6508444  3
   1411   1423   1435   1437     1  0.0000000  0.6508444  3
   1412   1411   1410   1414     1  0.0000000  0.6508444  3
   1412   1411   1410   1417     1  0.0000000  0.6508444  3
   1412   1411   1410   1439     1  0.0000000  0.6508444  3
   1412   1411   1423   1435     1  0.0000000  0.6508444  3
   1412   1411   1423   1424     1  0.0000000  0.6508444  3
   1412   1411   1423   1425     1  0.0000000  0.6508444  3
   1413   1411   1410   1414     1  0.0000000  0.6508444  3
   1413   1411   1410   1417     1  0.0000000  0.6508444  3
   1413   1411   1410   1439     1  0.0000000  0.6508444  3
   1413   1411   1423   1435     1  0.0000000  0.6508444  3
   1413   1411   1423   1424     1  0.0000000  0.6508444  3
   1413   1411   1423   1425     1  0.0000000  0.6508444  3
   1414   1410   1417   1418     1  0.0000000  0.6508444  3
   1414   1410   1417   1419     1  0.0000000  0.6508444  3
   1414   1426   1432   1433     1  0.0000000  0.6508444  3
   1414   1426   1432   1434     1  0.0000000  0.6508444  3
   1415   1414   1410   1417     1  0.0000000  0.6508444  3
   1415   1414   1410   1439     1  0.0000000  0.6508444  3
   1415   1414   1426   1432     1  0.0000000  0.6508444  3
   1415   1414   1426   1427     1  0.0000000  0.6508444  3
   1415   1414   1426   1428     1  0.0000000  0.6508444  3
   1416   1414   1410   1417     1  0.0000000  0.6508444  3
   1416   1414   1410   1439     1  0.0000000  0.6508444  3
   1416   1414   1426   1432     1  0.0000000  0.6508444  3
   1416   1414   1426   1427     1  0.0000000  0.6508444  3
   1416   1414   1426   1428     1  0.0000000  0.6508444  3
   1417   1420   1429   1430     1  0.0000000  0.6508444  3
   1417   1420   1429   1431     1  0.0000000  0.6508444  3
   1418   1417   1410   1439     1  0.0000000  0.6508444  3
   1418   1417   1420   1429     1  0.0000000  0.6508444  3
   1418   1417   1420   1421     1  0.0000000  0.6508444  3
   1418   1417   1420   1422     1  0.0000000  0.6508444  3
   1419   1417   1410   1439     1  0.0000000  0.6508444  3
   1419   1417   1420   1429     1  0.0000000  0.6508444  3
   1419   1417   1420   1421     1  0.0000000  0.6508444  3
   1419   1417   1420   1422     1  0.0000000  0.6508444  3
   1420   1417   1410   1439     1  0.0000000  0.6508444  3
   1421   1420   1429   1438     1  0.0000000  1.0460000  1
   1421   1420   1429   1438     1  0.0000000  0.0000000  3
   1421   1420   1429   1430     1  0.0000000  0.6508444  3
   1421   1420   1429   1431     1  0.0000000  0.6508444  3
   1422   1420   1429   1438     1  0.0000000  1.0460000  1
   1422   1420   1429   1438     1  0.0000000  0.0000000  3
   1422   1420   1429   1430     1  0.0000000  0.6508444  3
   1422   1420   1429   1431     1  0.0000000  0.6508444  3
   1423   1411   1410   1439     1  0.0000000  0.6508444  3
   1424   1423   1435   2899     1  0.0000000  1.0460000  1
   1424   1423   1435   2899     1  0.0000000  0.0000000  3
   1424   1423   1435   1436     1  0.0000000  0.6508444  3
   1424   1423   1435   1437     1  0.0000000  0.6508444  3
   1425   1423   1435   2899     1  0.0000000  1.0460000  1
   1425   1423   1435   2899     1  0.0000000  0.0000000  3
   1425   1423   1435   1436     1  0.0000000  0.6508444  3
   1425   1423   1435   1437     1  0.0000000  0.6508444  3
   1426   1414   1410   1439     1  0.0000000  0.6508444  3
   1427   1426   1432   2876     1  0.0000000  1.0460000  1
   1427   1426   1432   2876     1  0.0000000  0.0000000  3
   1427   1426   1432   1433     1  0.0000000  0.6508444  3
   1427   1426   1432   1434     1  0.0000000  0.6508444  3
   1428   1426   1432   2876     1  0.0000000  1.0460000  1
   1428   1426   1432   2876     1  0.0000000  0.0000000  3
   1428   1426   1432   1433     1  0.0000000  0.6508444  3
   1428   1426   1432   1434     1  0.0000000  0.6508444  3
   1432   2876   2872   2875     1  0.0000000  1.6038667  3
   1433   1432   2876   2872     1  0.0000000  1.6038667  3
   1434   1432   2876   2872     1  0.0000000  1.6038667  3
   1435   2899   2895   2898     1  0.0000000  1.6038667  3
   1436   1435   2899   2895     1  0.0000000  1.6038667  3
   1437   1435   2899   2895     1  0.0000000  1.6038667  3
   1440   1441   1453   1454     1  0.0000000  0.6508444  3
   1440   1441   1453   1455     1  0.0000000  0.6508444  3
   1440   1444   1456   1457     1  0.0000000  0.6508444  3
   1440   1444   1456   1458     1  0.0000000  0.6508444  3
   1440   1447   1450   1451     1  0.0000000  0.6508444  3
   1440   1447   1450   1452     1  0.0000000  0.6508444  3
   1441   1440   1444   1445     1  0.0000000  0.6508444  3
   1441   1440   1444   1446     1  0.0000000  0.6508444  3
   1441   1440   1447   1448     1  0.0000000  0.6508444  3
   1441   1440   1447   1449     1  0.0000000  0.6508444  3
   1441   1453   1465   1466     1  0.0000000  0.6508444  3
   1441   1453   1465   1467     1  0.0000000  0.6508444  3
   1442   1441   1440   1444     1  0.0000000  0.6508444  3
   1442   1441   1440   1447     1  0.0000000  0.6508444  3
   1442   1441   1440   1469     1  0.0000000  0.6508444  3
   1442   1441   1453   1465     1  0.0000000  0.6508444  3
   1442   1441   1453   1454     1  0.0000000  0.6508444  3
   1442   1441   1453   1455     1  0.0000000  0.6508444  3
   1443   1441   1440   1444     1  0.0000000  0.6508444  3
   1443   1441   1440   1447     1  0.0000000  0.6508444  3
   1443   1441   1440   1469     1  0.0000000  0.6508444  3
   1443   1441   1453   1465     1  0.0000000  0.6508444  3
   1443   1441   1453   1454     1  0.0000000  0.6508444  3
   1443   1441   1453   1455     1  0.0000000  0.6508444  3
   1444   1440   1447   1448     1  0.0000000  0.6508444  3
   1444   1440   1447   1449     1  0.0000000  0.6508444  3
   1444   1456   1462   1463     1  0.0000000  0.6508444  3
   1444   1456   1462   1464     1  0.0000000  0.6508444  3
   1445   1444   1440   1447     1  0.0000000  0.6508444  3
   1445   1444   1440   1469     1  0.0000000  0.6508444  3
   1445   1444   1456   1462     1  0.0000000  0.6508444  3
   1445   1444   1456   1457     1  0.0000000  0.6508444  3
   1445   1444   1456   1458     1  0.0000000  0.6508444  3
   1446   1444   1440   1447     1  0.0000000  0.6508444  3
   1446   1444   1440   1469     1  0.0000000  0.6508444  3
   1446   1444   1456   1462     1  0.0000000  0.6508444  3
   1446   1444   1456   1457     1  0.0000000  0.6508444  3
   1446   1444   1456   1458     1  0.0000000  0.6508444  3
   1447   1450   1459   1460     1  0.0000000  0.6508444  3
   1447   1450   1459   1461     1  0.0000000  0.6508444  3
   1448   1447   1440   1469     1  0.0000000  0.6508444  3
   1448   1447   1450   1459     1  0.0000000  0.6508444  3
   1448   1447   1450   1451     1  0.0000000  0.6508444  3
   1448   1447   1450   1452     1  0.0000000  0.6508444  3
   1449   1447   1440   1469     1  0.0000000  0.6508444  3
   1449   1447   1450   1459     1  0.0000000  0.6508444  3
   1449   1447   1450   1451     1  0.0000000  0.6508444  3
   1449   1447   1450   1452     1  0.0000000  0.6508444  3
   1450   1447   1440   1469     1  0.0000000  0.6508444  3
   1451   1450   1459   1468     1  0.0000000  1.0460000  1
   1451   1450   1459   1468     1  0.0000000  0.0000000  3
   1451   1450   1459   1460     1  0.0000000  0.6508444  3
   1451   1450   1459   1461     1  0.0000000  0.6508444  3
   1452   1450   1459   1468     1  0.0000000  1.0460000  1
   1452   1450   1459   1468     1  0.0000000  0.0000000  3
   1452   1450   1459   1460     1  0.0000000  0.6508444  3
   1452   1450   1459   1461     1  0.0000000  0.6508444  3
   1453   1441   1440   1469     1  0.0000000  0.6508444  3
   1454   1453   1465   2945     1  0.0000000  1.0460000  1
   1454   1453   1465   2945     1  0.0000000  0.0000000  3
   1454   1453   1465   1466     1  0.0000000  0.6508444  3
   1454   1453   1465   1467     1  0.0000000  0.6508444  3
   1455   1453   1465   2945     1  0.0000000  1.0460000  1
   1455   1453   1465   2945     1  0.0000000  0.0000000  3
   1455   1453   1465   1466     1  0.0000000  0.6508444  3
   1455   1453   1465   1467     1  0.0000000  0.6508444  3
   1456   1444   1440   1469     1  0.0000000  0.6508444  3
   1457   1456   1462   2922     1  0.0000000  1.0460000  1
   1457   1456   1462   2922     1  0.0000000  0.0000000  3
   1457   1456   1462   1463     1  0.0000000  0.6508444  3
   1457   1456   1462   1464     1  0.0000000  0.6508444  3
   1458   1456   1462   2922     1  0.0000000  1.0460000  1
   1458   1456   1462   2922     1  0.0000000  0.0000000  3
   1458   1456   1462   1463     1  0.0000000  0.6508444  3
   1458   1456   1462   1464     1  0.0000000  0.6508444  3
   1462   2922   2918   2921     1  0.0000000  1.6038667  3
   1463   1462   2922   2918     1  0.0000000  1.6038667  3
   1464   1462   2922   2918     1  0.0000000  1.6038667  3
   1465   2945   2941   2944     1  0.0000000  1.6038667  3
   1466   1465   2945   2941     1  0.0000000  1.6038667  3
   1467   1465   2945   2941     1  0.0000000  1.6038667  3
   1470   1471   1483   1484     1  0.0000000  0.6508444  3
   1470   1471   1483   1485     1  0.0000000  0.6508444  3
   1470   1474   1486   1487     1  0.0000000  0.6508444  3
   1470   1474   1486   1488     1  0.0000000  0.6508444  3
   1470   1477   1480   1481     1  0.0000000  0.6508444  3
   1470   1477   1480   1482     1  0.0000000  0.6508444  3
   1471   1470   1474   1475     1  0.0000000  0.6508444  3
   1471   1470   1474   1476     1  0.0000000  0.6508444  3
   1471   1470   1477   1478     1  0.0000000  0.6508444  3
   1471   1470   1477   1479     1  0.0000000  0.6508444  3
   1471   1483   1495   1496     1  0.0000000  0.6508444  3
   1471   1483   1495   1497     1  0.0000000  0.6508444  3
   1472   1471   1470   1474     1  0.0000000  0.6508444  3
   1472   1471   1470   1477     1  0.0000000  0.6508444  3
   1472   1471   1470   1499     1  0.0000000  0.6508444  3
   1472   1471   1483   1495     1  0.0000000  0.6508444  3
   1472   1471   1483   1484     1  0.0000000  0.6508444  3
   1472   1471   1483   1485     1  0.0000000  0.6508444  3
   1473   1471   1470   1474     1  0.0000000  0.6508444  3
   1473   1471   1470   1477     1  0.0000000  0.6508444  3
   1473   1471   1470   1499     1  0.0000000  0.6508444  3
   1473   1471   1483   1495     1  0.0000000  0.6508444  3
   1473   1471   1483   1484     1  0.0000000  0.6508444  3
   1473   1471   1483   1485     1  0.0000000  0.6508444  3
   1474   1470   1477   1478     1  0.0000000  0.6508444  3
   1474   1470   1477   1479     1  0.0000000  0.6508444  3
   1474   1486   1492   1493     1  0.0000000  0.6508444  3
   1474   1486   1492   1494     1  0.0000000  0.6508444  3
   1475   1474   1470   1477     1  0.0000000  0.6508444  3
   1475   1474   1470   1499     1  0.0000000  0.6508444  3
   1475   1474   1486   1492     1  0.0000000  0.6508444  3
   1475   1474   1486   1487     1  0.0000000  0.6508444  3
   1475   1474   1486   1488     1  0.0000000  0.6508444  3
   1476   1474   1470   1477     1  0.0000000  0.6508444  3
   1476   1474   1470   1499     1  0.0000000  0.6508444  3
   1476   1474   1486   1492     1  0.0000000  0.6508444  3
   1476   1474   1486   1487     1  0.0000000  0.6508444  3
   1476   1474   1486   1488     1  0.0000000  0.6508444  3
   1477   1480   1489   1490     1  0.0000000  0.6508444  3
   1477   1480   1489   1491     1  0.0000000  0.6508444  3
   1478   1477   1470   1499     1  0.0000000  0.6508444  3
   1478   1477   1480   1489     1  0.0000000  0.6508444  3
   1478   1477   1480   1481     1  0.0000000  0.6508444  3
   1478   1477   1480   1482     1  0.0000000  0.6508444  3
   1479   1477   1470   1499     1  0.0000000  0.6508444  3
   1479   1477   1480   1489     1  0.0000000  0.6508444  3
   1479   1477   1480   1481     1  0.0000000  0.6508444  3
   1479   1477   1480   1482     1  0.0000000  0.6508444  3
   1480   1477   1470   1499     1  0.0000000  0.6508444  3
   1481   1480   1489   1498     1  0.0000000  1.0460000  1
   1481   1480   1489   1498     1  0.0000000  0.0000000  3
   1481   1480   1489   1490     1  0.0000000  0.6508444  3
   1481   1480   1489   1491     1  0.0000000  0.6508444  3
   1482   1480   1489   1498     1  0.0000000  1.0460000  1
   1482   1480   1489   1498     1  0.0000000  0.0000000  3
   1482   1480   1489   1490     1  0.0000000  0.6508444  3
   1482   1480   1489   1491     1  0.0000000  0.6508444  3
   1483   1471   1470   1499     1  0.0000000  0.6508444  3
   1484   1483   1495   2991     1  0.0000000  1.0460000  1
   1484   1483   1495   2991     1  0.0000000  0.0000000  3
   1484   1483   1495   1496     1  0.0000000  0.6508444  3
   1484   1483   1495   1497     1  0.0000000  0.6508444  3
   1485   1483   1495   2991     1  0.0000000  1.0460000  1
   1485   1483   1495   2991     1  0.0000000  0.0000000  3
   1485   1483   1495   1496     1  0.0000000  0.6508444  3
   1485   1483   1495   1497     1  0.0000000  0.6508444  3
   1486   1474   1470   1499     1  0.0000000  0.6508444  3
   1487   1486   1492   2968     1  0.0000000  1.0460000  1
   1487   1486   1492   2968     1  0.0000000  0.0000000  3
   1487   1486   1492   1493     1  0.0000000  0.6508444  3
   1487   1486   1492   1494     1  0.0000000  0.6508444  3
   1488   1486   1492   2968     1  0.0000000  1.0460000  1
   1488   1486   1492   2968     1  0.0000000  0.0000000  3
   1488   1486   1492   1493     1  0.0000000  0.6508444  3
   1488   1486   1492   1494     1  0.0000000  0.6508444  3
   1492   2968   2964   2967     1  0.0000000  1.6038667  3
   1493   1492   2968   2964     1  0.0000000  1.6038667  3
   1494   1492   2968   2964     1  0.0000000  1.6038667  3
   1495   2991   2987   2990     1  0.0000000  1.6038667  3
   1496   1495   2991   2987     1  0.0000000  1.6038667  3
   1497   1495   2991   2987     1  0.0000000  1.6038667  3
   1500   1501   1513   1514     1  0.0000000  0.6508444  3
   1500   1501   1513   1515     1  0.0000000  0.6508444  3
   1500   1504   1516   1517     1  0.0000000  0.6508444  3
   1500   1504   1516   1518     1  0.0000000  0.6508444  3
   1500   1507   1510   1511     1  0.0000000  0.6508444  3
   1500   1507   1510   1512     1  0.0000000  0.6508444  3
   1501   1500   1504   1505     1  0.0000000  0.6508444  3
   1501   1500   1504   1506     1  0.0000000  0.6508444  3
   1501   1500   1507   1508     1  0.0000000  0.6508444  3
   1501   1500   1507   1509     1  0.0000000  0.6508444  3
   1501   1513   1525   1526     1  0.0000000  0.6508444  3
   1501   1513   1525   1527     1  0.0000000  0.6508444  3
   1502   1501   1500   1504     1  0.0000000  0.6508444  3
   1502   1501   1500   1507     1  0.0000000  0.6508444  3
   1502   1501   1500   1529     1  0.0000000  0.6508444  3
   1502   1501   1513   1525     1  0.0000000  0.6508444  3
   1502   1501   1513   1514     1  0.0000000  0.6508444  3
   1502   1501   1513   1515     1  0.0000000  0.6508444  3
   1503   1501   1500   1504     1  0.0000000  0.6508444  3
   1503   1501   1500   1507     1  0.0000000  0.6508444  3
   1503   1501   1500   1529     1  0.0000000  0.6508444  3
   1503   1501   1513   1525     1  0.0000000  0.6508444  3
   1503   1501   1513   1514     1  0.0000000  0.6508444  3
   1503   1501   1513   1515     1  0.0000000  0.6508444  3
   1504   1500   1507   1508     1  0.0000000  0.6508444  3
   1504   1500   1507   1509     1  0.0000000  0.6508444  3
   1504   1516   1522   1523     1  0.0000000  0.6508444  3
   1504   1516   1522   1524     1  0.0000000  0.6508444  3
   1505   1504   1500   1507     1  0.0000000  0.6508444  3
   1505   1504   1500   1529     1  0.0000000  0.6508444  3
   1505   1504   1516   1522     1  0.0000000  0.6508444  3
   1505   1504   1516   1517     1  0.0000000  0.6508444  3
   1505   1504   1516   1518     1  0.0000000  0.6508444  3
   1506   1504   1500   1507     1  0.0000000  0.6508444  3
   1506   1504   1500   1529     1  0.0000000  0.6508444  3
   1506   1504   1516   1522     1  0.0000000  0.6508444  3
   1506   1504   1516   1517     1  0.0000000  0.6508444  3
   1506   1504   1516   1518     1  0.0000000  0.6508444  3
   1507   1510   1519   1520     1  0.0000000  0.6508444  3
   1507   1510   1519   1521     1  0.0000000  0.6508444  3
   1508   1507   1500   1529     1  0.0000000  0.6508444  3
   1508   1507   1510   1519     1  0.0000000  0.6508444  3
   1508   1507   1510   1511     1  0.0000000  0.6508444  3
   1508   1507   1510   1512     1  0.0000000  0.6508444  3
   1509   1507   1500   1529     1  0.0000000  0.6508444  3
   1509   1507   1510   1519     1  0.0000000  0.6508444  3
   1509   1507   1510   1511     1  0.0000000  0.6508444  3
   1509   1507   1510   1512     1  0.0000000  0.6508444  3
   1510   1507   1500   1529     1  0.0000000  0.6508444  3
   1511   1510   1519   1528     1  0.0000000  1.0460000  1
   1511   1510   1519   1528     1  0.0000000  0.0000000  3
   1511   1510   1519   1520     1  0.0000000  0.6508444  3
   1511   1510   1519   1521     1  0.0000000  0.6508444  3
   1512   1510   1519   1528     1  0.0000000  1.0460000  1
   1512   1510   1519   1528     1  0.0000000  0.0000000  3
   1512   1510   1519   1520     1  0.0000000  0.6508444  3
   1512   1510   1519   1521     1  0.0000000  0.6508444  3
   1513   1501   1500   1529     1  0.0000000  0.6508444  3
   1514   1513   1525   3037     1  0.0000000  1.0460000  1
   1514   1513   1525   3037     1  0.0000000  0.0000000  3
   1514   1513   1525   1526     1  0.0000000  0.6508444  3
   1514   1513   1525   1527     1  0.0000000  0.6508444  3
   1515   1513   1525   3037     1  0.0000000  1.0460000  1
   1515   1513   1525   3037     1  0.0000000  0.0000000  3
   1515   1513   1525   1526     1  0.0000000  0.6508444  3
   1515   1513   1525   1527     1  0.0000000  0.6508444  3
   1516   1504   1500   1529     1  0.0000000  0.6508444  3
   1517   1516   1522   3014     1  0.0000000  1.0460000  1
   1517   1516   1522   3014     1  0.0000000  0.0000000  3
   1517   1516   1522   1523     1  0.0000000  0.6508444  3
   1517   1516   1522   1524     1  0.0000000  0.6508444  3
   1518   1516   1522   3014     1  0.0000000  1.0460000  1
   1518   1516   1522   3014     1  0.0000000  0.0000000  3
   1518   1516   1522   1523     1  0.0000000  0.6508444  3
   1518   1516   1522   1524     1  0.0000000  0.6508444  3
   1522   3014   3010   3013     1  0.0000000  1.6038667  3
   1523   1522   3014   3010     1  0.0000000  1.6038667  3
   1524   1522   3014   3010     1  0.0000000  1.6038667  3
   1525   3037   3033   3036     1  0.0000000  1.6038667  3
   1526   1525   3037   3033     1  0.0000000  1.6038667  3
   1527   1525   3037   3033     1  0.0000000  1.6038667  3
   1530   1531   1543   1544     1  0.0000000  0.6508444  3
   1530   1531   1543   1545     1  0.0000000  0.6508444  3
   1530   1534   1546   1547     1  0.0000000  0.6508444  3
   1530   1534   1546   1548     1  0.0000000  0.6508444  3
   1530   1537   1540   1541     1  0.0000000  0.6508444  3
   1530   1537   1540   1542     1  0.0000000  0.6508444  3
   1531   1530   1534   1535     1  0.0000000  0.6508444  3
   1531   1530   1534   1536     1  0.0000000  0.6508444  3
   1531   1530   1537   1538     1  0.0000000  0.6508444  3
   1531   1530   1537   1539     1  0.0000000  0.6508444  3
   1531   1543   1555   1556     1  0.0000000  0.6508444  3
   1531   1543   1555   1557     1  0.0000000  0.6508444  3
   1532   1531   1530   1534     1  0.0000000  0.6508444  3
   1532   1531   1530   1537     1  0.0000000  0.6508444  3
   1532   1531   1530   1559     1  0.0000000  0.6508444  3
   1532   1531   1543   1555     1  0.0000000  0.6508444  3
   1532   1531   1543   1544     1  0.0000000  0.6508444  3
   1532   1531   1543   1545     1  0.0000000  0.6508444  3
   1533   1531   1530   1534     1  0.0000000  0.6508444  3
   1533   1531   1530   1537     1  0.0000000  0.6508444  3
   1533   1531   1530   1559     1  0.0000000  0.6508444  3
   1533   1531   1543   1555     1  0.0000000  0.6508444  3
   1533   1531   1543   1544     1  0.0000000  0.6508444  3
   1533   1531   1543   1545     1  0.0000000  0.6508444  3
   1534   1530   1537   1538     1  0.0000000  0.6508444  3
   1534   1530   1537   1539     1  0.0000000  0.6508444  3
   1534   1546   1552   1553     1  0.0000000  0.6508444  3
   1534   1546   1552   1554     1  0.0000000  0.6508444  3
   1535   1534   1530   1537     1  0.0000000  0.6508444  3
   1535   1534   1530   1559     1  0.0000000  0.6508444  3
   1535   1534   1546   1552     1  0.0000000  0.6508444  3
   1535   1534   1546   1547     1  0.0000000  0.6508444  3
   1535   1534   1546   1548     1  0.0000000  0.6508444  3
   1536   1534   1530   1537     1  0.0000000  0.6508444  3
   1536   1534   1530   1559     1  0.0000000  0.6508444  3
   1536   1534   1546   1552     1  0.0000000  0.6508444  3
   1536   1534   1546   1547     1  0.0000000  0.6508444  3
   1536   1534   1546   1548     1  0.0000000  0.6508444  3
   1537   1540   1549   1550     1  0.0000000  0.6508444  3
   1537   1540   1549   1551     1  0.0000000  0.6508444  3
   1538   1537   1530   1559     1  0.0000000  0.6508444  3
   1538   1537   1540   1549     1  0.0000000  0.6508444  3
   1538   1537   1540   1541     1  0.0000000  0.6508444  3
   1538   1537   1540   1542     1  0.0000000  0.6508444  3
   1539   1537   1530   1559     1  0.0000000  0.6508444  3
   1539   1537   1540   1549     1  0.0000000  0.6508444  3
   1539   1537   1540   1541     1  0.0000000  0.6508444  3
   1539   1537   1540   1542     1  0.0000000  0.6508444  3
   1540   1537   1530   1559     1  0.0000000  0.6508444  3
   1541   1540   1549   1558     1  0.0000000  1.0460000  1
   1541   1540   1549   1558     1  0.0000000  0.0000000  3
   1541   1540   1549   1550     1  0.0000000  0.6508444  3
   1541   1540   1549   1551     1  0.0000000  0.6508444  3
   1542   1540   1549   1558     1  0.0000000  1.0460000  1
   1542   1540   1549   1558     1  0.0000000  0.0000000  3
   1542   1540   1549   1550     1  0.0000000  0.6508444  3
   1542   1540   1549   1551     1  0.0000000  0.6508444  3
   1543   1531   1530   1559     1  0.0000000  0.6508444  3
   1544   1543   1555   3083     1  0.0000000  1.0460000  1
   1544   1543   1555   3083     1  0.0000000  0.0000000  3
   1544   1543   1555   1556     1  0.0000000  0.6508444  3
   1544   1543   1555   1557     1  0.0000000  0.6508444  3
   1545   1543   1555   3083     1  0.0000000  1.0460000  1
   1545   1543   1555   3083     1  0.0000000  0.0000000  3
   1545   1543   1555   1556     1  0.0000000  0.6508444  3
   1545   1543   1555   1557     1  0.0000000  0.6508444  3
   1546   1534   1530   1559     1  0.0000000  0.6508444  3
   1547   1546   1552   3060     1  0.0000000  1.0460000  1
   1547   1546   1552   3060     1  0.0000000  0.0000000  3
   1547   1546   1552   1553     1  0.0000000  0.6508444  3
   1547   1546   1552   1554     1  0.0000000  0.6508444  3
   1548   1546   1552   3060     1  0.0000000  1.0460000  1
   1548   1546   1552   3060     1  0.0000000  0.0000000  3
   1548   1546   1552   1553     1  0.0000000  0.6508444  3
   1548   1546   1552   1554     1  0.0000000  0.6508444  3
   1552   3060   3056   3059     1  0.0000000  1.6038667  3
   1553   1552   3060   3056     1  0.0000000  1.6038667  3
   1554   1552   3060   3056     1  0.0000000  1.6038667  3
   1555   3083   3079   3082     1  0.0000000  1.6038667  3
   1556   1555   3083   3079     1  0.0000000  1.6038667  3
   1557   1555   3083   3079     1  0.0000000  1.6038667  3
   1560   1561   1573   1574     1  0.0000000  0.6508444  3
   1560   1561   1573   1575     1  0.0000000  0.6508444  3
   1560   1564   1576   1577     1  0.0000000  0.6508444  3
   1560   1564   1576   1578     1  0.0000000  0.6508444  3
   1560   1567   1570   1571     1  0.0000000  0.6508444  3
   1560   1567   1570   1572     1  0.0000000  0.6508444  3
   1561   1560   1564   1565     1  0.0000000  0.6508444  3
   1561   1560   1564   1566     1  0.0000000  0.6508444  3
   1561   1560   1567   1568     1  0.0000000  0.6508444  3
   1561   1560   1567   1569     1  0.0000000  0.6508444  3
   1561   1573   1585   1586     1  0.0000000  0.6508444  3
   1561   1573   1585   1587     1  0.0000000  0.6508444  3
   1562   1561   1560   1564     1  0.0000000  0.6508444  3
   1562   1561   1560   1567     1  0.0000000  0.6508444  3
   1562   1561   1560   1589     1  0.0000000  0.6508444  3
   1562   1561   1573   1585     1  0.0000000  0.6508444  3
   1562   1561   1573   1574     1  0.0000000  0.6508444  3
   1562   1561   1573   1575     1  0.0000000  0.6508444  3
   1563   1561   1560   1564     1  0.0000000  0.6508444  3
   1563   1561   1560   1567     1  0.0000000  0.6508444  3
   1563   1561   1560   1589     1  0.0000000  0.6508444  3
   1563   1561   1573   1585     1  0.0000000  0.6508444  3
   1563   1561   1573   1574     1  0.0000000  0.6508444  3
   1563   1561   1573   1575     1  0.0000000  0.6508444  3
   1564   1560   1567   1568     1  0.0000000  0.6508444  3
   1564   1560   1567   1569     1  0.0000000  0.6508444  3
   1564   1576   1582   1583     1  0.0000000  0.6508444  3
   1564   1576   1582   1584     1  0.0000000  0.6508444  3
   1565   1564   1560   1567     1  0.0000000  0.6508444  3
   1565   1564   1560   1589     1  0.0000000  0.6508444  3
   1565   1564   1576   1582     1  0.0000000  0.6508444  3
   1565   1564   1576   1577     1  0.0000000  0.6508444  3
   1565   1564   1576   1578     1  0.0000000  0.6508444  3
   1566   1564   1560   1567     1  0.0000000  0.6508444  3
   1566   1564   1560   1589     1  0.0000000  0.6508444  3
   1566   1564   1576   1582     1  0.0000000  0.6508444  3
   1566   1564   1576   1577     1  0.0000000  0.6508444  3
   1566   1564   1576   1578     1  0.0000000  0.6508444  3
   1567   1570   1579   1580     1  0.0000000  0.6508444  3
   1567   1570   1579   1581     1  0.0000000  0.6508444  3
   1568   1567   1560   1589     1  0.0000000  0.6508444  3
   1568   1567   1570   1579     1  0.0000000  0.6508444  3
   1568   1567   1570   1571     1  0.0000000  0.6508444  3
   1568   1567   1570   1572     1  0.0000000  0.6508444  3
   1569   1567   1560   1589     1  0.0000000  0.6508444  3
   1569   1567   1570   1579     1  0.0000000  0.6508444  3
   1569   1567   1570   1571     1  0.0000000  0.6508444  3
   1569   1567   1570   1572     1  0.0000000  0.6508444  3
   1570   1567   1560   1589     1  0.0000000  0.6508444  3
   1571   1570   1579   1588     1  0.0000000  1.0460000  1
   1571   1570   1579   1588     1  0.0000000  0.0000000  3
   1571   1570   1579   1580     1  0.0000000  0.6508444  3
   1571   1570   1579   1581     1  0.0000000  0.6508444  3
   1572   1570   1579   1588     1  0.0000000  1.0460000  1
   1572   1570   1579   1588     1  0.0000000  0.0000000  3
   1572   1570   1579   1580     1  0.0000000  0.6508444  3
   1572   1570   1579   1581     1  0.0000000  0.6508444  3
   1573   1561   1560   1589     1  0.0000000  0.6508444  3
   1574   1573   1585   3129     1  0.0000000  1.0460000  1
   1574   1573   1585   3129     1  0.0000000  0.0000000  3
   1574   1573   1585   1586     1  0.0000000  0.6508444  3
   1574   1573   1585   1587     1  0.0000000  0.6508444  3
   1575   1573   1585   3129     1  0.0000000  1.0460000  1
   1575   1573   1585   3129     1  0.0000000  0.0000000  3
   1575   1573   1585   1586     1  0.0000000  0.6508444  3
   1575   1573   1585   1587     1  0.0000000  0.6508444  3
   1576   1564   1560   1589     1  0.0000000  0.6508444  3
   1577   1576   1582   3106     1  0.0000000  1.0460000  1
   1577   1576   1582   3106     1  0.0000000  0.0000000  3
   1577   1576   1582   1583     1  0.0000000  0.6508444  3
   1577   1576   1582   1584     1  0.0000000  0.6508444  3
   1578   1576   1582   3106     1  0.0000000  1.0460000  1
   1578   1576   1582   3106     1  0.0000000  0.0000000  3
   1578   1576   1582   1583     1  0.0000000  0.6508444  3
   1578   1576   1582   1584     1  0.0000000  0.6508444  3
   1582   3106   3102   3105     1  0.0000000  1.6038667  3
   1583   1582   3106   3102     1  0.0000000  1.6038667  3
   1584   1582   3106   3102     1  0.0000000  1.6038667  3
   1585   3129   3125   3128     1  0.0000000  1.6038667  3
   1586   1585   3129   3125     1  0.0000000  1.6038667  3
   1587   1585   3129   3125     1  0.0000000  1.6038667  3
   1590   1591   1603   1604     1  0.0000000  0.6508444  3
   1590   1591   1603   1605     1  0.0000000  0.6508444  3
   1590   1594   1606   1607     1  0.0000000  0.6508444  3
   1590   1594   1606   1608     1  0.0000000  0.6508444  3
   1590   1597   1600   1601     1  0.0000000  0.6508444  3
   1590   1597   1600   1602     1  0.0000000  0.6508444  3
   1591   1590   1594   1595     1  0.0000000  0.6508444  3
   1591   1590   1594   1596     1  0.0000000  0.6508444  3
   1591   1590   1597   1598     1  0.0000000  0.6508444  3
   1591   1590   1597   1599     1  0.0000000  0.6508444  3
   1591   1603   1615   1616     1  0.0000000  0.6508444  3
   1591   1603   1615   1617     1  0.0000000  0.6508444  3
   1592   1591   1590   1594     1  0.0000000  0.6508444  3
   1592   1591   1590   1597     1  0.0000000  0.6508444  3
   1592   1591   1590   1619     1  0.0000000  0.6508444  3
   1592   1591   1603   1615     1  0.0000000  0.6508444  3
   1592   1591   1603   1604     1  0.0000000  0.6508444  3
   1592   1591   1603   1605     1  0.0000000  0.6508444  3
   1593   1591   1590   1594     1  0.0000000  0.6508444  3
   1593   1591   1590   1597     1  0.0000000  0.6508444  3
   1593   1591   1590   1619     1  0.0000000  0.6508444  3
   1593   1591   1603   1615     1  0.0000000  0.6508444  3
   1593   1591   1603   1604     1  0.0000000  0.6508444  3
   1593   1591   1603   1605     1  0.0000000  0.6508444  3
   1594   1590   1597   1598     1  0.0000000  0.6508444  3
   1594   1590   1597   1599     1  0.0000000  0.6508444  3
   1594   1606   1612   1613     1  0.0000000  0.6508444  3
   1594   1606   1612   1614     1  0.0000000  0.6508444  3
   1595   1594   1590   1597     1  0.0000000  0.6508444  3
   1595   1594   1590   1619     1  0.0000000  0.6508444  3
   1595   1594   1606   1612     1  0.0000000  0.6508444  3
   1595   1594   1606   1607     1  0.0000000  0.6508444  3
   1595   1594   1606   1608     1  0.0000000  0.6508444  3
   1596   1594   1590   1597     1  0.0000000  0.6508444  3
   1596   1594   1590   1619     1  0.0000000  0.6508444  3
   1596   1594   1606   1612     1  0.0000000  0.6508444  3
   1596   1594   1606   1607     1  0.0000000  0.6508444  3
   1596   1594   1606   1608     1  0.0000000  0.6508444  3
   1597   1600   1609   1610     1  0.0000000  0.6508444  3
   1597   1600   1609   1611     1  0.0000000  0.6508444  3
   1598   1597   1590   1619     1  0.0000000  0.6508444  3
   1598   1597   1600   1609     1  0.0000000  0.6508444  3
   1598   1597   1600   1601     1  0.0000000  0.6508444  3
   1598   1597   1600   1602     1  0.0000000  0.6508444  3
   1599   1597   1590   1619     1  0.0000000  0.6508444  3
   1599   1597   1600   1609     1  0.0000000  0.6508444  3
   1599   1597   1600   1601     1  0.0000000  0.6508444  3
   1599   1597   1600   1602     1  0.0000000  0.6508444  3
   1600   1597   1590   1619     1  0.0000000  0.6508444  3
   1601   1600   1609   1618     1  0.0000000  1.0460000  1
   1601   1600   1609   1618     1  0.0000000  0.0000000  3
   1601   1600   1609   1610     1  0.0000000  0.6508444  3
   1601   1600   1609   1611     1  0.0000000  0.6508444  3
   1602   1600   1609   1618     1  0.0000000  1.0460000  1
   1602   1600   1609   1618     1  0.0000000  0.0000000  3
   1602   1600   1609   1610     1  0.0000000  0.6508444  3
   1602   1600   1609   1611     1  0.0000000  0.6508444  3
   1603   1591   1590   1619     1  0.0000000  0.6508444  3
   1604   1603   1615   3175     1  0.0000000  1.0460000  1
   1604   1603   1615   3175     1  0.0000000  0.0000000  3
   1604   1603   1615   1616     1  0.0000000  0.6508444  3
   1604   1603   1615   1617     1  0.0000000  0.6508444  3
   1605   1603   1615   3175     1  0.0000000  1.0460000  1
   1605   1603   1615   3175     1  0.0000000  0.0000000  3
   1605   1603   1615   1616     1  0.0000000  0.6508444  3
   1605   1603   1615   1617     1  0.0000000  0.6508444  3
   1606   1594   1590   1619     1  0.0000000  0.6508444  3
   1607   1606   1612   3152     1  0.0000000  1.0460000  1
   1607   1606   1612   3152     1  0.0000000  0.0000000  3
   1607   1606   1612   1613     1  0.0000000  0.6508444  3
   1607   1606   1612   1614     1  0.0000000  0.6508444  3
   1608   1606   1612   3152     1  0.0000000  1.0460000  1
   1608   1606   1612   3152     1  0.0000000  0.0000000  3
   1608   1606   1612   1613     1  0.0000000  0.6508444  3
   1608   1606   1612   1614     1  0.0000000  0.6508444  3
   1612   3152   3148   3151     1  0.0000000  1.6038667  3
   1613   1612   3152   3148     1  0.0000000  1.6038667  3
   1614   1612   3152   3148     1  0.0000000  1.6038667  3
   1615   3175   3171   3174     1  0.0000000  1.6038667  3
   1616   1615   3175   3171     1  0.0000000  1.6038667  3
   1617   1615   3175   3171     1  0.0000000  1.6038667  3
   1620   1621   1633   1634     1  0.0000000  0.6508444  3
   1620   1621   1633   1635     1  0.0000000  0.6508444  3
   1620   1624   1636   1637     1  0.0000000  0.6508444  3
   1620   1624   1636   1638     1  0.0000000  0.6508444  3
   1620   1627   1630   1631     1  0.0000000  0.6508444  3
   1620   1627   1630   1632     1  0.0000000  0.6508444  3
   1621   1620   1624   1625     1  0.0000000  0.6508444  3
   1621   1620   1624   1626     1  0.0000000  0.6508444  3
   1621   1620   1627   1628     1  0.0000000  0.6508444  3
   1621   1620   1627   1629     1  0.0000000  0.6508444  3
   1621   1633   1645   1646     1  0.0000000  0.6508444  3
   1621   1633   1645   1647     1  0.0000000  0.6508444  3
   1622   1621   1620   1624     1  0.0000000  0.6508444  3
   1622   1621   1620   1627     1  0.0000000  0.6508444  3
   1622   1621   1620   1649     1  0.0000000  0.6508444  3
   1622   1621   1633   1645     1  0.0000000  0.6508444  3
   1622   1621   1633   1634     1  0.0000000  0.6508444  3
   1622   1621   1633   1635     1  0.0000000  0.6508444  3
   1623   1621   1620   1624     1  0.0000000  0.6508444  3
   1623   1621   1620   1627     1  0.0000000  0.6508444  3
   1623   1621   1620   1649     1  0.0000000  0.6508444  3
   1623   1621   1633   1645     1  0.0000000  0.6508444  3
   1623   1621   1633   1634     1  0.0000000  0.6508444  3
   1623   1621   1633   1635     1  0.0000000  0.6508444  3
   1624   1620   1627   1628     1  0.0000000  0.6508444  3
   1624   1620   1627   1629     1  0.0000000  0.6508444  3
   1624   1636   1642   1643     1  0.0000000  0.6508444  3
   1624   1636   1642   1644     1  0.0000000  0.6508444  3
   1625   1624   1620   1627     1  0.0000000  0.6508444  3
   1625   1624   1620   1649     1  0.0000000  0.6508444  3
   1625   1624   1636   1642     1  0.0000000  0.6508444  3
   1625   1624   1636   1637     1  0.0000000  0.6508444  3
   1625   1624   1636   1638     1  0.0000000  0.6508444  3
   1626   1624   1620   1627     1  0.0000000  0.6508444  3
   1626   1624   1620   1649     1  0.0000000  0.6508444  3
   1626   1624   1636   1642     1  0.0000000  0.6508444  3
   1626   1624   1636   1637     1  0.0000000  0.6508444  3
   1626   1624   1636   1638     1  0.0000000  0.6508444  3
   1627   1630   1639   1640     1  0.0000000  0.6508444  3
   1627   1630   1639   1641     1  0.0000000  0.6508444  3
   1628   1627   1620   1649     1  0.0000000  0.6508444  3
   1628   1627   1630   1639     1  0.0000000  0.6508444  3
   1628   1627   1630   1631     1  0.0000000  0.6508444  3
   1628   1627   1630   1632     1  0.0000000  0.6508444  3
   1629   1627   1620   1649     1  0.0000000  0.6508444  3
   1629   1627   1630   1639     1  0.0000000  0.6508444  3
   1629   1627   1630   1631     1  0.0000000  0.6508444  3
   1629   1627   1630   1632     1  0.0000000  0.6508444  3
   1630   1627   1620   1649     1  0.0000000  0.6508444  3
   1631   1630   1639   1648     1  0.0000000  1.0460000  1
   1631   1630   1639   1648     1  0.0000000  0.0000000  3
   1631   1630   1639   1640     1  0.0000000  0.6508444  3
   1631   1630   1639   1641     1  0.0000000  0.6508444  3
   1632   1630   1639   1648     1  0.0000000  1.0460000  1
   1632   1630   1639   1648     1  0.0000000  0.0000000  3
   1632   1630   1639   1640     1  0.0000000  0.6508444  3
   1632   1630   1639   1641     1  0.0000000  0.6508444  3
   1633   1621   1620   1649     1  0.0000000  0.6508444  3
   1634   1633   1645   3221     1  0.0000000  1.0460000  1
   1634   1633   1645   3221     1  0.0000000  0.0000000  3
   1634   1633   1645   1646     1  0.0000000  0.6508444  3
   1634   1633   1645   1647     1  0.0000000  0.6508444  3
   1635   1633   1645   3221     1  0.0000000  1.0460000  1
   1635   1633   1645   3221     1  0.0000000  0.0000000  3
   1635   1633   1645   1646     1  0.0000000  0.6508444  3
   1635   1633   1645   1647     1  0.0000000  0.6508444  3
   1636   1624   1620   1649     1  0.0000000  0.6508444  3
   1637   1636   1642   3198     1  0.0000000  1.0460000  1
   1637   1636   1642   3198     1  0.0000000  0.0000000  3
   1637   1636   1642   1643     1  0.0000000  0.6508444  3
   1637   1636   1642   1644     1  0.0000000  0.6508444  3
   1638   1636   1642   3198     1  0.0000000  1.0460000  1
   1638   1636   1642   3198     1  0.0000000  0.0000000  3
   1638   1636   1642   1643     1  0.0000000  0.6508444  3
   1638   1636   1642   1644     1  0.0000000  0.6508444  3
   1642   3198   3194   3197     1  0.0000000  1.6038667  3
   1643   1642   3198   3194     1  0.0000000  1.6038667  3
   1644   1642   3198   3194     1  0.0000000  1.6038667  3
   1645   3221   3217   3220     1  0.0000000  1.6038667  3
   1646   1645   3221   3217     1  0.0000000  1.6038667  3
   1647   1645   3221   3217     1  0.0000000  1.6038667  3
   1650   1651   1663   1664     1  0.0000000  0.6508444  3
   1650   1651   1663   1665     1  0.0000000  0.6508444  3
   1650   1654   1666   1667     1  0.0000000  0.6508444  3
   1650   1654   1666   1668     1  0.0000000  0.6508444  3
   1650   1657   1660   1661     1  0.0000000  0.6508444  3
   1650   1657   1660   1662     1  0.0000000  0.6508444  3
   1651   1650   1654   1655     1  0.0000000  0.6508444  3
   1651   1650   1654   1656     1  0.0000000  0.6508444  3
   1651   1650   1657   1658     1  0.0000000  0.6508444  3
   1651   1650   1657   1659     1  0.0000000  0.6508444  3
   1651   1663   1675   1676     1  0.0000000  0.6508444  3
   1651   1663   1675   1677     1  0.0000000  0.6508444  3
   1652   1651   1650   1654     1  0.0000000  0.6508444  3
   1652   1651   1650   1657     1  0.0000000  0.6508444  3
   1652   1651   1650   1679     1  0.0000000  0.6508444  3
   1652   1651   1663   1675     1  0.0000000  0.6508444  3
   1652   1651   1663   1664     1  0.0000000  0.6508444  3
   1652   1651   1663   1665     1  0.0000000  0.6508444  3
   1653   1651   1650   1654     1  0.0000000  0.6508444  3
   1653   1651   1650   1657     1  0.0000000  0.6508444  3
   1653   1651   1650   1679     1  0.0000000  0.6508444  3
   1653   1651   1663   1675     1  0.0000000  0.6508444  3
   1653   1651   1663   1664     1  0.0000000  0.6508444  3
   1653   1651   1663   1665     1  0.0000000  0.6508444  3
   1654   1650   1657   1658     1  0.0000000  0.6508444  3
   1654   1650   1657   1659     1  0.0000000  0.6508444  3
   1654   1666   1672   1673     1  0.0000000  0.6508444  3
   1654   1666   1672   1674     1  0.0000000  0.6508444  3
   1655   1654   1650   1657     1  0.0000000  0.6508444  3
   1655   1654   1650   1679     1  0.0000000  0.6508444  3
   1655   1654   1666   1672     1  0.0000000  0.6508444  3
   1655   1654   1666   1667     1  0.0000000  0.6508444  3
   1655   1654   1666   1668     1  0.0000000  0.6508444  3
   1656   1654   1650   1657     1  0.0000000  0.6508444  3
   1656   1654   1650   1679     1  0.0000000  0.6508444  3
   1656   1654   1666   1672     1  0.0000000  0.6508444  3
   1656   1654   1666   1667     1  0.0000000  0.6508444  3
   1656   1654   1666   1668     1  0.0000000  0.6508444  3
   1657   1660   1669   1670     1  0.0000000  0.6508444  3
   1657   1660   1669   1671     1  0.0000000  0.6508444  3
   1658   1657   1650   1679     1  0.0000000  0.6508444  3
   1658   1657   1660   1669     1  0.0000000  0.6508444  3
   1658   1657   1660   1661     1  0.0000000  0.6508444  3
   1658   1657   1660   1662     1  0.0000000  0.6508444  3
   1659   1657   1650   1679     1  0.0000000  0.6508444  3
   1659   1657   1660   1669     1  0.0000000  0.6508444  3
   1659   1657   1660   1661     1  0.0000000  0.6508444  3
   1659   1657   1660   1662     1  0.0000000  0.6508444  3
   1660   1657   1650   1679     1  0.0000000  0.6508444  3
   1661   1660   1669   1678     1  0.0000000  1.0460000  1
   1661   1660   1669   1678     1  0.0000000  0.0000000  3
   1661   1660   1669   1670     1  0.0000000  0.6508444  3
   1661   1660   1669   1671     1  0.0000000  0.6508444  3
   1662   1660   1669   1678     1  0.0000000  1.0460000  1
   1662   1660   1669   1678     1  0.0000000  0.0000000  3
   1662   1660   1669   1670     1  0.0000000  0.6508444  3
   1662   1660   1669   1671     1  0.0000000  0.6508444  3
   1663   1651   1650   1679     1  0.0000000  0.6508444  3
   1664   1663   1675   3267     1  0.0000000  1.0460000  1
   1664   1663   1675   3267     1  0.0000000  0.0000000  3
   1664   1663   1675   1676     1  0.0000000  0.6508444  3
   1664   1663   1675   1677     1  0.0000000  0.6508444  3
   1665   1663   1675   3267     1  0.0000000  1.0460000  1
   1665   1663   1675   3267     1  0.0000000  0.0000000  3
   1665   1663   1675   1676     1  0.0000000  0.6508444  3
   1665   1663   1675   1677     1  0.0000000  0.6508444  3
   1666   1654   1650   1679     1  0.0000000  0.6508444  3
   1667   1666   1672   3244     1  0.0000000  1.0460000  1
   1667   1666   1672   3244     1  0.0000000  0.0000000  3
   1667   1666   1672   1673     1  0.0000000  0.6508444  3
   1667   1666   1672   1674     1  0.0000000  0.6508444  3
   1668   1666   1672   3244     1  0.0000000  1.0460000  1
   1668   1666   1672   3244     1  0.0000000  0.0000000  3
   1668   1666   1672   1673     1  0.0000000  0.6508444  3
   1668   1666   1672   1674     1  0.0000000  0.6508444  3
   1672   3244   3240   3243     1  0.0000000  1.6038667  3
   1673   1672   3244   3240     1  0.0000000  1.6038667  3
   1674   1672   3244   3240     1  0.0000000  1.6038667  3
   1675   3267   3263   3266     1  0.0000000  1.6038667  3
   1676   1675   3267   3263     1  0.0000000  1.6038667  3
   1677   1675   3267   3263     1  0.0000000  1.6038667  3
   1680   1681   1693   1694     1  0.0000000  0.6508444  3
   1680   1681   1693   1695     1  0.0000000  0.6508444  3
   1680   1684   1696   1697     1  0.0000000  0.6508444  3
   1680   1684   1696   1698     1  0.0000000  0.6508444  3
   1680   1687   1690   1691     1  0.0000000  0.6508444  3
   1680   1687   1690   1692     1  0.0000000  0.6508444  3
   1681   1680   1684   1685     1  0.0000000  0.6508444  3
   1681   1680   1684   1686     1  0.0000000  0.6508444  3
   1681   1680   1687   1688     1  0.0000000  0.6508444  3
   1681   1680   1687   1689     1  0.0000000  0.6508444  3
   1681   1693   1705   1706     1  0.0000000  0.6508444  3
   1681   1693   1705   1707     1  0.0000000  0.6508444  3
   1682   1681   1680   1684     1  0.0000000  0.6508444  3
   1682   1681   1680   1687     1  0.0000000  0.6508444  3
   1682   1681   1680   1709     1  0.0000000  0.6508444  3
   1682   1681   1693   1705     1  0.0000000  0.6508444  3
   1682   1681   1693   1694     1  0.0000000  0.6508444  3
   1682   1681   1693   1695     1  0.0000000  0.6508444  3
   1683   1681   1680   1684     1  0.0000000  0.6508444  3
   1683   1681   1680   1687     1  0.0000000  0.6508444  3
   1683   1681   1680   1709     1  0.0000000  0.6508444  3
   1683   1681   1693   1705     1  0.0000000  0.6508444  3
   1683   1681   1693   1694     1  0.0000000  0.6508444  3
   1683   1681   1693   1695     1  0.0000000  0.6508444  3
   1684   1680   1687   1688     1  0.0000000  0.6508444  3
   1684   1680   1687   1689     1  0.0000000  0.6508444  3
   1684   1696   1702   1703     1  0.0000000  0.6508444  3
   1684   1696   1702   1704     1  0.0000000  0.6508444  3
   1685   1684   1680   1687     1  0.0000000  0.6508444  3
   1685   1684   1680   1709     1  0.0000000  0.6508444  3
   1685   1684   1696   1702     1  0.0000000  0.6508444  3
   1685   1684   1696   1697     1  0.0000000  0.6508444  3
   1685   1684   1696   1698     1  0.0000000  0.6508444  3
   1686   1684   1680   1687     1  0.0000000  0.6508444  3
   1686   1684   1680   1709     1  0.0000000  0.6508444  3
   1686   1684   1696   1702     1  0.0000000  0.6508444  3
   1686   1684   1696   1697     1  0.0000000  0.6508444  3
   1686   1684   1696   1698     1  0.0000000  0.6508444  3
   1687   1690   1699   1700     1  0.0000000  0.6508444  3
   1687   1690   1699   1701     1  0.0000000  0.6508444  3
   1688   1687   1680   1709     1  0.0000000  0.6508444  3
   1688   1687   1690   1699     1  0.0000000  0.6508444  3
   1688   1687   1690   1691     1  0.0000000  0.6508444  3
   1688   1687   1690   1692     1  0.0000000  0.6508444  3
   1689   1687   1680   1709     1  0.0000000  0.6508444  3
   1689   1687   1690   1699     1  0.0000000  0.6508444  3
   1689   1687   1690   1691     1  0.0000000  0.6508444  3
   1689   1687   1690   1692     1  0.0000000  0.6508444  3
   1690   1687   1680   1709     1  0.0000000  0.6508444  3
   1691   1690   1699   1708     1  0.0000000  1.0460000  1
   1691   1690   1699   1708     1  0.0000000  0.0000000  3
   1691   1690   1699   1700     1  0.0000000  0.6508444  3
   1691   1690   1699   1701     1  0.0000000  0.6508444  3
   1692   1690   1699   1708     1  0.0000000  1.0460000  1
   1692   1690   1699   1708     1  0.0000000  0.0000000  3
   1692   1690   1699   1700     1  0.0000000  0.6508444  3
   1692   1690   1699   1701     1  0.0000000  0.6508444  3
   1693   1681   1680   1709     1  0.0000000  0.6508444  3
   1694   1693   1705   3313     1  0.0000000  1.0460000  1
   1694   1693   1705   3313     1  0.0000000  0.0000000  3
   1694   1693   1705   1706     1  0.0000000  0.6508444  3
   1694   1693   1705   1707     1  0.0000000  0.6508444  3
   1695   1693   1705   3313     1  0.0000000  1.0460000  1
   1695   1693   1705   3313     1  0.0000000  0.0000000  3
   1695   1693   1705   1706     1  0.0000000  0.6508444  3
   1695   1693   1705   1707     1  0.0000000  0.6508444  3
   1696   1684   1680   1709     1  0.0000000  0.6508444  3
   1697   1696   1702   3290     1  0.0000000  1.0460000  1
   1697   1696   1702   3290     1  0.0000000  0.0000000  3
   1697   1696   1702   1703     1  0.0000000  0.6508444  3
   1697   1696   1702   1704     1  0.0000000  0.6508444  3
   1698   1696   1702   3290     1  0.0000000  1.0460000  1
   1698   1696   1702   3290     1  0.0000000  0.0000000  3
   1698   1696   1702   1703     1  0.0000000  0.6508444  3
   1698   1696   1702   1704     1  0.0000000  0.6508444  3
   1702   3290   3286   3289     1  0.0000000  1.6038667  3
   1703   1702   3290   3286     1  0.0000000  1.6038667  3
   1704   1702   3290   3286     1  0.0000000  1.6038667  3
   1705   3313   3309   3312     1  0.0000000  1.6038667  3
   1706   1705   3313   3309     1  0.0000000  1.6038667  3
   1707   1705   3313   3309     1  0.0000000  1.6038667  3
   1710   1711   1723   1724     1  0.0000000  0.6508444  3
   1710   1711   1723   1725     1  0.0000000  0.6508444  3
   1710   1714   1726   1727     1  0.0000000  0.6508444  3
   1710   1714   1726   1728     1  0.0000000  0.6508444  3
   1710   1717   1720   1721     1  0.0000000  0.6508444  3
   1710   1717   1720   1722     1  0.0000000  0.6508444  3
   1711   1710   1714   1715     1  0.0000000  0.6508444  3
   1711   1710   1714   1716     1  0.0000000  0.6508444  3
   1711   1710   1717   1718     1  0.0000000  0.6508444  3
   1711   1710   1717   1719     1  0.0000000  0.6508444  3
   1711   1723   1735   1736     1  0.0000000  0.6508444  3
   1711   1723   1735   1737     1  0.0000000  0.6508444  3
   1712   1711   1710   1714     1  0.0000000  0.6508444  3
   1712   1711   1710   1717     1  0.0000000  0.6508444  3
   1712   1711   1710   1739     1  0.0000000  0.6508444  3
   1712   1711   1723   1735     1  0.0000000  0.6508444  3
   1712   1711   1723   1724     1  0.0000000  0.6508444  3
   1712   1711   1723   1725     1  0.0000000  0.6508444  3
   1713   1711   1710   1714     1  0.0000000  0.6508444  3
   1713   1711   1710   1717     1  0.0000000  0.6508444  3
   1713   1711   1710   1739     1  0.0000000  0.6508444  3
   1713   1711   1723   1735     1  0.0000000  0.6508444  3
   1713   1711   1723   1724     1  0.0000000  0.6508444  3
   1713   1711   1723   1725     1  0.0000000  0.6508444  3
   1714   1710   1717   1718     1  0.0000000  0.6508444  3
   1714   1710   1717   1719     1  0.0000000  0.6508444  3
   1714   1726   1732   1733     1  0.0000000  0.6508444  3
   1714   1726   1732   1734     1  0.0000000  0.6508444  3
   1715   1714   1710   1717     1  0.0000000  0.6508444  3
   1715   1714   1710   1739     1  0.0000000  0.6508444  3
   1715   1714   1726   1732     1  0.0000000  0.6508444  3
   1715   1714   1726   1727     1  0.0000000  0.6508444  3
   1715   1714   1726   1728     1  0.0000000  0.6508444  3
   1716   1714   1710   1717     1  0.0000000  0.6508444  3
   1716   1714   1710   1739     1  0.0000000  0.6508444  3
   1716   1714   1726   1732     1  0.0000000  0.6508444  3
   1716   1714   1726   1727     1  0.0000000  0.6508444  3
   1716   1714   1726   1728     1  0.0000000  0.6508444  3
   1717   1720   1729   1730     1  0.0000000  0.6508444  3
   1717   1720   1729   1731     1  0.0000000  0.6508444  3
   1718   1717   1710   1739     1  0.0000000  0.6508444  3
   1718   1717   1720   1729     1  0.0000000  0.6508444  3
   1718   1717   1720   1721     1  0.0000000  0.6508444  3
   1718   1717   1720   1722     1  0.0000000  0.6508444  3
   1719   1717   1710   1739     1  0.0000000  0.6508444  3
   1719   1717   1720   1729     1  0.0000000  0.6508444  3
   1719   1717   1720   1721     1  0.0000000  0.6508444  3
   1719   1717   1720   1722     1  0.0000000  0.6508444  3
   1720   1717   1710   1739     1  0.0000000  0.6508444  3
   1721   1720   1729   1738     1  0.0000000  1.0460000  1
   1721   1720   1729   1738     1  0.0000000  0.0000000  3
   1721   1720   1729   1730     1  0.0000000  0.6508444  3
   1721   1720   1729   1731     1  0.0000000  0.6508444  3
   1722   1720   1729   1738     1  0.0000000  1.0460000  1
   1722   1720   1729   1738     1  0.0000000  0.0000000  3
   1722   1720   1729   1730     1  0.0000000  0.6508444  3
   1722   1720   1729   1731     1  0.0000000  0.6508444  3
   1723   1711   1710   1739     1  0.0000000  0.6508444  3
   1724   1723   1735   3359     1  0.0000000  1.0460000  1
   1724   1723   1735   3359     1  0.0000000  0.0000000  3
   1724   1723   1735   1736     1  0.0000000  0.6508444  3
   1724   1723   1735   1737     1  0.0000000  0.6508444  3
   1725   1723   1735   3359     1  0.0000000  1.0460000  1
   1725   1723   1735   3359     1  0.0000000  0.0000000  3
   1725   1723   1735   1736     1  0.0000000  0.6508444  3
   1725   1723   1735   1737     1  0.0000000  0.6508444  3
   1726   1714   1710   1739     1  0.0000000  0.6508444  3
   1727   1726   1732   3336     1  0.0000000  1.0460000  1
   1727   1726   1732   3336     1  0.0000000  0.0000000  3
   1727   1726   1732   1733     1  0.0000000  0.6508444  3
   1727   1726   1732   1734     1  0.0000000  0.6508444  3
   1728   1726   1732   3336     1  0.0000000  1.0460000  1
   1728   1726   1732   3336     1  0.0000000  0.0000000  3
   1728   1726   1732   1733     1  0.0000000  0.6508444  3
   1728   1726   1732   1734     1  0.0000000  0.6508444  3
   1732   3336   3332   3335     1  0.0000000  1.6038667  3
   1733   1732   3336   3332     1  0.0000000  1.6038667  3
   1734   1732   3336   3332     1  0.0000000  1.6038667  3
   1735   3359   3355   3358     1  0.0000000  1.6038667  3
   1736   1735   3359   3355     1  0.0000000  1.6038667  3
   1737   1735   3359   3355     1  0.0000000  1.6038667  3
   1740   1741   1753   1754     1  0.0000000  0.6508444  3
   1740   1741   1753   1755     1  0.0000000  0.6508444  3
   1740   1744   1756   1757     1  0.0000000  0.6508444  3
   1740   1744   1756   1758     1  0.0000000  0.6508444  3
   1740   1747   1750   1751     1  0.0000000  0.6508444  3
   1740   1747   1750   1752     1  0.0000000  0.6508444  3
   1741   1740   1744   1745     1  0.0000000  0.6508444  3
   1741   1740   1744   1746     1  0.0000000  0.6508444  3
   1741   1740   1747   1748     1  0.0000000  0.6508444  3
   1741   1740   1747   1749     1  0.0000000  0.6508444  3
   1741   1753   1765   1766     1  0.0000000  0.6508444  3
   1741   1753   1765   1767     1  0.0000000  0.6508444  3
   1742   1741   1740   1744     1  0.0000000  0.6508444  3
   1742   1741   1740   1747     1  0.0000000  0.6508444  3
   1742   1741   1740   1769     1  0.0000000  0.6508444  3
   1742   1741   1753   1765     1  0.0000000  0.6508444  3
   1742   1741   1753   1754     1  0.0000000  0.6508444  3
   1742   1741   1753   1755     1  0.0000000  0.6508444  3
   1743   1741   1740   1744     1  0.0000000  0.6508444  3
   1743   1741   1740   1747     1  0.0000000  0.6508444  3
   1743   1741   1740   1769     1  0.0000000  0.6508444  3
   1743   1741   1753   1765     1  0.0000000  0.6508444  3
   1743   1741   1753   1754     1  0.0000000  0.6508444  3
   1743   1741   1753   1755     1  0.0000000  0.6508444  3
   1744   1740   1747   1748     1  0.0000000  0.6508444  3
   1744   1740   1747   1749     1  0.0000000  0.6508444  3
   1744   1756   1762   1763     1  0.0000000  0.6508444  3
   1744   1756   1762   1764     1  0.0000000  0.6508444  3
   1745   1744   1740   1747     1  0.0000000  0.6508444  3
   1745   1744   1740   1769     1  0.0000000  0.6508444  3
   1745   1744   1756   1762     1  0.0000000  0.6508444  3
   1745   1744   1756   1757     1  0.0000000  0.6508444  3
   1745   1744   1756   1758     1  0.0000000  0.6508444  3
   1746   1744   1740   1747     1  0.0000000  0.6508444  3
   1746   1744   1740   1769     1  0.0000000  0.6508444  3
   1746   1744   1756   1762     1  0.0000000  0.6508444  3
   1746   1744   1756   1757     1  0.0000000  0.6508444  3
   1746   1744   1756   1758     1  0.0000000  0.6508444  3
   1747   1750   1759   1760     1  0.0000000  0.6508444  3
   1747   1750   1759   1761     1  0.0000000  0.6508444  3
   1748   1747   1740   1769     1  0.0000000  0.6508444  3
   1748   1747   1750   1759     1  0.0000000  0.6508444  3
   1748   1747   1750   1751     1  0.0000000  0.6508444  3
   1748   1747   1750   1752     1  0.0000000  0.6508444  3
   1749   1747   1740   1769     1  0.0000000  0.6508444  3
   1749   1747   1750   1759     1  0.0000000  0.6508444  3
   1749   1747   1750   1751     1  0.0000000  0.6508444  3
   1749   1747   1750   1752     1  0.0000000  0.6508444  3
   1750   1747   1740   1769     1  0.0000000  0.6508444  3
   1751   1750   1759   1768     1  0.0000000  1.0460000  1
   1751   1750   1759   1768     1  0.0000000  0.0000000  3
   1751   1750   1759   1760     1  0.0000000  0.6508444  3
   1751   1750   1759   1761     1  0.0000000  0.6508444  3
   1752   1750   1759   1768     1  0.0000000  1.0460000  1
   1752   1750   1759   1768     1  0.0000000  0.0000000  3
   1752   1750   1759   1760     1  0.0000000  0.6508444  3
   1752   1750   1759   1761     1  0.0000000  0.6508444  3
   1753   1741   1740   1769     1  0.0000000  0.6508444  3
   1754   1753   1765   3405     1  0.0000000  1.0460000  1
   1754   1753   1765   3405     1  0.0000000  0.0000000  3
   1754   1753   1765   1766     1  0.0000000  0.6508444  3
   1754   1753   1765   1767     1  0.0000000  0.6508444  3
   1755   1753   1765   3405     1  0.0000000  1.0460000  1
   1755   1753   1765   3405     1  0.0000000  0.0000000  3
   1755   1753   1765   1766     1  0.0000000  0.6508444  3
   1755   1753   1765   1767     1  0.0000000  0.6508444  3
   1756   1744   1740   1769     1  0.0000000  0.6508444  3
   1757   1756   1762   3382     1  0.0000000  1.0460000  1
   1757   1756   1762   3382     1  0.0000000  0.0000000  3
   1757   1756   1762   1763     1  0.0000000  0.6508444  3
   1757   1756   1762   1764     1  0.0000000  0.6508444  3
   1758   1756   1762   3382     1  0.0000000  1.0460000  1
   1758   1756   1762   3382     1  0.0000000  0.0000000  3
   1758   1756   1762   1763     1  0.0000000  0.6508444  3
   1758   1756   1762   1764     1  0.0000000  0.6508444  3
   1762   3382   3378   3381     1  0.0000000  1.6038667  3
   1763   1762   3382   3378     1  0.0000000  1.6038667  3
   1764   1762   3382   3378     1  0.0000000  1.6038667  3
   1765   3405   3401   3404     1  0.0000000  1.6038667  3
   1766   1765   3405   3401     1  0.0000000  1.6038667  3
   1767   1765   3405   3401     1  0.0000000  1.6038667  3
   1770   1771   1783   1784     1  0.0000000  0.6508444  3
   1770   1771   1783   1785     1  0.0000000  0.6508444  3
   1770   1774   1786   1787     1  0.0000000  0.6508444  3
   1770   1774   1786   1788     1  0.0000000  0.6508444  3
   1770   1777   1780   1781     1  0.0000000  0.6508444  3
   1770   1777   1780   1782     1  0.0000000  0.6508444  3
   1771   1770   1774   1775     1  0.0000000  0.6508444  3
   1771   1770   1774   1776     1  0.0000000  0.6508444  3
   1771   1770   1777   1778     1  0.0000000  0.6508444  3
   1771   1770   1777   1779     1  0.0000000  0.6508444  3
   1771   1783   1795   1796     1  0.0000000  0.6508444  3
   1771   1783   1795   1797     1  0.0000000  0.6508444  3
   1772   1771   1770   1774     1  0.0000000  0.6508444  3
   1772   1771   1770   1777     1  0.0000000  0.6508444  3
   1772   1771   1770   1799     1  0.0000000  0.6508444  3
   1772   1771   1783   1795     1  0.0000000  0.6508444  3
   1772   1771   1783   1784     1  0.0000000  0.6508444  3
   1772   1771   1783   1785     1  0.0000000  0.6508444  3
   1773   1771   1770   1774     1  0.0000000  0.6508444  3
   1773   1771   1770   1777     1  0.0000000  0.6508444  3
   1773   1771   1770   1799     1  0.0000000  0.6508444  3
   1773   1771   1783   1795     1  0.0000000  0.6508444  3
   1773   1771   1783   1784     1  0.0000000  0.6508444  3
   1773   1771   1783   1785     1  0.0000000  0.6508444  3
   1774   1770   1777   1778     1  0.0000000  0.6508444  3
   1774   1770   1777   1779     1  0.0000000  0.6508444  3
   1774   1786   1792   1793     1  0.0000000  0.6508444  3
   1774   1786   1792   1794     1  0.0000000  0.6508444  3
   1775   1774   1770   1777     1  0.0000000  0.6508444  3
   1775   1774   1770   1799     1  0.0000000  0.6508444  3
   1775   1774   1786   1792     1  0.0000000  0.6508444  3
   1775   1774   1786   1787     1  0.0000000  0.6508444  3
   1775   1774   1786   1788     1  0.0000000  0.6508444  3
   1776   1774   1770   1777     1  0.0000000  0.6508444  3
   1776   1774   1770   1799     1  0.0000000  0.6508444  3
   1776   1774   1786   1792     1  0.0000000  0.6508444  3
   1776   1774   1786   1787     1  0.0000000  0.6508444  3
   1776   1774   1786   1788     1  0.0000000  0.6508444  3
   1777   1780   1789   1790     1  0.0000000  0.6508444  3
   1777   1780   1789   1791     1  0.0000000  0.6508444  3
   1778   1777   1770   1799     1  0.0000000  0.6508444  3
   1778   1777   1780   1789     1  0.0000000  0.6508444  3
   1778   1777   1780   1781     1  0.0000000  0.6508444  3
   1778   1777   1780   1782     1  0.0000000  0.6508444  3
   1779   1777   1770   1799     1  0.0000000  0.6508444  3
   1779   1777   1780   1789     1  0.0000000  0.6508444  3
   1779   1777   1780   1781     1  0.0000000  0.6508444  3
   1779   1777   1780   1782     1  0.0000000  0.6508444  3
   1780   1777   1770   1799     1  0.0000000  0.6508444  3
   1781   1780   1789   1798     1  0.0000000  1.0460000  1
   1781   1780   1789   1798     1  0.0000000  0.0000000  3
   1781   1780   1789   1790     1  0.0000000  0.6508444  3
   1781   1780   1789   1791     1  0.0000000  0.6508444  3
   1782   1780   1789   1798     1  0.0000000  1.0460000  1
   1782   1780   1789   1798     1  0.0000000  0.0000000  3
   1782   1780   1789   1790     1  0.0000000  0.6508444  3
   1782   1780   1789   1791     1  0.0000000  0.6508444  3
   1783   1771   1770   1799     1  0.0000000  0.6508444  3
   1784   1783   1795   3451     1  0.0000000  1.0460000  1
   1784   1783   1795   3451     1  0.0000000  0.0000000  3
   1784   1783   1795   1796     1  0.0000000  0.6508444  3
   1784   1783   1795   1797     1  0.0000000  0.6508444  3
   1785   1783   1795   3451     1  0.0000000  1.0460000  1
   1785   1783   1795   3451     1  0.0000000  0.0000000  3
   1785   1783   1795   1796     1  0.0000000  0.6508444  3
   1785   1783   1795   1797     1  0.0000000  0.6508444  3
   1786   1774   1770   1799     1  0.0000000  0.6508444  3
   1787   1786   1792   3428     1  0.0000000  1.0460000  1
   1787   1786   1792   3428     1  0.0000000  0.0000000  3
   1787   1786   1792   1793     1  0.0000000  0.6508444  3
   1787   1786   1792   1794     1  0.0000000  0.6508444  3
   1788   1786   1792   3428     1  0.0000000  1.0460000  1
   1788   1786   1792   3428     1  0.0000000  0.0000000  3
   1788   1786   1792   1793     1  0.0000000  0.6508444  3
   1788   1786   1792   1794     1  0.0000000  0.6508444  3
   1792   3428   3424   3427     1  0.0000000  1.6038667  3
   1793   1792   3428   3424     1  0.0000000  1.6038667  3
   1794   1792   3428   3424     1  0.0000000  1.6038667  3
   1795   3451   3447   3450     1  0.0000000  1.6038667  3
   1796   1795   3451   3447     1  0.0000000  1.6038667  3
   1797   1795   3451   3447     1  0.0000000  1.6038667  3
   1800   1801   1813   1814     1  0.0000000  0.6508444  3
   1800   1801   1813   1815     1  0.0000000  0.6508444  3
   1800   1804   1816   1817     1  0.0000000  0.6508444  3
   1800   1804   1816   1818     1  0.0000000  0.6508444  3
   1800   1807   1810   1811     1  0.0000000  0.6508444  3
   1800   1807   1810   1812     1  0.0000000  0.6508444  3
   1801   1800   1804   1805     1  0.0000000  0.6508444  3
   1801   1800   1804   1806     1  0.0000000  0.6508444  3
   1801   1800   1807   1808     1  0.0000000  0.6508444  3
   1801   1800   1807   1809     1  0.0000000  0.6508444  3
   1801   1813   1825   1826     1  0.0000000  0.6508444  3
   1801   1813   1825   1827     1  0.0000000  0.6508444  3
   1802   1801   1800   1804     1  0.0000000  0.6508444  3
   1802   1801   1800   1807     1  0.0000000  0.6508444  3
   1802   1801   1800   1829     1  0.0000000  0.6508444  3
   1802   1801   1813   1825     1  0.0000000  0.6508444  3
   1802   1801   1813   1814     1  0.0000000  0.6508444  3
   1802   1801   1813   1815     1  0.0000000  0.6508444  3
   1803   1801   1800   1804     1  0.0000000  0.6508444  3
   1803   1801   1800   1807     1  0.0000000  0.6508444  3
   1803   1801   1800   1829     1  0.0000000  0.6508444  3
   1803   1801   1813   1825     1  0.0000000  0.6508444  3
   1803   1801   1813   1814     1  0.0000000  0.6508444  3
   1803   1801   1813   1815     1  0.0000000  0.6508444  3
   1804   1800   1807   1808     1  0.0000000  0.6508444  3
   1804   1800   1807   1809     1  0.0000000  0.6508444  3
   1804   1816   1822   1823     1  0.0000000  0.6508444  3
   1804   1816   1822   1824     1  0.0000000  0.6508444  3
   1805   1804   1800   1807     1  0.0000000  0.6508444  3
   1805   1804   1800   1829     1  0.0000000  0.6508444  3
   1805   1804   1816   1822     1  0.0000000  0.6508444  3
   1805   1804   1816   1817     1  0.0000000  0.6508444  3
   1805   1804   1816   1818     1  0.0000000  0.6508444  3
   1806   1804   1800   1807     1  0.0000000  0.6508444  3
   1806   1804   1800   1829     1  0.0000000  0.6508444  3
   1806   1804   1816   1822     1  0.0000000  0.6508444  3
   1806   1804   1816   1817     1  0.0000000  0.6508444  3
   1806   1804   1816   1818     1  0.0000000  0.6508444  3
   1807   1810   1819   1820     1  0.0000000  0.6508444  3
   1807   1810   1819   1821     1  0.0000000  0.6508444  3
   1808   1807   1800   1829     1  0.0000000  0.6508444  3
   1808   1807   1810   1819     1  0.0000000  0.6508444  3
   1808   1807   1810   1811     1  0.0000000  0.6508444  3
   1808   1807   1810   1812     1  0.0000000  0.6508444  3
   1809   1807   1800   1829     1  0.0000000  0.6508444  3
   1809   1807   1810   1819     1  0.0000000  0.6508444  3
   1809   1807   1810   1811     1  0.0000000  0.6508444  3
   1809   1807   1810   1812     1  0.0000000  0.6508444  3
   1810   1807   1800   1829     1  0.0000000  0.6508444  3
   1811   1810   1819   1828     1  0.0000000  1.0460000  1
   1811   1810   1819   1828     1  0.0000000  0.0000000  3
   1811   1810   1819   1820     1  0.0000000  0.6508444  3
   1811   1810   1819   1821     1  0.0000000  0.6508444  3
   1812   1810   1819   1828     1  0.0000000  1.0460000  1
   1812   1810   1819   1828     1  0.0000000  0.0000000  3
   1812   1810   1819   1820     1  0.0000000  0.6508444  3
   1812   1810   1819   1821     1  0.0000000  0.6508444  3
   1813   1801   1800   1829     1  0.0000000  0.6508444  3
   1814   1813   1825   3497     1  0.0000000  1.0460000  1
   1814   1813   1825   3497     1  0.0000000  0.0000000  3
   1814   1813   1825   1826     1  0.0000000  0.6508444  3
   1814   1813   1825   1827     1  0.0000000  0.6508444  3
   1815   1813   1825   3497     1  0.0000000  1.0460000  1
   1815   1813   1825   3497     1  0.0000000  0.0000000  3
   1815   1813   1825   1826     1  0.0000000  0.6508444  3
   1815   1813   1825   1827     1  0.0000000  0.6508444  3
   1816   1804   1800   1829     1  0.0000000  0.6508444  3
   1817   1816   1822   3474     1  0.0000000  1.0460000  1
   1817   1816   1822   3474     1  0.0000000  0.0000000  3
   1817   1816   1822   1823     1  0.0000000  0.6508444  3
   1817   1816   1822   1824     1  0.0000000  0.6508444  3
   1818   1816   1822   3474     1  0.0000000  1.0460000  1
   1818   1816   1822   3474     1  0.0000000  0.0000000  3
   1818   1816   1822   1823     1  0.0000000  0.6508444  3
   1818   1816   1822   1824     1  0.0000000  0.6508444  3
   1822   3474   3470   3473     1  0.0000000  1.6038667  3
   1823   1822   3474   3470     1  0.0000000  1.6038667  3
   1824   1822   3474   3470     1  0.0000000  1.6038667  3
   1825   3497   3493   3496     1  0.0000000  1.6038667  3
   1826   1825   3497   3493     1  0.0000000  1.6038667  3
   1827   1825   3497   3493     1  0.0000000  1.6038667  3
   1830   1831   1843   1844     1  0.0000000  0.6508444  3
   1830   1831   1843   1845     1  0.0000000  0.6508444  3
   1830   1834   1846   1847     1  0.0000000  0.6508444  3
   1830   1834   1846   1848     1  0.0000000  0.6508444  3
   1830   1837   1840   1841     1  0.0000000  0.6508444  3
   1830   1837   1840   1842     1  0.0000000  0.6508444  3
   1831   1830   1834   1835     1  0.0000000  0.6508444  3
   1831   1830   1834   1836     1  0.0000000  0.6508444  3
   1831   1830   1837   1838     1  0.0000000  0.6508444  3
   1831   1830   1837   1839     1  0.0000000  0.6508444  3
   1831   1843   1855   1856     1  0.0000000  0.6508444  3
   1831   1843   1855   1857     1  0.0000000  0.6508444  3
   1832   1831   1830   1834     1  0.0000000  0.6508444  3
   1832   1831   1830   1837     1  0.0000000  0.6508444  3
   1832   1831   1830   1859     1  0.0000000  0.6508444  3
   1832   1831   1843   1855     1  0.0000000  0.6508444  3
   1832   1831   1843   1844     1  0.0000000  0.6508444  3
   1832   1831   1843   1845     1  0.0000000  0.6508444  3
   1833   1831   1830   1834     1  0.0000000  0.6508444  3
   1833   1831   1830   1837     1  0.0000000  0.6508444  3
   1833   1831   1830   1859     1  0.0000000  0.6508444  3
   1833   1831   1843   1855     1  0.0000000  0.6508444  3
   1833   1831   1843   1844     1  0.0000000  0.6508444  3
   1833   1831   1843   1845     1  0.0000000  0.6508444  3
   1834   1830   1837   1838     1  0.0000000  0.6508444  3
   1834   1830   1837   1839     1  0.0000000  0.6508444  3
   1834   1846   1852   1853     1  0.0000000  0.6508444  3
   1834   1846   1852   1854     1  0.0000000  0.6508444  3
   1835   1834   1830   1837     1  0.0000000  0.6508444  3
   1835   1834   1830   1859     1  0.0000000  0.6508444  3
   1835   1834   1846   1852     1  0.0000000  0.6508444  3
   1835   1834   1846   1847     1  0.0000000  0.6508444  3
   1835   1834   1846   1848     1  0.0000000  0.6508444  3
   1836   1834   1830   1837     1  0.0000000  0.6508444  3
   1836   1834   1830   1859     1  0.0000000  0.6508444  3
   1836   1834   1846   1852     1  0.0000000  0.6508444  3
   1836   1834   1846   1847     1  0.0000000  0.6508444  3
   1836   1834   1846   1848     1  0.0000000  0.6508444  3
   1837   1840   1849   1850     1  0.0000000  0.6508444  3
   1837   1840   1849   1851     1  0.0000000  0.6508444  3
   1838   1837   1830   1859     1  0.0000000  0.6508444  3
   1838   1837   1840   1849     1  0.0000000  0.6508444  3
   1838   1837   1840   1841     1  0.0000000  0.6508444  3
   1838   1837   1840   1842     1  0.0000000  0.6508444  3
   1839   1837   1830   1859     1  0.0000000  0.6508444  3
   1839   1837   1840   1849     1  0.0000000  0.6508444  3
   1839   1837   1840   1841     1  0.0000000  0.6508444  3
   1839   1837   1840   1842     1  0.0000000  0.6508444  3
   1840   1837   1830   1859     1  0.0000000  0.6508444  3
   1841   1840   1849   1858     1  0.0000000  1.0460000  1
   1841   1840   1849   1858     1  0.0000000  0.0000000  3
   1841   1840   1849   1850     1  0.0000000  0.6508444  3
   1841   1840   1849   1851     1  0.0000000  0.6508444  3
   1842   1840   1849   1858     1  0.0000000  1.0460000  1
   1842   1840   1849   1858     1  0.0000000  0.0000000  3
   1842   1840   1849   1850     1  0.0000000  0.6508444  3
   1842   1840   1849   1851     1  0.0000000  0.6508444  3
   1843   1831   1830   1859     1  0.0000000  0.6508444  3
   1844   1843   1855   3543     1  0.0000000  1.0460000  1
   1844   1843   1855   3543     1  0.0000000  0.0000000  3
   1844   1843   1855   1856     1  0.0000000  0.6508444  3
   1844   1843   1855   1857     1  0.0000000  0.6508444  3
   1845   1843   1855   3543     1  0.0000000  1.0460000  1
   1845   1843   1855   3543     1  0.0000000  0.0000000  3
   1845   1843   1855   1856     1  0.0000000  0.6508444  3
   1845   1843   1855   1857     1  0.0000000  0.6508444  3
   1846   1834   1830   1859     1  0.0000000  0.6508444  3
   1847   1846   1852   3520     1  0.0000000  1.0460000  1
   1847   1846   1852   3520     1  0.0000000  0.0000000  3
   1847   1846   1852   1853     1  0.0000000  0.6508444  3
   1847   1846   1852   1854     1  0.0000000  0.6508444  3
   1848   1846   1852   3520     1  0.0000000  1.0460000  1
   1848   1846   1852   3520     1  0.0000000  0.0000000  3
   1848   1846   1852   1853     1  0.0000000  0.6508444  3
   1848   1846   1852   1854     1  0.0000000  0.6508444  3
   1852   3520   3516   3519     1  0.0000000  1.6038667  3
   1853   1852   3520   3516     1  0.0000000  1.6038667  3
   1854   1852   3520   3516     1  0.0000000  1.6038667  3
   1855   3543   3539   3542     1  0.0000000  1.6038667  3
   1856   1855   3543   3539     1  0.0000000  1.6038667  3
   1857   1855   3543   3539     1  0.0000000  1.6038667  3
   1860   1861   1873   1874     1  0.0000000  0.6508444  3
   1860   1861   1873   1875     1  0.0000000  0.6508444  3
   1860   1864   1876   1877     1  0.0000000  0.6508444  3
   1860   1864   1876   1878     1  0.0000000  0.6508444  3
   1860   1867   1870   1871     1  0.0000000  0.6508444  3
   1860   1867   1870   1872     1  0.0000000  0.6508444  3
   1861   1860   1864   1865     1  0.0000000  0.6508444  3
   1861   1860   1864   1866     1  0.0000000  0.6508444  3
   1861   1860   1867   1868     1  0.0000000  0.6508444  3
   1861   1860   1867   1869     1  0.0000000  0.6508444  3
   1861   1873   1885   1886     1  0.0000000  0.6508444  3
   1861   1873   1885   1887     1  0.0000000  0.6508444  3
   1862   1861   1860   1864     1  0.0000000  0.6508444  3
   1862   1861   1860   1867     1  0.0000000  0.6508444  3
   1862   1861   1860   1889     1  0.0000000  0.6508444  3
   1862   1861   1873   1885     1  0.0000000  0.6508444  3
   1862   1861   1873   1874     1  0.0000000  0.6508444  3
   1862   1861   1873   1875     1  0.0000000  0.6508444  3
   1863   1861   1860   1864     1  0.0000000  0.6508444  3
   1863   1861   1860   1867     1  0.0000000  0.6508444  3
   1863   1861   1860   1889     1  0.0000000  0.6508444  3
   1863   1861   1873   1885     1  0.0000000  0.6508444  3
   1863   1861   1873   1874     1  0.0000000  0.6508444  3
   1863   1861   1873   1875     1  0.0000000  0.6508444  3
   1864   1860   1867   1868     1  0.0000000  0.6508444  3
   1864   1860   1867   1869     1  0.0000000  0.6508444  3
   1864   1876   1882   1883     1  0.0000000  0.6508444  3
   1864   1876   1882   1884     1  0.0000000  0.6508444  3
   1865   1864   1860   1867     1  0.0000000  0.6508444  3
   1865   1864   1860   1889     1  0.0000000  0.6508444  3
   1865   1864   1876   1882     1  0.0000000  0.6508444  3
   1865   1864   1876   1877     1  0.0000000  0.6508444  3
   1865   1864   1876   1878     1  0.0000000  0.6508444  3
   1866   1864   1860   1867     1  0.0000000  0.6508444  3
   1866   1864   1860   1889     1  0.0000000  0.6508444  3
   1866   1864   1876   1882     1  0.0000000  0.6508444  3
   1866   1864   1876   1877     1  0.0000000  0.6508444  3
   1866   1864   1876   1878     1  0.0000000  0.6508444  3
   1867   1870   1879   1880     1  0.0000000  0.6508444  3
   1867   1870   1879   1881     1  0.0000000  0.6508444  3
   1868   1867   1860   1889     1  0.0000000  0.6508444  3
   1868   1867   1870   1879     1  0.0000000  0.6508444  3
   1868   1867   1870   1871     1  0.0000000  0.6508444  3
   1868   1867   1870   1872     1  0.0000000  0.6508444  3
   1869   1867   1860   1889     1  0.0000000  0.6508444  3
   1869   1867   1870   1879     1  0.0000000  0.6508444  3
   1869   1867   1870   1871     1  0.0000000  0.6508444  3
   1869   1867   1870   1872     1  0.0000000  0.6508444  3
   1870   1867   1860   1889     1  0.0000000  0.6508444  3
   1871   1870   1879   1888     1  0.0000000  1.0460000  1
   1871   1870   1879   1888     1  0.0000000  0.0000000  3
   1871   1870   1879   1880     1  0.0000000  0.6508444  3
   1871   1870   1879   1881     1  0.0000000  0.6508444  3
   1872   1870   1879   1888     1  0.0000000  1.0460000  1
   1872   1870   1879   1888     1  0.0000000  0.0000000  3
   1872   1870   1879   1880     1  0.0000000  0.6508444  3
   1872   1870   1879   1881     1  0.0000000  0.6508444  3
   1873   1861   1860   1889     1  0.0000000  0.6508444  3
   1874   1873   1885   3589     1  0.0000000  1.0460000  1
   1874   1873   1885   3589     1  0.0000000  0.0000000  3
   1874   1873   1885   1886     1  0.0000000  0.6508444  3
   1874   1873   1885   1887     1  0.0000000  0.6508444  3
   1875   1873   1885   3589     1  0.0000000  1.0460000  1
   1875   1873   1885   3589     1  0.0000000  0.0000000  3
   1875   1873   1885   1886     1  0.0000000  0.6508444  3
   1875   1873   1885   1887     1  0.0000000  0.6508444  3
   1876   1864   1860   1889     1  0.0000000  0.6508444  3
   1877   1876   1882   3566     1  0.0000000  1.0460000  1
   1877   1876   1882   3566     1  0.0000000  0.0000000  3
   1877   1876   1882   1883     1  0.0000000  0.6508444  3
   1877   1876   1882   1884     1  0.0000000  0.6508444  3
   1878   1876   1882   3566     1  0.0000000  1.0460000  1
   1878   1876   1882   3566     1  0.0000000  0.0000000  3
   1878   1876   1882   1883     1  0.0000000  0.6508444  3
   1878   1876   1882   1884     1  0.0000000  0.6508444  3
   1882   3566   3562   3565     1  0.0000000  1.6038667  3
   1883   1882   3566   3562     1  0.0000000  1.6038667  3
   1884   1882   3566   3562     1  0.0000000  1.6038667  3
   1885   3589   3585   3588     1  0.0000000  1.6038667  3
   1886   1885   3589   3585     1  0.0000000  1.6038667  3
   1887   1885   3589   3585     1  0.0000000  1.6038667  3
   1890   1891   1903   1904     1  0.0000000  0.6508444  3
   1890   1891   1903   1905     1  0.0000000  0.6508444  3
   1890   1894   1906   1907     1  0.0000000  0.6508444  3
   1890   1894   1906   1908     1  0.0000000  0.6508444  3
   1890   1897   1900   1901     1  0.0000000  0.6508444  3
   1890   1897   1900   1902     1  0.0000000  0.6508444  3
   1891   1890   1894   1895     1  0.0000000  0.6508444  3
   1891   1890   1894   1896     1  0.0000000  0.6508444  3
   1891   1890   1897   1898     1  0.0000000  0.6508444  3
   1891   1890   1897   1899     1  0.0000000  0.6508444  3
   1891   1903   1915   1916     1  0.0000000  0.6508444  3
   1891   1903   1915   1917     1  0.0000000  0.6508444  3
   1892   1891   1890   1894     1  0.0000000  0.6508444  3
   1892   1891   1890   1897     1  0.0000000  0.6508444  3
   1892   1891   1890   1919     1  0.0000000  0.6508444  3
   1892   1891   1903   1915     1  0.0000000  0.6508444  3
   1892   1891   1903   1904     1  0.0000000  0.6508444  3
   1892   1891   1903   1905     1  0.0000000  0.6508444  3
   1893   1891   1890   1894     1  0.0000000  0.6508444  3
   1893   1891   1890   1897     1  0.0000000  0.6508444  3
   1893   1891   1890   1919     1  0.0000000  0.6508444  3
   1893   1891   1903   1915     1  0.0000000  0.6508444  3
   1893   1891   1903   1904     1  0.0000000  0.6508444  3
   1893   1891   1903   1905     1  0.0000000  0.6508444  3
   1894   1890   1897   1898     1  0.0000000  0.6508444  3
   1894   1890   1897   1899     1  0.0000000  0.6508444  3
   1894   1906   1912   1913     1  0.0000000  0.6508444  3
   1894   1906   1912   1914     1  0.0000000  0.6508444  3
   1895   1894   1890   1897     1  0.0000000  0.6508444  3
   1895   1894   1890   1919     1  0.0000000  0.6508444  3
   1895   1894   1906   1912     1  0.0000000  0.6508444  3
   1895   1894   1906   1907     1  0.0000000  0.6508444  3
   1895   1894   1906   1908     1  0.0000000  0.6508444  3
   1896   1894   1890   1897     1  0.0000000  0.6508444  3
   1896   1894   1890   1919     1  0.0000000  0.6508444  3
   1896   1894   1906   1912     1  0.0000000  0.6508444  3
   1896   1894   1906   1907     1  0.0000000  0.6508444  3
   1896   1894   1906   1908     1  0.0000000  0.6508444  3
   1897   1900   1909   1910     1  0.0000000  0.6508444  3
   1897   1900   1909   1911     1  0.0000000  0.6508444  3
   1898   1897   1890   1919     1  0.0000000  0.6508444  3
   1898   1897   1900   1909     1  0.0000000  0.6508444  3
   1898   1897   1900   1901     1  0.0000000  0.6508444  3
   1898   1897   1900   1902     1  0.0000000  0.6508444  3
   1899   1897   1890   1919     1  0.0000000  0.6508444  3
   1899   1897   1900   1909     1  0.0000000  0.6508444  3
   1899   1897   1900   1901     1  0.0000000  0.6508444  3
   1899   1897   1900   1902     1  0.0000000  0.6508444  3
   1900   1897   1890   1919     1  0.0000000  0.6508444  3
   1901   1900   1909   1918     1  0.0000000  1.0460000  1
   1901   1900   1909   1918     1  0.0000000  0.0000000  3
   1901   1900   1909   1910     1  0.0000000  0.6508444  3
   1901   1900   1909   1911     1  0.0000000  0.6508444  3
   1902   1900   1909   1918     1  0.0000000  1.0460000  1
   1902   1900   1909   1918     1  0.0000000  0.0000000  3
   1902   1900   1909   1910     1  0.0000000  0.6508444  3
   1902   1900   1909   1911     1  0.0000000  0.6508444  3
   1903   1891   1890   1919     1  0.0000000  0.6508444  3
   1904   1903   1915   3635     1  0.0000000  1.0460000  1
   1904   1903   1915   3635     1  0.0000000  0.0000000  3
   1904   1903   1915   1916     1  0.0000000  0.6508444  3
   1904   1903   1915   1917     1  0.0000000  0.6508444  3
   1905   1903   1915   3635     1  0.0000000  1.0460000  1
   1905   1903   1915   3635     1  0.0000000  0.0000000  3
   1905   1903   1915   1916     1  0.0000000  0.6508444  3
   1905   1903   1915   1917     1  0.0000000  0.6508444  3
   1906   1894   1890   1919     1  0.0000000  0.6508444  3
   1907   1906   1912   3612     1  0.0000000  1.0460000  1
   1907   1906   1912   3612     1  0.0000000  0.0000000  3
   1907   1906   1912   1913     1  0.0000000  0.6508444  3
   1907   1906   1912   1914     1  0.0000000  0.6508444  3
   1908   1906   1912   3612     1  0.0000000  1.0460000  1
   1908   1906   1912   3612     1  0.0000000  0.0000000  3
   1908   1906   1912   1913     1  0.0000000  0.6508444  3
   1908   1906   1912   1914     1  0.0000000  0.6508444  3
   1912   3612   3608   3611     1  0.0000000  1.6038667  3
   1913   1912   3612   3608     1  0.0000000  1.6038667  3
   1914   1912   3612   3608     1  0.0000000  1.6038667  3
   1915   3635   3631   3634     1  0.0000000  1.6038667  3
   1916   1915   3635   3631     1  0.0000000  1.6038667  3
   1917   1915   3635   3631     1  0.0000000  1.6038667  3
   1920   1921   1933   1934     1  0.0000000  0.6508444  3
   1920   1921   1933   1935     1  0.0000000  0.6508444  3
   1920   1924   1936   1937     1  0.0000000  0.6508444  3
   1920   1924   1936   1938     1  0.0000000  0.6508444  3
   1920   1927   1930   1931     1  0.0000000  0.6508444  3
   1920   1927   1930   1932     1  0.0000000  0.6508444  3
   1921   1920   1924   1925     1  0.0000000  0.6508444  3
   1921   1920   1924   1926     1  0.0000000  0.6508444  3
   1921   1920   1927   1928     1  0.0000000  0.6508444  3
   1921   1920   1927   1929     1  0.0000000  0.6508444  3
   1921   1933   1945   1946     1  0.0000000  0.6508444  3
   1921   1933   1945   1947     1  0.0000000  0.6508444  3
   1922   1921   1920   1924     1  0.0000000  0.6508444  3
   1922   1921   1920   1927     1  0.0000000  0.6508444  3
   1922   1921   1920   1949     1  0.0000000  0.6508444  3
   1922   1921   1933   1945     1  0.0000000  0.6508444  3
   1922   1921   1933   1934     1  0.0000000  0.6508444  3
   1922   1921   1933   1935     1  0.0000000  0.6508444  3
   1923   1921   1920   1924     1  0.0000000  0.6508444  3
   1923   1921   1920   1927     1  0.0000000  0.6508444  3
   1923   1921   1920   1949     1  0.0000000  0.6508444  3
   1923   1921   1933   1945     1  0.0000000  0.6508444  3
   1923   1921   1933   1934     1  0.0000000  0.6508444  3
   1923   1921   1933   1935     1  0.0000000  0.6508444  3
   1924   1920   1927   1928     1  0.0000000  0.6508444  3
   1924   1920   1927   1929     1  0.0000000  0.6508444  3
   1924   1936   1942   1943     1  0.0000000  0.6508444  3
   1924   1936   1942   1944     1  0.0000000  0.6508444  3
   1925   1924   1920   1927     1  0.0000000  0.6508444  3
   1925   1924   1920   1949     1  0.0000000  0.6508444  3
   1925   1924   1936   1942     1  0.0000000  0.6508444  3
   1925   1924   1936   1937     1  0.0000000  0.6508444  3
   1925   1924   1936   1938     1  0.0000000  0.6508444  3
   1926   1924   1920   1927     1  0.0000000  0.6508444  3
   1926   1924   1920   1949     1  0.0000000  0.6508444  3
   1926   1924   1936   1942     1  0.0000000  0.6508444  3
   1926   1924   1936   1937     1  0.0000000  0.6508444  3
   1926   1924   1936   1938     1  0.0000000  0.6508444  3
   1927   1930   1939   1940     1  0.0000000  0.6508444  3
   1927   1930   1939   1941     1  0.0000000  0.6508444  3
   1928   1927   1920   1949     1  0.0000000  0.6508444  3
   1928   1927   1930   1939     1  0.0000000  0.6508444  3
   1928   1927   1930   1931     1  0.0000000  0.6508444  3
   1928   1927   1930   1932     1  0.0000000  0.6508444  3
   1929   1927   1920   1949     1  0.0000000  0.6508444  3
   1929   1927   1930   1939     1  0.0000000  0.6508444  3
   1929   1927   1930   1931     1  0.0000000  0.6508444  3
   1929   1927   1930   1932     1  0.0000000  0.6508444  3
   1930   1927   1920   1949     1  0.0000000  0.6508444  3
   1931   1930   1939   1948     1  0.0000000  1.0460000  1
   1931   1930   1939   1948     1  0.0000000  0.0000000  3
   1931   1930   1939   1940     1  0.0000000  0.6508444  3
   1931   1930   1939   1941     1  0.0000000  0.6508444  3
   1932   1930   1939   1948     1  0.0000000  1.0460000  1
   1932   1930   1939   1948     1  0.0000000  0.0000000  3
   1932   1930   1939   1940     1  0.0000000  0.6508444  3
   1932   1930   1939   1941     1  0.0000000  0.6508444  3
   1933   1921   1920   1949     1  0.0000000  0.6508444  3
   1934   1933   1945   3681     1  0.0000000  1.0460000  1
   1934   1933   1945   3681     1  0.0000000  0.0000000  3
   1934   1933   1945   1946     1  0.0000000  0.6508444  3
   1934   1933   1945   1947     1  0.0000000  0.6508444  3
   1935   1933   1945   3681     1  0.0000000  1.0460000  1
   1935   1933   1945   3681     1  0.0000000  0.0000000  3
   1935   1933   1945   1946     1  0.0000000  0.6508444  3
   1935   1933   1945   1947     1  0.0000000  0.6508444  3
   1936   1924   1920   1949     1  0.0000000  0.6508444  3
   1937   1936   1942   3658     1  0.0000000  1.0460000  1
   1937   1936   1942   3658     1  0.0000000  0.0000000  3
   1937   1936   1942   1943     1  0.0000000  0.6508444  3
   1937   1936   1942   1944     1  0.0000000  0.6508444  3
   1938   1936   1942   3658     1  0.0000000  1.0460000  1
   1938   1936   1942   3658     1  0.0000000  0.0000000  3
   1938   1936   1942   1943     1  0.0000000  0.6508444  3
   1938   1936   1942   1944     1  0.0000000  0.6508444  3
   1942   3658   3654   3657     1  0.0000000  1.6038667  3
   1943   1942   3658   3654     1  0.0000000  1.6038667  3
   1944   1942   3658   3654     1  0.0000000  1.6038667  3
   1945   3681   3677   3680     1  0.0000000  1.6038667  3
   1946   1945   3681   3677     1  0.0000000  1.6038667  3
   1947   1945   3681   3677     1  0.0000000  1.6038667  3
   1950   1951   1963   1964     1  0.0000000  0.6508444  3
   1950   1951   1963   1965     1  0.0000000  0.6508444  3
   1950   1954   1966   1967     1  0.0000000  0.6508444  3
   1950   1954   1966   1968     1  0.0000000  0.6508444  3
   1950   1957   1960   1961     1  0.0000000  0.6508444  3
   1950   1957   1960   1962     1  0.0000000  0.6508444  3
   1951   1950   1954   1955     1  0.0000000  0.6508444  3
   1951   1950   1954   1956     1  0.0000000  0.6508444  3
   1951   1950   1957   1958     1  0.0000000  0.6508444  3
   1951   1950   1957   1959     1  0.0000000  0.6508444  3
   1951   1963   1975   1976     1  0.0000000  0.6508444  3
   1951   1963   1975   1977     1  0.0000000  0.6508444  3
   1952   1951   1950   1954     1  0.0000000  0.6508444  3
   1952   1951   1950   1957     1  0.0000000  0.6508444  3
   1952   1951   1950   1979     1  0.0000000  0.6508444  3
   1952   1951   1963   1975     1  0.0000000  0.6508444  3
   1952   1951   1963   1964     1  0.0000000  0.6508444  3
   1952   1951   1963   1965     1  0.0000000  0.6508444  3
   1953   1951   1950   1954     1  0.0000000  0.6508444  3
   1953   1951   1950   1957     1  0.0000000  0.6508444  3
   1953   1951   1950   1979     1  0.0000000  0.6508444  3
   1953   1951   1963   1975     1  0.0000000  0.6508444  3
   1953   1951   1963   1964     1  0.0000000  0.6508444  3
   1953   1951   1963   1965     1  0.0000000  0.6508444  3
   1954   1950   1957   1958     1  0.0000000  0.6508444  3
   1954   1950   1957   1959     1  0.0000000  0.6508444  3
   1954   1966   1972   1973     1  0.0000000  0.6508444  3
   1954   1966   1972   1974     1  0.0000000  0.6508444  3
   1955   1954   1950   1957     1  0.0000000  0.6508444  3
   1955   1954   1950   1979     1  0.0000000  0.6508444  3
   1955   1954   1966   1972     1  0.0000000  0.6508444  3
   1955   1954   1966   1967     1  0.0000000  0.6508444  3
   1955   1954   1966   1968     1  0.0000000  0.6508444  3
   1956   1954   1950   1957     1  0.0000000  0.6508444  3
   1956   1954   1950   1979     1  0.0000000  0.6508444  3
   1956   1954   1966   1972     1  0.0000000  0.6508444  3
   1956   1954   1966   1967     1  0.0000000  0.6508444  3
   1956   1954   1966   1968     1  0.0000000  0.6508444  3
   1957   1960   1969   1970     1  0.0000000  0.6508444  3
   1957   1960   1969   1971     1  0.0000000  0.6508444  3
   1958   1957   1950   1979     1  0.0000000  0.6508444  3
   1958   1957   1960   1969     1  0.0000000  0.6508444  3
   1958   1957   1960   1961     1  0.0000000  0.6508444  3
   1958   1957   1960   1962     1  0.0000000  0.6508444  3
   1959   1957   1950   1979     1  0.0000000  0.6508444  3
   1959   1957   1960   1969     1  0.0000000  0.6508444  3
   1959   1957   1960   1961     1  0.0000000  0.6508444  3
   1959   1957   1960   1962     1  0.0000000  0.6508444  3
   1960   1957   1950   1979     1  0.0000000  0.6508444  3
   1961   1960   1969   1978     1  0.0000000  1.0460000  1
   1961   1960   1969   1978     1  0.0000000  0.0000000  3
   1961   1960   1969   1970     1  0.0000000  0.6508444  3
   1961   1960   1969   1971     1  0.0000000  0.6508444  3
   1962   1960   1969   1978     1  0.0000000  1.0460000  1
   1962   1960   1969   1978     1  0.0000000  0.0000000  3
   1962   1960   1969   1970     1  0.0000000  0.6508444  3
   1962   1960   1969   1971     1  0.0000000  0.6508444  3
   1963   1951   1950   1979     1  0.0000000  0.6508444  3
   1964   1963   1975   3727     1  0.0000000  1.0460000  1
   1964   1963   1975   3727     1  0.0000000  0.0000000  3
   1964   1963   1975   1976     1  0.0000000  0.6508444  3
   1964   1963   1975   1977     1  0.0000000  0.6508444  3
   1965   1963   1975   3727     1  0.0000000  1.0460000  1
   1965   1963   1975   3727     1  0.0000000  0.0000000  3
   1965   1963   1975   1976     1  0.0000000  0.6508444  3
   1965   1963   1975   1977     1  0.0000000  0.6508444  3
   1966   1954   1950   1979     1  0.0000000  0.6508444  3
   1967   1966   1972   3704     1  0.0000000  1.0460000  1
   1967   1966   1972   3704     1  0.0000000  0.0000000  3
   1967   1966   1972   1973     1  0.0000000  0.6508444  3
   1967   1966   1972   1974     1  0.0000000  0.6508444  3
   1968   1966   1972   3704     1  0.0000000  1.0460000  1
   1968   1966   1972   3704     1  0.0000000  0.0000000  3
   1968   1966   1972   1973     1  0.0000000  0.6508444  3
   1968   1966   1972   1974     1  0.0000000  0.6508444  3
   1972   3704   3700   3703     1  0.0000000  1.6038667  3
   1973   1972   3704   3700     1  0.0000000  1.6038667  3
   1974   1972   3704   3700     1  0.0000000  1.6038667  3
   1975   3727   3723   3726     1  0.0000000  1.6038667  3
   1976   1975   3727   3723     1  0.0000000  1.6038667  3
   1977   1975   3727   3723     1  0.0000000  1.6038667  3
   1980   1981   1993   1994     1  0.0000000  0.6508444  3
   1980   1981   1993   1995     1  0.0000000  0.6508444  3
   1980   1984   1996   1997     1  0.0000000  0.6508444  3
   1980   1984   1996   1998     1  0.0000000  0.6508444  3
   1980   1987   1990   1991     1  0.0000000  0.6508444  3
   1980   1987   1990   1992     1  0.0000000  0.6508444  3
   1981   1980   1984   1985     1  0.0000000  0.6508444  3
   1981   1980   1984   1986     1  0.0000000  0.6508444  3
   1981   1980   1987   1988     1  0.0000000  0.6508444  3
   1981   1980   1987   1989     1  0.0000000  0.6508444  3
   1981   1993   2005   2006     1  0.0000000  0.6508444  3
   1981   1993   2005   2007     1  0.0000000  0.6508444  3
   1982   1981   1980   1984     1  0.0000000  0.6508444  3
   1982   1981   1980   1987     1  0.0000000  0.6508444  3
   1982   1981   1980   2009     1  0.0000000  0.6508444  3
   1982   1981   1993   2005     1  0.0000000  0.6508444  3
   1982   1981   1993   1994     1  0.0000000  0.6508444  3
   1982   1981   1993   1995     1  0.0000000  0.6508444  3
   1983   1981   1980   1984     1  0.0000000  0.6508444  3
   1983   1981   1980   1987     1  0.0000000  0.6508444  3
   1983   1981   1980   2009     1  0.0000000  0.6508444  3
   1983   1981   1993   2005     1  0.0000000  0.6508444  3
   1983   1981   1993   1994     1  0.0000000  0.6508444  3
   1983   1981   1993   1995     1  0.0000000  0.6508444  3
   1984   1980   1987   1988     1  0.0000000  0.6508444  3
   1984   1980   1987   1989     1  0.0000000  0.6508444  3
   1984   1996   2002   2003     1  0.0000000  0.6508444  3
   1984   1996   2002   2004     1  0.0000000  0.6508444  3
   1985   1984   1980   1987     1  0.0000000  0.6508444  3
   1985   1984   1980   2009     1  0.0000000  0.6508444  3
   1985   1984   1996   2002     1  0.0000000  0.6508444  3
   1985   1984   1996   1997     1  0.0000000  0.6508444  3
   1985   1984   1996   1998     1  0.0000000  0.6508444  3
   1986   1984   1980   1987     1  0.0000000  0.6508444  3
   1986   1984   1980   2009     1  0.0000000  0.6508444  3
   1986   1984   1996   2002     1  0.0000000  0.6508444  3
   1986   1984   1996   1997     1  0.0000000  0.6508444  3
   1986   1984   1996   1998     1  0.0000000  0.6508444  3
   1987   1990   1999   2000     1  0.0000000  0.6508444  3
   1987   1990   1999   2001     1  0.0000000  0.6508444  3
   1988   1987   1980   2009     1  0.0000000  0.6508444  3
   1988   1987   1990   1999     1  0.0000000  0.6508444  3
   1988   1987   1990   1991     1  0.0000000  0.6508444  3
   1988   1987   1990   1992     1  0.0000000  0.6508444  3
   1989   1987   1980   2009     1  0.0000000  0.6508444  3
   1989   1987   1990   1999     1  0.0000000  0.6508444  3
   1989   1987   1990   1991     1  0.0000000  0.6508444  3
   1989   1987   1990   1992     1  0.0000000  0.6508444  3
   1990   1987   1980   2009     1  0.0000000  0.6508444  3
   1991   1990   1999   2008     1  0.0000000  1.0460000  1
   1991   1990   1999   2008     1  0.0000000  0.0000000  3
   1991   1990   1999   2000     1  0.0000000  0.6508444  3
   1991   1990   1999   2001     1  0.0000000  0.6508444  3
   1992   1990   1999   2008     1  0.0000000  1.0460000  1
   1992   1990   1999   2008     1  0.0000000  0.0000000  3
   1992   1990   1999   2000     1  0.0000000  0.6508444  3
   1992   1990   1999   2001     1  0.0000000  0.6508444  3
   1993   1981   1980   2009     1  0.0000000  0.6508444  3
   1994   1993   2005   3773     1  0.0000000  1.0460000  1
   1994   1993   2005   3773     1  0.0000000  0.0000000  3
   1994   1993   2005   2006     1  0.0000000  0.6508444  3
   1994   1993   2005   2007     1  0.0000000  0.6508444  3
   1995   1993   2005   3773     1  0.0000000  1.0460000  1
   1995   1993   2005   3773     1  0.0000000  0.0000000  3
   1995   1993   2005   2006     1  0.0000000  0.6508444  3
   1995   1993   2005   2007     1  0.0000000  0.6508444  3
   1996   1984   1980   2009     1  0.0000000  0.6508444  3
   1997   1996   2002   3750     1  0.0000000  1.0460000  1
   1997   1996   2002   3750     1  0.0000000  0.0000000  3
   1997   1996   2002   2003     1  0.0000000  0.6508444  3
   1997   1996   2002   2004     1  0.0000000  0.6508444  3
   1998   1996   2002   3750     1  0.0000000  1.0460000  1
   1998   1996   2002   3750     1  0.0000000  0.0000000  3
   1998   1996   2002   2003     1  0.0000000  0.6508444  3
   1998   1996   2002   2004     1  0.0000000  0.6508444  3
   2002   3750   3746   3749     1  0.0000000  1.6038667  3
   2003   2002   3750   3746     1  0.0000000  1.6038667  3
   2004   2002   3750   3746     1  0.0000000  1.6038667  3
   2005   3773   3769   3772     1  0.0000000  1.6038667  3
   2006   2005   3773   3769     1  0.0000000  1.6038667  3
   2007   2005   3773   3769     1  0.0000000  1.6038667  3
   2010   2011   2023   2024     1  0.0000000  0.6508444  3
   2010   2011   2023   2025     1  0.0000000  0.6508444  3
   2010   2014   2026   2027     1  0.0000000  0.6508444  3
   2010   2014   2026   2028     1  0.0000000  0.6508444  3
   2010   2017   2020   2021     1  0.0000000  0.6508444  3
   2010   2017   2020   2022     1  0.0000000  0.6508444  3
   2011   2010   2014   2015     1  0.0000000  0.6508444  3
   2011   2010   2014   2016     1  0.0000000  0.6508444  3
   2011   2010   2017   2018     1  0.0000000  0.6508444  3
   2011   2010   2017   2019     1  0.0000000  0.6508444  3
   2011   2023   2035   2036     1  0.0000000  0.6508444  3
   2011   2023   2035   2037     1  0.0000000  0.6508444  3
   2012   2011   2010   2014     1  0.0000000  0.6508444  3
   2012   2011   2010   2017     1  0.0000000  0.6508444  3
   2012   2011   2010   2039     1  0.0000000  0.6508444  3
   2012   2011   2023   2035     1  0.0000000  0.6508444  3
   2012   2011   2023   2024     1  0.0000000  0.6508444  3
   2012   2011   2023   2025     1  0.0000000  0.6508444  3
   2013   2011   2010   2014     1  0.0000000  0.6508444  3
   2013   2011   2010   2017     1  0.0000000  0.6508444  3
   2013   2011   2010   2039     1  0.0000000  0.6508444  3
   2013   2011   2023   2035     1  0.0000000  0.6508444  3
   2013   2011   2023   2024     1  0.0000000  0.6508444  3
   2013   2011   2023   2025     1  0.0000000  0.6508444  3
   2014   2010   2017   2018     1  0.0000000  0.6508444  3
   2014   2010   2017   2019     1  0.0000000  0.6508444  3
   2014   2026   2032   2033     1  0.0000000  0.6508444  3
   2014   2026   2032   2034     1  0.0000000  0.6508444  3
   2015   2014   2010   2017     1  0.0000000  0.6508444  3
   2015   2014   2010   2039     1  0.0000000  0.6508444  3
   2015   2014   2026   2032     1  0.0000000  0.6508444  3
   2015   2014   2026   2027     1  0.0000000  0.6508444  3
   2015   2014   2026   2028     1  0.0000000  0.6508444  3
   2016   2014   2010   2017     1  0.0000000  0.6508444  3
   2016   2014   2010   2039     1  0.0000000  0.6508444  3
   2016   2014   2026   2032     1  0.0000000  0.6508444  3
   2016   2014   2026   2027     1  0.0000000  0.6508444  3
   2016   2014   2026   2028     1  0.0000000  0.6508444  3
   2017   2020   2029   2030     1  0.0000000  0.6508444  3
   2017   2020   2029   2031     1  0.0000000  0.6508444  3
   2018   2017   2010   2039     1  0.0000000  0.6508444  3
   2018   2017   2020   2029     1  0.0000000  0.6508444  3
   2018   2017   2020   2021     1  0.0000000  0.6508444  3
   2018   2017   2020   2022     1  0.0000000  0.6508444  3
   2019   2017   2010   2039     1  0.0000000  0.6508444  3
   2019   2017   2020   2029     1  0.0000000  0.6508444  3
   2019   2017   2020   2021     1  0.0000000  0.6508444  3
   2019   2017   2020   2022     1  0.0000000  0.6508444  3
   2020   2017   2010   2039     1  0.0000000  0.6508444  3
   2021   2020   2029   2038     1  0.0000000  1.0460000  1
   2021   2020   2029   2038     1  0.0000000  0.0000000  3
   2021   2020   2029   2030     1  0.0000000  0.6508444  3
   2021   2020   2029   2031     1  0.0000000  0.6508444  3
   2022   2020   2029   2038     1  0.0000000  1.0460000  1
   2022   2020   2029   2038     1  0.0000000  0.0000000  3
   2022   2020   2029   2030     1  0.0000000  0.6508444  3
   2022   2020   2029   2031     1  0.0000000  0.6508444  3
   2023   2011   2010   2039     1  0.0000000  0.6508444  3
   2024   2023   2035   3819     1  0.0000000  1.0460000  1
   2024   2023   2035   3819     1  0.0000000  0.0000000  3
   2024   2023   2035   2036     1  0.0000000  0.6508444  3
   2024   2023   2035   2037     1  0.0000000  0.6508444  3
   2025   2023   2035   3819     1  0.0000000  1.0460000  1
   2025   2023   2035   3819     1  0.0000000  0.0000000  3
   2025   2023   2035   2036     1  0.0000000  0.6508444  3
   2025   2023   2035   2037     1  0.0000000  0.6508444  3
   2026   2014   2010   2039     1  0.0000000  0.6508444  3
   2027   2026   2032   3796     1  0.0000000  1.0460000  1
   2027   2026   2032   3796     1  0.0000000  0.0000000  3
   2027   2026   2032   2033     1  0.0000000  0.6508444  3
   2027   2026   2032   2034     1  0.0000000  0.6508444  3
   2028   2026   2032   3796     1  0.0000000  1.0460000  1
   2028   2026   2032   3796     1  0.0000000  0.0000000  3
   2028   2026   2032   2033     1  0.0000000  0.6508444  3
   2028   2026   2032   2034     1  0.0000000  0.6508444  3
   2032   3796   3792   3795     1  0.0000000  1.6038667  3
   2033   2032   3796   3792     1  0.0000000  1.6038667  3
   2034   2032   3796   3792     1  0.0000000  1.6038667  3
   2035   3819   3815   3818     1  0.0000000  1.6038667  3
   2036   2035   3819   3815     1  0.0000000  1.6038667  3
   2037   2035   3819   3815     1  0.0000000  1.6038667  3
   2040   2041   2053   2054     1  0.0000000  0.6508444  3
   2040   2041   2053   2055     1  0.0000000  0.6508444  3
   2040   2044   2056   2057     1  0.0000000  0.6508444  3
   2040   2044   2056   2058     1  0.0000000  0.6508444  3
   2040   2047   2050   2051     1  0.0000000  0.6508444  3
   2040   2047   2050   2052     1  0.0000000  0.6508444  3
   2041   2040   2044   2045     1  0.0000000  0.6508444  3
   2041   2040   2044   2046     1  0.0000000  0.6508444  3
   2041   2040   2047   2048     1  0.0000000  0.6508444  3
   2041   2040   2047   2049     1  0.0000000  0.6508444  3
   2041   2053   2065   2066     1  0.0000000  0.6508444  3
   2041   2053   2065   2067     1  0.0000000  0.6508444  3
   2042   2041   2040   2044     1  0.0000000  0.6508444  3
   2042   2041   2040   2047     1  0.0000000  0.6508444  3
   2042   2041   2040   2069     1  0.0000000  0.6508444  3
   2042   2041   2053   2065     1  0.0000000  0.6508444  3
   2042   2041   2053   2054     1  0.0000000  0.6508444  3
   2042   2041   2053   2055     1  0.0000000  0.6508444  3
   2043   2041   2040   2044     1  0.0000000  0.6508444  3
   2043   2041   2040   2047     1  0.0000000  0.6508444  3
   2043   2041   2040   2069     1  0.0000000  0.6508444  3
   2043   2041   2053   2065     1  0.0000000  0.6508444  3
   2043   2041   2053   2054     1  0.0000000  0.6508444  3
   2043   2041   2053   2055     1  0.0000000  0.6508444  3
   2044   2040   2047   2048     1  0.0000000  0.6508444  3
   2044   2040   2047   2049     1  0.0000000  0.6508444  3
   2044   2056   2062   2063     1  0.0000000  0.6508444  3
   2044   2056   2062   2064     1  0.0000000  0.6508444  3
   2045   2044   2040   2047     1  0.0000000  0.6508444  3
   2045   2044   2040   2069     1  0.0000000  0.6508444  3
   2045   2044   2056   2062     1  0.0000000  0.6508444  3
   2045   2044   2056   2057     1  0.0000000  0.6508444  3
   2045   2044   2056   2058     1  0.0000000  0.6508444  3
   2046   2044   2040   2047     1  0.0000000  0.6508444  3
   2046   2044   2040   2069     1  0.0000000  0.6508444  3
   2046   2044   2056   2062     1  0.0000000  0.6508444  3
   2046   2044   2056   2057     1  0.0000000  0.6508444  3
   2046   2044   2056   2058     1  0.0000000  0.6508444  3
   2047   2050   2059   2060     1  0.0000000  0.6508444  3
   2047   2050   2059   2061     1  0.0000000  0.6508444  3
   2048   2047   2040   2069     1  0.0000000  0.6508444  3
   2048   2047   2050   2059     1  0.0000000  0.6508444  3
   2048   2047   2050   2051     1  0.0000000  0.6508444  3
   2048   2047   2050   2052     1  0.0000000  0.6508444  3
   2049   2047   2040   2069     1  0.0000000  0.6508444  3
   2049   2047   2050   2059     1  0.0000000  0.6508444  3
   2049   2047   2050   2051     1  0.0000000  0.6508444  3
   2049   2047   2050   2052     1  0.0000000  0.6508444  3
   2050   2047   2040   2069     1  0.0000000  0.6508444  3
   2051   2050   2059   2068     1  0.0000000  1.0460000  1
   2051   2050   2059   2068     1  0.0000000  0.0000000  3
   2051   2050   2059   2060     1  0.0000000  0.6508444  3
   2051   2050   2059   2061     1  0.0000000  0.6508444  3
   2052   2050   2059   2068     1  0.0000000  1.0460000  1
   2052   2050   2059   2068     1  0.0000000  0.0000000  3
   2052   2050   2059   2060     1  0.0000000  0.6508444  3
   2052   2050   2059   2061     1  0.0000000  0.6508444  3
   2053   2041   2040   2069     1  0.0000000  0.6508444  3
   2054   2053   2065   3865     1  0.0000000  1.0460000  1
   2054   2053   2065   3865     1  0.0000000  0.0000000  3
   2054   2053   2065   2066     1  0.0000000  0.6508444  3
   2054   2053   2065   2067     1  0.0000000  0.6508444  3
   2055   2053   2065   3865     1  0.0000000  1.0460000  1
   2055   2053   2065   3865     1  0.0000000  0.0000000  3
   2055   2053   2065   2066     1  0.0000000  0.6508444  3
   2055   2053   2065   2067     1  0.0000000  0.6508444  3
   2056   2044   2040   2069     1  0.0000000  0.6508444  3
   2057   2056   2062   3842     1  0.0000000  1.0460000  1
   2057   2056   2062   3842     1  0.0000000  0.0000000  3
   2057   2056   2062   2063     1  0.0000000  0.6508444  3
   2057   2056   2062   2064     1  0.0000000  0.6508444  3
   2058   2056   2062   3842     1  0.0000000  1.0460000  1
   2058   2056   2062   3842     1  0.0000000  0.0000000  3
   2058   2056   2062   2063     1  0.0000000  0.6508444  3
   2058   2056   2062   2064     1  0.0000000  0.6508444  3
   2062   3842   3838   3841     1  0.0000000  1.6038667  3
   2063   2062   3842   3838     1  0.0000000  1.6038667  3
   2064   2062   3842   3838     1  0.0000000  1.6038667  3
   2065   3865   3861   3864     1  0.0000000  1.6038667  3
   2066   2065   3865   3861     1  0.0000000  1.6038667  3
   2067   2065   3865   3861     1  0.0000000  1.6038667  3
   2070   2071   2083   2084     1  0.0000000  0.6508444  3
   2070   2071   2083   2085     1  0.0000000  0.6508444  3
   2070   2074   2086   2087     1  0.0000000  0.6508444  3
   2070   2074   2086   2088     1  0.0000000  0.6508444  3
   2070   2077   2080   2081     1  0.0000000  0.6508444  3
   2070   2077   2080   2082     1  0.0000000  0.6508444  3
   2071   2070   2074   2075     1  0.0000000  0.6508444  3
   2071   2070   2074   2076     1  0.0000000  0.6508444  3
   2071   2070   2077   2078     1  0.0000000  0.6508444  3
   2071   2070   2077   2079     1  0.0000000  0.6508444  3
   2071   2083   2095   2096     1  0.0000000  0.6508444  3
   2071   2083   2095   2097     1  0.0000000  0.6508444  3
   2072   2071   2070   2074     1  0.0000000  0.6508444  3
   2072   2071   2070   2077     1  0.0000000  0.6508444  3
   2072   2071   2070   2099     1  0.0000000  0.6508444  3
   2072   2071   2083   2095     1  0.0000000  0.6508444  3
   2072   2071   2083   2084     1  0.0000000  0.6508444  3
   2072   2071   2083   2085     1  0.0000000  0.6508444  3
   2073   2071   2070   2074     1  0.0000000  0.6508444  3
   2073   2071   2070   2077     1  0.0000000  0.6508444  3
   2073   2071   2070   2099     1  0.0000000  0.6508444  3
   2073   2071   2083   2095     1  0.0000000  0.6508444  3
   2073   2071   2083   2084     1  0.0000000  0.6508444  3
   2073   2071   2083   2085     1  0.0000000  0.6508444  3
   2074   2070   2077   2078     1  0.0000000  0.6508444  3
   2074   2070   2077   2079     1  0.0000000  0.6508444  3
   2074   2086   2092   2093     1  0.0000000  0.6508444  3
   2074   2086   2092   2094     1  0.0000000  0.6508444  3
   2075   2074   2070   2077     1  0.0000000  0.6508444  3
   2075   2074   2070   2099     1  0.0000000  0.6508444  3
   2075   2074   2086   2092     1  0.0000000  0.6508444  3
   2075   2074   2086   2087     1  0.0000000  0.6508444  3
   2075   2074   2086   2088     1  0.0000000  0.6508444  3
   2076   2074   2070   2077     1  0.0000000  0.6508444  3
   2076   2074   2070   2099     1  0.0000000  0.6508444  3
   2076   2074   2086   2092     1  0.0000000  0.6508444  3
   2076   2074   2086   2087     1  0.0000000  0.6508444  3
   2076   2074   2086   2088     1  0.0000000  0.6508444  3
   2077   2080   2089   2090     1  0.0000000  0.6508444  3
   2077   2080   2089   2091     1  0.0000000  0.6508444  3
   2078   2077   2070   2099     1  0.0000000  0.6508444  3
   2078   2077   2080   2089     1  0.0000000  0.6508444  3
   2078   2077   2080   2081     1  0.0000000  0.6508444  3
   2078   2077   2080   2082     1  0.0000000  0.6508444  3
   2079   2077   2070   2099     1  0.0000000  0.6508444  3
   2079   2077   2080   2089     1  0.0000000  0.6508444  3
   2079   2077   2080   2081     1  0.0000000  0.6508444  3
   2079   2077   2080   2082     1  0.0000000  0.6508444  3
   2080   2077   2070   2099     1  0.0000000  0.6508444  3
   2081   2080   2089   2098     1  0.0000000  1.0460000  1
   2081   2080   2089   2098     1  0.0000000  0.0000000  3
   2081   2080   2089   2090     1  0.0000000  0.6508444  3
   2081   2080   2089   2091     1  0.0000000  0.6508444  3
   2082   2080   2089   2098     1  0.0000000  1.0460000  1
   2082   2080   2089   2098     1  0.0000000  0.0000000  3
   2082   2080   2089   2090     1  0.0000000  0.6508444  3
   2082   2080   2089   2091     1  0.0000000  0.6508444  3
   2083   2071   2070   2099     1  0.0000000  0.6508444  3
   2084   2083   2095   3911     1  0.0000000  1.0460000  1
   2084   2083   2095   3911     1  0.0000000  0.0000000  3
   2084   2083   2095   2096     1  0.0000000  0.6508444  3
   2084   2083   2095   2097     1  0.0000000  0.6508444  3
   2085   2083   2095   3911     1  0.0000000  1.0460000  1
   2085   2083   2095   3911     1  0.0000000  0.0000000  3
   2085   2083   2095   2096     1  0.0000000  0.6508444  3
   2085   2083   2095   2097     1  0.0000000  0.6508444  3
   2086   2074   2070   2099     1  0.0000000  0.6508444  3
   2087   2086   2092   3888     1  0.0000000  1.0460000  1
   2087   2086   2092   3888     1  0.0000000  0.0000000  3
   2087   2086   2092   2093     1  0.0000000  0.6508444  3
   2087   2086   2092   2094     1  0.0000000  0.6508444  3
   2088   2086   2092   3888     1  0.0000000  1.0460000  1
   2088   2086   2092   3888     1  0.0000000  0.0000000  3
   2088   2086   2092   2093     1  0.0000000  0.6508444  3
   2088   2086   2092   2094     1  0.0000000  0.6508444  3
   2092   3888   3884   3887     1  0.0000000  1.6038667  3
   2093   2092   3888   3884     1  0.0000000  1.6038667  3
   2094   2092   3888   3884     1  0.0000000  1.6038667  3
   2095   3911   3907   3910     1  0.0000000  1.6038667  3
   2096   2095   3911   3907     1  0.0000000  1.6038667  3
   2097   2095   3911   3907     1  0.0000000  1.6038667  3
   2100   2101   2113   2114     1  0.0000000  0.6508444  3
   2100   2101   2113   2115     1  0.0000000  0.6508444  3
   2100   2104   2116   2117     1  0.0000000  0.6508444  3
   2100   2104   2116   2118     1  0.0000000  0.6508444  3
   2100   2107   2110   2111     1  0.0000000  0.6508444  3
   2100   2107   2110   2112     1  0.0000000  0.6508444  3
   2101   2100   2104   2105     1  0.0000000  0.6508444  3
   2101   2100   2104   2106     1  0.0000000  0.6508444  3
   2101   2100   2107   2108     1  0.0000000  0.6508444  3
   2101   2100   2107   2109     1  0.0000000  0.6508444  3
   2101   2113   2125   2126     1  0.0000000  0.6508444  3
   2101   2113   2125   2127     1  0.0000000  0.6508444  3
   2102   2101   2100   2104     1  0.0000000  0.6508444  3
   2102   2101   2100   2107     1  0.0000000  0.6508444  3
   2102   2101   2100   2129     1  0.0000000  0.6508444  3
   2102   2101   2113   2125     1  0.0000000  0.6508444  3
   2102   2101   2113   2114     1  0.0000000  0.6508444  3
   2102   2101   2113   2115     1  0.0000000  0.6508444  3
   2103   2101   2100   2104     1  0.0000000  0.6508444  3
   2103   2101   2100   2107     1  0.0000000  0.6508444  3
   2103   2101   2100   2129     1  0.0000000  0.6508444  3
   2103   2101   2113   2125     1  0.0000000  0.6508444  3
   2103   2101   2113   2114     1  0.0000000  0.6508444  3
   2103   2101   2113   2115     1  0.0000000  0.6508444  3
   2104   2100   2107   2108     1  0.0000000  0.6508444  3
   2104   2100   2107   2109     1  0.0000000  0.6508444  3
   2104   2116   2122   2123     1  0.0000000  0.6508444  3
   2104   2116   2122   2124     1  0.0000000  0.6508444  3
   2105   2104   2100   2107     1  0.0000000  0.6508444  3
   2105   2104   2100   2129     1  0.0000000  0.6508444  3
   2105   2104   2116   2122     1  0.0000000  0.6508444  3
   2105   2104   2116   2117     1  0.0000000  0.6508444  3
   2105   2104   2116   2118     1  0.0000000  0.6508444  3
   2106   2104   2100   2107     1  0.0000000  0.6508444  3
   2106   2104   2100   2129     1  0.0000000  0.6508444  3
   2106   2104   2116   2122     1  0.0000000  0.6508444  3
   2106   2104   2116   2117     1  0.0000000  0.6508444  3
   2106   2104   2116   2118     1  0.0000000  0.6508444  3
   2107   2110   2119   2120     1  0.0000000  0.6508444  3
   2107   2110   2119   2121     1  0.0000000  0.6508444  3
   2108   2107   2100   2129     1  0.0000000  0.6508444  3
   2108   2107   2110   2119     1  0.0000000  0.6508444  3
   2108   2107   2110   2111     1  0.0000000  0.6508444  3
   2108   2107   2110   2112     1  0.0000000  0.6508444  3
   2109   2107   2100   2129     1  0.0000000  0.6508444  3
   2109   2107   2110   2119     1  0.0000000  0.6508444  3
   2109   2107   2110   2111     1  0.0000000  0.6508444  3
   2109   2107   2110   2112     1  0.0000000  0.6508444  3
   2110   2107   2100   2129     1  0.0000000  0.6508444  3
   2111   2110   2119   2128     1  0.0000000  1.0460000  1
   2111   2110   2119   2128     1  0.0000000  0.0000000  3
   2111   2110   2119   2120     1  0.0000000  0.6508444  3
   2111   2110   2119   2121     1  0.0000000  0.6508444  3
   2112   2110   2119   2128     1  0.0000000  1.0460000  1
   2112   2110   2119   2128     1  0.0000000  0.0000000  3
   2112   2110   2119   2120     1  0.0000000  0.6508444  3
   2112   2110   2119   2121     1  0.0000000  0.6508444  3
   2113   2101   2100   2129     1  0.0000000  0.6508444  3
   2114   2113   2125   3957     1  0.0000000  1.0460000  1
   2114   2113   2125   3957     1  0.0000000  0.0000000  3
   2114   2113   2125   2126     1  0.0000000  0.6508444  3
   2114   2113   2125   2127     1  0.0000000  0.6508444  3
   2115   2113   2125   3957     1  0.0000000  1.0460000  1
   2115   2113   2125   3957     1  0.0000000  0.0000000  3
   2115   2113   2125   2126     1  0.0000000  0.6508444  3
   2115   2113   2125   2127     1  0.0000000  0.6508444  3
   2116   2104   2100   2129     1  0.0000000  0.6508444  3
   2117   2116   2122   3934     1  0.0000000  1.0460000  1
   2117   2116   2122   3934     1  0.0000000  0.0000000  3
   2117   2116   2122   2123     1  0.0000000  0.6508444  3
   2117   2116   2122   2124     1  0.0000000  0.6508444  3
   2118   2116   2122   3934     1  0.0000000  1.0460000  1
   2118   2116   2122   3934     1  0.0000000  0.0000000  3
   2118   2116   2122   2123     1  0.0000000  0.6508444  3
   2118   2116   2122   2124     1  0.0000000  0.6508444  3
   2122   3934   3930   3933     1  0.0000000  1.6038667  3
   2123   2122   3934   3930     1  0.0000000  1.6038667  3
   2124   2122   3934   3930     1  0.0000000  1.6038667  3
   2125   3957   3953   3956     1  0.0000000  1.6038667  3
   2126   2125   3957   3953     1  0.0000000  1.6038667  3
   2127   2125   3957   3953     1  0.0000000  1.6038667  3
   2130   2131   2143   2144     1  0.0000000  0.6508444  3
   2130   2131   2143   2145     1  0.0000000  0.6508444  3
   2130   2134   2146   2147     1  0.0000000  0.6508444  3
   2130   2134   2146   2148     1  0.0000000  0.6508444  3
   2130   2137   2140   2141     1  0.0000000  0.6508444  3
   2130   2137   2140   2142     1  0.0000000  0.6508444  3
   2131   2130   2134   2135     1  0.0000000  0.6508444  3
   2131   2130   2134   2136     1  0.0000000  0.6508444  3
   2131   2130   2137   2138     1  0.0000000  0.6508444  3
   2131   2130   2137   2139     1  0.0000000  0.6508444  3
   2131   2143   2155   2156     1  0.0000000  0.6508444  3
   2131   2143   2155   2157     1  0.0000000  0.6508444  3
   2132   2131   2130   2134     1  0.0000000  0.6508444  3
   2132   2131   2130   2137     1  0.0000000  0.6508444  3
   2132   2131   2130   2159     1  0.0000000  0.6508444  3
   2132   2131   2143   2155     1  0.0000000  0.6508444  3
   2132   2131   2143   2144     1  0.0000000  0.6508444  3
   2132   2131   2143   2145     1  0.0000000  0.6508444  3
   2133   2131   2130   2134     1  0.0000000  0.6508444  3
   2133   2131   2130   2137     1  0.0000000  0.6508444  3
   2133   2131   2130   2159     1  0.0000000  0.6508444  3
   2133   2131   2143   2155     1  0.0000000  0.6508444  3
   2133   2131   2143   2144     1  0.0000000  0.6508444  3
   2133   2131   2143   2145     1  0.0000000  0.6508444  3
   2134   2130   2137   2138     1  0.0000000  0.6508444  3
   2134   2130   2137   2139     1  0.0000000  0.6508444  3
   2134   2146   2152   2153     1  0.0000000  0.6508444  3
   2134   2146   2152   2154     1  0.0000000  0.6508444  3
   2135   2134   2130   2137     1  0.0000000  0.6508444  3
   2135   2134   2130   2159     1  0.0000000  0.6508444  3
   2135   2134   2146   2152     1  0.0000000  0.6508444  3
   2135   2134   2146   2147     1  0.0000000  0.6508444  3
   2135   2134   2146   2148     1  0.0000000  0.6508444  3
   2136   2134   2130   2137     1  0.0000000  0.6508444  3
   2136   2134   2130   2159     1  0.0000000  0.6508444  3
   2136   2134   2146   2152     1  0.0000000  0.6508444  3
   2136   2134   2146   2147     1  0.0000000  0.6508444  3
   2136   2134   2146   2148     1  0.0000000  0.6508444  3
   2137   2140   2149   2150     1  0.0000000  0.6508444  3
   2137   2140   2149   2151     1  0.0000000  0.6508444  3
   2138   2137   2130   2159     1  0.0000000  0.6508444  3
   2138   2137   2140   2149     1  0.0000000  0.6508444  3
   2138   2137   2140   2141     1  0.0000000  0.6508444  3
   2138   2137   2140   2142     1  0.0000000  0.6508444  3
   2139   2137   2130   2159     1  0.0000000  0.6508444  3
   2139   2137   2140   2149     1  0.0000000  0.6508444  3
   2139   2137   2140   2141     1  0.0000000  0.6508444  3
   2139   2137   2140   2142     1  0.0000000  0.6508444  3
   2140   2137   2130   2159     1  0.0000000  0.6508444  3
   2141   2140   2149   2158     1  0.0000000  1.0460000  1
   2141   2140   2149   2158     1  0.0000000  0.0000000  3
   2141   2140   2149   2150     1  0.0000000  0.6508444  3
   2141   2140   2149   2151     1  0.0000000  0.6508444  3
   2142   2140   2149   2158     1  0.0000000  1.0460000  1
   2142   2140   2149   2158     1  0.0000000  0.0000000  3
   2142   2140   2149   2150     1  0.0000000  0.6508444  3
   2142   2140   2149   2151     1  0.0000000  0.6508444  3
   2143   2131   2130   2159     1  0.0000000  0.6508444  3
   2144   2143   2155   4003     1  0.0000000  1.0460000  1
   2144   2143   2155   4003     1  0.0000000  0.0000000  3
   2144   2143   2155   2156     1  0.0000000  0.6508444  3
   2144   2143   2155   2157     1  0.0000000  0.6508444  3
   2145   2143   2155   4003     1  0.0000000  1.0460000  1
   2145   2143   2155   4003     1  0.0000000  0.0000000  3
   2145   2143   2155   2156     1  0.0000000  0.6508444  3
   2145   2143   2155   2157     1  0.0000000  0.6508444  3
   2146   2134   2130   2159     1  0.0000000  0.6508444  3
   2147   2146   2152   3980     1  0.0000000  1.0460000  1
   2147   2146   2152   3980     1  0.0000000  0.0000000  3
   2147   2146   2152   2153     1  0.0000000  0.6508444  3
   2147   2146   2152   2154     1  0.0000000  0.6508444  3
   2148   2146   2152   3980     1  0.0000000  1.0460000  1
   2148   2146   2152   3980     1  0.0000000  0.0000000  3
   2148   2146   2152   2153     1  0.0000000  0.6508444  3
   2148   2146   2152   2154     1  0.0000000  0.6508444  3
   2152   3980   3976   3979     1  0.0000000  1.6038667  3
   2153   2152   3980   3976     1  0.0000000  1.6038667  3
   2154   2152   3980   3976     1  0.0000000  1.6038667  3
   2155   4003   3999   4002     1  0.0000000  1.6038667  3
   2156   2155   4003   3999     1  0.0000000  1.6038667  3
   2157   2155   4003   3999     1  0.0000000  1.6038667  3
   2160   2161   2173   2174     1  0.0000000  0.6508444  3
   2160   2161   2173   2175     1  0.0000000  0.6508444  3
   2160   2164   2176   2177     1  0.0000000  0.6508444  3
   2160   2164   2176   2178     1  0.0000000  0.6508444  3
   2160   2167   2170   2171     1  0.0000000  0.6508444  3
   2160   2167   2170   2172     1  0.0000000  0.6508444  3
   2161   2160   2164   2165     1  0.0000000  0.6508444  3
   2161   2160   2164   2166     1  0.0000000  0.6508444  3
   2161   2160   2167   2168     1  0.0000000  0.6508444  3
   2161   2160   2167   2169     1  0.0000000  0.6508444  3
   2161   2173   2185   2186     1  0.0000000  0.6508444  3
   2161   2173   2185   2187     1  0.0000000  0.6508444  3
   2162   2161   2160   2164     1  0.0000000  0.6508444  3
   2162   2161   2160   2167     1  0.0000000  0.6508444  3
   2162   2161   2160   2189     1  0.0000000  0.6508444  3
   2162   2161   2173   2185     1  0.0000000  0.6508444  3
   2162   2161   2173   2174     1  0.0000000  0.6508444  3
   2162   2161   2173   2175     1  0.0000000  0.6508444  3
   2163   2161   2160   2164     1  0.0000000  0.6508444  3
   2163   2161   2160   2167     1  0.0000000  0.6508444  3
   2163   2161   2160   2189     1  0.0000000  0.6508444  3
   2163   2161   2173   2185     1  0.0000000  0.6508444  3
   2163   2161   2173   2174     1  0.0000000  0.6508444  3
   2163   2161   2173   2175     1  0.0000000  0.6508444  3
   2164   2160   2167   2168     1  0.0000000  0.6508444  3
   2164   2160   2167   2169     1  0.0000000  0.6508444  3
   2164   2176   2182   2183     1  0.0000000  0.6508444  3
   2164   2176   2182   2184     1  0.0000000  0.6508444  3
   2165   2164   2160   2167     1  0.0000000  0.6508444  3
   2165   2164   2160   2189     1  0.0000000  0.6508444  3
   2165   2164   2176   2182     1  0.0000000  0.6508444  3
   2165   2164   2176   2177     1  0.0000000  0.6508444  3
   2165   2164   2176   2178     1  0.0000000  0.6508444  3
   2166   2164   2160   2167     1  0.0000000  0.6508444  3
   2166   2164   2160   2189     1  0.0000000  0.6508444  3
   2166   2164   2176   2182     1  0.0000000  0.6508444  3
   2166   2164   2176   2177     1  0.0000000  0.6508444  3
   2166   2164   2176   2178     1  0.0000000  0.6508444  3
   2167   2170   2179   2180     1  0.0000000  0.6508444  3
   2167   2170   2179   2181     1  0.0000000  0.6508444  3
   2168   2167   2160   2189     1  0.0000000  0.6508444  3
   2168   2167   2170   2179     1  0.0000000  0.6508444  3
   2168   2167   2170   2171     1  0.0000000  0.6508444  3
   2168   2167   2170   2172     1  0.0000000  0.6508444  3
   2169   2167   2160   2189     1  0.0000000  0.6508444  3
   2169   2167   2170   2179     1  0.0000000  0.6508444  3
   2169   2167   2170   2171     1  0.0000000  0.6508444  3
   2169   2167   2170   2172     1  0.0000000  0.6508444  3
   2170   2167   2160   2189     1  0.0000000  0.6508444  3
   2171   2170   2179   2188     1  0.0000000  1.0460000  1
   2171   2170   2179   2188     1  0.0000000  0.0000000  3
   2171   2170   2179   2180     1  0.0000000  0.6508444  3
   2171   2170   2179   2181     1  0.0000000  0.6508444  3
   2172   2170   2179   2188     1  0.0000000  1.0460000  1
   2172   2170   2179   2188     1  0.0000000  0.0000000  3
   2172   2170   2179   2180     1  0.0000000  0.6508444  3
   2172   2170   2179   2181     1  0.0000000  0.6508444  3
   2173   2161   2160   2189     1  0.0000000  0.6508444  3
   2174   2173   2185   4049     1  0.0000000  1.0460000  1
   2174   2173   2185   4049     1  0.0000000  0.0000000  3
   2174   2173   2185   2186     1  0.0000000  0.6508444  3
   2174   2173   2185   2187     1  0.0000000  0.6508444  3
   2175   2173   2185   4049     1  0.0000000  1.0460000  1
   2175   2173   2185   4049     1  0.0000000  0.0000000  3
   2175   2173   2185   2186     1  0.0000000  0.6508444  3
   2175   2173   2185   2187     1  0.0000000  0.6508444  3
   2176   2164   2160   2189     1  0.0000000  0.6508444  3
   2177   2176   2182   4026     1  0.0000000  1.0460000  1
   2177   2176   2182   4026     1  0.0000000  0.0000000  3
   2177   2176   2182   2183     1  0.0000000  0.6508444  3
   2177   2176   2182   2184     1  0.0000000  0.6508444  3
   2178   2176   2182   4026     1  0.0000000  1.0460000  1
   2178   2176   2182   4026     1  0.0000000  0.0000000  3
   2178   2176   2182   2183     1  0.0000000  0.6508444  3
   2178   2176   2182   2184     1  0.0000000  0.6508444  3
   2182   4026   4022   4025     1  0.0000000  1.6038667  3
   2183   2182   4026   4022     1  0.0000000  1.6038667  3
   2184   2182   4026   4022     1  0.0000000  1.6038667  3
   2185   4049   4045   4048     1  0.0000000  1.6038667  3
   2186   2185   4049   4045     1  0.0000000  1.6038667  3
   2187   2185   4049   4045     1  0.0000000  1.6038667  3
   2190   2191   2203   2204     1  0.0000000  0.6508444  3
   2190   2191   2203   2205     1  0.0000000  0.6508444  3
   2190   2194   2206   2207     1  0.0000000  0.6508444  3
   2190   2194   2206   2208     1  0.0000000  0.6508444  3
   2190   2197   2200   2201     1  0.0000000  0.6508444  3
   2190   2197   2200   2202     1  0.0000000  0.6508444  3
   2191   2190   2194   2195     1  0.0000000  0.6508444  3
   2191   2190   2194   2196     1  0.0000000  0.6508444  3
   2191   2190   2197   2198     1  0.0000000  0.6508444  3
   2191   2190   2197   2199     1  0.0000000  0.6508444  3
   2191   2203   2215   2216     1  0.0000000  0.6508444  3
   2191   2203   2215   2217     1  0.0000000  0.6508444  3
   2192   2191   2190   2194     1  0.0000000  0.6508444  3
   2192   2191   2190   2197     1  0.0000000  0.6508444  3
   2192   2191   2190   2219     1  0.0000000  0.6508444  3
   2192   2191   2203   2215     1  0.0000000  0.6508444  3
   2192   2191   2203   2204     1  0.0000000  0.6508444  3
   2192   2191   2203   2205     1  0.0000000  0.6508444  3
   2193   2191   2190   2194     1  0.0000000  0.6508444  3
   2193   2191   2190   2197     1  0.0000000  0.6508444  3
   2193   2191   2190   2219     1  0.0000000  0.6508444  3
   2193   2191   2203   2215     1  0.0000000  0.6508444  3
   2193   2191   2203   2204     1  0.0000000  0.6508444  3
   2193   2191   2203   2205     1  0.0000000  0.6508444  3
   2194   2190   2197   2198     1  0.0000000  0.6508444  3
   2194   2190   2197   2199     1  0.0000000  0.6508444  3
   2194   2206   2212   2213     1  0.0000000  0.6508444  3
   2194   2206   2212   2214     1  0.0000000  0.6508444  3
   2195   2194   2190   2197     1  0.0000000  0.6508444  3
   2195   2194   2190   2219     1  0.0000000  0.6508444  3
   2195   2194   2206   2212     1  0.0000000  0.6508444  3
   2195   2194   2206   2207     1  0.0000000  0.6508444  3
   2195   2194   2206   2208     1  0.0000000  0.6508444  3
   2196   2194   2190   2197     1  0.0000000  0.6508444  3
   2196   2194   2190   2219     1  0.0000000  0.6508444  3
   2196   2194   2206   2212     1  0.0000000  0.6508444  3
   2196   2194   2206   2207     1  0.0000000  0.6508444  3
   2196   2194   2206   2208     1  0.0000000  0.6508444  3
   2197   2200   2209   2210     1  0.0000000  0.6508444  3
   2197   2200   2209   2211     1  0.0000000  0.6508444  3
   2198   2197   2190   2219     1  0.0000000  0.6508444  3
   2198   2197   2200   2209     1  0.0000000  0.6508444  3
   2198   2197   2200   2201     1  0.0000000  0.6508444  3
   2198   2197   2200   2202     1  0.0000000  0.6508444  3
   2199   2197   2190   2219     1  0.0000000  0.6508444  3
   2199   2197   2200   2209     1  0.0000000  0.6508444  3
   2199   2197   2200   2201     1  0.0000000  0.6508444  3
   2199   2197   2200   2202     1  0.0000000  0.6508444  3
   2200   2197   2190   2219     1  0.0000000  0.6508444  3
   2201   2200   2209   2218     1  0.0000000  1.0460000  1
   2201   2200   2209   2218     1  0.0000000  0.0000000  3
   2201   2200   2209   2210     1  0.0000000  0.6508444  3
   2201   2200   2209   2211     1  0.0000000  0.6508444  3
   2202   2200   2209   2218     1  0.0000000  1.0460000  1
   2202   2200   2209   2218     1  0.0000000  0.0000000  3
   2202   2200   2209   2210     1  0.0000000  0.6508444  3
   2202   2200   2209   2211     1  0.0000000  0.6508444  3
   2203   2191   2190   2219     1  0.0000000  0.6508444  3
   2204   2203   2215   4095     1  0.0000000  1.0460000  1
   2204   2203   2215   4095     1  0.0000000  0.0000000  3
   2204   2203   2215   2216     1  0.0000000  0.6508444  3
   2204   2203   2215   2217     1  0.0000000  0.6508444  3
   2205   2203   2215   4095     1  0.0000000  1.0460000  1
   2205   2203   2215   4095     1  0.0000000  0.0000000  3
   2205   2203   2215   2216     1  0.0000000  0.6508444  3
   2205   2203   2215   2217     1  0.0000000  0.6508444  3
   2206   2194   2190   2219     1  0.0000000  0.6508444  3
   2207   2206   2212   4072     1  0.0000000  1.0460000  1
   2207   2206   2212   4072     1  0.0000000  0.0000000  3
   2207   2206   2212   2213     1  0.0000000  0.6508444  3
   2207   2206   2212   2214     1  0.0000000  0.6508444  3
   2208   2206   2212   4072     1  0.0000000  1.0460000  1
   2208   2206   2212   4072     1  0.0000000  0.0000000  3
   2208   2206   2212   2213     1  0.0000000  0.6508444  3
   2208   2206   2212   2214     1  0.0000000  0.6508444  3
   2212   4072   4068   4071     1  0.0000000  1.6038667  3
   2213   2212   4072   4068     1  0.0000000  1.6038667  3
   2214   2212   4072   4068     1  0.0000000  1.6038667  3
   2215   4095   4091   4094     1  0.0000000  1.6038667  3
   2216   2215   4095   4091     1  0.0000000  1.6038667  3
   2217   2215   4095   4091     1  0.0000000  1.6038667  3
   2220   2221   2233   2234     1  0.0000000  0.6508444  3
   2220   2221   2233   2235     1  0.0000000  0.6508444  3
   2220   2224   2236   2237     1  0.0000000  0.6508444  3
   2220   2224   2236   2238     1  0.0000000  0.6508444  3
   2220   2227   2230   2231     1  0.0000000  0.6508444  3
   2220   2227   2230   2232     1  0.0000000  0.6508444  3
   2221   2220   2224   2225     1  0.0000000  0.6508444  3
   2221   2220   2224   2226     1  0.0000000  0.6508444  3
   2221   2220   2227   2228     1  0.0000000  0.6508444  3
   2221   2220   2227   2229     1  0.0000000  0.6508444  3
   2221   2233   2245   2246     1  0.0000000  0.6508444  3
   2221   2233   2245   2247     1  0.0000000  0.6508444  3
   2222   2221   2220   2224     1  0.0000000  0.6508444  3
   2222   2221   2220   2227     1  0.0000000  0.6508444  3
   2222   2221   2220   2249     1  0.0000000  0.6508444  3
   2222   2221   2233   2245     1  0.0000000  0.6508444  3
   2222   2221   2233   2234     1  0.0000000  0.6508444  3
   2222   2221   2233   2235     1  0.0000000  0.6508444  3
   2223   2221   2220   2224     1  0.0000000  0.6508444  3
   2223   2221   2220   2227     1  0.0000000  0.6508444  3
   2223   2221   2220   2249     1  0.0000000  0.6508444  3
   2223   2221   2233   2245     1  0.0000000  0.6508444  3
   2223   2221   2233   2234     1  0.0000000  0.6508444  3
   2223   2221   2233   2235     1  0.0000000  0.6508444  3
   2224   2220   2227   2228     1  0.0000000  0.6508444  3
   2224   2220   2227   2229     1  0.0000000  0.6508444  3
   2224   2236   2242   2243     1  0.0000000  0.6508444  3
   2224   2236   2242   2244     1  0.0000000  0.6508444  3
   2225   2224   2220   2227     1  0.0000000  0.6508444  3
   2225   2224   2220   2249     1  0.0000000  0.6508444  3
   2225   2224   2236   2242     1  0.0000000  0.6508444  3
   2225   2224   2236   2237     1  0.0000000  0.6508444  3
   2225   2224   2236   2238     1  0.0000000  0.6508444  3
   2226   2224   2220   2227     1  0.0000000  0.6508444  3
   2226   2224   2220   2249     1  0.0000000  0.6508444  3
   2226   2224   2236   2242     1  0.0000000  0.6508444  3
   2226   2224   2236   2237     1  0.0000000  0.6508444  3
   2226   2224   2236   2238     1  0.0000000  0.6508444  3
   2227   2230   2239   2240     1  0.0000000  0.6508444  3
   2227   2230   2239   2241     1  0.0000000  0.6508444  3
   2228   2227   2220   2249     1  0.0000000  0.6508444  3
   2228   2227   2230   2239     1  0.0000000  0.6508444  3
   2228   2227   2230   2231     1  0.0000000  0.6508444  3
   2228   2227   2230   2232     1  0.0000000  0.6508444  3
   2229   2227   2220   2249     1  0.0000000  0.6508444  3
   2229   2227   2230   2239     1  0.0000000  0.6508444  3
   2229   2227   2230   2231     1  0.0000000  0.6508444  3
   2229   2227   2230   2232     1  0.0000000  0.6508444  3
   2230   2227   2220   2249     1  0.0000000  0.6508444  3
   2231   2230   2239   2248     1  0.0000000  1.0460000  1
   2231   2230   2239   2248     1  0.0000000  0.0000000  3
   2231   2230   2239   2240     1  0.0000000  0.6508444  3
   2231   2230   2239   2241     1  0.0000000  0.6508444  3
   2232   2230   2239   2248     1  0.0000000  1.0460000  1
   2232   2230   2239   2248     1  0.0000000  0.0000000  3
   2232   2230   2239   2240     1  0.0000000  0.6508444  3
   2232   2230   2239   2241     1  0.0000000  0.6508444  3
   2233   2221   2220   2249     1  0.0000000  0.6508444  3
   2234   2233   2245   4141     1  0.0000000  1.0460000  1
   2234   2233   2245   4141     1  0.0000000  0.0000000  3
   2234   2233   2245   2246     1  0.0000000  0.6508444  3
   2234   2233   2245   2247     1  0.0000000  0.6508444  3
   2235   2233   2245   4141     1  0.0000000  1.0460000  1
   2235   2233   2245   4141     1  0.0000000  0.0000000  3
   2235   2233   2245   2246     1  0.0000000  0.6508444  3
   2235   2233   2245   2247     1  0.0000000  0.6508444  3
   2236   2224   2220   2249     1  0.0000000  0.6508444  3
   2237   2236   2242   4118     1  0.0000000  1.0460000  1
   2237   2236   2242   4118     1  0.0000000  0.0000000  3
   2237   2236   2242   2243     1  0.0000000  0.6508444  3
   2237   2236   2242   2244     1  0.0000000  0.6508444  3
   2238   2236   2242   4118     1  0.0000000  1.0460000  1
   2238   2236   2242   4118     1  0.0000000  0.0000000  3
   2238   2236   2242   2243     1  0.0000000  0.6508444  3
   2238   2236   2242   2244     1  0.0000000  0.6508444  3
   2242   4118   4114   4117     1  0.0000000  1.6038667  3
   2243   2242   4118   4114     1  0.0000000  1.6038667  3
   2244   2242   4118   4114     1  0.0000000  1.6038667  3
   2245   4141   4137   4140     1  0.0000000  1.6038667  3
   2246   2245   4141   4137     1  0.0000000  1.6038667  3
   2247   2245   4141   4137     1  0.0000000  1.6038667  3
   2250   2251   2263   2264     1  0.0000000  0.6508444  3
   2250   2251   2263   2265     1  0.0000000  0.6508444  3
   2250   2254   2266   2267     1  0.0000000  0.6508444  3
   2250   2254   2266   2268     1  0.0000000  0.6508444  3
   2250   2257   2260   2261     1  0.0000000  0.6508444  3
   2250   2257   2260   2262     1  0.0000000  0.6508444  3
   2251   2250   2254   2255     1  0.0000000  0.6508444  3
   2251   2250   2254   2256     1  0.0000000  0.6508444  3
   2251   2250   2257   2258     1  0.0000000  0.6508444  3
   2251   2250   2257   2259     1  0.0000000  0.6508444  3
   2251   2263   2275   2276     1  0.0000000  0.6508444  3
   2251   2263   2275   2277     1  0.0000000  0.6508444  3
   2252   2251   2250   2254     1  0.0000000  0.6508444  3
   2252   2251   2250   2257     1  0.0000000  0.6508444  3
   2252   2251   2250   2279     1  0.0000000  0.6508444  3
   2252   2251   2263   2275     1  0.0000000  0.6508444  3
   2252   2251   2263   2264     1  0.0000000  0.6508444  3
   2252   2251   2263   2265     1  0.0000000  0.6508444  3
   2253   2251   2250   2254     1  0.0000000  0.6508444  3
   2253   2251   2250   2257     1  0.0000000  0.6508444  3
   2253   2251   2250   2279     1  0.0000000  0.6508444  3
   2253   2251   2263   2275     1  0.0000000  0.6508444  3
   2253   2251   2263   2264     1  0.0000000  0.6508444  3
   2253   2251   2263   2265     1  0.0000000  0.6508444  3
   2254   2250   2257   2258     1  0.0000000  0.6508444  3
   2254   2250   2257   2259     1  0.0000000  0.6508444  3
   2254   2266   2272   2273     1  0.0000000  0.6508444  3
   2254   2266   2272   2274     1  0.0000000  0.6508444  3
   2255   2254   2250   2257     1  0.0000000  0.6508444  3
   2255   2254   2250   2279     1  0.0000000  0.6508444  3
   2255   2254   2266   2272     1  0.0000000  0.6508444  3
   2255   2254   2266   2267     1  0.0000000  0.6508444  3
   2255   2254   2266   2268     1  0.0000000  0.6508444  3
   2256   2254   2250   2257     1  0.0000000  0.6508444  3
   2256   2254   2250   2279     1  0.0000000  0.6508444  3
   2256   2254   2266   2272     1  0.0000000  0.6508444  3
   2256   2254   2266   2267     1  0.0000000  0.6508444  3
   2256   2254   2266   2268     1  0.0000000  0.6508444  3
   2257   2260   2269   2270     1  0.0000000  0.6508444  3
   2257   2260   2269   2271     1  0.0000000  0.6508444  3
   2258   2257   2250   2279     1  0.0000000  0.6508444  3
   2258   2257   2260   2269     1  0.0000000  0.6508444  3
   2258   2257   2260   2261     1  0.0000000  0.6508444  3
   2258   2257   2260   2262     1  0.0000000  0.6508444  3
   2259   2257   2250   2279     1  0.0000000  0.6508444  3
   2259   2257   2260   2269     1  0.0000000  0.6508444  3
   2259   2257   2260   2261     1  0.0000000  0.6508444  3
   2259   2257   2260   2262     1  0.0000000  0.6508444  3
   2260   2257   2250   2279     1  0.0000000  0.6508444  3
   2261   2260   2269   2278     1  0.0000000  1.0460000  1
   2261   2260   2269   2278     1  0.0000000  0.0000000  3
   2261   2260   2269   2270     1  0.0000000  0.6508444  3
   2261   2260   2269   2271     1  0.0000000  0.6508444  3
   2262   2260   2269   2278     1  0.0000000  1.0460000  1
   2262   2260   2269   2278     1  0.0000000  0.0000000  3
   2262   2260   2269   2270     1  0.0000000  0.6508444  3
   2262   2260   2269   2271     1  0.0000000  0.6508444  3
   2263   2251   2250   2279     1  0.0000000  0.6508444  3
   2264   2263   2275   4187     1  0.0000000  1.0460000  1
   2264   2263   2275   4187     1  0.0000000  0.0000000  3
   2264   2263   2275   2276     1  0.0000000  0.6508444  3
   2264   2263   2275   2277     1  0.0000000  0.6508444  3
   2265   2263   2275   4187     1  0.0000000  1.0460000  1
   2265   2263   2275   4187     1  0.0000000  0.0000000  3
   2265   2263   2275   2276     1  0.0000000  0.6508444  3
   2265   2263   2275   2277     1  0.0000000  0.6508444  3
   2266   2254   2250   2279     1  0.0000000  0.6508444  3
   2267   2266   2272   4164     1  0.0000000  1.0460000  1
   2267   2266   2272   4164     1  0.0000000  0.0000000  3
   2267   2266   2272   2273     1  0.0000000  0.6508444  3
   2267   2266   2272   2274     1  0.0000000  0.6508444  3
   2268   2266   2272   4164     1  0.0000000  1.0460000  1
   2268   2266   2272   4164     1  0.0000000  0.0000000  3
   2268   2266   2272   2273     1  0.0000000  0.6508444  3
   2268   2266   2272   2274     1  0.0000000  0.6508444  3
   2272   4164   4160   4163     1  0.0000000  1.6038667  3
   2273   2272   4164   4160     1  0.0000000  1.6038667  3
   2274   2272   4164   4160     1  0.0000000  1.6038667  3
   2275   4187   4183   4186     1  0.0000000  1.6038667  3
   2276   2275   4187   4183     1  0.0000000  1.6038667  3
   2277   2275   4187   4183     1  0.0000000  1.6038667  3
   2280   2281   2293   2294     1  0.0000000  0.6508444  3
   2280   2281   2293   2295     1  0.0000000  0.6508444  3
   2280   2284   2296   2297     1  0.0000000  0.6508444  3
   2280   2284   2296   2298     1  0.0000000  0.6508444  3
   2280   2287   2290   2291     1  0.0000000  0.6508444  3
   2280   2287   2290   2292     1  0.0000000  0.6508444  3
   2281   2280   2284   2285     1  0.0000000  0.6508444  3
   2281   2280   2284   2286     1  0.0000000  0.6508444  3
   2281   2280   2287   2288     1  0.0000000  0.6508444  3
   2281   2280   2287   2289     1  0.0000000  0.6508444  3
   2281   2293   2305   2306     1  0.0000000  0.6508444  3
   2281   2293   2305   2307     1  0.0000000  0.6508444  3
   2282   2281   2280   2284     1  0.0000000  0.6508444  3
   2282   2281   2280   2287     1  0.0000000  0.6508444  3
   2282   2281   2280   2309     1  0.0000000  0.6508444  3
   2282   2281   2293   2305     1  0.0000000  0.6508444  3
   2282   2281   2293   2294     1  0.0000000  0.6508444  3
   2282   2281   2293   2295     1  0.0000000  0.6508444  3
   2283   2281   2280   2284     1  0.0000000  0.6508444  3
   2283   2281   2280   2287     1  0.0000000  0.6508444  3
   2283   2281   2280   2309     1  0.0000000  0.6508444  3
   2283   2281   2293   2305     1  0.0000000  0.6508444  3
   2283   2281   2293   2294     1  0.0000000  0.6508444  3
   2283   2281   2293   2295     1  0.0000000  0.6508444  3
   2284   2280   2287   2288     1  0.0000000  0.6508444  3
   2284   2280   2287   2289     1  0.0000000  0.6508444  3
   2284   2296   2302   2303     1  0.0000000  0.6508444  3
   2284   2296   2302   2304     1  0.0000000  0.6508444  3
   2285   2284   2280   2287     1  0.0000000  0.6508444  3
   2285   2284   2280   2309     1  0.0000000  0.6508444  3
   2285   2284   2296   2302     1  0.0000000  0.6508444  3
   2285   2284   2296   2297     1  0.0000000  0.6508444  3
   2285   2284   2296   2298     1  0.0000000  0.6508444  3
   2286   2284   2280   2287     1  0.0000000  0.6508444  3
   2286   2284   2280   2309     1  0.0000000  0.6508444  3
   2286   2284   2296   2302     1  0.0000000  0.6508444  3
   2286   2284   2296   2297     1  0.0000000  0.6508444  3
   2286   2284   2296   2298     1  0.0000000  0.6508444  3
   2287   2290   2299   2300     1  0.0000000  0.6508444  3
   2287   2290   2299   2301     1  0.0000000  0.6508444  3
   2288   2287   2280   2309     1  0.0000000  0.6508444  3
   2288   2287   2290   2299     1  0.0000000  0.6508444  3
   2288   2287   2290   2291     1  0.0000000  0.6508444  3
   2288   2287   2290   2292     1  0.0000000  0.6508444  3
   2289   2287   2280   2309     1  0.0000000  0.6508444  3
   2289   2287   2290   2299     1  0.0000000  0.6508444  3
   2289   2287   2290   2291     1  0.0000000  0.6508444  3
   2289   2287   2290   2292     1  0.0000000  0.6508444  3
   2290   2287   2280   2309     1  0.0000000  0.6508444  3
   2291   2290   2299   2308     1  0.0000000  1.0460000  1
   2291   2290   2299   2308     1  0.0000000  0.0000000  3
   2291   2290   2299   2300     1  0.0000000  0.6508444  3
   2291   2290   2299   2301     1  0.0000000  0.6508444  3
   2292   2290   2299   2308     1  0.0000000  1.0460000  1
   2292   2290   2299   2308     1  0.0000000  0.0000000  3
   2292   2290   2299   2300     1  0.0000000  0.6508444  3
   2292   2290   2299   2301     1  0.0000000  0.6508444  3
   2293   2281   2280   2309     1  0.0000000  0.6508444  3
   2294   2293   2305   4233     1  0.0000000  1.0460000  1
   2294   2293   2305   4233     1  0.0000000  0.0000000  3
   2294   2293   2305   2306     1  0.0000000  0.6508444  3
   2294   2293   2305   2307     1  0.0000000  0.6508444  3
   2295   2293   2305   4233     1  0.0000000  1.0460000  1
   2295   2293   2305   4233     1  0.0000000  0.0000000  3
   2295   2293   2305   2306     1  0.0000000  0.6508444  3
   2295   2293   2305   2307     1  0.0000000  0.6508444  3
   2296   2284   2280   2309     1  0.0000000  0.6508444  3
   2297   2296   2302   4210     1  0.0000000  1.0460000  1
   2297   2296   2302   4210     1  0.0000000  0.0000000  3
   2297   2296   2302   2303     1  0.0000000  0.6508444  3
   2297   2296   2302   2304     1  0.0000000  0.6508444  3
   2298   2296   2302   4210     1  0.0000000  1.0460000  1
   2298   2296   2302   4210     1  0.0000000  0.0000000  3
   2298   2296   2302   2303     1  0.0000000  0.6508444  3
   2298   2296   2302   2304     1  0.0000000  0.6508444  3
   2302   4210   4206   4209     1  0.0000000  1.6038667  3
   2303   2302   4210   4206     1  0.0000000  1.6038667  3
   2304   2302   4210   4206     1  0.0000000  1.6038667  3
   2305   4233   4229   4232     1  0.0000000  1.6038667  3
   2306   2305   4233   4229     1  0.0000000  1.6038667  3
   2307   2305   4233   4229     1  0.0000000  1.6038667  3
   2310   2311   2323   2324     1  0.0000000  0.6508444  3
   2310   2311   2323   2325     1  0.0000000  0.6508444  3
   2310   2314   2326   2327     1  0.0000000  0.6508444  3
   2310   2314   2326   2328     1  0.0000000  0.6508444  3
   2310   2317   2320   2321     1  0.0000000  0.6508444  3
   2310   2317   2320   2322     1  0.0000000  0.6508444  3
   2311   2310   2314   2315     1  0.0000000  0.6508444  3
   2311   2310   2314   2316     1  0.0000000  0.6508444  3
   2311   2310   2317   2318     1  0.0000000  0.6508444  3
   2311   2310   2317   2319     1  0.0000000  0.6508444  3
   2311   2323   2335   2336     1  0.0000000  0.6508444  3
   2311   2323   2335   2337     1  0.0000000  0.6508444  3
   2312   2311   2310   2314     1  0.0000000  0.6508444  3
   2312   2311   2310   2317     1  0.0000000  0.6508444  3
   2312   2311   2310   2339     1  0.0000000  0.6508444  3
   2312   2311   2323   2335     1  0.0000000  0.6508444  3
   2312   2311   2323   2324     1  0.0000000  0.6508444  3
   2312   2311   2323   2325     1  0.0000000  0.6508444  3
   2313   2311   2310   2314     1  0.0000000  0.6508444  3
   2313   2311   2310   2317     1  0.0000000  0.6508444  3
   2313   2311   2310   2339     1  0.0000000  0.6508444  3
   2313   2311   2323   2335     1  0.0000000  0.6508444  3
   2313   2311   2323   2324     1  0.0000000  0.6508444  3
   2313   2311   2323   2325     1  0.0000000  0.6508444  3
   2314   2310   2317   2318     1  0.0000000  0.6508444  3
   2314   2310   2317   2319     1  0.0000000  0.6508444  3
   2314   2326   2332   2333     1  0.0000000  0.6508444  3
   2314   2326   2332   2334     1  0.0000000  0.6508444  3
   2315   2314   2310   2317     1  0.0000000  0.6508444  3
   2315   2314   2310   2339     1  0.0000000  0.6508444  3
   2315   2314   2326   2332     1  0.0000000  0.6508444  3
   2315   2314   2326   2327     1  0.0000000  0.6508444  3
   2315   2314   2326   2328     1  0.0000000  0.6508444  3
   2316   2314   2310   2317     1  0.0000000  0.6508444  3
   2316   2314   2310   2339     1  0.0000000  0.6508444  3
   2316   2314   2326   2332     1  0.0000000  0.6508444  3
   2316   2314   2326   2327     1  0.0000000  0.6508444  3
   2316   2314   2326   2328     1  0.0000000  0.6508444  3
   2317   2320   2329   2330     1  0.0000000  0.6508444  3
   2317   2320   2329   2331     1  0.0000000  0.6508444  3
   2318   2317   2310   2339     1  0.0000000  0.6508444  3
   2318   2317   2320   2329     1  0.0000000  0.6508444  3
   2318   2317   2320   2321     1  0.0000000  0.6508444  3
   2318   2317   2320   2322     1  0.0000000  0.6508444  3
   2319   2317   2310   2339     1  0.0000000  0.6508444  3
   2319   2317   2320   2329     1  0.0000000  0.6508444  3
   2319   2317   2320   2321     1  0.0000000  0.6508444  3
   2319   2317   2320   2322     1  0.0000000  0.6508444  3
   2320   2317   2310   2339     1  0.0000000  0.6508444  3
   2321   2320   2329   2338     1  0.0000000  1.0460000  1
   2321   2320   2329   2338     1  0.0000000  0.0000000  3
   2321   2320   2329   2330     1  0.0000000  0.6508444  3
   2321   2320   2329   2331     1  0.0000000  0.6508444  3
   2322   2320   2329   2338     1  0.0000000  1.0460000  1
   2322   2320   2329   2338     1  0.0000000  0.0000000  3
   2322   2320   2329   2330     1  0.0000000  0.6508444  3
   2322   2320   2329   2331     1  0.0000000  0.6508444  3
   2323   2311   2310   2339     1  0.0000000  0.6508444  3
   2324   2323   2335   4279     1  0.0000000  1.0460000  1
   2324   2323   2335   4279     1  0.0000000  0.0000000  3
   2324   2323   2335   2336     1  0.0000000  0.6508444  3
   2324   2323   2335   2337     1  0.0000000  0.6508444  3
   2325   2323   2335   4279     1  0.0000000  1.0460000  1
   2325   2323   2335   4279     1  0.0000000  0.0000000  3
   2325   2323   2335   2336     1  0.0000000  0.6508444  3
   2325   2323   2335   2337     1  0.0000000  0.6508444  3
   2326   2314   2310   2339     1  0.0000000  0.6508444  3
   2327   2326   2332   4256     1  0.0000000  1.0460000  1
   2327   2326   2332   4256     1  0.0000000  0.0000000  3
   2327   2326   2332   2333     1  0.0000000  0.6508444  3
   2327   2326   2332   2334     1  0.0000000  0.6508444  3
   2328   2326   2332   4256     1  0.0000000  1.0460000  1
   2328   2326   2332   4256     1  0.0000000  0.0000000  3
   2328   2326   2332   2333     1  0.0000000  0.6508444  3
   2328   2326   2332   2334     1  0.0000000  0.6508444  3
   2332   4256   4252   4255     1  0.0000000  1.6038667  3
   2333   2332   4256   4252     1  0.0000000  1.6038667  3
   2334   2332   4256   4252     1  0.0000000  1.6038667  3
   2335   4279   4275   4278     1  0.0000000  1.6038667  3
   2336   2335   4279   4275     1  0.0000000  1.6038667  3
   2337   2335   4279   4275     1  0.0000000  1.6038667  3
   2340   2341   2353   2354     1  0.0000000  0.6508444  3
   2340   2341   2353   2355     1  0.0000000  0.6508444  3
   2340   2344   2356   2357     1  0.0000000  0.6508444  3
   2340   2344   2356   2358     1  0.0000000  0.6508444  3
   2340   2347   2350   2351     1  0.0000000  0.6508444  3
   2340   2347   2350   2352     1  0.0000000  0.6508444  3
   2341   2340   2344   2345     1  0.0000000  0.6508444  3
   2341   2340   2344   2346     1  0.0000000  0.6508444  3
   2341   2340   2347   2348     1  0.0000000  0.6508444  3
   2341   2340   2347   2349     1  0.0000000  0.6508444  3
   2341   2353   2365   2366     1  0.0000000  0.6508444  3
   2341   2353   2365   2367     1  0.0000000  0.6508444  3
   2342   2341   2340   2344     1  0.0000000  0.6508444  3
   2342   2341   2340   2347     1  0.0000000  0.6508444  3
   2342   2341   2340   2369     1  0.0000000  0.6508444  3
   2342   2341   2353   2365     1  0.0000000  0.6508444  3
   2342   2341   2353   2354     1  0.0000000  0.6508444  3
   2342   2341   2353   2355     1  0.0000000  0.6508444  3
   2343   2341   2340   2344     1  0.0000000  0.6508444  3
   2343   2341   2340   2347     1  0.0000000  0.6508444  3
   2343   2341   2340   2369     1  0.0000000  0.6508444  3
   2343   2341   2353   2365     1  0.0000000  0.6508444  3
   2343   2341   2353   2354     1  0.0000000  0.6508444  3
   2343   2341   2353   2355     1  0.0000000  0.6508444  3
   2344   2340   2347   2348     1  0.0000000  0.6508444  3
   2344   2340   2347   2349     1  0.0000000  0.6508444  3
   2344   2356   2362   2363     1  0.0000000  0.6508444  3
   2344   2356   2362   2364     1  0.0000000  0.6508444  3
   2345   2344   2340   2347     1  0.0000000  0.6508444  3
   2345   2344   2340   2369     1  0.0000000  0.6508444  3
   2345   2344   2356   2362     1  0.0000000  0.6508444  3
   2345   2344   2356   2357     1  0.0000000  0.6508444  3
   2345   2344   2356   2358     1  0.0000000  0.6508444  3
   2346   2344   2340   2347     1  0.0000000  0.6508444  3
   2346   2344   2340   2369     1  0.0000000  0.6508444  3
   2346   2344   2356   2362     1  0.0000000  0.6508444  3
   2346   2344   2356   2357     1  0.0000000  0.6508444  3
   2346   2344   2356   2358     1  0.0000000  0.6508444  3
   2347   2350   2359   2360     1  0.0000000  0.6508444  3
   2347   2350   2359   2361     1  0.0000000  0.6508444  3
   2348   2347   2340   2369     1  0.0000000  0.6508444  3
   2348   2347   2350   2359     1  0.0000000  0.6508444  3
   2348   2347   2350   2351     1  0.0000000  0.6508444  3
   2348   2347   2350   2352     1  0.0000000  0.6508444  3
   2349   2347   2340   2369     1  0.0000000  0.6508444  3
   2349   2347   2350   2359     1  0.0000000  0.6508444  3
   2349   2347   2350   2351     1  0.0000000  0.6508444  3
   2349   2347   2350   2352     1  0.0000000  0.6508444  3
   2350   2347   2340   2369     1  0.0000000  0.6508444  3
   2351   2350   2359   2368     1  0.0000000  1.0460000  1
   2351   2350   2359   2368     1  0.0000000  0.0000000  3
   2351   2350   2359   2360     1  0.0000000  0.6508444  3
   2351   2350   2359   2361     1  0.0000000  0.6508444  3
   2352   2350   2359   2368     1  0.0000000  1.0460000  1
   2352   2350   2359   2368     1  0.0000000  0.0000000  3
   2352   2350   2359   2360     1  0.0000000  0.6508444  3
   2352   2350   2359   2361     1  0.0000000  0.6508444  3
   2353   2341   2340   2369     1  0.0000000  0.6508444  3
   2354   2353   2365   4325     1  0.0000000  1.0460000  1
   2354   2353   2365   4325     1  0.0000000  0.0000000  3
   2354   2353   2365   2366     1  0.0000000  0.6508444  3
   2354   2353   2365   2367     1  0.0000000  0.6508444  3
   2355   2353   2365   4325     1  0.0000000  1.0460000  1
   2355   2353   2365   4325     1  0.0000000  0.0000000  3
   2355   2353   2365   2366     1  0.0000000  0.6508444  3
   2355   2353   2365   2367     1  0.0000000  0.6508444  3
   2356   2344   2340   2369     1  0.0000000  0.6508444  3
   2357   2356   2362   4302     1  0.0000000  1.0460000  1
   2357   2356   2362   4302     1  0.0000000  0.0000000  3
   2357   2356   2362   2363     1  0.0000000  0.6508444  3
   2357   2356   2362   2364     1  0.0000000  0.6508444  3
   2358   2356   2362   4302     1  0.0000000  1.0460000  1
   2358   2356   2362   4302     1  0.0000000  0.0000000  3
   2358   2356   2362   2363     1  0.0000000  0.6508444  3
   2358   2356   2362   2364     1  0.0000000  0.6508444  3
   2362   4302   4298   4301     1  0.0000000  1.6038667  3
   2363   2362   4302   4298     1  0.0000000  1.6038667  3
   2364   2362   4302   4298     1  0.0000000  1.6038667  3
   2365   4325   4321   4324     1  0.0000000  1.6038667  3
   2366   2365   4325   4321     1  0.0000000  1.6038667  3
   2367   2365   4325   4321     1  0.0000000  1.6038667  3
   2370   2371   2383   2384     1  0.0000000  0.6508444  3
   2370   2371   2383   2385     1  0.0000000  0.6508444  3
   2370   2374   2386   2387     1  0.0000000  0.6508444  3
   2370   2374   2386   2388     1  0.0000000  0.6508444  3
   2370   2377   2380   2381     1  0.0000000  0.6508444  3
   2370   2377   2380   2382     1  0.0000000  0.6508444  3
   2371   2370   2374   2375     1  0.0000000  0.6508444  3
   2371   2370   2374   2376     1  0.0000000  0.6508444  3
   2371   2370   2377   2378     1  0.0000000  0.6508444  3
   2371   2370   2377   2379     1  0.0000000  0.6508444  3
   2371   2383   2395   2396     1  0.0000000  0.6508444  3
   2371   2383   2395   2397     1  0.0000000  0.6508444  3
   2372   2371   2370   2374     1  0.0000000  0.6508444  3
   2372   2371   2370   2377     1  0.0000000  0.6508444  3
   2372   2371   2370   2399     1  0.0000000  0.6508444  3
   2372   2371   2383   2395     1  0.0000000  0.6508444  3
   2372   2371   2383   2384     1  0.0000000  0.6508444  3
   2372   2371   2383   2385     1  0.0000000  0.6508444  3
   2373   2371   2370   2374     1  0.0000000  0.6508444  3
   2373   2371   2370   2377     1  0.0000000  0.6508444  3
   2373   2371   2370   2399     1  0.0000000  0.6508444  3
   2373   2371   2383   2395     1  0.0000000  0.6508444  3
   2373   2371   2383   2384     1  0.0000000  0.6508444  3
   2373   2371   2383   2385     1  0.0000000  0.6508444  3
   2374   2370   2377   2378     1  0.0000000  0.6508444  3
   2374   2370   2377   2379     1  0.0000000  0.6508444  3
   2374   2386   2392   2393     1  0.0000000  0.6508444  3
   2374   2386   2392   2394     1  0.0000000  0.6508444  3
   2375   2374   2370   2377     1  0.0000000  0.6508444  3
   2375   2374   2370   2399     1  0.0000000  0.6508444  3
   2375   2374   2386   2392     1  0.0000000  0.6508444  3
   2375   2374   2386   2387     1  0.0000000  0.6508444  3
   2375   2374   2386   2388     1  0.0000000  0.6508444  3
   2376   2374   2370   2377     1  0.0000000  0.6508444  3
   2376   2374   2370   2399     1  0.0000000  0.6508444  3
   2376   2374   2386   2392     1  0.0000000  0.6508444  3
   2376   2374   2386   2387     1  0.0000000  0.6508444  3
   2376   2374   2386   2388     1  0.0000000  0.6508444  3
   2377   2380   2389   2390     1  0.0000000  0.6508444  3
   2377   2380   2389   2391     1  0.0000000  0.6508444  3
   2378   2377   2370   2399     1  0.0000000  0.6508444  3
   2378   2377   2380   2389     1  0.0000000  0.6508444  3
   2378   2377   2380   2381     1  0.0000000  0.6508444  3
   2378   2377   2380   2382     1  0.0000000  0.6508444  3
   2379   2377   2370   2399     1  0.0000000  0.6508444  3
   2379   2377   2380   2389     1  0.0000000  0.6508444  3
   2379   2377   2380   2381     1  0.0000000  0.6508444  3
   2379   2377   2380   2382     1  0.0000000  0.6508444  3
   2380   2377   2370   2399     1  0.0000000  0.6508444  3
   2381   2380   2389   2398     1  0.0000000  1.0460000  1
   2381   2380   2389   2398     1  0.0000000  0.0000000  3
   2381   2380   2389   2390     1  0.0000000  0.6508444  3
   2381   2380   2389   2391     1  0.0000000  0.6508444  3
   2382   2380   2389   2398     1  0.0000000  1.0460000  1
   2382   2380   2389   2398     1  0.0000000  0.0000000  3
   2382   2380   2389   2390     1  0.0000000  0.6508444  3
   2382   2380   2389   2391     1  0.0000000  0.6508444  3
   2383   2371   2370   2399     1  0.0000000  0.6508444  3
   2384   2383   2395   4371     1  0.0000000  1.0460000  1
   2384   2383   2395   4371     1  0.0000000  0.0000000  3
   2384   2383   2395   2396     1  0.0000000  0.6508444  3
   2384   2383   2395   2397     1  0.0000000  0.6508444  3
   2385   2383   2395   4371     1  0.0000000  1.0460000  1
   2385   2383   2395   4371     1  0.0000000  0.0000000  3
   2385   2383   2395   2396     1  0.0000000  0.6508444  3
   2385   2383   2395   2397     1  0.0000000  0.6508444  3
   2386   2374   2370   2399     1  0.0000000  0.6508444  3
   2387   2386   2392   4348     1  0.0000000  1.0460000  1
   2387   2386   2392   4348     1  0.0000000  0.0000000  3
   2387   2386   2392   2393     1  0.0000000  0.6508444  3
   2387   2386   2392   2394     1  0.0000000  0.6508444  3
   2388   2386   2392   4348     1  0.0000000  1.0460000  1
   2388   2386   2392   4348     1  0.0000000  0.0000000  3
   2388   2386   2392   2393     1  0.0000000  0.6508444  3
   2388   2386   2392   2394     1  0.0000000  0.6508444  3
   2392   4348   4344   4347     1  0.0000000  1.6038667  3
   2393   2392   4348   4344     1  0.0000000  1.6038667  3
   2394   2392   4348   4344     1  0.0000000  1.6038667  3
   2395   4371   4367   4370     1  0.0000000  1.6038667  3
   2396   2395   4371   4367     1  0.0000000  1.6038667  3
   2397   2395   4371   4367     1  0.0000000  1.6038667  3
   2400   2401   2413   2414     1  0.0000000  0.6508444  3
   2400   2401   2413   2415     1  0.0000000  0.6508444  3
   2400   2404   2416   2417     1  0.0000000  0.6508444  3
   2400   2404   2416   2418     1  0.0000000  0.6508444  3
   2400   2407   2410   2411     1  0.0000000  0.6508444  3
   2400   2407   2410   2412     1  0.0000000  0.6508444  3
   2401   2400   2404   2405     1  0.0000000  0.6508444  3
   2401   2400   2404   2406     1  0.0000000  0.6508444  3
   2401   2400   2407   2408     1  0.0000000  0.6508444  3
   2401   2400   2407   2409     1  0.0000000  0.6508444  3
   2401   2413   2425   2426     1  0.0000000  0.6508444  3
   2401   2413   2425   2427     1  0.0000000  0.6508444  3
   2402   2401   2400   2404     1  0.0000000  0.6508444  3
   2402   2401   2400   2407     1  0.0000000  0.6508444  3
   2402   2401   2400   2429     1  0.0000000  0.6508444  3
   2402   2401   2413   2425     1  0.0000000  0.6508444  3
   2402   2401   2413   2414     1  0.0000000  0.6508444  3
   2402   2401   2413   2415     1  0.0000000  0.6508444  3
   2403   2401   2400   2404     1  0.0000000  0.6508444  3
   2403   2401   2400   2407     1  0.0000000  0.6508444  3
   2403   2401   2400   2429     1  0.0000000  0.6508444  3
   2403   2401   2413   2425     1  0.0000000  0.6508444  3
   2403   2401   2413   2414     1  0.0000000  0.6508444  3
   2403   2401   2413   2415     1  0.0000000  0.6508444  3
   2404   2400   2407   2408     1  0.0000000  0.6508444  3
   2404   2400   2407   2409     1  0.0000000  0.6508444  3
   2404   2416   2422   2423     1  0.0000000  0.6508444  3
   2404   2416   2422   2424     1  0.0000000  0.6508444  3
   2405   2404   2400   2407     1  0.0000000  0.6508444  3
   2405   2404   2400   2429     1  0.0000000  0.6508444  3
   2405   2404   2416   2422     1  0.0000000  0.6508444  3
   2405   2404   2416   2417     1  0.0000000  0.6508444  3
   2405   2404   2416   2418     1  0.0000000  0.6508444  3
   2406   2404   2400   2407     1  0.0000000  0.6508444  3
   2406   2404   2400   2429     1  0.0000000  0.6508444  3
   2406   2404   2416   2422     1  0.0000000  0.6508444  3
   2406   2404   2416   2417     1  0.0000000  0.6508444  3
   2406   2404   2416   2418     1  0.0000000  0.6508444  3
   2407   2410   2419   2420     1  0.0000000  0.6508444  3
   2407   2410   2419   2421     1  0.0000000  0.6508444  3
   2408   2407   2400   2429     1  0.0000000  0.6508444  3
   2408   2407   2410   2419     1  0.0000000  0.6508444  3
   2408   2407   2410   2411     1  0.0000000  0.6508444  3
   2408   2407   2410   2412     1  0.0000000  0.6508444  3
   2409   2407   2400   2429     1  0.0000000  0.6508444  3
   2409   2407   2410   2419     1  0.0000000  0.6508444  3
   2409   2407   2410   2411     1  0.0000000  0.6508444  3
   2409   2407   2410   2412     1  0.0000000  0.6508444  3
   2410   2407   2400   2429     1  0.0000000  0.6508444  3
   2411   2410   2419   2428     1  0.0000000  1.0460000  1
   2411   2410   2419   2428     1  0.0000000  0.0000000  3
   2411   2410   2419   2420     1  0.0000000  0.6508444  3
   2411   2410   2419   2421     1  0.0000000  0.6508444  3
   2412   2410   2419   2428     1  0.0000000  1.0460000  1
   2412   2410   2419   2428     1  0.0000000  0.0000000  3
   2412   2410   2419   2420     1  0.0000000  0.6508444  3
   2412   2410   2419   2421     1  0.0000000  0.6508444  3
   2413   2401   2400   2429     1  0.0000000  0.6508444  3
   2414   2413   2425   4417     1  0.0000000  1.0460000  1
   2414   2413   2425   4417     1  0.0000000  0.0000000  3
   2414   2413   2425   2426     1  0.0000000  0.6508444  3
   2414   2413   2425   2427     1  0.0000000  0.6508444  3
   2415   2413   2425   4417     1  0.0000000  1.0460000  1
   2415   2413   2425   4417     1  0.0000000  0.0000000  3
   2415   2413   2425   2426     1  0.0000000  0.6508444  3
   2415   2413   2425   2427     1  0.0000000  0.6508444  3
   2416   2404   2400   2429     1  0.0000000  0.6508444  3
   2417   2416   2422   4394     1  0.0000000  1.0460000  1
   2417   2416   2422   4394     1  0.0000000  0.0000000  3
   2417   2416   2422   2423     1  0.0000000  0.6508444  3
   2417   2416   2422   2424     1  0.0000000  0.6508444  3
   2418   2416   2422   4394     1  0.0000000  1.0460000  1
   2418   2416   2422   4394     1  0.0000000  0.0000000  3
   2418   2416   2422   2423     1  0.0000000  0.6508444  3
   2418   2416   2422   2424     1  0.0000000  0.6508444  3
   2422   4394   4390   4393     1  0.0000000  1.6038667  3
   2423   2422   4394   4390     1  0.0000000  1.6038667  3
   2424   2422   4394   4390     1  0.0000000  1.6038667  3
   2425   4417   4413   4416     1  0.0000000  1.6038667  3
   2426   2425   4417   4413     1  0.0000000  1.6038667  3
   2427   2425   4417   4413     1  0.0000000  1.6038667  3
   2430   2431   2443   2444     1  0.0000000  0.6508444  3
   2430   2431   2443   2445     1  0.0000000  0.6508444  3
   2430   2434   2446   2447     1  0.0000000  0.6508444  3
   2430   2434   2446   2448     1  0.0000000  0.6508444  3
   2430   2437   2440   2441     1  0.0000000  0.6508444  3
   2430   2437   2440   2442     1  0.0000000  0.6508444  3
   2431   2430   2434   2435     1  0.0000000  0.6508444  3
   2431   2430   2434   2436     1  0.0000000  0.6508444  3
   2431   2430   2437   2438     1  0.0000000  0.6508444  3
   2431   2430   2437   2439     1  0.0000000  0.6508444  3
   2431   2443   2455   2456     1  0.0000000  0.6508444  3
   2431   2443   2455   2457     1  0.0000000  0.6508444  3
   2432   2431   2430   2434     1  0.0000000  0.6508444  3
   2432   2431   2430   2437     1  0.0000000  0.6508444  3
   2432   2431   2430   2459     1  0.0000000  0.6508444  3
   2432   2431   2443   2455     1  0.0000000  0.6508444  3
   2432   2431   2443   2444     1  0.0000000  0.6508444  3
   2432   2431   2443   2445     1  0.0000000  0.6508444  3
   2433   2431   2430   2434     1  0.0000000  0.6508444  3
   2433   2431   2430   2437     1  0.0000000  0.6508444  3
   2433   2431   2430   2459     1  0.0000000  0.6508444  3
   2433   2431   2443   2455     1  0.0000000  0.6508444  3
   2433   2431   2443   2444     1  0.0000000  0.6508444  3
   2433   2431   2443   2445     1  0.0000000  0.6508444  3
   2434   2430   2437   2438     1  0.0000000  0.6508444  3
   2434   2430   2437   2439     1  0.0000000  0.6508444  3
   2434   2446   2452   2453     1  0.0000000  0.6508444  3
   2434   2446   2452   2454     1  0.0000000  0.6508444  3
   2435   2434   2430   2437     1  0.0000000  0.6508444  3
   2435   2434   2430   2459     1  0.0000000  0.6508444  3
   2435   2434   2446   2452     1  0.0000000  0.6508444  3
   2435   2434   2446   2447     1  0.0000000  0.6508444  3
   2435   2434   2446   2448     1  0.0000000  0.6508444  3
   2436   2434   2430   2437     1  0.0000000  0.6508444  3
   2436   2434   2430   2459     1  0.0000000  0.6508444  3
   2436   2434   2446   2452     1  0.0000000  0.6508444  3
   2436   2434   2446   2447     1  0.0000000  0.6508444  3
   2436   2434   2446   2448     1  0.0000000  0.6508444  3
   2437   2440   2449   2450     1  0.0000000  0.6508444  3
   2437   2440   2449   2451     1  0.0000000  0.6508444  3
   2438   2437   2430   2459     1  0.0000000  0.6508444  3
   2438   2437   2440   2449     1  0.0000000  0.6508444  3
   2438   2437   2440   2441     1  0.0000000  0.6508444  3
   2438   2437   2440   2442     1  0.0000000  0.6508444  3
   2439   2437   2430   2459     1  0.0000000  0.6508444  3
   2439   2437   2440   2449     1  0.0000000  0.6508444  3
   2439   2437   2440   2441     1  0.0000000  0.6508444  3
   2439   2437   2440   2442     1  0.0000000  0.6508444  3
   2440   2437   2430   2459     1  0.0000000  0.6508444  3
   2441   2440   2449   2458     1  0.0000000  1.0460000  1
   2441   2440   2449   2458     1  0.0000000  0.0000000  3
   2441   2440   2449   2450     1  0.0000000  0.6508444  3
   2441   2440   2449   2451     1  0.0000000  0.6508444  3
   2442   2440   2449   2458     1  0.0000000  1.0460000  1
   2442   2440   2449   2458     1  0.0000000  0.0000000  3
   2442   2440   2449   2450     1  0.0000000  0.6508444  3
   2442   2440   2449   2451     1  0.0000000  0.6508444  3
   2443   2431   2430   2459     1  0.0000000  0.6508444  3
   2444   2443   2455   4463     1  0.0000000  1.0460000  1
   2444   2443   2455   4463     1  0.0000000  0.0000000  3
   2444   2443   2455   2456     1  0.0000000  0.6508444  3
   2444   2443   2455   2457     1  0.0000000  0.6508444  3
   2445   2443   2455   4463     1  0.0000000  1.0460000  1
   2445   2443   2455   4463     1  0.0000000  0.0000000  3
   2445   2443   2455   2456     1  0.0000000  0.6508444  3
   2445   2443   2455   2457     1  0.0000000  0.6508444  3
   2446   2434   2430   2459     1  0.0000000  0.6508444  3
   2447   2446   2452   4440     1  0.0000000  1.0460000  1
   2447   2446   2452   4440     1  0.0000000  0.0000000  3
   2447   2446   2452   2453     1  0.0000000  0.6508444  3
   2447   2446   2452   2454     1  0.0000000  0.6508444  3
   2448   2446   2452   4440     1  0.0000000  1.0460000  1
   2448   2446   2452   4440     1  0.0000000  0.0000000  3
   2448   2446   2452   2453     1  0.0000000  0.6508444  3
   2448   2446   2452   2454     1  0.0000000  0.6508444  3
   2452   4440   4436   4439     1  0.0000000  1.6038667  3
   2453   2452   4440   4436     1  0.0000000  1.6038667  3
   2454   2452   4440   4436     1  0.0000000  1.6038667  3
   2455   4463   4459   4462     1  0.0000000  1.6038667  3
   2456   2455   4463   4459     1  0.0000000  1.6038667  3
   2457   2455   4463   4459     1  0.0000000  1.6038667  3
   2460   2461   2473   2474     1  0.0000000  0.6508444  3
   2460   2461   2473   2475     1  0.0000000  0.6508444  3
   2460   2464   2476   2477     1  0.0000000  0.6508444  3
   2460   2464   2476   2478     1  0.0000000  0.6508444  3
   2460   2467   2470   2471     1  0.0000000  0.6508444  3
   2460   2467   2470   2472     1  0.0000000  0.6508444  3
   2461   2460   2464   2465     1  0.0000000  0.6508444  3
   2461   2460   2464   2466     1  0.0000000  0.6508444  3
   2461   2460   2467   2468     1  0.0000000  0.6508444  3
   2461   2460   2467   2469     1  0.0000000  0.6508444  3
   2461   2473   2485   2486     1  0.0000000  0.6508444  3
   2461   2473   2485   2487     1  0.0000000  0.6508444  3
   2462   2461   2460   2464     1  0.0000000  0.6508444  3
   2462   2461   2460   2467     1  0.0000000  0.6508444  3
   2462   2461   2460   2489     1  0.0000000  0.6508444  3
   2462   2461   2473   2485     1  0.0000000  0.6508444  3
   2462   2461   2473   2474     1  0.0000000  0.6508444  3
   2462   2461   2473   2475     1  0.0000000  0.6508444  3
   2463   2461   2460   2464     1  0.0000000  0.6508444  3
   2463   2461   2460   2467     1  0.0000000  0.6508444  3
   2463   2461   2460   2489     1  0.0000000  0.6508444  3
   2463   2461   2473   2485     1  0.0000000  0.6508444  3
   2463   2461   2473   2474     1  0.0000000  0.6508444  3
   2463   2461   2473   2475     1  0.0000000  0.6508444  3
   2464   2460   2467   2468     1  0.0000000  0.6508444  3
   2464   2460   2467   2469     1  0.0000000  0.6508444  3
   2464   2476   2482   2483     1  0.0000000  0.6508444  3
   2464   2476   2482   2484     1  0.0000000  0.6508444  3
   2465   2464   2460   2467     1  0.0000000  0.6508444  3
   2465   2464   2460   2489     1  0.0000000  0.6508444  3
   2465   2464   2476   2482     1  0.0000000  0.6508444  3
   2465   2464   2476   2477     1  0.0000000  0.6508444  3
   2465   2464   2476   2478     1  0.0000000  0.6508444  3
   2466   2464   2460   2467     1  0.0000000  0.6508444  3
   2466   2464   2460   2489     1  0.0000000  0.6508444  3
   2466   2464   2476   2482     1  0.0000000  0.6508444  3
   2466   2464   2476   2477     1  0.0000000  0.6508444  3
   2466   2464   2476   2478     1  0.0000000  0.6508444  3
   2467   2470   2479   2480     1  0.0000000  0.6508444  3
   2467   2470   2479   2481     1  0.0000000  0.6508444  3
   2468   2467   2460   2489     1  0.0000000  0.6508444  3
   2468   2467   2470   2479     1  0.0000000  0.6508444  3
   2468   2467   2470   2471     1  0.0000000  0.6508444  3
   2468   2467   2470   2472     1  0.0000000  0.6508444  3
   2469   2467   2460   2489     1  0.0000000  0.6508444  3
   2469   2467   2470   2479     1  0.0000000  0.6508444  3
   2469   2467   2470   2471     1  0.0000000  0.6508444  3
   2469   2467   2470   2472     1  0.0000000  0.6508444  3
   2470   2467   2460   2489     1  0.0000000  0.6508444  3
   2471   2470   2479   2488     1  0.0000000  1.0460000  1
   2471   2470   2479   2488     1  0.0000000  0.0000000  3
   2471   2470   2479   2480     1  0.0000000  0.6508444  3
   2471   2470   2479   2481     1  0.0000000  0.6508444  3
   2472   2470   2479   2488     1  0.0000000  1.0460000  1
   2472   2470   2479   2488     1  0.0000000  0.0000000  3
   2472   2470   2479   2480     1  0.0000000  0.6508444  3
   2472   2470   2479   2481     1  0.0000000  0.6508444  3
   2473   2461   2460   2489     1  0.0000000  0.6508444  3
   2474   2473   2485   4509     1  0.0000000  1.0460000  1
   2474   2473   2485   4509     1  0.0000000  0.0000000  3
   2474   2473   2485   2486     1  0.0000000  0.6508444  3
   2474   2473   2485   2487     1  0.0000000  0.6508444  3
   2475   2473   2485   4509     1  0.0000000  1.0460000  1
   2475   2473   2485   4509     1  0.0000000  0.0000000  3
   2475   2473   2485   2486     1  0.0000000  0.6508444  3
   2475   2473   2485   2487     1  0.0000000  0.6508444  3
   2476   2464   2460   2489     1  0.0000000  0.6508444  3
   2477   2476   2482   4486     1  0.0000000  1.0460000  1
   2477   2476   2482   4486     1  0.0000000  0.0000000  3
   2477   2476   2482   2483     1  0.0000000  0.6508444  3
   2477   2476   2482   2484     1  0.0000000  0.6508444  3
   2478   2476   2482   4486     1  0.0000000  1.0460000  1
   2478   2476   2482   4486     1  0.0000000  0.0000000  3
   2478   2476   2482   2483     1  0.0000000  0.6508444  3
   2478   2476   2482   2484     1  0.0000000  0.6508444  3
   2482   4486   4482   4485     1  0.0000000  1.6038667  3
   2483   2482   4486   4482     1  0.0000000  1.6038667  3
   2484   2482   4486   4482     1  0.0000000  1.6038667  3
   2485   4509   4505   4508     1  0.0000000  1.6038667  3
   2486   2485   4509   4505     1  0.0000000  1.6038667  3
   2487   2485   4509   4505     1  0.0000000  1.6038667  3
   2490   2491   2503   2504     1  0.0000000  0.6508444  3
   2490   2491   2503   2505     1  0.0000000  0.6508444  3
   2490   2494   2506   2507     1  0.0000000  0.6508444  3
   2490   2494   2506   2508     1  0.0000000  0.6508444  3
   2490   2497   2500   2501     1  0.0000000  0.6508444  3
   2490   2497   2500   2502     1  0.0000000  0.6508444  3
   2491   2490   2494   2495     1  0.0000000  0.6508444  3
   2491   2490   2494   2496     1  0.0000000  0.6508444  3
   2491   2490   2497   2498     1  0.0000000  0.6508444  3
   2491   2490   2497   2499     1  0.0000000  0.6508444  3
   2491   2503   2515   2516     1  0.0000000  0.6508444  3
   2491   2503   2515   2517     1  0.0000000  0.6508444  3
   2492   2491   2490   2494     1  0.0000000  0.6508444  3
   2492   2491   2490   2497     1  0.0000000  0.6508444  3
   2492   2491   2490   2519     1  0.0000000  0.6508444  3
   2492   2491   2503   2515     1  0.0000000  0.6508444  3
   2492   2491   2503   2504     1  0.0000000  0.6508444  3
   2492   2491   2503   2505     1  0.0000000  0.6508444  3
   2493   2491   2490   2494     1  0.0000000  0.6508444  3
   2493   2491   2490   2497     1  0.0000000  0.6508444  3
   2493   2491   2490   2519     1  0.0000000  0.6508444  3
   2493   2491   2503   2515     1  0.0000000  0.6508444  3
   2493   2491   2503   2504     1  0.0000000  0.6508444  3
   2493   2491   2503   2505     1  0.0000000  0.6508444  3
   2494   2490   2497   2498     1  0.0000000  0.6508444  3
   2494   2490   2497   2499     1  0.0000000  0.6508444  3
   2494   2506   2512   2513     1  0.0000000  0.6508444  3
   2494   2506   2512   2514     1  0.0000000  0.6508444  3
   2495   2494   2490   2497     1  0.0000000  0.6508444  3
   2495   2494   2490   2519     1  0.0000000  0.6508444  3
   2495   2494   2506   2512     1  0.0000000  0.6508444  3
   2495   2494   2506   2507     1  0.0000000  0.6508444  3
   2495   2494   2506   2508     1  0.0000000  0.6508444  3
   2496   2494   2490   2497     1  0.0000000  0.6508444  3
   2496   2494   2490   2519     1  0.0000000  0.6508444  3
   2496   2494   2506   2512     1  0.0000000  0.6508444  3
   2496   2494   2506   2507     1  0.0000000  0.6508444  3
   2496   2494   2506   2508     1  0.0000000  0.6508444  3
   2497   2500   2509   2510     1  0.0000000  0.6508444  3
   2497   2500   2509   2511     1  0.0000000  0.6508444  3
   2498   2497   2490   2519     1  0.0000000  0.6508444  3
   2498   2497   2500   2509     1  0.0000000  0.6508444  3
   2498   2497   2500   2501     1  0.0000000  0.6508444  3
   2498   2497   2500   2502     1  0.0000000  0.6508444  3
   2499   2497   2490   2519     1  0.0000000  0.6508444  3
   2499   2497   2500   2509     1  0.0000000  0.6508444  3
   2499   2497   2500   2501     1  0.0000000  0.6508444  3
   2499   2497   2500   2502     1  0.0000000  0.6508444  3
   2500   2497   2490   2519     1  0.0000000  0.6508444  3
   2501   2500   2509   2518     1  0.0000000  1.0460000  1
   2501   2500   2509   2518     1  0.0000000  0.0000000  3
   2501   2500   2509   2510     1  0.0000000  0.6508444  3
   2501   2500   2509   2511     1  0.0000000  0.6508444  3
   2502   2500   2509   2518     1  0.0000000  1.0460000  1
   2502   2500   2509   2518     1  0.0000000  0.0000000  3
   2502   2500   2509   2510     1  0.0000000  0.6508444  3
   2502   2500   2509   2511     1  0.0000000  0.6508444  3
   2503   2491   2490   2519     1  0.0000000  0.6508444  3
   2504   2503   2515   4555     1  0.0000000  1.0460000  1
   2504   2503   2515   4555     1  0.0000000  0.0000000  3
   2504   2503   2515   2516     1  0.0000000  0.6508444  3
   2504   2503   2515   2517     1  0.0000000  0.6508444  3
   2505   2503   2515   4555     1  0.0000000  1.0460000  1
   2505   2503   2515   4555     1  0.0000000  0.0000000  3
   2505   2503   2515   2516     1  0.0000000  0.6508444  3
   2505   2503   2515   2517     1  0.0000000  0.6508444  3
   2506   2494   2490   2519     1  0.0000000  0.6508444  3
   2507   2506   2512   4532     1  0.0000000  1.0460000  1
   2507   2506   2512   4532     1  0.0000000  0.0000000  3
   2507   2506   2512   2513     1  0.0000000  0.6508444  3
   2507   2506   2512   2514     1  0.0000000  0.6508444  3
   2508   2506   2512   4532     1  0.0000000  1.0460000  1
   2508   2506   2512   4532     1  0.0000000  0.0000000  3
   2508   2506   2512   2513     1  0.0000000  0.6508444  3
   2508   2506   2512   2514     1  0.0000000  0.6508444  3
   2512   4532   4528   4531     1  0.0000000  1.6038667  3
   2513   2512   4532   4528     1  0.0000000  1.6038667  3
   2514   2512   4532   4528     1  0.0000000  1.6038667  3
   2515   4555   4551   4554     1  0.0000000  1.6038667  3
   2516   2515   4555   4551     1  0.0000000  1.6038667  3
   2517   2515   4555   4551     1  0.0000000  1.6038667  3
   2520   2521   2533   2534     1  0.0000000  0.6508444  3
   2520   2521   2533   2535     1  0.0000000  0.6508444  3
   2520   2524   2536   2537     1  0.0000000  0.6508444  3
   2520   2524   2536   2538     1  0.0000000  0.6508444  3
   2520   2527   2530   2531     1  0.0000000  0.6508444  3
   2520   2527   2530   2532     1  0.0000000  0.6508444  3
   2521   2520   2524   2525     1  0.0000000  0.6508444  3
   2521   2520   2524   2526     1  0.0000000  0.6508444  3
   2521   2520   2527   2528     1  0.0000000  0.6508444  3
   2521   2520   2527   2529     1  0.0000000  0.6508444  3
   2521   2533   2545   2546     1  0.0000000  0.6508444  3
   2521   2533   2545   2547     1  0.0000000  0.6508444  3
   2522   2521   2520   2524     1  0.0000000  0.6508444  3
   2522   2521   2520   2527     1  0.0000000  0.6508444  3
   2522   2521   2520   2549     1  0.0000000  0.6508444  3
   2522   2521   2533   2545     1  0.0000000  0.6508444  3
   2522   2521   2533   2534     1  0.0000000  0.6508444  3
   2522   2521   2533   2535     1  0.0000000  0.6508444  3
   2523   2521   2520   2524     1  0.0000000  0.6508444  3
   2523   2521   2520   2527     1  0.0000000  0.6508444  3
   2523   2521   2520   2549     1  0.0000000  0.6508444  3
   2523   2521   2533   2545     1  0.0000000  0.6508444  3
   2523   2521   2533   2534     1  0.0000000  0.6508444  3
   2523   2521   2533   2535     1  0.0000000  0.6508444  3
   2524   2520   2527   2528     1  0.0000000  0.6508444  3
   2524   2520   2527   2529     1  0.0000000  0.6508444  3
   2524   2536   2542   2543     1  0.0000000  0.6508444  3
   2524   2536   2542   2544     1  0.0000000  0.6508444  3
   2525   2524   2520   2527     1  0.0000000  0.6508444  3
   2525   2524   2520   2549     1  0.0000000  0.6508444  3
   2525   2524   2536   2542     1  0.0000000  0.6508444  3
   2525   2524   2536   2537     1  0.0000000  0.6508444  3
   2525   2524   2536   2538     1  0.0000000  0.6508444  3
   2526   2524   2520   2527     1  0.0000000  0.6508444  3
   2526   2524   2520   2549     1  0.0000000  0.6508444  3
   2526   2524   2536   2542     1  0.0000000  0.6508444  3
   2526   2524   2536   2537     1  0.0000000  0.6508444  3
   2526   2524   2536   2538     1  0.0000000  0.6508444  3
   2527   2530   2539   2540     1  0.0000000  0.6508444  3
   2527   2530   2539   2541     1  0.0000000  0.6508444  3
   2528   2527   2520   2549     1  0.0000000  0.6508444  3
   2528   2527   2530   2539     1  0.0000000  0.6508444  3
   2528   2527   2530   2531     1  0.0000000  0.6508444  3
   2528   2527   2530   2532     1  0.0000000  0.6508444  3
   2529   2527   2520   2549     1  0.0000000  0.6508444  3
   2529   2527   2530   2539     1  0.0000000  0.6508444  3
   2529   2527   2530   2531     1  0.0000000  0.6508444  3
   2529   2527   2530   2532     1  0.0000000  0.6508444  3
   2530   2527   2520   2549     1  0.0000000  0.6508444  3
   2531   2530   2539   2548     1  0.0000000  1.0460000  1
   2531   2530   2539   2548     1  0.0000000  0.0000000  3
   2531   2530   2539   2540     1  0.0000000  0.6508444  3
   2531   2530   2539   2541     1  0.0000000  0.6508444  3
   2532   2530   2539   2548     1  0.0000000  1.0460000  1
   2532   2530   2539   2548     1  0.0000000  0.0000000  3
   2532   2530   2539   2540     1  0.0000000  0.6508444  3
   2532   2530   2539   2541     1  0.0000000  0.6508444  3
   2533   2521   2520   2549     1  0.0000000  0.6508444  3
   2534   2533   2545   4601     1  0.0000000  1.0460000  1
   2534   2533   2545   4601     1  0.0000000  0.0000000  3
   2534   2533   2545   2546     1  0.0000000  0.6508444  3
   2534   2533   2545   2547     1  0.0000000  0.6508444  3
   2535   2533   2545   4601     1  0.0000000  1.0460000  1
   2535   2533   2545   4601     1  0.0000000  0.0000000  3
   2535   2533   2545   2546     1  0.0000000  0.6508444  3
   2535   2533   2545   2547     1  0.0000000  0.6508444  3
   2536   2524   2520   2549     1  0.0000000  0.6508444  3
   2537   2536   2542   4578     1  0.0000000  1.0460000  1
   2537   2536   2542   4578     1  0.0000000  0.0000000  3
   2537   2536   2542   2543     1  0.0000000  0.6508444  3
   2537   2536   2542   2544     1  0.0000000  0.6508444  3
   2538   2536   2542   4578     1  0.0000000  1.0460000  1
   2538   2536   2542   4578     1  0.0000000  0.0000000  3
   2538   2536   2542   2543     1  0.0000000  0.6508444  3
   2538   2536   2542   2544     1  0.0000000  0.6508444  3
   2542   4578   4574   4577     1  0.0000000  1.6038667  3
   2543   2542   4578   4574     1  0.0000000  1.6038667  3
   2544   2542   4578   4574     1  0.0000000  1.6038667  3
   2545   4601   4597   4600     1  0.0000000  1.6038667  3
   2546   2545   4601   4597     1  0.0000000  1.6038667  3
   2547   2545   4601   4597     1  0.0000000  1.6038667  3
   2550   2551   2563   2564     1  0.0000000  0.6508444  3
   2550   2551   2563   2565     1  0.0000000  0.6508444  3
   2550   2554   2566   2567     1  0.0000000  0.6508444  3
   2550   2554   2566   2568     1  0.0000000  0.6508444  3
   2550   2557   2560   2561     1  0.0000000  0.6508444  3
   2550   2557   2560   2562     1  0.0000000  0.6508444  3
   2551   2550   2554   2555     1  0.0000000  0.6508444  3
   2551   2550   2554   2556     1  0.0000000  0.6508444  3
   2551   2550   2557   2558     1  0.0000000  0.6508444  3
   2551   2550   2557   2559     1  0.0000000  0.6508444  3
   2551   2563   2575   2576     1  0.0000000  0.6508444  3
   2551   2563   2575   2577     1  0.0000000  0.6508444  3
   2552   2551   2550   2554     1  0.0000000  0.6508444  3
   2552   2551   2550   2557     1  0.0000000  0.6508444  3
   2552   2551   2550   2579     1  0.0000000  0.6508444  3
   2552   2551   2563   2575     1  0.0000000  0.6508444  3
   2552   2551   2563   2564     1  0.0000000  0.6508444  3
   2552   2551   2563   2565     1  0.0000000  0.6508444  3
   2553   2551   2550   2554     1  0.0000000  0.6508444  3
   2553   2551   2550   2557     1  0.0000000  0.6508444  3
   2553   2551   2550   2579     1  0.0000000  0.6508444  3
   2553   2551   2563   2575     1  0.0000000  0.6508444  3
   2553   2551   2563   2564     1  0.0000000  0.6508444  3
   2553   2551   2563   2565     1  0.0000000  0.6508444  3
   2554   2550   2557   2558     1  0.0000000  0.6508444  3
   2554   2550   2557   2559     1  0.0000000  0.6508444  3
   2554   2566   2572   2573     1  0.0000000  0.6508444  3
   2554   2566   2572   2574     1  0.0000000  0.6508444  3
   2555   2554   2550   2557     1  0.0000000  0.6508444  3
   2555   2554   2550   2579     1  0.0000000  0.6508444  3
   2555   2554   2566   2572     1  0.0000000  0.6508444  3
   2555   2554   2566   2567     1  0.0000000  0.6508444  3
   2555   2554   2566   2568     1  0.0000000  0.6508444  3
   2556   2554   2550   2557     1  0.0000000  0.6508444  3
   2556   2554   2550   2579     1  0.0000000  0.6508444  3
   2556   2554   2566   2572     1  0.0000000  0.6508444  3
   2556   2554   2566   2567     1  0.0000000  0.6508444  3
   2556   2554   2566   2568     1  0.0000000  0.6508444  3
   2557   2560   2569   2570     1  0.0000000  0.6508444  3
   2557   2560   2569   2571     1  0.0000000  0.6508444  3
   2558   2557   2550   2579     1  0.0000000  0.6508444  3
   2558   2557   2560   2569     1  0.0000000  0.6508444  3
   2558   2557   2560   2561     1  0.0000000  0.6508444  3
   2558   2557   2560   2562     1  0.0000000  0.6508444  3
   2559   2557   2550   2579     1  0.0000000  0.6508444  3
   2559   2557   2560   2569     1  0.0000000  0.6508444  3
   2559   2557   2560   2561     1  0.0000000  0.6508444  3
   2559   2557   2560   2562     1  0.0000000  0.6508444  3
   2560   2557   2550   2579     1  0.0000000  0.6508444  3
   2561   2560   2569   2578     1  0.0000000  1.0460000  1
   2561   2560   2569   2578     1  0.0000000  0.0000000  3
   2561   2560   2569   2570     1  0.0000000  0.6508444  3
   2561   2560   2569   2571     1  0.0000000  0.6508444  3
   2562   2560   2569   2578     1  0.0000000  1.0460000  1
   2562   2560   2569   2578     1  0.0000000  0.0000000  3
   2562   2560   2569   2570     1  0.0000000  0.6508444  3
   2562   2560   2569   2571     1  0.0000000  0.6508444  3
   2563   2551   2550   2579     1  0.0000000  0.6508444  3
   2564   2563   2575   4647     1  0.0000000  1.0460000  1
   2564   2563   2575   4647     1  0.0000000  0.0000000  3
   2564   2563   2575   2576     1  0.0000000  0.6508444  3
   2564   2563   2575   2577     1  0.0000000  0.6508444  3
   2565   2563   2575   4647     1  0.0000000  1.0460000  1
   2565   2563   2575   4647     1  0.0000000  0.0000000  3
   2565   2563   2575   2576     1  0.0000000  0.6508444  3
   2565   2563   2575   2577     1  0.0000000  0.6508444  3
   2566   2554   2550   2579     1  0.0000000  0.6508444  3
   2567   2566   2572   4624     1  0.0000000  1.0460000  1
   2567   2566   2572   4624     1  0.0000000  0.0000000  3
   2567   2566   2572   2573     1  0.0000000  0.6508444  3
   2567   2566   2572   2574     1  0.0000000  0.6508444  3
   2568   2566   2572   4624     1  0.0000000  1.0460000  1
   2568   2566   2572   4624     1  0.0000000  0.0000000  3
   2568   2566   2572   2573     1  0.0000000  0.6508444  3
   2568   2566   2572   2574     1  0.0000000  0.6508444  3
   2572   4624   4620   4623     1  0.0000000  1.6038667  3
   2573   2572   4624   4620     1  0.0000000  1.6038667  3
   2574   2572   4624   4620     1  0.0000000  1.6038667  3
   2575   4647   4643   4646     1  0.0000000  1.6038667  3
   2576   2575   4647   4643     1  0.0000000  1.6038667  3
   2577   2575   4647   4643     1  0.0000000  1.6038667  3
   2580   2581   2593   2594     1  0.0000000  0.6508444  3
   2580   2581   2593   2595     1  0.0000000  0.6508444  3
   2580   2584   2596   2597     1  0.0000000  0.6508444  3
   2580   2584   2596   2598     1  0.0000000  0.6508444  3
   2580   2587   2590   2591     1  0.0000000  0.6508444  3
   2580   2587   2590   2592     1  0.0000000  0.6508444  3
   2581   2580   2584   2585     1  0.0000000  0.6508444  3
   2581   2580   2584   2586     1  0.0000000  0.6508444  3
   2581   2580   2587   2588     1  0.0000000  0.6508444  3
   2581   2580   2587   2589     1  0.0000000  0.6508444  3
   2581   2593   2605   2606     1  0.0000000  0.6508444  3
   2581   2593   2605   2607     1  0.0000000  0.6508444  3
   2582   2581   2580   2584     1  0.0000000  0.6508444  3
   2582   2581   2580   2587     1  0.0000000  0.6508444  3
   2582   2581   2580   2609     1  0.0000000  0.6508444  3
   2582   2581   2593   2605     1  0.0000000  0.6508444  3
   2582   2581   2593   2594     1  0.0000000  0.6508444  3
   2582   2581   2593   2595     1  0.0000000  0.6508444  3
   2583   2581   2580   2584     1  0.0000000  0.6508444  3
   2583   2581   2580   2587     1  0.0000000  0.6508444  3
   2583   2581   2580   2609     1  0.0000000  0.6508444  3
   2583   2581   2593   2605     1  0.0000000  0.6508444  3
   2583   2581   2593   2594     1  0.0000000  0.6508444  3
   2583   2581   2593   2595     1  0.0000000  0.6508444  3
   2584   2580   2587   2588     1  0.0000000  0.6508444  3
   2584   2580   2587   2589     1  0.0000000  0.6508444  3
   2584   2596   2602   2603     1  0.0000000  0.6508444  3
   2584   2596   2602   2604     1  0.0000000  0.6508444  3
   2585   2584   2580   2587     1  0.0000000  0.6508444  3
   2585   2584   2580   2609     1  0.0000000  0.6508444  3
   2585   2584   2596   2602     1  0.0000000  0.6508444  3
   2585   2584   2596   2597     1  0.0000000  0.6508444  3
   2585   2584   2596   2598     1  0.0000000  0.6508444  3
   2586   2584   2580   2587     1  0.0000000  0.6508444  3
   2586   2584   2580   2609     1  0.0000000  0.6508444  3
   2586   2584   2596   2602     1  0.0000000  0.6508444  3
   2586   2584   2596   2597     1  0.0000000  0.6508444  3
   2586   2584   2596   2598     1  0.0000000  0.6508444  3
   2587   2590   2599   2600     1  0.0000000  0.6508444  3
   2587   2590   2599   2601     1  0.0000000  0.6508444  3
   2588   2587   2580   2609     1  0.0000000  0.6508444  3
   2588   2587   2590   2599     1  0.0000000  0.6508444  3
   2588   2587   2590   2591     1  0.0000000  0.6508444  3
   2588   2587   2590   2592     1  0.0000000  0.6508444  3
   2589   2587   2580   2609     1  0.0000000  0.6508444  3
   2589   2587   2590   2599     1  0.0000000  0.6508444  3
   2589   2587   2590   2591     1  0.0000000  0.6508444  3
   2589   2587   2590   2592     1  0.0000000  0.6508444  3
   2590   2587   2580   2609     1  0.0000000  0.6508444  3
   2591   2590   2599   2608     1  0.0000000  1.0460000  1
   2591   2590   2599   2608     1  0.0000000  0.0000000  3
   2591   2590   2599   2600     1  0.0000000  0.6508444  3
   2591   2590   2599   2601     1  0.0000000  0.6508444  3
   2592   2590   2599   2608     1  0.0000000  1.0460000  1
   2592   2590   2599   2608     1  0.0000000  0.0000000  3
   2592   2590   2599   2600     1  0.0000000  0.6508444  3
   2592   2590   2599   2601     1  0.0000000  0.6508444  3
   2593   2581   2580   2609     1  0.0000000  0.6508444  3
   2594   2593   2605   4693     1  0.0000000  1.0460000  1
   2594   2593   2605   4693     1  0.0000000  0.0000000  3
   2594   2593   2605   2606     1  0.0000000  0.6508444  3
   2594   2593   2605   2607     1  0.0000000  0.6508444  3
   2595   2593   2605   4693     1  0.0000000  1.0460000  1
   2595   2593   2605   4693     1  0.0000000  0.0000000  3
   2595   2593   2605   2606     1  0.0000000  0.6508444  3
   2595   2593   2605   2607     1  0.0000000  0.6508444  3
   2596   2584   2580   2609     1  0.0000000  0.6508444  3
   2597   2596   2602   4670     1  0.0000000  1.0460000  1
   2597   2596   2602   4670     1  0.0000000  0.0000000  3
   2597   2596   2602   2603     1  0.0000000  0.6508444  3
   2597   2596   2602   2604     1  0.0000000  0.6508444  3
   2598   2596   2602   4670     1  0.0000000  1.0460000  1
   2598   2596   2602   4670     1  0.0000000  0.0000000  3
   2598   2596   2602   2603     1  0.0000000  0.6508444  3
   2598   2596   2602   2604     1  0.0000000  0.6508444  3
   2602   4670   4666   4669     1  0.0000000  1.6038667  3
   2603   2602   4670   4666     1  0.0000000  1.6038667  3
   2604   2602   4670   4666     1  0.0000000  1.6038667  3
   2605   4693   4689   4692     1  0.0000000  1.6038667  3
   2606   2605   4693   4689     1  0.0000000  1.6038667  3
   2607   2605   4693   4689     1  0.0000000  1.6038667  3
   2610   2611   2623   2624     1  0.0000000  0.6508444  3
   2610   2611   2623   2625     1  0.0000000  0.6508444  3
   2610   2614   2626   2627     1  0.0000000  0.6508444  3
   2610   2614   2626   2628     1  0.0000000  0.6508444  3
   2610   2617   2620   2621     1  0.0000000  0.6508444  3
   2610   2617   2620   2622     1  0.0000000  0.6508444  3
   2611   2610   2614   2615     1  0.0000000  0.6508444  3
   2611   2610   2614   2616     1  0.0000000  0.6508444  3
   2611   2610   2617   2618     1  0.0000000  0.6508444  3
   2611   2610   2617   2619     1  0.0000000  0.6508444  3
   2611   2623   2635   2636     1  0.0000000  0.6508444  3
   2611   2623   2635   2637     1  0.0000000  0.6508444  3
   2612   2611   2610   2614     1  0.0000000  0.6508444  3
   2612   2611   2610   2617     1  0.0000000  0.6508444  3
   2612   2611   2610   2639     1  0.0000000  0.6508444  3
   2612   2611   2623   2635     1  0.0000000  0.6508444  3
   2612   2611   2623   2624     1  0.0000000  0.6508444  3
   2612   2611   2623   2625     1  0.0000000  0.6508444  3
   2613   2611   2610   2614     1  0.0000000  0.6508444  3
   2613   2611   2610   2617     1  0.0000000  0.6508444  3
   2613   2611   2610   2639     1  0.0000000  0.6508444  3
   2613   2611   2623   2635     1  0.0000000  0.6508444  3
   2613   2611   2623   2624     1  0.0000000  0.6508444  3
   2613   2611   2623   2625     1  0.0000000  0.6508444  3
   2614   2610   2617   2618     1  0.0000000  0.6508444  3
   2614   2610   2617   2619     1  0.0000000  0.6508444  3
   2614   2626   2632   2633     1  0.0000000  0.6508444  3
   2614   2626   2632   2634     1  0.0000000  0.6508444  3
   2615   2614   2610   2617     1  0.0000000  0.6508444  3
   2615   2614   2610   2639     1  0.0000000  0.6508444  3
   2615   2614   2626   2632     1  0.0000000  0.6508444  3
   2615   2614   2626   2627     1  0.0000000  0.6508444  3
   2615   2614   2626   2628     1  0.0000000  0.6508444  3
   2616   2614   2610   2617     1  0.0000000  0.6508444  3
   2616   2614   2610   2639     1  0.0000000  0.6508444  3
   2616   2614   2626   2632     1  0.0000000  0.6508444  3
   2616   2614   2626   2627     1  0.0000000  0.6508444  3
   2616   2614   2626   2628     1  0.0000000  0.6508444  3
   2617   2620   2629   2630     1  0.0000000  0.6508444  3
   2617   2620   2629   2631     1  0.0000000  0.6508444  3
   2618   2617   2610   2639     1  0.0000000  0.6508444  3
   2618   2617   2620   2629     1  0.0000000  0.6508444  3
   2618   2617   2620   2621     1  0.0000000  0.6508444  3
   2618   2617   2620   2622     1  0.0000000  0.6508444  3
   2619   2617   2610   2639     1  0.0000000  0.6508444  3
   2619   2617   2620   2629     1  0.0000000  0.6508444  3
   2619   2617   2620   2621     1  0.0000000  0.6508444  3
   2619   2617   2620   2622     1  0.0000000  0.6508444  3
   2620   2617   2610   2639     1  0.0000000  0.6508444  3
   2621   2620   2629   2638     1  0.0000000  1.0460000  1
   2621   2620   2629   2638     1  0.0000000  0.0000000  3
   2621   2620   2629   2630     1  0.0000000  0.6508444  3
   2621   2620   2629   2631     1  0.0000000  0.6508444  3
   2622   2620   2629   2638     1  0.0000000  1.0460000  1
   2622   2620   2629   2638     1  0.0000000  0.0000000  3
   2622   2620   2629   2630     1  0.0000000  0.6508444  3
   2622   2620   2629   2631     1  0.0000000  0.6508444  3
   2623   2611   2610   2639     1  0.0000000  0.6508444  3
   2624   2623   2635   4739     1  0.0000000  1.0460000  1
   2624   2623   2635   4739     1  0.0000000  0.0000000  3
   2624   2623   2635   2636     1  0.0000000  0.6508444  3
   2624   2623   2635   2637     1  0.0000000  0.6508444  3
   2625   2623   2635   4739     1  0.0000000  1.0460000  1
   2625   2623   2635   4739     1  0.0000000  0.0000000  3
   2625   2623   2635   2636     1  0.0000000  0.6508444  3
   2625   2623   2635   2637     1  0.0000000  0.6508444  3
   2626   2614   2610   2639     1  0.0000000  0.6508444  3
   2627   2626   2632   4716     1  0.0000000  1.0460000  1
   2627   2626   2632   4716     1  0.0000000  0.0000000  3
   2627   2626   2632   2633     1  0.0000000  0.6508444  3
   2627   2626   2632   2634     1  0.0000000  0.6508444  3
   2628   2626   2632   4716     1  0.0000000  1.0460000  1
   2628   2626   2632   4716     1  0.0000000  0.0000000  3
   2628   2626   2632   2633     1  0.0000000  0.6508444  3
   2628   2626   2632   2634     1  0.0000000  0.6508444  3
   2632   4716   4712   4715     1  0.0000000  1.6038667  3
   2633   2632   4716   4712     1  0.0000000  1.6038667  3
   2634   2632   4716   4712     1  0.0000000  1.6038667  3
   2635   4739   4735   4738     1  0.0000000  1.6038667  3
   2636   2635   4739   4735     1  0.0000000  1.6038667  3
   2637   2635   4739   4735     1  0.0000000  1.6038667  3
   2640   2641   2653   2654     1  0.0000000  0.6508444  3
   2640   2641   2653   2655     1  0.0000000  0.6508444  3
   2640   2644   2656   2657     1  0.0000000  0.6508444  3
   2640   2644   2656   2658     1  0.0000000  0.6508444  3
   2640   2647   2650   2651     1  0.0000000  0.6508444  3
   2640   2647   2650   2652     1  0.0000000  0.6508444  3
   2641   2640   2644   2645     1  0.0000000  0.6508444  3
   2641   2640   2644   2646     1  0.0000000  0.6508444  3
   2641   2640   2647   2648     1  0.0000000  0.6508444  3
   2641   2640   2647   2649     1  0.0000000  0.6508444  3
   2641   2653   2665   2666     1  0.0000000  0.6508444  3
   2641   2653   2665   2667     1  0.0000000  0.6508444  3
   2642   2641   2640   2644     1  0.0000000  0.6508444  3
   2642   2641   2640   2647     1  0.0000000  0.6508444  3
   2642   2641   2640   2669     1  0.0000000  0.6508444  3
   2642   2641   2653   2665     1  0.0000000  0.6508444  3
   2642   2641   2653   2654     1  0.0000000  0.6508444  3
   2642   2641   2653   2655     1  0.0000000  0.6508444  3
   2643   2641   2640   2644     1  0.0000000  0.6508444  3
   2643   2641   2640   2647     1  0.0000000  0.6508444  3
   2643   2641   2640   2669     1  0.0000000  0.6508444  3
   2643   2641   2653   2665     1  0.0000000  0.6508444  3
   2643   2641   2653   2654     1  0.0000000  0.6508444  3
   2643   2641   2653   2655     1  0.0000000  0.6508444  3
   2644   2640   2647   2648     1  0.0000000  0.6508444  3
   2644   2640   2647   2649     1  0.0000000  0.6508444  3
   2644   2656   2662   2663     1  0.0000000  0.6508444  3
   2644   2656   2662   2664     1  0.0000000  0.6508444  3
   2645   2644   2640   2647     1  0.0000000  0.6508444  3
   2645   2644   2640   2669     1  0.0000000  0.6508444  3
   2645   2644   2656   2662     1  0.0000000  0.6508444  3
   2645   2644   2656   2657     1  0.0000000  0.6508444  3
   2645   2644   2656   2658     1  0.0000000  0.6508444  3
   2646   2644   2640   2647     1  0.0000000  0.6508444  3
   2646   2644   2640   2669     1  0.0000000  0.6508444  3
   2646   2644   2656   2662     1  0.0000000  0.6508444  3
   2646   2644   2656   2657     1  0.0000000  0.6508444  3
   2646   2644   2656   2658     1  0.0000000  0.6508444  3
   2647   2650   2659   2660     1  0.0000000  0.6508444  3
   2647   2650   2659   2661     1  0.0000000  0.6508444  3
   2648   2647   2640   2669     1  0.0000000  0.6508444  3
   2648   2647   2650   2659     1  0.0000000  0.6508444  3
   2648   2647   2650   2651     1  0.0000000  0.6508444  3
   2648   2647   2650   2652     1  0.0000000  0.6508444  3
   2649   2647   2640   2669     1  0.0000000  0.6508444  3
   2649   2647   2650   2659     1  0.0000000  0.6508444  3
   2649   2647   2650   2651     1  0.0000000  0.6508444  3
   2649   2647   2650   2652     1  0.0000000  0.6508444  3
   2650   2647   2640   2669     1  0.0000000  0.6508444  3
   2651   2650   2659   2668     1  0.0000000  1.0460000  1
   2651   2650   2659   2668     1  0.0000000  0.0000000  3
   2651   2650   2659   2660     1  0.0000000  0.6508444  3
   2651   2650   2659   2661     1  0.0000000  0.6508444  3
   2652   2650   2659   2668     1  0.0000000  1.0460000  1
   2652   2650   2659   2668     1  0.0000000  0.0000000  3
   2652   2650   2659   2660     1  0.0000000  0.6508444  3
   2652   2650   2659   2661     1  0.0000000  0.6508444  3
   2653   2641   2640   2669     1  0.0000000  0.6508444  3
   2654   2653   2665   4785     1  0.0000000  1.0460000  1
   2654   2653   2665   4785     1  0.0000000  0.0000000  3
   2654   2653   2665   2666     1  0.0000000  0.6508444  3
   2654   2653   2665   2667     1  0.0000000  0.6508444  3
   2655   2653   2665   4785     1  0.0000000  1.0460000  1
   2655   2653   2665   4785     1  0.0000000  0.0000000  3
   2655   2653   2665   2666     1  0.0000000  0.6508444  3
   2655   2653   2665   2667     1  0.0000000  0.6508444  3
   2656   2644   2640   2669     1  0.0000000  0.6508444  3
   2657   2656   2662   4762     1  0.0000000  1.0460000  1
   2657   2656   2662   4762     1  0.0000000  0.0000000  3
   2657   2656   2662   2663     1  0.0000000  0.6508444  3
   2657   2656   2662   2664     1  0.0000000  0.6508444  3
   2658   2656   2662   4762     1  0.0000000  1.0460000  1
   2658   2656   2662   4762     1  0.0000000  0.0000000  3
   2658   2656   2662   2663     1  0.0000000  0.6508444  3
   2658   2656   2662   2664     1  0.0000000  0.6508444  3
   2662   4762   4758   4761     1  0.0000000  1.6038667  3
   2663   2662   4762   4758     1  0.0000000  1.6038667  3
   2664   2662   4762   4758     1  0.0000000  1.6038667  3
   2665   4785   4781   4784     1  0.0000000  1.6038667  3
   2666   2665   4785   4781     1  0.0000000  1.6038667  3
   2667   2665   4785   4781     1  0.0000000  1.6038667  3
   2670   2671   2683   2684     1  0.0000000  0.6508444  3
   2670   2671   2683   2685     1  0.0000000  0.6508444  3
   2670   2674   2686   2687     1  0.0000000  0.6508444  3
   2670   2674   2686   2688     1  0.0000000  0.6508444  3
   2670   2677   2680   2681     1  0.0000000  0.6508444  3
   2670   2677   2680   2682     1  0.0000000  0.6508444  3
   2671   2670   2674   2675     1  0.0000000  0.6508444  3
   2671   2670   2674   2676     1  0.0000000  0.6508444  3
   2671   2670   2677   2678     1  0.0000000  0.6508444  3
   2671   2670   2677   2679     1  0.0000000  0.6508444  3
   2671   2683   2695   2696     1  0.0000000  0.6508444  3
   2671   2683   2695   2697     1  0.0000000  0.6508444  3
   2672   2671   2670   2674     1  0.0000000  0.6508444  3
   2672   2671   2670   2677     1  0.0000000  0.6508444  3
   2672   2671   2670   2699     1  0.0000000  0.6508444  3
   2672   2671   2683   2695     1  0.0000000  0.6508444  3
   2672   2671   2683   2684     1  0.0000000  0.6508444  3
   2672   2671   2683   2685     1  0.0000000  0.6508444  3
   2673   2671   2670   2674     1  0.0000000  0.6508444  3
   2673   2671   2670   2677     1  0.0000000  0.6508444  3
   2673   2671   2670   2699     1  0.0000000  0.6508444  3
   2673   2671   2683   2695     1  0.0000000  0.6508444  3
   2673   2671   2683   2684     1  0.0000000  0.6508444  3
   2673   2671   2683   2685     1  0.0000000  0.6508444  3
   2674   2670   2677   2678     1  0.0000000  0.6508444  3
   2674   2670   2677   2679     1  0.0000000  0.6508444  3
   2674   2686   2692   2693     1  0.0000000  0.6508444  3
   2674   2686   2692   2694     1  0.0000000  0.6508444  3
   2675   2674   2670   2677     1  0.0000000  0.6508444  3
   2675   2674   2670   2699     1  0.0000000  0.6508444  3
   2675   2674   2686   2692     1  0.0000000  0.6508444  3
   2675   2674   2686   2687     1  0.0000000  0.6508444  3
   2675   2674   2686   2688     1  0.0000000  0.6508444  3
   2676   2674   2670   2677     1  0.0000000  0.6508444  3
   2676   2674   2670   2699     1  0.0000000  0.6508444  3
   2676   2674   2686   2692     1  0.0000000  0.6508444  3
   2676   2674   2686   2687     1  0.0000000  0.6508444  3
   2676   2674   2686   2688     1  0.0000000  0.6508444  3
   2677   2680   2689   2690     1  0.0000000  0.6508444  3
   2677   2680   2689   2691     1  0.0000000  0.6508444  3
   2678   2677   2670   2699     1  0.0000000  0.6508444  3
   2678   2677   2680   2689     1  0.0000000  0.6508444  3
   2678   2677   2680   2681     1  0.0000000  0.6508444  3
   2678   2677   2680   2682     1  0.0000000  0.6508444  3
   2679   2677   2670   2699     1  0.0000000  0.6508444  3
   2679   2677   2680   2689     1  0.0000000  0.6508444  3
   2679   2677   2680   2681     1  0.0000000  0.6508444  3
   2679   2677   2680   2682     1  0.0000000  0.6508444  3
   2680   2677   2670   2699     1  0.0000000  0.6508444  3
   2681   2680   2689   2698     1  0.0000000  1.0460000  1
   2681   2680   2689   2698     1  0.0000000  0.0000000  3
   2681   2680   2689   2690     1  0.0000000  0.6508444  3
   2681   2680   2689   2691     1  0.0000000  0.6508444  3
   2682   2680   2689   2698     1  0.0000000  1.0460000  1
   2682   2680   2689   2698     1  0.0000000  0.0000000  3
   2682   2680   2689   2690     1  0.0000000  0.6508444  3
   2682   2680   2689   2691     1  0.0000000  0.6508444  3
   2683   2671   2670   2699     1  0.0000000  0.6508444  3
   2684   2683   2695   4831     1  0.0000000  1.0460000  1
   2684   2683   2695   4831     1  0.0000000  0.0000000  3
   2684   2683   2695   2696     1  0.0000000  0.6508444  3
   2684   2683   2695   2697     1  0.0000000  0.6508444  3
   2685   2683   2695   4831     1  0.0000000  1.0460000  1
   2685   2683   2695   4831     1  0.0000000  0.0000000  3
   2685   2683   2695   2696     1  0.0000000  0.6508444  3
   2685   2683   2695   2697     1  0.0000000  0.6508444  3
   2686   2674   2670   2699     1  0.0000000  0.6508444  3
   2687   2686   2692   4808     1  0.0000000  1.0460000  1
   2687   2686   2692   4808     1  0.0000000  0.0000000  3
   2687   2686   2692   2693     1  0.0000000  0.6508444  3
   2687   2686   2692   2694     1  0.0000000  0.6508444  3
   2688   2686   2692   4808     1  0.0000000  1.0460000  1
   2688   2686   2692   4808     1  0.0000000  0.0000000  3
   2688   2686   2692   2693     1  0.0000000  0.6508444  3
   2688   2686   2692   2694     1  0.0000000  0.6508444  3
   2692   4808   4804   4807     1  0.0000000  1.6038667  3
   2693   2692   4808   4804     1  0.0000000  1.6038667  3
   2694   2692   4808   4804     1  0.0000000  1.6038667  3
   2695   4831   4827   4830     1  0.0000000  1.6038667  3
   2696   2695   4831   4827     1  0.0000000  1.6038667  3
   2697   2695   4831   4827     1  0.0000000  1.6038667  3
   2700   2701   2713   2714     1  0.0000000  0.6508444  3
   2700   2701   2713   2715     1  0.0000000  0.6508444  3
   2700   2704   2716   2717     1  0.0000000  0.6508444  3
   2700   2704   2716   2718     1  0.0000000  0.6508444  3
   2700   2707   2710   2711     1  0.0000000  0.6508444  3
   2700   2707   2710   2712     1  0.0000000  0.6508444  3
   2701   2700   2704   2705     1  0.0000000  0.6508444  3
   2701   2700   2704   2706     1  0.0000000  0.6508444  3
   2701   2700   2707   2708     1  0.0000000  0.6508444  3
   2701   2700   2707   2709     1  0.0000000  0.6508444  3
   2701   2713   2725   2726     1  0.0000000  0.6508444  3
   2701   2713   2725   2727     1  0.0000000  0.6508444  3
   2702   2701   2700   2704     1  0.0000000  0.6508444  3
   2702   2701   2700   2707     1  0.0000000  0.6508444  3
   2702   2701   2700   2729     1  0.0000000  0.6508444  3
   2702   2701   2713   2725     1  0.0000000  0.6508444  3
   2702   2701   2713   2714     1  0.0000000  0.6508444  3
   2702   2701   2713   2715     1  0.0000000  0.6508444  3
   2703   2701   2700   2704     1  0.0000000  0.6508444  3
   2703   2701   2700   2707     1  0.0000000  0.6508444  3
   2703   2701   2700   2729     1  0.0000000  0.6508444  3
   2703   2701   2713   2725     1  0.0000000  0.6508444  3
   2703   2701   2713   2714     1  0.0000000  0.6508444  3
   2703   2701   2713   2715     1  0.0000000  0.6508444  3
   2704   2700   2707   2708     1  0.0000000  0.6508444  3
   2704   2700   2707   2709     1  0.0000000  0.6508444  3
   2704   2716   2722   2723     1  0.0000000  0.6508444  3
   2704   2716   2722   2724     1  0.0000000  0.6508444  3
   2705   2704   2700   2707     1  0.0000000  0.6508444  3
   2705   2704   2700   2729     1  0.0000000  0.6508444  3
   2705   2704   2716   2722     1  0.0000000  0.6508444  3
   2705   2704   2716   2717     1  0.0000000  0.6508444  3
   2705   2704   2716   2718     1  0.0000000  0.6508444  3
   2706   2704   2700   2707     1  0.0000000  0.6508444  3
   2706   2704   2700   2729     1  0.0000000  0.6508444  3
   2706   2704   2716   2722     1  0.0000000  0.6508444  3
   2706   2704   2716   2717     1  0.0000000  0.6508444  3
   2706   2704   2716   2718     1  0.0000000  0.6508444  3
   2707   2710   2719   2720     1  0.0000000  0.6508444  3
   2707   2710   2719   2721     1  0.0000000  0.6508444  3
   2708   2707   2700   2729     1  0.0000000  0.6508444  3
   2708   2707   2710   2719     1  0.0000000  0.6508444  3
   2708   2707   2710   2711     1  0.0000000  0.6508444  3
   2708   2707   2710   2712     1  0.0000000  0.6508444  3
   2709   2707   2700   2729     1  0.0000000  0.6508444  3
   2709   2707   2710   2719     1  0.0000000  0.6508444  3
   2709   2707   2710   2711     1  0.0000000  0.6508444  3
   2709   2707   2710   2712     1  0.0000000  0.6508444  3
   2710   2707   2700   2729     1  0.0000000  0.6508444  3
   2711   2710   2719   2728     1  0.0000000  1.0460000  1
   2711   2710   2719   2728     1  0.0000000  0.0000000  3
   2711   2710   2719   2720     1  0.0000000  0.6508444  3
   2711   2710   2719   2721     1  0.0000000  0.6508444  3
   2712   2710   2719   2728     1  0.0000000  1.0460000  1
   2712   2710   2719   2728     1  0.0000000  0.0000000  3
   2712   2710   2719   2720     1  0.0000000  0.6508444  3
   2712   2710   2719   2721     1  0.0000000  0.6508444  3
   2713   2701   2700   2729     1  0.0000000  0.6508444  3
   2714   2713   2725   4877     1  0.0000000  1.0460000  1
   2714   2713   2725   4877     1  0.0000000  0.0000000  3
   2714   2713   2725   2726     1  0.0000000  0.6508444  3
   2714   2713   2725   2727     1  0.0000000  0.6508444  3
   2715   2713   2725   4877     1  0.0000000  1.0460000  1
   2715   2713   2725   4877     1  0.0000000  0.0000000  3
   2715   2713   2725   2726     1  0.0000000  0.6508444  3
   2715   2713   2725   2727     1  0.0000000  0.6508444  3
   2716   2704   2700   2729     1  0.0000000  0.6508444  3
   2717   2716   2722   4854     1  0.0000000  1.0460000  1
   2717   2716   2722   4854     1  0.0000000  0.0000000  3
   2717   2716   2722   2723     1  0.0000000  0.6508444  3
   2717   2716   2722   2724     1  0.0000000  0.6508444  3
   2718   2716   2722   4854     1  0.0000000  1.0460000  1
   2718   2716   2722   4854     1  0.0000000  0.0000000  3
   2718   2716   2722   2723     1  0.0000000  0.6508444  3
   2718   2716   2722   2724     1  0.0000000  0.6508444  3
   2722   4854   4850   4853     1  0.0000000  1.6038667  3
   2723   2722   4854   4850     1  0.0000000  1.6038667  3
   2724   2722   4854   4850     1  0.0000000  1.6038667  3
   2725   4877   4873   4876     1  0.0000000  1.6038667  3
   2726   2725   4877   4873     1  0.0000000  1.6038667  3
   2727   2725   4877   4873     1  0.0000000  1.6038667  3
   2730   2731   2743   2744     1  0.0000000  0.6508444  3
   2730   2731   2743   2745     1  0.0000000  0.6508444  3
   2730   2734   2746   2747     1  0.0000000  0.6508444  3
   2730   2734   2746   2748     1  0.0000000  0.6508444  3
   2730   2737   2740   2741     1  0.0000000  0.6508444  3
   2730   2737   2740   2742     1  0.0000000  0.6508444  3
   2731   2730   2734   2735     1  0.0000000  0.6508444  3
   2731   2730   2734   2736     1  0.0000000  0.6508444  3
   2731   2730   2737   2738     1  0.0000000  0.6508444  3
   2731   2730   2737   2739     1  0.0000000  0.6508444  3
   2731   2743   2755   2756     1  0.0000000  0.6508444  3
   2731   2743   2755   2757     1  0.0000000  0.6508444  3
   2732   2731   2730   2734     1  0.0000000  0.6508444  3
   2732   2731   2730   2737     1  0.0000000  0.6508444  3
   2732   2731   2730   2759     1  0.0000000  0.6508444  3
   2732   2731   2743   2755     1  0.0000000  0.6508444  3
   2732   2731   2743   2744     1  0.0000000  0.6508444  3
   2732   2731   2743   2745     1  0.0000000  0.6508444  3
   2733   2731   2730   2734     1  0.0000000  0.6508444  3
   2733   2731   2730   2737     1  0.0000000  0.6508444  3
   2733   2731   2730   2759     1  0.0000000  0.6508444  3
   2733   2731   2743   2755     1  0.0000000  0.6508444  3
   2733   2731   2743   2744     1  0.0000000  0.6508444  3
   2733   2731   2743   2745     1  0.0000000  0.6508444  3
   2734   2730   2737   2738     1  0.0000000  0.6508444  3
   2734   2730   2737   2739     1  0.0000000  0.6508444  3
   2734   2746   2752   2753     1  0.0000000  0.6508444  3
   2734   2746   2752   2754     1  0.0000000  0.6508444  3
   2735   2734   2730   2737     1  0.0000000  0.6508444  3
   2735   2734   2730   2759     1  0.0000000  0.6508444  3
   2735   2734   2746   2752     1  0.0000000  0.6508444  3
   2735   2734   2746   2747     1  0.0000000  0.6508444  3
   2735   2734   2746   2748     1  0.0000000  0.6508444  3
   2736   2734   2730   2737     1  0.0000000  0.6508444  3
   2736   2734   2730   2759     1  0.0000000  0.6508444  3
   2736   2734   2746   2752     1  0.0000000  0.6508444  3
   2736   2734   2746   2747     1  0.0000000  0.6508444  3
   2736   2734   2746   2748     1  0.0000000  0.6508444  3
   2737   2740   2749   2750     1  0.0000000  0.6508444  3
   2737   2740   2749   2751     1  0.0000000  0.6508444  3
   2738   2737   2730   2759     1  0.0000000  0.6508444  3
   2738   2737   2740   2749     1  0.0000000  0.6508444  3
   2738   2737   2740   2741     1  0.0000000  0.6508444  3
   2738   2737   2740   2742     1  0.0000000  0.6508444  3
   2739   2737   2730   2759     1  0.0000000  0.6508444  3
   2739   2737   2740   2749     1  0.0000000  0.6508444  3
   2739   2737   2740   2741     1  0.0000000  0.6508444  3
   2739   2737   2740   2742     1  0.0000000  0.6508444  3
   2740   2737   2730   2759     1  0.0000000  0.6508444  3
   2741   2740   2749   2758     1  0.0000000  1.0460000  1
   2741   2740   2749   2758     1  0.0000000  0.0000000  3
   2741   2740   2749   2750     1  0.0000000  0.6508444  3
   2741   2740   2749   2751     1  0.0000000  0.6508444  3
   2742   2740   2749   2758     1  0.0000000  1.0460000  1
   2742   2740   2749   2758     1  0.0000000  0.0000000  3
   2742   2740   2749   2750     1  0.0000000  0.6508444  3
   2742   2740   2749   2751     1  0.0000000  0.6508444  3
   2743   2731   2730   2759     1  0.0000000  0.6508444  3
   2744   2743   2755   4923     1  0.0000000  1.0460000  1
   2744   2743   2755   4923     1  0.0000000  0.0000000  3
   2744   2743   2755   2756     1  0.0000000  0.6508444  3
   2744   2743   2755   2757     1  0.0000000  0.6508444  3
   2745   2743   2755   4923     1  0.0000000  1.0460000  1
   2745   2743   2755   4923     1  0.0000000  0.0000000  3
   2745   2743   2755   2756     1  0.0000000  0.6508444  3
   2745   2743   2755   2757     1  0.0000000  0.6508444  3
   2746   2734   2730   2759     1  0.0000000  0.6508444  3
   2747   2746   2752   4900     1  0.0000000  1.0460000  1
   2747   2746   2752   4900     1  0.0000000  0.0000000  3
   2747   2746   2752   2753     1  0.0000000  0.6508444  3
   2747   2746   2752   2754     1  0.0000000  0.6508444  3
   2748   2746   2752   4900     1  0.0000000  1.0460000  1
   2748   2746   2752   4900     1  0.0000000  0.0000000  3
   2748   2746   2752   2753     1  0.0000000  0.6508444  3
   2748   2746   2752   2754     1  0.0000000  0.6508444  3
   2752   4900   4896   4899     1  0.0000000  1.6038667  3
   2753   2752   4900   4896     1  0.0000000  1.6038667  3
   2754   2752   4900   4896     1  0.0000000  1.6038667  3
   2755   4923   4919   4922     1  0.0000000  1.6038667  3
   2756   2755   4923   4919     1  0.0000000  1.6038667  3
   2757   2755   4923   4919     1  0.0000000  1.6038667  3
   2760   2761   2773   2774     1  0.0000000  0.6508444  3
   2760   2761   2773   2775     1  0.0000000  0.6508444  3
   2760   2764   2776   2777     1  0.0000000  0.6508444  3
   2760   2764   2776   2778     1  0.0000000  0.6508444  3
   2760   2767   2770   2771     1  0.0000000  0.6508444  3
   2760   2767   2770   2772     1  0.0000000  0.6508444  3
   2761   2760   2764   2765     1  0.0000000  0.6508444  3
   2761   2760   2764   2766     1  0.0000000  0.6508444  3
   2761   2760   2767   2768     1  0.0000000  0.6508444  3
   2761   2760   2767   2769     1  0.0000000  0.6508444  3
   2761   2773   2785   2786     1  0.0000000  0.6508444  3
   2761   2773   2785   2787     1  0.0000000  0.6508444  3
   2762   2761   2760   2764     1  0.0000000  0.6508444  3
   2762   2761   2760   2767     1  0.0000000  0.6508444  3
   2762   2761   2760   2789     1  0.0000000  0.6508444  3
   2762   2761   2773   2785     1  0.0000000  0.6508444  3
   2762   2761   2773   2774     1  0.0000000  0.6508444  3
   2762   2761   2773   2775     1  0.0000000  0.6508444  3
   2763   2761   2760   2764     1  0.0000000  0.6508444  3
   2763   2761   2760   2767     1  0.0000000  0.6508444  3
   2763   2761   2760   2789     1  0.0000000  0.6508444  3
   2763   2761   2773   2785     1  0.0000000  0.6508444  3
   2763   2761   2773   2774     1  0.0000000  0.6508444  3
   2763   2761   2773   2775     1  0.0000000  0.6508444  3
   2764   2760   2767   2768     1  0.0000000  0.6508444  3
   2764   2760   2767   2769     1  0.0000000  0.6508444  3
   2764   2776   2782   2783     1  0.0000000  0.6508444  3
   2764   2776   2782   2784     1  0.0000000  0.6508444  3
   2765   2764   2760   2767     1  0.0000000  0.6508444  3
   2765   2764   2760   2789     1  0.0000000  0.6508444  3
   2765   2764   2776   2782     1  0.0000000  0.6508444  3
   2765   2764   2776   2777     1  0.0000000  0.6508444  3
   2765   2764   2776   2778     1  0.0000000  0.6508444  3
   2766   2764   2760   2767     1  0.0000000  0.6508444  3
   2766   2764   2760   2789     1  0.0000000  0.6508444  3
   2766   2764   2776   2782     1  0.0000000  0.6508444  3
   2766   2764   2776   2777     1  0.0000000  0.6508444  3
   2766   2764   2776   2778     1  0.0000000  0.6508444  3
   2767   2770   2779   2780     1  0.0000000  0.6508444  3
   2767   2770   2779   2781     1  0.0000000  0.6508444  3
   2768   2767   2760   2789     1  0.0000000  0.6508444  3
   2768   2767   2770   2779     1  0.0000000  0.6508444  3
   2768   2767   2770   2771     1  0.0000000  0.6508444  3
   2768   2767   2770   2772     1  0.0000000  0.6508444  3
   2769   2767   2760   2789     1  0.0000000  0.6508444  3
   2769   2767   2770   2779     1  0.0000000  0.6508444  3
   2769   2767   2770   2771     1  0.0000000  0.6508444  3
   2769   2767   2770   2772     1  0.0000000  0.6508444  3
   2770   2767   2760   2789     1  0.0000000  0.6508444  3
   2771   2770   2779   2788     1  0.0000000  1.0460000  1
   2771   2770   2779   2788     1  0.0000000  0.0000000  3
   2771   2770   2779   2780     1  0.0000000  0.6508444  3
   2771   2770   2779   2781     1  0.0000000  0.6508444  3
   2772   2770   2779   2788     1  0.0000000  1.0460000  1
   2772   2770   2779   2788     1  0.0000000  0.0000000  3
   2772   2770   2779   2780     1  0.0000000  0.6508444  3
   2772   2770   2779   2781     1  0.0000000  0.6508444  3
   2773   2761   2760   2789     1  0.0000000  0.6508444  3
   2774   2773   2785   4969     1  0.0000000  1.0460000  1
   2774   2773   2785   4969     1  0.0000000  0.0000000  3
   2774   2773   2785   2786     1  0.0000000  0.6508444  3
   2774   2773   2785   2787     1  0.0000000  0.6508444  3
   2775   2773   2785   4969     1  0.0000000  1.0460000  1
   2775   2773   2785   4969     1  0.0000000  0.0000000  3
   2775   2773   2785   2786     1  0.0000000  0.6508444  3
   2775   2773   2785   2787     1  0.0000000  0.6508444  3
   2776   2764   2760   2789     1  0.0000000  0.6508444  3
   2777   2776   2782   4946     1  0.0000000  1.0460000  1
   2777   2776   2782   4946     1  0.0000000  0.0000000  3
   2777   2776   2782   2783     1  0.0000000  0.6508444  3
   2777   2776   2782   2784     1  0.0000000  0.6508444  3
   2778   2776   2782   4946     1  0.0000000  1.0460000  1
   2778   2776   2782   4946     1  0.0000000  0.0000000  3
   2778   2776   2782   2783     1  0.0000000  0.6508444  3
   2778   2776   2782   2784     1  0.0000000  0.6508444  3
   2782   4946   4942   4945     1  0.0000000  1.6038667  3
   2783   2782   4946   4942     1  0.0000000  1.6038667  3
   2784   2782   4946   4942     1  0.0000000  1.6038667  3
   2785   4969   4965   4968     1  0.0000000  1.6038667  3
   2786   2785   4969   4965     1  0.0000000  1.6038667  3
   2787   2785   4969   4965     1  0.0000000  1.6038667  3
   2790   2791   2803   2804     1  0.0000000  0.6508444  3
   2790   2791   2803   2805     1  0.0000000  0.6508444  3
   2790   2794   2806   2807     1  0.0000000  0.6508444  3
   2790   2794   2806   2808     1  0.0000000  0.6508444  3
   2790   2797   2800   2801     1  0.0000000  0.6508444  3
   2790   2797   2800   2802     1  0.0000000  0.6508444  3
   2791   2790   2794   2795     1  0.0000000  0.6508444  3
   2791   2790   2794   2796     1  0.0000000  0.6508444  3
   2791   2790   2797   2798     1  0.0000000  0.6508444  3
   2791   2790   2797   2799     1  0.0000000  0.6508444  3
   2791   2803   2815   2816     1  0.0000000  0.6508444  3
   2791   2803   2815   2817     1  0.0000000  0.6508444  3
   2792   2791   2790   2794     1  0.0000000  0.6508444  3
   2792   2791   2790   2797     1  0.0000000  0.6508444  3
   2792   2791   2790   2819     1  0.0000000  0.6508444  3
   2792   2791   2803   2815     1  0.0000000  0.6508444  3
   2792   2791   2803   2804     1  0.0000000  0.6508444  3
   2792   2791   2803   2805     1  0.0000000  0.6508444  3
   2793   2791   2790   2794     1  0.0000000  0.6508444  3
   2793   2791   2790   2797     1  0.0000000  0.6508444  3
   2793   2791   2790   2819     1  0.0000000  0.6508444  3
   2793   2791   2803   2815     1  0.0000000  0.6508444  3
   2793   2791   2803   2804     1  0.0000000  0.6508444  3
   2793   2791   2803   2805     1  0.0000000  0.6508444  3
   2794   2790   2797   2798     1  0.0000000  0.6508444  3
   2794   2790   2797   2799     1  0.0000000  0.6508444  3
   2794   2806   2812   2813     1  0.0000000  0.6508444  3
   2794   2806   2812   2814     1  0.0000000  0.6508444  3
   2795   2794   2790   2797     1  0.0000000  0.6508444  3
   2795   2794   2790   2819     1  0.0000000  0.6508444  3
   2795   2794   2806   2812     1  0.0000000  0.6508444  3
   2795   2794   2806   2807     1  0.0000000  0.6508444  3
   2795   2794   2806   2808     1  0.0000000  0.6508444  3
   2796   2794   2790   2797     1  0.0000000  0.6508444  3
   2796   2794   2790   2819     1  0.0000000  0.6508444  3
   2796   2794   2806   2812     1  0.0000000  0.6508444  3
   2796   2794   2806   2807     1  0.0000000  0.6508444  3
   2796   2794   2806   2808     1  0.0000000  0.6508444  3
   2797   2800   2809   2810     1  0.0000000  0.6508444  3
   2797   2800   2809   2811     1  0.0000000  0.6508444  3
   2798   2797   2790   2819     1  0.0000000  0.6508444  3
   2798   2797   2800   2809     1  0.0000000  0.6508444  3
   2798   2797   2800   2801     1  0.0000000  0.6508444  3
   2798   2797   2800   2802     1  0.0000000  0.6508444  3
   2799   2797   2790   2819     1  0.0000000  0.6508444  3
   2799   2797   2800   2809     1  0.0000000  0.6508444  3
   2799   2797   2800   2801     1  0.0000000  0.6508444  3
   2799   2797   2800   2802     1  0.0000000  0.6508444  3
   2800   2797   2790   2819     1  0.0000000  0.6508444  3
   2801   2800   2809   2818     1  0.0000000  1.0460000  1
   2801   2800   2809   2818     1  0.0000000  0.0000000  3
   2801   2800   2809   2810     1  0.0000000  0.6508444  3
   2801   2800   2809   2811     1  0.0000000  0.6508444  3
   2802   2800   2809   2818     1  0.0000000  1.0460000  1
   2802   2800   2809   2818     1  0.0000000  0.0000000  3
   2802   2800   2809   2810     1  0.0000000  0.6508444  3
   2802   2800   2809   2811     1  0.0000000  0.6508444  3
   2803   2791   2790   2819     1  0.0000000  0.6508444  3
   2804   2803   2815   5015     1  0.0000000  1.0460000  1
   2804   2803   2815   5015     1  0.0000000  0.0000000  3
   2804   2803   2815   2816     1  0.0000000  0.6508444  3
   2804   2803   2815   2817     1  0.0000000  0.6508444  3
   2805   2803   2815   5015     1  0.0000000  1.0460000  1
   2805   2803   2815   5015     1  0.0000000  0.0000000  3
   2805   2803   2815   2816     1  0.0000000  0.6508444  3
   2805   2803   2815   2817     1  0.0000000  0.6508444  3
   2806   2794   2790   2819     1  0.0000000  0.6508444  3
   2807   2806   2812   4992     1  0.0000000  1.0460000  1
   2807   2806   2812   4992     1  0.0000000  0.0000000  3
   2807   2806   2812   2813     1  0.0000000  0.6508444  3
   2807   2806   2812   2814     1  0.0000000  0.6508444  3
   2808   2806   2812   4992     1  0.0000000  1.0460000  1
   2808   2806   2812   4992     1  0.0000000  0.0000000  3
   2808   2806   2812   2813     1  0.0000000  0.6508444  3
   2808   2806   2812   2814     1  0.0000000  0.6508444  3
   2812   4992   4988   4991     1  0.0000000  1.6038667  3
   2813   2812   4992   4988     1  0.0000000  1.6038667  3
   2814   2812   4992   4988     1  0.0000000  1.6038667  3
   2815   5015   5011   5014     1  0.0000000  1.6038667  3
   2816   2815   5015   5011     1  0.0000000  1.6038667  3
   2817   2815   5015   5011     1  0.0000000  1.6038667  3
   2820   2821   2824   2828     1  0.0000000  0.6508444  3
   2820   2821   2833   2836     1  0.0000000  1.0460000  1
   2820   2821   2833   2836     1  0.0000000  0.6694400  3
   2820   2834   2840   2841     1  0.0000000  1.0460000  1
   2820   2834   2840   2841     1  0.0000000  0.6694400  3
   2820   2842   2826   2829     1  0.0000000  1.6038667  3
   2821   2820   2834   2838     1  0.0000000  0.6508444  3
   2821   2820   2834   2839     1  0.0000000  0.6508444  3
   2821   2824   2825   2827     1  0.0000000  0.6508444  3
   2821   2824   2832   2835     1  0.0000000  1.0460000  1
   2821   2824   2832   2835     1  0.0000000  0.6694400  3
   2822   2820   2821   2824     1  0.0000000  0.6508444  3
   2822   2820   2821   2833     1  0.0000000  1.0460000  1
   2822   2820   2821   2833     1  0.0000000  0.0000000  3
   2822   2820   2821   2823     1  0.0000000  0.6508444  3
   2822   2820   2834   2840     1  0.0000000  1.0460000  1
   2822   2820   2834   2840     1  0.0000000  0.0000000  3
   2822   2820   2834   2838     1  0.0000000  0.6508444  3
   2822   2820   2834   2839     1  0.0000000  0.6508444  3
   2822   2820   2842   2826     1  0.0000000  1.6038667  3
   2823   2821   2820   2834     1  0.0000000  0.6508444  3
   2823   2821   2820   2842     1  0.0000000  1.0460000  1
   2823   2821   2820   2842     1  0.0000000  0.0000000  3
   2823   2821   2824   2825     1  0.0000000  0.6508444  3
   2823   2821   2824   2832     1  0.0000000  1.0460000  1
   2823   2821   2824   2832     1  0.0000000  0.0000000  3
   2823   2821   2824   2828     1  0.0000000  0.6508444  3
   2823   2821   2833   2836     1  0.0000000  0.6973333  3
   2824   2821   2833   2836     1  0.0000000  1.0460000  1
   2824   2821   2833   2836     1  0.0000000  0.6694400  3
   2824   2825   2826   2829     1  0.0000000  0.6508444  3
   2824   2825   2831   2837     1  0.0000000  1.0460000  1
   2824   2825   2831   2837     1  0.0000000  0.6694400  3
   2825   2824   2832   2835     1  0.0000000  1.0460000  1
   2825   2824   2832   2835     1  0.0000000  0.6694400  3
   2826   2825   2824   2828     1  0.0000000  0.6508444  3
   2826   2825   2831   2837     1  0.0000000  1.0460000  1
   2826   2825   2831   2837     1  0.0000000  0.6694400  3
   2827   2825   2824   2832     1  0.0000000  1.0460000  1
   2827   2825   2824   2832     1  0.0000000  0.0000000  3
   2827   2825   2824   2828     1  0.0000000  0.6508444  3
   2827   2825   2826   2830     1  0.0000000  1.0460000  1
   2827   2825   2826   2830     1  0.0000000  0.0000000  3
   2827   2825   2826   2842     1  0.0000000  1.0460000  1
   2827   2825   2826   2842     1  0.0000000  0.0000000  3
   2827   2825   2826   2829     1  0.0000000  0.6508444  3
   2827   2825   2831   2837     1  0.0000000  0.6973333  3
   2828   2824   2821   2833     1  0.0000000  1.0460000  1
   2828   2824   2821   2833     1  0.0000000  0.0000000  3
   2828   2824   2825   2831     1  0.0000000  1.0460000  1
   2828   2824   2825   2831     1  0.0000000  0.0000000  3
   2828   2824   2832   2835     1  0.0000000  0.6973333  3
   2829   2826   2825   2831     1  0.0000000  0.6508444  3
   2838   2834   2820   2842     1  0.0000000  1.0460000  1
   2838   2834   2820   2842     1  0.0000000  0.0000000  3
   2838   2834   2840   2841     1  0.0000000  0.6973333  3
   2839   2834   2820   2842     1  0.0000000  1.0460000  1
   2839   2834   2820   2842     1  0.0000000  0.0000000  3
   2839   2834   2840   2841     1  0.0000000  0.6973333  3
   2843   2844   2847   2851     1  0.0000000  0.6508444  3
   2843   2844   2856   2859     1  0.0000000  1.0460000  1
   2843   2844   2856   2859     1  0.0000000  0.6694400  3
   2843   2857   2863   2864     1  0.0000000  1.0460000  1
   2843   2857   2863   2864     1  0.0000000  0.6694400  3
   2843   2865   2849   2852     1  0.0000000  1.6038667  3
   2844   2847   2848   2850     1  0.0000000  0.6508444  3
   2844   2847   2855   2858     1  0.0000000  1.0460000  1
   2844   2847   2855   2858     1  0.0000000  0.6694400  3
   2844   2843   2857   2861     1  0.0000000  0.6508444  3
   2844   2843   2857   2862     1  0.0000000  0.6508444  3
   2845   2843   2844   2847     1  0.0000000  0.6508444  3
   2845   2843   2844   2856     1  0.0000000  1.0460000  1
   2845   2843   2844   2856     1  0.0000000  0.0000000  3
   2845   2843   2844   2846     1  0.0000000  0.6508444  3
   2845   2843   2857   2863     1  0.0000000  1.0460000  1
   2845   2843   2857   2863     1  0.0000000  0.0000000  3
   2845   2843   2857   2861     1  0.0000000  0.6508444  3
   2845   2843   2857   2862     1  0.0000000  0.6508444  3
   2845   2843   2865   2849     1  0.0000000  1.6038667  3
   2846   2844   2847   2848     1  0.0000000  0.6508444  3
   2846   2844   2847   2855     1  0.0000000  1.0460000  1
   2846   2844   2847   2855     1  0.0000000  0.0000000  3
   2846   2844   2847   2851     1  0.0000000  0.6508444  3
   2846   2844   2856   2859     1  0.0000000  0.6973333  3
   2846   2844   2843   2857     1  0.0000000  0.6508444  3
   2846   2844   2843   2865     1  0.0000000  1.0460000  1
   2846   2844   2843   2865     1  0.0000000  0.0000000  3
   2847   2848   2849   2852     1  0.0000000  0.6508444  3
   2847   2848   2854   2860     1  0.0000000  1.0460000  1
   2847   2848   2854   2860     1  0.0000000  0.6694400  3
   2847   2844   2856   2859     1  0.0000000  1.0460000  1
   2847   2844   2856   2859     1  0.0000000  0.6694400  3
   2848   2847   2855   2858     1  0.0000000  1.0460000  1
   2848   2847   2855   2858     1  0.0000000  0.6694400  3
   2849   2848   2854   2860     1  0.0000000  1.0460000  1
   2849   2848   2854   2860     1  0.0000000  0.6694400  3
   2849   2848   2847   2851     1  0.0000000  0.6508444  3
   2850   2848   2849   2853     1  0.0000000  1.0460000  1
   2850   2848   2849   2853     1  0.0000000  0.0000000  3
   2850   2848   2849   2865     1  0.0000000  1.0460000  1
   2850   2848   2849   2865     1  0.0000000  0.0000000  3
   2850   2848   2849   2852     1  0.0000000  0.6508444  3
   2850   2848   2854   2860     1  0.0000000  0.6973333  3
   2850   2848   2847   2855     1  0.0000000  1.0460000  1
   2850   2848   2847   2855     1  0.0000000  0.0000000  3
   2850   2848   2847   2851     1  0.0000000  0.6508444  3
   2851   2847   2848   2854     1  0.0000000  1.0460000  1
   2851   2847   2848   2854     1  0.0000000  0.0000000  3
   2851   2847   2855   2858     1  0.0000000  0.6973333  3
   2851   2847   2844   2856     1  0.0000000  1.0460000  1
   2851   2847   2844   2856     1  0.0000000  0.0000000  3
   2852   2849   2848   2854     1  0.0000000  0.6508444  3
   2861   2857   2863   2864     1  0.0000000  0.6973333  3
   2861   2857   2843   2865     1  0.0000000  1.0460000  1
   2861   2857   2843   2865     1  0.0000000  0.0000000  3
   2862   2857   2863   2864     1  0.0000000  0.6973333  3
   2862   2857   2843   2865     1  0.0000000  1.0460000  1
   2862   2857   2843   2865     1  0.0000000  0.0000000  3
   2866   2867   2870   2874     1  0.0000000  0.6508444  3
   2866   2867   2879   2882     1  0.0000000  1.0460000  1
   2866   2867   2879   2882     1  0.0000000  0.6694400  3
   2866   2880   2886   2887     1  0.0000000  1.0460000  1
   2866   2880   2886   2887     1  0.0000000  0.6694400  3
   2866   2888   2872   2875     1  0.0000000  1.6038667  3
   2867   2866   2880   2884     1  0.0000000  0.6508444  3
   2867   2866   2880   2885     1  0.0000000  0.6508444  3
   2867   2870   2871   2873     1  0.0000000  0.6508444  3
   2867   2870   2878   2881     1  0.0000000  1.0460000  1
   2867   2870   2878   2881     1  0.0000000  0.6694400  3
   2868   2866   2867   2870     1  0.0000000  0.6508444  3
   2868   2866   2867   2879     1  0.0000000  1.0460000  1
   2868   2866   2867   2879     1  0.0000000  0.0000000  3
   2868   2866   2867   2869     1  0.0000000  0.6508444  3
   2868   2866   2880   2886     1  0.0000000  1.0460000  1
   2868   2866   2880   2886     1  0.0000000  0.0000000  3
   2868   2866   2880   2884     1  0.0000000  0.6508444  3
   2868   2866   2880   2885     1  0.0000000  0.6508444  3
   2868   2866   2888   2872     1  0.0000000  1.6038667  3
   2869   2867   2866   2880     1  0.0000000  0.6508444  3
   2869   2867   2866   2888     1  0.0000000  1.0460000  1
   2869   2867   2866   2888     1  0.0000000  0.0000000  3
   2869   2867   2870   2871     1  0.0000000  0.6508444  3
   2869   2867   2870   2878     1  0.0000000  1.0460000  1
   2869   2867   2870   2878     1  0.0000000  0.0000000  3
   2869   2867   2870   2874     1  0.0000000  0.6508444  3
   2869   2867   2879   2882     1  0.0000000  0.6973333  3
   2870   2867   2879   2882     1  0.0000000  1.0460000  1
   2870   2867   2879   2882     1  0.0000000  0.6694400  3
   2870   2871   2872   2875     1  0.0000000  0.6508444  3
   2870   2871   2877   2883     1  0.0000000  1.0460000  1
   2870   2871   2877   2883     1  0.0000000  0.6694400  3
   2871   2870   2878   2881     1  0.0000000  1.0460000  1
   2871   2870   2878   2881     1  0.0000000  0.6694400  3
   2872   2871   2870   2874     1  0.0000000  0.6508444  3
   2872   2871   2877   2883     1  0.0000000  1.0460000  1
   2872   2871   2877   2883     1  0.0000000  0.6694400  3
   2873   2871   2870   2878     1  0.0000000  1.0460000  1
   2873   2871   2870   2878     1  0.0000000  0.0000000  3
   2873   2871   2870   2874     1  0.0000000  0.6508444  3
   2873   2871   2872   2876     1  0.0000000  1.0460000  1
   2873   2871   2872   2876     1  0.0000000  0.0000000  3
   2873   2871   2872   2888     1  0.0000000  1.0460000  1
   2873   2871   2872   2888     1  0.0000000  0.0000000  3
   2873   2871   2872   2875     1  0.0000000  0.6508444  3
   2873   2871   2877   2883     1  0.0000000  0.6973333  3
   2874   2870   2867   2879     1  0.0000000  1.0460000  1
   2874   2870   2867   2879     1  0.0000000  0.0000000  3
   2874   2870   2871   2877     1  0.0000000  1.0460000  1
   2874   2870   2871   2877     1  0.0000000  0.0000000  3
   2874   2870   2878   2881     1  0.0000000  0.6973333  3
   2875   2872   2871   2877     1  0.0000000  0.6508444  3
   2884   2880   2866   2888     1  0.0000000  1.0460000  1
   2884   2880   2866   2888     1  0.0000000  0.0000000  3
   2884   2880   2886   2887     1  0.0000000  0.6973333  3
   2885   2880   2866   2888     1  0.0000000  1.0460000  1
   2885   2880   2866   2888     1  0.0000000  0.0000000  3
   2885   2880   2886   2887     1  0.0000000  0.6973333  3
   2889   2890   2893   2897     1  0.0000000  0.6508444  3
   2889   2890   2902   2905     1  0.0000000  1.0460000  1
   2889   2890   2902   2905     1  0.0000000  0.6694400  3
   2889   2903   2909   2910     1  0.0000000  1.0460000  1
   2889   2903   2909   2910     1  0.0000000  0.6694400  3
   2889   2911   2895   2898     1  0.0000000  1.6038667  3
   2890   2893   2894   2896     1  0.0000000  0.6508444  3
   2890   2893   2901   2904     1  0.0000000  1.0460000  1
   2890   2893   2901   2904     1  0.0000000  0.6694400  3
   2890   2889   2903   2907     1  0.0000000  0.6508444  3
   2890   2889   2903   2908     1  0.0000000  0.6508444  3
   2891   2889   2890   2893     1  0.0000000  0.6508444  3
   2891   2889   2890   2902     1  0.0000000  1.0460000  1
   2891   2889   2890   2902     1  0.0000000  0.0000000  3
   2891   2889   2890   2892     1  0.0000000  0.6508444  3
   2891   2889   2903   2909     1  0.0000000  1.0460000  1
   2891   2889   2903   2909     1  0.0000000  0.0000000  3
   2891   2889   2903   2907     1  0.0000000  0.6508444  3
   2891   2889   2903   2908     1  0.0000000  0.6508444  3
   2891   2889   2911   2895     1  0.0000000  1.6038667  3
   2892   2890   2893   2894     1  0.0000000  0.6508444  3
   2892   2890   2893   2901     1  0.0000000  1.0460000  1
   2892   2890   2893   2901     1  0.0000000  0.0000000  3
   2892   2890   2893   2897     1  0.0000000  0.6508444  3
   2892   2890   2902   2905     1  0.0000000  0.6973333  3
   2892   2890   2889   2903     1  0.0000000  0.6508444  3
   2892   2890   2889   2911     1  0.0000000  1.0460000  1
   2892   2890   2889   2911     1  0.0000000  0.0000000  3
   2893   2894   2895   2898     1  0.0000000  0.6508444  3
   2893   2894   2900   2906     1  0.0000000  1.0460000  1
   2893   2894   2900   2906     1  0.0000000  0.6694400  3
   2893   2890   2902   2905     1  0.0000000  1.0460000  1
   2893   2890   2902   2905     1  0.0000000  0.6694400  3
   2894   2893   2901   2904     1  0.0000000  1.0460000  1
   2894   2893   2901   2904     1  0.0000000  0.6694400  3
   2895   2894   2900   2906     1  0.0000000  1.0460000  1
   2895   2894   2900   2906     1  0.0000000  0.6694400  3
   2895   2894   2893   2897     1  0.0000000  0.6508444  3
   2896   2894   2895   2899     1  0.0000000  1.0460000  1
   2896   2894   2895   2899     1  0.0000000  0.0000000  3
   2896   2894   2895   2911     1  0.0000000  1.0460000  1
   2896   2894   2895   2911     1  0.0000000  0.0000000  3
   2896   2894   2895   2898     1  0.0000000  0.6508444  3
   2896   2894   2900   2906     1  0.0000000  0.6973333  3
   2896   2894   2893   2901     1  0.0000000  1.0460000  1
   2896   2894   2893   2901     1  0.0000000  0.0000000  3
   2896   2894   2893   2897     1  0.0000000  0.6508444  3
   2897   2893   2894   2900     1  0.0000000  1.0460000  1
   2897   2893   2894   2900     1  0.0000000  0.0000000  3
   2897   2893   2901   2904     1  0.0000000  0.6973333  3
   2897   2893   2890   2902     1  0.0000000  1.0460000  1
   2897   2893   2890   2902     1  0.0000000  0.0000000  3
   2898   2895   2894   2900     1  0.0000000  0.6508444  3
   2907   2903   2909   2910     1  0.0000000  0.6973333  3
   2907   2903   2889   2911     1  0.0000000  1.0460000  1
   2907   2903   2889   2911     1  0.0000000  0.0000000  3
   2908   2903   2909   2910     1  0.0000000  0.6973333  3
   2908   2903   2889   2911     1  0.0000000  1.0460000  1
   2908   2903   2889   2911     1  0.0000000  0.0000000  3
   2912   2913   2916   2920     1  0.0000000  0.6508444  3
   2912   2913   2925   2928     1  0.0000000  1.0460000  1
   2912   2913   2925   2928     1  0.0000000  0.6694400  3
   2912   2926   2932   2933     1  0.0000000  1.0460000  1
   2912   2926   2932   2933     1  0.0000000  0.6694400  3
   2912   2934   2918   2921     1  0.0000000  1.6038667  3
   2913   2912   2926   2930     1  0.0000000  0.6508444  3
   2913   2912   2926   2931     1  0.0000000  0.6508444  3
   2913   2916   2917   2919     1  0.0000000  0.6508444  3
   2913   2916   2924   2927     1  0.0000000  1.0460000  1
   2913   2916   2924   2927     1  0.0000000  0.6694400  3
   2914   2912   2913   2916     1  0.0000000  0.6508444  3
   2914   2912   2913   2925     1  0.0000000  1.0460000  1
   2914   2912   2913   2925     1  0.0000000  0.0000000  3
   2914   2912   2913   2915     1  0.0000000  0.6508444  3
   2914   2912   2926   2932     1  0.0000000  1.0460000  1
   2914   2912   2926   2932     1  0.0000000  0.0000000  3
   2914   2912   2926   2930     1  0.0000000  0.6508444  3
   2914   2912   2926   2931     1  0.0000000  0.6508444  3
   2914   2912   2934   2918     1  0.0000000  1.6038667  3
   2915   2913   2912   2926     1  0.0000000  0.6508444  3
   2915   2913   2912   2934     1  0.0000000  1.0460000  1
   2915   2913   2912   2934     1  0.0000000  0.0000000  3
   2915   2913   2916   2917     1  0.0000000  0.6508444  3
   2915   2913   2916   2924     1  0.0000000  1.0460000  1
   2915   2913   2916   2924     1  0.0000000  0.0000000  3
   2915   2913   2916   2920     1  0.0000000  0.6508444  3
   2915   2913   2925   2928     1  0.0000000  0.6973333  3
   2916   2913   2925   2928     1  0.0000000  1.0460000  1
   2916   2913   2925   2928     1  0.0000000  0.6694400  3
   2916   2917   2918   2921     1  0.0000000  0.6508444  3
   2916   2917   2923   2929     1  0.0000000  1.0460000  1
   2916   2917   2923   2929     1  0.0000000  0.6694400  3
   2917   2916   2924   2927     1  0.0000000  1.0460000  1
   2917   2916   2924   2927     1  0.0000000  0.6694400  3
   2918   2917   2916   2920     1  0.0000000  0.6508444  3
   2918   2917   2923   2929     1  0.0000000  1.0460000  1
   2918   2917   2923   2929     1  0.0000000  0.6694400  3
   2919   2917   2916   2924     1  0.0000000  1.0460000  1
   2919   2917   2916   2924     1  0.0000000  0.0000000  3
   2919   2917   2916   2920     1  0.0000000  0.6508444  3
   2919   2917   2918   2922     1  0.0000000  1.0460000  1
   2919   2917   2918   2922     1  0.0000000  0.0000000  3
   2919   2917   2918   2934     1  0.0000000  1.0460000  1
   2919   2917   2918   2934     1  0.0000000  0.0000000  3
   2919   2917   2918   2921     1  0.0000000  0.6508444  3
   2919   2917   2923   2929     1  0.0000000  0.6973333  3
   2920   2916   2913   2925     1  0.0000000  1.0460000  1
   2920   2916   2913   2925     1  0.0000000  0.0000000  3
   2920   2916   2917   2923     1  0.0000000  1.0460000  1
   2920   2916   2917   2923     1  0.0000000  0.0000000  3
   2920   2916   2924   2927     1  0.0000000  0.6973333  3
   2921   2918   2917   2923     1  0.0000000  0.6508444  3
   2930   2926   2912   2934     1  0.0000000  1.0460000  1
   2930   2926   2912   2934     1  0.0000000  0.0000000  3
   2930   2926   2932   2933     1  0.0000000  0.6973333  3
   2931   2926   2912   2934     1  0.0000000  1.0460000  1
   2931   2926   2912   2934     1  0.0000000  0.0000000  3
   2931   2926   2932   2933     1  0.0000000  0.6973333  3
   2935   2936   2939   2943     1  0.0000000  0.6508444  3
   2935   2936   2948   2951     1  0.0000000  1.0460000  1
   2935   2936   2948   2951     1  0.0000000  0.6694400  3
   2935   2949   2955   2956     1  0.0000000  1.0460000  1
   2935   2949   2955   2956     1  0.0000000  0.6694400  3
   2935   2957   2941   2944     1  0.0000000  1.6038667  3
   2936   2939   2940   2942     1  0.0000000  0.6508444  3
   2936   2939   2947   2950     1  0.0000000  1.0460000  1
   2936   2939   2947   2950     1  0.0000000  0.6694400  3
   2936   2935   2949   2953     1  0.0000000  0.6508444  3
   2936   2935   2949   2954     1  0.0000000  0.6508444  3
   2937   2935   2936   2939     1  0.0000000  0.6508444  3
   2937   2935   2936   2948     1  0.0000000  1.0460000  1
   2937   2935   2936   2948     1  0.0000000  0.0000000  3
   2937   2935   2936   2938     1  0.0000000  0.6508444  3
   2937   2935   2949   2955     1  0.0000000  1.0460000  1
   2937   2935   2949   2955     1  0.0000000  0.0000000  3
   2937   2935   2949   2953     1  0.0000000  0.6508444  3
   2937   2935   2949   2954     1  0.0000000  0.6508444  3
   2937   2935   2957   2941     1  0.0000000  1.6038667  3
   2938   2936   2939   2940     1  0.0000000  0.6508444  3
   2938   2936   2939   2947     1  0.0000000  1.0460000  1
   2938   2936   2939   2947     1  0.0000000  0.0000000  3
   2938   2936   2939   2943     1  0.0000000  0.6508444  3
   2938   2936   2948   2951     1  0.0000000  0.6973333  3
   2938   2936   2935   2949     1  0.0000000  0.6508444  3
   2938   2936   2935   2957     1  0.0000000  1.0460000  1
   2938   2936   2935   2957     1  0.0000000  0.0000000  3
   2939   2940   2941   2944     1  0.0000000  0.6508444  3
   2939   2940   2946   2952     1  0.0000000  1.0460000  1
   2939   2940   2946   2952     1  0.0000000  0.6694400  3
   2939   2936   2948   2951     1  0.0000000  1.0460000  1
   2939   2936   2948   2951     1  0.0000000  0.6694400  3
   2940   2939   2947   2950     1  0.0000000  1.0460000  1
   2940   2939   2947   2950     1  0.0000000  0.6694400  3
   2941   2940   2946   2952     1  0.0000000  1.0460000  1
   2941   2940   2946   2952     1  0.0000000  0.6694400  3
   2941   2940   2939   2943     1  0.0000000  0.6508444  3
   2942   2940   2941   2945     1  0.0000000  1.0460000  1
   2942   2940   2941   2945     1  0.0000000  0.0000000  3
   2942   2940   2941   2957     1  0.0000000  1.0460000  1
   2942   2940   2941   2957     1  0.0000000  0.0000000  3
   2942   2940   2941   2944     1  0.0000000  0.6508444  3
   2942   2940   2946   2952     1  0.0000000  0.6973333  3
   2942   2940   2939   2947     1  0.0000000  1.0460000  1
   2942   2940   2939   2947     1  0.0000000  0.0000000  3
   2942   2940   2939   2943     1  0.0000000  0.6508444  3
   2943   2939   2940   2946     1  0.0000000  1.0460000  1
   2943   2939   2940   2946     1  0.0000000  0.0000000  3
   2943   2939   2947   2950     1  0.0000000  0.6973333  3
   2943   2939   2936   2948     1  0.0000000  1.0460000  1
   2943   2939   2936   2948     1  0.0000000  0.0000000  3
   2944   2941   2940   2946     1  0.0000000  0.6508444  3
   2953   2949   2955   2956     1  0.0000000  0.6973333  3
   2953   2949   2935   2957     1  0.0000000  1.0460000  1
   2953   2949   2935   2957     1  0.0000000  0.0000000  3
   2954   2949   2955   2956     1  0.0000000  0.6973333  3
   2954   2949   2935   2957     1  0.0000000  1.0460000  1
   2954   2949   2935   2957     1  0.0000000  0.0000000  3
   2958   2959   2962   2966     1  0.0000000  0.6508444  3
   2958   2959   2971   2974     1  0.0000000  1.0460000  1
   2958   2959   2971   2974     1  0.0000000  0.6694400  3
   2958   2972   2978   2979     1  0.0000000  1.0460000  1
   2958   2972   2978   2979     1  0.0000000  0.6694400  3
   2958   2980   2964   2967     1  0.0000000  1.6038667  3
   2959   2958   2972   2976     1  0.0000000  0.6508444  3
   2959   2958   2972   2977     1  0.0000000  0.6508444  3
   2959   2962   2963   2965     1  0.0000000  0.6508444  3
   2959   2962   2970   2973     1  0.0000000  1.0460000  1
   2959   2962   2970   2973     1  0.0000000  0.6694400  3
   2960   2958   2959   2962     1  0.0000000  0.6508444  3
   2960   2958   2959   2971     1  0.0000000  1.0460000  1
   2960   2958   2959   2971     1  0.0000000  0.0000000  3
   2960   2958   2959   2961     1  0.0000000  0.6508444  3
   2960   2958   2972   2978     1  0.0000000  1.0460000  1
   2960   2958   2972   2978     1  0.0000000  0.0000000  3
   2960   2958   2972   2976     1  0.0000000  0.6508444  3
   2960   2958   2972   2977     1  0.0000000  0.6508444  3
   2960   2958   2980   2964     1  0.0000000  1.6038667  3
   2961   2959   2958   2972     1  0.0000000  0.6508444  3
   2961   2959   2958   2980     1  0.0000000  1.0460000  1
   2961   2959   2958   2980     1  0.0000000  0.0000000  3
   2961   2959   2962   2963     1  0.0000000  0.6508444  3
   2961   2959   2962   2970     1  0.0000000  1.0460000  1
   2961   2959   2962   2970     1  0.0000000  0.0000000  3
   2961   2959   2962   2966     1  0.0000000  0.6508444  3
   2961   2959   2971   2974     1  0.0000000  0.6973333  3
   2962   2959   2971   2974     1  0.0000000  1.0460000  1
   2962   2959   2971   2974     1  0.0000000  0.6694400  3
   2962   2963   2964   2967     1  0.0000000  0.6508444  3
   2962   2963   2969   2975     1  0.0000000  1.0460000  1
   2962   2963   2969   2975     1  0.0000000  0.6694400  3
   2963   2962   2970   2973     1  0.0000000  1.0460000  1
   2963   2962   2970   2973     1  0.0000000  0.6694400  3
   2964   2963   2962   2966     1  0.0000000  0.6508444  3
   2964   2963   2969   2975     1  0.0000000  1.0460000  1
   2964   2963   2969   2975     1  0.0000000  0.6694400  3
   2965   2963   2962   2970     1  0.0000000  1.0460000  1
   2965   2963   2962   2970     1  0.0000000  0.0000000  3
   2965   2963   2962   2966     1  0.0000000  0.6508444  3
   2965   2963   2964   2968     1  0.0000000  1.0460000  1
   2965   2963   2964   2968     1  0.0000000  0.0000000  3
   2965   2963   2964   2980     1  0.0000000  1.0460000  1
   2965   2963   2964   2980     1  0.0000000  0.0000000  3
   2965   2963   2964   2967     1  0.0000000  0.6508444  3
   2965   2963   2969   2975     1  0.0000000  0.6973333  3
   2966   2962   2959   2971     1  0.0000000  1.0460000  1
   2966   2962   2959   2971     1  0.0000000  0.0000000  3
   2966   2962   2963   2969     1  0.0000000  1.0460000  1
   2966   2962   2963   2969     1  0.0000000  0.0000000  3
   2966   2962   2970   2973     1  0.0000000  0.6973333  3
   2967   2964   2963   2969     1  0.0000000  0.6508444  3
   2976   2972   2958   2980     1  0.0000000  1.0460000  1
   2976   2972   2958   2980     1  0.0000000  0.0000000  3
   2976   2972   2978   2979     1  0.0000000  0.6973333  3
   2977   2972   2958   2980     1  0.0000000  1.0460000  1
   2977   2972   2958   2980     1  0.0000000  0.0000000  3
   2977   2972   2978   2979     1  0.0000000  0.6973333  3
   2981   2982   2985   2989     1  0.0000000  0.6508444  3
   2981   2982   2994   2997     1  0.0000000  1.0460000  1
   2981   2982   2994   2997     1  0.0000000  0.6694400  3
   2981   2995   3001   3002     1  0.0000000  1.0460000  1
   2981   2995   3001   3002     1  0.0000000  0.6694400  3
   2981   3003   2987   2990     1  0.0000000  1.6038667  3
   2982   2985   2986   2988     1  0.0000000  0.6508444  3
   2982   2985   2993   2996     1  0.0000000  1.0460000  1
   2982   2985   2993   2996     1  0.0000000  0.6694400  3
   2982   2981   2995   2999     1  0.0000000  0.6508444  3
   2982   2981   2995   3000     1  0.0000000  0.6508444  3
   2983   2981   2982   2985     1  0.0000000  0.6508444  3
   2983   2981   2982   2994     1  0.0000000  1.0460000  1
   2983   2981   2982   2994     1  0.0000000  0.0000000  3
   2983   2981   2982   2984     1  0.0000000  0.6508444  3
   2983   2981   2995   3001     1  0.0000000  1.0460000  1
   2983   2981   2995   3001     1  0.0000000  0.0000000  3
   2983   2981   2995   2999     1  0.0000000  0.6508444  3
   2983   2981   2995   3000     1  0.0000000  0.6508444  3
   2983   2981   3003   2987     1  0.0000000  1.6038667  3
   2984   2982   2985   2986     1  0.0000000  0.6508444  3
   2984   2982   2985   2993     1  0.0000000  1.0460000  1
   2984   2982   2985   2993     1  0.0000000  0.0000000  3
   2984   2982   2985   2989     1  0.0000000  0.6508444  3
   2984   2982   2994   2997     1  0.0000000  0.6973333  3
   2984   2982   2981   2995     1  0.0000000  0.6508444  3
   2984   2982   2981   3003     1  0.0000000  1.0460000  1
   2984   2982   2981   3003     1  0.0000000  0.0000000  3
   2985   2986   2987   2990     1  0.0000000  0.6508444  3
   2985   2986   2992   2998     1  0.0000000  1.0460000  1
   2985   2986   2992   2998     1  0.0000000  0.6694400  3
   2985   2982   2994   2997     1  0.0000000  1.0460000  1
   2985   2982   2994   2997     1  0.0000000  0.6694400  3
   2986   2985   2993   2996     1  0.0000000  1.0460000  1
   2986   2985   2993   2996     1  0.0000000  0.6694400  3
   2987   2986   2992   2998     1  0.0000000  1.0460000  1
   2987   2986   2992   2998     1  0.0000000  0.6694400  3
   2987   2986   2985   2989     1  0.0000000  0.6508444  3
   2988   2986   2987   2991     1  0.0000000  1.0460000  1
   2988   2986   2987   2991     1  0.0000000  0.0000000  3
   2988   2986   2987   3003     1  0.0000000  1.0460000  1
   2988   2986   2987   3003     1  0.0000000  0.0000000  3
   2988   2986   2987   2990     1  0.0000000  0.6508444  3
   2988   2986   2992   2998     1  0.0000000  0.6973333  3
   2988   2986   2985   2993     1  0.0000000  1.0460000  1
   2988   2986   2985   2993     1  0.0000000  0.0000000  3
   2988   2986   2985   2989     1  0.0000000  0.6508444  3
   2989   2985   2986   2992     1  0.0000000  1.0460000  1
   2989   2985   2986   2992     1  0.0000000  0.0000000  3
   2989   2985   2993   2996     1  0.0000000  0.6973333  3
   2989   2985   2982   2994     1  0.0000000  1.0460000  1
   2989   2985   2982   2994     1  0.0000000  0.0000000  3
   2990   2987   2986   2992     1  0.0000000  0.6508444  3
   2999   2995   3001   3002     1  0.0000000  0.6973333  3
   2999   2995   2981   3003     1  0.0000000  1.0460000  1
   2999   2995   2981   3003     1  0.0000000  0.0000000  3
   3000   2995   3001   3002     1  0.0000000  0.6973333  3
   3000   2995   2981   3003     1  0.0000000  1.0460000  1
   3000   2995   2981   3003     1  0.0000000  0.0000000  3
   3004   3005   3008   3012     1  0.0000000  0.6508444  3
   3004   3005   3017   3020     1  0.0000000  1.0460000  1
   3004   3005   3017   3020     1  0.0000000  0.6694400  3
   3004   3018   3024   3025     1  0.0000000  1.0460000  1
   3004   3018   3024   3025     1  0.0000000  0.6694400  3
   3004   3026   3010   3013     1  0.0000000  1.6038667  3
   3005   3004   3018   3022     1  0.0000000  0.6508444  3
   3005   3004   3018   3023     1  0.0000000  0.6508444  3
   3005   3008   3009   3011     1  0.0000000  0.6508444  3
   3005   3008   3016   3019     1  0.0000000  1.0460000  1
   3005   3008   3016   3019     1  0.0000000  0.6694400  3
   3006   3004   3005   3008     1  0.0000000  0.6508444  3
   3006   3004   3005   3017     1  0.0000000  1.0460000  1
   3006   3004   3005   3017     1  0.0000000  0.0000000  3
   3006   3004   3005   3007     1  0.0000000  0.6508444  3
   3006   3004   3018   3024     1  0.0000000  1.0460000  1
   3006   3004   3018   3024     1  0.0000000  0.0000000  3
   3006   3004   3018   3022     1  0.0000000  0.6508444  3
   3006   3004   3018   3023     1  0.0000000  0.6508444  3
   3006   3004   3026   3010     1  0.0000000  1.6038667  3
   3007   3005   3004   3018     1  0.0000000  0.6508444  3
   3007   3005   3004   3026     1  0.0000000  1.0460000  1
   3007   3005   3004   3026     1  0.0000000  0.0000000  3
   3007   3005   3008   3009     1  0.0000000  0.6508444  3
   3007   3005   3008   3016     1  0.0000000  1.0460000  1
   3007   3005   3008   3016     1  0.0000000  0.0000000  3
   3007   3005   3008   3012     1  0.0000000  0.6508444  3
   3007   3005   3017   3020     1  0.0000000  0.6973333  3
   3008   3005   3017   3020     1  0.0000000  1.0460000  1
   3008   3005   3017   3020     1  0.0000000  0.6694400  3
   3008   3009   3010   3013     1  0.0000000  0.6508444  3
   3008   3009   3015   3021     1  0.0000000  1.0460000  1
   3008   3009   3015   3021     1  0.0000000  0.6694400  3
   3009   3008   3016   3019     1  0.0000000  1.0460000  1
   3009   3008   3016   3019     1  0.0000000  0.6694400  3
   3010   3009   3008   3012     1  0.0000000  0.6508444  3
   3010   3009   3015   3021     1  0.0000000  1.0460000  1
   3010   3009   3015   3021     1  0.0000000  0.6694400  3
   3011   3009   3008   3016     1  0.0000000  1.0460000  1
   3011   3009   3008   3016     1  0.0000000  0.0000000  3
   3011   3009   3008   3012     1  0.0000000  0.6508444  3
   3011   3009   3010   3014     1  0.0000000  1.0460000  1
   3011   3009   3010   3014     1  0.0000000  0.0000000  3
   3011   3009   3010   3026     1  0.0000000  1.0460000  1
   3011   3009   3010   3026     1  0.0000000  0.0000000  3
   3011   3009   3010   3013     1  0.0000000  0.6508444  3
   3011   3009   3015   3021     1  0.0000000  0.6973333  3
   3012   3008   3005   3017     1  0.0000000  1.0460000  1
   3012   3008   3005   3017     1  0.0000000  0.0000000  3
   3012   3008   3009   3015     1  0.0000000  1.0460000  1
   3012   3008   3009   3015     1  0.0000000  0.0000000  3
   3012   3008   3016   3019     1  0.0000000  0.6973333  3
   3013   3010   3009   3015     1  0.0000000  0.6508444  3
   3022   3018   3004   3026     1  0.0000000  1.0460000  1
   3022   3018   3004   3026     1  0.0000000  0.0000000  3
   3022   3018   3024   3025     1  0.0000000  0.6973333  3
   3023   3018   3004   3026     1  0.0000000  1.0460000  1
   3023   3018   3004   3026     1  0.0000000  0.0000000  3
   3023   3018   3024   3025     1  0.0000000  0.6973333  3
   3027   3028   3031   3035     1  0.0000000  0.6508444  3
   3027   3028   3040   3043     1  0.0000000  1.0460000  1
   3027   3028   3040   3043     1  0.0000000  0.6694400  3
   3027   3041   3047   3048     1  0.0000000  1.0460000  1
   3027   3041   3047   3048     1  0.0000000  0.6694400  3
   3027   3049   3033   3036     1  0.0000000  1.6038667  3
   3028   3031   3032   3034     1  0.0000000  0.6508444  3
   3028   3031   3039   3042     1  0.0000000  1.0460000  1
   3028   3031   3039   3042     1  0.0000000  0.6694400  3
   3028   3027   3041   3045     1  0.0000000  0.6508444  3
   3028   3027   3041   3046     1  0.0000000  0.6508444  3
   3029   3027   3028   3031     1  0.0000000  0.6508444  3
   3029   3027   3028   3040     1  0.0000000  1.0460000  1
   3029   3027   3028   3040     1  0.0000000  0.0000000  3
   3029   3027   3028   3030     1  0.0000000  0.6508444  3
   3029   3027   3041   3047     1  0.0000000  1.0460000  1
   3029   3027   3041   3047     1  0.0000000  0.0000000  3
   3029   3027   3041   3045     1  0.0000000  0.6508444  3
   3029   3027   3041   3046     1  0.0000000  0.6508444  3
   3029   3027   3049   3033     1  0.0000000  1.6038667  3
   3030   3028   3031   3032     1  0.0000000  0.6508444  3
   3030   3028   3031   3039     1  0.0000000  1.0460000  1
   3030   3028   3031   3039     1  0.0000000  0.0000000  3
   3030   3028   3031   3035     1  0.0000000  0.6508444  3
   3030   3028   3040   3043     1  0.0000000  0.6973333  3
   3030   3028   3027   3041     1  0.0000000  0.6508444  3
   3030   3028   3027   3049     1  0.0000000  1.0460000  1
   3030   3028   3027   3049     1  0.0000000  0.0000000  3
   3031   3032   3033   3036     1  0.0000000  0.6508444  3
   3031   3032   3038   3044     1  0.0000000  1.0460000  1
   3031   3032   3038   3044     1  0.0000000  0.6694400  3
   3031   3028   3040   3043     1  0.0000000  1.0460000  1
   3031   3028   3040   3043     1  0.0000000  0.6694400  3
   3032   3031   3039   3042     1  0.0000000  1.0460000  1
   3032   3031   3039   3042     1  0.0000000  0.6694400  3
   3033   3032   3038   3044     1  0.0000000  1.0460000  1
   3033   3032   3038   3044     1  0.0000000  0.6694400  3
   3033   3032   3031   3035     1  0.0000000  0.6508444  3
   3034   3032   3033   3037     1  0.0000000  1.0460000  1
   3034   3032   3033   3037     1  0.0000000  0.0000000  3
   3034   3032   3033   3049     1  0.0000000  1.0460000  1
   3034   3032   3033   3049     1  0.0000000  0.0000000  3
   3034   3032   3033   3036     1  0.0000000  0.6508444  3
   3034   3032   3038   3044     1  0.0000000  0.6973333  3
   3034   3032   3031   3039     1  0.0000000  1.0460000  1
   3034   3032   3031   3039     1  0.0000000  0.0000000  3
   3034   3032   3031   3035     1  0.0000000  0.6508444  3
   3035   3031   3032   3038     1  0.0000000  1.0460000  1
   3035   3031   3032   3038     1  0.0000000  0.0000000  3
   3035   3031   3039   3042     1  0.0000000  0.6973333  3
   3035   3031   3028   3040     1  0.0000000  1.0460000  1
   3035   3031   3028   3040     1  0.0000000  0.0000000  3
   3036   3033   3032   3038     1  0.0000000  0.6508444  3
   3045   3041   3047   3048     1  0.0000000  0.6973333  3
   3045   3041   3027   3049     1  0.0000000  1.0460000  1
   3045   3041   3027   3049     1  0.0000000  0.0000000  3
   3046   3041   3047   3048     1  0.0000000  0.6973333  3
   3046   3041   3027   3049     1  0.0000000  1.0460000  1
   3046   3041   3027   3049     1  0.0000000  0.0000000  3
   3050   3051   3054   3058     1  0.0000000  0.6508444  3
   3050   3051   3063   3066     1  0.0000000  1.0460000  1
   3050   3051   3063   3066     1  0.0000000  0.6694400  3
   3050   3064   3070   3071     1  0.0000000  1.0460000  1
   3050   3064   3070   3071     1  0.0000000  0.6694400  3
   3050   3072   3056   3059     1  0.0000000  1.6038667  3
   3051   3050   3064   3068     1  0.0000000  0.6508444  3
   3051   3050   3064   3069     1  0.0000000  0.6508444  3
   3051   3054   3055   3057     1  0.0000000  0.6508444  3
   3051   3054   3062   3065     1  0.0000000  1.0460000  1
   3051   3054   3062   3065     1  0.0000000  0.6694400  3
   3052   3050   3051   3054     1  0.0000000  0.6508444  3
   3052   3050   3051   3063     1  0.0000000  1.0460000  1
   3052   3050   3051   3063     1  0.0000000  0.0000000  3
   3052   3050   3051   3053     1  0.0000000  0.6508444  3
   3052   3050   3064   3070     1  0.0000000  1.0460000  1
   3052   3050   3064   3070     1  0.0000000  0.0000000  3
   3052   3050   3064   3068     1  0.0000000  0.6508444  3
   3052   3050   3064   3069     1  0.0000000  0.6508444  3
   3052   3050   3072   3056     1  0.0000000  1.6038667  3
   3053   3051   3050   3064     1  0.0000000  0.6508444  3
   3053   3051   3050   3072     1  0.0000000  1.0460000  1
   3053   3051   3050   3072     1  0.0000000  0.0000000  3
   3053   3051   3054   3055     1  0.0000000  0.6508444  3
   3053   3051   3054   3062     1  0.0000000  1.0460000  1
   3053   3051   3054   3062     1  0.0000000  0.0000000  3
   3053   3051   3054   3058     1  0.0000000  0.6508444  3
   3053   3051   3063   3066     1  0.0000000  0.6973333  3
   3054   3051   3063   3066     1  0.0000000  1.0460000  1
   3054   3051   3063   3066     1  0.0000000  0.6694400  3
   3054   3055   3056   3059     1  0.0000000  0.6508444  3
   3054   3055   3061   3067     1  0.0000000  1.0460000  1
   3054   3055   3061   3067     1  0.0000000  0.6694400  3
   3055   3054   3062   3065     1  0.0000000  1.0460000  1
   3055   3054   3062   3065     1  0.0000000  0.6694400  3
   3056   3055   3054   3058     1  0.0000000  0.6508444  3
   3056   3055   3061   3067     1  0.0000000  1.0460000  1
   3056   3055   3061   3067     1  0.0000000  0.6694400  3
   3057   3055   3054   3062     1  0.0000000  1.0460000  1
   3057   3055   3054   3062     1  0.0000000  0.0000000  3
   3057   3055   3054   3058     1  0.0000000  0.6508444  3
   3057   3055   3056   3060     1  0.0000000  1.0460000  1
   3057   3055   3056   3060     1  0.0000000  0.0000000  3
   3057   3055   3056   3072     1  0.0000000  1.0460000  1
   3057   3055   3056   3072     1  0.0000000  0.0000000  3
   3057   3055   3056   3059     1  0.0000000  0.6508444  3
   3057   3055   3061   3067     1  0.0000000  0.6973333  3
   3058   3054   3051   3063     1  0.0000000  1.0460000  1
   3058   3054   3051   3063     1  0.0000000  0.0000000  3
   3058   3054   3055   3061     1  0.0000000  1.0460000  1
   3058   3054   3055   3061     1  0.0000000  0.0000000  3
   3058   3054   3062   3065     1  0.0000000  0.6973333  3
   3059   3056   3055   3061     1  0.0000000  0.6508444  3
   3068   3064   3050   3072     1  0.0000000  1.0460000  1
   3068   3064   3050   3072     1  0.0000000  0.0000000  3
   3068   3064   3070   3071     1  0.0000000  0.6973333  3
   3069   3064   3050   3072     1  0.0000000  1.0460000  1
   3069   3064   3050   3072     1  0.0000000  0.0000000  3
   3069   3064   3070   3071     1  0.0000000  0.6973333  3
   3073   3074   3077   3081     1  0.0000000  0.6508444  3
   3073   3074   3086   3089     1  0.0000000  1.0460000  1
   3073   3074   3086   3089     1  0.0000000  0.6694400  3
   3073   3087   3093   3094     1  0.0000000  1.0460000  1
   3073   3087   3093   3094     1  0.0000000  0.6694400  3
   3073   3095   3079   3082     1  0.0000000  1.6038667  3
   3074   3077   3078   3080     1  0.0000000  0.6508444  3
   3074   3077   3085   3088     1  0.0000000  1.0460000  1
   3074   3077   3085   3088     1  0.0000000  0.6694400  3
   3074   3073   3087   3091     1  0.0000000  0.6508444  3
   3074   3073   3087   3092     1  0.0000000  0.6508444  3
   3075   3073   3074   3077     1  0.0000000  0.6508444  3
   3075   3073   3074   3086     1  0.0000000  1.0460000  1
   3075   3073   3074   3086     1  0.0000000  0.0000000  3
   3075   3073   3074   3076     1  0.0000000  0.6508444  3
   3075   3073   3087   3093     1  0.0000000  1.0460000  1
   3075   3073   3087   3093     1  0.0000000  0.0000000  3
   3075   3073   3087   3091     1  0.0000000  0.6508444  3
   3075   3073   3087   3092     1  0.0000000  0.6508444  3
   3075   3073   3095   3079     1  0.0000000  1.6038667  3
   3076   3074   3077   3078     1  0.0000000  0.6508444  3
   3076   3074   3077   3085     1  0.0000000  1.0460000  1
   3076   3074   3077   3085     1  0.0000000  0.0000000  3
   3076   3074   3077   3081     1  0.0000000  0.6508444  3
   3076   3074   3086   3089     1  0.0000000  0.6973333  3
   3076   3074   3073   3087     1  0.0000000  0.6508444  3
   3076   3074   3073   3095     1  0.0000000  1.0460000  1
   3076   3074   3073   3095     1  0.0000000  0.0000000  3
   3077   3078   3079   3082     1  0.0000000  0.6508444  3
   3077   3078   3084   3090     1  0.0000000  1.0460000  1
   3077   3078   3084   3090     1  0.0000000  0.6694400  3
   3077   3074   3086   3089     1  0.0000000  1.0460000  1
   3077   3074   3086   3089     1  0.0000000  0.6694400  3
   3078   3077   3085   3088     1  0.0000000  1.0460000  1
   3078   3077   3085   3088     1  0.0000000  0.6694400  3
   3079   3078   3084   3090     1  0.0000000  1.0460000  1
   3079   3078   3084   3090     1  0.0000000  0.6694400  3
   3079   3078   3077   3081     1  0.0000000  0.6508444  3
   3080   3078   3079   3083     1  0.0000000  1.0460000  1
   3080   3078   3079   3083     1  0.0000000  0.0000000  3
   3080   3078   3079   3095     1  0.0000000  1.0460000  1
   3080   3078   3079   3095     1  0.0000000  0.0000000  3
   3080   3078   3079   3082     1  0.0000000  0.6508444  3
   3080   3078   3084   3090     1  0.0000000  0.6973333  3
   3080   3078   3077   3085     1  0.0000000  1.0460000  1
   3080   3078   3077   3085     1  0.0000000  0.0000000  3
   3080   3078   3077   3081     1  0.0000000  0.6508444  3
   3081   3077   3078   3084     1  0.0000000  1.0460000  1
   3081   3077   3078   3084     1  0.0000000  0.0000000  3
   3081   3077   3085   3088     1  0.0000000  0.6973333  3
   3081   3077   3074   3086     1  0.0000000  1.0460000  1
   3081   3077   3074   3086     1  0.0000000  0.0000000  3
   3082   3079   3078   3084     1  0.0000000  0.6508444  3
   3091   3087   3093   3094     1  0.0000000  0.6973333  3
   3091   3087   3073   3095     1  0.0000000  1.0460000  1
   3091   3087   3073   3095     1  0.0000000  0.0000000  3
   3092   3087   3093   3094     1  0.0000000  0.6973333  3
   3092   3087   3073   3095     1  0.0000000  1.0460000  1
   3092   3087   3073   3095     1  0.0000000  0.0000000  3
   3096   3097   3100   3104     1  0.0000000  0.6508444  3
   3096   3097   3109   3112     1  0.0000000  1.0460000  1
   3096   3097   3109   3112     1  0.0000000  0.6694400  3
   3096   3110   3116   3117     1  0.0000000  1.0460000  1
   3096   3110   3116   3117     1  0.0000000  0.6694400  3
   3096   3118   3102   3105     1  0.0000000  1.6038667  3
   3097   3096   3110   3114     1  0.0000000  0.6508444  3
   3097   3096   3110   3115     1  0.0000000  0.6508444  3
   3097   3100   3101   3103     1  0.0000000  0.6508444  3
   3097   3100   3108   3111     1  0.0000000  1.0460000  1
   3097   3100   3108   3111     1  0.0000000  0.6694400  3
   3098   3096   3097   3100     1  0.0000000  0.6508444  3
   3098   3096   3097   3109     1  0.0000000  1.0460000  1
   3098   3096   3097   3109     1  0.0000000  0.0000000  3
   3098   3096   3097   3099     1  0.0000000  0.6508444  3
   3098   3096   3110   3116     1  0.0000000  1.0460000  1
   3098   3096   3110   3116     1  0.0000000  0.0000000  3
   3098   3096   3110   3114     1  0.0000000  0.6508444  3
   3098   3096   3110   3115     1  0.0000000  0.6508444  3
   3098   3096   3118   3102     1  0.0000000  1.6038667  3
   3099   3097   3096   3110     1  0.0000000  0.6508444  3
   3099   3097   3096   3118     1  0.0000000  1.0460000  1
   3099   3097   3096   3118     1  0.0000000  0.0000000  3
   3099   3097   3100   3101     1  0.0000000  0.6508444  3
   3099   3097   3100   3108     1  0.0000000  1.0460000  1
   3099   3097   3100   3108     1  0.0000000  0.0000000  3
   3099   3097   3100   3104     1  0.0000000  0.6508444  3
   3099   3097   3109   3112     1  0.0000000  0.6973333  3
   3100   3097   3109   3112     1  0.0000000  1.0460000  1
   3100   3097   3109   3112     1  0.0000000  0.6694400  3
   3100   3101   3102   3105     1  0.0000000  0.6508444  3
   3100   3101   3107   3113     1  0.0000000  1.0460000  1
   3100   3101   3107   3113     1  0.0000000  0.6694400  3
   3101   3100   3108   3111     1  0.0000000  1.0460000  1
   3101   3100   3108   3111     1  0.0000000  0.6694400  3
   3102   3101   3100   3104     1  0.0000000  0.6508444  3
   3102   3101   3107   3113     1  0.0000000  1.0460000  1
   3102   3101   3107   3113     1  0.0000000  0.6694400  3
   3103   3101   3100   3108     1  0.0000000  1.0460000  1
   3103   3101   3100   3108     1  0.0000000  0.0000000  3
   3103   3101   3100   3104     1  0.0000000  0.6508444  3
   3103   3101   3102   3106     1  0.0000000  1.0460000  1
   3103   3101   3102   3106     1  0.0000000  0.0000000  3
   3103   3101   3102   3118     1  0.0000000  1.0460000  1
   3103   3101   3102   3118     1  0.0000000  0.0000000  3
   3103   3101   3102   3105     1  0.0000000  0.6508444  3
   3103   3101   3107   3113     1  0.0000000  0.6973333  3
   3104   3100   3097   3109     1  0.0000000  1.0460000  1
   3104   3100   3097   3109     1  0.0000000  0.0000000  3
   3104   3100   3101   3107     1  0.0000000  1.0460000  1
   3104   3100   3101   3107     1  0.0000000  0.0000000  3
   3104   3100   3108   3111     1  0.0000000  0.6973333  3
   3105   3102   3101   3107     1  0.0000000  0.6508444  3
   3114   3110   3096   3118     1  0.0000000  1.0460000  1
   3114   3110   3096   3118     1  0.0000000  0.0000000  3
   3114   3110   3116   3117     1  0.0000000  0.6973333  3
   3115   3110   3096   3118     1  0.0000000  1.0460000  1
   3115   3110   3096   3118     1  0.0000000  0.0000000  3
   3115   3110   3116   3117     1  0.0000000  0.6973333  3
   3119   3120   3123   3127     1  0.0000000  0.6508444  3
   3119   3120   3132   3135     1  0.0000000  1.0460000  1
   3119   3120   3132   3135     1  0.0000000  0.6694400  3
   3119   3133   3139   3140     1  0.0000000  1.0460000  1
   3119   3133   3139   3140     1  0.0000000  0.6694400  3
   3119   3141   3125   3128     1  0.0000000  1.6038667  3
   3120   3123   3124   3126     1  0.0000000  0.6508444  3
   3120   3123   3131   3134     1  0.0000000  1.0460000  1
   3120   3123   3131   3134     1  0.0000000  0.6694400  3
   3120   3119   3133   3137     1  0.0000000  0.6508444  3
   3120   3119   3133   3138     1  0.0000000  0.6508444  3
   3121   3119   3120   3123     1  0.0000000  0.6508444  3
   3121   3119   3120   3132     1  0.0000000  1.0460000  1
   3121   3119   3120   3132     1  0.0000000  0.0000000  3
   3121   3119   3120   3122     1  0.0000000  0.6508444  3
   3121   3119   3133   3139     1  0.0000000  1.0460000  1
   3121   3119   3133   3139     1  0.0000000  0.0000000  3
   3121   3119   3133   3137     1  0.0000000  0.6508444  3
   3121   3119   3133   3138     1  0.0000000  0.6508444  3
   3121   3119   3141   3125     1  0.0000000  1.6038667  3
   3122   3120   3123   3124     1  0.0000000  0.6508444  3
   3122   3120   3123   3131     1  0.0000000  1.0460000  1
   3122   3120   3123   3131     1  0.0000000  0.0000000  3
   3122   3120   3123   3127     1  0.0000000  0.6508444  3
   3122   3120   3132   3135     1  0.0000000  0.6973333  3
   3122   3120   3119   3133     1  0.0000000  0.6508444  3
   3122   3120   3119   3141     1  0.0000000  1.0460000  1
   3122   3120   3119   3141     1  0.0000000  0.0000000  3
   3123   3124   3125   3128     1  0.0000000  0.6508444  3
   3123   3124   3130   3136     1  0.0000000  1.0460000  1
   3123   3124   3130   3136     1  0.0000000  0.6694400  3
   3123   3120   3132   3135     1  0.0000000  1.0460000  1
   3123   3120   3132   3135     1  0.0000000  0.6694400  3
   3124   3123   3131   3134     1  0.0000000  1.0460000  1
   3124   3123   3131   3134     1  0.0000000  0.6694400  3
   3125   3124   3130   3136     1  0.0000000  1.0460000  1
   3125   3124   3130   3136     1  0.0000000  0.6694400  3
   3125   3124   3123   3127     1  0.0000000  0.6508444  3
   3126   3124   3125   3129     1  0.0000000  1.0460000  1
   3126   3124   3125   3129     1  0.0000000  0.0000000  3
   3126   3124   3125   3141     1  0.0000000  1.0460000  1
   3126   3124   3125   3141     1  0.0000000  0.0000000  3
   3126   3124   3125   3128     1  0.0000000  0.6508444  3
   3126   3124   3130   3136     1  0.0000000  0.6973333  3
   3126   3124   3123   3131     1  0.0000000  1.0460000  1
   3126   3124   3123   3131     1  0.0000000  0.0000000  3
   3126   3124   3123   3127     1  0.0000000  0.6508444  3
   3127   3123   3124   3130     1  0.0000000  1.0460000  1
   3127   3123   3124   3130     1  0.0000000  0.0000000  3
   3127   3123   3131   3134     1  0.0000000  0.6973333  3
   3127   3123   3120   3132     1  0.0000000  1.0460000  1
   3127   3123   3120   3132     1  0.0000000  0.0000000  3
   3128   3125   3124   3130     1  0.0000000  0.6508444  3
   3137   3133   3139   3140     1  0.0000000  0.6973333  3
   3137   3133   3119   3141     1  0.0000000  1.0460000  1
   3137   3133   3119   3141     1  0.0000000  0.0000000  3
   3138   3133   3139   3140     1  0.0000000  0.6973333  3
   3138   3133   3119   3141     1  0.0000000  1.0460000  1
   3138   3133   3119   3141     1  0.0000000  0.0000000  3
   3142   3143   3146   3150     1  0.0000000  0.6508444  3
   3142   3143   3155   3158     1  0.0000000  1.0460000  1
   3142   3143   3155   3158     1  0.0000000  0.6694400  3
   3142   3156   3162   3163     1  0.0000000  1.0460000  1
   3142   3156   3162   3163     1  0.0000000  0.6694400  3
   3142   3164   3148   3151     1  0.0000000  1.6038667  3
   3143   3142   3156   3160     1  0.0000000  0.6508444  3
   3143   3142   3156   3161     1  0.0000000  0.6508444  3
   3143   3146   3147   3149     1  0.0000000  0.6508444  3
   3143   3146   3154   3157     1  0.0000000  1.0460000  1
   3143   3146   3154   3157     1  0.0000000  0.6694400  3
   3144   3142   3143   3146     1  0.0000000  0.6508444  3
   3144   3142   3143   3155     1  0.0000000  1.0460000  1
   3144   3142   3143   3155     1  0.0000000  0.0000000  3
   3144   3142   3143   3145     1  0.0000000  0.6508444  3
   3144   3142   3156   3162     1  0.0000000  1.0460000  1
   3144   3142   3156   3162     1  0.0000000  0.0000000  3
   3144   3142   3156   3160     1  0.0000000  0.6508444  3
   3144   3142   3156   3161     1  0.0000000  0.6508444  3
   3144   3142   3164   3148     1  0.0000000  1.6038667  3
   3145   3143   3142   3156     1  0.0000000  0.6508444  3
   3145   3143   3142   3164     1  0.0000000  1.0460000  1
   3145   3143   3142   3164     1  0.0000000  0.0000000  3
   3145   3143   3146   3147     1  0.0000000  0.6508444  3
   3145   3143   3146   3154     1  0.0000000  1.0460000  1
   3145   3143   3146   3154     1  0.0000000  0.0000000  3
   3145   3143   3146   3150     1  0.0000000  0.6508444  3
   3145   3143   3155   3158     1  0.0000000  0.6973333  3
   3146   3143   3155   3158     1  0.0000000  1.0460000  1
   3146   3143   3155   3158     1  0.0000000  0.6694400  3
   3146   3147   3148   3151     1  0.0000000  0.6508444  3
   3146   3147   3153   3159     1  0.0000000  1.0460000  1
   3146   3147   3153   3159     1  0.0000000  0.6694400  3
   3147   3146   3154   3157     1  0.0000000  1.0460000  1
   3147   3146   3154   3157     1  0.0000000  0.6694400  3
   3148   3147   3146   3150     1  0.0000000  0.6508444  3
   3148   3147   3153   3159     1  0.0000000  1.0460000  1
   3148   3147   3153   3159     1  0.0000000  0.6694400  3
   3149   3147   3146   3154     1  0.0000000  1.0460000  1
   3149   3147   3146   3154     1  0.0000000  0.0000000  3
   3149   3147   3146   3150     1  0.0000000  0.6508444  3
   3149   3147   3148   3152     1  0.0000000  1.0460000  1
   3149   3147   3148   3152     1  0.0000000  0.0000000  3
   3149   3147   3148   3164     1  0.0000000  1.0460000  1
   3149   3147   3148   3164     1  0.0000000  0.0000000  3
   3149   3147   3148   3151     1  0.0000000  0.6508444  3
   3149   3147   3153   3159     1  0.0000000  0.6973333  3
   3150   3146   3143   3155     1  0.0000000  1.0460000  1
   3150   3146   3143   3155     1  0.0000000  0.0000000  3
   3150   3146   3147   3153     1  0.0000000  1.0460000  1
   3150   3146   3147   3153     1  0.0000000  0.0000000  3
   3150   3146   3154   3157     1  0.0000000  0.6973333  3
   3151   3148   3147   3153     1  0.0000000  0.6508444  3
   3160   3156   3142   3164     1  0.0000000  1.0460000  1
   3160   3156   3142   3164     1  0.0000000  0.0000000  3
   3160   3156   3162   3163     1  0.0000000  0.6973333  3
   3161   3156   3142   3164     1  0.0000000  1.0460000  1
   3161   3156   3142   3164     1  0.0000000  0.0000000  3
   3161   3156   3162   3163     1  0.0000000  0.6973333  3
   3165   3166   3169   3173     1  0.0000000  0.6508444  3
   3165   3166   3178   3181     1  0.0000000  1.0460000  1
   3165   3166   3178   3181     1  0.0000000  0.6694400  3
   3165   3179   3185   3186     1  0.0000000  1.0460000  1
   3165   3179   3185   3186     1  0.0000000  0.6694400  3
   3165   3187   3171   3174     1  0.0000000  1.6038667  3
   3166   3169   3170   3172     1  0.0000000  0.6508444  3
   3166   3169   3177   3180     1  0.0000000  1.0460000  1
   3166   3169   3177   3180     1  0.0000000  0.6694400  3
   3166   3165   3179   3183     1  0.0000000  0.6508444  3
   3166   3165   3179   3184     1  0.0000000  0.6508444  3
   3167   3165   3166   3169     1  0.0000000  0.6508444  3
   3167   3165   3166   3178     1  0.0000000  1.0460000  1
   3167   3165   3166   3178     1  0.0000000  0.0000000  3
   3167   3165   3166   3168     1  0.0000000  0.6508444  3
   3167   3165   3179   3185     1  0.0000000  1.0460000  1
   3167   3165   3179   3185     1  0.0000000  0.0000000  3
   3167   3165   3179   3183     1  0.0000000  0.6508444  3
   3167   3165   3179   3184     1  0.0000000  0.6508444  3
   3167   3165   3187   3171     1  0.0000000  1.6038667  3
   3168   3166   3169   3170     1  0.0000000  0.6508444  3
   3168   3166   3169   3177     1  0.0000000  1.0460000  1
   3168   3166   3169   3177     1  0.0000000  0.0000000  3
   3168   3166   3169   3173     1  0.0000000  0.6508444  3
   3168   3166   3178   3181     1  0.0000000  0.6973333  3
   3168   3166   3165   3179     1  0.0000000  0.6508444  3
   3168   3166   3165   3187     1  0.0000000  1.0460000  1
   3168   3166   3165   3187     1  0.0000000  0.0000000  3
   3169   3170   3171   3174     1  0.0000000  0.6508444  3
   3169   3170   3176   3182     1  0.0000000  1.0460000  1
   3169   3170   3176   3182     1  0.0000000  0.6694400  3
   3169   3166   3178   3181     1  0.0000000  1.0460000  1
   3169   3166   3178   3181     1  0.0000000  0.6694400  3
   3170   3169   3177   3180     1  0.0000000  1.0460000  1
   3170   3169   3177   3180     1  0.0000000  0.6694400  3
   3171   3170   3176   3182     1  0.0000000  1.0460000  1
   3171   3170   3176   3182     1  0.0000000  0.6694400  3
   3171   3170   3169   3173     1  0.0000000  0.6508444  3
   3172   3170   3171   3175     1  0.0000000  1.0460000  1
   3172   3170   3171   3175     1  0.0000000  0.0000000  3
   3172   3170   3171   3187     1  0.0000000  1.0460000  1
   3172   3170   3171   3187     1  0.0000000  0.0000000  3
   3172   3170   3171   3174     1  0.0000000  0.6508444  3
   3172   3170   3176   3182     1  0.0000000  0.6973333  3
   3172   3170   3169   3177     1  0.0000000  1.0460000  1
   3172   3170   3169   3177     1  0.0000000  0.0000000  3
   3172   3170   3169   3173     1  0.0000000  0.6508444  3
   3173   3169   3170   3176     1  0.0000000  1.0460000  1
   3173   3169   3170   3176     1  0.0000000  0.0000000  3
   3173   3169   3177   3180     1  0.0000000  0.6973333  3
   3173   3169   3166   3178     1  0.0000000  1.0460000  1
   3173   3169   3166   3178     1  0.0000000  0.0000000  3
   3174   3171   3170   3176     1  0.0000000  0.6508444  3
   3183   3179   3185   3186     1  0.0000000  0.6973333  3
   3183   3179   3165   3187     1  0.0000000  1.0460000  1
   3183   3179   3165   3187     1  0.0000000  0.0000000  3
   3184   3179   3185   3186     1  0.0000000  0.6973333  3
   3184   3179   3165   3187     1  0.0000000  1.0460000  1
   3184   3179   3165   3187     1  0.0000000  0.0000000  3
   3188   3189   3192   3196     1  0.0000000  0.6508444  3
   3188   3189   3201   3204     1  0.0000000  1.0460000  1
   3188   3189   3201   3204     1  0.0000000  0.6694400  3
   3188   3202   3208   3209     1  0.0000000  1.0460000  1
   3188   3202   3208   3209     1  0.0000000  0.6694400  3
   3188   3210   3194   3197     1  0.0000000  1.6038667  3
   3189   3188   3202   3206     1  0.0000000  0.6508444  3
   3189   3188   3202   3207     1  0.0000000  0.6508444  3
   3189   3192   3193   3195     1  0.0000000  0.6508444  3
   3189   3192   3200   3203     1  0.0000000  1.0460000  1
   3189   3192   3200   3203     1  0.0000000  0.6694400  3
   3190   3188   3189   3192     1  0.0000000  0.6508444  3
   3190   3188   3189   3201     1  0.0000000  1.0460000  1
   3190   3188   3189   3201     1  0.0000000  0.0000000  3
   3190   3188   3189   3191     1  0.0000000  0.6508444  3
   3190   3188   3202   3208     1  0.0000000  1.0460000  1
   3190   3188   3202   3208     1  0.0000000  0.0000000  3
   3190   3188   3202   3206     1  0.0000000  0.6508444  3
   3190   3188   3202   3207     1  0.0000000  0.6508444  3
   3190   3188   3210   3194     1  0.0000000  1.6038667  3
   3191   3189   3188   3202     1  0.0000000  0.6508444  3
   3191   3189   3188   3210     1  0.0000000  1.0460000  1
   3191   3189   3188   3210     1  0.0000000  0.0000000  3
   3191   3189   3192   3193     1  0.0000000  0.6508444  3
   3191   3189   3192   3200     1  0.0000000  1.0460000  1
   3191   3189   3192   3200     1  0.0000000  0.0000000  3
   3191   3189   3192   3196     1  0.0000000  0.6508444  3
   3191   3189   3201   3204     1  0.0000000  0.6973333  3
   3192   3189   3201   3204     1  0.0000000  1.0460000  1
   3192   3189   3201   3204     1  0.0000000  0.6694400  3
   3192   3193   3194   3197     1  0.0000000  0.6508444  3
   3192   3193   3199   3205     1  0.0000000  1.0460000  1
   3192   3193   3199   3205     1  0.0000000  0.6694400  3
   3193   3192   3200   3203     1  0.0000000  1.0460000  1
   3193   3192   3200   3203     1  0.0000000  0.6694400  3
   3194   3193   3192   3196     1  0.0000000  0.6508444  3
   3194   3193   3199   3205     1  0.0000000  1.0460000  1
   3194   3193   3199   3205     1  0.0000000  0.6694400  3
   3195   3193   3192   3200     1  0.0000000  1.0460000  1
   3195   3193   3192   3200     1  0.0000000  0.0000000  3
   3195   3193   3192   3196     1  0.0000000  0.6508444  3
   3195   3193   3194   3198     1  0.0000000  1.0460000  1
   3195   3193   3194   3198     1  0.0000000  0.0000000  3
   3195   3193   3194   3210     1  0.0000000  1.0460000  1
   3195   3193   3194   3210     1  0.0000000  0.0000000  3
   3195   3193   3194   3197     1  0.0000000  0.6508444  3
   3195   3193   3199   3205     1  0.0000000  0.6973333  3
   3196   3192   3189   3201     1  0.0000000  1.0460000  1
   3196   3192   3189   3201     1  0.0000000  0.0000000  3
   3196   3192   3193   3199     1  0.0000000  1.0460000  1
   3196   3192   3193   3199     1  0.0000000  0.0000000  3
   3196   3192   3200   3203     1  0.0000000  0.6973333  3
   3197   3194   3193   3199     1  0.0000000  0.6508444  3
   3206   3202   3188   3210     1  0.0000000  1.0460000  1
   3206   3202   3188   3210     1  0.0000000  0.0000000  3
   3206   3202   3208   3209     1  0.0000000  0.6973333  3
   3207   3202   3188   3210     1  0.0000000  1.0460000  1
   3207   3202   3188   3210     1  0.0000000  0.0000000  3
   3207   3202   3208   3209     1  0.0000000  0.6973333  3
   3211   3212   3215   3219     1  0.0000000  0.6508444  3
   3211   3212   3224   3227     1  0.0000000  1.0460000  1
   3211   3212   3224   3227     1  0.0000000  0.6694400  3
   3211   3225   3231   3232     1  0.0000000  1.0460000  1
   3211   3225   3231   3232     1  0.0000000  0.6694400  3
   3211   3233   3217   3220     1  0.0000000  1.6038667  3
   3212   3215   3216   3218     1  0.0000000  0.6508444  3
   3212   3215   3223   3226     1  0.0000000  1.0460000  1
   3212   3215   3223   3226     1  0.0000000  0.6694400  3
   3212   3211   3225   3229     1  0.0000000  0.6508444  3
   3212   3211   3225   3230     1  0.0000000  0.6508444  3
   3213   3211   3212   3215     1  0.0000000  0.6508444  3
   3213   3211   3212   3224     1  0.0000000  1.0460000  1
   3213   3211   3212   3224     1  0.0000000  0.0000000  3
   3213   3211   3212   3214     1  0.0000000  0.6508444  3
   3213   3211   3225   3231     1  0.0000000  1.0460000  1
   3213   3211   3225   3231     1  0.0000000  0.0000000  3
   3213   3211   3225   3229     1  0.0000000  0.6508444  3
   3213   3211   3225   3230     1  0.0000000  0.6508444  3
   3213   3211   3233   3217     1  0.0000000  1.6038667  3
   3214   3212   3215   3216     1  0.0000000  0.6508444  3
   3214   3212   3215   3223     1  0.0000000  1.0460000  1
   3214   3212   3215   3223     1  0.0000000  0.0000000  3
   3214   3212   3215   3219     1  0.0000000  0.6508444  3
   3214   3212   3224   3227     1  0.0000000  0.6973333  3
   3214   3212   3211   3225     1  0.0000000  0.6508444  3
   3214   3212   3211   3233     1  0.0000000  1.0460000  1
   3214   3212   3211   3233     1  0.0000000  0.0000000  3
   3215   3216   3217   3220     1  0.0000000  0.6508444  3
   3215   3216   3222   3228     1  0.0000000  1.0460000  1
   3215   3216   3222   3228     1  0.0000000  0.6694400  3
   3215   3212   3224   3227     1  0.0000000  1.0460000  1
   3215   3212   3224   3227     1  0.0000000  0.6694400  3
   3216   3215   3223   3226     1  0.0000000  1.0460000  1
   3216   3215   3223   3226     1  0.0000000  0.6694400  3
   3217   3216   3222   3228     1  0.0000000  1.0460000  1
   3217   3216   3222   3228     1  0.0000000  0.6694400  3
   3217   3216   3215   3219     1  0.0000000  0.6508444  3
   3218   3216   3217   3221     1  0.0000000  1.0460000  1
   3218   3216   3217   3221     1  0.0000000  0.0000000  3
   3218   3216   3217   3233     1  0.0000000  1.0460000  1
   3218   3216   3217   3233     1  0.0000000  0.0000000  3
   3218   3216   3217   3220     1  0.0000000  0.6508444  3
   3218   3216   3222   3228     1  0.0000000  0.6973333  3
   3218   3216   3215   3223     1  0.0000000  1.0460000  1
   3218   3216   3215   3223     1  0.0000000  0.0000000  3
   3218   3216   3215   3219     1  0.0000000  0.6508444  3
   3219   3215   3216   3222     1  0.0000000  1.0460000  1
   3219   3215   3216   3222     1  0.0000000  0.0000000  3
   3219   3215   3223   3226     1  0.0000000  0.6973333  3
   3219   3215   3212   3224     1  0.0000000  1.0460000  1
   3219   3215   3212   3224     1  0.0000000  0.0000000  3
   3220   3217   3216   3222     1  0.0000000  0.6508444  3
   3229   3225   3231   3232     1  0.0000000  0.6973333  3
   3229   3225   3211   3233     1  0.0000000  1.0460000  1
   3229   3225   3211   3233     1  0.0000000  0.0000000  3
   3230   3225   3231   3232     1  0.0000000  0.6973333  3
   3230   3225   3211   3233     1  0.0000000  1.0460000  1
   3230   3225   3211   3233     1  0.0000000  0.0000000  3
   3234   3235   3238   3242     1  0.0000000  0.6508444  3
   3234   3235   3247   3250     1  0.0000000  1.0460000  1
   3234   3235   3247   3250     1  0.0000000  0.6694400  3
   3234   3248   3254   3255     1  0.0000000  1.0460000  1
   3234   3248   3254   3255     1  0.0000000  0.6694400  3
   3234   3256   3240   3243     1  0.0000000  1.6038667  3
   3235   3234   3248   3252     1  0.0000000  0.6508444  3
   3235   3234   3248   3253     1  0.0000000  0.6508444  3
   3235   3238   3239   3241     1  0.0000000  0.6508444  3
   3235   3238   3246   3249     1  0.0000000  1.0460000  1
   3235   3238   3246   3249     1  0.0000000  0.6694400  3
   3236   3234   3235   3238     1  0.0000000  0.6508444  3
   3236   3234   3235   3247     1  0.0000000  1.0460000  1
   3236   3234   3235   3247     1  0.0000000  0.0000000  3
   3236   3234   3235   3237     1  0.0000000  0.6508444  3
   3236   3234   3248   3254     1  0.0000000  1.0460000  1
   3236   3234   3248   3254     1  0.0000000  0.0000000  3
   3236   3234   3248   3252     1  0.0000000  0.6508444  3
   3236   3234   3248   3253     1  0.0000000  0.6508444  3
   3236   3234   3256   3240     1  0.0000000  1.6038667  3
   3237   3235   3234   3248     1  0.0000000  0.6508444  3
   3237   3235   3234   3256     1  0.0000000  1.0460000  1
   3237   3235   3234   3256     1  0.0000000  0.0000000  3
   3237   3235   3238   3239     1  0.0000000  0.6508444  3
   3237   3235   3238   3246     1  0.0000000  1.0460000  1
   3237   3235   3238   3246     1  0.0000000  0.0000000  3
   3237   3235   3238   3242     1  0.0000000  0.6508444  3
   3237   3235   3247   3250     1  0.0000000  0.6973333  3
   3238   3235   3247   3250     1  0.0000000  1.0460000  1
   3238   3235   3247   3250     1  0.0000000  0.6694400  3
   3238   3239   3240   3243     1  0.0000000  0.6508444  3
   3238   3239   3245   3251     1  0.0000000  1.0460000  1
   3238   3239   3245   3251     1  0.0000000  0.6694400  3
   3239   3238   3246   3249     1  0.0000000  1.0460000  1
   3239   3238   3246   3249     1  0.0000000  0.6694400  3
   3240   3239   3238   3242     1  0.0000000  0.6508444  3
   3240   3239   3245   3251     1  0.0000000  1.0460000  1
   3240   3239   3245   3251     1  0.0000000  0.6694400  3
   3241   3239   3238   3246     1  0.0000000  1.0460000  1
   3241   3239   3238   3246     1  0.0000000  0.0000000  3
   3241   3239   3238   3242     1  0.0000000  0.6508444  3
   3241   3239   3240   3244     1  0.0000000  1.0460000  1
   3241   3239   3240   3244     1  0.0000000  0.0000000  3
   3241   3239   3240   3256     1  0.0000000  1.0460000  1
   3241   3239   3240   3256     1  0.0000000  0.0000000  3
   3241   3239   3240   3243     1  0.0000000  0.6508444  3
   3241   3239   3245   3251     1  0.0000000  0.6973333  3
   3242   3238   3235   3247     1  0.0000000  1.0460000  1
   3242   3238   3235   3247     1  0.0000000  0.0000000  3
   3242   3238   3239   3245     1  0.0000000  1.0460000  1
   3242   3238   3239   3245     1  0.0000000  0.0000000  3
   3242   3238   3246   3249     1  0.0000000  0.6973333  3
   3243   3240   3239   3245     1  0.0000000  0.6508444  3
   3252   3248   3234   3256     1  0.0000000  1.0460000  1
   3252   3248   3234   3256     1  0.0000000  0.0000000  3
   3252   3248   3254   3255     1  0.0000000  0.6973333  3
   3253   3248   3234   3256     1  0.0000000  1.0460000  1
   3253   3248   3234   3256     1  0.0000000  0.0000000  3
   3253   3248   3254   3255     1  0.0000000  0.6973333  3
   3257   3258   3261   3265     1  0.0000000  0.6508444  3
   3257   3258   3270   3273     1  0.0000000  1.0460000  1
   3257   3258   3270   3273     1  0.0000000  0.6694400  3
   3257   3271   3277   3278     1  0.0000000  1.0460000  1
   3257   3271   3277   3278     1  0.0000000  0.6694400  3
   3257   3279   3263   3266     1  0.0000000  1.6038667  3
   3258   3261   3262   3264     1  0.0000000  0.6508444  3
   3258   3261   3269   3272     1  0.0000000  1.0460000  1
   3258   3261   3269   3272     1  0.0000000  0.6694400  3
   3258   3257   3271   3275     1  0.0000000  0.6508444  3
   3258   3257   3271   3276     1  0.0000000  0.6508444  3
   3259   3257   3258   3261     1  0.0000000  0.6508444  3
   3259   3257   3258   3270     1  0.0000000  1.0460000  1
   3259   3257   3258   3270     1  0.0000000  0.0000000  3
   3259   3257   3258   3260     1  0.0000000  0.6508444  3
   3259   3257   3271   3277     1  0.0000000  1.0460000  1
   3259   3257   3271   3277     1  0.0000000  0.0000000  3
   3259   3257   3271   3275     1  0.0000000  0.6508444  3
   3259   3257   3271   3276     1  0.0000000  0.6508444  3
   3259   3257   3279   3263     1  0.0000000  1.6038667  3
   3260   3258   3261   3262     1  0.0000000  0.6508444  3
   3260   3258   3261   3269     1  0.0000000  1.0460000  1
   3260   3258   3261   3269     1  0.0000000  0.0000000  3
   3260   3258   3261   3265     1  0.0000000  0.6508444  3
   3260   3258   3270   3273     1  0.0000000  0.6973333  3
   3260   3258   3257   3271     1  0.0000000  0.6508444  3
   3260   3258   3257   3279     1  0.0000000  1.0460000  1
   3260   3258   3257   3279     1  0.0000000  0.0000000  3
   3261   3262   3263   3266     1  0.0000000  0.6508444  3
   3261   3262   3268   3274     1  0.0000000  1.0460000  1
   3261   3262   3268   3274     1  0.0000000  0.6694400  3
   3261   3258   3270   3273     1  0.0000000  1.0460000  1
   3261   3258   3270   3273     1  0.0000000  0.6694400  3
   3262   3261   3269   3272     1  0.0000000  1.0460000  1
   3262   3261   3269   3272     1  0.0000000  0.6694400  3
   3263   3262   3268   3274     1  0.0000000  1.0460000  1
   3263   3262   3268   3274     1  0.0000000  0.6694400  3
   3263   3262   3261   3265     1  0.0000000  0.6508444  3
   3264   3262   3263   3267     1  0.0000000  1.0460000  1
   3264   3262   3263   3267     1  0.0000000  0.0000000  3
   3264   3262   3263   3279     1  0.0000000  1.0460000  1
   3264   3262   3263   3279     1  0.0000000  0.0000000  3
   3264   3262   3263   3266     1  0.0000000  0.6508444  3
   3264   3262   3268   3274     1  0.0000000  0.6973333  3
   3264   3262   3261   3269     1  0.0000000  1.0460000  1
   3264   3262   3261   3269     1  0.0000000  0.0000000  3
   3264   3262   3261   3265     1  0.0000000  0.6508444  3
   3265   3261   3262   3268     1  0.0000000  1.0460000  1
   3265   3261   3262   3268     1  0.0000000  0.0000000  3
   3265   3261   3269   3272     1  0.0000000  0.6973333  3
   3265   3261   3258   3270     1  0.0000000  1.0460000  1
   3265   3261   3258   3270     1  0.0000000  0.0000000  3
   3266   3263   3262   3268     1  0.0000000  0.6508444  3
   3275   3271   3277   3278     1  0.0000000  0.6973333  3
   3275   3271   3257   3279     1  0.0000000  1.0460000  1
   3275   3271   3257   3279     1  0.0000000  0.0000000  3
   3276   3271   3277   3278     1  0.0000000  0.6973333  3
   3276   3271   3257   3279     1  0.0000000  1.0460000  1
   3276   3271   3257   3279     1  0.0000000  0.0000000  3
   3280   3281   3284   3288     1  0.0000000  0.6508444  3
   3280   3281   3293   3296     1  0.0000000  1.0460000  1
   3280   3281   3293   3296     1  0.0000000  0.6694400  3
   3280   3294   3300   3301     1  0.0000000  1.0460000  1
   3280   3294   3300   3301     1  0.0000000  0.6694400  3
   3280   3302   3286   3289     1  0.0000000  1.6038667  3
   3281   3280   3294   3298     1  0.0000000  0.6508444  3
   3281   3280   3294   3299     1  0.0000000  0.6508444  3
   3281   3284   3285   3287     1  0.0000000  0.6508444  3
   3281   3284   3292   3295     1  0.0000000  1.0460000  1
   3281   3284   3292   3295     1  0.0000000  0.6694400  3
   3282   3280   3281   3284     1  0.0000000  0.6508444  3
   3282   3280   3281   3293     1  0.0000000  1.0460000  1
   3282   3280   3281   3293     1  0.0000000  0.0000000  3
   3282   3280   3281   3283     1  0.0000000  0.6508444  3
   3282   3280   3294   3300     1  0.0000000  1.0460000  1
   3282   3280   3294   3300     1  0.0000000  0.0000000  3
   3282   3280   3294   3298     1  0.0000000  0.6508444  3
   3282   3280   3294   3299     1  0.0000000  0.6508444  3
   3282   3280   3302   3286     1  0.0000000  1.6038667  3
   3283   3281   3280   3294     1  0.0000000  0.6508444  3
   3283   3281   3280   3302     1  0.0000000  1.0460000  1
   3283   3281   3280   3302     1  0.0000000  0.0000000  3
   3283   3281   3284   3285     1  0.0000000  0.6508444  3
   3283   3281   3284   3292     1  0.0000000  1.0460000  1
   3283   3281   3284   3292     1  0.0000000  0.0000000  3
   3283   3281   3284   3288     1  0.0000000  0.6508444  3
   3283   3281   3293   3296     1  0.0000000  0.6973333  3
   3284   3281   3293   3296     1  0.0000000  1.0460000  1
   3284   3281   3293   3296     1  0.0000000  0.6694400  3
   3284   3285   3286   3289     1  0.0000000  0.6508444  3
   3284   3285   3291   3297     1  0.0000000  1.0460000  1
   3284   3285   3291   3297     1  0.0000000  0.6694400  3
   3285   3284   3292   3295     1  0.0000000  1.0460000  1
   3285   3284   3292   3295     1  0.0000000  0.6694400  3
   3286   3285   3284   3288     1  0.0000000  0.6508444  3
   3286   3285   3291   3297     1  0.0000000  1.0460000  1
   3286   3285   3291   3297     1  0.0000000  0.6694400  3
   3287   3285   3284   3292     1  0.0000000  1.0460000  1
   3287   3285   3284   3292     1  0.0000000  0.0000000  3
   3287   3285   3284   3288     1  0.0000000  0.6508444  3
   3287   3285   3286   3290     1  0.0000000  1.0460000  1
   3287   3285   3286   3290     1  0.0000000  0.0000000  3
   3287   3285   3286   3302     1  0.0000000  1.0460000  1
   3287   3285   3286   3302     1  0.0000000  0.0000000  3
   3287   3285   3286   3289     1  0.0000000  0.6508444  3
   3287   3285   3291   3297     1  0.0000000  0.6973333  3
   3288   3284   3281   3293     1  0.0000000  1.0460000  1
   3288   3284   3281   3293     1  0.0000000  0.0000000  3
   3288   3284   3285   3291     1  0.0000000  1.0460000  1
   3288   3284   3285   3291     1  0.0000000  0.0000000  3
   3288   3284   3292   3295     1  0.0000000  0.6973333  3
   3289   3286   3285   3291     1  0.0000000  0.6508444  3
   3298   3294   3280   3302     1  0.0000000  1.0460000  1
   3298   3294   3280   3302     1  0.0000000  0.0000000  3
   3298   3294   3300   3301     1  0.0000000  0.6973333  3
   3299   3294   3280   3302     1  0.0000000  1.0460000  1
   3299   3294   3280   3302     1  0.0000000  0.0000000  3
   3299   3294   3300   3301     1  0.0000000  0.6973333  3
   3303   3304   3307   3311     1  0.0000000  0.6508444  3
   3303   3304   3316   3319     1  0.0000000  1.0460000  1
   3303   3304   3316   3319     1  0.0000000  0.6694400  3
   3303   3317   3323   3324     1  0.0000000  1.0460000  1
   3303   3317   3323   3324     1  0.0000000  0.6694400  3
   3303   3325   3309   3312     1  0.0000000  1.6038667  3
   3304   3307   3308   3310     1  0.0000000  0.6508444  3
   3304   3307   3315   3318     1  0.0000000  1.0460000  1
   3304   3307   3315   3318     1  0.0000000  0.6694400  3
   3304   3303   3317   3321     1  0.0000000  0.6508444  3
   3304   3303   3317   3322     1  0.0000000  0.6508444  3
   3305   3303   3304   3307     1  0.0000000  0.6508444  3
   3305   3303   3304   3316     1  0.0000000  1.0460000  1
   3305   3303   3304   3316     1  0.0000000  0.0000000  3
   3305   3303   3304   3306     1  0.0000000  0.6508444  3
   3305   3303   3317   3323     1  0.0000000  1.0460000  1
   3305   3303   3317   3323     1  0.0000000  0.0000000  3
   3305   3303   3317   3321     1  0.0000000  0.6508444  3
   3305   3303   3317   3322     1  0.0000000  0.6508444  3
   3305   3303   3325   3309     1  0.0000000  1.6038667  3
   3306   3304   3307   3308     1  0.0000000  0.6508444  3
   3306   3304   3307   3315     1  0.0000000  1.0460000  1
   3306   3304   3307   3315     1  0.0000000  0.0000000  3
   3306   3304   3307   3311     1  0.0000000  0.6508444  3
   3306   3304   3316   3319     1  0.0000000  0.6973333  3
   3306   3304   3303   3317     1  0.0000000  0.6508444  3
   3306   3304   3303   3325     1  0.0000000  1.0460000  1
   3306   3304   3303   3325     1  0.0000000  0.0000000  3
   3307   3308   3309   3312     1  0.0000000  0.6508444  3
   3307   3308   3314   3320     1  0.0000000  1.0460000  1
   3307   3308   3314   3320     1  0.0000000  0.6694400  3
   3307   3304   3316   3319     1  0.0000000  1.0460000  1
   3307   3304   3316   3319     1  0.0000000  0.6694400  3
   3308   3307   3315   3318     1  0.0000000  1.0460000  1
   3308   3307   3315   3318     1  0.0000000  0.6694400  3
   3309   3308   3314   3320     1  0.0000000  1.0460000  1
   3309   3308   3314   3320     1  0.0000000  0.6694400  3
   3309   3308   3307   3311     1  0.0000000  0.6508444  3
   3310   3308   3309   3313     1  0.0000000  1.0460000  1
   3310   3308   3309   3313     1  0.0000000  0.0000000  3
   3310   3308   3309   3325     1  0.0000000  1.0460000  1
   3310   3308   3309   3325     1  0.0000000  0.0000000  3
   3310   3308   3309   3312     1  0.0000000  0.6508444  3
   3310   3308   3314   3320     1  0.0000000  0.6973333  3
   3310   3308   3307   3315     1  0.0000000  1.0460000  1
   3310   3308   3307   3315     1  0.0000000  0.0000000  3
   3310   3308   3307   3311     1  0.0000000  0.6508444  3
   3311   3307   3308   3314     1  0.0000000  1.0460000  1
   3311   3307   3308   3314     1  0.0000000  0.0000000  3
   3311   3307   3315   3318     1  0.0000000  0.6973333  3
   3311   3307   3304   3316     1  0.0000000  1.0460000  1
   3311   3307   3304   3316     1  0.0000000  0.0000000  3
   3312   3309   3308   3314     1  0.0000000  0.6508444  3
   3321   3317   3323   3324     1  0.0000000  0.6973333  3
   3321   3317   3303   3325     1  0.0000000  1.0460000  1
   3321   3317   3303   3325     1  0.0000000  0.0000000  3
   3322   3317   3323   3324     1  0.0000000  0.6973333  3
   3322   3317   3303   3325     1  0.0000000  1.0460000  1
   3322   3317   3303   3325     1  0.0000000  0.0000000  3
   3326   3327   3330   3334     1  0.0000000  0.6508444  3
   3326   3327   3339   3342     1  0.0000000  1.0460000  1
   3326   3327   3339   3342     1  0.0000000  0.6694400  3
   3326   3340   3346   3347     1  0.0000000  1.0460000  1
   3326   3340   3346   3347     1  0.0000000  0.6694400  3
   3326   3348   3332   3335     1  0.0000000  1.6038667  3
   3327   3326   3340   3344     1  0.0000000  0.6508444  3
   3327   3326   3340   3345     1  0.0000000  0.6508444  3
   3327   3330   3331   3333     1  0.0000000  0.6508444  3
   3327   3330   3338   3341     1  0.0000000  1.0460000  1
   3327   3330   3338   3341     1  0.0000000  0.6694400  3
   3328   3326   3327   3330     1  0.0000000  0.6508444  3
   3328   3326   3327   3339     1  0.0000000  1.0460000  1
   3328   3326   3327   3339     1  0.0000000  0.0000000  3
   3328   3326   3327   3329     1  0.0000000  0.6508444  3
   3328   3326   3340   3346     1  0.0000000  1.0460000  1
   3328   3326   3340   3346     1  0.0000000  0.0000000  3
   3328   3326   3340   3344     1  0.0000000  0.6508444  3
   3328   3326   3340   3345     1  0.0000000  0.6508444  3
   3328   3326   3348   3332     1  0.0000000  1.6038667  3
   3329   3327   3326   3340     1  0.0000000  0.6508444  3
   3329   3327   3326   3348     1  0.0000000  1.0460000  1
   3329   3327   3326   3348     1  0.0000000  0.0000000  3
   3329   3327   3330   3331     1  0.0000000  0.6508444  3
   3329   3327   3330   3338     1  0.0000000  1.0460000  1
   3329   3327   3330   3338     1  0.0000000  0.0000000  3
   3329   3327   3330   3334     1  0.0000000  0.6508444  3
   3329   3327   3339   3342     1  0.0000000  0.6973333  3
   3330   3327   3339   3342     1  0.0000000  1.0460000  1
   3330   3327   3339   3342     1  0.0000000  0.6694400  3
   3330   3331   3332   3335     1  0.0000000  0.6508444  3
   3330   3331   3337   3343     1  0.0000000  1.0460000  1
   3330   3331   3337   3343     1  0.0000000  0.6694400  3
   3331   3330   3338   3341     1  0.0000000  1.0460000  1
   3331   3330   3338   3341     1  0.0000000  0.6694400  3
   3332   3331   3330   3334     1  0.0000000  0.6508444  3
   3332   3331   3337   3343     1  0.0000000  1.0460000  1
   3332   3331   3337   3343     1  0.0000000  0.6694400  3
   3333   3331   3330   3338     1  0.0000000  1.0460000  1
   3333   3331   3330   3338     1  0.0000000  0.0000000  3
   3333   3331   3330   3334     1  0.0000000  0.6508444  3
   3333   3331   3332   3336     1  0.0000000  1.0460000  1
   3333   3331   3332   3336     1  0.0000000  0.0000000  3
   3333   3331   3332   3348     1  0.0000000  1.0460000  1
   3333   3331   3332   3348     1  0.0000000  0.0000000  3
   3333   3331   3332   3335     1  0.0000000  0.6508444  3
   3333   3331   3337   3343     1  0.0000000  0.6973333  3
   3334   3330   3327   3339     1  0.0000000  1.0460000  1
   3334   3330   3327   3339     1  0.0000000  0.0000000  3
   3334   3330   3331   3337     1  0.0000000  1.0460000  1
   3334   3330   3331   3337     1  0.0000000  0.0000000  3
   3334   3330   3338   3341     1  0.0000000  0.6973333  3
   3335   3332   3331   3337     1  0.0000000  0.6508444  3
   3344   3340   3326   3348     1  0.0000000  1.0460000  1
   3344   3340   3326   3348     1  0.0000000  0.0000000  3
   3344   3340   3346   3347     1  0.0000000  0.6973333  3
   3345   3340   3326   3348     1  0.0000000  1.0460000  1
   3345   3340   3326   3348     1  0.0000000  0.0000000  3
   3345   3340   3346   3347     1  0.0000000  0.6973333  3
   3349   3350   3353   3357     1  0.0000000  0.6508444  3
   3349   3350   3362   3365     1  0.0000000  1.0460000  1
   3349   3350   3362   3365     1  0.0000000  0.6694400  3
   3349   3363   3369   3370     1  0.0000000  1.0460000  1
   3349   3363   3369   3370     1  0.0000000  0.6694400  3
   3349   3371   3355   3358     1  0.0000000  1.6038667  3
   3350   3353   3354   3356     1  0.0000000  0.6508444  3
   3350   3353   3361   3364     1  0.0000000  1.0460000  1
   3350   3353   3361   3364     1  0.0000000  0.6694400  3
   3350   3349   3363   3367     1  0.0000000  0.6508444  3
   3350   3349   3363   3368     1  0.0000000  0.6508444  3
   3351   3349   3350   3353     1  0.0000000  0.6508444  3
   3351   3349   3350   3362     1  0.0000000  1.0460000  1
   3351   3349   3350   3362     1  0.0000000  0.0000000  3
   3351   3349   3350   3352     1  0.0000000  0.6508444  3
   3351   3349   3363   3369     1  0.0000000  1.0460000  1
   3351   3349   3363   3369     1  0.0000000  0.0000000  3
   3351   3349   3363   3367     1  0.0000000  0.6508444  3
   3351   3349   3363   3368     1  0.0000000  0.6508444  3
   3351   3349   3371   3355     1  0.0000000  1.6038667  3
   3352   3350   3353   3354     1  0.0000000  0.6508444  3
   3352   3350   3353   3361     1  0.0000000  1.0460000  1
   3352   3350   3353   3361     1  0.0000000  0.0000000  3
   3352   3350   3353   3357     1  0.0000000  0.6508444  3
   3352   3350   3362   3365     1  0.0000000  0.6973333  3
   3352   3350   3349   3363     1  0.0000000  0.6508444  3
   3352   3350   3349   3371     1  0.0000000  1.0460000  1
   3352   3350   3349   3371     1  0.0000000  0.0000000  3
   3353   3354   3355   3358     1  0.0000000  0.6508444  3
   3353   3354   3360   3366     1  0.0000000  1.0460000  1
   3353   3354   3360   3366     1  0.0000000  0.6694400  3
   3353   3350   3362   3365     1  0.0000000  1.0460000  1
   3353   3350   3362   3365     1  0.0000000  0.6694400  3
   3354   3353   3361   3364     1  0.0000000  1.0460000  1
   3354   3353   3361   3364     1  0.0000000  0.6694400  3
   3355   3354   3360   3366     1  0.0000000  1.0460000  1
   3355   3354   3360   3366     1  0.0000000  0.6694400  3
   3355   3354   3353   3357     1  0.0000000  0.6508444  3
   3356   3354   3355   3359     1  0.0000000  1.0460000  1
   3356   3354   3355   3359     1  0.0000000  0.0000000  3
   3356   3354   3355   3371     1  0.0000000  1.0460000  1
   3356   3354   3355   3371     1  0.0000000  0.0000000  3
   3356   3354   3355   3358     1  0.0000000  0.6508444  3
   3356   3354   3360   3366     1  0.0000000  0.6973333  3
   3356   3354   3353   3361     1  0.0000000  1.0460000  1
   3356   3354   3353   3361     1  0.0000000  0.0000000  3
   3356   3354   3353   3357     1  0.0000000  0.6508444  3
   3357   3353   3354   3360     1  0.0000000  1.0460000  1
   3357   3353   3354   3360     1  0.0000000  0.0000000  3
   3357   3353   3361   3364     1  0.0000000  0.6973333  3
   3357   3353   3350   3362     1  0.0000000  1.0460000  1
   3357   3353   3350   3362     1  0.0000000  0.0000000  3
   3358   3355   3354   3360     1  0.0000000  0.6508444  3
   3367   3363   3369   3370     1  0.0000000  0.6973333  3
   3367   3363   3349   3371     1  0.0000000  1.0460000  1
   3367   3363   3349   3371     1  0.0000000  0.0000000  3
   3368   3363   3369   3370     1  0.0000000  0.6973333  3
   3368   3363   3349   3371     1  0.0000000  1.0460000  1
   3368   3363   3349   3371     1  0.0000000  0.0000000  3
   3372   3373   3376   3380     1  0.0000000  0.6508444  3
   3372   3373   3385   3388     1  0.0000000  1.0460000  1
   3372   3373   3385   3388     1  0.0000000  0.6694400  3
   3372   3386   3392   3393     1  0.0000000  1.0460000  1
   3372   3386   3392   3393     1  0.0000000  0.6694400  3
   3372   3394   3378   3381     1  0.0000000  1.6038667  3
   3373   3372   3386   3390     1  0.0000000  0.6508444  3
   3373   3372   3386   3391     1  0.0000000  0.6508444  3
   3373   3376   3377   3379     1  0.0000000  0.6508444  3
   3373   3376   3384   3387     1  0.0000000  1.0460000  1
   3373   3376   3384   3387     1  0.0000000  0.6694400  3
   3374   3372   3373   3376     1  0.0000000  0.6508444  3
   3374   3372   3373   3385     1  0.0000000  1.0460000  1
   3374   3372   3373   3385     1  0.0000000  0.0000000  3
   3374   3372   3373   3375     1  0.0000000  0.6508444  3
   3374   3372   3386   3392     1  0.0000000  1.0460000  1
   3374   3372   3386   3392     1  0.0000000  0.0000000  3
   3374   3372   3386   3390     1  0.0000000  0.6508444  3
   3374   3372   3386   3391     1  0.0000000  0.6508444  3
   3374   3372   3394   3378     1  0.0000000  1.6038667  3
   3375   3373   3372   3386     1  0.0000000  0.6508444  3
   3375   3373   3372   3394     1  0.0000000  1.0460000  1
   3375   3373   3372   3394     1  0.0000000  0.0000000  3
   3375   3373   3376   3377     1  0.0000000  0.6508444  3
   3375   3373   3376   3384     1  0.0000000  1.0460000  1
   3375   3373   3376   3384     1  0.0000000  0.0000000  3
   3375   3373   3376   3380     1  0.0000000  0.6508444  3
   3375   3373   3385   3388     1  0.0000000  0.6973333  3
   3376   3373   3385   3388     1  0.0000000  1.0460000  1
   3376   3373   3385   3388     1  0.0000000  0.6694400  3
   3376   3377   3378   3381     1  0.0000000  0.6508444  3
   3376   3377   3383   3389     1  0.0000000  1.0460000  1
   3376   3377   3383   3389     1  0.0000000  0.6694400  3
   3377   3376   3384   3387     1  0.0000000  1.0460000  1
   3377   3376   3384   3387     1  0.0000000  0.6694400  3
   3378   3377   3376   3380     1  0.0000000  0.6508444  3
   3378   3377   3383   3389     1  0.0000000  1.0460000  1
   3378   3377   3383   3389     1  0.0000000  0.6694400  3
   3379   3377   3376   3384     1  0.0000000  1.0460000  1
   3379   3377   3376   3384     1  0.0000000  0.0000000  3
   3379   3377   3376   3380     1  0.0000000  0.6508444  3
   3379   3377   3378   3382     1  0.0000000  1.0460000  1
   3379   3377   3378   3382     1  0.0000000  0.0000000  3
   3379   3377   3378   3394     1  0.0000000  1.0460000  1
   3379   3377   3378   3394     1  0.0000000  0.0000000  3
   3379   3377   3378   3381     1  0.0000000  0.6508444  3
   3379   3377   3383   3389     1  0.0000000  0.6973333  3
   3380   3376   3373   3385     1  0.0000000  1.0460000  1
   3380   3376   3373   3385     1  0.0000000  0.0000000  3
   3380   3376   3377   3383     1  0.0000000  1.0460000  1
   3380   3376   3377   3383     1  0.0000000  0.0000000  3
   3380   3376   3384   3387     1  0.0000000  0.6973333  3
   3381   3378   3377   3383     1  0.0000000  0.6508444  3
   3390   3386   3372   3394     1  0.0000000  1.0460000  1
   3390   3386   3372   3394     1  0.0000000  0.0000000  3
   3390   3386   3392   3393     1  0.0000000  0.6973333  3
   3391   3386   3372   3394     1  0.0000000  1.0460000  1
   3391   3386   3372   3394     1  0.0000000  0.0000000  3
   3391   3386   3392   3393     1  0.0000000  0.6973333  3
   3395   3396   3399   3403     1  0.0000000  0.6508444  3
   3395   3396   3408   3411     1  0.0000000  1.0460000  1
   3395   3396   3408   3411     1  0.0000000  0.6694400  3
   3395   3409   3415   3416     1  0.0000000  1.0460000  1
   3395   3409   3415   3416     1  0.0000000  0.6694400  3
   3395   3417   3401   3404     1  0.0000000  1.6038667  3
   3396   3399   3400   3402     1  0.0000000  0.6508444  3
   3396   3399   3407   3410     1  0.0000000  1.0460000  1
   3396   3399   3407   3410     1  0.0000000  0.6694400  3
   3396   3395   3409   3413     1  0.0000000  0.6508444  3
   3396   3395   3409   3414     1  0.0000000  0.6508444  3
   3397   3395   3396   3399     1  0.0000000  0.6508444  3
   3397   3395   3396   3408     1  0.0000000  1.0460000  1
   3397   3395   3396   3408     1  0.0000000  0.0000000  3
   3397   3395   3396   3398     1  0.0000000  0.6508444  3
   3397   3395   3409   3415     1  0.0000000  1.0460000  1
   3397   3395   3409   3415     1  0.0000000  0.0000000  3
   3397   3395   3409   3413     1  0.0000000  0.6508444  3
   3397   3395   3409   3414     1  0.0000000  0.6508444  3
   3397   3395   3417   3401     1  0.0000000  1.6038667  3
   3398   3396   3399   3400     1  0.0000000  0.6508444  3
   3398   3396   3399   3407     1  0.0000000  1.0460000  1
   3398   3396   3399   3407     1  0.0000000  0.0000000  3
   3398   3396   3399   3403     1  0.0000000  0.6508444  3
   3398   3396   3408   3411     1  0.0000000  0.6973333  3
   3398   3396   3395   3409     1  0.0000000  0.6508444  3
   3398   3396   3395   3417     1  0.0000000  1.0460000  1
   3398   3396   3395   3417     1  0.0000000  0.0000000  3
   3399   3400   3401   3404     1  0.0000000  0.6508444  3
   3399   3400   3406   3412     1  0.0000000  1.0460000  1
   3399   3400   3406   3412     1  0.0000000  0.6694400  3
   3399   3396   3408   3411     1  0.0000000  1.0460000  1
   3399   3396   3408   3411     1  0.0000000  0.6694400  3
   3400   3399   3407   3410     1  0.0000000  1.0460000  1
   3400   3399   3407   3410     1  0.0000000  0.6694400  3
   3401   3400   3406   3412     1  0.0000000  1.0460000  1
   3401   3400   3406   3412     1  0.0000000  0.6694400  3
   3401   3400   3399   3403     1  0.0000000  0.6508444  3
   3402   3400   3401   3405     1  0.0000000  1.0460000  1
   3402   3400   3401   3405     1  0.0000000  0.0000000  3
   3402   3400   3401   3417     1  0.0000000  1.0460000  1
   3402   3400   3401   3417     1  0.0000000  0.0000000  3
   3402   3400   3401   3404     1  0.0000000  0.6508444  3
   3402   3400   3406   3412     1  0.0000000  0.6973333  3
   3402   3400   3399   3407     1  0.0000000  1.0460000  1
   3402   3400   3399   3407     1  0.0000000  0.0000000  3
   3402   3400   3399   3403     1  0.0000000  0.6508444  3
   3403   3399   3400   3406     1  0.0000000  1.0460000  1
   3403   3399   3400   3406     1  0.0000000  0.0000000  3
   3403   3399   3407   3410     1  0.0000000  0.6973333  3
   3403   3399   3396   3408     1  0.0000000  1.0460000  1
   3403   3399   3396   3408     1  0.0000000  0.0000000  3
   3404   3401   3400   3406     1  0.0000000  0.6508444  3
   3413   3409   3415   3416     1  0.0000000  0.6973333  3
   3413   3409   3395   3417     1  0.0000000  1.0460000  1
   3413   3409   3395   3417     1  0.0000000  0.0000000  3
   3414   3409   3415   3416     1  0.0000000  0.6973333  3
   3414   3409   3395   3417     1  0.0000000  1.0460000  1
   3414   3409   3395   3417     1  0.0000000  0.0000000  3
   3418   3419   3422   3426     1  0.0000000  0.6508444  3
   3418   3419   3431   3434     1  0.0000000  1.0460000  1
   3418   3419   3431   3434     1  0.0000000  0.6694400  3
   3418   3432   3438   3439     1  0.0000000  1.0460000  1
   3418   3432   3438   3439     1  0.0000000  0.6694400  3
   3418   3440   3424   3427     1  0.0000000  1.6038667  3
   3419   3418   3432   3436     1  0.0000000  0.6508444  3
   3419   3418   3432   3437     1  0.0000000  0.6508444  3
   3419   3422   3423   3425     1  0.0000000  0.6508444  3
   3419   3422   3430   3433     1  0.0000000  1.0460000  1
   3419   3422   3430   3433     1  0.0000000  0.6694400  3
   3420   3418   3419   3422     1  0.0000000  0.6508444  3
   3420   3418   3419   3431     1  0.0000000  1.0460000  1
   3420   3418   3419   3431     1  0.0000000  0.0000000  3
   3420   3418   3419   3421     1  0.0000000  0.6508444  3
   3420   3418   3432   3438     1  0.0000000  1.0460000  1
   3420   3418   3432   3438     1  0.0000000  0.0000000  3
   3420   3418   3432   3436     1  0.0000000  0.6508444  3
   3420   3418   3432   3437     1  0.0000000  0.6508444  3
   3420   3418   3440   3424     1  0.0000000  1.6038667  3
   3421   3419   3418   3432     1  0.0000000  0.6508444  3
   3421   3419   3418   3440     1  0.0000000  1.0460000  1
   3421   3419   3418   3440     1  0.0000000  0.0000000  3
   3421   3419   3422   3423     1  0.0000000  0.6508444  3
   3421   3419   3422   3430     1  0.0000000  1.0460000  1
   3421   3419   3422   3430     1  0.0000000  0.0000000  3
   3421   3419   3422   3426     1  0.0000000  0.6508444  3
   3421   3419   3431   3434     1  0.0000000  0.6973333  3
   3422   3419   3431   3434     1  0.0000000  1.0460000  1
   3422   3419   3431   3434     1  0.0000000  0.6694400  3
   3422   3423   3424   3427     1  0.0000000  0.6508444  3
   3422   3423   3429   3435     1  0.0000000  1.0460000  1
   3422   3423   3429   3435     1  0.0000000  0.6694400  3
   3423   3422   3430   3433     1  0.0000000  1.0460000  1
   3423   3422   3430   3433     1  0.0000000  0.6694400  3
   3424   3423   3422   3426     1  0.0000000  0.6508444  3
   3424   3423   3429   3435     1  0.0000000  1.0460000  1
   3424   3423   3429   3435     1  0.0000000  0.6694400  3
   3425   3423   3422   3430     1  0.0000000  1.0460000  1
   3425   3423   3422   3430     1  0.0000000  0.0000000  3
   3425   3423   3422   3426     1  0.0000000  0.6508444  3
   3425   3423   3424   3428     1  0.0000000  1.0460000  1
   3425   3423   3424   3428     1  0.0000000  0.0000000  3
   3425   3423   3424   3440     1  0.0000000  1.0460000  1
   3425   3423   3424   3440     1  0.0000000  0.0000000  3
   3425   3423   3424   3427     1  0.0000000  0.6508444  3
   3425   3423   3429   3435     1  0.0000000  0.6973333  3
   3426   3422   3419   3431     1  0.0000000  1.0460000  1
   3426   3422   3419   3431     1  0.0000000  0.0000000  3
   3426   3422   3423   3429     1  0.0000000  1.0460000  1
   3426   3422   3423   3429     1  0.0000000  0.0000000  3
   3426   3422   3430   3433     1  0.0000000  0.6973333  3
   3427   3424   3423   3429     1  0.0000000  0.6508444  3
   3436   3432   3418   3440     1  0.0000000  1.0460000  1
   3436   3432   3418   3440     1  0.0000000  0.0000000  3
   3436   3432   3438   3439     1  0.0000000  0.6973333  3
   3437   3432   3418   3440     1  0.0000000  1.0460000  1
   3437   3432   3418   3440     1  0.0000000  0.0000000  3
   3437   3432   3438   3439     1  0.0000000  0.6973333  3
   3441   3442   3445   3449     1  0.0000000  0.6508444  3
   3441   3442   3454   3457     1  0.0000000  1.0460000  1
   3441   3442   3454   3457     1  0.0000000  0.6694400  3
   3441   3455   3461   3462     1  0.0000000  1.0460000  1
   3441   3455   3461   3462     1  0.0000000  0.6694400  3
   3441   3463   3447   3450     1  0.0000000  1.6038667  3
   3442   3445   3446   3448     1  0.0000000  0.6508444  3
   3442   3445   3453   3456     1  0.0000000  1.0460000  1
   3442   3445   3453   3456     1  0.0000000  0.6694400  3
   3442   3441   3455   3459     1  0.0000000  0.6508444  3
   3442   3441   3455   3460     1  0.0000000  0.6508444  3
   3443   3441   3442   3445     1  0.0000000  0.6508444  3
   3443   3441   3442   3454     1  0.0000000  1.0460000  1
   3443   3441   3442   3454     1  0.0000000  0.0000000  3
   3443   3441   3442   3444     1  0.0000000  0.6508444  3
   3443   3441   3455   3461     1  0.0000000  1.0460000  1
   3443   3441   3455   3461     1  0.0000000  0.0000000  3
   3443   3441   3455   3459     1  0.0000000  0.6508444  3
   3443   3441   3455   3460     1  0.0000000  0.6508444  3
   3443   3441   3463   3447     1  0.0000000  1.6038667  3
   3444   3442   3445   3446     1  0.0000000  0.6508444  3
   3444   3442   3445   3453     1  0.0000000  1.0460000  1
   3444   3442   3445   3453     1  0.0000000  0.0000000  3
   3444   3442   3445   3449     1  0.0000000  0.6508444  3
   3444   3442   3454   3457     1  0.0000000  0.6973333  3
   3444   3442   3441   3455     1  0.0000000  0.6508444  3
   3444   3442   3441   3463     1  0.0000000  1.0460000  1
   3444   3442   3441   3463     1  0.0000000  0.0000000  3
   3445   3446   3447   3450     1  0.0000000  0.6508444  3
   3445   3446   3452   3458     1  0.0000000  1.0460000  1
   3445   3446   3452   3458     1  0.0000000  0.6694400  3
   3445   3442   3454   3457     1  0.0000000  1.0460000  1
   3445   3442   3454   3457     1  0.0000000  0.6694400  3
   3446   3445   3453   3456     1  0.0000000  1.0460000  1
   3446   3445   3453   3456     1  0.0000000  0.6694400  3
   3447   3446   3452   3458     1  0.0000000  1.0460000  1
   3447   3446   3452   3458     1  0.0000000  0.6694400  3
   3447   3446   3445   3449     1  0.0000000  0.6508444  3
   3448   3446   3447   3451     1  0.0000000  1.0460000  1
   3448   3446   3447   3451     1  0.0000000  0.0000000  3
   3448   3446   3447   3463     1  0.0000000  1.0460000  1
   3448   3446   3447   3463     1  0.0000000  0.0000000  3
   3448   3446   3447   3450     1  0.0000000  0.6508444  3
   3448   3446   3452   3458     1  0.0000000  0.6973333  3
   3448   3446   3445   3453     1  0.0000000  1.0460000  1
   3448   3446   3445   3453     1  0.0000000  0.0000000  3
   3448   3446   3445   3449     1  0.0000000  0.6508444  3
   3449   3445   3446   3452     1  0.0000000  1.0460000  1
   3449   3445   3446   3452     1  0.0000000  0.0000000  3
   3449   3445   3453   3456     1  0.0000000  0.6973333  3
   3449   3445   3442   3454     1  0.0000000  1.0460000  1
   3449   3445   3442   3454     1  0.0000000  0.0000000  3
   3450   3447   3446   3452     1  0.0000000  0.6508444  3
   3459   3455   3461   3462     1  0.0000000  0.6973333  3
   3459   3455   3441   3463     1  0.0000000  1.0460000  1
   3459   3455   3441   3463     1  0.0000000  0.0000000  3
   3460   3455   3461   3462     1  0.0000000  0.6973333  3
   3460   3455   3441   3463     1  0.0000000  1.0460000  1
   3460   3455   3441   3463     1  0.0000000  0.0000000  3
   3464   3465   3468   3472     1  0.0000000  0.6508444  3
   3464   3465   3477   3480     1  0.0000000  1.0460000  1
   3464   3465   3477   3480     1  0.0000000  0.6694400  3
   3464   3478   3484   3485     1  0.0000000  1.0460000  1
   3464   3478   3484   3485     1  0.0000000  0.6694400  3
   3464   3486   3470   3473     1  0.0000000  1.6038667  3
   3465   3464   3478   3482     1  0.0000000  0.6508444  3
   3465   3464   3478   3483     1  0.0000000  0.6508444  3
   3465   3468   3469   3471     1  0.0000000  0.6508444  3
   3465   3468   3476   3479     1  0.0000000  1.0460000  1
   3465   3468   3476   3479     1  0.0000000  0.6694400  3
   3466   3464   3465   3468     1  0.0000000  0.6508444  3
   3466   3464   3465   3477     1  0.0000000  1.0460000  1
   3466   3464   3465   3477     1  0.0000000  0.0000000  3
   3466   3464   3465   3467     1  0.0000000  0.6508444  3
   3466   3464   3478   3484     1  0.0000000  1.0460000  1
   3466   3464   3478   3484     1  0.0000000  0.0000000  3
   3466   3464   3478   3482     1  0.0000000  0.6508444  3
   3466   3464   3478   3483     1  0.0000000  0.6508444  3
   3466   3464   3486   3470     1  0.0000000  1.6038667  3
   3467   3465   3464   3478     1  0.0000000  0.6508444  3
   3467   3465   3464   3486     1  0.0000000  1.0460000  1
   3467   3465   3464   3486     1  0.0000000  0.0000000  3
   3467   3465   3468   3469     1  0.0000000  0.6508444  3
   3467   3465   3468   3476     1  0.0000000  1.0460000  1
   3467   3465   3468   3476     1  0.0000000  0.0000000  3
   3467   3465   3468   3472     1  0.0000000  0.6508444  3
   3467   3465   3477   3480     1  0.0000000  0.6973333  3
   3468   3465   3477   3480     1  0.0000000  1.0460000  1
   3468   3465   3477   3480     1  0.0000000  0.6694400  3
   3468   3469   3470   3473     1  0.0000000  0.6508444  3
   3468   3469   3475   3481     1  0.0000000  1.0460000  1
   3468   3469   3475   3481     1  0.0000000  0.6694400  3
   3469   3468   3476   3479     1  0.0000000  1.0460000  1
   3469   3468   3476   3479     1  0.0000000  0.6694400  3
   3470   3469   3468   3472     1  0.0000000  0.6508444  3
   3470   3469   3475   3481     1  0.0000000  1.0460000  1
   3470   3469   3475   3481     1  0.0000000  0.6694400  3
   3471   3469   3468   3476     1  0.0000000  1.0460000  1
   3471   3469   3468   3476     1  0.0000000  0.0000000  3
   3471   3469   3468   3472     1  0.0000000  0.6508444  3
   3471   3469   3470   3474     1  0.0000000  1.0460000  1
   3471   3469   3470   3474     1  0.0000000  0.0000000  3
   3471   3469   3470   3486     1  0.0000000  1.0460000  1
   3471   3469   3470   3486     1  0.0000000  0.0000000  3
   3471   3469   3470   3473     1  0.0000000  0.6508444  3
   3471   3469   3475   3481     1  0.0000000  0.6973333  3
   3472   3468   3465   3477     1  0.0000000  1.0460000  1
   3472   3468   3465   3477     1  0.0000000  0.0000000  3
   3472   3468   3469   3475     1  0.0000000  1.0460000  1
   3472   3468   3469   3475     1  0.0000000  0.0000000  3
   3472   3468   3476   3479     1  0.0000000  0.6973333  3
   3473   3470   3469   3475     1  0.0000000  0.6508444  3
   3482   3478   3464   3486     1  0.0000000  1.0460000  1
   3482   3478   3464   3486     1  0.0000000  0.0000000  3
   3482   3478   3484   3485     1  0.0000000  0.6973333  3
   3483   3478   3464   3486     1  0.0000000  1.0460000  1
   3483   3478   3464   3486     1  0.0000000  0.0000000  3
   3483   3478   3484   3485     1  0.0000000  0.6973333  3
   3487   3488   3491   3495     1  0.0000000  0.6508444  3
   3487   3488   3500   3503     1  0.0000000  1.0460000  1
   3487   3488   3500   3503     1  0.0000000  0.6694400  3
   3487   3501   3507   3508     1  0.0000000  1.0460000  1
   3487   3501   3507   3508     1  0.0000000  0.6694400  3
   3487   3509   3493   3496     1  0.0000000  1.6038667  3
   3488   3491   3492   3494     1  0.0000000  0.6508444  3
   3488   3491   3499   3502     1  0.0000000  1.0460000  1
   3488   3491   3499   3502     1  0.0000000  0.6694400  3
   3488   3487   3501   3505     1  0.0000000  0.6508444  3
   3488   3487   3501   3506     1  0.0000000  0.6508444  3
   3489   3487   3488   3491     1  0.0000000  0.6508444  3
   3489   3487   3488   3500     1  0.0000000  1.0460000  1
   3489   3487   3488   3500     1  0.0000000  0.0000000  3
   3489   3487   3488   3490     1  0.0000000  0.6508444  3
   3489   3487   3501   3507     1  0.0000000  1.0460000  1
   3489   3487   3501   3507     1  0.0000000  0.0000000  3
   3489   3487   3501   3505     1  0.0000000  0.6508444  3
   3489   3487   3501   3506     1  0.0000000  0.6508444  3
   3489   3487   3509   3493     1  0.0000000  1.6038667  3
   3490   3488   3491   3492     1  0.0000000  0.6508444  3
   3490   3488   3491   3499     1  0.0000000  1.0460000  1
   3490   3488   3491   3499     1  0.0000000  0.0000000  3
   3490   3488   3491   3495     1  0.0000000  0.6508444  3
   3490   3488   3500   3503     1  0.0000000  0.6973333  3
   3490   3488   3487   3501     1  0.0000000  0.6508444  3
   3490   3488   3487   3509     1  0.0000000  1.0460000  1
   3490   3488   3487   3509     1  0.0000000  0.0000000  3
   3491   3492   3493   3496     1  0.0000000  0.6508444  3
   3491   3492   3498   3504     1  0.0000000  1.0460000  1
   3491   3492   3498   3504     1  0.0000000  0.6694400  3
   3491   3488   3500   3503     1  0.0000000  1.0460000  1
   3491   3488   3500   3503     1  0.0000000  0.6694400  3
   3492   3491   3499   3502     1  0.0000000  1.0460000  1
   3492   3491   3499   3502     1  0.0000000  0.6694400  3
   3493   3492   3498   3504     1  0.0000000  1.0460000  1
   3493   3492   3498   3504     1  0.0000000  0.6694400  3
   3493   3492   3491   3495     1  0.0000000  0.6508444  3
   3494   3492   3493   3497     1  0.0000000  1.0460000  1
   3494   3492   3493   3497     1  0.0000000  0.0000000  3
   3494   3492   3493   3509     1  0.0000000  1.0460000  1
   3494   3492   3493   3509     1  0.0000000  0.0000000  3
   3494   3492   3493   3496     1  0.0000000  0.6508444  3
   3494   3492   3498   3504     1  0.0000000  0.6973333  3
   3494   3492   3491   3499     1  0.0000000  1.0460000  1
   3494   3492   3491   3499     1  0.0000000  0.0000000  3
   3494   3492   3491   3495     1  0.0000000  0.6508444  3
   3495   3491   3492   3498     1  0.0000000  1.0460000  1
   3495   3491   3492   3498     1  0.0000000  0.0000000  3
   3495   3491   3499   3502     1  0.0000000  0.6973333  3
   3495   3491   3488   3500     1  0.0000000  1.0460000  1
   3495   3491   3488   3500     1  0.0000000  0.0000000  3
   3496   3493   3492   3498     1  0.0000000  0.6508444  3
   3505   3501   3507   3508     1  0.0000000  0.6973333  3
   3505   3501   3487   3509     1  0.0000000  1.0460000  1
   3505   3501   3487   3509     1  0.0000000  0.0000000  3
   3506   3501   3507   3508     1  0.0000000  0.6973333  3
   3506   3501   3487   3509     1  0.0000000  1.0460000  1
   3506   3501   3487   3509     1  0.0000000  0.0000000  3
   3510   3511   3514   3518     1  0.0000000  0.6508444  3
   3510   3511   3523   3526     1  0.0000000  1.0460000  1
   3510   3511   3523   3526     1  0.0000000  0.6694400  3
   3510   3524   3530   3531     1  0.0000000  1.0460000  1
   3510   3524   3530   3531     1  0.0000000  0.6694400  3
   3510   3532   3516   3519     1  0.0000000  1.6038667  3
   3511   3510   3524   3528     1  0.0000000  0.6508444  3
   3511   3510   3524   3529     1  0.0000000  0.6508444  3
   3511   3514   3515   3517     1  0.0000000  0.6508444  3
   3511   3514   3522   3525     1  0.0000000  1.0460000  1
   3511   3514   3522   3525     1  0.0000000  0.6694400  3
   3512   3510   3511   3514     1  0.0000000  0.6508444  3
   3512   3510   3511   3523     1  0.0000000  1.0460000  1
   3512   3510   3511   3523     1  0.0000000  0.0000000  3
   3512   3510   3511   3513     1  0.0000000  0.6508444  3
   3512   3510   3524   3530     1  0.0000000  1.0460000  1
   3512   3510   3524   3530     1  0.0000000  0.0000000  3
   3512   3510   3524   3528     1  0.0000000  0.6508444  3
   3512   3510   3524   3529     1  0.0000000  0.6508444  3
   3512   3510   3532   3516     1  0.0000000  1.6038667  3
   3513   3511   3510   3524     1  0.0000000  0.6508444  3
   3513   3511   3510   3532     1  0.0000000  1.0460000  1
   3513   3511   3510   3532     1  0.0000000  0.0000000  3
   3513   3511   3514   3515     1  0.0000000  0.6508444  3
   3513   3511   3514   3522     1  0.0000000  1.0460000  1
   3513   3511   3514   3522     1  0.0000000  0.0000000  3
   3513   3511   3514   3518     1  0.0000000  0.6508444  3
   3513   3511   3523   3526     1  0.0000000  0.6973333  3
   3514   3511   3523   3526     1  0.0000000  1.0460000  1
   3514   3511   3523   3526     1  0.0000000  0.6694400  3
   3514   3515   3516   3519     1  0.0000000  0.6508444  3
   3514   3515   3521   3527     1  0.0000000  1.0460000  1
   3514   3515   3521   3527     1  0.0000000  0.6694400  3
   3515   3514   3522   3525     1  0.0000000  1.0460000  1
   3515   3514   3522   3525     1  0.0000000  0.6694400  3
   3516   3515   3514   3518     1  0.0000000  0.6508444  3
   3516   3515   3521   3527     1  0.0000000  1.0460000  1
   3516   3515   3521   3527     1  0.0000000  0.6694400  3
   3517   3515   3514   3522     1  0.0000000  1.0460000  1
   3517   3515   3514   3522     1  0.0000000  0.0000000  3
   3517   3515   3514   3518     1  0.0000000  0.6508444  3
   3517   3515   3516   3520     1  0.0000000  1.0460000  1
   3517   3515   3516   3520     1  0.0000000  0.0000000  3
   3517   3515   3516   3532     1  0.0000000  1.0460000  1
   3517   3515   3516   3532     1  0.0000000  0.0000000  3
   3517   3515   3516   3519     1  0.0000000  0.6508444  3
   3517   3515   3521   3527     1  0.0000000  0.6973333  3
   3518   3514   3511   3523     1  0.0000000  1.0460000  1
   3518   3514   3511   3523     1  0.0000000  0.0000000  3
   3518   3514   3515   3521     1  0.0000000  1.0460000  1
   3518   3514   3515   3521     1  0.0000000  0.0000000  3
   3518   3514   3522   3525     1  0.0000000  0.6973333  3
   3519   3516   3515   3521     1  0.0000000  0.6508444  3
   3528   3524   3510   3532     1  0.0000000  1.0460000  1
   3528   3524   3510   3532     1  0.0000000  0.0000000  3
   3528   3524   3530   3531     1  0.0000000  0.6973333  3
   3529   3524   3510   3532     1  0.0000000  1.0460000  1
   3529   3524   3510   3532     1  0.0000000  0.0000000  3
   3529   3524   3530   3531     1  0.0000000  0.6973333  3
   3533   3534   3537   3541     1  0.0000000  0.6508444  3
   3533   3534   3546   3549     1  0.0000000  1.0460000  1
   3533   3534   3546   3549     1  0.0000000  0.6694400  3
   3533   3547   3553   3554     1  0.0000000  1.0460000  1
   3533   3547   3553   3554     1  0.0000000  0.6694400  3
   3533   3555   3539   3542     1  0.0000000  1.6038667  3
   3534   3537   3538   3540     1  0.0000000  0.6508444  3
   3534   3537   3545   3548     1  0.0000000  1.0460000  1
   3534   3537   3545   3548     1  0.0000000  0.6694400  3
   3534   3533   3547   3551     1  0.0000000  0.6508444  3
   3534   3533   3547   3552     1  0.0000000  0.6508444  3
   3535   3533   3534   3537     1  0.0000000  0.6508444  3
   3535   3533   3534   3546     1  0.0000000  1.0460000  1
   3535   3533   3534   3546     1  0.0000000  0.0000000  3
   3535   3533   3534   3536     1  0.0000000  0.6508444  3
   3535   3533   3547   3553     1  0.0000000  1.0460000  1
   3535   3533   3547   3553     1  0.0000000  0.0000000  3
   3535   3533   3547   3551     1  0.0000000  0.6508444  3
   3535   3533   3547   3552     1  0.0000000  0.6508444  3
   3535   3533   3555   3539     1  0.0000000  1.6038667  3
   3536   3534   3537   3538     1  0.0000000  0.6508444  3
   3536   3534   3537   3545     1  0.0000000  1.0460000  1
   3536   3534   3537   3545     1  0.0000000  0.0000000  3
   3536   3534   3537   3541     1  0.0000000  0.6508444  3
   3536   3534   3546   3549     1  0.0000000  0.6973333  3
   3536   3534   3533   3547     1  0.0000000  0.6508444  3
   3536   3534   3533   3555     1  0.0000000  1.0460000  1
   3536   3534   3533   3555     1  0.0000000  0.0000000  3
   3537   3538   3539   3542     1  0.0000000  0.6508444  3
   3537   3538   3544   3550     1  0.0000000  1.0460000  1
   3537   3538   3544   3550     1  0.0000000  0.6694400  3
   3537   3534   3546   3549     1  0.0000000  1.0460000  1
   3537   3534   3546   3549     1  0.0000000  0.6694400  3
   3538   3537   3545   3548     1  0.0000000  1.0460000  1
   3538   3537   3545   3548     1  0.0000000  0.6694400  3
   3539   3538   3544   3550     1  0.0000000  1.0460000  1
   3539   3538   3544   3550     1  0.0000000  0.6694400  3
   3539   3538   3537   3541     1  0.0000000  0.6508444  3
   3540   3538   3539   3543     1  0.0000000  1.0460000  1
   3540   3538   3539   3543     1  0.0000000  0.0000000  3
   3540   3538   3539   3555     1  0.0000000  1.0460000  1
   3540   3538   3539   3555     1  0.0000000  0.0000000  3
   3540   3538   3539   3542     1  0.0000000  0.6508444  3
   3540   3538   3544   3550     1  0.0000000  0.6973333  3
   3540   3538   3537   3545     1  0.0000000  1.0460000  1
   3540   3538   3537   3545     1  0.0000000  0.0000000  3
   3540   3538   3537   3541     1  0.0000000  0.6508444  3
   3541   3537   3538   3544     1  0.0000000  1.0460000  1
   3541   3537   3538   3544     1  0.0000000  0.0000000  3
   3541   3537   3545   3548     1  0.0000000  0.6973333  3
   3541   3537   3534   3546     1  0.0000000  1.0460000  1
   3541   3537   3534   3546     1  0.0000000  0.0000000  3
   3542   3539   3538   3544     1  0.0000000  0.6508444  3
   3551   3547   3553   3554     1  0.0000000  0.6973333  3
   3551   3547   3533   3555     1  0.0000000  1.0460000  1
   3551   3547   3533   3555     1  0.0000000  0.0000000  3
   3552   3547   3553   3554     1  0.0000000  0.6973333  3
   3552   3547   3533   3555     1  0.0000000  1.0460000  1
   3552   3547   3533   3555     1  0.0000000  0.0000000  3
   3556   3557   3560   3564     1  0.0000000  0.6508444  3
   3556   3557   3569   3572     1  0.0000000  1.0460000  1
   3556   3557   3569   3572     1  0.0000000  0.6694400  3
   3556   3570   3576   3577     1  0.0000000  1.0460000  1
   3556   3570   3576   3577     1  0.0000000  0.6694400  3
   3556   3578   3562   3565     1  0.0000000  1.6038667  3
   3557   3556   3570   3574     1  0.0000000  0.6508444  3
   3557   3556   3570   3575     1  0.0000000  0.6508444  3
   3557   3560   3561   3563     1  0.0000000  0.6508444  3
   3557   3560   3568   3571     1  0.0000000  1.0460000  1
   3557   3560   3568   3571     1  0.0000000  0.6694400  3
   3558   3556   3557   3560     1  0.0000000  0.6508444  3
   3558   3556   3557   3569     1  0.0000000  1.0460000  1
   3558   3556   3557   3569     1  0.0000000  0.0000000  3
   3558   3556   3557   3559     1  0.0000000  0.6508444  3
   3558   3556   3570   3576     1  0.0000000  1.0460000  1
   3558   3556   3570   3576     1  0.0000000  0.0000000  3
   3558   3556   3570   3574     1  0.0000000  0.6508444  3
   3558   3556   3570   3575     1  0.0000000  0.6508444  3
   3558   3556   3578   3562     1  0.0000000  1.6038667  3
   3559   3557   3556   3570     1  0.0000000  0.6508444  3
   3559   3557   3556   3578     1  0.0000000  1.0460000  1
   3559   3557   3556   3578     1  0.0000000  0.0000000  3
   3559   3557   3560   3561     1  0.0000000  0.6508444  3
   3559   3557   3560   3568     1  0.0000000  1.0460000  1
   3559   3557   3560   3568     1  0.0000000  0.0000000  3
   3559   3557   3560   3564     1  0.0000000  0.6508444  3
   3559   3557   3569   3572     1  0.0000000  0.6973333  3
   3560   3557   3569   3572     1  0.0000000  1.0460000  1
   3560   3557   3569   3572     1  0.0000000  0.6694400  3
   3560   3561   3562   3565     1  0.0000000  0.6508444  3
   3560   3561   3567   3573     1  0.0000000  1.0460000  1
   3560   3561   3567   3573     1  0.0000000  0.6694400  3
   3561   3560   3568   3571     1  0.0000000  1.0460000  1
   3561   3560   3568   3571     1  0.0000000  0.6694400  3
   3562   3561   3560   3564     1  0.0000000  0.6508444  3
   3562   3561   3567   3573     1  0.0000000  1.0460000  1
   3562   3561   3567   3573     1  0.0000000  0.6694400  3
   3563   3561   3560   3568     1  0.0000000  1.0460000  1
   3563   3561   3560   3568     1  0.0000000  0.0000000  3
   3563   3561   3560   3564     1  0.0000000  0.6508444  3
   3563   3561   3562   3566     1  0.0000000  1.0460000  1
   3563   3561   3562   3566     1  0.0000000  0.0000000  3
   3563   3561   3562   3578     1  0.0000000  1.0460000  1
   3563   3561   3562   3578     1  0.0000000  0.0000000  3
   3563   3561   3562   3565     1  0.0000000  0.6508444  3
   3563   3561   3567   3573     1  0.0000000  0.6973333  3
   3564   3560   3557   3569     1  0.0000000  1.0460000  1
   3564   3560   3557   3569     1  0.0000000  0.0000000  3
   3564   3560   3561   3567     1  0.0000000  1.0460000  1
   3564   3560   3561   3567     1  0.0000000  0.0000000  3
   3564   3560   3568   3571     1  0.0000000  0.6973333  3
   3565   3562   3561   3567     1  0.0000000  0.6508444  3
   3574   3570   3556   3578     1  0.0000000  1.0460000  1
   3574   3570   3556   3578     1  0.0000000  0.0000000  3
   3574   3570   3576   3577     1  0.0000000  0.6973333  3
   3575   3570   3556   3578     1  0.0000000  1.0460000  1
   3575   3570   3556   3578     1  0.0000000  0.0000000  3
   3575   3570   3576   3577     1  0.0000000  0.6973333  3
   3579   3580   3583   3587     1  0.0000000  0.6508444  3
   3579   3580   3592   3595     1  0.0000000  1.0460000  1
   3579   3580   3592   3595     1  0.0000000  0.6694400  3
   3579   3593   3599   3600     1  0.0000000  1.0460000  1
   3579   3593   3599   3600     1  0.0000000  0.6694400  3
   3579   3601   3585   3588     1  0.0000000  1.6038667  3
   3580   3583   3584   3586     1  0.0000000  0.6508444  3
   3580   3583   3591   3594     1  0.0000000  1.0460000  1
   3580   3583   3591   3594     1  0.0000000  0.6694400  3
   3580   3579   3593   3597     1  0.0000000  0.6508444  3
   3580   3579   3593   3598     1  0.0000000  0.6508444  3
   3581   3579   3580   3583     1  0.0000000  0.6508444  3
   3581   3579   3580   3592     1  0.0000000  1.0460000  1
   3581   3579   3580   3592     1  0.0000000  0.0000000  3
   3581   3579   3580   3582     1  0.0000000  0.6508444  3
   3581   3579   3593   3599     1  0.0000000  1.0460000  1
   3581   3579   3593   3599     1  0.0000000  0.0000000  3
   3581   3579   3593   3597     1  0.0000000  0.6508444  3
   3581   3579   3593   3598     1  0.0000000  0.6508444  3
   3581   3579   3601   3585     1  0.0000000  1.6038667  3
   3582   3580   3583   3584     1  0.0000000  0.6508444  3
   3582   3580   3583   3591     1  0.0000000  1.0460000  1
   3582   3580   3583   3591     1  0.0000000  0.0000000  3
   3582   3580   3583   3587     1  0.0000000  0.6508444  3
   3582   3580   3592   3595     1  0.0000000  0.6973333  3
   3582   3580   3579   3593     1  0.0000000  0.6508444  3
   3582   3580   3579   3601     1  0.0000000  1.0460000  1
   3582   3580   3579   3601     1  0.0000000  0.0000000  3
   3583   3584   3585   3588     1  0.0000000  0.6508444  3
   3583   3584   3590   3596     1  0.0000000  1.0460000  1
   3583   3584   3590   3596     1  0.0000000  0.6694400  3
   3583   3580   3592   3595     1  0.0000000  1.0460000  1
   3583   3580   3592   3595     1  0.0000000  0.6694400  3
   3584   3583   3591   3594     1  0.0000000  1.0460000  1
   3584   3583   3591   3594     1  0.0000000  0.6694400  3
   3585   3584   3590   3596     1  0.0000000  1.0460000  1
   3585   3584   3590   3596     1  0.0000000  0.6694400  3
   3585   3584   3583   3587     1  0.0000000  0.6508444  3
   3586   3584   3585   3589     1  0.0000000  1.0460000  1
   3586   3584   3585   3589     1  0.0000000  0.0000000  3
   3586   3584   3585   3601     1  0.0000000  1.0460000  1
   3586   3584   3585   3601     1  0.0000000  0.0000000  3
   3586   3584   3585   3588     1  0.0000000  0.6508444  3
   3586   3584   3590   3596     1  0.0000000  0.6973333  3
   3586   3584   3583   3591     1  0.0000000  1.0460000  1
   3586   3584   3583   3591     1  0.0000000  0.0000000  3
   3586   3584   3583   3587     1  0.0000000  0.6508444  3
   3587   3583   3584   3590     1  0.0000000  1.0460000  1
   3587   3583   3584   3590     1  0.0000000  0.0000000  3
   3587   3583   3591   3594     1  0.0000000  0.6973333  3
   3587   3583   3580   3592     1  0.0000000  1.0460000  1
   3587   3583   3580   3592     1  0.0000000  0.0000000  3
   3588   3585   3584   3590     1  0.0000000  0.6508444  3
   3597   3593   3599   3600     1  0.0000000  0.6973333  3
   3597   3593   3579   3601     1  0.0000000  1.0460000  1
   3597   3593   3579   3601     1  0.0000000  0.0000000  3
   3598   3593   3599   3600     1  0.0000000  0.6973333  3
   3598   3593   3579   3601     1  0.0000000  1.0460000  1
   3598   3593   3579   3601     1  0.0000000  0.0000000  3
   3602   3603   3606   3610     1  0.0000000  0.6508444  3
   3602   3603   3615   3618     1  0.0000000  1.0460000  1
   3602   3603   3615   3618     1  0.0000000  0.6694400  3
   3602   3616   3622   3623     1  0.0000000  1.0460000  1
   3602   3616   3622   3623     1  0.0000000  0.6694400  3
   3602   3624   3608   3611     1  0.0000000  1.6038667  3
   3603   3602   3616   3620     1  0.0000000  0.6508444  3
   3603   3602   3616   3621     1  0.0000000  0.6508444  3
   3603   3606   3607   3609     1  0.0000000  0.6508444  3
   3603   3606   3614   3617     1  0.0000000  1.0460000  1
   3603   3606   3614   3617     1  0.0000000  0.6694400  3
   3604   3602   3603   3606     1  0.0000000  0.6508444  3
   3604   3602   3603   3615     1  0.0000000  1.0460000  1
   3604   3602   3603   3615     1  0.0000000  0.0000000  3
   3604   3602   3603   3605     1  0.0000000  0.6508444  3
   3604   3602   3616   3622     1  0.0000000  1.0460000  1
   3604   3602   3616   3622     1  0.0000000  0.0000000  3
   3604   3602   3616   3620     1  0.0000000  0.6508444  3
   3604   3602   3616   3621     1  0.0000000  0.6508444  3
   3604   3602   3624   3608     1  0.0000000  1.6038667  3
   3605   3603   3602   3616     1  0.0000000  0.6508444  3
   3605   3603   3602   3624     1  0.0000000  1.0460000  1
   3605   3603   3602   3624     1  0.0000000  0.0000000  3
   3605   3603   3606   3607     1  0.0000000  0.6508444  3
   3605   3603   3606   3614     1  0.0000000  1.0460000  1
   3605   3603   3606   3614     1  0.0000000  0.0000000  3
   3605   3603   3606   3610     1  0.0000000  0.6508444  3
   3605   3603   3615   3618     1  0.0000000  0.6973333  3
   3606   3603   3615   3618     1  0.0000000  1.0460000  1
   3606   3603   3615   3618     1  0.0000000  0.6694400  3
   3606   3607   3608   3611     1  0.0000000  0.6508444  3
   3606   3607   3613   3619     1  0.0000000  1.0460000  1
   3606   3607   3613   3619     1  0.0000000  0.6694400  3
   3607   3606   3614   3617     1  0.0000000  1.0460000  1
   3607   3606   3614   3617     1  0.0000000  0.6694400  3
   3608   3607   3606   3610     1  0.0000000  0.6508444  3
   3608   3607   3613   3619     1  0.0000000  1.0460000  1
   3608   3607   3613   3619     1  0.0000000  0.6694400  3
   3609   3607   3606   3614     1  0.0000000  1.0460000  1
   3609   3607   3606   3614     1  0.0000000  0.0000000  3
   3609   3607   3606   3610     1  0.0000000  0.6508444  3
   3609   3607   3608   3612     1  0.0000000  1.0460000  1
   3609   3607   3608   3612     1  0.0000000  0.0000000  3
   3609   3607   3608   3624     1  0.0000000  1.0460000  1
   3609   3607   3608   3624     1  0.0000000  0.0000000  3
   3609   3607   3608   3611     1  0.0000000  0.6508444  3
   3609   3607   3613   3619     1  0.0000000  0.6973333  3
   3610   3606   3603   3615     1  0.0000000  1.0460000  1
   3610   3606   3603   3615     1  0.0000000  0.0000000  3
   3610   3606   3607   3613     1  0.0000000  1.0460000  1
   3610   3606   3607   3613     1  0.0000000  0.0000000  3
   3610   3606   3614   3617     1  0.0000000  0.6973333  3
   3611   3608   3607   3613     1  0.0000000  0.6508444  3
   3620   3616   3602   3624     1  0.0000000  1.0460000  1
   3620   3616   3602   3624     1  0.0000000  0.0000000  3
   3620   3616   3622   3623     1  0.0000000  0.6973333  3
   3621   3616   3602   3624     1  0.0000000  1.0460000  1
   3621   3616   3602   3624     1  0.0000000  0.0000000  3
   3621   3616   3622   3623     1  0.0000000  0.6973333  3
   3625   3626   3629   3633     1  0.0000000  0.6508444  3
   3625   3626   3638   3641     1  0.0000000  1.0460000  1
   3625   3626   3638   3641     1  0.0000000  0.6694400  3
   3625   3639   3645   3646     1  0.0000000  1.0460000  1
   3625   3639   3645   3646     1  0.0000000  0.6694400  3
   3625   3647   3631   3634     1  0.0000000  1.6038667  3
   3626   3629   3630   3632     1  0.0000000  0.6508444  3
   3626   3629   3637   3640     1  0.0000000  1.0460000  1
   3626   3629   3637   3640     1  0.0000000  0.6694400  3
   3626   3625   3639   3643     1  0.0000000  0.6508444  3
   3626   3625   3639   3644     1  0.0000000  0.6508444  3
   3627   3625   3626   3629     1  0.0000000  0.6508444  3
   3627   3625   3626   3638     1  0.0000000  1.0460000  1
   3627   3625   3626   3638     1  0.0000000  0.0000000  3
   3627   3625   3626   3628     1  0.0000000  0.6508444  3
   3627   3625   3639   3645     1  0.0000000  1.0460000  1
   3627   3625   3639   3645     1  0.0000000  0.0000000  3
   3627   3625   3639   3643     1  0.0000000  0.6508444  3
   3627   3625   3639   3644     1  0.0000000  0.6508444  3
   3627   3625   3647   3631     1  0.0000000  1.6038667  3
   3628   3626   3629   3630     1  0.0000000  0.6508444  3
   3628   3626   3629   3637     1  0.0000000  1.0460000  1
   3628   3626   3629   3637     1  0.0000000  0.0000000  3
   3628   3626   3629   3633     1  0.0000000  0.6508444  3
   3628   3626   3638   3641     1  0.0000000  0.6973333  3
   3628   3626   3625   3639     1  0.0000000  0.6508444  3
   3628   3626   3625   3647     1  0.0000000  1.0460000  1
   3628   3626   3625   3647     1  0.0000000  0.0000000  3
   3629   3630   3631   3634     1  0.0000000  0.6508444  3
   3629   3630   3636   3642     1  0.0000000  1.0460000  1
   3629   3630   3636   3642     1  0.0000000  0.6694400  3
   3629   3626   3638   3641     1  0.0000000  1.0460000  1
   3629   3626   3638   3641     1  0.0000000  0.6694400  3
   3630   3629   3637   3640     1  0.0000000  1.0460000  1
   3630   3629   3637   3640     1  0.0000000  0.6694400  3
   3631   3630   3636   3642     1  0.0000000  1.0460000  1
   3631   3630   3636   3642     1  0.0000000  0.6694400  3
   3631   3630   3629   3633     1  0.0000000  0.6508444  3
   3632   3630   3631   3635     1  0.0000000  1.0460000  1
   3632   3630   3631   3635     1  0.0000000  0.0000000  3
   3632   3630   3631   3647     1  0.0000000  1.0460000  1
   3632   3630   3631   3647     1  0.0000000  0.0000000  3
   3632   3630   3631   3634     1  0.0000000  0.6508444  3
   3632   3630   3636   3642     1  0.0000000  0.6973333  3
   3632   3630   3629   3637     1  0.0000000  1.0460000  1
   3632   3630   3629   3637     1  0.0000000  0.0000000  3
   3632   3630   3629   3633     1  0.0000000  0.6508444  3
   3633   3629   3630   3636     1  0.0000000  1.0460000  1
   3633   3629   3630   3636     1  0.0000000  0.0000000  3
   3633   3629   3637   3640     1  0.0000000  0.6973333  3
   3633   3629   3626   3638     1  0.0000000  1.0460000  1
   3633   3629   3626   3638     1  0.0000000  0.0000000  3
   3634   3631   3630   3636     1  0.0000000  0.6508444  3
   3643   3639   3645   3646     1  0.0000000  0.6973333  3
   3643   3639   3625   3647     1  0.0000000  1.0460000  1
   3643   3639   3625   3647     1  0.0000000  0.0000000  3
   3644   3639   3645   3646     1  0.0000000  0.6973333  3
   3644   3639   3625   3647     1  0.0000000  1.0460000  1
   3644   3639   3625   3647     1  0.0000000  0.0000000  3
   3648   3649   3652   3656     1  0.0000000  0.6508444  3
   3648   3649   3661   3664     1  0.0000000  1.0460000  1
   3648   3649   3661   3664     1  0.0000000  0.6694400  3
   3648   3662   3668   3669     1  0.0000000  1.0460000  1
   3648   3662   3668   3669     1  0.0000000  0.6694400  3
   3648   3670   3654   3657     1  0.0000000  1.6038667  3
   3649   3648   3662   3666     1  0.0000000  0.6508444  3
   3649   3648   3662   3667     1  0.0000000  0.6508444  3
   3649   3652   3653   3655     1  0.0000000  0.6508444  3
   3649   3652   3660   3663     1  0.0000000  1.0460000  1
   3649   3652   3660   3663     1  0.0000000  0.6694400  3
   3650   3648   3649   3652     1  0.0000000  0.6508444  3
   3650   3648   3649   3661     1  0.0000000  1.0460000  1
   3650   3648   3649   3661     1  0.0000000  0.0000000  3
   3650   3648   3649   3651     1  0.0000000  0.6508444  3
   3650   3648   3662   3668     1  0.0000000  1.0460000  1
   3650   3648   3662   3668     1  0.0000000  0.0000000  3
   3650   3648   3662   3666     1  0.0000000  0.6508444  3
   3650   3648   3662   3667     1  0.0000000  0.6508444  3
   3650   3648   3670   3654     1  0.0000000  1.6038667  3
   3651   3649   3648   3662     1  0.0000000  0.6508444  3
   3651   3649   3648   3670     1  0.0000000  1.0460000  1
   3651   3649   3648   3670     1  0.0000000  0.0000000  3
   3651   3649   3652   3653     1  0.0000000  0.6508444  3
   3651   3649   3652   3660     1  0.0000000  1.0460000  1
   3651   3649   3652   3660     1  0.0000000  0.0000000  3
   3651   3649   3652   3656     1  0.0000000  0.6508444  3
   3651   3649   3661   3664     1  0.0000000  0.6973333  3
   3652   3649   3661   3664     1  0.0000000  1.0460000  1
   3652   3649   3661   3664     1  0.0000000  0.6694400  3
   3652   3653   3654   3657     1  0.0000000  0.6508444  3
   3652   3653   3659   3665     1  0.0000000  1.0460000  1
   3652   3653   3659   3665     1  0.0000000  0.6694400  3
   3653   3652   3660   3663     1  0.0000000  1.0460000  1
   3653   3652   3660   3663     1  0.0000000  0.6694400  3
   3654   3653   3652   3656     1  0.0000000  0.6508444  3
   3654   3653   3659   3665     1  0.0000000  1.0460000  1
   3654   3653   3659   3665     1  0.0000000  0.6694400  3
   3655   3653   3652   3660     1  0.0000000  1.0460000  1
   3655   3653   3652   3660     1  0.0000000  0.0000000  3
   3655   3653   3652   3656     1  0.0000000  0.6508444  3
   3655   3653   3654   3658     1  0.0000000  1.0460000  1
   3655   3653   3654   3658     1  0.0000000  0.0000000  3
   3655   3653   3654   3670     1  0.0000000  1.0460000  1
   3655   3653   3654   3670     1  0.0000000  0.0000000  3
   3655   3653   3654   3657     1  0.0000000  0.6508444  3
   3655   3653   3659   3665     1  0.0000000  0.6973333  3
   3656   3652   3649   3661     1  0.0000000  1.0460000  1
   3656   3652   3649   3661     1  0.0000000  0.0000000  3
   3656   3652   3653   3659     1  0.0000000  1.0460000  1
   3656   3652   3653   3659     1  0.0000000  0.0000000  3
   3656   3652   3660   3663     1  0.0000000  0.6973333  3
   3657   3654   3653   3659     1  0.0000000  0.6508444  3
   3666   3662   3648   3670     1  0.0000000  1.0460000  1
   3666   3662   3648   3670     1  0.0000000  0.0000000  3
   3666   3662   3668   3669     1  0.0000000  0.6973333  3
   3667   3662   3648   3670     1  0.0000000  1.0460000  1
   3667   3662   3648   3670     1  0.0000000  0.0000000  3
   3667   3662   3668   3669     1  0.0000000  0.6973333  3
   3671   3672   3675   3679     1  0.0000000  0.6508444  3
   3671   3672   3684   3687     1  0.0000000  1.0460000  1
   3671   3672   3684   3687     1  0.0000000  0.6694400  3
   3671   3685   3691   3692     1  0.0000000  1.0460000  1
   3671   3685   3691   3692     1  0.0000000  0.6694400  3
   3671   3693   3677   3680     1  0.0000000  1.6038667  3
   3672   3675   3676   3678     1  0.0000000  0.6508444  3
   3672   3675   3683   3686     1  0.0000000  1.0460000  1
   3672   3675   3683   3686     1  0.0000000  0.6694400  3
   3672   3671   3685   3689     1  0.0000000  0.6508444  3
   3672   3671   3685   3690     1  0.0000000  0.6508444  3
   3673   3671   3672   3675     1  0.0000000  0.6508444  3
   3673   3671   3672   3684     1  0.0000000  1.0460000  1
   3673   3671   3672   3684     1  0.0000000  0.0000000  3
   3673   3671   3672   3674     1  0.0000000  0.6508444  3
   3673   3671   3685   3691     1  0.0000000  1.0460000  1
   3673   3671   3685   3691     1  0.0000000  0.0000000  3
   3673   3671   3685   3689     1  0.0000000  0.6508444  3
   3673   3671   3685   3690     1  0.0000000  0.6508444  3
   3673   3671   3693   3677     1  0.0000000  1.6038667  3
   3674   3672   3675   3676     1  0.0000000  0.6508444  3
   3674   3672   3675   3683     1  0.0000000  1.0460000  1
   3674   3672   3675   3683     1  0.0000000  0.0000000  3
   3674   3672   3675   3679     1  0.0000000  0.6508444  3
   3674   3672   3684   3687     1  0.0000000  0.6973333  3
   3674   3672   3671   3685     1  0.0000000  0.6508444  3
   3674   3672   3671   3693     1  0.0000000  1.0460000  1
   3674   3672   3671   3693     1  0.0000000  0.0000000  3
   3675   3676   3677   3680     1  0.0000000  0.6508444  3
   3675   3676   3682   3688     1  0.0000000  1.0460000  1
   3675   3676   3682   3688     1  0.0000000  0.6694400  3
   3675   3672   3684   3687     1  0.0000000  1.0460000  1
   3675   3672   3684   3687     1  0.0000000  0.6694400  3
   3676   3675   3683   3686     1  0.0000000  1.0460000  1
   3676   3675   3683   3686     1  0.0000000  0.6694400  3
   3677   3676   3682   3688     1  0.0000000  1.0460000  1
   3677   3676   3682   3688     1  0.0000000  0.6694400  3
   3677   3676   3675   3679     1  0.0000000  0.6508444  3
   3678   3676   3677   3681     1  0.0000000  1.0460000  1
   3678   3676   3677   3681     1  0.0000000  0.0000000  3
   3678   3676   3677   3693     1  0.0000000  1.0460000  1
   3678   3676   3677   3693     1  0.0000000  0.0000000  3
   3678   3676   3677   3680     1  0.0000000  0.6508444  3
   3678   3676   3682   3688     1  0.0000000  0.6973333  3
   3678   3676   3675   3683     1  0.0000000  1.0460000  1
   3678   3676   3675   3683     1  0.0000000  0.0000000  3
   3678   3676   3675   3679     1  0.0000000  0.6508444  3
   3679   3675   3676   3682     1  0.0000000  1.0460000  1
   3679   3675   3676   3682     1  0.0000000  0.0000000  3
   3679   3675   3683   3686     1  0.0000000  0.6973333  3
   3679   3675   3672   3684     1  0.0000000  1.0460000  1
   3679   3675   3672   3684     1  0.0000000  0.0000000  3
   3680   3677   3676   3682     1  0.0000000  0.6508444  3
   3689   3685   3691   3692     1  0.0000000  0.6973333  3
   3689   3685   3671   3693     1  0.0000000  1.0460000  1
   3689   3685   3671   3693     1  0.0000000  0.0000000  3
   3690   3685   3691   3692     1  0.0000000  0.6973333  3
   3690   3685   3671   3693     1  0.0000000  1.0460000  1
   3690   3685   3671   3693     1  0.0000000  0.0000000  3
   3694   3695   3698   3702     1  0.0000000  0.6508444  3
   3694   3695   3707   3710     1  0.0000000  1.0460000  1
   3694   3695   3707   3710     1  0.0000000  0.6694400  3
   3694   3708   3714   3715     1  0.0000000  1.0460000  1
   3694   3708   3714   3715     1  0.0000000  0.6694400  3
   3694   3716   3700   3703     1  0.0000000  1.6038667  3
   3695   3694   3708   3712     1  0.0000000  0.6508444  3
   3695   3694   3708   3713     1  0.0000000  0.6508444  3
   3695   3698   3699   3701     1  0.0000000  0.6508444  3
   3695   3698   3706   3709     1  0.0000000  1.0460000  1
   3695   3698   3706   3709     1  0.0000000  0.6694400  3
   3696   3694   3695   3698     1  0.0000000  0.6508444  3
   3696   3694   3695   3707     1  0.0000000  1.0460000  1
   3696   3694   3695   3707     1  0.0000000  0.0000000  3
   3696   3694   3695   3697     1  0.0000000  0.6508444  3
   3696   3694   3708   3714     1  0.0000000  1.0460000  1
   3696   3694   3708   3714     1  0.0000000  0.0000000  3
   3696   3694   3708   3712     1  0.0000000  0.6508444  3
   3696   3694   3708   3713     1  0.0000000  0.6508444  3
   3696   3694   3716   3700     1  0.0000000  1.6038667  3
   3697   3695   3694   3708     1  0.0000000  0.6508444  3
   3697   3695   3694   3716     1  0.0000000  1.0460000  1
   3697   3695   3694   3716     1  0.0000000  0.0000000  3
   3697   3695   3698   3699     1  0.0000000  0.6508444  3
   3697   3695   3698   3706     1  0.0000000  1.0460000  1
   3697   3695   3698   3706     1  0.0000000  0.0000000  3
   3697   3695   3698   3702     1  0.0000000  0.6508444  3
   3697   3695   3707   3710     1  0.0000000  0.6973333  3
   3698   3695   3707   3710     1  0.0000000  1.0460000  1
   3698   3695   3707   3710     1  0.0000000  0.6694400  3
   3698   3699   3700   3703     1  0.0000000  0.6508444  3
   3698   3699   3705   3711     1  0.0000000  1.0460000  1
   3698   3699   3705   3711     1  0.0000000  0.6694400  3
   3699   3698   3706   3709     1  0.0000000  1.0460000  1
   3699   3698   3706   3709     1  0.0000000  0.6694400  3
   3700   3699   3698   3702     1  0.0000000  0.6508444  3
   3700   3699   3705   3711     1  0.0000000  1.0460000  1
   3700   3699   3705   3711     1  0.0000000  0.6694400  3
   3701   3699   3698   3706     1  0.0000000  1.0460000  1
   3701   3699   3698   3706     1  0.0000000  0.0000000  3
   3701   3699   3698   3702     1  0.0000000  0.6508444  3
   3701   3699   3700   3704     1  0.0000000  1.0460000  1
   3701   3699   3700   3704     1  0.0000000  0.0000000  3
   3701   3699   3700   3716     1  0.0000000  1.0460000  1
   3701   3699   3700   3716     1  0.0000000  0.0000000  3
   3701   3699   3700   3703     1  0.0000000  0.6508444  3
   3701   3699   3705   3711     1  0.0000000  0.6973333  3
   3702   3698   3695   3707     1  0.0000000  1.0460000  1
   3702   3698   3695   3707     1  0.0000000  0.0000000  3
   3702   3698   3699   3705     1  0.0000000  1.0460000  1
   3702   3698   3699   3705     1  0.0000000  0.0000000  3
   3702   3698   3706   3709     1  0.0000000  0.6973333  3
   3703   3700   3699   3705     1  0.0000000  0.6508444  3
   3712   3708   3694   3716     1  0.0000000  1.0460000  1
   3712   3708   3694   3716     1  0.0000000  0.0000000  3
   3712   3708   3714   3715     1  0.0000000  0.6973333  3
   3713   3708   3694   3716     1  0.0000000  1.0460000  1
   3713   3708   3694   3716     1  0.0000000  0.0000000  3
   3713   3708   3714   3715     1  0.0000000  0.6973333  3
   3717   3718   3721   3725     1  0.0000000  0.6508444  3
   3717   3718   3730   3733     1  0.0000000  1.0460000  1
   3717   3718   3730   3733     1  0.0000000  0.6694400  3
   3717   3731   3737   3738     1  0.0000000  1.0460000  1
   3717   3731   3737   3738     1  0.0000000  0.6694400  3
   3717   3739   3723   3726     1  0.0000000  1.6038667  3
   3718   3721   3722   3724     1  0.0000000  0.6508444  3
   3718   3721   3729   3732     1  0.0000000  1.0460000  1
   3718   3721   3729   3732     1  0.0000000  0.6694400  3
   3718   3717   3731   3735     1  0.0000000  0.6508444  3
   3718   3717   3731   3736     1  0.0000000  0.6508444  3
   3719   3717   3718   3721     1  0.0000000  0.6508444  3
   3719   3717   3718   3730     1  0.0000000  1.0460000  1
   3719   3717   3718   3730     1  0.0000000  0.0000000  3
   3719   3717   3718   3720     1  0.0000000  0.6508444  3
   3719   3717   3731   3737     1  0.0000000  1.0460000  1
   3719   3717   3731   3737     1  0.0000000  0.0000000  3
   3719   3717   3731   3735     1  0.0000000  0.6508444  3
   3719   3717   3731   3736     1  0.0000000  0.6508444  3
   3719   3717   3739   3723     1  0.0000000  1.6038667  3
   3720   3718   3721   3722     1  0.0000000  0.6508444  3
   3720   3718   3721   3729     1  0.0000000  1.0460000  1
   3720   3718   3721   3729     1  0.0000000  0.0000000  3
   3720   3718   3721   3725     1  0.0000000  0.6508444  3
   3720   3718   3730   3733     1  0.0000000  0.6973333  3
   3720   3718   3717   3731     1  0.0000000  0.6508444  3
   3720   3718   3717   3739     1  0.0000000  1.0460000  1
   3720   3718   3717   3739     1  0.0000000  0.0000000  3
   3721   3722   3723   3726     1  0.0000000  0.6508444  3
   3721   3722   3728   3734     1  0.0000000  1.0460000  1
   3721   3722   3728   3734     1  0.0000000  0.6694400  3
   3721   3718   3730   3733     1  0.0000000  1.0460000  1
   3721   3718   3730   3733     1  0.0000000  0.6694400  3
   3722   3721   3729   3732     1  0.0000000  1.0460000  1
   3722   3721   3729   3732     1  0.0000000  0.6694400  3
   3723   3722   3728   3734     1  0.0000000  1.0460000  1
   3723   3722   3728   3734     1  0.0000000  0.6694400  3
   3723   3722   3721   3725     1  0.0000000  0.6508444  3
   3724   3722   3723   3727     1  0.0000000  1.0460000  1
   3724   3722   3723   3727     1  0.0000000  0.0000000  3
   3724   3722   3723   3739     1  0.0000000  1.0460000  1
   3724   3722   3723   3739     1  0.0000000  0.0000000  3
   3724   3722   3723   3726     1  0.0000000  0.6508444  3
   3724   3722   3728   3734     1  0.0000000  0.6973333  3
   3724   3722   3721   3729     1  0.0000000  1.0460000  1
   3724   3722   3721   3729     1  0.0000000  0.0000000  3
   3724   3722   3721   3725     1  0.0000000  0.6508444  3
   3725   3721   3722   3728     1  0.0000000  1.0460000  1
   3725   3721   3722   3728     1  0.0000000  0.0000000  3
   3725   3721   3729   3732     1  0.0000000  0.6973333  3
   3725   3721   3718   3730     1  0.0000000  1.0460000  1
   3725   3721   3718   3730     1  0.0000000  0.0000000  3
   3726   3723   3722   3728     1  0.0000000  0.6508444  3
   3735   3731   3737   3738     1  0.0000000  0.6973333  3
   3735   3731   3717   3739     1  0.0000000  1.0460000  1
   3735   3731   3717   3739     1  0.0000000  0.0000000  3
   3736   3731   3737   3738     1  0.0000000  0.6973333  3
   3736   3731   3717   3739     1  0.0000000  1.0460000  1
   3736   3731   3717   3739     1  0.0000000  0.0000000  3
   3740   3741   3744   3748     1  0.0000000  0.6508444  3
   3740   3741   3753   3756     1  0.0000000  1.0460000  1
   3740   3741   3753   3756     1  0.0000000  0.6694400  3
   3740   3754   3760   3761     1  0.0000000  1.0460000  1
   3740   3754   3760   3761     1  0.0000000  0.6694400  3
   3740   3762   3746   3749     1  0.0000000  1.6038667  3
   3741   3740   3754   3758     1  0.0000000  0.6508444  3
   3741   3740   3754   3759     1  0.0000000  0.6508444  3
   3741   3744   3745   3747     1  0.0000000  0.6508444  3
   3741   3744   3752   3755     1  0.0000000  1.0460000  1
   3741   3744   3752   3755     1  0.0000000  0.6694400  3
   3742   3740   3741   3744     1  0.0000000  0.6508444  3
   3742   3740   3741   3753     1  0.0000000  1.0460000  1
   3742   3740   3741   3753     1  0.0000000  0.0000000  3
   3742   3740   3741   3743     1  0.0000000  0.6508444  3
   3742   3740   3754   3760     1  0.0000000  1.0460000  1
   3742   3740   3754   3760     1  0.0000000  0.0000000  3
   3742   3740   3754   3758     1  0.0000000  0.6508444  3
   3742   3740   3754   3759     1  0.0000000  0.6508444  3
   3742   3740   3762   3746     1  0.0000000  1.6038667  3
   3743   3741   3740   3754     1  0.0000000  0.6508444  3
   3743   3741   3740   3762     1  0.0000000  1.0460000  1
   3743   3741   3740   3762     1  0.0000000  0.0000000  3
   3743   3741   3744   3745     1  0.0000000  0.6508444  3
   3743   3741   3744   3752     1  0.0000000  1.0460000  1
   3743   3741   3744   3752     1  0.0000000  0.0000000  3
   3743   3741   3744   3748     1  0.0000000  0.6508444  3
   3743   3741   3753   3756     1  0.0000000  0.6973333  3
   3744   3741   3753   3756     1  0.0000000  1.0460000  1
   3744   3741   3753   3756     1  0.0000000  0.6694400  3
   3744   3745   3746   3749     1  0.0000000  0.6508444  3
   3744   3745   3751   3757     1  0.0000000  1.0460000  1
   3744   3745   3751   3757     1  0.0000000  0.6694400  3
   3745   3744   3752   3755     1  0.0000000  1.0460000  1
   3745   3744   3752   3755     1  0.0000000  0.6694400  3
   3746   3745   3744   3748     1  0.0000000  0.6508444  3
   3746   3745   3751   3757     1  0.0000000  1.0460000  1
   3746   3745   3751   3757     1  0.0000000  0.6694400  3
   3747   3745   3744   3752     1  0.0000000  1.0460000  1
   3747   3745   3744   3752     1  0.0000000  0.0000000  3
   3747   3745   3744   3748     1  0.0000000  0.6508444  3
   3747   3745   3746   3750     1  0.0000000  1.0460000  1
   3747   3745   3746   3750     1  0.0000000  0.0000000  3
   3747   3745   3746   3762     1  0.0000000  1.0460000  1
   3747   3745   3746   3762     1  0.0000000  0.0000000  3
   3747   3745   3746   3749     1  0.0000000  0.6508444  3
   3747   3745   3751   3757     1  0.0000000  0.6973333  3
   3748   3744   3741   3753     1  0.0000000  1.0460000  1
   3748   3744   3741   3753     1  0.0000000  0.0000000  3
   3748   3744   3745   3751     1  0.0000000  1.0460000  1
   3748   3744   3745   3751     1  0.0000000  0.0000000  3
   3748   3744   3752   3755     1  0.0000000  0.6973333  3
   3749   3746   3745   3751     1  0.0000000  0.6508444  3
   3758   3754   3740   3762     1  0.0000000  1.0460000  1
   3758   3754   3740   3762     1  0.0000000  0.0000000  3
   3758   3754   3760   3761     1  0.0000000  0.6973333  3
   3759   3754   3740   3762     1  0.0000000  1.0460000  1
   3759   3754   3740   3762     1  0.0000000  0.0000000  3
   3759   3754   3760   3761     1  0.0000000  0.6973333  3
   3763   3764   3767   3771     1  0.0000000  0.6508444  3
   3763   3764   3776   3779     1  0.0000000  1.0460000  1
   3763   3764   3776   3779     1  0.0000000  0.6694400  3
   3763   3777   3783   3784     1  0.0000000  1.0460000  1
   3763   3777   3783   3784     1  0.0000000  0.6694400  3
   3763   3785   3769   3772     1  0.0000000  1.6038667  3
   3764   3767   3768   3770     1  0.0000000  0.6508444  3
   3764   3767   3775   3778     1  0.0000000  1.0460000  1
   3764   3767   3775   3778     1  0.0000000  0.6694400  3
   3764   3763   3777   3781     1  0.0000000  0.6508444  3
   3764   3763   3777   3782     1  0.0000000  0.6508444  3
   3765   3763   3764   3767     1  0.0000000  0.6508444  3
   3765   3763   3764   3776     1  0.0000000  1.0460000  1
   3765   3763   3764   3776     1  0.0000000  0.0000000  3
   3765   3763   3764   3766     1  0.0000000  0.6508444  3
   3765   3763   3777   3783     1  0.0000000  1.0460000  1
   3765   3763   3777   3783     1  0.0000000  0.0000000  3
   3765   3763   3777   3781     1  0.0000000  0.6508444  3
   3765   3763   3777   3782     1  0.0000000  0.6508444  3
   3765   3763   3785   3769     1  0.0000000  1.6038667  3
   3766   3764   3767   3768     1  0.0000000  0.6508444  3
   3766   3764   3767   3775     1  0.0000000  1.0460000  1
   3766   3764   3767   3775     1  0.0000000  0.0000000  3
   3766   3764   3767   3771     1  0.0000000  0.6508444  3
   3766   3764   3776   3779     1  0.0000000  0.6973333  3
   3766   3764   3763   3777     1  0.0000000  0.6508444  3
   3766   3764   3763   3785     1  0.0000000  1.0460000  1
   3766   3764   3763   3785     1  0.0000000  0.0000000  3
   3767   3768   3769   3772     1  0.0000000  0.6508444  3
   3767   3768   3774   3780     1  0.0000000  1.0460000  1
   3767   3768   3774   3780     1  0.0000000  0.6694400  3
   3767   3764   3776   3779     1  0.0000000  1.0460000  1
   3767   3764   3776   3779     1  0.0000000  0.6694400  3
   3768   3767   3775   3778     1  0.0000000  1.0460000  1
   3768   3767   3775   3778     1  0.0000000  0.6694400  3
   3769   3768   3774   3780     1  0.0000000  1.0460000  1
   3769   3768   3774   3780     1  0.0000000  0.6694400  3
   3769   3768   3767   3771     1  0.0000000  0.6508444  3
   3770   3768   3769   3773     1  0.0000000  1.0460000  1
   3770   3768   3769   3773     1  0.0000000  0.0000000  3
   3770   3768   3769   3785     1  0.0000000  1.0460000  1
   3770   3768   3769   3785     1  0.0000000  0.0000000  3
   3770   3768   3769   3772     1  0.0000000  0.6508444  3
   3770   3768   3774   3780     1  0.0000000  0.6973333  3
   3770   3768   3767   3775     1  0.0000000  1.0460000  1
   3770   3768   3767   3775     1  0.0000000  0.0000000  3
   3770   3768   3767   3771     1  0.0000000  0.6508444  3
   3771   3767   3768   3774     1  0.0000000  1.0460000  1
   3771   3767   3768   3774     1  0.0000000  0.0000000  3
   3771   3767   3775   3778     1  0.0000000  0.6973333  3
   3771   3767   3764   3776     1  0.0000000  1.0460000  1
   3771   3767   3764   3776     1  0.0000000  0.0000000  3
   3772   3769   3768   3774     1  0.0000000  0.6508444  3
   3781   3777   3783   3784     1  0.0000000  0.6973333  3
   3781   3777   3763   3785     1  0.0000000  1.0460000  1
   3781   3777   3763   3785     1  0.0000000  0.0000000  3
   3782   3777   3783   3784     1  0.0000000  0.6973333  3
   3782   3777   3763   3785     1  0.0000000  1.0460000  1
   3782   3777   3763   3785     1  0.0000000  0.0000000  3
   3786   3787   3790   3794     1  0.0000000  0.6508444  3
   3786   3787   3799   3802     1  0.0000000  1.0460000  1
   3786   3787   3799   3802     1  0.0000000  0.6694400  3
   3786   3800   3806   3807     1  0.0000000  1.0460000  1
   3786   3800   3806   3807     1  0.0000000  0.6694400  3
   3786   3808   3792   3795     1  0.0000000  1.6038667  3
   3787   3786   3800   3804     1  0.0000000  0.6508444  3
   3787   3786   3800   3805     1  0.0000000  0.6508444  3
   3787   3790   3791   3793     1  0.0000000  0.6508444  3
   3787   3790   3798   3801     1  0.0000000  1.0460000  1
   3787   3790   3798   3801     1  0.0000000  0.6694400  3
   3788   3786   3787   3790     1  0.0000000  0.6508444  3
   3788   3786   3787   3799     1  0.0000000  1.0460000  1
   3788   3786   3787   3799     1  0.0000000  0.0000000  3
   3788   3786   3787   3789     1  0.0000000  0.6508444  3
   3788   3786   3800   3806     1  0.0000000  1.0460000  1
   3788   3786   3800   3806     1  0.0000000  0.0000000  3
   3788   3786   3800   3804     1  0.0000000  0.6508444  3
   3788   3786   3800   3805     1  0.0000000  0.6508444  3
   3788   3786   3808   3792     1  0.0000000  1.6038667  3
   3789   3787   3786   3800     1  0.0000000  0.6508444  3
   3789   3787   3786   3808     1  0.0000000  1.0460000  1
   3789   3787   3786   3808     1  0.0000000  0.0000000  3
   3789   3787   3790   3791     1  0.0000000  0.6508444  3
   3789   3787   3790   3798     1  0.0000000  1.0460000  1
   3789   3787   3790   3798     1  0.0000000  0.0000000  3
   3789   3787   3790   3794     1  0.0000000  0.6508444  3
   3789   3787   3799   3802     1  0.0000000  0.6973333  3
   3790   3787   3799   3802     1  0.0000000  1.0460000  1
   3790   3787   3799   3802     1  0.0000000  0.6694400  3
   3790   3791   3792   3795     1  0.0000000  0.6508444  3
   3790   3791   3797   3803     1  0.0000000  1.0460000  1
   3790   3791   3797   3803     1  0.0000000  0.6694400  3
   3791   3790   3798   3801     1  0.0000000  1.0460000  1
   3791   3790   3798   3801     1  0.0000000  0.6694400  3
   3792   3791   3790   3794     1  0.0000000  0.6508444  3
   3792   3791   3797   3803     1  0.0000000  1.0460000  1
   3792   3791   3797   3803     1  0.0000000  0.6694400  3
   3793   3791   3790   3798     1  0.0000000  1.0460000  1
   3793   3791   3790   3798     1  0.0000000  0.0000000  3
   3793   3791   3790   3794     1  0.0000000  0.6508444  3
   3793   3791   3792   3796     1  0.0000000  1.0460000  1
   3793   3791   3792   3796     1  0.0000000  0.0000000  3
   3793   3791   3792   3808     1  0.0000000  1.0460000  1
   3793   3791   3792   3808     1  0.0000000  0.0000000  3
   3793   3791   3792   3795     1  0.0000000  0.6508444  3
   3793   3791   3797   3803     1  0.0000000  0.6973333  3
   3794   3790   3787   3799     1  0.0000000  1.0460000  1
   3794   3790   3787   3799     1  0.0000000  0.0000000  3
   3794   3790   3791   3797     1  0.0000000  1.0460000  1
   3794   3790   3791   3797     1  0.0000000  0.0000000  3
   3794   3790   3798   3801     1  0.0000000  0.6973333  3
   3795   3792   3791   3797     1  0.0000000  0.6508444  3
   3804   3800   3786   3808     1  0.0000000  1.0460000  1
   3804   3800   3786   3808     1  0.0000000  0.0000000  3
   3804   3800   3806   3807     1  0.0000000  0.6973333  3
   3805   3800   3786   3808     1  0.0000000  1.0460000  1
   3805   3800   3786   3808     1  0.0000000  0.0000000  3
   3805   3800   3806   3807     1  0.0000000  0.6973333  3
   3809   3810   3813   3817     1  0.0000000  0.6508444  3
   3809   3810   3822   3825     1  0.0000000  1.0460000  1
   3809   3810   3822   3825     1  0.0000000  0.6694400  3
   3809   3823   3829   3830     1  0.0000000  1.0460000  1
   3809   3823   3829   3830     1  0.0000000  0.6694400  3
   3809   3831   3815   3818     1  0.0000000  1.6038667  3
   3810   3813   3814   3816     1  0.0000000  0.6508444  3
   3810   3813   3821   3824     1  0.0000000  1.0460000  1
   3810   3813   3821   3824     1  0.0000000  0.6694400  3
   3810   3809   3823   3827     1  0.0000000  0.6508444  3
   3810   3809   3823   3828     1  0.0000000  0.6508444  3
   3811   3809   3810   3813     1  0.0000000  0.6508444  3
   3811   3809   3810   3822     1  0.0000000  1.0460000  1
   3811   3809   3810   3822     1  0.0000000  0.0000000  3
   3811   3809   3810   3812     1  0.0000000  0.6508444  3
   3811   3809   3823   3829     1  0.0000000  1.0460000  1
   3811   3809   3823   3829     1  0.0000000  0.0000000  3
   3811   3809   3823   3827     1  0.0000000  0.6508444  3
   3811   3809   3823   3828     1  0.0000000  0.6508444  3
   3811   3809   3831   3815     1  0.0000000  1.6038667  3
   3812   3810   3813   3814     1  0.0000000  0.6508444  3
   3812   3810   3813   3821     1  0.0000000  1.0460000  1
   3812   3810   3813   3821     1  0.0000000  0.0000000  3
   3812   3810   3813   3817     1  0.0000000  0.6508444  3
   3812   3810   3822   3825     1  0.0000000  0.6973333  3
   3812   3810   3809   3823     1  0.0000000  0.6508444  3
   3812   3810   3809   3831     1  0.0000000  1.0460000  1
   3812   3810   3809   3831     1  0.0000000  0.0000000  3
   3813   3814   3815   3818     1  0.0000000  0.6508444  3
   3813   3814   3820   3826     1  0.0000000  1.0460000  1
   3813   3814   3820   3826     1  0.0000000  0.6694400  3
   3813   3810   3822   3825     1  0.0000000  1.0460000  1
   3813   3810   3822   3825     1  0.0000000  0.6694400  3
   3814   3813   3821   3824     1  0.0000000  1.0460000  1
   3814   3813   3821   3824     1  0.0000000  0.6694400  3
   3815   3814   3820   3826     1  0.0000000  1.0460000  1
   3815   3814   3820   3826     1  0.0000000  0.6694400  3
   3815   3814   3813   3817     1  0.0000000  0.6508444  3
   3816   3814   3815   3819     1  0.0000000  1.0460000  1
   3816   3814   3815   3819     1  0.0000000  0.0000000  3
   3816   3814   3815   3831     1  0.0000000  1.0460000  1
   3816   3814   3815   3831     1  0.0000000  0.0000000  3
   3816   3814   3815   3818     1  0.0000000  0.6508444  3
   3816   3814   3820   3826     1  0.0000000  0.6973333  3
   3816   3814   3813   3821     1  0.0000000  1.0460000  1
   3816   3814   3813   3821     1  0.0000000  0.0000000  3
   3816   3814   3813   3817     1  0.0000000  0.6508444  3
   3817   3813   3814   3820     1  0.0000000  1.0460000  1
   3817   3813   3814   3820     1  0.0000000  0.0000000  3
   3817   3813   3821   3824     1  0.0000000  0.6973333  3
   3817   3813   3810   3822     1  0.0000000  1.0460000  1
   3817   3813   3810   3822     1  0.0000000  0.0000000  3
   3818   3815   3814   3820     1  0.0000000  0.6508444  3
   3827   3823   3829   3830     1  0.0000000  0.6973333  3
   3827   3823   3809   3831     1  0.0000000  1.0460000  1
   3827   3823   3809   3831     1  0.0000000  0.0000000  3
   3828   3823   3829   3830     1  0.0000000  0.6973333  3
   3828   3823   3809   3831     1  0.0000000  1.0460000  1
   3828   3823   3809   3831     1  0.0000000  0.0000000  3
   3832   3833   3836   3840     1  0.0000000  0.6508444  3
   3832   3833   3845   3848     1  0.0000000  1.0460000  1
   3832   3833   3845   3848     1  0.0000000  0.6694400  3
   3832   3846   3852   3853     1  0.0000000  1.0460000  1
   3832   3846   3852   3853     1  0.0000000  0.6694400  3
   3832   3854   3838   3841     1  0.0000000  1.6038667  3
   3833   3832   3846   3850     1  0.0000000  0.6508444  3
   3833   3832   3846   3851     1  0.0000000  0.6508444  3
   3833   3836   3837   3839     1  0.0000000  0.6508444  3
   3833   3836   3844   3847     1  0.0000000  1.0460000  1
   3833   3836   3844   3847     1  0.0000000  0.6694400  3
   3834   3832   3833   3836     1  0.0000000  0.6508444  3
   3834   3832   3833   3845     1  0.0000000  1.0460000  1
   3834   3832   3833   3845     1  0.0000000  0.0000000  3
   3834   3832   3833   3835     1  0.0000000  0.6508444  3
   3834   3832   3846   3852     1  0.0000000  1.0460000  1
   3834   3832   3846   3852     1  0.0000000  0.0000000  3
   3834   3832   3846   3850     1  0.0000000  0.6508444  3
   3834   3832   3846   3851     1  0.0000000  0.6508444  3
   3834   3832   3854   3838     1  0.0000000  1.6038667  3
   3835   3833   3832   3846     1  0.0000000  0.6508444  3
   3835   3833   3832   3854     1  0.0000000  1.0460000  1
   3835   3833   3832   3854     1  0.0000000  0.0000000  3
   3835   3833   3836   3837     1  0.0000000  0.6508444  3
   3835   3833   3836   3844     1  0.0000000  1.0460000  1
   3835   3833   3836   3844     1  0.0000000  0.0000000  3
   3835   3833   3836   3840     1  0.0000000  0.6508444  3
   3835   3833   3845   3848     1  0.0000000  0.6973333  3
   3836   3833   3845   3848     1  0.0000000  1.0460000  1
   3836   3833   3845   3848     1  0.0000000  0.6694400  3
   3836   3837   3838   3841     1  0.0000000  0.6508444  3
   3836   3837   3843   3849     1  0.0000000  1.0460000  1
   3836   3837   3843   3849     1  0.0000000  0.6694400  3
   3837   3836   3844   3847     1  0.0000000  1.0460000  1
   3837   3836   3844   3847     1  0.0000000  0.6694400  3
   3838   3837   3836   3840     1  0.0000000  0.6508444  3
   3838   3837   3843   3849     1  0.0000000  1.0460000  1
   3838   3837   3843   3849     1  0.0000000  0.6694400  3
   3839   3837   3836   3844     1  0.0000000  1.0460000  1
   3839   3837   3836   3844     1  0.0000000  0.0000000  3
   3839   3837   3836   3840     1  0.0000000  0.6508444  3
   3839   3837   3838   3842     1  0.0000000  1.0460000  1
   3839   3837   3838   3842     1  0.0000000  0.0000000  3
   3839   3837   3838   3854     1  0.0000000  1.0460000  1
   3839   3837   3838   3854     1  0.0000000  0.0000000  3
   3839   3837   3838   3841     1  0.0000000  0.6508444  3
   3839   3837   3843   3849     1  0.0000000  0.6973333  3
   3840   3836   3833   3845     1  0.0000000  1.0460000  1
   3840   3836   3833   3845     1  0.0000000  0.0000000  3
   3840   3836   3837   3843     1  0.0000000  1.0460000  1
   3840   3836   3837   3843     1  0.0000000  0.0000000  3
   3840   3836   3844   3847     1  0.0000000  0.6973333  3
   3841   3838   3837   3843     1  0.0000000  0.6508444  3
   3850   3846   3832   3854     1  0.0000000  1.0460000  1
   3850   3846   3832   3854     1  0.0000000  0.0000000  3
   3850   3846   3852   3853     1  0.0000000  0.6973333  3
   3851   3846   3832   3854     1  0.0000000  1.0460000  1
   3851   3846   3832   3854     1  0.0000000  0.0000000  3
   3851   3846   3852   3853     1  0.0000000  0.6973333  3
   3855   3856   3859   3863     1  0.0000000  0.6508444  3
   3855   3856   3868   3871     1  0.0000000  1.0460000  1
   3855   3856   3868   3871     1  0.0000000  0.6694400  3
   3855   3869   3875   3876     1  0.0000000  1.0460000  1
   3855   3869   3875   3876     1  0.0000000  0.6694400  3
   3855   3877   3861   3864     1  0.0000000  1.6038667  3
   3856   3859   3860   3862     1  0.0000000  0.6508444  3
   3856   3859   3867   3870     1  0.0000000  1.0460000  1
   3856   3859   3867   3870     1  0.0000000  0.6694400  3
   3856   3855   3869   3873     1  0.0000000  0.6508444  3
   3856   3855   3869   3874     1  0.0000000  0.6508444  3
   3857   3855   3856   3859     1  0.0000000  0.6508444  3
   3857   3855   3856   3868     1  0.0000000  1.0460000  1
   3857   3855   3856   3868     1  0.0000000  0.0000000  3
   3857   3855   3856   3858     1  0.0000000  0.6508444  3
   3857   3855   3869   3875     1  0.0000000  1.0460000  1
   3857   3855   3869   3875     1  0.0000000  0.0000000  3
   3857   3855   3869   3873     1  0.0000000  0.6508444  3
   3857   3855   3869   3874     1  0.0000000  0.6508444  3
   3857   3855   3877   3861     1  0.0000000  1.6038667  3
   3858   3856   3859   3860     1  0.0000000  0.6508444  3
   3858   3856   3859   3867     1  0.0000000  1.0460000  1
   3858   3856   3859   3867     1  0.0000000  0.0000000  3
   3858   3856   3859   3863     1  0.0000000  0.6508444  3
   3858   3856   3868   3871     1  0.0000000  0.6973333  3
   3858   3856   3855   3869     1  0.0000000  0.6508444  3
   3858   3856   3855   3877     1  0.0000000  1.0460000  1
   3858   3856   3855   3877     1  0.0000000  0.0000000  3
   3859   3860   3861   3864     1  0.0000000  0.6508444  3
   3859   3860   3866   3872     1  0.0000000  1.0460000  1
   3859   3860   3866   3872     1  0.0000000  0.6694400  3
   3859   3856   3868   3871     1  0.0000000  1.0460000  1
   3859   3856   3868   3871     1  0.0000000  0.6694400  3
   3860   3859   3867   3870     1  0.0000000  1.0460000  1
   3860   3859   3867   3870     1  0.0000000  0.6694400  3
   3861   3860   3866   3872     1  0.0000000  1.0460000  1
   3861   3860   3866   3872     1  0.0000000  0.6694400  3
   3861   3860   3859   3863     1  0.0000000  0.6508444  3
   3862   3860   3861   3865     1  0.0000000  1.0460000  1
   3862   3860   3861   3865     1  0.0000000  0.0000000  3
   3862   3860   3861   3877     1  0.0000000  1.0460000  1
   3862   3860   3861   3877     1  0.0000000  0.0000000  3
   3862   3860   3861   3864     1  0.0000000  0.6508444  3
   3862   3860   3866   3872     1  0.0000000  0.6973333  3
   3862   3860   3859   3867     1  0.0000000  1.0460000  1
   3862   3860   3859   3867     1  0.0000000  0.0000000  3
   3862   3860   3859   3863     1  0.0000000  0.6508444  3
   3863   3859   3860   3866     1  0.0000000  1.0460000  1
   3863   3859   3860   3866     1  0.0000000  0.0000000  3
   3863   3859   3867   3870     1  0.0000000  0.6973333  3
   3863   3859   3856   3868     1  0.0000000  1.0460000  1
   3863   3859   3856   3868     1  0.0000000  0.0000000  3
   3864   3861   3860   3866     1  0.0000000  0.6508444  3
   3873   3869   3875   3876     1  0.0000000  0.6973333  3
   3873   3869   3855   3877     1  0.0000000  1.0460000  1
   3873   3869   3855   3877     1  0.0000000  0.0000000  3
   3874   3869   3875   3876     1  0.0000000  0.6973333  3
   3874   3869   3855   3877     1  0.0000000  1.0460000  1
   3874   3869   3855   3877     1  0.0000000  0.0000000  3
   3878   3879   3882   3886     1  0.0000000  0.6508444  3
   3878   3879   3891   3894     1  0.0000000  1.0460000  1
   3878   3879   3891   3894     1  0.0000000  0.6694400  3
   3878   3892   3898   3899     1  0.0000000  1.0460000  1
   3878   3892   3898   3899     1  0.0000000  0.6694400  3
   3878   3900   3884   3887     1  0.0000000  1.6038667  3
   3879   3878   3892   3896     1  0.0000000  0.6508444  3
   3879   3878   3892   3897     1  0.0000000  0.6508444  3
   3879   3882   3883   3885     1  0.0000000  0.6508444  3
   3879   3882   3890   3893     1  0.0000000  1.0460000  1
   3879   3882   3890   3893     1  0.0000000  0.6694400  3
   3880   3878   3879   3882     1  0.0000000  0.6508444  3
   3880   3878   3879   3891     1  0.0000000  1.0460000  1
   3880   3878   3879   3891     1  0.0000000  0.0000000  3
   3880   3878   3879   3881     1  0.0000000  0.6508444  3
   3880   3878   3892   3898     1  0.0000000  1.0460000  1
   3880   3878   3892   3898     1  0.0000000  0.0000000  3
   3880   3878   3892   3896     1  0.0000000  0.6508444  3
   3880   3878   3892   3897     1  0.0000000  0.6508444  3
   3880   3878   3900   3884     1  0.0000000  1.6038667  3
   3881   3879   3878   3892     1  0.0000000  0.6508444  3
   3881   3879   3878   3900     1  0.0000000  1.0460000  1
   3881   3879   3878   3900     1  0.0000000  0.0000000  3
   3881   3879   3882   3883     1  0.0000000  0.6508444  3
   3881   3879   3882   3890     1  0.0000000  1.0460000  1
   3881   3879   3882   3890     1  0.0000000  0.0000000  3
   3881   3879   3882   3886     1  0.0000000  0.6508444  3
   3881   3879   3891   3894     1  0.0000000  0.6973333  3
   3882   3879   3891   3894     1  0.0000000  1.0460000  1
   3882   3879   3891   3894     1  0.0000000  0.6694400  3
   3882   3883   3884   3887     1  0.0000000  0.6508444  3
   3882   3883   3889   3895     1  0.0000000  1.0460000  1
   3882   3883   3889   3895     1  0.0000000  0.6694400  3
   3883   3882   3890   3893     1  0.0000000  1.0460000  1
   3883   3882   3890   3893     1  0.0000000  0.6694400  3
   3884   3883   3882   3886     1  0.0000000  0.6508444  3
   3884   3883   3889   3895     1  0.0000000  1.0460000  1
   3884   3883   3889   3895     1  0.0000000  0.6694400  3
   3885   3883   3882   3890     1  0.0000000  1.0460000  1
   3885   3883   3882   3890     1  0.0000000  0.0000000  3
   3885   3883   3882   3886     1  0.0000000  0.6508444  3
   3885   3883   3884   3888     1  0.0000000  1.0460000  1
   3885   3883   3884   3888     1  0.0000000  0.0000000  3
   3885   3883   3884   3900     1  0.0000000  1.0460000  1
   3885   3883   3884   3900     1  0.0000000  0.0000000  3
   3885   3883   3884   3887     1  0.0000000  0.6508444  3
   3885   3883   3889   3895     1  0.0000000  0.6973333  3
   3886   3882   3879   3891     1  0.0000000  1.0460000  1
   3886   3882   3879   3891     1  0.0000000  0.0000000  3
   3886   3882   3883   3889     1  0.0000000  1.0460000  1
   3886   3882   3883   3889     1  0.0000000  0.0000000  3
   3886   3882   3890   3893     1  0.0000000  0.6973333  3
   3887   3884   3883   3889     1  0.0000000  0.6508444  3
   3896   3892   3878   3900     1  0.0000000  1.0460000  1
   3896   3892   3878   3900     1  0.0000000  0.0000000  3
   3896   3892   3898   3899     1  0.0000000  0.6973333  3
   3897   3892   3878   3900     1  0.0000000  1.0460000  1
   3897   3892   3878   3900     1  0.0000000  0.0000000  3
   3897   3892   3898   3899     1  0.0000000  0.6973333  3
   3901   3902   3905   3909     1  0.0000000  0.6508444  3
   3901   3902   3914   3917     1  0.0000000  1.0460000  1
   3901   3902   3914   3917     1  0.0000000  0.6694400  3
   3901   3915   3921   3922     1  0.0000000  1.0460000  1
   3901   3915   3921   3922     1  0.0000000  0.6694400  3
   3901   3923   3907   3910     1  0.0000000  1.6038667  3
   3902   3905   3906   3908     1  0.0000000  0.6508444  3
   3902   3905   3913   3916     1  0.0000000  1.0460000  1
   3902   3905   3913   3916     1  0.0000000  0.6694400  3
   3902   3901   3915   3919     1  0.0000000  0.6508444  3
   3902   3901   3915   3920     1  0.0000000  0.6508444  3
   3903   3901   3902   3905     1  0.0000000  0.6508444  3
   3903   3901   3902   3914     1  0.0000000  1.0460000  1
   3903   3901   3902   3914     1  0.0000000  0.0000000  3
   3903   3901   3902   3904     1  0.0000000  0.6508444  3
   3903   3901   3915   3921     1  0.0000000  1.0460000  1
   3903   3901   3915   3921     1  0.0000000  0.0000000  3
   3903   3901   3915   3919     1  0.0000000  0.6508444  3
   3903   3901   3915   3920     1  0.0000000  0.6508444  3
   3903   3901   3923   3907     1  0.0000000  1.6038667  3
   3904   3902   3905   3906     1  0.0000000  0.6508444  3
   3904   3902   3905   3913     1  0.0000000  1.0460000  1
   3904   3902   3905   3913     1  0.0000000  0.0000000  3
   3904   3902   3905   3909     1  0.0000000  0.6508444  3
   3904   3902   3914   3917     1  0.0000000  0.6973333  3
   3904   3902   3901   3915     1  0.0000000  0.6508444  3
   3904   3902   3901   3923     1  0.0000000  1.0460000  1
   3904   3902   3901   3923     1  0.0000000  0.0000000  3
   3905   3906   3907   3910     1  0.0000000  0.6508444  3
   3905   3906   3912   3918     1  0.0000000  1.0460000  1
   3905   3906   3912   3918     1  0.0000000  0.6694400  3
   3905   3902   3914   3917     1  0.0000000  1.0460000  1
   3905   3902   3914   3917     1  0.0000000  0.6694400  3
   3906   3905   3913   3916     1  0.0000000  1.0460000  1
   3906   3905   3913   3916     1  0.0000000  0.6694400  3
   3907   3906   3912   3918     1  0.0000000  1.0460000  1
   3907   3906   3912   3918     1  0.0000000  0.6694400  3
   3907   3906   3905   3909     1  0.0000000  0.6508444  3
   3908   3906   3907   3911     1  0.0000000  1.0460000  1
   3908   3906   3907   3911     1  0.0000000  0.0000000  3
   3908   3906   3907   3923     1  0.0000000  1.0460000  1
   3908   3906   3907   3923     1  0.0000000  0.0000000  3
   3908   3906   3907   3910     1  0.0000000  0.6508444  3
   3908   3906   3912   3918     1  0.0000000  0.6973333  3
   3908   3906   3905   3913     1  0.0000000  1.0460000  1
   3908   3906   3905   3913     1  0.0000000  0.0000000  3
   3908   3906   3905   3909     1  0.0000000  0.6508444  3
   3909   3905   3906   3912     1  0.0000000  1.0460000  1
   3909   3905   3906   3912     1  0.0000000  0.0000000  3
   3909   3905   3913   3916     1  0.0000000  0.6973333  3
   3909   3905   3902   3914     1  0.0000000  1.0460000  1
   3909   3905   3902   3914     1  0.0000000  0.0000000  3
   3910   3907   3906   3912     1  0.0000000  0.6508444  3
   3919   3915   3921   3922     1  0.0000000  0.6973333  3
   3919   3915   3901   3923     1  0.0000000  1.0460000  1
   3919   3915   3901   3923     1  0.0000000  0.0000000  3
   3920   3915   3921   3922     1  0.0000000  0.6973333  3
   3920   3915   3901   3923     1  0.0000000  1.0460000  1
   3920   3915   3901   3923     1  0.0000000  0.0000000  3
   3924   3925   3928   3932     1  0.0000000  0.6508444  3
   3924   3925   3937   3940     1  0.0000000  1.0460000  1
   3924   3925   3937   3940     1  0.0000000  0.6694400  3
   3924   3938   3944   3945     1  0.0000000  1.0460000  1
   3924   3938   3944   3945     1  0.0000000  0.6694400  3
   3924   3946   3930   3933     1  0.0000000  1.6038667  3
   3925   3924   3938   3942     1  0.0000000  0.6508444  3
   3925   3924   3938   3943     1  0.0000000  0.6508444  3
   3925   3928   3929   3931     1  0.0000000  0.6508444  3
   3925   3928   3936   3939     1  0.0000000  1.0460000  1
   3925   3928   3936   3939     1  0.0000000  0.6694400  3
   3926   3924   3925   3928     1  0.0000000  0.6508444  3
   3926   3924   3925   3937     1  0.0000000  1.0460000  1
   3926   3924   3925   3937     1  0.0000000  0.0000000  3
   3926   3924   3925   3927     1  0.0000000  0.6508444  3
   3926   3924   3938   3944     1  0.0000000  1.0460000  1
   3926   3924   3938   3944     1  0.0000000  0.0000000  3
   3926   3924   3938   3942     1  0.0000000  0.6508444  3
   3926   3924   3938   3943     1  0.0000000  0.6508444  3
   3926   3924   3946   3930     1  0.0000000  1.6038667  3
   3927   3925   3924   3938     1  0.0000000  0.6508444  3
   3927   3925   3924   3946     1  0.0000000  1.0460000  1
   3927   3925   3924   3946     1  0.0000000  0.0000000  3
   3927   3925   3928   3929     1  0.0000000  0.6508444  3
   3927   3925   3928   3936     1  0.0000000  1.0460000  1
   3927   3925   3928   3936     1  0.0000000  0.0000000  3
   3927   3925   3928   3932     1  0.0000000  0.6508444  3
   3927   3925   3937   3940     1  0.0000000  0.6973333  3
   3928   3925   3937   3940     1  0.0000000  1.0460000  1
   3928   3925   3937   3940     1  0.0000000  0.6694400  3
   3928   3929   3930   3933     1  0.0000000  0.6508444  3
   3928   3929   3935   3941     1  0.0000000  1.0460000  1
   3928   3929   3935   3941     1  0.0000000  0.6694400  3
   3929   3928   3936   3939     1  0.0000000  1.0460000  1
   3929   3928   3936   3939     1  0.0000000  0.6694400  3
   3930   3929   3928   3932     1  0.0000000  0.6508444  3
   3930   3929   3935   3941     1  0.0000000  1.0460000  1
   3930   3929   3935   3941     1  0.0000000  0.6694400  3
   3931   3929   3928   3936     1  0.0000000  1.0460000  1
   3931   3929   3928   3936     1  0.0000000  0.0000000  3
   3931   3929   3928   3932     1  0.0000000  0.6508444  3
   3931   3929   3930   3934     1  0.0000000  1.0460000  1
   3931   3929   3930   3934     1  0.0000000  0.0000000  3
   3931   3929   3930   3946     1  0.0000000  1.0460000  1
   3931   3929   3930   3946     1  0.0000000  0.0000000  3
   3931   3929   3930   3933     1  0.0000000  0.6508444  3
   3931   3929   3935   3941     1  0.0000000  0.6973333  3
   3932   3928   3925   3937     1  0.0000000  1.0460000  1
   3932   3928   3925   3937     1  0.0000000  0.0000000  3
   3932   3928   3929   3935     1  0.0000000  1.0460000  1
   3932   3928   3929   3935     1  0.0000000  0.0000000  3
   3932   3928   3936   3939     1  0.0000000  0.6973333  3
   3933   3930   3929   3935     1  0.0000000  0.6508444  3
   3942   3938   3924   3946     1  0.0000000  1.0460000  1
   3942   3938   3924   3946     1  0.0000000  0.0000000  3
   3942   3938   3944   3945     1  0.0000000  0.6973333  3
   3943   3938   3924   3946     1  0.0000000  1.0460000  1
   3943   3938   3924   3946     1  0.0000000  0.0000000  3
   3943   3938   3944   3945     1  0.0000000  0.6973333  3
   3947   3948   3951   3955     1  0.0000000  0.6508444  3
   3947   3948   3960   3963     1  0.0000000  1.0460000  1
   3947   3948   3960   3963     1  0.0000000  0.6694400  3
   3947   3961   3967   3968     1  0.0000000  1.0460000  1
   3947   3961   3967   3968     1  0.0000000  0.6694400  3
   3947   3969   3953   3956     1  0.0000000  1.6038667  3
   3948   3951   3952   3954     1  0.0000000  0.6508444  3
   3948   3951   3959   3962     1  0.0000000  1.0460000  1
   3948   3951   3959   3962     1  0.0000000  0.6694400  3
   3948   3947   3961   3965     1  0.0000000  0.6508444  3
   3948   3947   3961   3966     1  0.0000000  0.6508444  3
   3949   3947   3948   3951     1  0.0000000  0.6508444  3
   3949   3947   3948   3960     1  0.0000000  1.0460000  1
   3949   3947   3948   3960     1  0.0000000  0.0000000  3
   3949   3947   3948   3950     1  0.0000000  0.6508444  3
   3949   3947   3961   3967     1  0.0000000  1.0460000  1
   3949   3947   3961   3967     1  0.0000000  0.0000000  3
   3949   3947   3961   3965     1  0.0000000  0.6508444  3
   3949   3947   3961   3966     1  0.0000000  0.6508444  3
   3949   3947   3969   3953     1  0.0000000  1.6038667  3
   3950   3948   3951   3952     1  0.0000000  0.6508444  3
   3950   3948   3951   3959     1  0.0000000  1.0460000  1
   3950   3948   3951   3959     1  0.0000000  0.0000000  3
   3950   3948   3951   3955     1  0.0000000  0.6508444  3
   3950   3948   3960   3963     1  0.0000000  0.6973333  3
   3950   3948   3947   3961     1  0.0000000  0.6508444  3
   3950   3948   3947   3969     1  0.0000000  1.0460000  1
   3950   3948   3947   3969     1  0.0000000  0.0000000  3
   3951   3952   3953   3956     1  0.0000000  0.6508444  3
   3951   3952   3958   3964     1  0.0000000  1.0460000  1
   3951   3952   3958   3964     1  0.0000000  0.6694400  3
   3951   3948   3960   3963     1  0.0000000  1.0460000  1
   3951   3948   3960   3963     1  0.0000000  0.6694400  3
   3952   3951   3959   3962     1  0.0000000  1.0460000  1
   3952   3951   3959   3962     1  0.0000000  0.6694400  3
   3953   3952   3958   3964     1  0.0000000  1.0460000  1
   3953   3952   3958   3964     1  0.0000000  0.6694400  3
   3953   3952   3951   3955     1  0.0000000  0.6508444  3
   3954   3952   3953   3957     1  0.0000000  1.0460000  1
   3954   3952   3953   3957     1  0.0000000  0.0000000  3
   3954   3952   3953   3969     1  0.0000000  1.0460000  1
   3954   3952   3953   3969     1  0.0000000  0.0000000  3
   3954   3952   3953   3956     1  0.0000000  0.6508444  3
   3954   3952   3958   3964     1  0.0000000  0.6973333  3
   3954   3952   3951   3959     1  0.0000000  1.0460000  1
   3954   3952   3951   3959     1  0.0000000  0.0000000  3
   3954   3952   3951   3955     1  0.0000000  0.6508444  3
   3955   3951   3952   3958     1  0.0000000  1.0460000  1
   3955   3951   3952   3958     1  0.0000000  0.0000000  3
   3955   3951   3959   3962     1  0.0000000  0.6973333  3
   3955   3951   3948   3960     1  0.0000000  1.0460000  1
   3955   3951   3948   3960     1  0.0000000  0.0000000  3
   3956   3953   3952   3958     1  0.0000000  0.6508444  3
   3965   3961   3967   3968     1  0.0000000  0.6973333  3
   3965   3961   3947   3969     1  0.0000000  1.0460000  1
   3965   3961   3947   3969     1  0.0000000  0.0000000  3
   3966   3961   3967   3968     1  0.0000000  0.6973333  3
   3966   3961   3947   3969     1  0.0000000  1.0460000  1
   3966   3961   3947   3969     1  0.0000000  0.0000000  3
   3970   3971   3974   3978     1  0.0000000  0.6508444  3
   3970   3971   3983   3986     1  0.0000000  1.0460000  1
   3970   3971   3983   3986     1  0.0000000  0.6694400  3
   3970   3984   3990   3991     1  0.0000000  1.0460000  1
   3970   3984   3990   3991     1  0.0000000  0.6694400  3
   3970   3992   3976   3979     1  0.0000000  1.6038667  3
   3971   3970   3984   3988     1  0.0000000  0.6508444  3
   3971   3970   3984   3989     1  0.0000000  0.6508444  3
   3971   3974   3975   3977     1  0.0000000  0.6508444  3
   3971   3974   3982   3985     1  0.0000000  1.0460000  1
   3971   3974   3982   3985     1  0.0000000  0.6694400  3
   3972   3970   3971   3974     1  0.0000000  0.6508444  3
   3972   3970   3971   3983     1  0.0000000  1.0460000  1
   3972   3970   3971   3983     1  0.0000000  0.0000000  3
   3972   3970   3971   3973     1  0.0000000  0.6508444  3
   3972   3970   3984   3990     1  0.0000000  1.0460000  1
   3972   3970   3984   3990     1  0.0000000  0.0000000  3
   3972   3970   3984   3988     1  0.0000000  0.6508444  3
   3972   3970   3984   3989     1  0.0000000  0.6508444  3
   3972   3970   3992   3976     1  0.0000000  1.6038667  3
   3973   3971   3970   3984     1  0.0000000  0.6508444  3
   3973   3971   3970   3992     1  0.0000000  1.0460000  1
   3973   3971   3970   3992     1  0.0000000  0.0000000  3
   3973   3971   3974   3975     1  0.0000000  0.6508444  3
   3973   3971   3974   3982     1  0.0000000  1.0460000  1
   3973   3971   3974   3982     1  0.0000000  0.0000000  3
   3973   3971   3974   3978     1  0.0000000  0.6508444  3
   3973   3971   3983   3986     1  0.0000000  0.6973333  3
   3974   3971   3983   3986     1  0.0000000  1.0460000  1
   3974   3971   3983   3986     1  0.0000000  0.6694400  3
   3974   3975   3976   3979     1  0.0000000  0.6508444  3
   3974   3975   3981   3987     1  0.0000000  1.0460000  1
   3974   3975   3981   3987     1  0.0000000  0.6694400  3
   3975   3974   3982   3985     1  0.0000000  1.0460000  1
   3975   3974   3982   3985     1  0.0000000  0.6694400  3
   3976   3975   3974   3978     1  0.0000000  0.6508444  3
   3976   3975   3981   3987     1  0.0000000  1.0460000  1
   3976   3975   3981   3987     1  0.0000000  0.6694400  3
   3977   3975   3974   3982     1  0.0000000  1.0460000  1
   3977   3975   3974   3982     1  0.0000000  0.0000000  3
   3977   3975   3974   3978     1  0.0000000  0.6508444  3
   3977   3975   3976   3980     1  0.0000000  1.0460000  1
   3977   3975   3976   3980     1  0.0000000  0.0000000  3
   3977   3975   3976   3992     1  0.0000000  1.0460000  1
   3977   3975   3976   3992     1  0.0000000  0.0000000  3
   3977   3975   3976   3979     1  0.0000000  0.6508444  3
   3977   3975   3981   3987     1  0.0000000  0.6973333  3
   3978   3974   3971   3983     1  0.0000000  1.0460000  1
   3978   3974   3971   3983     1  0.0000000  0.0000000  3
   3978   3974   3975   3981     1  0.0000000  1.0460000  1
   3978   3974   3975   3981     1  0.0000000  0.0000000  3
   3978   3974   3982   3985     1  0.0000000  0.6973333  3
   3979   3976   3975   3981     1  0.0000000  0.6508444  3
   3988   3984   3970   3992     1  0.0000000  1.0460000  1
   3988   3984   3970   3992     1  0.0000000  0.0000000  3
   3988   3984   3990   3991     1  0.0000000  0.6973333  3
   3989   3984   3970   3992     1  0.0000000  1.0460000  1
   3989   3984   3970   3992     1  0.0000000  0.0000000  3
   3989   3984   3990   3991     1  0.0000000  0.6973333  3
   3993   3994   3997   4001     1  0.0000000  0.6508444  3
   3993   3994   4006   4009     1  0.0000000  1.0460000  1
   3993   3994   4006   4009     1  0.0000000  0.6694400  3
   3993   4007   4013   4014     1  0.0000000  1.0460000  1
   3993   4007   4013   4014     1  0.0000000  0.6694400  3
   3993   4015   3999   4002     1  0.0000000  1.6038667  3
   3994   3997   3998   4000     1  0.0000000  0.6508444  3
   3994   3997   4005   4008     1  0.0000000  1.0460000  1
   3994   3997   4005   4008     1  0.0000000  0.6694400  3
   3994   3993   4007   4011     1  0.0000000  0.6508444  3
   3994   3993   4007   4012     1  0.0000000  0.6508444  3
   3995   3993   3994   3997     1  0.0000000  0.6508444  3
   3995   3993   3994   4006     1  0.0000000  1.0460000  1
   3995   3993   3994   4006     1  0.0000000  0.0000000  3
   3995   3993   3994   3996     1  0.0000000  0.6508444  3
   3995   3993   4007   4013     1  0.0000000  1.0460000  1
   3995   3993   4007   4013     1  0.0000000  0.0000000  3
   3995   3993   4007   4011     1  0.0000000  0.6508444  3
   3995   3993   4007   4012     1  0.0000000  0.6508444  3
   3995   3993   4015   3999     1  0.0000000  1.6038667  3
   3996   3994   3997   3998     1  0.0000000  0.6508444  3
   3996   3994   3997   4005     1  0.0000000  1.0460000  1
   3996   3994   3997   4005     1  0.0000000  0.0000000  3
   3996   3994   3997   4001     1  0.0000000  0.6508444  3
   3996   3994   4006   4009     1  0.0000000  0.6973333  3
   3996   3994   3993   4007     1  0.0000000  0.6508444  3
   3996   3994   3993   4015     1  0.0000000  1.0460000  1
   3996   3994   3993   4015     1  0.0000000  0.0000000  3
   3997   3998   3999   4002     1  0.0000000  0.6508444  3
   3997   3998   4004   4010     1  0.0000000  1.0460000  1
   3997   3998   4004   4010     1  0.0000000  0.6694400  3
   3997   3994   4006   4009     1  0.0000000  1.0460000  1
   3997   3994   4006   4009     1  0.0000000  0.6694400  3
   3998   3997   4005   4008     1  0.0000000  1.0460000  1
   3998   3997   4005   4008     1  0.0000000  0.6694400  3
   3999   3998   4004   4010     1  0.0000000  1.0460000  1
   3999   3998   4004   4010     1  0.0000000  0.6694400  3
   3999   3998   3997   4001     1  0.0000000  0.6508444  3
   4000   3998   3999   4003     1  0.0000000  1.0460000  1
   4000   3998   3999   4003     1  0.0000000  0.0000000  3
   4000   3998   3999   4015     1  0.0000000  1.0460000  1
   4000   3998   3999   4015     1  0.0000000  0.0000000  3
   4000   3998   3999   4002     1  0.0000000  0.6508444  3
   4000   3998   4004   4010     1  0.0000000  0.6973333  3
   4000   3998   3997   4005     1  0.0000000  1.0460000  1
   4000   3998   3997   4005     1  0.0000000  0.0000000  3
   4000   3998   3997   4001     1  0.0000000  0.6508444  3
   4001   3997   3998   4004     1  0.0000000  1.0460000  1
   4001   3997   3998   4004     1  0.0000000  0.0000000  3
   4001   3997   4005   4008     1  0.0000000  0.6973333  3
   4001   3997   3994   4006     1  0.0000000  1.0460000  1
   4001   3997   3994   4006     1  0.0000000  0.0000000  3
   4002   3999   3998   4004     1  0.0000000  0.6508444  3
   4011   4007   4013   4014     1  0.0000000  0.6973333  3
   4011   4007   3993   4015     1  0.0000000  1.0460000  1
   4011   4007   3993   4015     1  0.0000000  0.0000000  3
   4012   4007   4013   4014     1  0.0000000  0.6973333  3
   4012   4007   3993   4015     1  0.0000000  1.0460000  1
   4012   4007   3993   4015     1  0.0000000  0.0000000  3
   4016   4017   4020   4024     1  0.0000000  0.6508444  3
   4016   4017   4029   4032     1  0.0000000  1.0460000  1
   4016   4017   4029   4032     1  0.0000000  0.6694400  3
   4016   4030   4036   4037     1  0.0000000  1.0460000  1
   4016   4030   4036   4037     1  0.0000000  0.6694400  3
   4016   4038   4022   4025     1  0.0000000  1.6038667  3
   4017   4016   4030   4034     1  0.0000000  0.6508444  3
   4017   4016   4030   4035     1  0.0000000  0.6508444  3
   4017   4020   4021   4023     1  0.0000000  0.6508444  3
   4017   4020   4028   4031     1  0.0000000  1.0460000  1
   4017   4020   4028   4031     1  0.0000000  0.6694400  3
   4018   4016   4017   4020     1  0.0000000  0.6508444  3
   4018   4016   4017   4029     1  0.0000000  1.0460000  1
   4018   4016   4017   4029     1  0.0000000  0.0000000  3
   4018   4016   4017   4019     1  0.0000000  0.6508444  3
   4018   4016   4030   4036     1  0.0000000  1.0460000  1
   4018   4016   4030   4036     1  0.0000000  0.0000000  3
   4018   4016   4030   4034     1  0.0000000  0.6508444  3
   4018   4016   4030   4035     1  0.0000000  0.6508444  3
   4018   4016   4038   4022     1  0.0000000  1.6038667  3
   4019   4017   4016   4030     1  0.0000000  0.6508444  3
   4019   4017   4016   4038     1  0.0000000  1.0460000  1
   4019   4017   4016   4038     1  0.0000000  0.0000000  3
   4019   4017   4020   4021     1  0.0000000  0.6508444  3
   4019   4017   4020   4028     1  0.0000000  1.0460000  1
   4019   4017   4020   4028     1  0.0000000  0.0000000  3
   4019   4017   4020   4024     1  0.0000000  0.6508444  3
   4019   4017   4029   4032     1  0.0000000  0.6973333  3
   4020   4017   4029   4032     1  0.0000000  1.0460000  1
   4020   4017   4029   4032     1  0.0000000  0.6694400  3
   4020   4021   4022   4025     1  0.0000000  0.6508444  3
   4020   4021   4027   4033     1  0.0000000  1.0460000  1
   4020   4021   4027   4033     1  0.0000000  0.6694400  3
   4021   4020   4028   4031     1  0.0000000  1.0460000  1
   4021   4020   4028   4031     1  0.0000000  0.6694400  3
   4022   4021   4020   4024     1  0.0000000  0.6508444  3
   4022   4021   4027   4033     1  0.0000000  1.0460000  1
   4022   4021   4027   4033     1  0.0000000  0.6694400  3
   4023   4021   4020   4028     1  0.0000000  1.0460000  1
   4023   4021   4020   4028     1  0.0000000  0.0000000  3
   4023   4021   4020   4024     1  0.0000000  0.6508444  3
   4023   4021   4022   4026     1  0.0000000  1.0460000  1
   4023   4021   4022   4026     1  0.0000000  0.0000000  3
   4023   4021   4022   4038     1  0.0000000  1.0460000  1
   4023   4021   4022   4038     1  0.0000000  0.0000000  3
   4023   4021   4022   4025     1  0.0000000  0.6508444  3
   4023   4021   4027   4033     1  0.0000000  0.6973333  3
   4024   4020   4017   4029     1  0.0000000  1.0460000  1
   4024   4020   4017   4029     1  0.0000000  0.0000000  3
   4024   4020   4021   4027     1  0.0000000  1.0460000  1
   4024   4020   4021   4027     1  0.0000000  0.0000000  3
   4024   4020   4028   4031     1  0.0000000  0.6973333  3
   4025   4022   4021   4027     1  0.0000000  0.6508444  3
   4034   4030   4016   4038     1  0.0000000  1.0460000  1
   4034   4030   4016   4038     1  0.0000000  0.0000000  3
   4034   4030   4036   4037     1  0.0000000  0.6973333  3
   4035   4030   4016   4038     1  0.0000000  1.0460000  1
   4035   4030   4016   4038     1  0.0000000  0.0000000  3
   4035   4030   4036   4037     1  0.0000000  0.6973333  3
   4039   4040   4043   4047     1  0.0000000  0.6508444  3
   4039   4040   4052   4055     1  0.0000000  1.0460000  1
   4039   4040   4052   4055     1  0.0000000  0.6694400  3
   4039   4053   4059   4060     1  0.0000000  1.0460000  1
   4039   4053   4059   4060     1  0.0000000  0.6694400  3
   4039   4061   4045   4048     1  0.0000000  1.6038667  3
   4040   4043   4044   4046     1  0.0000000  0.6508444  3
   4040   4043   4051   4054     1  0.0000000  1.0460000  1
   4040   4043   4051   4054     1  0.0000000  0.6694400  3
   4040   4039   4053   4057     1  0.0000000  0.6508444  3
   4040   4039   4053   4058     1  0.0000000  0.6508444  3
   4041   4039   4040   4043     1  0.0000000  0.6508444  3
   4041   4039   4040   4052     1  0.0000000  1.0460000  1
   4041   4039   4040   4052     1  0.0000000  0.0000000  3
   4041   4039   4040   4042     1  0.0000000  0.6508444  3
   4041   4039   4053   4059     1  0.0000000  1.0460000  1
   4041   4039   4053   4059     1  0.0000000  0.0000000  3
   4041   4039   4053   4057     1  0.0000000  0.6508444  3
   4041   4039   4053   4058     1  0.0000000  0.6508444  3
   4041   4039   4061   4045     1  0.0000000  1.6038667  3
   4042   4040   4043   4044     1  0.0000000  0.6508444  3
   4042   4040   4043   4051     1  0.0000000  1.0460000  1
   4042   4040   4043   4051     1  0.0000000  0.0000000  3
   4042   4040   4043   4047     1  0.0000000  0.6508444  3
   4042   4040   4052   4055     1  0.0000000  0.6973333  3
   4042   4040   4039   4053     1  0.0000000  0.6508444  3
   4042   4040   4039   4061     1  0.0000000  1.0460000  1
   4042   4040   4039   4061     1  0.0000000  0.0000000  3
   4043   4044   4045   4048     1  0.0000000  0.6508444  3
   4043   4044   4050   4056     1  0.0000000  1.0460000  1
   4043   4044   4050   4056     1  0.0000000  0.6694400  3
   4043   4040   4052   4055     1  0.0000000  1.0460000  1
   4043   4040   4052   4055     1  0.0000000  0.6694400  3
   4044   4043   4051   4054     1  0.0000000  1.0460000  1
   4044   4043   4051   4054     1  0.0000000  0.6694400  3
   4045   4044   4050   4056     1  0.0000000  1.0460000  1
   4045   4044   4050   4056     1  0.0000000  0.6694400  3
   4045   4044   4043   4047     1  0.0000000  0.6508444  3
   4046   4044   4045   4049     1  0.0000000  1.0460000  1
   4046   4044   4045   4049     1  0.0000000  0.0000000  3
   4046   4044   4045   4061     1  0.0000000  1.0460000  1
   4046   4044   4045   4061     1  0.0000000  0.0000000  3
   4046   4044   4045   4048     1  0.0000000  0.6508444  3
   4046   4044   4050   4056     1  0.0000000  0.6973333  3
   4046   4044   4043   4051     1  0.0000000  1.0460000  1
   4046   4044   4043   4051     1  0.0000000  0.0000000  3
   4046   4044   4043   4047     1  0.0000000  0.6508444  3
   4047   4043   4044   4050     1  0.0000000  1.0460000  1
   4047   4043   4044   4050     1  0.0000000  0.0000000  3
   4047   4043   4051   4054     1  0.0000000  0.6973333  3
   4047   4043   4040   4052     1  0.0000000  1.0460000  1
   4047   4043   4040   4052     1  0.0000000  0.0000000  3
   4048   4045   4044   4050     1  0.0000000  0.6508444  3
   4057   4053   4059   4060     1  0.0000000  0.6973333  3
   4057   4053   4039   4061     1  0.0000000  1.0460000  1
   4057   4053   4039   4061     1  0.0000000  0.0000000  3
   4058   4053   4059   4060     1  0.0000000  0.6973333  3
   4058   4053   4039   4061     1  0.0000000  1.0460000  1
   4058   4053   4039   4061     1  0.0000000  0.0000000  3
   4062   4063   4066   4070     1  0.0000000  0.6508444  3
   4062   4063   4075   4078     1  0.0000000  1.0460000  1
   4062   4063   4075   4078     1  0.0000000  0.6694400  3
   4062   4076   4082   4083     1  0.0000000  1.0460000  1
   4062   4076   4082   4083     1  0.0000000  0.6694400  3
   4062   4084   4068   4071     1  0.0000000  1.6038667  3
   4063   4062   4076   4080     1  0.0000000  0.6508444  3
   4063   4062   4076   4081     1  0.0000000  0.6508444  3
   4063   4066   4067   4069     1  0.0000000  0.6508444  3
   4063   4066   4074   4077     1  0.0000000  1.0460000  1
   4063   4066   4074   4077     1  0.0000000  0.6694400  3
   4064   4062   4063   4066     1  0.0000000  0.6508444  3
   4064   4062   4063   4075     1  0.0000000  1.0460000  1
   4064   4062   4063   4075     1  0.0000000  0.0000000  3
   4064   4062   4063   4065     1  0.0000000  0.6508444  3
   4064   4062   4076   4082     1  0.0000000  1.0460000  1
   4064   4062   4076   4082     1  0.0000000  0.0000000  3
   4064   4062   4076   4080     1  0.0000000  0.6508444  3
   4064   4062   4076   4081     1  0.0000000  0.6508444  3
   4064   4062   4084   4068     1  0.0000000  1.6038667  3
   4065   4063   4062   4076     1  0.0000000  0.6508444  3
   4065   4063   4062   4084     1  0.0000000  1.0460000  1
   4065   4063   4062   4084     1  0.0000000  0.0000000  3
   4065   4063   4066   4067     1  0.0000000  0.6508444  3
   4065   4063   4066   4074     1  0.0000000  1.0460000  1
   4065   4063   4066   4074     1  0.0000000  0.0000000  3
   4065   4063   4066   4070     1  0.0000000  0.6508444  3
   4065   4063   4075   4078     1  0.0000000  0.6973333  3
   4066   4063   4075   4078     1  0.0000000  1.0460000  1
   4066   4063   4075   4078     1  0.0000000  0.6694400  3
   4066   4067   4068   4071     1  0.0000000  0.6508444  3
   4066   4067   4073   4079     1  0.0000000  1.0460000  1
   4066   4067   4073   4079     1  0.0000000  0.6694400  3
   4067   4066   4074   4077     1  0.0000000  1.0460000  1
   4067   4066   4074   4077     1  0.0000000  0.6694400  3
   4068   4067   4066   4070     1  0.0000000  0.6508444  3
   4068   4067   4073   4079     1  0.0000000  1.0460000  1
   4068   4067   4073   4079     1  0.0000000  0.6694400  3
   4069   4067   4066   4074     1  0.0000000  1.0460000  1
   4069   4067   4066   4074     1  0.0000000  0.0000000  3
   4069   4067   4066   4070     1  0.0000000  0.6508444  3
   4069   4067   4068   4072     1  0.0000000  1.0460000  1
   4069   4067   4068   4072     1  0.0000000  0.0000000  3
   4069   4067   4068   4084     1  0.0000000  1.0460000  1
   4069   4067   4068   4084     1  0.0000000  0.0000000  3
   4069   4067   4068   4071     1  0.0000000  0.6508444  3
   4069   4067   4073   4079     1  0.0000000  0.6973333  3
   4070   4066   4063   4075     1  0.0000000  1.0460000  1
   4070   4066   4063   4075     1  0.0000000  0.0000000  3
   4070   4066   4067   4073     1  0.0000000  1.0460000  1
   4070   4066   4067   4073     1  0.0000000  0.0000000  3
   4070   4066   4074   4077     1  0.0000000  0.6973333  3
   4071   4068   4067   4073     1  0.0000000  0.6508444  3
   4080   4076   4062   4084     1  0.0000000  1.0460000  1
   4080   4076   4062   4084     1  0.0000000  0.0000000  3
   4080   4076   4082   4083     1  0.0000000  0.6973333  3
   4081   4076   4062   4084     1  0.0000000  1.0460000  1
   4081   4076   4062   4084     1  0.0000000  0.0000000  3
   4081   4076   4082   4083     1  0.0000000  0.6973333  3
   4085   4086   4089   4093     1  0.0000000  0.6508444  3
   4085   4086   4098   4101     1  0.0000000  1.0460000  1
   4085   4086   4098   4101     1  0.0000000  0.6694400  3
   4085   4099   4105   4106     1  0.0000000  1.0460000  1
   4085   4099   4105   4106     1  0.0000000  0.6694400  3
   4085   4107   4091   4094     1  0.0000000  1.6038667  3
   4086   4089   4090   4092     1  0.0000000  0.6508444  3
   4086   4089   4097   4100     1  0.0000000  1.0460000  1
   4086   4089   4097   4100     1  0.0000000  0.6694400  3
   4086   4085   4099   4103     1  0.0000000  0.6508444  3
   4086   4085   4099   4104     1  0.0000000  0.6508444  3
   4087   4085   4086   4089     1  0.0000000  0.6508444  3
   4087   4085   4086   4098     1  0.0000000  1.0460000  1
   4087   4085   4086   4098     1  0.0000000  0.0000000  3
   4087   4085   4086   4088     1  0.0000000  0.6508444  3
   4087   4085   4099   4105     1  0.0000000  1.0460000  1
   4087   4085   4099   4105     1  0.0000000  0.0000000  3
   4087   4085   4099   4103     1  0.0000000  0.6508444  3
   4087   4085   4099   4104     1  0.0000000  0.6508444  3
   4087   4085   4107   4091     1  0.0000000  1.6038667  3
   4088   4086   4089   4090     1  0.0000000  0.6508444  3
   4088   4086   4089   4097     1  0.0000000  1.0460000  1
   4088   4086   4089   4097     1  0.0000000  0.0000000  3
   4088   4086   4089   4093     1  0.0000000  0.6508444  3
   4088   4086   4098   4101     1  0.0000000  0.6973333  3
   4088   4086   4085   4099     1  0.0000000  0.6508444  3
   4088   4086   4085   4107     1  0.0000000  1.0460000  1
   4088   4086   4085   4107     1  0.0000000  0.0000000  3
   4089   4090   4091   4094     1  0.0000000  0.6508444  3
   4089   4090   4096   4102     1  0.0000000  1.0460000  1
   4089   4090   4096   4102     1  0.0000000  0.6694400  3
   4089   4086   4098   4101     1  0.0000000  1.0460000  1
   4089   4086   4098   4101     1  0.0000000  0.6694400  3
   4090   4089   4097   4100     1  0.0000000  1.0460000  1
   4090   4089   4097   4100     1  0.0000000  0.6694400  3
   4091   4090   4096   4102     1  0.0000000  1.0460000  1
   4091   4090   4096   4102     1  0.0000000  0.6694400  3
   4091   4090   4089   4093     1  0.0000000  0.6508444  3
   4092   4090   4091   4095     1  0.0000000  1.0460000  1
   4092   4090   4091   4095     1  0.0000000  0.0000000  3
   4092   4090   4091   4107     1  0.0000000  1.0460000  1
   4092   4090   4091   4107     1  0.0000000  0.0000000  3
   4092   4090   4091   4094     1  0.0000000  0.6508444  3
   4092   4090   4096   4102     1  0.0000000  0.6973333  3
   4092   4090   4089   4097     1  0.0000000  1.0460000  1
   4092   4090   4089   4097     1  0.0000000  0.0000000  3
   4092   4090   4089   4093     1  0.0000000  0.6508444  3
   4093   4089   4090   4096     1  0.0000000  1.0460000  1
   4093   4089   4090   4096     1  0.0000000  0.0000000  3
   4093   4089   4097   4100     1  0.0000000  0.6973333  3
   4093   4089   4086   4098     1  0.0000000  1.0460000  1
   4093   4089   4086   4098     1  0.0000000  0.0000000  3
   4094   4091   4090   4096     1  0.0000000  0.6508444  3
   4103   4099   4105   4106     1  0.0000000  0.6973333  3
   4103   4099   4085   4107     1  0.0000000  1.0460000  1
   4103   4099   4085   4107     1  0.0000000  0.0000000  3
   4104   4099   4105   4106     1  0.0000000  0.6973333  3
   4104   4099   4085   4107     1  0.0000000  1.0460000  1
   4104   4099   4085   4107     1  0.0000000  0.0000000  3
   4108   4109   4112   4116     1  0.0000000  0.6508444  3
   4108   4109   4121   4124     1  0.0000000  1.0460000  1
   4108   4109   4121   4124     1  0.0000000  0.6694400  3
   4108   4122   4128   4129     1  0.0000000  1.0460000  1
   4108   4122   4128   4129     1  0.0000000  0.6694400  3
   4108   4130   4114   4117     1  0.0000000  1.6038667  3
   4109   4108   4122   4126     1  0.0000000  0.6508444  3
   4109   4108   4122   4127     1  0.0000000  0.6508444  3
   4109   4112   4113   4115     1  0.0000000  0.6508444  3
   4109   4112   4120   4123     1  0.0000000  1.0460000  1
   4109   4112   4120   4123     1  0.0000000  0.6694400  3
   4110   4108   4109   4112     1  0.0000000  0.6508444  3
   4110   4108   4109   4121     1  0.0000000  1.0460000  1
   4110   4108   4109   4121     1  0.0000000  0.0000000  3
   4110   4108   4109   4111     1  0.0000000  0.6508444  3
   4110   4108   4122   4128     1  0.0000000  1.0460000  1
   4110   4108   4122   4128     1  0.0000000  0.0000000  3
   4110   4108   4122   4126     1  0.0000000  0.6508444  3
   4110   4108   4122   4127     1  0.0000000  0.6508444  3
   4110   4108   4130   4114     1  0.0000000  1.6038667  3
   4111   4109   4108   4122     1  0.0000000  0.6508444  3
   4111   4109   4108   4130     1  0.0000000  1.0460000  1
   4111   4109   4108   4130     1  0.0000000  0.0000000  3
   4111   4109   4112   4113     1  0.0000000  0.6508444  3
   4111   4109   4112   4120     1  0.0000000  1.0460000  1
   4111   4109   4112   4120     1  0.0000000  0.0000000  3
   4111   4109   4112   4116     1  0.0000000  0.6508444  3
   4111   4109   4121   4124     1  0.0000000  0.6973333  3
   4112   4109   4121   4124     1  0.0000000  1.0460000  1
   4112   4109   4121   4124     1  0.0000000  0.6694400  3
   4112   4113   4114   4117     1  0.0000000  0.6508444  3
   4112   4113   4119   4125     1  0.0000000  1.0460000  1
   4112   4113   4119   4125     1  0.0000000  0.6694400  3
   4113   4112   4120   4123     1  0.0000000  1.0460000  1
   4113   4112   4120   4123     1  0.0000000  0.6694400  3
   4114   4113   4112   4116     1  0.0000000  0.6508444  3
   4114   4113   4119   4125     1  0.0000000  1.0460000  1
   4114   4113   4119   4125     1  0.0000000  0.6694400  3
   4115   4113   4112   4120     1  0.0000000  1.0460000  1
   4115   4113   4112   4120     1  0.0000000  0.0000000  3
   4115   4113   4112   4116     1  0.0000000  0.6508444  3
   4115   4113   4114   4118     1  0.0000000  1.0460000  1
   4115   4113   4114   4118     1  0.0000000  0.0000000  3
   4115   4113   4114   4130     1  0.0000000  1.0460000  1
   4115   4113   4114   4130     1  0.0000000  0.0000000  3
   4115   4113   4114   4117     1  0.0000000  0.6508444  3
   4115   4113   4119   4125     1  0.0000000  0.6973333  3
   4116   4112   4109   4121     1  0.0000000  1.0460000  1
   4116   4112   4109   4121     1  0.0000000  0.0000000  3
   4116   4112   4113   4119     1  0.0000000  1.0460000  1
   4116   4112   4113   4119     1  0.0000000  0.0000000  3
   4116   4112   4120   4123     1  0.0000000  0.6973333  3
   4117   4114   4113   4119     1  0.0000000  0.6508444  3
   4126   4122   4108   4130     1  0.0000000  1.0460000  1
   4126   4122   4108   4130     1  0.0000000  0.0000000  3
   4126   4122   4128   4129     1  0.0000000  0.6973333  3
   4127   4122   4108   4130     1  0.0000000  1.0460000  1
   4127   4122   4108   4130     1  0.0000000  0.0000000  3
   4127   4122   4128   4129     1  0.0000000  0.6973333  3
   4131   4132   4135   4139     1  0.0000000  0.6508444  3
   4131   4132   4144   4147     1  0.0000000  1.0460000  1
   4131   4132   4144   4147     1  0.0000000  0.6694400  3
   4131   4145   4151   4152     1  0.0000000  1.0460000  1
   4131   4145   4151   4152     1  0.0000000  0.6694400  3
   4131   4153   4137   4140     1  0.0000000  1.6038667  3
   4132   4135   4136   4138     1  0.0000000  0.6508444  3
   4132   4135   4143   4146     1  0.0000000  1.0460000  1
   4132   4135   4143   4146     1  0.0000000  0.6694400  3
   4132   4131   4145   4149     1  0.0000000  0.6508444  3
   4132   4131   4145   4150     1  0.0000000  0.6508444  3
   4133   4131   4132   4135     1  0.0000000  0.6508444  3
   4133   4131   4132   4144     1  0.0000000  1.0460000  1
   4133   4131   4132   4144     1  0.0000000  0.0000000  3
   4133   4131   4132   4134     1  0.0000000  0.6508444  3
   4133   4131   4145   4151     1  0.0000000  1.0460000  1
   4133   4131   4145   4151     1  0.0000000  0.0000000  3
   4133   4131   4145   4149     1  0.0000000  0.6508444  3
   4133   4131   4145   4150     1  0.0000000  0.6508444  3
   4133   4131   4153   4137     1  0.0000000  1.6038667  3
   4134   4132   4135   4136     1  0.0000000  0.6508444  3
   4134   4132   4135   4143     1  0.0000000  1.0460000  1
   4134   4132   4135   4143     1  0.0000000  0.0000000  3
   4134   4132   4135   4139     1  0.0000000  0.6508444  3
   4134   4132   4144   4147     1  0.0000000  0.6973333  3
   4134   4132   4131   4145     1  0.0000000  0.6508444  3
   4134   4132   4131   4153     1  0.0000000  1.0460000  1
   4134   4132   4131   4153     1  0.0000000  0.0000000  3
   4135   4136   4137   4140     1  0.0000000  0.6508444  3
   4135   4136   4142   4148     1  0.0000000  1.0460000  1
   4135   4136   4142   4148     1  0.0000000  0.6694400  3
   4135   4132   4144   4147     1  0.0000000  1.0460000  1
   4135   4132   4144   4147     1  0.0000000  0.6694400  3
   4136   4135   4143   4146     1  0.0000000  1.0460000  1
   4136   4135   4143   4146     1  0.0000000  0.6694400  3
   4137   4136   4142   4148     1  0.0000000  1.0460000  1
   4137   4136   4142   4148     1  0.0000000  0.6694400  3
   4137   4136   4135   4139     1  0.0000000  0.6508444  3
   4138   4136   4137   4141     1  0.0000000  1.0460000  1
   4138   4136   4137   4141     1  0.0000000  0.0000000  3
   4138   4136   4137   4153     1  0.0000000  1.0460000  1
   4138   4136   4137   4153     1  0.0000000  0.0000000  3
   4138   4136   4137   4140     1  0.0000000  0.6508444  3
   4138   4136   4142   4148     1  0.0000000  0.6973333  3
   4138   4136   4135   4143     1  0.0000000  1.0460000  1
   4138   4136   4135   4143     1  0.0000000  0.0000000  3
   4138   4136   4135   4139     1  0.0000000  0.6508444  3
   4139   4135   4136   4142     1  0.0000000  1.0460000  1
   4139   4135   4136   4142     1  0.0000000  0.0000000  3
   4139   4135   4143   4146     1  0.0000000  0.6973333  3
   4139   4135   4132   4144     1  0.0000000  1.0460000  1
   4139   4135   4132   4144     1  0.0000000  0.0000000  3
   4140   4137   4136   4142     1  0.0000000  0.6508444  3
   4149   4145   4151   4152     1  0.0000000  0.6973333  3
   4149   4145   4131   4153     1  0.0000000  1.0460000  1
   4149   4145   4131   4153     1  0.0000000  0.0000000  3
   4150   4145   4151   4152     1  0.0000000  0.6973333  3
   4150   4145   4131   4153     1  0.0000000  1.0460000  1
   4150   4145   4131   4153     1  0.0000000  0.0000000  3
   4154   4155   4158   4162     1  0.0000000  0.6508444  3
   4154   4155   4167   4170     1  0.0000000  1.0460000  1
   4154   4155   4167   4170     1  0.0000000  0.6694400  3
   4154   4168   4174   4175     1  0.0000000  1.0460000  1
   4154   4168   4174   4175     1  0.0000000  0.6694400  3
   4154   4176   4160   4163     1  0.0000000  1.6038667  3
   4155   4154   4168   4172     1  0.0000000  0.6508444  3
   4155   4154   4168   4173     1  0.0000000  0.6508444  3
   4155   4158   4159   4161     1  0.0000000  0.6508444  3
   4155   4158   4166   4169     1  0.0000000  1.0460000  1
   4155   4158   4166   4169     1  0.0000000  0.6694400  3
   4156   4154   4155   4158     1  0.0000000  0.6508444  3
   4156   4154   4155   4167     1  0.0000000  1.0460000  1
   4156   4154   4155   4167     1  0.0000000  0.0000000  3
   4156   4154   4155   4157     1  0.0000000  0.6508444  3
   4156   4154   4168   4174     1  0.0000000  1.0460000  1
   4156   4154   4168   4174     1  0.0000000  0.0000000  3
   4156   4154   4168   4172     1  0.0000000  0.6508444  3
   4156   4154   4168   4173     1  0.0000000  0.6508444  3
   4156   4154   4176   4160     1  0.0000000  1.6038667  3
   4157   4155   4154   4168     1  0.0000000  0.6508444  3
   4157   4155   4154   4176     1  0.0000000  1.0460000  1
   4157   4155   4154   4176     1  0.0000000  0.0000000  3
   4157   4155   4158   4159     1  0.0000000  0.6508444  3
   4157   4155   4158   4166     1  0.0000000  1.0460000  1
   4157   4155   4158   4166     1  0.0000000  0.0000000  3
   4157   4155   4158   4162     1  0.0000000  0.6508444  3
   4157   4155   4167   4170     1  0.0000000  0.6973333  3
   4158   4155   4167   4170     1  0.0000000  1.0460000  1
   4158   4155   4167   4170     1  0.0000000  0.6694400  3
   4158   4159   4160   4163     1  0.0000000  0.6508444  3
   4158   4159   4165   4171     1  0.0000000  1.0460000  1
   4158   4159   4165   4171     1  0.0000000  0.6694400  3
   4159   4158   4166   4169     1  0.0000000  1.0460000  1
   4159   4158   4166   4169     1  0.0000000  0.6694400  3
   4160   4159   4158   4162     1  0.0000000  0.6508444  3
   4160   4159   4165   4171     1  0.0000000  1.0460000  1
   4160   4159   4165   4171     1  0.0000000  0.6694400  3
   4161   4159   4158   4166     1  0.0000000  1.0460000  1
   4161   4159   4158   4166     1  0.0000000  0.0000000  3
   4161   4159   4158   4162     1  0.0000000  0.6508444  3
   4161   4159   4160   4164     1  0.0000000  1.0460000  1
   4161   4159   4160   4164     1  0.0000000  0.0000000  3
   4161   4159   4160   4176     1  0.0000000  1.0460000  1
   4161   4159   4160   4176     1  0.0000000  0.0000000  3
   4161   4159   4160   4163     1  0.0000000  0.6508444  3
   4161   4159   4165   4171     1  0.0000000  0.6973333  3
   4162   4158   4155   4167     1  0.0000000  1.0460000  1
   4162   4158   4155   4167     1  0.0000000  0.0000000  3
   4162   4158   4159   4165     1  0.0000000  1.0460000  1
   4162   4158   4159   4165     1  0.0000000  0.0000000  3
   4162   4158   4166   4169     1  0.0000000  0.6973333  3
   4163   4160   4159   4165     1  0.0000000  0.6508444  3
   4172   4168   4154   4176     1  0.0000000  1.0460000  1
   4172   4168   4154   4176     1  0.0000000  0.0000000  3
   4172   4168   4174   4175     1  0.0000000  0.6973333  3
   4173   4168   4154   4176     1  0.0000000  1.0460000  1
   4173   4168   4154   4176     1  0.0000000  0.0000000  3
   4173   4168   4174   4175     1  0.0000000  0.6973333  3
   4177   4178   4181   4185     1  0.0000000  0.6508444  3
   4177   4178   4190   4193     1  0.0000000  1.0460000  1
   4177   4178   4190   4193     1  0.0000000  0.6694400  3
   4177   4191   4197   4198     1  0.0000000  1.0460000  1
   4177   4191   4197   4198     1  0.0000000  0.6694400  3
   4177   4199   4183   4186     1  0.0000000  1.6038667  3
   4178   4181   4182   4184     1  0.0000000  0.6508444  3
   4178   4181   4189   4192     1  0.0000000  1.0460000  1
   4178   4181   4189   4192     1  0.0000000  0.6694400  3
   4178   4177   4191   4195     1  0.0000000  0.6508444  3
   4178   4177   4191   4196     1  0.0000000  0.6508444  3
   4179   4177   4178   4181     1  0.0000000  0.6508444  3
   4179   4177   4178   4190     1  0.0000000  1.0460000  1
   4179   4177   4178   4190     1  0.0000000  0.0000000  3
   4179   4177   4178   4180     1  0.0000000  0.6508444  3
   4179   4177   4191   4197     1  0.0000000  1.0460000  1
   4179   4177   4191   4197     1  0.0000000  0.0000000  3
   4179   4177   4191   4195     1  0.0000000  0.6508444  3
   4179   4177   4191   4196     1  0.0000000  0.6508444  3
   4179   4177   4199   4183     1  0.0000000  1.6038667  3
   4180   4178   4181   4182     1  0.0000000  0.6508444  3
   4180   4178   4181   4189     1  0.0000000  1.0460000  1
   4180   4178   4181   4189     1  0.0000000  0.0000000  3
   4180   4178   4181   4185     1  0.0000000  0.6508444  3
   4180   4178   4190   4193     1  0.0000000  0.6973333  3
   4180   4178   4177   4191     1  0.0000000  0.6508444  3
   4180   4178   4177   4199     1  0.0000000  1.0460000  1
   4180   4178   4177   4199     1  0.0000000  0.0000000  3
   4181   4182   4183   4186     1  0.0000000  0.6508444  3
   4181   4182   4188   4194     1  0.0000000  1.0460000  1
   4181   4182   4188   4194     1  0.0000000  0.6694400  3
   4181   4178   4190   4193     1  0.0000000  1.0460000  1
   4181   4178   4190   4193     1  0.0000000  0.6694400  3
   4182   4181   4189   4192     1  0.0000000  1.0460000  1
   4182   4181   4189   4192     1  0.0000000  0.6694400  3
   4183   4182   4188   4194     1  0.0000000  1.0460000  1
   4183   4182   4188   4194     1  0.0000000  0.6694400  3
   4183   4182   4181   4185     1  0.0000000  0.6508444  3
   4184   4182   4183   4187     1  0.0000000  1.0460000  1
   4184   4182   4183   4187     1  0.0000000  0.0000000  3
   4184   4182   4183   4199     1  0.0000000  1.0460000  1
   4184   4182   4183   4199     1  0.0000000  0.0000000  3
   4184   4182   4183   4186     1  0.0000000  0.6508444  3
   4184   4182   4188   4194     1  0.0000000  0.6973333  3
   4184   4182   4181   4189     1  0.0000000  1.0460000  1
   4184   4182   4181   4189     1  0.0000000  0.0000000  3
   4184   4182   4181   4185     1  0.0000000  0.6508444  3
   4185   4181   4182   4188     1  0.0000000  1.0460000  1
   4185   4181   4182   4188     1  0.0000000  0.0000000  3
   4185   4181   4189   4192     1  0.0000000  0.6973333  3
   4185   4181   4178   4190     1  0.0000000  1.0460000  1
   4185   4181   4178   4190     1  0.0000000  0.0000000  3
   4186   4183   4182   4188     1  0.0000000  0.6508444  3
   4195   4191   4197   4198     1  0.0000000  0.6973333  3
   4195   4191   4177   4199     1  0.0000000  1.0460000  1
   4195   4191   4177   4199     1  0.0000000  0.0000000  3
   4196   4191   4197   4198     1  0.0000000  0.6973333  3
   4196   4191   4177   4199     1  0.0000000  1.0460000  1
   4196   4191   4177   4199     1  0.0000000  0.0000000  3
   4200   4201   4204   4208     1  0.0000000  0.6508444  3
   4200   4201   4213   4216     1  0.0000000  1.0460000  1
   4200   4201   4213   4216     1  0.0000000  0.6694400  3
   4200   4214   4220   4221     1  0.0000000  1.0460000  1
   4200   4214   4220   4221     1  0.0000000  0.6694400  3
   4200   4222   4206   4209     1  0.0000000  1.6038667  3
   4201   4200   4214   4218     1  0.0000000  0.6508444  3
   4201   4200   4214   4219     1  0.0000000  0.6508444  3
   4201   4204   4205   4207     1  0.0000000  0.6508444  3
   4201   4204   4212   4215     1  0.0000000  1.0460000  1
   4201   4204   4212   4215     1  0.0000000  0.6694400  3
   4202   4200   4201   4204     1  0.0000000  0.6508444  3
   4202   4200   4201   4213     1  0.0000000  1.0460000  1
   4202   4200   4201   4213     1  0.0000000  0.0000000  3
   4202   4200   4201   4203     1  0.0000000  0.6508444  3
   4202   4200   4214   4220     1  0.0000000  1.0460000  1
   4202   4200   4214   4220     1  0.0000000  0.0000000  3
   4202   4200   4214   4218     1  0.0000000  0.6508444  3
   4202   4200   4214   4219     1  0.0000000  0.6508444  3
   4202   4200   4222   4206     1  0.0000000  1.6038667  3
   4203   4201   4200   4214     1  0.0000000  0.6508444  3
   4203   4201   4200   4222     1  0.0000000  1.0460000  1
   4203   4201   4200   4222     1  0.0000000  0.0000000  3
   4203   4201   4204   4205     1  0.0000000  0.6508444  3
   4203   4201   4204   4212     1  0.0000000  1.0460000  1
   4203   4201   4204   4212     1  0.0000000  0.0000000  3
   4203   4201   4204   4208     1  0.0000000  0.6508444  3
   4203   4201   4213   4216     1  0.0000000  0.6973333  3
   4204   4201   4213   4216     1  0.0000000  1.0460000  1
   4204   4201   4213   4216     1  0.0000000  0.6694400  3
   4204   4205   4206   4209     1  0.0000000  0.6508444  3
   4204   4205   4211   4217     1  0.0000000  1.0460000  1
   4204   4205   4211   4217     1  0.0000000  0.6694400  3
   4205   4204   4212   4215     1  0.0000000  1.0460000  1
   4205   4204   4212   4215     1  0.0000000  0.6694400  3
   4206   4205   4204   4208     1  0.0000000  0.6508444  3
   4206   4205   4211   4217     1  0.0000000  1.0460000  1
   4206   4205   4211   4217     1  0.0000000  0.6694400  3
   4207   4205   4204   4212     1  0.0000000  1.0460000  1
   4207   4205   4204   4212     1  0.0000000  0.0000000  3
   4207   4205   4204   4208     1  0.0000000  0.6508444  3
   4207   4205   4206   4210     1  0.0000000  1.0460000  1
   4207   4205   4206   4210     1  0.0000000  0.0000000  3
   4207   4205   4206   4222     1  0.0000000  1.0460000  1
   4207   4205   4206   4222     1  0.0000000  0.0000000  3
   4207   4205   4206   4209     1  0.0000000  0.6508444  3
   4207   4205   4211   4217     1  0.0000000  0.6973333  3
   4208   4204   4201   4213     1  0.0000000  1.0460000  1
   4208   4204   4201   4213     1  0.0000000  0.0000000  3
   4208   4204   4205   4211     1  0.0000000  1.0460000  1
   4208   4204   4205   4211     1  0.0000000  0.0000000  3
   4208   4204   4212   4215     1  0.0000000  0.6973333  3
   4209   4206   4205   4211     1  0.0000000  0.6508444  3
   4218   4214   4200   4222     1  0.0000000  1.0460000  1
   4218   4214   4200   4222     1  0.0000000  0.0000000  3
   4218   4214   4220   4221     1  0.0000000  0.6973333  3
   4219   4214   4200   4222     1  0.0000000  1.0460000  1
   4219   4214   4200   4222     1  0.0000000  0.0000000  3
   4219   4214   4220   4221     1  0.0000000  0.6973333  3
   4223   4224   4227   4231     1  0.0000000  0.6508444  3
   4223   4224   4236   4239     1  0.0000000  1.0460000  1
   4223   4224   4236   4239     1  0.0000000  0.6694400  3
   4223   4237   4243   4244     1  0.0000000  1.0460000  1
   4223   4237   4243   4244     1  0.0000000  0.6694400  3
   4223   4245   4229   4232     1  0.0000000  1.6038667  3
   4224   4227   4228   4230     1  0.0000000  0.6508444  3
   4224   4227   4235   4238     1  0.0000000  1.0460000  1
   4224   4227   4235   4238     1  0.0000000  0.6694400  3
   4224   4223   4237   4241     1  0.0000000  0.6508444  3
   4224   4223   4237   4242     1  0.0000000  0.6508444  3
   4225   4223   4224   4227     1  0.0000000  0.6508444  3
   4225   4223   4224   4236     1  0.0000000  1.0460000  1
   4225   4223   4224   4236     1  0.0000000  0.0000000  3
   4225   4223   4224   4226     1  0.0000000  0.6508444  3
   4225   4223   4237   4243     1  0.0000000  1.0460000  1
   4225   4223   4237   4243     1  0.0000000  0.0000000  3
   4225   4223   4237   4241     1  0.0000000  0.6508444  3
   4225   4223   4237   4242     1  0.0000000  0.6508444  3
   4225   4223   4245   4229     1  0.0000000  1.6038667  3
   4226   4224   4227   4228     1  0.0000000  0.6508444  3
   4226   4224   4227   4235     1  0.0000000  1.0460000  1
   4226   4224   4227   4235     1  0.0000000  0.0000000  3
   4226   4224   4227   4231     1  0.0000000  0.6508444  3
   4226   4224   4236   4239     1  0.0000000  0.6973333  3
   4226   4224   4223   4237     1  0.0000000  0.6508444  3
   4226   4224   4223   4245     1  0.0000000  1.0460000  1
   4226   4224   4223   4245     1  0.0000000  0.0000000  3
   4227   4228   4229   4232     1  0.0000000  0.6508444  3
   4227   4228   4234   4240     1  0.0000000  1.0460000  1
   4227   4228   4234   4240     1  0.0000000  0.6694400  3
   4227   4224   4236   4239     1  0.0000000  1.0460000  1
   4227   4224   4236   4239     1  0.0000000  0.6694400  3
   4228   4227   4235   4238     1  0.0000000  1.0460000  1
   4228   4227   4235   4238     1  0.0000000  0.6694400  3
   4229   4228   4234   4240     1  0.0000000  1.0460000  1
   4229   4228   4234   4240     1  0.0000000  0.6694400  3
   4229   4228   4227   4231     1  0.0000000  0.6508444  3
   4230   4228   4229   4233     1  0.0000000  1.0460000  1
   4230   4228   4229   4233     1  0.0000000  0.0000000  3
   4230   4228   4229   4245     1  0.0000000  1.0460000  1
   4230   4228   4229   4245     1  0.0000000  0.0000000  3
   4230   4228   4229   4232     1  0.0000000  0.6508444  3
   4230   4228   4234   4240     1  0.0000000  0.6973333  3
   4230   4228   4227   4235     1  0.0000000  1.0460000  1
   4230   4228   4227   4235     1  0.0000000  0.0000000  3
   4230   4228   4227   4231     1  0.0000000  0.6508444  3
   4231   4227   4228   4234     1  0.0000000  1.0460000  1
   4231   4227   4228   4234     1  0.0000000  0.0000000  3
   4231   4227   4235   4238     1  0.0000000  0.6973333  3
   4231   4227   4224   4236     1  0.0000000  1.0460000  1
   4231   4227   4224   4236     1  0.0000000  0.0000000  3
   4232   4229   4228   4234     1  0.0000000  0.6508444  3
   4241   4237   4243   4244     1  0.0000000  0.6973333  3
   4241   4237   4223   4245     1  0.0000000  1.0460000  1
   4241   4237   4223   4245     1  0.0000000  0.0000000  3
   4242   4237   4243   4244     1  0.0000000  0.6973333  3
   4242   4237   4223   4245     1  0.0000000  1.0460000  1
   4242   4237   4223   4245     1  0.0000000  0.0000000  3
   4246   4247   4250   4254     1  0.0000000  0.6508444  3
   4246   4247   4259   4262     1  0.0000000  1.0460000  1
   4246   4247   4259   4262     1  0.0000000  0.6694400  3
   4246   4260   4266   4267     1  0.0000000  1.0460000  1
   4246   4260   4266   4267     1  0.0000000  0.6694400  3
   4246   4268   4252   4255     1  0.0000000  1.6038667  3
   4247   4246   4260   4264     1  0.0000000  0.6508444  3
   4247   4246   4260   4265     1  0.0000000  0.6508444  3
   4247   4250   4251   4253     1  0.0000000  0.6508444  3
   4247   4250   4258   4261     1  0.0000000  1.0460000  1
   4247   4250   4258   4261     1  0.0000000  0.6694400  3
   4248   4246   4247   4250     1  0.0000000  0.6508444  3
   4248   4246   4247   4259     1  0.0000000  1.0460000  1
   4248   4246   4247   4259     1  0.0000000  0.0000000  3
   4248   4246   4247   4249     1  0.0000000  0.6508444  3
   4248   4246   4260   4266     1  0.0000000  1.0460000  1
   4248   4246   4260   4266     1  0.0000000  0.0000000  3
   4248   4246   4260   4264     1  0.0000000  0.6508444  3
   4248   4246   4260   4265     1  0.0000000  0.6508444  3
   4248   4246   4268   4252     1  0.0000000  1.6038667  3
   4249   4247   4246   4260     1  0.0000000  0.6508444  3
   4249   4247   4246   4268     1  0.0000000  1.0460000  1
   4249   4247   4246   4268     1  0.0000000  0.0000000  3
   4249   4247   4250   4251     1  0.0000000  0.6508444  3
   4249   4247   4250   4258     1  0.0000000  1.0460000  1
   4249   4247   4250   4258     1  0.0000000  0.0000000  3
   4249   4247   4250   4254     1  0.0000000  0.6508444  3
   4249   4247   4259   4262     1  0.0000000  0.6973333  3
   4250   4247   4259   4262     1  0.0000000  1.0460000  1
   4250   4247   4259   4262     1  0.0000000  0.6694400  3
   4250   4251   4252   4255     1  0.0000000  0.6508444  3
   4250   4251   4257   4263     1  0.0000000  1.0460000  1
   4250   4251   4257   4263     1  0.0000000  0.6694400  3
   4251   4250   4258   4261     1  0.0000000  1.0460000  1
   4251   4250   4258   4261     1  0.0000000  0.6694400  3
   4252   4251   4250   4254     1  0.0000000  0.6508444  3
   4252   4251   4257   4263     1  0.0000000  1.0460000  1
   4252   4251   4257   4263     1  0.0000000  0.6694400  3
   4253   4251   4250   4258     1  0.0000000  1.0460000  1
   4253   4251   4250   4258     1  0.0000000  0.0000000  3
   4253   4251   4250   4254     1  0.0000000  0.6508444  3
   4253   4251   4252   4256     1  0.0000000  1.0460000  1
   4253   4251   4252   4256     1  0.0000000  0.0000000  3
   4253   4251   4252   4268     1  0.0000000  1.0460000  1
   4253   4251   4252   4268     1  0.0000000  0.0000000  3
   4253   4251   4252   4255     1  0.0000000  0.6508444  3
   4253   4251   4257   4263     1  0.0000000  0.6973333  3
   4254   4250   4247   4259     1  0.0000000  1.0460000  1
   4254   4250   4247   4259     1  0.0000000  0.0000000  3
   4254   4250   4251   4257     1  0.0000000  1.0460000  1
   4254   4250   4251   4257     1  0.0000000  0.0000000  3
   4254   4250   4258   4261     1  0.0000000  0.6973333  3
   4255   4252   4251   4257     1  0.0000000  0.6508444  3
   4264   4260   4246   4268     1  0.0000000  1.0460000  1
   4264   4260   4246   4268     1  0.0000000  0.0000000  3
   4264   4260   4266   4267     1  0.0000000  0.6973333  3
   4265   4260   4246   4268     1  0.0000000  1.0460000  1
   4265   4260   4246   4268     1  0.0000000  0.0000000  3
   4265   4260   4266   4267     1  0.0000000  0.6973333  3
   4269   4270   4273   4277     1  0.0000000  0.6508444  3
   4269   4270   4282   4285     1  0.0000000  1.0460000  1
   4269   4270   4282   4285     1  0.0000000  0.6694400  3
   4269   4283   4289   4290     1  0.0000000  1.0460000  1
   4269   4283   4289   4290     1  0.0000000  0.6694400  3
   4269   4291   4275   4278     1  0.0000000  1.6038667  3
   4270   4273   4274   4276     1  0.0000000  0.6508444  3
   4270   4273   4281   4284     1  0.0000000  1.0460000  1
   4270   4273   4281   4284     1  0.0000000  0.6694400  3
   4270   4269   4283   4287     1  0.0000000  0.6508444  3
   4270   4269   4283   4288     1  0.0000000  0.6508444  3
   4271   4269   4270   4273     1  0.0000000  0.6508444  3
   4271   4269   4270   4282     1  0.0000000  1.0460000  1
   4271   4269   4270   4282     1  0.0000000  0.0000000  3
   4271   4269   4270   4272     1  0.0000000  0.6508444  3
   4271   4269   4283   4289     1  0.0000000  1.0460000  1
   4271   4269   4283   4289     1  0.0000000  0.0000000  3
   4271   4269   4283   4287     1  0.0000000  0.6508444  3
   4271   4269   4283   4288     1  0.0000000  0.6508444  3
   4271   4269   4291   4275     1  0.0000000  1.6038667  3
   4272   4270   4273   4274     1  0.0000000  0.6508444  3
   4272   4270   4273   4281     1  0.0000000  1.0460000  1
   4272   4270   4273   4281     1  0.0000000  0.0000000  3
   4272   4270   4273   4277     1  0.0000000  0.6508444  3
   4272   4270   4282   4285     1  0.0000000  0.6973333  3
   4272   4270   4269   4283     1  0.0000000  0.6508444  3
   4272   4270   4269   4291     1  0.0000000  1.0460000  1
   4272   4270   4269   4291     1  0.0000000  0.0000000  3
   4273   4274   4275   4278     1  0.0000000  0.6508444  3
   4273   4274   4280   4286     1  0.0000000  1.0460000  1
   4273   4274   4280   4286     1  0.0000000  0.6694400  3
   4273   4270   4282   4285     1  0.0000000  1.0460000  1
   4273   4270   4282   4285     1  0.0000000  0.6694400  3
   4274   4273   4281   4284     1  0.0000000  1.0460000  1
   4274   4273   4281   4284     1  0.0000000  0.6694400  3
   4275   4274   4280   4286     1  0.0000000  1.0460000  1
   4275   4274   4280   4286     1  0.0000000  0.6694400  3
   4275   4274   4273   4277     1  0.0000000  0.6508444  3
   4276   4274   4275   4279     1  0.0000000  1.0460000  1
   4276   4274   4275   4279     1  0.0000000  0.0000000  3
   4276   4274   4275   4291     1  0.0000000  1.0460000  1
   4276   4274   4275   4291     1  0.0000000  0.0000000  3
   4276   4274   4275   4278     1  0.0000000  0.6508444  3
   4276   4274   4280   4286     1  0.0000000  0.6973333  3
   4276   4274   4273   4281     1  0.0000000  1.0460000  1
   4276   4274   4273   4281     1  0.0000000  0.0000000  3
   4276   4274   4273   4277     1  0.0000000  0.6508444  3
   4277   4273   4274   4280     1  0.0000000  1.0460000  1
   4277   4273   4274   4280     1  0.0000000  0.0000000  3
   4277   4273   4281   4284     1  0.0000000  0.6973333  3
   4277   4273   4270   4282     1  0.0000000  1.0460000  1
   4277   4273   4270   4282     1  0.0000000  0.0000000  3
   4278   4275   4274   4280     1  0.0000000  0.6508444  3
   4287   4283   4289   4290     1  0.0000000  0.6973333  3
   4287   4283   4269   4291     1  0.0000000  1.0460000  1
   4287   4283   4269   4291     1  0.0000000  0.0000000  3
   4288   4283   4289   4290     1  0.0000000  0.6973333  3
   4288   4283   4269   4291     1  0.0000000  1.0460000  1
   4288   4283   4269   4291     1  0.0000000  0.0000000  3
   4292   4293   4296   4300     1  0.0000000  0.6508444  3
   4292   4293   4305   4308     1  0.0000000  1.0460000  1
   4292   4293   4305   4308     1  0.0000000  0.6694400  3
   4292   4306   4312   4313     1  0.0000000  1.0460000  1
   4292   4306   4312   4313     1  0.0000000  0.6694400  3
   4292   4314   4298   4301     1  0.0000000  1.6038667  3
   4293   4292   4306   4310     1  0.0000000  0.6508444  3
   4293   4292   4306   4311     1  0.0000000  0.6508444  3
   4293   4296   4297   4299     1  0.0000000  0.6508444  3
   4293   4296   4304   4307     1  0.0000000  1.0460000  1
   4293   4296   4304   4307     1  0.0000000  0.6694400  3
   4294   4292   4293   4296     1  0.0000000  0.6508444  3
   4294   4292   4293   4305     1  0.0000000  1.0460000  1
   4294   4292   4293   4305     1  0.0000000  0.0000000  3
   4294   4292   4293   4295     1  0.0000000  0.6508444  3
   4294   4292   4306   4312     1  0.0000000  1.0460000  1
   4294   4292   4306   4312     1  0.0000000  0.0000000  3
   4294   4292   4306   4310     1  0.0000000  0.6508444  3
   4294   4292   4306   4311     1  0.0000000  0.6508444  3
   4294   4292   4314   4298     1  0.0000000  1.6038667  3
   4295   4293   4292   4306     1  0.0000000  0.6508444  3
   4295   4293   4292   4314     1  0.0000000  1.0460000  1
   4295   4293   4292   4314     1  0.0000000  0.0000000  3
   4295   4293   4296   4297     1  0.0000000  0.6508444  3
   4295   4293   4296   4304     1  0.0000000  1.0460000  1
   4295   4293   4296   4304     1  0.0000000  0.0000000  3
   4295   4293   4296   4300     1  0.0000000  0.6508444  3
   4295   4293   4305   4308     1  0.0000000  0.6973333  3
   4296   4293   4305   4308     1  0.0000000  1.0460000  1
   4296   4293   4305   4308     1  0.0000000  0.6694400  3
   4296   4297   4298   4301     1  0.0000000  0.6508444  3
   4296   4297   4303   4309     1  0.0000000  1.0460000  1
   4296   4297   4303   4309     1  0.0000000  0.6694400  3
   4297   4296   4304   4307     1  0.0000000  1.0460000  1
   4297   4296   4304   4307     1  0.0000000  0.6694400  3
   4298   4297   4296   4300     1  0.0000000  0.6508444  3
   4298   4297   4303   4309     1  0.0000000  1.0460000  1
   4298   4297   4303   4309     1  0.0000000  0.6694400  3
   4299   4297   4296   4304     1  0.0000000  1.0460000  1
   4299   4297   4296   4304     1  0.0000000  0.0000000  3
   4299   4297   4296   4300     1  0.0000000  0.6508444  3
   4299   4297   4298   4302     1  0.0000000  1.0460000  1
   4299   4297   4298   4302     1  0.0000000  0.0000000  3
   4299   4297   4298   4314     1  0.0000000  1.0460000  1
   4299   4297   4298   4314     1  0.0000000  0.0000000  3
   4299   4297   4298   4301     1  0.0000000  0.6508444  3
   4299   4297   4303   4309     1  0.0000000  0.6973333  3
   4300   4296   4293   4305     1  0.0000000  1.0460000  1
   4300   4296   4293   4305     1  0.0000000  0.0000000  3
   4300   4296   4297   4303     1  0.0000000  1.0460000  1
   4300   4296   4297   4303     1  0.0000000  0.0000000  3
   4300   4296   4304   4307     1  0.0000000  0.6973333  3
   4301   4298   4297   4303     1  0.0000000  0.6508444  3
   4310   4306   4292   4314     1  0.0000000  1.0460000  1
   4310   4306   4292   4314     1  0.0000000  0.0000000  3
   4310   4306   4312   4313     1  0.0000000  0.6973333  3
   4311   4306   4292   4314     1  0.0000000  1.0460000  1
   4311   4306   4292   4314     1  0.0000000  0.0000000  3
   4311   4306   4312   4313     1  0.0000000  0.6973333  3
   4315   4316   4319   4323     1  0.0000000  0.6508444  3
   4315   4316   4328   4331     1  0.0000000  1.0460000  1
   4315   4316   4328   4331     1  0.0000000  0.6694400  3
   4315   4329   4335   4336     1  0.0000000  1.0460000  1
   4315   4329   4335   4336     1  0.0000000  0.6694400  3
   4315   4337   4321   4324     1  0.0000000  1.6038667  3
   4316   4319   4320   4322     1  0.0000000  0.6508444  3
   4316   4319   4327   4330     1  0.0000000  1.0460000  1
   4316   4319   4327   4330     1  0.0000000  0.6694400  3
   4316   4315   4329   4333     1  0.0000000  0.6508444  3
   4316   4315   4329   4334     1  0.0000000  0.6508444  3
   4317   4315   4316   4319     1  0.0000000  0.6508444  3
   4317   4315   4316   4328     1  0.0000000  1.0460000  1
   4317   4315   4316   4328     1  0.0000000  0.0000000  3
   4317   4315   4316   4318     1  0.0000000  0.6508444  3
   4317   4315   4329   4335     1  0.0000000  1.0460000  1
   4317   4315   4329   4335     1  0.0000000  0.0000000  3
   4317   4315   4329   4333     1  0.0000000  0.6508444  3
   4317   4315   4329   4334     1  0.0000000  0.6508444  3
   4317   4315   4337   4321     1  0.0000000  1.6038667  3
   4318   4316   4319   4320     1  0.0000000  0.6508444  3
   4318   4316   4319   4327     1  0.0000000  1.0460000  1
   4318   4316   4319   4327     1  0.0000000  0.0000000  3
   4318   4316   4319   4323     1  0.0000000  0.6508444  3
   4318   4316   4328   4331     1  0.0000000  0.6973333  3
   4318   4316   4315   4329     1  0.0000000  0.6508444  3
   4318   4316   4315   4337     1  0.0000000  1.0460000  1
   4318   4316   4315   4337     1  0.0000000  0.0000000  3
   4319   4320   4321   4324     1  0.0000000  0.6508444  3
   4319   4320   4326   4332     1  0.0000000  1.0460000  1
   4319   4320   4326   4332     1  0.0000000  0.6694400  3
   4319   4316   4328   4331     1  0.0000000  1.0460000  1
   4319   4316   4328   4331     1  0.0000000  0.6694400  3
   4320   4319   4327   4330     1  0.0000000  1.0460000  1
   4320   4319   4327   4330     1  0.0000000  0.6694400  3
   4321   4320   4326   4332     1  0.0000000  1.0460000  1
   4321   4320   4326   4332     1  0.0000000  0.6694400  3
   4321   4320   4319   4323     1  0.0000000  0.6508444  3
   4322   4320   4321   4325     1  0.0000000  1.0460000  1
   4322   4320   4321   4325     1  0.0000000  0.0000000  3
   4322   4320   4321   4337     1  0.0000000  1.0460000  1
   4322   4320   4321   4337     1  0.0000000  0.0000000  3
   4322   4320   4321   4324     1  0.0000000  0.6508444  3
   4322   4320   4326   4332     1  0.0000000  0.6973333  3
   4322   4320   4319   4327     1  0.0000000  1.0460000  1
   4322   4320   4319   4327     1  0.0000000  0.0000000  3
   4322   4320   4319   4323     1  0.0000000  0.6508444  3
   4323   4319   4320   4326     1  0.0000000  1.0460000  1
   4323   4319   4320   4326     1  0.0000000  0.0000000  3
   4323   4319   4327   4330     1  0.0000000  0.6973333  3
   4323   4319   4316   4328     1  0.0000000  1.0460000  1
   4323   4319   4316   4328     1  0.0000000  0.0000000  3
   4324   4321   4320   4326     1  0.0000000  0.6508444  3
   4333   4329   4335   4336     1  0.0000000  0.6973333  3
   4333   4329   4315   4337     1  0.0000000  1.0460000  1
   4333   4329   4315   4337     1  0.0000000  0.0000000  3
   4334   4329   4335   4336     1  0.0000000  0.6973333  3
   4334   4329   4315   4337     1  0.0000000  1.0460000  1
   4334   4329   4315   4337     1  0.0000000  0.0000000  3
   4338   4339   4342   4346     1  0.0000000  0.6508444  3
   4338   4339   4351   4354     1  0.0000000  1.0460000  1
   4338   4339   4351   4354     1  0.0000000  0.6694400  3
   4338   4352   4358   4359     1  0.0000000  1.0460000  1
   4338   4352   4358   4359     1  0.0000000  0.6694400  3
   4338   4360   4344   4347     1  0.0000000  1.6038667  3
   4339   4338   4352   4356     1  0.0000000  0.6508444  3
   4339   4338   4352   4357     1  0.0000000  0.6508444  3
   4339   4342   4343   4345     1  0.0000000  0.6508444  3
   4339   4342   4350   4353     1  0.0000000  1.0460000  1
   4339   4342   4350   4353     1  0.0000000  0.6694400  3
   4340   4338   4339   4342     1  0.0000000  0.6508444  3
   4340   4338   4339   4351     1  0.0000000  1.0460000  1
   4340   4338   4339   4351     1  0.0000000  0.0000000  3
   4340   4338   4339   4341     1  0.0000000  0.6508444  3
   4340   4338   4352   4358     1  0.0000000  1.0460000  1
   4340   4338   4352   4358     1  0.0000000  0.0000000  3
   4340   4338   4352   4356     1  0.0000000  0.6508444  3
   4340   4338   4352   4357     1  0.0000000  0.6508444  3
   4340   4338   4360   4344     1  0.0000000  1.6038667  3
   4341   4339   4338   4352     1  0.0000000  0.6508444  3
   4341   4339   4338   4360     1  0.0000000  1.0460000  1
   4341   4339   4338   4360     1  0.0000000  0.0000000  3
   4341   4339   4342   4343     1  0.0000000  0.6508444  3
   4341   4339   4342   4350     1  0.0000000  1.0460000  1
   4341   4339   4342   4350     1  0.0000000  0.0000000  3
   4341   4339   4342   4346     1  0.0000000  0.6508444  3
   4341   4339   4351   4354     1  0.0000000  0.6973333  3
   4342   4339   4351   4354     1  0.0000000  1.0460000  1
   4342   4339   4351   4354     1  0.0000000  0.6694400  3
   4342   4343   4344   4347     1  0.0000000  0.6508444  3
   4342   4343   4349   4355     1  0.0000000  1.0460000  1
   4342   4343   4349   4355     1  0.0000000  0.6694400  3
   4343   4342   4350   4353     1  0.0000000  1.0460000  1
   4343   4342   4350   4353     1  0.0000000  0.6694400  3
   4344   4343   4342   4346     1  0.0000000  0.6508444  3
   4344   4343   4349   4355     1  0.0000000  1.0460000  1
   4344   4343   4349   4355     1  0.0000000  0.6694400  3
   4345   4343   4342   4350     1  0.0000000  1.0460000  1
   4345   4343   4342   4350     1  0.0000000  0.0000000  3
   4345   4343   4342   4346     1  0.0000000  0.6508444  3
   4345   4343   4344   4348     1  0.0000000  1.0460000  1
   4345   4343   4344   4348     1  0.0000000  0.0000000  3
   4345   4343   4344   4360     1  0.0000000  1.0460000  1
   4345   4343   4344   4360     1  0.0000000  0.0000000  3
   4345   4343   4344   4347     1  0.0000000  0.6508444  3
   4345   4343   4349   4355     1  0.0000000  0.6973333  3
   4346   4342   4339   4351     1  0.0000000  1.0460000  1
   4346   4342   4339   4351     1  0.0000000  0.0000000  3
   4346   4342   4343   4349     1  0.0000000  1.0460000  1
   4346   4342   4343   4349     1  0.0000000  0.0000000  3
   4346   4342   4350   4353     1  0.0000000  0.6973333  3
   4347   4344   4343   4349     1  0.0000000  0.6508444  3
   4356   4352   4338   4360     1  0.0000000  1.0460000  1
   4356   4352   4338   4360     1  0.0000000  0.0000000  3
   4356   4352   4358   4359     1  0.0000000  0.6973333  3
   4357   4352   4338   4360     1  0.0000000  1.0460000  1
   4357   4352   4338   4360     1  0.0000000  0.0000000  3
   4357   4352   4358   4359     1  0.0000000  0.6973333  3
   4361   4362   4365   4369     1  0.0000000  0.6508444  3
   4361   4362   4374   4377     1  0.0000000  1.0460000  1
   4361   4362   4374   4377     1  0.0000000  0.6694400  3
   4361   4375   4381   4382     1  0.0000000  1.0460000  1
   4361   4375   4381   4382     1  0.0000000  0.6694400  3
   4361   4383   4367   4370     1  0.0000000  1.6038667  3
   4362   4365   4366   4368     1  0.0000000  0.6508444  3
   4362   4365   4373   4376     1  0.0000000  1.0460000  1
   4362   4365   4373   4376     1  0.0000000  0.6694400  3
   4362   4361   4375   4379     1  0.0000000  0.6508444  3
   4362   4361   4375   4380     1  0.0000000  0.6508444  3
   4363   4361   4362   4365     1  0.0000000  0.6508444  3
   4363   4361   4362   4374     1  0.0000000  1.0460000  1
   4363   4361   4362   4374     1  0.0000000  0.0000000  3
   4363   4361   4362   4364     1  0.0000000  0.6508444  3
   4363   4361   4375   4381     1  0.0000000  1.0460000  1
   4363   4361   4375   4381     1  0.0000000  0.0000000  3
   4363   4361   4375   4379     1  0.0000000  0.6508444  3
   4363   4361   4375   4380     1  0.0000000  0.6508444  3
   4363   4361   4383   4367     1  0.0000000  1.6038667  3
   4364   4362   4365   4366     1  0.0000000  0.6508444  3
   4364   4362   4365   4373     1  0.0000000  1.0460000  1
   4364   4362   4365   4373     1  0.0000000  0.0000000  3
   4364   4362   4365   4369     1  0.0000000  0.6508444  3
   4364   4362   4374   4377     1  0.0000000  0.6973333  3
   4364   4362   4361   4375     1  0.0000000  0.6508444  3
   4364   4362   4361   4383     1  0.0000000  1.0460000  1
   4364   4362   4361   4383     1  0.0000000  0.0000000  3
   4365   4366   4367   4370     1  0.0000000  0.6508444  3
   4365   4366   4372   4378     1  0.0000000  1.0460000  1
   4365   4366   4372   4378     1  0.0000000  0.6694400  3
   4365   4362   4374   4377     1  0.0000000  1.0460000  1
   4365   4362   4374   4377     1  0.0000000  0.6694400  3
   4366   4365   4373   4376     1  0.0000000  1.0460000  1
   4366   4365   4373   4376     1  0.0000000  0.6694400  3
   4367   4366   4372   4378     1  0.0000000  1.0460000  1
   4367   4366   4372   4378     1  0.0000000  0.6694400  3
   4367   4366   4365   4369     1  0.0000000  0.6508444  3
   4368   4366   4367   4371     1  0.0000000  1.0460000  1
   4368   4366   4367   4371     1  0.0000000  0.0000000  3
   4368   4366   4367   4383     1  0.0000000  1.0460000  1
   4368   4366   4367   4383     1  0.0000000  0.0000000  3
   4368   4366   4367   4370     1  0.0000000  0.6508444  3
   4368   4366   4372   4378     1  0.0000000  0.6973333  3
   4368   4366   4365   4373     1  0.0000000  1.0460000  1
   4368   4366   4365   4373     1  0.0000000  0.0000000  3
   4368   4366   4365   4369     1  0.0000000  0.6508444  3
   4369   4365   4366   4372     1  0.0000000  1.0460000  1
   4369   4365   4366   4372     1  0.0000000  0.0000000  3
   4369   4365   4373   4376     1  0.0000000  0.6973333  3
   4369   4365   4362   4374     1  0.0000000  1.0460000  1
   4369   4365   4362   4374     1  0.0000000  0.0000000  3
   4370   4367   4366   4372     1  0.0000000  0.6508444  3
   4379   4375   4381   4382     1  0.0000000  0.6973333  3
   4379   4375   4361   4383     1  0.0000000  1.0460000  1
   4379   4375   4361   4383     1  0.0000000  0.0000000  3
   4380   4375   4381   4382     1  0.0000000  0.6973333  3
   4380   4375   4361   4383     1  0.0000000  1.0460000  1
   4380   4375   4361   4383     1  0.0000000  0.0000000  3
   4384   4385   4388   4392     1  0.0000000  0.6508444  3
   4384   4385   4397   4400     1  0.0000000  1.0460000  1
   4384   4385   4397   4400     1  0.0000000  0.6694400  3
   4384   4398   4404   4405     1  0.0000000  1.0460000  1
   4384   4398   4404   4405     1  0.0000000  0.6694400  3
   4384   4406   4390   4393     1  0.0000000  1.6038667  3
   4385   4384   4398   4402     1  0.0000000  0.6508444  3
   4385   4384   4398   4403     1  0.0000000  0.6508444  3
   4385   4388   4389   4391     1  0.0000000  0.6508444  3
   4385   4388   4396   4399     1  0.0000000  1.0460000  1
   4385   4388   4396   4399     1  0.0000000  0.6694400  3
   4386   4384   4385   4388     1  0.0000000  0.6508444  3
   4386   4384   4385   4397     1  0.0000000  1.0460000  1
   4386   4384   4385   4397     1  0.0000000  0.0000000  3
   4386   4384   4385   4387     1  0.0000000  0.6508444  3
   4386   4384   4398   4404     1  0.0000000  1.0460000  1
   4386   4384   4398   4404     1  0.0000000  0.0000000  3
   4386   4384   4398   4402     1  0.0000000  0.6508444  3
   4386   4384   4398   4403     1  0.0000000  0.6508444  3
   4386   4384   4406   4390     1  0.0000000  1.6038667  3
   4387   4385   4384   4398     1  0.0000000  0.6508444  3
   4387   4385   4384   4406     1  0.0000000  1.0460000  1
   4387   4385   4384   4406     1  0.0000000  0.0000000  3
   4387   4385   4388   4389     1  0.0000000  0.6508444  3
   4387   4385   4388   4396     1  0.0000000  1.0460000  1
   4387   4385   4388   4396     1  0.0000000  0.0000000  3
   4387   4385   4388   4392     1  0.0000000  0.6508444  3
   4387   4385   4397   4400     1  0.0000000  0.6973333  3
   4388   4385   4397   4400     1  0.0000000  1.0460000  1
   4388   4385   4397   4400     1  0.0000000  0.6694400  3
   4388   4389   4390   4393     1  0.0000000  0.6508444  3
   4388   4389   4395   4401     1  0.0000000  1.0460000  1
   4388   4389   4395   4401     1  0.0000000  0.6694400  3
   4389   4388   4396   4399     1  0.0000000  1.0460000  1
   4389   4388   4396   4399     1  0.0000000  0.6694400  3
   4390   4389   4388   4392     1  0.0000000  0.6508444  3
   4390   4389   4395   4401     1  0.0000000  1.0460000  1
   4390   4389   4395   4401     1  0.0000000  0.6694400  3
   4391   4389   4388   4396     1  0.0000000  1.0460000  1
   4391   4389   4388   4396     1  0.0000000  0.0000000  3
   4391   4389   4388   4392     1  0.0000000  0.6508444  3
   4391   4389   4390   4394     1  0.0000000  1.0460000  1
   4391   4389   4390   4394     1  0.0000000  0.0000000  3
   4391   4389   4390   4406     1  0.0000000  1.0460000  1
   4391   4389   4390   4406     1  0.0000000  0.0000000  3
   4391   4389   4390   4393     1  0.0000000  0.6508444  3
   4391   4389   4395   4401     1  0.0000000  0.6973333  3
   4392   4388   4385   4397     1  0.0000000  1.0460000  1
   4392   4388   4385   4397     1  0.0000000  0.0000000  3
   4392   4388   4389   4395     1  0.0000000  1.0460000  1
   4392   4388   4389   4395     1  0.0000000  0.0000000  3
   4392   4388   4396   4399     1  0.0000000  0.6973333  3
   4393   4390   4389   4395     1  0.0000000  0.6508444  3
   4402   4398   4384   4406     1  0.0000000  1.0460000  1
   4402   4398   4384   4406     1  0.0000000  0.0000000  3
   4402   4398   4404   4405     1  0.0000000  0.6973333  3
   4403   4398   4384   4406     1  0.0000000  1.0460000  1
   4403   4398   4384   4406     1  0.0000000  0.0000000  3
   4403   4398   4404   4405     1  0.0000000  0.6973333  3
   4407   4408   4411   4415     1  0.0000000  0.6508444  3
   4407   4408   4420   4423     1  0.0000000  1.0460000  1
   4407   4408   4420   4423     1  0.0000000  0.6694400  3
   4407   4421   4427   4428     1  0.0000000  1.0460000  1
   4407   4421   4427   4428     1  0.0000000  0.6694400  3
   4407   4429   4413   4416     1  0.0000000  1.6038667  3
   4408   4411   4412   4414     1  0.0000000  0.6508444  3
   4408   4411   4419   4422     1  0.0000000  1.0460000  1
   4408   4411   4419   4422     1  0.0000000  0.6694400  3
   4408   4407   4421   4425     1  0.0000000  0.6508444  3
   4408   4407   4421   4426     1  0.0000000  0.6508444  3
   4409   4407   4408   4411     1  0.0000000  0.6508444  3
   4409   4407   4408   4420     1  0.0000000  1.0460000  1
   4409   4407   4408   4420     1  0.0000000  0.0000000  3
   4409   4407   4408   4410     1  0.0000000  0.6508444  3
   4409   4407   4421   4427     1  0.0000000  1.0460000  1
   4409   4407   4421   4427     1  0.0000000  0.0000000  3
   4409   4407   4421   4425     1  0.0000000  0.6508444  3
   4409   4407   4421   4426     1  0.0000000  0.6508444  3
   4409   4407   4429   4413     1  0.0000000  1.6038667  3
   4410   4408   4411   4412     1  0.0000000  0.6508444  3
   4410   4408   4411   4419     1  0.0000000  1.0460000  1
   4410   4408   4411   4419     1  0.0000000  0.0000000  3
   4410   4408   4411   4415     1  0.0000000  0.6508444  3
   4410   4408   4420   4423     1  0.0000000  0.6973333  3
   4410   4408   4407   4421     1  0.0000000  0.6508444  3
   4410   4408   4407   4429     1  0.0000000  1.0460000  1
   4410   4408   4407   4429     1  0.0000000  0.0000000  3
   4411   4412   4413   4416     1  0.0000000  0.6508444  3
   4411   4412   4418   4424     1  0.0000000  1.0460000  1
   4411   4412   4418   4424     1  0.0000000  0.6694400  3
   4411   4408   4420   4423     1  0.0000000  1.0460000  1
   4411   4408   4420   4423     1  0.0000000  0.6694400  3
   4412   4411   4419   4422     1  0.0000000  1.0460000  1
   4412   4411   4419   4422     1  0.0000000  0.6694400  3
   4413   4412   4418   4424     1  0.0000000  1.0460000  1
   4413   4412   4418   4424     1  0.0000000  0.6694400  3
   4413   4412   4411   4415     1  0.0000000  0.6508444  3
   4414   4412   4413   4417     1  0.0000000  1.0460000  1
   4414   4412   4413   4417     1  0.0000000  0.0000000  3
   4414   4412   4413   4429     1  0.0000000  1.0460000  1
   4414   4412   4413   4429     1  0.0000000  0.0000000  3
   4414   4412   4413   4416     1  0.0000000  0.6508444  3
   4414   4412   4418   4424     1  0.0000000  0.6973333  3
   4414   4412   4411   4419     1  0.0000000  1.0460000  1
   4414   4412   4411   4419     1  0.0000000  0.0000000  3
   4414   4412   4411   4415     1  0.0000000  0.6508444  3
   4415   4411   4412   4418     1  0.0000000  1.0460000  1
   4415   4411   4412   4418     1  0.0000000  0.0000000  3
   4415   4411   4419   4422     1  0.0000000  0.6973333  3
   4415   4411   4408   4420     1  0.0000000  1.0460000  1
   4415   4411   4408   4420     1  0.0000000  0.0000000  3
   4416   4413   4412   4418     1  0.0000000  0.6508444  3
   4425   4421   4427   4428     1  0.0000000  0.6973333  3
   4425   4421   4407   4429     1  0.0000000  1.0460000  1
   4425   4421   4407   4429     1  0.0000000  0.0000000  3
   4426   4421   4427   4428     1  0.0000000  0.6973333  3
   4426   4421   4407   4429     1  0.0000000  1.0460000  1
   4426   4421   4407   4429     1  0.0000000  0.0000000  3
   4430   4431   4434   4438     1  0.0000000  0.6508444  3
   4430   4431   4443   4446     1  0.0000000  1.0460000  1
   4430   4431   4443   4446     1  0.0000000  0.6694400  3
   4430   4444   4450   4451     1  0.0000000  1.0460000  1
   4430   4444   4450   4451     1  0.0000000  0.6694400  3
   4430   4452   4436   4439     1  0.0000000  1.6038667  3
   4431   4430   4444   4448     1  0.0000000  0.6508444  3
   4431   4430   4444   4449     1  0.0000000  0.6508444  3
   4431   4434   4435   4437     1  0.0000000  0.6508444  3
   4431   4434   4442   4445     1  0.0000000  1.0460000  1
   4431   4434   4442   4445     1  0.0000000  0.6694400  3
   4432   4430   4431   4434     1  0.0000000  0.6508444  3
   4432   4430   4431   4443     1  0.0000000  1.0460000  1
   4432   4430   4431   4443     1  0.0000000  0.0000000  3
   4432   4430   4431   4433     1  0.0000000  0.6508444  3
   4432   4430   4444   4450     1  0.0000000  1.0460000  1
   4432   4430   4444   4450     1  0.0000000  0.0000000  3
   4432   4430   4444   4448     1  0.0000000  0.6508444  3
   4432   4430   4444   4449     1  0.0000000  0.6508444  3
   4432   4430   4452   4436     1  0.0000000  1.6038667  3
   4433   4431   4430   4444     1  0.0000000  0.6508444  3
   4433   4431   4430   4452     1  0.0000000  1.0460000  1
   4433   4431   4430   4452     1  0.0000000  0.0000000  3
   4433   4431   4434   4435     1  0.0000000  0.6508444  3
   4433   4431   4434   4442     1  0.0000000  1.0460000  1
   4433   4431   4434   4442     1  0.0000000  0.0000000  3
   4433   4431   4434   4438     1  0.0000000  0.6508444  3
   4433   4431   4443   4446     1  0.0000000  0.6973333  3
   4434   4431   4443   4446     1  0.0000000  1.0460000  1
   4434   4431   4443   4446     1  0.0000000  0.6694400  3
   4434   4435   4436   4439     1  0.0000000  0.6508444  3
   4434   4435   4441   4447     1  0.0000000  1.0460000  1
   4434   4435   4441   4447     1  0.0000000  0.6694400  3
   4435   4434   4442   4445     1  0.0000000  1.0460000  1
   4435   4434   4442   4445     1  0.0000000  0.6694400  3
   4436   4435   4434   4438     1  0.0000000  0.6508444  3
   4436   4435   4441   4447     1  0.0000000  1.0460000  1
   4436   4435   4441   4447     1  0.0000000  0.6694400  3
   4437   4435   4434   4442     1  0.0000000  1.0460000  1
   4437   4435   4434   4442     1  0.0000000  0.0000000  3
   4437   4435   4434   4438     1  0.0000000  0.6508444  3
   4437   4435   4436   4440     1  0.0000000  1.0460000  1
   4437   4435   4436   4440     1  0.0000000  0.0000000  3
   4437   4435   4436   4452     1  0.0000000  1.0460000  1
   4437   4435   4436   4452     1  0.0000000  0.0000000  3
   4437   4435   4436   4439     1  0.0000000  0.6508444  3
   4437   4435   4441   4447     1  0.0000000  0.6973333  3
   4438   4434   4431   4443     1  0.0000000  1.0460000  1
   4438   4434   4431   4443     1  0.0000000  0.0000000  3
   4438   4434   4435   4441     1  0.0000000  1.0460000  1
   4438   4434   4435   4441     1  0.0000000  0.0000000  3
   4438   4434   4442   4445     1  0.0000000  0.6973333  3
   4439   4436   4435   4441     1  0.0000000  0.6508444  3
   4448   4444   4430   4452     1  0.0000000  1.0460000  1
   4448   4444   4430   4452     1  0.0000000  0.0000000  3
   4448   4444   4450   4451     1  0.0000000  0.6973333  3
   4449   4444   4430   4452     1  0.0000000  1.0460000  1
   4449   4444   4430   4452     1  0.0000000  0.0000000  3
   4449   4444   4450   4451     1  0.0000000  0.6973333  3
   4453   4454   4457   4461     1  0.0000000  0.6508444  3
   4453   4454   4466   4469     1  0.0000000  1.0460000  1
   4453   4454   4466   4469     1  0.0000000  0.6694400  3
   4453   4467   4473   4474     1  0.0000000  1.0460000  1
   4453   4467   4473   4474     1  0.0000000  0.6694400  3
   4453   4475   4459   4462     1  0.0000000  1.6038667  3
   4454   4457   4458   4460     1  0.0000000  0.6508444  3
   4454   4457   4465   4468     1  0.0000000  1.0460000  1
   4454   4457   4465   4468     1  0.0000000  0.6694400  3
   4454   4453   4467   4471     1  0.0000000  0.6508444  3
   4454   4453   4467   4472     1  0.0000000  0.6508444  3
   4455   4453   4454   4457     1  0.0000000  0.6508444  3
   4455   4453   4454   4466     1  0.0000000  1.0460000  1
   4455   4453   4454   4466     1  0.0000000  0.0000000  3
   4455   4453   4454   4456     1  0.0000000  0.6508444  3
   4455   4453   4467   4473     1  0.0000000  1.0460000  1
   4455   4453   4467   4473     1  0.0000000  0.0000000  3
   4455   4453   4467   4471     1  0.0000000  0.6508444  3
   4455   4453   4467   4472     1  0.0000000  0.6508444  3
   4455   4453   4475   4459     1  0.0000000  1.6038667  3
   4456   4454   4457   4458     1  0.0000000  0.6508444  3
   4456   4454   4457   4465     1  0.0000000  1.0460000  1
   4456   4454   4457   4465     1  0.0000000  0.0000000  3
   4456   4454   4457   4461     1  0.0000000  0.6508444  3
   4456   4454   4466   4469     1  0.0000000  0.6973333  3
   4456   4454   4453   4467     1  0.0000000  0.6508444  3
   4456   4454   4453   4475     1  0.0000000  1.0460000  1
   4456   4454   4453   4475     1  0.0000000  0.0000000  3
   4457   4458   4459   4462     1  0.0000000  0.6508444  3
   4457   4458   4464   4470     1  0.0000000  1.0460000  1
   4457   4458   4464   4470     1  0.0000000  0.6694400  3
   4457   4454   4466   4469     1  0.0000000  1.0460000  1
   4457   4454   4466   4469     1  0.0000000  0.6694400  3
   4458   4457   4465   4468     1  0.0000000  1.0460000  1
   4458   4457   4465   4468     1  0.0000000  0.6694400  3
   4459   4458   4464   4470     1  0.0000000  1.0460000  1
   4459   4458   4464   4470     1  0.0000000  0.6694400  3
   4459   4458   4457   4461     1  0.0000000  0.6508444  3
   4460   4458   4459   4463     1  0.0000000  1.0460000  1
   4460   4458   4459   4463     1  0.0000000  0.0000000  3
   4460   4458   4459   4475     1  0.0000000  1.0460000  1
   4460   4458   4459   4475     1  0.0000000  0.0000000  3
   4460   4458   4459   4462     1  0.0000000  0.6508444  3
   4460   4458   4464   4470     1  0.0000000  0.6973333  3
   4460   4458   4457   4465     1  0.0000000  1.0460000  1
   4460   4458   4457   4465     1  0.0000000  0.0000000  3
   4460   4458   4457   4461     1  0.0000000  0.6508444  3
   4461   4457   4458   4464     1  0.0000000  1.0460000  1
   4461   4457   4458   4464     1  0.0000000  0.0000000  3
   4461   4457   4465   4468     1  0.0000000  0.6973333  3
   4461   4457   4454   4466     1  0.0000000  1.0460000  1
   4461   4457   4454   4466     1  0.0000000  0.0000000  3
   4462   4459   4458   4464     1  0.0000000  0.6508444  3
   4471   4467   4473   4474     1  0.0000000  0.6973333  3
   4471   4467   4453   4475     1  0.0000000  1.0460000  1
   4471   4467   4453   4475     1  0.0000000  0.0000000  3
   4472   4467   4473   4474     1  0.0000000  0.6973333  3
   4472   4467   4453   4475     1  0.0000000  1.0460000  1
   4472   4467   4453   4475     1  0.0000000  0.0000000  3
   4476   4477   4480   4484     1  0.0000000  0.6508444  3
   4476   4477   4489   4492     1  0.0000000  1.0460000  1
   4476   4477   4489   4492     1  0.0000000  0.6694400  3
   4476   4490   4496   4497     1  0.0000000  1.0460000  1
   4476   4490   4496   4497     1  0.0000000  0.6694400  3
   4476   4498   4482   4485     1  0.0000000  1.6038667  3
   4477   4476   4490   4494     1  0.0000000  0.6508444  3
   4477   4476   4490   4495     1  0.0000000  0.6508444  3
   4477   4480   4481   4483     1  0.0000000  0.6508444  3
   4477   4480   4488   4491     1  0.0000000  1.0460000  1
   4477   4480   4488   4491     1  0.0000000  0.6694400  3
   4478   4476   4477   4480     1  0.0000000  0.6508444  3
   4478   4476   4477   4489     1  0.0000000  1.0460000  1
   4478   4476   4477   4489     1  0.0000000  0.0000000  3
   4478   4476   4477   4479     1  0.0000000  0.6508444  3
   4478   4476   4490   4496     1  0.0000000  1.0460000  1
   4478   4476   4490   4496     1  0.0000000  0.0000000  3
   4478   4476   4490   4494     1  0.0000000  0.6508444  3
   4478   4476   4490   4495     1  0.0000000  0.6508444  3
   4478   4476   4498   4482     1  0.0000000  1.6038667  3
   4479   4477   4476   4490     1  0.0000000  0.6508444  3
   4479   4477   4476   4498     1  0.0000000  1.0460000  1
   4479   4477   4476   4498     1  0.0000000  0.0000000  3
   4479   4477   4480   4481     1  0.0000000  0.6508444  3
   4479   4477   4480   4488     1  0.0000000  1.0460000  1
   4479   4477   4480   4488     1  0.0000000  0.0000000  3
   4479   4477   4480   4484     1  0.0000000  0.6508444  3
   4479   4477   4489   4492     1  0.0000000  0.6973333  3
   4480   4477   4489   4492     1  0.0000000  1.0460000  1
   4480   4477   4489   4492     1  0.0000000  0.6694400  3
   4480   4481   4482   4485     1  0.0000000  0.6508444  3
   4480   4481   4487   4493     1  0.0000000  1.0460000  1
   4480   4481   4487   4493     1  0.0000000  0.6694400  3
   4481   4480   4488   4491     1  0.0000000  1.0460000  1
   4481   4480   4488   4491     1  0.0000000  0.6694400  3
   4482   4481   4480   4484     1  0.0000000  0.6508444  3
   4482   4481   4487   4493     1  0.0000000  1.0460000  1
   4482   4481   4487   4493     1  0.0000000  0.6694400  3
   4483   4481   4480   4488     1  0.0000000  1.0460000  1
   4483   4481   4480   4488     1  0.0000000  0.0000000  3
   4483   4481   4480   4484     1  0.0000000  0.6508444  3
   4483   4481   4482   4486     1  0.0000000  1.0460000  1
   4483   4481   4482   4486     1  0.0000000  0.0000000  3
   4483   4481   4482   4498     1  0.0000000  1.0460000  1
   4483   4481   4482   4498     1  0.0000000  0.0000000  3
   4483   4481   4482   4485     1  0.0000000  0.6508444  3
   4483   4481   4487   4493     1  0.0000000  0.6973333  3
   4484   4480   4477   4489     1  0.0000000  1.0460000  1
   4484   4480   4477   4489     1  0.0000000  0.0000000  3
   4484   4480   4481   4487     1  0.0000000  1.0460000  1
   4484   4480   4481   4487     1  0.0000000  0.0000000  3
   4484   4480   4488   4491     1  0.0000000  0.6973333  3
   4485   4482   4481   4487     1  0.0000000  0.6508444  3
   4494   4490   4476   4498     1  0.0000000  1.0460000  1
   4494   4490   4476   4498     1  0.0000000  0.0000000  3
   4494   4490   4496   4497     1  0.0000000  0.6973333  3
   4495   4490   4476   4498     1  0.0000000  1.0460000  1
   4495   4490   4476   4498     1  0.0000000  0.0000000  3
   4495   4490   4496   4497     1  0.0000000  0.6973333  3
   4499   4500   4503   4507     1  0.0000000  0.6508444  3
   4499   4500   4512   4515     1  0.0000000  1.0460000  1
   4499   4500   4512   4515     1  0.0000000  0.6694400  3
   4499   4513   4519   4520     1  0.0000000  1.0460000  1
   4499   4513   4519   4520     1  0.0000000  0.6694400  3
   4499   4521   4505   4508     1  0.0000000  1.6038667  3
   4500   4503   4504   4506     1  0.0000000  0.6508444  3
   4500   4503   4511   4514     1  0.0000000  1.0460000  1
   4500   4503   4511   4514     1  0.0000000  0.6694400  3
   4500   4499   4513   4517     1  0.0000000  0.6508444  3
   4500   4499   4513   4518     1  0.0000000  0.6508444  3
   4501   4499   4500   4503     1  0.0000000  0.6508444  3
   4501   4499   4500   4512     1  0.0000000  1.0460000  1
   4501   4499   4500   4512     1  0.0000000  0.0000000  3
   4501   4499   4500   4502     1  0.0000000  0.6508444  3
   4501   4499   4513   4519     1  0.0000000  1.0460000  1
   4501   4499   4513   4519     1  0.0000000  0.0000000  3
   4501   4499   4513   4517     1  0.0000000  0.6508444  3
   4501   4499   4513   4518     1  0.0000000  0.6508444  3
   4501   4499   4521   4505     1  0.0000000  1.6038667  3
   4502   4500   4503   4504     1  0.0000000  0.6508444  3
   4502   4500   4503   4511     1  0.0000000  1.0460000  1
   4502   4500   4503   4511     1  0.0000000  0.0000000  3
   4502   4500   4503   4507     1  0.0000000  0.6508444  3
   4502   4500   4512   4515     1  0.0000000  0.6973333  3
   4502   4500   4499   4513     1  0.0000000  0.6508444  3
   4502   4500   4499   4521     1  0.0000000  1.0460000  1
   4502   4500   4499   4521     1  0.0000000  0.0000000  3
   4503   4504   4505   4508     1  0.0000000  0.6508444  3
   4503   4504   4510   4516     1  0.0000000  1.0460000  1
   4503   4504   4510   4516     1  0.0000000  0.6694400  3
   4503   4500   4512   4515     1  0.0000000  1.0460000  1
   4503   4500   4512   4515     1  0.0000000  0.6694400  3
   4504   4503   4511   4514     1  0.0000000  1.0460000  1
   4504   4503   4511   4514     1  0.0000000  0.6694400  3
   4505   4504   4510   4516     1  0.0000000  1.0460000  1
   4505   4504   4510   4516     1  0.0000000  0.6694400  3
   4505   4504   4503   4507     1  0.0000000  0.6508444  3
   4506   4504   4505   4509     1  0.0000000  1.0460000  1
   4506   4504   4505   4509     1  0.0000000  0.0000000  3
   4506   4504   4505   4521     1  0.0000000  1.0460000  1
   4506   4504   4505   4521     1  0.0000000  0.0000000  3
   4506   4504   4505   4508     1  0.0000000  0.6508444  3
   4506   4504   4510   4516     1  0.0000000  0.6973333  3
   4506   4504   4503   4511     1  0.0000000  1.0460000  1
   4506   4504   4503   4511     1  0.0000000  0.0000000  3
   4506   4504   4503   4507     1  0.0000000  0.6508444  3
   4507   4503   4504   4510     1  0.0000000  1.0460000  1
   4507   4503   4504   4510     1  0.0000000  0.0000000  3
   4507   4503   4511   4514     1  0.0000000  0.6973333  3
   4507   4503   4500   4512     1  0.0000000  1.0460000  1
   4507   4503   4500   4512     1  0.0000000  0.0000000  3
   4508   4505   4504   4510     1  0.0000000  0.6508444  3
   4517   4513   4519   4520     1  0.0000000  0.6973333  3
   4517   4513   4499   4521     1  0.0000000  1.0460000  1
   4517   4513   4499   4521     1  0.0000000  0.0000000  3
   4518   4513   4519   4520     1  0.0000000  0.6973333  3
   4518   4513   4499   4521     1  0.0000000  1.0460000  1
   4518   4513   4499   4521     1  0.0000000  0.0000000  3
   4522   4523   4526   4530     1  0.0000000  0.6508444  3
   4522   4523   4535   4538     1  0.0000000  1.0460000  1
   4522   4523   4535   4538     1  0.0000000  0.6694400  3
   4522   4536   4542   4543     1  0.0000000  1.0460000  1
   4522   4536   4542   4543     1  0.0000000  0.6694400  3
   4522   4544   4528   4531     1  0.0000000  1.6038667  3
   4523   4522   4536   4540     1  0.0000000  0.6508444  3
   4523   4522   4536   4541     1  0.0000000  0.6508444  3
   4523   4526   4527   4529     1  0.0000000  0.6508444  3
   4523   4526   4534   4537     1  0.0000000  1.0460000  1
   4523   4526   4534   4537     1  0.0000000  0.6694400  3
   4524   4522   4523   4526     1  0.0000000  0.6508444  3
   4524   4522   4523   4535     1  0.0000000  1.0460000  1
   4524   4522   4523   4535     1  0.0000000  0.0000000  3
   4524   4522   4523   4525     1  0.0000000  0.6508444  3
   4524   4522   4536   4542     1  0.0000000  1.0460000  1
   4524   4522   4536   4542     1  0.0000000  0.0000000  3
   4524   4522   4536   4540     1  0.0000000  0.6508444  3
   4524   4522   4536   4541     1  0.0000000  0.6508444  3
   4524   4522   4544   4528     1  0.0000000  1.6038667  3
   4525   4523   4522   4536     1  0.0000000  0.6508444  3
   4525   4523   4522   4544     1  0.0000000  1.0460000  1
   4525   4523   4522   4544     1  0.0000000  0.0000000  3
   4525   4523   4526   4527     1  0.0000000  0.6508444  3
   4525   4523   4526   4534     1  0.0000000  1.0460000  1
   4525   4523   4526   4534     1  0.0000000  0.0000000  3
   4525   4523   4526   4530     1  0.0000000  0.6508444  3
   4525   4523   4535   4538     1  0.0000000  0.6973333  3
   4526   4523   4535   4538     1  0.0000000  1.0460000  1
   4526   4523   4535   4538     1  0.0000000  0.6694400  3
   4526   4527   4528   4531     1  0.0000000  0.6508444  3
   4526   4527   4533   4539     1  0.0000000  1.0460000  1
   4526   4527   4533   4539     1  0.0000000  0.6694400  3
   4527   4526   4534   4537     1  0.0000000  1.0460000  1
   4527   4526   4534   4537     1  0.0000000  0.6694400  3
   4528   4527   4526   4530     1  0.0000000  0.6508444  3
   4528   4527   4533   4539     1  0.0000000  1.0460000  1
   4528   4527   4533   4539     1  0.0000000  0.6694400  3
   4529   4527   4526   4534     1  0.0000000  1.0460000  1
   4529   4527   4526   4534     1  0.0000000  0.0000000  3
   4529   4527   4526   4530     1  0.0000000  0.6508444  3
   4529   4527   4528   4532     1  0.0000000  1.0460000  1
   4529   4527   4528   4532     1  0.0000000  0.0000000  3
   4529   4527   4528   4544     1  0.0000000  1.0460000  1
   4529   4527   4528   4544     1  0.0000000  0.0000000  3
   4529   4527   4528   4531     1  0.0000000  0.6508444  3
   4529   4527   4533   4539     1  0.0000000  0.6973333  3
   4530   4526   4523   4535     1  0.0000000  1.0460000  1
   4530   4526   4523   4535     1  0.0000000  0.0000000  3
   4530   4526   4527   4533     1  0.0000000  1.0460000  1
   4530   4526   4527   4533     1  0.0000000  0.0000000  3
   4530   4526   4534   4537     1  0.0000000  0.6973333  3
   4531   4528   4527   4533     1  0.0000000  0.6508444  3
   4540   4536   4522   4544     1  0.0000000  1.0460000  1
   4540   4536   4522   4544     1  0.0000000  0.0000000  3
   4540   4536   4542   4543     1  0.0000000  0.6973333  3
   4541   4536   4522   4544     1  0.0000000  1.0460000  1
   4541   4536   4522   4544     1  0.0000000  0.0000000  3
   4541   4536   4542   4543     1  0.0000000  0.6973333  3
   4545   4546   4549   4553     1  0.0000000  0.6508444  3
   4545   4546   4558   4561     1  0.0000000  1.0460000  1
   4545   4546   4558   4561     1  0.0000000  0.6694400  3
   4545   4559   4565   4566     1  0.0000000  1.0460000  1
   4545   4559   4565   4566     1  0.0000000  0.6694400  3
   4545   4567   4551   4554     1  0.0000000  1.6038667  3
   4546   4549   4550   4552     1  0.0000000  0.6508444  3
   4546   4549   4557   4560     1  0.0000000  1.0460000  1
   4546   4549   4557   4560     1  0.0000000  0.6694400  3
   4546   4545   4559   4563     1  0.0000000  0.6508444  3
   4546   4545   4559   4564     1  0.0000000  0.6508444  3
   4547   4545   4546   4549     1  0.0000000  0.6508444  3
   4547   4545   4546   4558     1  0.0000000  1.0460000  1
   4547   4545   4546   4558     1  0.0000000  0.0000000  3
   4547   4545   4546   4548     1  0.0000000  0.6508444  3
   4547   4545   4559   4565     1  0.0000000  1.0460000  1
   4547   4545   4559   4565     1  0.0000000  0.0000000  3
   4547   4545   4559   4563     1  0.0000000  0.6508444  3
   4547   4545   4559   4564     1  0.0000000  0.6508444  3
   4547   4545   4567   4551     1  0.0000000  1.6038667  3
   4548   4546   4549   4550     1  0.0000000  0.6508444  3
   4548   4546   4549   4557     1  0.0000000  1.0460000  1
   4548   4546   4549   4557     1  0.0000000  0.0000000  3
   4548   4546   4549   4553     1  0.0000000  0.6508444  3
   4548   4546   4558   4561     1  0.0000000  0.6973333  3
   4548   4546   4545   4559     1  0.0000000  0.6508444  3
   4548   4546   4545   4567     1  0.0000000  1.0460000  1
   4548   4546   4545   4567     1  0.0000000  0.0000000  3
   4549   4550   4551   4554     1  0.0000000  0.6508444  3
   4549   4550   4556   4562     1  0.0000000  1.0460000  1
   4549   4550   4556   4562     1  0.0000000  0.6694400  3
   4549   4546   4558   4561     1  0.0000000  1.0460000  1
   4549   4546   4558   4561     1  0.0000000  0.6694400  3
   4550   4549   4557   4560     1  0.0000000  1.0460000  1
   4550   4549   4557   4560     1  0.0000000  0.6694400  3
   4551   4550   4556   4562     1  0.0000000  1.0460000  1
   4551   4550   4556   4562     1  0.0000000  0.6694400  3
   4551   4550   4549   4553     1  0.0000000  0.6508444  3
   4552   4550   4551   4555     1  0.0000000  1.0460000  1
   4552   4550   4551   4555     1  0.0000000  0.0000000  3
   4552   4550   4551   4567     1  0.0000000  1.0460000  1
   4552   4550   4551   4567     1  0.0000000  0.0000000  3
   4552   4550   4551   4554     1  0.0000000  0.6508444  3
   4552   4550   4556   4562     1  0.0000000  0.6973333  3
   4552   4550   4549   4557     1  0.0000000  1.0460000  1
   4552   4550   4549   4557     1  0.0000000  0.0000000  3
   4552   4550   4549   4553     1  0.0000000  0.6508444  3
   4553   4549   4550   4556     1  0.0000000  1.0460000  1
   4553   4549   4550   4556     1  0.0000000  0.0000000  3
   4553   4549   4557   4560     1  0.0000000  0.6973333  3
   4553   4549   4546   4558     1  0.0000000  1.0460000  1
   4553   4549   4546   4558     1  0.0000000  0.0000000  3
   4554   4551   4550   4556     1  0.0000000  0.6508444  3
   4563   4559   4565   4566     1  0.0000000  0.6973333  3
   4563   4559   4545   4567     1  0.0000000  1.0460000  1
   4563   4559   4545   4567     1  0.0000000  0.0000000  3
   4564   4559   4565   4566     1  0.0000000  0.6973333  3
   4564   4559   4545   4567     1  0.0000000  1.0460000  1
   4564   4559   4545   4567     1  0.0000000  0.0000000  3
   4568   4569   4572   4576     1  0.0000000  0.6508444  3
   4568   4569   4581   4584     1  0.0000000  1.0460000  1
   4568   4569   4581   4584     1  0.0000000  0.6694400  3
   4568   4582   4588   4589     1  0.0000000  1.0460000  1
   4568   4582   4588   4589     1  0.0000000  0.6694400  3
   4568   4590   4574   4577     1  0.0000000  1.6038667  3
   4569   4568   4582   4586     1  0.0000000  0.6508444  3
   4569   4568   4582   4587     1  0.0000000  0.6508444  3
   4569   4572   4573   4575     1  0.0000000  0.6508444  3
   4569   4572   4580   4583     1  0.0000000  1.0460000  1
   4569   4572   4580   4583     1  0.0000000  0.6694400  3
   4570   4568   4569   4572     1  0.0000000  0.6508444  3
   4570   4568   4569   4581     1  0.0000000  1.0460000  1
   4570   4568   4569   4581     1  0.0000000  0.0000000  3
   4570   4568   4569   4571     1  0.0000000  0.6508444  3
   4570   4568   4582   4588     1  0.0000000  1.0460000  1
   4570   4568   4582   4588     1  0.0000000  0.0000000  3
   4570   4568   4582   4586     1  0.0000000  0.6508444  3
   4570   4568   4582   4587     1  0.0000000  0.6508444  3
   4570   4568   4590   4574     1  0.0000000  1.6038667  3
   4571   4569   4568   4582     1  0.0000000  0.6508444  3
   4571   4569   4568   4590     1  0.0000000  1.0460000  1
   4571   4569   4568   4590     1  0.0000000  0.0000000  3
   4571   4569   4572   4573     1  0.0000000  0.6508444  3
   4571   4569   4572   4580     1  0.0000000  1.0460000  1
   4571   4569   4572   4580     1  0.0000000  0.0000000  3
   4571   4569   4572   4576     1  0.0000000  0.6508444  3
   4571   4569   4581   4584     1  0.0000000  0.6973333  3
   4572   4569   4581   4584     1  0.0000000  1.0460000  1
   4572   4569   4581   4584     1  0.0000000  0.6694400  3
   4572   4573   4574   4577     1  0.0000000  0.6508444  3
   4572   4573   4579   4585     1  0.0000000  1.0460000  1
   4572   4573   4579   4585     1  0.0000000  0.6694400  3
   4573   4572   4580   4583     1  0.0000000  1.0460000  1
   4573   4572   4580   4583     1  0.0000000  0.6694400  3
   4574   4573   4572   4576     1  0.0000000  0.6508444  3
   4574   4573   4579   4585     1  0.0000000  1.0460000  1
   4574   4573   4579   4585     1  0.0000000  0.6694400  3
   4575   4573   4572   4580     1  0.0000000  1.0460000  1
   4575   4573   4572   4580     1  0.0000000  0.0000000  3
   4575   4573   4572   4576     1  0.0000000  0.6508444  3
   4575   4573   4574   4578     1  0.0000000  1.0460000  1
   4575   4573   4574   4578     1  0.0000000  0.0000000  3
   4575   4573   4574   4590     1  0.0000000  1.0460000  1
   4575   4573   4574   4590     1  0.0000000  0.0000000  3
   4575   4573   4574   4577     1  0.0000000  0.6508444  3
   4575   4573   4579   4585     1  0.0000000  0.6973333  3
   4576   4572   4569   4581     1  0.0000000  1.0460000  1
   4576   4572   4569   4581     1  0.0000000  0.0000000  3
   4576   4572   4573   4579     1  0.0000000  1.0460000  1
   4576   4572   4573   4579     1  0.0000000  0.0000000  3
   4576   4572   4580   4583     1  0.0000000  0.6973333  3
   4577   4574   4573   4579     1  0.0000000  0.6508444  3
   4586   4582   4568   4590     1  0.0000000  1.0460000  1
   4586   4582   4568   4590     1  0.0000000  0.0000000  3
   4586   4582   4588   4589     1  0.0000000  0.6973333  3
   4587   4582   4568   4590     1  0.0000000  1.0460000  1
   4587   4582   4568   4590     1  0.0000000  0.0000000  3
   4587   4582   4588   4589     1  0.0000000  0.6973333  3
   4591   4592   4595   4599     1  0.0000000  0.6508444  3
   4591   4592   4604   4607     1  0.0000000  1.0460000  1
   4591   4592   4604   4607     1  0.0000000  0.6694400  3
   4591   4605   4611   4612     1  0.0000000  1.0460000  1
   4591   4605   4611   4612     1  0.0000000  0.6694400  3
   4591   4613   4597   4600     1  0.0000000  1.6038667  3
   4592   4595   4596   4598     1  0.0000000  0.6508444  3
   4592   4595   4603   4606     1  0.0000000  1.0460000  1
   4592   4595   4603   4606     1  0.0000000  0.6694400  3
   4592   4591   4605   4609     1  0.0000000  0.6508444  3
   4592   4591   4605   4610     1  0.0000000  0.6508444  3
   4593   4591   4592   4595     1  0.0000000  0.6508444  3
   4593   4591   4592   4604     1  0.0000000  1.0460000  1
   4593   4591   4592   4604     1  0.0000000  0.0000000  3
   4593   4591   4592   4594     1  0.0000000  0.6508444  3
   4593   4591   4605   4611     1  0.0000000  1.0460000  1
   4593   4591   4605   4611     1  0.0000000  0.0000000  3
   4593   4591   4605   4609     1  0.0000000  0.6508444  3
   4593   4591   4605   4610     1  0.0000000  0.6508444  3
   4593   4591   4613   4597     1  0.0000000  1.6038667  3
   4594   4592   4595   4596     1  0.0000000  0.6508444  3
   4594   4592   4595   4603     1  0.0000000  1.0460000  1
   4594   4592   4595   4603     1  0.0000000  0.0000000  3
   4594   4592   4595   4599     1  0.0000000  0.6508444  3
   4594   4592   4604   4607     1  0.0000000  0.6973333  3
   4594   4592   4591   4605     1  0.0000000  0.6508444  3
   4594   4592   4591   4613     1  0.0000000  1.0460000  1
   4594   4592   4591   4613     1  0.0000000  0.0000000  3
   4595   4596   4597   4600     1  0.0000000  0.6508444  3
   4595   4596   4602   4608     1  0.0000000  1.0460000  1
   4595   4596   4602   4608     1  0.0000000  0.6694400  3
   4595   4592   4604   4607     1  0.0000000  1.0460000  1
   4595   4592   4604   4607     1  0.0000000  0.6694400  3
   4596   4595   4603   4606     1  0.0000000  1.0460000  1
   4596   4595   4603   4606     1  0.0000000  0.6694400  3
   4597   4596   4602   4608     1  0.0000000  1.0460000  1
   4597   4596   4602   4608     1  0.0000000  0.6694400  3
   4597   4596   4595   4599     1  0.0000000  0.6508444  3
   4598   4596   4597   4601     1  0.0000000  1.0460000  1
   4598   4596   4597   4601     1  0.0000000  0.0000000  3
   4598   4596   4597   4613     1  0.0000000  1.0460000  1
   4598   4596   4597   4613     1  0.0000000  0.0000000  3
   4598   4596   4597   4600     1  0.0000000  0.6508444  3
   4598   4596   4602   4608     1  0.0000000  0.6973333  3
   4598   4596   4595   4603     1  0.0000000  1.0460000  1
   4598   4596   4595   4603     1  0.0000000  0.0000000  3
   4598   4596   4595   4599     1  0.0000000  0.6508444  3
   4599   4595   4596   4602     1  0.0000000  1.0460000  1
   4599   4595   4596   4602     1  0.0000000  0.0000000  3
   4599   4595   4603   4606     1  0.0000000  0.6973333  3
   4599   4595   4592   4604     1  0.0000000  1.0460000  1
   4599   4595   4592   4604     1  0.0000000  0.0000000  3
   4600   4597   4596   4602     1  0.0000000  0.6508444  3
   4609   4605   4611   4612     1  0.0000000  0.6973333  3
   4609   4605   4591   4613     1  0.0000000  1.0460000  1
   4609   4605   4591   4613     1  0.0000000  0.0000000  3
   4610   4605   4611   4612     1  0.0000000  0.6973333  3
   4610   4605   4591   4613     1  0.0000000  1.0460000  1
   4610   4605   4591   4613     1  0.0000000  0.0000000  3
   4614   4615   4618   4622     1  0.0000000  0.6508444  3
   4614   4615   4627   4630     1  0.0000000  1.0460000  1
   4614   4615   4627   4630     1  0.0000000  0.6694400  3
   4614   4628   4634   4635     1  0.0000000  1.0460000  1
   4614   4628   4634   4635     1  0.0000000  0.6694400  3
   4614   4636   4620   4623     1  0.0000000  1.6038667  3
   4615   4614   4628   4632     1  0.0000000  0.6508444  3
   4615   4614   4628   4633     1  0.0000000  0.6508444  3
   4615   4618   4619   4621     1  0.0000000  0.6508444  3
   4615   4618   4626   4629     1  0.0000000  1.0460000  1
   4615   4618   4626   4629     1  0.0000000  0.6694400  3
   4616   4614   4615   4618     1  0.0000000  0.6508444  3
   4616   4614   4615   4627     1  0.0000000  1.0460000  1
   4616   4614   4615   4627     1  0.0000000  0.0000000  3
   4616   4614   4615   4617     1  0.0000000  0.6508444  3
   4616   4614   4628   4634     1  0.0000000  1.0460000  1
   4616   4614   4628   4634     1  0.0000000  0.0000000  3
   4616   4614   4628   4632     1  0.0000000  0.6508444  3
   4616   4614   4628   4633     1  0.0000000  0.6508444  3
   4616   4614   4636   4620     1  0.0000000  1.6038667  3
   4617   4615   4614   4628     1  0.0000000  0.6508444  3
   4617   4615   4614   4636     1  0.0000000  1.0460000  1
   4617   4615   4614   4636     1  0.0000000  0.0000000  3
   4617   4615   4618   4619     1  0.0000000  0.6508444  3
   4617   4615   4618   4626     1  0.0000000  1.0460000  1
   4617   4615   4618   4626     1  0.0000000  0.0000000  3
   4617   4615   4618   4622     1  0.0000000  0.6508444  3
   4617   4615   4627   4630     1  0.0000000  0.6973333  3
   4618   4615   4627   4630     1  0.0000000  1.0460000  1
   4618   4615   4627   4630     1  0.0000000  0.6694400  3
   4618   4619   4620   4623     1  0.0000000  0.6508444  3
   4618   4619   4625   4631     1  0.0000000  1.0460000  1
   4618   4619   4625   4631     1  0.0000000  0.6694400  3
   4619   4618   4626   4629     1  0.0000000  1.0460000  1
   4619   4618   4626   4629     1  0.0000000  0.6694400  3
   4620   4619   4618   4622     1  0.0000000  0.6508444  3
   4620   4619   4625   4631     1  0.0000000  1.0460000  1
   4620   4619   4625   4631     1  0.0000000  0.6694400  3
   4621   4619   4618   4626     1  0.0000000  1.0460000  1
   4621   4619   4618   4626     1  0.0000000  0.0000000  3
   4621   4619   4618   4622     1  0.0000000  0.6508444  3
   4621   4619   4620   4624     1  0.0000000  1.0460000  1
   4621   4619   4620   4624     1  0.0000000  0.0000000  3
   4621   4619   4620   4636     1  0.0000000  1.0460000  1
   4621   4619   4620   4636     1  0.0000000  0.0000000  3
   4621   4619   4620   4623     1  0.0000000  0.6508444  3
   4621   4619   4625   4631     1  0.0000000  0.6973333  3
   4622   4618   4615   4627     1  0.0000000  1.0460000  1
   4622   4618   4615   4627     1  0.0000000  0.0000000  3
   4622   4618   4619   4625     1  0.0000000  1.0460000  1
   4622   4618   4619   4625     1  0.0000000  0.0000000  3
   4622   4618   4626   4629     1  0.0000000  0.6973333  3
   4623   4620   4619   4625     1  0.0000000  0.6508444  3
   4632   4628   4614   4636     1  0.0000000  1.0460000  1
   4632   4628   4614   4636     1  0.0000000  0.0000000  3
   4632   4628   4634   4635     1  0.0000000  0.6973333  3
   4633   4628   4614   4636     1  0.0000000  1.0460000  1
   4633   4628   4614   4636     1  0.0000000  0.0000000  3
   4633   4628   4634   4635     1  0.0000000  0.6973333  3
   4637   4638   4641   4645     1  0.0000000  0.6508444  3
   4637   4638   4650   4653     1  0.0000000  1.0460000  1
   4637   4638   4650   4653     1  0.0000000  0.6694400  3
   4637   4651   4657   4658     1  0.0000000  1.0460000  1
   4637   4651   4657   4658     1  0.0000000  0.6694400  3
   4637   4659   4643   4646     1  0.0000000  1.6038667  3
   4638   4641   4642   4644     1  0.0000000  0.6508444  3
   4638   4641   4649   4652     1  0.0000000  1.0460000  1
   4638   4641   4649   4652     1  0.0000000  0.6694400  3
   4638   4637   4651   4655     1  0.0000000  0.6508444  3
   4638   4637   4651   4656     1  0.0000000  0.6508444  3
   4639   4637   4638   4641     1  0.0000000  0.6508444  3
   4639   4637   4638   4650     1  0.0000000  1.0460000  1
   4639   4637   4638   4650     1  0.0000000  0.0000000  3
   4639   4637   4638   4640     1  0.0000000  0.6508444  3
   4639   4637   4651   4657     1  0.0000000  1.0460000  1
   4639   4637   4651   4657     1  0.0000000  0.0000000  3
   4639   4637   4651   4655     1  0.0000000  0.6508444  3
   4639   4637   4651   4656     1  0.0000000  0.6508444  3
   4639   4637   4659   4643     1  0.0000000  1.6038667  3
   4640   4638   4641   4642     1  0.0000000  0.6508444  3
   4640   4638   4641   4649     1  0.0000000  1.0460000  1
   4640   4638   4641   4649     1  0.0000000  0.0000000  3
   4640   4638   4641   4645     1  0.0000000  0.6508444  3
   4640   4638   4650   4653     1  0.0000000  0.6973333  3
   4640   4638   4637   4651     1  0.0000000  0.6508444  3
   4640   4638   4637   4659     1  0.0000000  1.0460000  1
   4640   4638   4637   4659     1  0.0000000  0.0000000  3
   4641   4642   4643   4646     1  0.0000000  0.6508444  3
   4641   4642   4648   4654     1  0.0000000  1.0460000  1
   4641   4642   4648   4654     1  0.0000000  0.6694400  3
   4641   4638   4650   4653     1  0.0000000  1.0460000  1
   4641   4638   4650   4653     1  0.0000000  0.6694400  3
   4642   4641   4649   4652     1  0.0000000  1.0460000  1
   4642   4641   4649   4652     1  0.0000000  0.6694400  3
   4643   4642   4648   4654     1  0.0000000  1.0460000  1
   4643   4642   4648   4654     1  0.0000000  0.6694400  3
   4643   4642   4641   4645     1  0.0000000  0.6508444  3
   4644   4642   4643   4647     1  0.0000000  1.0460000  1
   4644   4642   4643   4647     1  0.0000000  0.0000000  3
   4644   4642   4643   4659     1  0.0000000  1.0460000  1
   4644   4642   4643   4659     1  0.0000000  0.0000000  3
   4644   4642   4643   4646     1  0.0000000  0.6508444  3
   4644   4642   4648   4654     1  0.0000000  0.6973333  3
   4644   4642   4641   4649     1  0.0000000  1.0460000  1
   4644   4642   4641   4649     1  0.0000000  0.0000000  3
   4644   4642   4641   4645     1  0.0000000  0.6508444  3
   4645   4641   4642   4648     1  0.0000000  1.0460000  1
   4645   4641   4642   4648     1  0.0000000  0.0000000  3
   4645   4641   4649   4652     1  0.0000000  0.6973333  3
   4645   4641   4638   4650     1  0.0000000  1.0460000  1
   4645   4641   4638   4650     1  0.0000000  0.0000000  3
   4646   4643   4642   4648     1  0.0000000  0.6508444  3
   4655   4651   4657   4658     1  0.0000000  0.6973333  3
   4655   4651   4637   4659     1  0.0000000  1.0460000  1
   4655   4651   4637   4659     1  0.0000000  0.0000000  3
   4656   4651   4657   4658     1  0.0000000  0.6973333  3
   4656   4651   4637   4659     1  0.0000000  1.0460000  1
   4656   4651   4637   4659     1  0.0000000  0.0000000  3
   4660   4661   4664   4668     1  0.0000000  0.6508444  3
   4660   4661   4673   4676     1  0.0000000  1.0460000  1
   4660   4661   4673   4676     1  0.0000000  0.6694400  3
   4660   4674   4680   4681     1  0.0000000  1.0460000  1
   4660   4674   4680   4681     1  0.0000000  0.6694400  3
   4660   4682   4666   4669     1  0.0000000  1.6038667  3
   4661   4660   4674   4678     1  0.0000000  0.6508444  3
   4661   4660   4674   4679     1  0.0000000  0.6508444  3
   4661   4664   4665   4667     1  0.0000000  0.6508444  3
   4661   4664   4672   4675     1  0.0000000  1.0460000  1
   4661   4664   4672   4675     1  0.0000000  0.6694400  3
   4662   4660   4661   4664     1  0.0000000  0.6508444  3
   4662   4660   4661   4673     1  0.0000000  1.0460000  1
   4662   4660   4661   4673     1  0.0000000  0.0000000  3
   4662   4660   4661   4663     1  0.0000000  0.6508444  3
   4662   4660   4674   4680     1  0.0000000  1.0460000  1
   4662   4660   4674   4680     1  0.0000000  0.0000000  3
   4662   4660   4674   4678     1  0.0000000  0.6508444  3
   4662   4660   4674   4679     1  0.0000000  0.6508444  3
   4662   4660   4682   4666     1  0.0000000  1.6038667  3
   4663   4661   4660   4674     1  0.0000000  0.6508444  3
   4663   4661   4660   4682     1  0.0000000  1.0460000  1
   4663   4661   4660   4682     1  0.0000000  0.0000000  3
   4663   4661   4664   4665     1  0.0000000  0.6508444  3
   4663   4661   4664   4672     1  0.0000000  1.0460000  1
   4663   4661   4664   4672     1  0.0000000  0.0000000  3
   4663   4661   4664   4668     1  0.0000000  0.6508444  3
   4663   4661   4673   4676     1  0.0000000  0.6973333  3
   4664   4661   4673   4676     1  0.0000000  1.0460000  1
   4664   4661   4673   4676     1  0.0000000  0.6694400  3
   4664   4665   4666   4669     1  0.0000000  0.6508444  3
   4664   4665   4671   4677     1  0.0000000  1.0460000  1
   4664   4665   4671   4677     1  0.0000000  0.6694400  3
   4665   4664   4672   4675     1  0.0000000  1.0460000  1
   4665   4664   4672   4675     1  0.0000000  0.6694400  3
   4666   4665   4664   4668     1  0.0000000  0.6508444  3
   4666   4665   4671   4677     1  0.0000000  1.0460000  1
   4666   4665   4671   4677     1  0.0000000  0.6694400  3
   4667   4665   4664   4672     1  0.0000000  1.0460000  1
   4667   4665   4664   4672     1  0.0000000  0.0000000  3
   4667   4665   4664   4668     1  0.0000000  0.6508444  3
   4667   4665   4666   4670     1  0.0000000  1.0460000  1
   4667   4665   4666   4670     1  0.0000000  0.0000000  3
   4667   4665   4666   4682     1  0.0000000  1.0460000  1
   4667   4665   4666   4682     1  0.0000000  0.0000000  3
   4667   4665   4666   4669     1  0.0000000  0.6508444  3
   4667   4665   4671   4677     1  0.0000000  0.6973333  3
   4668   4664   4661   4673     1  0.0000000  1.0460000  1
   4668   4664   4661   4673     1  0.0000000  0.0000000  3
   4668   4664   4665   4671     1  0.0000000  1.0460000  1
   4668   4664   4665   4671     1  0.0000000  0.0000000  3
   4668   4664   4672   4675     1  0.0000000  0.6973333  3
   4669   4666   4665   4671     1  0.0000000  0.6508444  3
   4678   4674   4660   4682     1  0.0000000  1.0460000  1
   4678   4674   4660   4682     1  0.0000000  0.0000000  3
   4678   4674   4680   4681     1  0.0000000  0.6973333  3
   4679   4674   4660   4682     1  0.0000000  1.0460000  1
   4679   4674   4660   4682     1  0.0000000  0.0000000  3
   4679   4674   4680   4681     1  0.0000000  0.6973333  3
   4683   4684   4687   4691     1  0.0000000  0.6508444  3
   4683   4684   4696   4699     1  0.0000000  1.0460000  1
   4683   4684   4696   4699     1  0.0000000  0.6694400  3
   4683   4697   4703   4704     1  0.0000000  1.0460000  1
   4683   4697   4703   4704     1  0.0000000  0.6694400  3
   4683   4705   4689   4692     1  0.0000000  1.6038667  3
   4684   4687   4688   4690     1  0.0000000  0.6508444  3
   4684   4687   4695   4698     1  0.0000000  1.0460000  1
   4684   4687   4695   4698     1  0.0000000  0.6694400  3
   4684   4683   4697   4701     1  0.0000000  0.6508444  3
   4684   4683   4697   4702     1  0.0000000  0.6508444  3
   4685   4683   4684   4687     1  0.0000000  0.6508444  3
   4685   4683   4684   4696     1  0.0000000  1.0460000  1
   4685   4683   4684   4696     1  0.0000000  0.0000000  3
   4685   4683   4684   4686     1  0.0000000  0.6508444  3
   4685   4683   4697   4703     1  0.0000000  1.0460000  1
   4685   4683   4697   4703     1  0.0000000  0.0000000  3
   4685   4683   4697   4701     1  0.0000000  0.6508444  3
   4685   4683   4697   4702     1  0.0000000  0.6508444  3
   4685   4683   4705   4689     1  0.0000000  1.6038667  3
   4686   4684   4687   4688     1  0.0000000  0.6508444  3
   4686   4684   4687   4695     1  0.0000000  1.0460000  1
   4686   4684   4687   4695     1  0.0000000  0.0000000  3
   4686   4684   4687   4691     1  0.0000000  0.6508444  3
   4686   4684   4696   4699     1  0.0000000  0.6973333  3
   4686   4684   4683   4697     1  0.0000000  0.6508444  3
   4686   4684   4683   4705     1  0.0000000  1.0460000  1
   4686   4684   4683   4705     1  0.0000000  0.0000000  3
   4687   4688   4689   4692     1  0.0000000  0.6508444  3
   4687   4688   4694   4700     1  0.0000000  1.0460000  1
   4687   4688   4694   4700     1  0.0000000  0.6694400  3
   4687   4684   4696   4699     1  0.0000000  1.0460000  1
   4687   4684   4696   4699     1  0.0000000  0.6694400  3
   4688   4687   4695   4698     1  0.0000000  1.0460000  1
   4688   4687   4695   4698     1  0.0000000  0.6694400  3
   4689   4688   4694   4700     1  0.0000000  1.0460000  1
   4689   4688   4694   4700     1  0.0000000  0.6694400  3
   4689   4688   4687   4691     1  0.0000000  0.6508444  3
   4690   4688   4689   4693     1  0.0000000  1.0460000  1
   4690   4688   4689   4693     1  0.0000000  0.0000000  3
   4690   4688   4689   4705     1  0.0000000  1.0460000  1
   4690   4688   4689   4705     1  0.0000000  0.0000000  3
   4690   4688   4689   4692     1  0.0000000  0.6508444  3
   4690   4688   4694   4700     1  0.0000000  0.6973333  3
   4690   4688   4687   4695     1  0.0000000  1.0460000  1
   4690   4688   4687   4695     1  0.0000000  0.0000000  3
   4690   4688   4687   4691     1  0.0000000  0.6508444  3
   4691   4687   4688   4694     1  0.0000000  1.0460000  1
   4691   4687   4688   4694     1  0.0000000  0.0000000  3
   4691   4687   4695   4698     1  0.0000000  0.6973333  3
   4691   4687   4684   4696     1  0.0000000  1.0460000  1
   4691   4687   4684   4696     1  0.0000000  0.0000000  3
   4692   4689   4688   4694     1  0.0000000  0.6508444  3
   4701   4697   4703   4704     1  0.0000000  0.6973333  3
   4701   4697   4683   4705     1  0.0000000  1.0460000  1
   4701   4697   4683   4705     1  0.0000000  0.0000000  3
   4702   4697   4703   4704     1  0.0000000  0.6973333  3
   4702   4697   4683   4705     1  0.0000000  1.0460000  1
   4702   4697   4683   4705     1  0.0000000  0.0000000  3
   4706   4707   4710   4714     1  0.0000000  0.6508444  3
   4706   4707   4719   4722     1  0.0000000  1.0460000  1
   4706   4707   4719   4722     1  0.0000000  0.6694400  3
   4706   4720   4726   4727     1  0.0000000  1.0460000  1
   4706   4720   4726   4727     1  0.0000000  0.6694400  3
   4706   4728   4712   4715     1  0.0000000  1.6038667  3
   4707   4706   4720   4724     1  0.0000000  0.6508444  3
   4707   4706   4720   4725     1  0.0000000  0.6508444  3
   4707   4710   4711   4713     1  0.0000000  0.6508444  3
   4707   4710   4718   4721     1  0.0000000  1.0460000  1
   4707   4710   4718   4721     1  0.0000000  0.6694400  3
   4708   4706   4707   4710     1  0.0000000  0.6508444  3
   4708   4706   4707   4719     1  0.0000000  1.0460000  1
   4708   4706   4707   4719     1  0.0000000  0.0000000  3
   4708   4706   4707   4709     1  0.0000000  0.6508444  3
   4708   4706   4720   4726     1  0.0000000  1.0460000  1
   4708   4706   4720   4726     1  0.0000000  0.0000000  3
   4708   4706   4720   4724     1  0.0000000  0.6508444  3
   4708   4706   4720   4725     1  0.0000000  0.6508444  3
   4708   4706   4728   4712     1  0.0000000  1.6038667  3
   4709   4707   4706   4720     1  0.0000000  0.6508444  3
   4709   4707   4706   4728     1  0.0000000  1.0460000  1
   4709   4707   4706   4728     1  0.0000000  0.0000000  3
   4709   4707   4710   4711     1  0.0000000  0.6508444  3
   4709   4707   4710   4718     1  0.0000000  1.0460000  1
   4709   4707   4710   4718     1  0.0000000  0.0000000  3
   4709   4707   4710   4714     1  0.0000000  0.6508444  3
   4709   4707   4719   4722     1  0.0000000  0.6973333  3
   4710   4707   4719   4722     1  0.0000000  1.0460000  1
   4710   4707   4719   4722     1  0.0000000  0.6694400  3
   4710   4711   4712   4715     1  0.0000000  0.6508444  3
   4710   4711   4717   4723     1  0.0000000  1.0460000  1
   4710   4711   4717   4723     1  0.0000000  0.6694400  3
   4711   4710   4718   4721     1  0.0000000  1.0460000  1
   4711   4710   4718   4721     1  0.0000000  0.6694400  3
   4712   4711   4710   4714     1  0.0000000  0.6508444  3
   4712   4711   4717   4723     1  0.0000000  1.0460000  1
   4712   4711   4717   4723     1  0.0000000  0.6694400  3
   4713   4711   4710   4718     1  0.0000000  1.0460000  1
   4713   4711   4710   4718     1  0.0000000  0.0000000  3
   4713   4711   4710   4714     1  0.0000000  0.6508444  3
   4713   4711   4712   4716     1  0.0000000  1.0460000  1
   4713   4711   4712   4716     1  0.0000000  0.0000000  3
   4713   4711   4712   4728     1  0.0000000  1.0460000  1
   4713   4711   4712   4728     1  0.0000000  0.0000000  3
   4713   4711   4712   4715     1  0.0000000  0.6508444  3
   4713   4711   4717   4723     1  0.0000000  0.6973333  3
   4714   4710   4707   4719     1  0.0000000  1.0460000  1
   4714   4710   4707   4719     1  0.0000000  0.0000000  3
   4714   4710   4711   4717     1  0.0000000  1.0460000  1
   4714   4710   4711   4717     1  0.0000000  0.0000000  3
   4714   4710   4718   4721     1  0.0000000  0.6973333  3
   4715   4712   4711   4717     1  0.0000000  0.6508444  3
   4724   4720   4706   4728     1  0.0000000  1.0460000  1
   4724   4720   4706   4728     1  0.0000000  0.0000000  3
   4724   4720   4726   4727     1  0.0000000  0.6973333  3
   4725   4720   4706   4728     1  0.0000000  1.0460000  1
   4725   4720   4706   4728     1  0.0000000  0.0000000  3
   4725   4720   4726   4727     1  0.0000000  0.6973333  3
   4729   4730   4733   4737     1  0.0000000  0.6508444  3
   4729   4730   4742   4745     1  0.0000000  1.0460000  1
   4729   4730   4742   4745     1  0.0000000  0.6694400  3
   4729   4743   4749   4750     1  0.0000000  1.0460000  1
   4729   4743   4749   4750     1  0.0000000  0.6694400  3
   4729   4751   4735   4738     1  0.0000000  1.6038667  3
   4730   4733   4734   4736     1  0.0000000  0.6508444  3
   4730   4733   4741   4744     1  0.0000000  1.0460000  1
   4730   4733   4741   4744     1  0.0000000  0.6694400  3
   4730   4729   4743   4747     1  0.0000000  0.6508444  3
   4730   4729   4743   4748     1  0.0000000  0.6508444  3
   4731   4729   4730   4733     1  0.0000000  0.6508444  3
   4731   4729   4730   4742     1  0.0000000  1.0460000  1
   4731   4729   4730   4742     1  0.0000000  0.0000000  3
   4731   4729   4730   4732     1  0.0000000  0.6508444  3
   4731   4729   4743   4749     1  0.0000000  1.0460000  1
   4731   4729   4743   4749     1  0.0000000  0.0000000  3
   4731   4729   4743   4747     1  0.0000000  0.6508444  3
   4731   4729   4743   4748     1  0.0000000  0.6508444  3
   4731   4729   4751   4735     1  0.0000000  1.6038667  3
   4732   4730   4733   4734     1  0.0000000  0.6508444  3
   4732   4730   4733   4741     1  0.0000000  1.0460000  1
   4732   4730   4733   4741     1  0.0000000  0.0000000  3
   4732   4730   4733   4737     1  0.0000000  0.6508444  3
   4732   4730   4742   4745     1  0.0000000  0.6973333  3
   4732   4730   4729   4743     1  0.0000000  0.6508444  3
   4732   4730   4729   4751     1  0.0000000  1.0460000  1
   4732   4730   4729   4751     1  0.0000000  0.0000000  3
   4733   4734   4735   4738     1  0.0000000  0.6508444  3
   4733   4734   4740   4746     1  0.0000000  1.0460000  1
   4733   4734   4740   4746     1  0.0000000  0.6694400  3
   4733   4730   4742   4745     1  0.0000000  1.0460000  1
   4733   4730   4742   4745     1  0.0000000  0.6694400  3
   4734   4733   4741   4744     1  0.0000000  1.0460000  1
   4734   4733   4741   4744     1  0.0000000  0.6694400  3
   4735   4734   4740   4746     1  0.0000000  1.0460000  1
   4735   4734   4740   4746     1  0.0000000  0.6694400  3
   4735   4734   4733   4737     1  0.0000000  0.6508444  3
   4736   4734   4735   4739     1  0.0000000  1.0460000  1
   4736   4734   4735   4739     1  0.0000000  0.0000000  3
   4736   4734   4735   4751     1  0.0000000  1.0460000  1
   4736   4734   4735   4751     1  0.0000000  0.0000000  3
   4736   4734   4735   4738     1  0.0000000  0.6508444  3
   4736   4734   4740   4746     1  0.0000000  0.6973333  3
   4736   4734   4733   4741     1  0.0000000  1.0460000  1
   4736   4734   4733   4741     1  0.0000000  0.0000000  3
   4736   4734   4733   4737     1  0.0000000  0.6508444  3
   4737   4733   4734   4740     1  0.0000000  1.0460000  1
   4737   4733   4734   4740     1  0.0000000  0.0000000  3
   4737   4733   4741   4744     1  0.0000000  0.6973333  3
   4737   4733   4730   4742     1  0.0000000  1.0460000  1
   4737   4733   4730   4742     1  0.0000000  0.0000000  3
   4738   4735   4734   4740     1  0.0000000  0.6508444  3
   4747   4743   4749   4750     1  0.0000000  0.6973333  3
   4747   4743   4729   4751     1  0.0000000  1.0460000  1
   4747   4743   4729   4751     1  0.0000000  0.0000000  3
   4748   4743   4749   4750     1  0.0000000  0.6973333  3
   4748   4743   4729   4751     1  0.0000000  1.0460000  1
   4748   4743   4729   4751     1  0.0000000  0.0000000  3
   4752   4753   4756   4760     1  0.0000000  0.6508444  3
   4752   4753   4765   4768     1  0.0000000  1.0460000  1
   4752   4753   4765   4768     1  0.0000000  0.6694400  3
   4752   4766   4772   4773     1  0.0000000  1.0460000  1
   4752   4766   4772   4773     1  0.0000000  0.6694400  3
   4752   4774   4758   4761     1  0.0000000  1.6038667  3
   4753   4752   4766   4770     1  0.0000000  0.6508444  3
   4753   4752   4766   4771     1  0.0000000  0.6508444  3
   4753   4756   4757   4759     1  0.0000000  0.6508444  3
   4753   4756   4764   4767     1  0.0000000  1.0460000  1
   4753   4756   4764   4767     1  0.0000000  0.6694400  3
   4754   4752   4753   4756     1  0.0000000  0.6508444  3
   4754   4752   4753   4765     1  0.0000000  1.0460000  1
   4754   4752   4753   4765     1  0.0000000  0.0000000  3
   4754   4752   4753   4755     1  0.0000000  0.6508444  3
   4754   4752   4766   4772     1  0.0000000  1.0460000  1
   4754   4752   4766   4772     1  0.0000000  0.0000000  3
   4754   4752   4766   4770     1  0.0000000  0.6508444  3
   4754   4752   4766   4771     1  0.0000000  0.6508444  3
   4754   4752   4774   4758     1  0.0000000  1.6038667  3
   4755   4753   4752   4766     1  0.0000000  0.6508444  3
   4755   4753   4752   4774     1  0.0000000  1.0460000  1
   4755   4753   4752   4774     1  0.0000000  0.0000000  3
   4755   4753   4756   4757     1  0.0000000  0.6508444  3
   4755   4753   4756   4764     1  0.0000000  1.0460000  1
   4755   4753   4756   4764     1  0.0000000  0.0000000  3
   4755   4753   4756   4760     1  0.0000000  0.6508444  3
   4755   4753   4765   4768     1  0.0000000  0.6973333  3
   4756   4753   4765   4768     1  0.0000000  1.0460000  1
   4756   4753   4765   4768     1  0.0000000  0.6694400  3
   4756   4757   4758   4761     1  0.0000000  0.6508444  3
   4756   4757   4763   4769     1  0.0000000  1.0460000  1
   4756   4757   4763   4769     1  0.0000000  0.6694400  3
   4757   4756   4764   4767     1  0.0000000  1.0460000  1
   4757   4756   4764   4767     1  0.0000000  0.6694400  3
   4758   4757   4756   4760     1  0.0000000  0.6508444  3
   4758   4757   4763   4769     1  0.0000000  1.0460000  1
   4758   4757   4763   4769     1  0.0000000  0.6694400  3
   4759   4757   4756   4764     1  0.0000000  1.0460000  1
   4759   4757   4756   4764     1  0.0000000  0.0000000  3
   4759   4757   4756   4760     1  0.0000000  0.6508444  3
   4759   4757   4758   4762     1  0.0000000  1.0460000  1
   4759   4757   4758   4762     1  0.0000000  0.0000000  3
   4759   4757   4758   4774     1  0.0000000  1.0460000  1
   4759   4757   4758   4774     1  0.0000000  0.0000000  3
   4759   4757   4758   4761     1  0.0000000  0.6508444  3
   4759   4757   4763   4769     1  0.0000000  0.6973333  3
   4760   4756   4753   4765     1  0.0000000  1.0460000  1
   4760   4756   4753   4765     1  0.0000000  0.0000000  3
   4760   4756   4757   4763     1  0.0000000  1.0460000  1
   4760   4756   4757   4763     1  0.0000000  0.0000000  3
   4760   4756   4764   4767     1  0.0000000  0.6973333  3
   4761   4758   4757   4763     1  0.0000000  0.6508444  3
   4770   4766   4752   4774     1  0.0000000  1.0460000  1
   4770   4766   4752   4774     1  0.0000000  0.0000000  3
   4770   4766   4772   4773     1  0.0000000  0.6973333  3
   4771   4766   4752   4774     1  0.0000000  1.0460000  1
   4771   4766   4752   4774     1  0.0000000  0.0000000  3
   4771   4766   4772   4773     1  0.0000000  0.6973333  3
   4775   4776   4779   4783     1  0.0000000  0.6508444  3
   4775   4776   4788   4791     1  0.0000000  1.0460000  1
   4775   4776   4788   4791     1  0.0000000  0.6694400  3
   4775   4789   4795   4796     1  0.0000000  1.0460000  1
   4775   4789   4795   4796     1  0.0000000  0.6694400  3
   4775   4797   4781   4784     1  0.0000000  1.6038667  3
   4776   4779   4780   4782     1  0.0000000  0.6508444  3
   4776   4779   4787   4790     1  0.0000000  1.0460000  1
   4776   4779   4787   4790     1  0.0000000  0.6694400  3
   4776   4775   4789   4793     1  0.0000000  0.6508444  3
   4776   4775   4789   4794     1  0.0000000  0.6508444  3
   4777   4775   4776   4779     1  0.0000000  0.6508444  3
   4777   4775   4776   4788     1  0.0000000  1.0460000  1
   4777   4775   4776   4788     1  0.0000000  0.0000000  3
   4777   4775   4776   4778     1  0.0000000  0.6508444  3
   4777   4775   4789   4795     1  0.0000000  1.0460000  1
   4777   4775   4789   4795     1  0.0000000  0.0000000  3
   4777   4775   4789   4793     1  0.0000000  0.6508444  3
   4777   4775   4789   4794     1  0.0000000  0.6508444  3
   4777   4775   4797   4781     1  0.0000000  1.6038667  3
   4778   4776   4779   4780     1  0.0000000  0.6508444  3
   4778   4776   4779   4787     1  0.0000000  1.0460000  1
   4778   4776   4779   4787     1  0.0000000  0.0000000  3
   4778   4776   4779   4783     1  0.0000000  0.6508444  3
   4778   4776   4788   4791     1  0.0000000  0.6973333  3
   4778   4776   4775   4789     1  0.0000000  0.6508444  3
   4778   4776   4775   4797     1  0.0000000  1.0460000  1
   4778   4776   4775   4797     1  0.0000000  0.0000000  3
   4779   4780   4781   4784     1  0.0000000  0.6508444  3
   4779   4780   4786   4792     1  0.0000000  1.0460000  1
   4779   4780   4786   4792     1  0.0000000  0.6694400  3
   4779   4776   4788   4791     1  0.0000000  1.0460000  1
   4779   4776   4788   4791     1  0.0000000  0.6694400  3
   4780   4779   4787   4790     1  0.0000000  1.0460000  1
   4780   4779   4787   4790     1  0.0000000  0.6694400  3
   4781   4780   4786   4792     1  0.0000000  1.0460000  1
   4781   4780   4786   4792     1  0.0000000  0.6694400  3
   4781   4780   4779   4783     1  0.0000000  0.6508444  3
   4782   4780   4781   4785     1  0.0000000  1.0460000  1
   4782   4780   4781   4785     1  0.0000000  0.0000000  3
   4782   4780   4781   4797     1  0.0000000  1.0460000  1
   4782   4780   4781   4797     1  0.0000000  0.0000000  3
   4782   4780   4781   4784     1  0.0000000  0.6508444  3
   4782   4780   4786   4792     1  0.0000000  0.6973333  3
   4782   4780   4779   4787     1  0.0000000  1.0460000  1
   4782   4780   4779   4787     1  0.0000000  0.0000000  3
   4782   4780   4779   4783     1  0.0000000  0.6508444  3
   4783   4779   4780   4786     1  0.0000000  1.0460000  1
   4783   4779   4780   4786     1  0.0000000  0.0000000  3
   4783   4779   4787   4790     1  0.0000000  0.6973333  3
   4783   4779   4776   4788     1  0.0000000  1.0460000  1
   4783   4779   4776   4788     1  0.0000000  0.0000000  3
   4784   4781   4780   4786     1  0.0000000  0.6508444  3
   4793   4789   4795   4796     1  0.0000000  0.6973333  3
   4793   4789   4775   4797     1  0.0000000  1.0460000  1
   4793   4789   4775   4797     1  0.0000000  0.0000000  3
   4794   4789   4795   4796     1  0.0000000  0.6973333  3
   4794   4789   4775   4797     1  0.0000000  1.0460000  1
   4794   4789   4775   4797     1  0.0000000  0.0000000  3
   4798   4799   4802   4806     1  0.0000000  0.6508444  3
   4798   4799   4811   4814     1  0.0000000  1.0460000  1
   4798   4799   4811   4814     1  0.0000000  0.6694400  3
   4798   4812   4818   4819     1  0.0000000  1.0460000  1
   4798   4812   4818   4819     1  0.0000000  0.6694400  3
   4798   4820   4804   4807     1  0.0000000  1.6038667  3
   4799   4798   4812   4816     1  0.0000000  0.6508444  3
   4799   4798   4812   4817     1  0.0000000  0.6508444  3
   4799   4802   4803   4805     1  0.0000000  0.6508444  3
   4799   4802   4810   4813     1  0.0000000  1.0460000  1
   4799   4802   4810   4813     1  0.0000000  0.6694400  3
   4800   4798   4799   4802     1  0.0000000  0.6508444  3
   4800   4798   4799   4811     1  0.0000000  1.0460000  1
   4800   4798   4799   4811     1  0.0000000  0.0000000  3
   4800   4798   4799   4801     1  0.0000000  0.6508444  3
   4800   4798   4812   4818     1  0.0000000  1.0460000  1
   4800   4798   4812   4818     1  0.0000000  0.0000000  3
   4800   4798   4812   4816     1  0.0000000  0.6508444  3
   4800   4798   4812   4817     1  0.0000000  0.6508444  3
   4800   4798   4820   4804     1  0.0000000  1.6038667  3
   4801   4799   4798   4812     1  0.0000000  0.6508444  3
   4801   4799   4798   4820     1  0.0000000  1.0460000  1
   4801   4799   4798   4820     1  0.0000000  0.0000000  3
   4801   4799   4802   4803     1  0.0000000  0.6508444  3
   4801   4799   4802   4810     1  0.0000000  1.0460000  1
   4801   4799   4802   4810     1  0.0000000  0.0000000  3
   4801   4799   4802   4806     1  0.0000000  0.6508444  3
   4801   4799   4811   4814     1  0.0000000  0.6973333  3
   4802   4799   4811   4814     1  0.0000000  1.0460000  1
   4802   4799   4811   4814     1  0.0000000  0.6694400  3
   4802   4803   4804   4807     1  0.0000000  0.6508444  3
   4802   4803   4809   4815     1  0.0000000  1.0460000  1
   4802   4803   4809   4815     1  0.0000000  0.6694400  3
   4803   4802   4810   4813     1  0.0000000  1.0460000  1
   4803   4802   4810   4813     1  0.0000000  0.6694400  3
   4804   4803   4802   4806     1  0.0000000  0.6508444  3
   4804   4803   4809   4815     1  0.0000000  1.0460000  1
   4804   4803   4809   4815     1  0.0000000  0.6694400  3
   4805   4803   4802   4810     1  0.0000000  1.0460000  1
   4805   4803   4802   4810     1  0.0000000  0.0000000  3
   4805   4803   4802   4806     1  0.0000000  0.6508444  3
   4805   4803   4804   4808     1  0.0000000  1.0460000  1
   4805   4803   4804   4808     1  0.0000000  0.0000000  3
   4805   4803   4804   4820     1  0.0000000  1.0460000  1
   4805   4803   4804   4820     1  0.0000000  0.0000000  3
   4805   4803   4804   4807     1  0.0000000  0.6508444  3
   4805   4803   4809   4815     1  0.0000000  0.6973333  3
   4806   4802   4799   4811     1  0.0000000  1.0460000  1
   4806   4802   4799   4811     1  0.0000000  0.0000000  3
   4806   4802   4803   4809     1  0.0000000  1.0460000  1
   4806   4802   4803   4809     1  0.0000000  0.0000000  3
   4806   4802   4810   4813     1  0.0000000  0.6973333  3
   4807   4804   4803   4809     1  0.0000000  0.6508444  3
   4816   4812   4798   4820     1  0.0000000  1.0460000  1
   4816   4812   4798   4820     1  0.0000000  0.0000000  3
   4816   4812   4818   4819     1  0.0000000  0.6973333  3
   4817   4812   4798   4820     1  0.0000000  1.0460000  1
   4817   4812   4798   4820     1  0.0000000  0.0000000  3
   4817   4812   4818   4819     1  0.0000000  0.6973333  3
   4821   4822   4825   4829     1  0.0000000  0.6508444  3
   4821   4822   4834   4837     1  0.0000000  1.0460000  1
   4821   4822   4834   4837     1  0.0000000  0.6694400  3
   4821   4835   4841   4842     1  0.0000000  1.0460000  1
   4821   4835   4841   4842     1  0.0000000  0.6694400  3
   4821   4843   4827   4830     1  0.0000000  1.6038667  3
   4822   4825   4826   4828     1  0.0000000  0.6508444  3
   4822   4825   4833   4836     1  0.0000000  1.0460000  1
   4822   4825   4833   4836     1  0.0000000  0.6694400  3
   4822   4821   4835   4839     1  0.0000000  0.6508444  3
   4822   4821   4835   4840     1  0.0000000  0.6508444  3
   4823   4821   4822   4825     1  0.0000000  0.6508444  3
   4823   4821   4822   4834     1  0.0000000  1.0460000  1
   4823   4821   4822   4834     1  0.0000000  0.0000000  3
   4823   4821   4822   4824     1  0.0000000  0.6508444  3
   4823   4821   4835   4841     1  0.0000000  1.0460000  1
   4823   4821   4835   4841     1  0.0000000  0.0000000  3
   4823   4821   4835   4839     1  0.0000000  0.6508444  3
   4823   4821   4835   4840     1  0.0000000  0.6508444  3
   4823   4821   4843   4827     1  0.0000000  1.6038667  3
   4824   4822   4825   4826     1  0.0000000  0.6508444  3
   4824   4822   4825   4833     1  0.0000000  1.0460000  1
   4824   4822   4825   4833     1  0.0000000  0.0000000  3
   4824   4822   4825   4829     1  0.0000000  0.6508444  3
   4824   4822   4834   4837     1  0.0000000  0.6973333  3
   4824   4822   4821   4835     1  0.0000000  0.6508444  3
   4824   4822   4821   4843     1  0.0000000  1.0460000  1
   4824   4822   4821   4843     1  0.0000000  0.0000000  3
   4825   4826   4827   4830     1  0.0000000  0.6508444  3
   4825   4826   4832   4838     1  0.0000000  1.0460000  1
   4825   4826   4832   4838     1  0.0000000  0.6694400  3
   4825   4822   4834   4837     1  0.0000000  1.0460000  1
   4825   4822   4834   4837     1  0.0000000  0.6694400  3
   4826   4825   4833   4836     1  0.0000000  1.0460000  1
   4826   4825   4833   4836     1  0.0000000  0.6694400  3
   4827   4826   4832   4838     1  0.0000000  1.0460000  1
   4827   4826   4832   4838     1  0.0000000  0.6694400  3
   4827   4826   4825   4829     1  0.0000000  0.6508444  3
   4828   4826   4827   4831     1  0.0000000  1.0460000  1
   4828   4826   4827   4831     1  0.0000000  0.0000000  3
   4828   4826   4827   4843     1  0.0000000  1.0460000  1
   4828   4826   4827   4843     1  0.0000000  0.0000000  3
   4828   4826   4827   4830     1  0.0000000  0.6508444  3
   4828   4826   4832   4838     1  0.0000000  0.6973333  3
   4828   4826   4825   4833     1  0.0000000  1.0460000  1
   4828   4826   4825   4833     1  0.0000000  0.0000000  3
   4828   4826   4825   4829     1  0.0000000  0.6508444  3
   4829   4825   4826   4832     1  0.0000000  1.0460000  1
   4829   4825   4826   4832     1  0.0000000  0.0000000  3
   4829   4825   4833   4836     1  0.0000000  0.6973333  3
   4829   4825   4822   4834     1  0.0000000  1.0460000  1
   4829   4825   4822   4834     1  0.0000000  0.0000000  3
   4830   4827   4826   4832     1  0.0000000  0.6508444  3
   4839   4835   4841   4842     1  0.0000000  0.6973333  3
   4839   4835   4821   4843     1  0.0000000  1.0460000  1
   4839   4835   4821   4843     1  0.0000000  0.0000000  3
   4840   4835   4841   4842     1  0.0000000  0.6973333  3
   4840   4835   4821   4843     1  0.0000000  1.0460000  1
   4840   4835   4821   4843     1  0.0000000  0.0000000  3
   4844   4845   4848   4852     1  0.0000000  0.6508444  3
   4844   4845   4857   4860     1  0.0000000  1.0460000  1
   4844   4845   4857   4860     1  0.0000000  0.6694400  3
   4844   4858   4864   4865     1  0.0000000  1.0460000  1
   4844   4858   4864   4865     1  0.0000000  0.6694400  3
   4844   4866   4850   4853     1  0.0000000  1.6038667  3
   4845   4844   4858   4862     1  0.0000000  0.6508444  3
   4845   4844   4858   4863     1  0.0000000  0.6508444  3
   4845   4848   4849   4851     1  0.0000000  0.6508444  3
   4845   4848   4856   4859     1  0.0000000  1.0460000  1
   4845   4848   4856   4859     1  0.0000000  0.6694400  3
   4846   4844   4845   4848     1  0.0000000  0.6508444  3
   4846   4844   4845   4857     1  0.0000000  1.0460000  1
   4846   4844   4845   4857     1  0.0000000  0.0000000  3
   4846   4844   4845   4847     1  0.0000000  0.6508444  3
   4846   4844   4858   4864     1  0.0000000  1.0460000  1
   4846   4844   4858   4864     1  0.0000000  0.0000000  3
   4846   4844   4858   4862     1  0.0000000  0.6508444  3
   4846   4844   4858   4863     1  0.0000000  0.6508444  3
   4846   4844   4866   4850     1  0.0000000  1.6038667  3
   4847   4845   4844   4858     1  0.0000000  0.6508444  3
   4847   4845   4844   4866     1  0.0000000  1.0460000  1
   4847   4845   4844   4866     1  0.0000000  0.0000000  3
   4847   4845   4848   4849     1  0.0000000  0.6508444  3
   4847   4845   4848   4856     1  0.0000000  1.0460000  1
   4847   4845   4848   4856     1  0.0000000  0.0000000  3
   4847   4845   4848   4852     1  0.0000000  0.6508444  3
   4847   4845   4857   4860     1  0.0000000  0.6973333  3
   4848   4845   4857   4860     1  0.0000000  1.0460000  1
   4848   4845   4857   4860     1  0.0000000  0.6694400  3
   4848   4849   4850   4853     1  0.0000000  0.6508444  3
   4848   4849   4855   4861     1  0.0000000  1.0460000  1
   4848   4849   4855   4861     1  0.0000000  0.6694400  3
   4849   4848   4856   4859     1  0.0000000  1.0460000  1
   4849   4848   4856   4859     1  0.0000000  0.6694400  3
   4850   4849   4848   4852     1  0.0000000  0.6508444  3
   4850   4849   4855   4861     1  0.0000000  1.0460000  1
   4850   4849   4855   4861     1  0.0000000  0.6694400  3
   4851   4849   4848   4856     1  0.0000000  1.0460000  1
   4851   4849   4848   4856     1  0.0000000  0.0000000  3
   4851   4849   4848   4852     1  0.0000000  0.6508444  3
   4851   4849   4850   4854     1  0.0000000  1.0460000  1
   4851   4849   4850   4854     1  0.0000000  0.0000000  3
   4851   4849   4850   4866     1  0.0000000  1.0460000  1
   4851   4849   4850   4866     1  0.0000000  0.0000000  3
   4851   4849   4850   4853     1  0.0000000  0.6508444  3
   4851   4849   4855   4861     1  0.0000000  0.6973333  3
   4852   4848   4845   4857     1  0.0000000  1.0460000  1
   4852   4848   4845   4857     1  0.0000000  0.0000000  3
   4852   4848   4849   4855     1  0.0000000  1.0460000  1
   4852   4848   4849   4855     1  0.0000000  0.0000000  3
   4852   4848   4856   4859     1  0.0000000  0.6973333  3
   4853   4850   4849   4855     1  0.0000000  0.6508444  3
   4862   4858   4844   4866     1  0.0000000  1.0460000  1
   4862   4858   4844   4866     1  0.0000000  0.0000000  3
   4862   4858   4864   4865     1  0.0000000  0.6973333  3
   4863   4858   4844   4866     1  0.0000000  1.0460000  1
   4863   4858   4844   4866     1  0.0000000  0.0000000  3
   4863   4858   4864   4865     1  0.0000000  0.6973333  3
   4867   4868   4871   4875     1  0.0000000  0.6508444  3
   4867   4868   4880   4883     1  0.0000000  1.0460000  1
   4867   4868   4880   4883     1  0.0000000  0.6694400  3
   4867   4881   4887   4888     1  0.0000000  1.0460000  1
   4867   4881   4887   4888     1  0.0000000  0.6694400  3
   4867   4889   4873   4876     1  0.0000000  1.6038667  3
   4868   4871   4872   4874     1  0.0000000  0.6508444  3
   4868   4871   4879   4882     1  0.0000000  1.0460000  1
   4868   4871   4879   4882     1  0.0000000  0.6694400  3
   4868   4867   4881   4885     1  0.0000000  0.6508444  3
   4868   4867   4881   4886     1  0.0000000  0.6508444  3
   4869   4867   4868   4871     1  0.0000000  0.6508444  3
   4869   4867   4868   4880     1  0.0000000  1.0460000  1
   4869   4867   4868   4880     1  0.0000000  0.0000000  3
   4869   4867   4868   4870     1  0.0000000  0.6508444  3
   4869   4867   4881   4887     1  0.0000000  1.0460000  1
   4869   4867   4881   4887     1  0.0000000  0.0000000  3
   4869   4867   4881   4885     1  0.0000000  0.6508444  3
   4869   4867   4881   4886     1  0.0000000  0.6508444  3
   4869   4867   4889   4873     1  0.0000000  1.6038667  3
   4870   4868   4871   4872     1  0.0000000  0.6508444  3
   4870   4868   4871   4879     1  0.0000000  1.0460000  1
   4870   4868   4871   4879     1  0.0000000  0.0000000  3
   4870   4868   4871   4875     1  0.0000000  0.6508444  3
   4870   4868   4880   4883     1  0.0000000  0.6973333  3
   4870   4868   4867   4881     1  0.0000000  0.6508444  3
   4870   4868   4867   4889     1  0.0000000  1.0460000  1
   4870   4868   4867   4889     1  0.0000000  0.0000000  3
   4871   4872   4873   4876     1  0.0000000  0.6508444  3
   4871   4872   4878   4884     1  0.0000000  1.0460000  1
   4871   4872   4878   4884     1  0.0000000  0.6694400  3
   4871   4868   4880   4883     1  0.0000000  1.0460000  1
   4871   4868   4880   4883     1  0.0000000  0.6694400  3
   4872   4871   4879   4882     1  0.0000000  1.0460000  1
   4872   4871   4879   4882     1  0.0000000  0.6694400  3
   4873   4872   4878   4884     1  0.0000000  1.0460000  1
   4873   4872   4878   4884     1  0.0000000  0.6694400  3
   4873   4872   4871   4875     1  0.0000000  0.6508444  3
   4874   4872   4873   4877     1  0.0000000  1.0460000  1
   4874   4872   4873   4877     1  0.0000000  0.0000000  3
   4874   4872   4873   4889     1  0.0000000  1.0460000  1
   4874   4872   4873   4889     1  0.0000000  0.0000000  3
   4874   4872   4873   4876     1  0.0000000  0.6508444  3
   4874   4872   4878   4884     1  0.0000000  0.6973333  3
   4874   4872   4871   4879     1  0.0000000  1.0460000  1
   4874   4872   4871   4879     1  0.0000000  0.0000000  3
   4874   4872   4871   4875     1  0.0000000  0.6508444  3
   4875   4871   4872   4878     1  0.0000000  1.0460000  1
   4875   4871   4872   4878     1  0.0000000  0.0000000  3
   4875   4871   4879   4882     1  0.0000000  0.6973333  3
   4875   4871   4868   4880     1  0.0000000  1.0460000  1
   4875   4871   4868   4880     1  0.0000000  0.0000000  3
   4876   4873   4872   4878     1  0.0000000  0.6508444  3
   4885   4881   4887   4888     1  0.0000000  0.6973333  3
   4885   4881   4867   4889     1  0.0000000  1.0460000  1
   4885   4881   4867   4889     1  0.0000000  0.0000000  3
   4886   4881   4887   4888     1  0.0000000  0.6973333  3
   4886   4881   4867   4889     1  0.0000000  1.0460000  1
   4886   4881   4867   4889     1  0.0000000  0.0000000  3
   4890   4891   4894   4898     1  0.0000000  0.6508444  3
   4890   4891   4903   4906     1  0.0000000  1.0460000  1
   4890   4891   4903   4906     1  0.0000000  0.6694400  3
   4890   4904   4910   4911     1  0.0000000  1.0460000  1
   4890   4904   4910   4911     1  0.0000000  0.6694400  3
   4890   4912   4896   4899     1  0.0000000  1.6038667  3
   4891   4890   4904   4908     1  0.0000000  0.6508444  3
   4891   4890   4904   4909     1  0.0000000  0.6508444  3
   4891   4894   4895   4897     1  0.0000000  0.6508444  3
   4891   4894   4902   4905     1  0.0000000  1.0460000  1
   4891   4894   4902   4905     1  0.0000000  0.6694400  3
   4892   4890   4891   4894     1  0.0000000  0.6508444  3
   4892   4890   4891   4903     1  0.0000000  1.0460000  1
   4892   4890   4891   4903     1  0.0000000  0.0000000  3
   4892   4890   4891   4893     1  0.0000000  0.6508444  3
   4892   4890   4904   4910     1  0.0000000  1.0460000  1
   4892   4890   4904   4910     1  0.0000000  0.0000000  3
   4892   4890   4904   4908     1  0.0000000  0.6508444  3
   4892   4890   4904   4909     1  0.0000000  0.6508444  3
   4892   4890   4912   4896     1  0.0000000  1.6038667  3
   4893   4891   4890   4904     1  0.0000000  0.6508444  3
   4893   4891   4890   4912     1  0.0000000  1.0460000  1
   4893   4891   4890   4912     1  0.0000000  0.0000000  3
   4893   4891   4894   4895     1  0.0000000  0.6508444  3
   4893   4891   4894   4902     1  0.0000000  1.0460000  1
   4893   4891   4894   4902     1  0.0000000  0.0000000  3
   4893   4891   4894   4898     1  0.0000000  0.6508444  3
   4893   4891   4903   4906     1  0.0000000  0.6973333  3
   4894   4891   4903   4906     1  0.0000000  1.0460000  1
   4894   4891   4903   4906     1  0.0000000  0.6694400  3
   4894   4895   4896   4899     1  0.0000000  0.6508444  3
   4894   4895   4901   4907     1  0.0000000  1.0460000  1
   4894   4895   4901   4907     1  0.0000000  0.6694400  3
   4895   4894   4902   4905     1  0.0000000  1.0460000  1
   4895   4894   4902   4905     1  0.0000000  0.6694400  3
   4896   4895   4894   4898     1  0.0000000  0.6508444  3
   4896   4895   4901   4907     1  0.0000000  1.0460000  1
   4896   4895   4901   4907     1  0.0000000  0.6694400  3
   4897   4895   4894   4902     1  0.0000000  1.0460000  1
   4897   4895   4894   4902     1  0.0000000  0.0000000  3
   4897   4895   4894   4898     1  0.0000000  0.6508444  3
   4897   4895   4896   4900     1  0.0000000  1.0460000  1
   4897   4895   4896   4900     1  0.0000000  0.0000000  3
   4897   4895   4896   4912     1  0.0000000  1.0460000  1
   4897   4895   4896   4912     1  0.0000000  0.0000000  3
   4897   4895   4896   4899     1  0.0000000  0.6508444  3
   4897   4895   4901   4907     1  0.0000000  0.6973333  3
   4898   4894   4891   4903     1  0.0000000  1.0460000  1
   4898   4894   4891   4903     1  0.0000000  0.0000000  3
   4898   4894   4895   4901     1  0.0000000  1.0460000  1
   4898   4894   4895   4901     1  0.0000000  0.0000000  3
   4898   4894   4902   4905     1  0.0000000  0.6973333  3
   4899   4896   4895   4901     1  0.0000000  0.6508444  3
   4908   4904   4890   4912     1  0.0000000  1.0460000  1
   4908   4904   4890   4912     1  0.0000000  0.0000000  3
   4908   4904   4910   4911     1  0.0000000  0.6973333  3
   4909   4904   4890   4912     1  0.0000000  1.0460000  1
   4909   4904   4890   4912     1  0.0000000  0.0000000  3
   4909   4904   4910   4911     1  0.0000000  0.6973333  3
   4913   4914   4917   4921     1  0.0000000  0.6508444  3
   4913   4914   4926   4929     1  0.0000000  1.0460000  1
   4913   4914   4926   4929     1  0.0000000  0.6694400  3
   4913   4927   4933   4934     1  0.0000000  1.0460000  1
   4913   4927   4933   4934     1  0.0000000  0.6694400  3
   4913   4935   4919   4922     1  0.0000000  1.6038667  3
   4914   4917   4918   4920     1  0.0000000  0.6508444  3
   4914   4917   4925   4928     1  0.0000000  1.0460000  1
   4914   4917   4925   4928     1  0.0000000  0.6694400  3
   4914   4913   4927   4931     1  0.0000000  0.6508444  3
   4914   4913   4927   4932     1  0.0000000  0.6508444  3
   4915   4913   4914   4917     1  0.0000000  0.6508444  3
   4915   4913   4914   4926     1  0.0000000  1.0460000  1
   4915   4913   4914   4926     1  0.0000000  0.0000000  3
   4915   4913   4914   4916     1  0.0000000  0.6508444  3
   4915   4913   4927   4933     1  0.0000000  1.0460000  1
   4915   4913   4927   4933     1  0.0000000  0.0000000  3
   4915   4913   4927   4931     1  0.0000000  0.6508444  3
   4915   4913   4927   4932     1  0.0000000  0.6508444  3
   4915   4913   4935   4919     1  0.0000000  1.6038667  3
   4916   4914   4917   4918     1  0.0000000  0.6508444  3
   4916   4914   4917   4925     1  0.0000000  1.0460000  1
   4916   4914   4917   4925     1  0.0000000  0.0000000  3
   4916   4914   4917   4921     1  0.0000000  0.6508444  3
   4916   4914   4926   4929     1  0.0000000  0.6973333  3
   4916   4914   4913   4927     1  0.0000000  0.6508444  3
   4916   4914   4913   4935     1  0.0000000  1.0460000  1
   4916   4914   4913   4935     1  0.0000000  0.0000000  3
   4917   4918   4919   4922     1  0.0000000  0.6508444  3
   4917   4918   4924   4930     1  0.0000000  1.0460000  1
   4917   4918   4924   4930     1  0.0000000  0.6694400  3
   4917   4914   4926   4929     1  0.0000000  1.0460000  1
   4917   4914   4926   4929     1  0.0000000  0.6694400  3
   4918   4917   4925   4928     1  0.0000000  1.0460000  1
   4918   4917   4925   4928     1  0.0000000  0.6694400  3
   4919   4918   4924   4930     1  0.0000000  1.0460000  1
   4919   4918   4924   4930     1  0.0000000  0.6694400  3
   4919   4918   4917   4921     1  0.0000000  0.6508444  3
   4920   4918   4919   4923     1  0.0000000  1.0460000  1
   4920   4918   4919   4923     1  0.0000000  0.0000000  3
   4920   4918   4919   4935     1  0.0000000  1.0460000  1
   4920   4918   4919   4935     1  0.0000000  0.0000000  3
   4920   4918   4919   4922     1  0.0000000  0.6508444  3
   4920   4918   4924   4930     1  0.0000000  0.6973333  3
   4920   4918   4917   4925     1  0.0000000  1.0460000  1
   4920   4918   4917   4925     1  0.0000000  0.0000000  3
   4920   4918   4917   4921     1  0.0000000  0.6508444  3
   4921   4917   4918   4924     1  0.0000000  1.0460000  1
   4921   4917   4918   4924     1  0.0000000  0.0000000  3
   4921   4917   4925   4928     1  0.0000000  0.6973333  3
   4921   4917   4914   4926     1  0.0000000  1.0460000  1
   4921   4917   4914   4926     1  0.0000000  0.0000000  3
   4922   4919   4918   4924     1  0.0000000  0.6508444  3
   4931   4927   4933   4934     1  0.0000000  0.6973333  3
   4931   4927   4913   4935     1  0.0000000  1.0460000  1
   4931   4927   4913   4935     1  0.0000000  0.0000000  3
   4932   4927   4933   4934     1  0.0000000  0.6973333  3
   4932   4927   4913   4935     1  0.0000000  1.0460000  1
   4932   4927   4913   4935     1  0.0000000  0.0000000  3
   4936   4937   4940   4944     1  0.0000000  0.6508444  3
   4936   4937   4949   4952     1  0.0000000  1.0460000  1
   4936   4937   4949   4952     1  0.0000000  0.6694400  3
   4936   4950   4956   4957     1  0.0000000  1.0460000  1
   4936   4950   4956   4957     1  0.0000000  0.6694400  3
   4936   4958   4942   4945     1  0.0000000  1.6038667  3
   4937   4936   4950   4954     1  0.0000000  0.6508444  3
   4937   4936   4950   4955     1  0.0000000  0.6508444  3
   4937   4940   4941   4943     1  0.0000000  0.6508444  3
   4937   4940   4948   4951     1  0.0000000  1.0460000  1
   4937   4940   4948   4951     1  0.0000000  0.6694400  3
   4938   4936   4937   4940     1  0.0000000  0.6508444  3
   4938   4936   4937   4949     1  0.0000000  1.0460000  1
   4938   4936   4937   4949     1  0.0000000  0.0000000  3
   4938   4936   4937   4939     1  0.0000000  0.6508444  3
   4938   4936   4950   4956     1  0.0000000  1.0460000  1
   4938   4936   4950   4956     1  0.0000000  0.0000000  3
   4938   4936   4950   4954     1  0.0000000  0.6508444  3
   4938   4936   4950   4955     1  0.0000000  0.6508444  3
   4938   4936   4958   4942     1  0.0000000  1.6038667  3
   4939   4937   4936   4950     1  0.0000000  0.6508444  3
   4939   4937   4936   4958     1  0.0000000  1.0460000  1
   4939   4937   4936   4958     1  0.0000000  0.0000000  3
   4939   4937   4940   4941     1  0.0000000  0.6508444  3
   4939   4937   4940   4948     1  0.0000000  1.0460000  1
   4939   4937   4940   4948     1  0.0000000  0.0000000  3
   4939   4937   4940   4944     1  0.0000000  0.6508444  3
   4939   4937   4949   4952     1  0.0000000  0.6973333  3
   4940   4937   4949   4952     1  0.0000000  1.0460000  1
   4940   4937   4949   4952     1  0.0000000  0.6694400  3
   4940   4941   4942   4945     1  0.0000000  0.6508444  3
   4940   4941   4947   4953     1  0.0000000  1.0460000  1
   4940   4941   4947   4953     1  0.0000000  0.6694400  3
   4941   4940   4948   4951     1  0.0000000  1.0460000  1
   4941   4940   4948   4951     1  0.0000000  0.6694400  3
   4942   4941   4940   4944     1  0.0000000  0.6508444  3
   4942   4941   4947   4953     1  0.0000000  1.0460000  1
   4942   4941   4947   4953     1  0.0000000  0.6694400  3
   4943   4941   4940   4948     1  0.0000000  1.0460000  1
   4943   4941   4940   4948     1  0.0000000  0.0000000  3
   4943   4941   4940   4944     1  0.0000000  0.6508444  3
   4943   4941   4942   4946     1  0.0000000  1.0460000  1
   4943   4941   4942   4946     1  0.0000000  0.0000000  3
   4943   4941   4942   4958     1  0.0000000  1.0460000  1
   4943   4941   4942   4958     1  0.0000000  0.0000000  3
   4943   4941   4942   4945     1  0.0000000  0.6508444  3
   4943   4941   4947   4953     1  0.0000000  0.6973333  3
   4944   4940   4937   4949     1  0.0000000  1.0460000  1
   4944   4940   4937   4949     1  0.0000000  0.0000000  3
   4944   4940   4941   4947     1  0.0000000  1.0460000  1
   4944   4940   4941   4947     1  0.0000000  0.0000000  3
   4944   4940   4948   4951     1  0.0000000  0.6973333  3
   4945   4942   4941   4947     1  0.0000000  0.6508444  3
   4954   4950   4936   4958     1  0.0000000  1.0460000  1
   4954   4950   4936   4958     1  0.0000000  0.0000000  3
   4954   4950   4956   4957     1  0.0000000  0.6973333  3
   4955   4950   4936   4958     1  0.0000000  1.0460000  1
   4955   4950   4936   4958     1  0.0000000  0.0000000  3
   4955   4950   4956   4957     1  0.0000000  0.6973333  3
   4959   4960   4963   4967     1  0.0000000  0.6508444  3
   4959   4960   4972   4975     1  0.0000000  1.0460000  1
   4959   4960   4972   4975     1  0.0000000  0.6694400  3
   4959   4973   4979   4980     1  0.0000000  1.0460000  1
   4959   4973   4979   4980     1  0.0000000  0.6694400  3
   4959   4981   4965   4968     1  0.0000000  1.6038667  3
   4960   4963   4964   4966     1  0.0000000  0.6508444  3
   4960   4963   4971   4974     1  0.0000000  1.0460000  1
   4960   4963   4971   4974     1  0.0000000  0.6694400  3
   4960   4959   4973   4977     1  0.0000000  0.6508444  3
   4960   4959   4973   4978     1  0.0000000  0.6508444  3
   4961   4959   4960   4963     1  0.0000000  0.6508444  3
   4961   4959   4960   4972     1  0.0000000  1.0460000  1
   4961   4959   4960   4972     1  0.0000000  0.0000000  3
   4961   4959   4960   4962     1  0.0000000  0.6508444  3
   4961   4959   4973   4979     1  0.0000000  1.0460000  1
   4961   4959   4973   4979     1  0.0000000  0.0000000  3
   4961   4959   4973   4977     1  0.0000000  0.6508444  3
   4961   4959   4973   4978     1  0.0000000  0.6508444  3
   4961   4959   4981   4965     1  0.0000000  1.6038667  3
   4962   4960   4963   4964     1  0.0000000  0.6508444  3
   4962   4960   4963   4971     1  0.0000000  1.0460000  1
   4962   4960   4963   4971     1  0.0000000  0.0000000  3
   4962   4960   4963   4967     1  0.0000000  0.6508444  3
   4962   4960   4972   4975     1  0.0000000  0.6973333  3
   4962   4960   4959   4973     1  0.0000000  0.6508444  3
   4962   4960   4959   4981     1  0.0000000  1.0460000  1
   4962   4960   4959   4981     1  0.0000000  0.0000000  3
   4963   4964   4965   4968     1  0.0000000  0.6508444  3
   4963   4964   4970   4976     1  0.0000000  1.0460000  1
   4963   4964   4970   4976     1  0.0000000  0.6694400  3
   4963   4960   4972   4975     1  0.0000000  1.0460000  1
   4963   4960   4972   4975     1  0.0000000  0.6694400  3
   4964   4963   4971   4974     1  0.0000000  1.0460000  1
   4964   4963   4971   4974     1  0.0000000  0.6694400  3
   4965   4964   4970   4976     1  0.0000000  1.0460000  1
   4965   4964   4970   4976     1  0.0000000  0.6694400  3
   4965   4964   4963   4967     1  0.0000000  0.6508444  3
   4966   4964   4965   4969     1  0.0000000  1.0460000  1
   4966   4964   4965   4969     1  0.0000000  0.0000000  3
   4966   4964   4965   4981     1  0.0000000  1.0460000  1
   4966   4964   4965   4981     1  0.0000000  0.0000000  3
   4966   4964   4965   4968     1  0.0000000  0.6508444  3
   4966   4964   4970   4976     1  0.0000000  0.6973333  3
   4966   4964   4963   4971     1  0.0000000  1.0460000  1
   4966   4964   4963   4971     1  0.0000000  0.0000000  3
   4966   4964   4963   4967     1  0.0000000  0.6508444  3
   4967   4963   4964   4970     1  0.0000000  1.0460000  1
   4967   4963   4964   4970     1  0.0000000  0.0000000  3
   4967   4963   4971   4974     1  0.0000000  0.6973333  3
   4967   4963   4960   4972     1  0.0000000  1.0460000  1
   4967   4963   4960   4972     1  0.0000000  0.0000000  3
   4968   4965   4964   4970     1  0.0000000  0.6508444  3
   4977   4973   4979   4980     1  0.0000000  0.6973333  3
   4977   4973   4959   4981     1  0.0000000  1.0460000  1
   4977   4973   4959   4981     1  0.0000000  0.0000000  3
   4978   4973   4979   4980     1  0.0000000  0.6973333  3
   4978   4973   4959   4981     1  0.0000000  1.0460000  1
   4978   4973   4959   4981     1  0.0000000  0.0000000  3
   4982   4983   4986   4990     1  0.0000000  0.6508444  3
   4982   4983   4995   4998     1  0.0000000  1.0460000  1
   4982   4983   4995   4998     1  0.0000000  0.6694400  3
   4982   4996   5002   5003     1  0.0000000  1.0460000  1
   4982   4996   5002   5003     1  0.0000000  0.6694400  3
   4982   5004   4988   4991     1  0.0000000  1.6038667  3
   4983   4982   4996   5000     1  0.0000000  0.6508444  3
   4983   4982   4996   5001     1  0.0000000  0.6508444  3
   4983   4986   4987   4989     1  0.0000000  0.6508444  3
   4983   4986   4994   4997     1  0.0000000  1.0460000  1
   4983   4986   4994   4997     1  0.0000000  0.6694400  3
   4984   4982   4983   4986     1  0.0000000  0.6508444  3
   4984   4982   4983   4995     1  0.0000000  1.0460000  1
   4984   4982   4983   4995     1  0.0000000  0.0000000  3
   4984   4982   4983   4985     1  0.0000000  0.6508444  3
   4984   4982   4996   5002     1  0.0000000  1.0460000  1
   4984   4982   4996   5002     1  0.0000000  0.0000000  3
   4984   4982   4996   5000     1  0.0000000  0.6508444  3
   4984   4982   4996   5001     1  0.0000000  0.6508444  3
   4984   4982   5004   4988     1  0.0000000  1.6038667  3
   4985   4983   4982   4996     1  0.0000000  0.6508444  3
   4985   4983   4982   5004     1  0.0000000  1.0460000  1
   4985   4983   4982   5004     1  0.0000000  0.0000000  3
   4985   4983   4986   4987     1  0.0000000  0.6508444  3
   4985   4983   4986   4994     1  0.0000000  1.0460000  1
   4985   4983   4986   4994     1  0.0000000  0.0000000  3
   4985   4983   4986   4990     1  0.0000000  0.6508444  3
   4985   4983   4995   4998     1  0.0000000  0.6973333  3
   4986   4983   4995   4998     1  0.0000000  1.0460000  1
   4986   4983   4995   4998     1  0.0000000  0.6694400  3
   4986   4987   4988   4991     1  0.0000000  0.6508444  3
   4986   4987   4993   4999     1  0.0000000  1.0460000  1
   4986   4987   4993   4999     1  0.0000000  0.6694400  3
   4987   4986   4994   4997     1  0.0000000  1.0460000  1
   4987   4986   4994   4997     1  0.0000000  0.6694400  3
   4988   4987   4986   4990     1  0.0000000  0.6508444  3
   4988   4987   4993   4999     1  0.0000000  1.0460000  1
   4988   4987   4993   4999     1  0.0000000  0.6694400  3
   4989   4987   4986   4994     1  0.0000000  1.0460000  1
   4989   4987   4986   4994     1  0.0000000  0.0000000  3
   4989   4987   4986   4990     1  0.0000000  0.6508444  3
   4989   4987   4988   4992     1  0.0000000  1.0460000  1
   4989   4987   4988   4992     1  0.0000000  0.0000000  3
   4989   4987   4988   5004     1  0.0000000  1.0460000  1
   4989   4987   4988   5004     1  0.0000000  0.0000000  3
   4989   4987   4988   4991     1  0.0000000  0.6508444  3
   4989   4987   4993   4999     1  0.0000000  0.6973333  3
   4990   4986   4983   4995     1  0.0000000  1.0460000  1
   4990   4986   4983   4995     1  0.0000000  0.0000000  3
   4990   4986   4987   4993     1  0.0000000  1.0460000  1
   4990   4986   4987   4993     1  0.0000000  0.0000000  3
   4990   4986   4994   4997     1  0.0000000  0.6973333  3
   4991   4988   4987   4993     1  0.0000000  0.6508444  3
   5000   4996   4982   5004     1  0.0000000  1.0460000  1
   5000   4996   4982   5004     1  0.0000000  0.0000000  3
   5000   4996   5002   5003     1  0.0000000  0.6973333  3
   5001   4996   4982   5004     1  0.0000000  1.0460000  1
   5001   4996   4982   5004     1  0.0000000  0.0000000  3
   5001   4996   5002   5003     1  0.0000000  0.6973333  3
   5005   5006   5009   5013     1  0.0000000  0.6508444  3
   5005   5006   5018   5021     1  0.0000000  1.0460000  1
   5005   5006   5018   5021     1  0.0000000  0.6694400  3
   5005   5019   5025   5026     1  0.0000000  1.0460000  1
   5005   5019   5025   5026     1  0.0000000  0.6694400  3
   5005   5027   5011   5014     1  0.0000000  1.6038667  3
   5006   5009   5010   5012     1  0.0000000  0.6508444  3
   5006   5009   5017   5020     1  0.0000000  1.0460000  1
   5006   5009   5017   5020     1  0.0000000  0.6694400  3
   5006   5005   5019   5023     1  0.0000000  0.6508444  3
   5006   5005   5019   5024     1  0.0000000  0.6508444  3
   5007   5005   5006   5009     1  0.0000000  0.6508444  3
   5007   5005   5006   5018     1  0.0000000  1.0460000  1
   5007   5005   5006   5018     1  0.0000000  0.0000000  3
   5007   5005   5006   5008     1  0.0000000  0.6508444  3
   5007   5005   5019   5025     1  0.0000000  1.0460000  1
   5007   5005   5019   5025     1  0.0000000  0.0000000  3
   5007   5005   5019   5023     1  0.0000000  0.6508444  3
   5007   5005   5019   5024     1  0.0000000  0.6508444  3
   5007   5005   5027   5011     1  0.0000000  1.6038667  3
   5008   5006   5009   5010     1  0.0000000  0.6508444  3
   5008   5006   5009   5017     1  0.0000000  1.0460000  1
   5008   5006   5009   5017     1  0.0000000  0.0000000  3
   5008   5006   5009   5013     1  0.0000000  0.6508444  3
   5008   5006   5018   5021     1  0.0000000  0.6973333  3
   5008   5006   5005   5019     1  0.0000000  0.6508444  3
   5008   5006   5005   5027     1  0.0000000  1.0460000  1
   5008   5006   5005   5027     1  0.0000000  0.0000000  3
   5009   5010   5011   5014     1  0.0000000  0.6508444  3
   5009   5010   5016   5022     1  0.0000000  1.0460000  1
   5009   5010   5016   5022     1  0.0000000  0.6694400  3
   5009   5006   5018   5021     1  0.0000000  1.0460000  1
   5009   5006   5018   5021     1  0.0000000  0.6694400  3
   5010   5009   5017   5020     1  0.0000000  1.0460000  1
   5010   5009   5017   5020     1  0.0000000  0.6694400  3
   5011   5010   5016   5022     1  0.0000000  1.0460000  1
   5011   5010   5016   5022     1  0.0000000  0.6694400  3
   5011   5010   5009   5013     1  0.0000000  0.6508444  3
   5012   5010   5011   5015     1  0.0000000  1.0460000  1
   5012   5010   5011   5015     1  0.0000000  0.0000000  3
   5012   5010   5011   5027     1  0.0000000  1.0460000  1
   5012   5010   5011   5027     1  0.0000000  0.0000000  3
   5012   5010   5011   5014     1  0.0000000  0.6508444  3
   5012   5010   5016   5022     1  0.0000000  0.6973333  3
   5012   5010   5009   5017     1  0.0000000  1.0460000  1
   5012   5010   5009   5017     1  0.0000000  0.0000000  3
   5012   5010   5009   5013     1  0.0000000  0.6508444  3
   5013   5009   5010   5016     1  0.0000000  1.0460000  1
   5013   5009   5010   5016     1  0.0000000  0.0000000  3
   5013   5009   5017   5020     1  0.0000000  0.6973333  3
   5013   5009   5006   5018     1  0.0000000  1.0460000  1
   5013   5009   5006   5018     1  0.0000000  0.0000000  3
   5014   5011   5010   5016     1  0.0000000  0.6508444  3
   5023   5019   5025   5026     1  0.0000000  0.6973333  3
   5023   5019   5005   5027     1  0.0000000  1.0460000  1
   5023   5019   5005   5027     1  0.0000000  0.0000000  3
   5024   5019   5025   5026     1  0.0000000  0.6973333  3
   5024   5019   5005   5027     1  0.0000000  1.0460000  1
   5024   5019   5005   5027     1  0.0000000  0.0000000  3

;[ system ]
;; Name
;Generic title
;
;[ molecules ]
;; Compound       #mols
;system1              1
